Title
19927
    1ASP      N    1   6.191   1.238   1.945 -0.0133 -0.1289  0.1622
    1ASP    HT1    2   6.204   1.270   2.043 -2.0727  1.3589  0.0193
    1ASP    HT2    3   6.253   1.156   1.931 -1.1378 -0.8569 -0.7481
    1ASP    HT3    4   6.090   1.214   1.940 -0.0590  0.2024 -0.9455
    1ASP     CA    5   6.223   1.343   1.853 -0.3735  0.1351  0.4802
    1ASP     HA    6   6.172   1.322   1.761  0.0699 -1.0705  0.4896
    1ASP     CB    7   6.173   1.474   1.909  0.1231  0.5129  0.2764
    1ASP    HB1    8   6.233   1.516   1.992  0.4168 -1.5252  1.1661
    1ASP    HB2    9   6.066   1.470   1.938  0.1218  1.0528  0.3541
    1ASP     CG   10   6.166   1.587   1.808  0.0245 -0.4893 -0.4678
    1ASP    OD1   11   6.176   1.568   1.683  0.6341  0.4194  0.0130
    1ASP    OD2   12   6.162   1.704   1.860 -0.6016  0.2996  0.0136
    1ASP      C   13   6.370   1.360   1.832  0.0309  0.0089 -0.1064
    1ASP      O   14   6.443   1.277   1.888 -0.6324  0.0322  0.1557
    2ALA      N   15   6.424   1.463   1.759 -0.4171  0.5994 -0.1453
    2ALA     HN   16   6.362   1.534   1.727 -2.8278 -0.7133  1.3223
    2ALA     CA   17   6.567   1.490   1.750 -0.3213 -0.2597  0.1171
    2ALA     HA   18   6.604   1.399   1.705 -1.3912  0.0778 -1.5185
    2ALA     CB   19   6.584   1.617   1.665  0.2702 -0.1373 -0.1062
    2ALA    HB1   20   6.529   1.705   1.707 -1.4011 -1.2007  0.0298
    2ALA    HB2   21   6.542   1.601   1.564 -1.3570 -0.1496  0.5322
    2ALA    HB3   22   6.686   1.661   1.661  0.1833  0.0342 -0.4681
    2ALA      C   23   6.636   1.511   1.893  0.3805 -0.7694  0.4740
    2ALA      O   24   6.572   1.546   1.990 -0.1867  0.0983  0.7607
    3ASP      N   25   6.760   1.454   1.898 -0.1076  0.3878 -0.5671
    3ASP     HN   26   6.799   1.414   1.815 -0.6605 -0.2105 -0.5527
    3ASP     CA   27   6.856   1.454   2.006  0.2327  0.6088 -0.0692
    3ASP     HA   28   6.858   1.354   2.047 -0.4265  0.5776 -0.1025
    3ASP     CB   29   7.009   1.473   1.965  0.2707  0.6973  0.6728
    3ASP    HB1   30   7.073   1.432   2.047  1.2077 -0.2322 -0.4804
    3ASP    HB2   31   7.031   1.578   1.938 -1.4516  0.5437 -1.6968
    3ASP     CG   32   7.056   1.397   1.840  0.1739 -0.6104  0.1642
    3ASP    OD1   33   7.177   1.398   1.805  0.2813 -0.5239 -0.1152
    3ASP    OD2   34   6.973   1.326   1.780 -0.6385 -0.7605  0.0889
    3ASP      C   35   6.823   1.546   2.119 -0.5883  0.5229 -0.6066
    3ASP      O   36   6.832   1.669   2.105  0.5586  0.2887 -0.1428
    4GLY      N   37   6.790   1.495   2.238  0.4047  0.2329  0.1057
    4GLY     HN   38   6.782   1.397   2.248 -1.3898  0.4196  0.8647
    4GLY     CA   39   6.807   1.565   2.366  0.4048  0.1691  0.3333
    4GLY    HA1   40   6.786   1.500   2.449 -0.1571  1.2043  1.0281
    4GLY    HA2   41   6.745   1.653   2.356 -0.1056 -0.3725 -1.6843
    4GLY      C   42   6.943   1.618   2.391 -0.6125  0.2142  0.3758
    4GLY      O   43   7.049   1.571   2.340  0.2438 -0.4716  0.3545
    5PRO      N   44   6.959   1.714   2.477 -0.0731 -0.2778  0.3587
    5PRO     CD   45   6.851   1.785   2.547  0.1433 -0.4807  0.9831
    5PRO    HD1   46   6.763   1.726   2.578 -1.9431  2.2156  0.5548
    5PRO    HD2   47   6.818   1.868   2.481  2.2220  0.3130  0.8605
    5PRO     CA   48   7.086   1.743   2.539 -0.2874 -0.2481  1.2135
    5PRO     HA   49   7.161   1.759   2.463 -1.2986 -1.0117  0.0025
    5PRO     CB   50   7.052   1.873   2.617  0.0770  0.9003 -0.1613
    5PRO    HB1   51   7.066   1.966   2.558  0.9231  1.1188  0.3584
    5PRO    HB2   52   7.125   1.878   2.701 -0.6501 -0.4885  0.5998
    5PRO     CG   53   6.908   1.850   2.664 -0.8322  0.1930 -0.0187
    5PRO    HG1   54   6.908   1.772   2.744  1.0978 -0.5395 -0.6825
    5PRO    HG2   55   6.848   1.939   2.693  0.8127  0.5686  2.5580
    5PRO      C   56   7.132   1.638   2.632  0.2680  0.1572  0.1777
    5PRO      O   57   7.059   1.553   2.674 -0.3594 -0.3079 -0.0023
    6GLY      N   58   7.255   1.640   2.677  0.3863 -0.0493 -0.0747
    6GLY     HN   59   7.307   1.719   2.646  0.7168 -0.1950  0.1036
    6GLY     CA   60   7.328   1.539   2.750  0.5202 -0.1787  0.1614
    6GLY    HA1   61   7.346   1.452   2.689  1.8836 -1.4404  2.2286
    6GLY    HA2   62   7.270   1.526   2.840  1.6350 -2.6125  0.6174
    6GLY      C   63   7.458   1.582   2.804 -0.1723  0.3004 -0.5568
    6GLY      O   64   7.541   1.643   2.738  0.3146  0.1277  0.0833
    7ASP      N   65   7.484   1.533   2.929 -0.6453 -0.4286 -0.2792
    7ASP     HN   66   7.412   1.498   2.988  0.0449 -1.3416  0.0485
    7ASP     CA   67   7.619   1.525   2.993  0.1753  0.8068  0.3762
    7ASP     HA   68   7.647   1.629   2.997 -1.6536  1.3827 -0.4794
    7ASP     CB   69   7.605   1.478   3.141  0.0052  0.5170  0.0405
    7ASP    HB1   70   7.694   1.435   3.192 -0.7297  0.3706  1.2385
    7ASP    HB2   71   7.534   1.393   3.150  1.9390 -1.2622 -0.4743
    7ASP     CG   72   7.548   1.587   3.238 -0.9140 -0.1855 -0.3078
    7ASP    OD1   73   7.532   1.708   3.215 -0.1227 -0.9583 -0.3024
    7ASP    OD2   74   7.524   1.537   3.354  0.2858  0.1165  0.2122
    7ASP      C   75   7.723   1.435   2.920 -0.6128  0.3167 -0.3772
    7ASP      O   76   7.689   1.319   2.883 -0.2577 -0.2235 -0.2603
    8PRO      N   77   7.848   1.472   2.902  0.7473 -0.8100 -0.2649
    8PRO     CD   78   7.903   1.608   2.952  0.4780 -0.1111 -0.1972
    8PRO    HD1   79   7.859   1.640   3.049  1.3794  0.6707 -0.0429
    8PRO    HD2   80   7.886   1.673   2.864  2.4101  0.2589 -0.3343
    8PRO     CA   81   7.959   1.382   2.862  0.4109  0.0420 -0.1308
    8PRO     HA   82   7.941   1.346   2.761 -1.9466  1.0266 -0.1228
    8PRO     CB   83   8.077   1.474   2.862 -0.5364  0.3588 -1.0631
    8PRO    HB1   84   8.092   1.537   2.772  0.8957  0.6119 -0.6829
    8PRO    HB2   85   8.169   1.411   2.869  1.3560  2.6116 -3.5688
    8PRO     CG   86   8.049   1.574   2.972 -0.7828 -0.1352 -0.6881
    8PRO    HG1   87   8.074   1.523   3.068 -0.4305 -1.2521 -1.3460
    8PRO    HG2   88   8.106   1.668   2.962 -2.0039  0.7348  0.2137
    8PRO      C   89   7.984   1.254   2.939 -1.0687  0.0974  0.1626
    8PRO      O   90   7.945   1.242   3.055 -0.3237 -0.1996  1.0461
    9ASP      N   91   8.049   1.153   2.877 -0.0312  0.2701  0.3360
    9ASP     HN   92   8.090   1.171   2.788  0.9051  0.8399  0.8643
    9ASP     CA   93   8.072   1.022   2.934 -0.3208  0.2939 -0.6807
    9ASP     HA   94   7.978   0.981   2.968 -1.3941  3.7317  1.0149
    9ASP     CB   95   8.145   0.936   2.817  0.3806 -1.0679  0.5586
    9ASP    HB1   96   8.185   0.843   2.862  2.1483 -0.1712  0.9477
    9ASP    HB2   97   8.232   0.988   2.771 -1.2781 -0.0270 -1.5563
    9ASP     CG   98   8.047   0.895   2.716  0.5743  0.6975  0.0242
    9ASP    OD1   99   7.927   0.871   2.754  0.0543 -0.1925 -0.5752
    9ASP    OD2  100   8.082   0.873   2.596 -0.5849  0.5869 -0.2801
    9ASP      C  101   8.156   1.034   3.060  0.5823 -0.9654 -0.1911
    9ASP      O  102   8.120   0.972   3.166 -0.3365 -0.0412  0.4437
   10ALA      N  103   8.258   1.122   3.058  0.6607 -0.2372 -0.3447
   10ALA     HN  104   8.279   1.172   2.974 -0.0304  3.0012  1.2650
   10ALA     CA  105   8.322   1.173   3.183  0.1463  0.3932  0.3252
   10ALA     HA  106   8.242   1.192   3.252  0.0301 -0.7649  0.5192
   10ALA     CB  107   8.412   1.061   3.232  0.4879 -0.2409 -0.6911
   10ALA    HB1  108   8.471   1.097   3.319 -0.7271 -2.4295  1.1421
   10ALA    HB2  109   8.483   1.025   3.154  2.5277  1.4181  0.3140
   10ALA    HB3  110   8.350   0.976   3.267  0.2739  0.5788  0.9912
   10ALA      C  111   8.400   1.304   3.167  0.2743 -0.1024 -0.1897
   10ALA      O  112   8.411   1.359   3.056 -0.0053 -0.3377 -0.6110
   11GLY      N  113   8.439   1.361   3.278 -0.4122 -0.6348  0.1577
   11GLY     HN  114   8.413   1.309   3.359  1.6222 -2.3153 -0.1770
   11GLY     CA  115   8.507   1.491   3.291 -0.5069 -0.3783 -0.0430
   11GLY    HA1  116   8.480   1.541   3.199 -1.1320 -0.5294  0.0582
   11GLY    HA2  117   8.612   1.485   3.317  0.0863 -0.6967 -2.2352
   11GLY      C  118   8.444   1.574   3.405 -0.3407  0.5602  0.0314
   11GLY    OT1  119   8.517   1.638   3.478 -0.1493 -0.0422 -0.4881
   11GLY    OT2  120   8.320   1.576   3.418  0.3031  0.2186 -0.0917
   12SOD    SOD  121   2.893   1.039   0.170  0.6019  0.4802 -0.4372
   13SOD    SOD  122   0.377   3.557   2.066  0.3679  0.0488 -0.0732
   14SOD    SOD  123   0.460   4.978   4.815  0.0163 -0.1914 -0.0499
   15SOD    SOD  124   6.100   4.957   1.182 -0.3918  0.0743 -0.0737
   16SOD    SOD  125   4.882   5.840   2.062 -0.2715 -0.0019  0.2625
   17SOD    SOD  126   2.755   2.363   2.367 -0.0412 -0.1621  0.4591
   18SOD    SOD  127   2.320   1.294   2.084 -0.1480  0.2900 -0.0538
   19SOD    SOD  128   2.575   1.646   3.209 -0.0590 -0.1333 -0.3492
   20SOD    SOD  129   3.051   3.467   1.251 -0.5149  0.6505 -0.1053
   21SOD    SOD  130   4.832   2.194   2.536 -0.1270 -0.0997  0.1697
   22SOD    SOD  131   3.616   3.086   4.093 -0.0729 -0.2277  0.1747
   23SOD    SOD  132   2.935   1.796   4.710 -0.1054  0.0775 -0.5683
   24SOD    SOD  133   5.760   4.822   3.605  0.4948  0.1168  0.1394
   25SOD    SOD  134   2.078   4.582   4.739  0.8708  0.6125  0.2398
   26SOD    SOD  135   0.264   0.374   3.725 -0.6462  0.3585  0.3253
   27SOD    SOD  136   0.934   3.562   3.248 -0.6935 -0.0731  0.2827
   28SOD    SOD  137   3.124   4.739   3.669  0.3848  0.0827 -0.2822
   29SOD    SOD  138   3.943   3.063   2.991 -0.0311  0.1026  0.4322
   30SOD    SOD  139   1.761   0.242   3.700 -0.1892  0.3432 -0.2125
   31SOD    SOD  140   0.643   3.811   5.017  0.1543 -0.0534  0.1638
   32SOD    SOD  141   0.912   1.911   3.343  0.2014  0.4254 -0.0616
   33SOD    SOD  142   2.391   3.608   0.030  0.1168  0.2738 -0.3912
   34CLA    CLA  143   0.527   5.587   2.902  0.0801  0.3927  0.0044
   35CLA    CLA  144   1.526   2.500   1.594  0.3267 -0.0350 -0.1086
   36CLA    CLA  145   0.391   1.417   4.930  0.0341 -0.0066 -0.5030
   37CLA    CLA  146   5.396   5.430   3.065 -0.3680 -0.1557 -0.1899
   38CLA    CLA  147   3.097   0.922   4.369  0.2992 -0.0689  0.1455
   39CLA    CLA  148   0.755   3.149   3.094  0.0826 -0.5794 -0.1397
   40CLA    CLA  149   1.757   3.007   4.844  0.1857  0.6347  0.1471
   41CLA    CLA  150   2.714   2.103   2.836 -0.3046  0.0274  0.1936
   42CLA    CLA  151   0.220   0.367   0.845  0.0502 -0.3051  0.5052
   43CLA    CLA  152   4.353   3.928   4.844  0.0082 -0.2197 -0.2960
   44CLA    CLA  153   2.496   5.462   0.895  0.4262 -0.1468  0.1719
   45CLA    CLA  154   3.323   1.669   3.678 -0.1401 -0.1382  0.2224
   46CLA    CLA  155   0.482   4.212   3.779  0.1213  0.0363 -0.0050
   47CLA    CLA  156   1.156   1.193   0.632 -0.3912 -0.0818  0.0341
   48CLA    CLA  157   0.695   4.267   2.398  0.3290 -0.1378  0.3415
   49CLA    CLA  158   0.405   4.505   0.394  0.0680 -0.2070 -0.2056
   50CLA    CLA  159   5.543   1.579   0.929 -0.0662 -0.2557 -0.2250
   51CLA    CLA  160   0.605   1.280   4.494 -0.0582 -0.0053 -0.5112
   52TIP3   OH2  161   3.439   2.301   3.008 -0.1780  0.2110 -0.3589
   52TIP3    H1  162   3.511   2.245   3.036  0.5876  0.2773 -2.0869
   52TIP3    H2  163   3.403   2.256   2.931 -1.0535  0.9344 -0.3903
   53TIP3   OH2  164   5.601   0.785   4.808  0.2172  0.5555 -0.3231
   53TIP3    H1  165   5.605   0.857   4.745  1.0845 -0.6950 -1.7880
   53TIP3    H2  166   5.558   0.714   4.761  1.8817 -0.7849  0.0655
   54TIP3   OH2  167   4.426   5.551   3.084 -0.4847 -0.3958 -0.0398
   54TIP3    H1  168   4.503   5.574   3.031 -0.6234 -1.2255 -0.6203
   54TIP3    H2  169   4.351   5.581   3.032 -0.5640  0.1975  0.4160
   55TIP3   OH2  170   2.130   1.767   4.725  0.1465  0.3189  0.2599
   55TIP3    H1  171   2.183   1.742   4.800  0.1824 -2.5357 -0.6038
   55TIP3    H2  172   2.189   1.757   4.650 -0.5659  0.7286 -0.3729
   56TIP3   OH2  173   4.382   2.158   1.117 -0.4039 -0.5081 -0.5737
   56TIP3    H1  174   4.313   2.144   1.182 -0.3404 -1.1084 -0.6298
   56TIP3    H2  175   4.336   2.163   1.033 -0.3155 -1.9168 -0.7350
   57TIP3   OH2  176   0.684   3.278   1.011 -0.3087 -0.1573  0.0504
   57TIP3    H1  177   0.758   3.255   0.954 -0.3254 -0.3172  0.0931
   57TIP3    H2  178   0.707   3.364   1.046  1.5597 -1.6311  2.8361
   58TIP3   OH2  179   4.723   4.828   2.120  0.3668  0.1331 -0.7086
   58TIP3    H1  180   4.800   4.815   2.065  2.1929 -0.4813  1.8135
   58TIP3    H2  181   4.715   4.747   2.170 -0.8346  0.8981  0.3926
   59TIP3   OH2  182   1.515   0.649   0.846 -0.8091 -0.1466 -0.4559
   59TIP3    H1  183   1.561   0.730   0.825  1.4396 -0.3776  2.8349
   59TIP3    H2  184   1.574   0.580   0.819 -1.2484 -0.6019 -0.2666
   60TIP3   OH2  185   0.698   4.503   1.263 -0.2707 -0.3011 -0.2309
   60TIP3    H1  186   0.727   4.442   1.195  1.2264  0.7368 -0.5799
   60TIP3    H2  187   0.634   4.559   1.218 -0.2744 -0.4518 -0.4163
   61TIP3   OH2  188   5.351   3.344   3.887  0.1645  0.1283  0.0957
   61TIP3    H1  189   5.261   3.333   3.919  0.6309 -0.7957  1.1606
   61TIP3    H2  190   5.341   3.392   3.805 -1.2771  0.3430  0.3602
   62TIP3   OH2  191   5.957   2.616   2.032 -0.1609  0.4745  0.3795
   62TIP3    H1  192   5.894   2.633   1.963  0.6226  0.3217 -0.3993
   62TIP3    H2  193   5.907   2.624   2.113 -1.2833 -0.1143 -0.2240
   63TIP3   OH2  194   4.371   3.979   0.688  0.1113  0.0670 -0.3121
   63TIP3    H1  195   4.333   4.011   0.607  0.8621 -0.3557 -0.8472
   63TIP3    H2  196   4.460   3.953   0.664  0.0668 -0.8492  0.4534
   64TIP3   OH2  197   5.164   3.826   4.786 -0.5605  0.1143  0.1535
   64TIP3    H1  198   5.117   3.899   4.826 -0.5816 -0.1712  0.6603
   64TIP3    H2  199   5.254   3.838   4.814 -0.6509 -0.3215  0.6380
   65TIP3   OH2  200   1.326   1.594   4.085 -0.3717 -0.0459  0.4640
   65TIP3    H1  201   1.235   1.581   4.059 -0.6909 -1.2032  2.0209
   65TIP3    H2  202   1.377   1.556   4.014 -1.1689 -1.7178  0.7510
   66TIP3   OH2  203   5.110   3.557   2.582 -0.2735 -0.0960  0.3457
   66TIP3    H1  204   5.081   3.646   2.563 -0.8879 -0.5416 -0.9304
   66TIP3    H2  205   5.190   3.547   2.531 -0.4593 -0.4274  0.1201
   67TIP3   OH2  206   5.330   0.351   2.034 -0.0725 -0.2528  0.6319
   67TIP3    H1  207   5.413   0.380   1.996 -0.5172 -1.4504 -1.4698
   67TIP3    H2  208   5.355   0.282   2.095  0.5519  0.2919  1.0101
   68TIP3   OH2  209   3.920   1.728   0.665 -0.2822 -0.0549  0.6301
   68TIP3    H1  210   3.845   1.670   0.663  1.1406 -1.9960  0.8509
   68TIP3    H2  211   3.927   1.755   0.757 -1.3577  1.0831  0.4005
   69TIP3   OH2  212   4.607   3.367   3.997  0.2244 -0.2436 -0.1570
   69TIP3    H1  213   4.590   3.454   4.034  0.7665 -0.4728  0.6741
   69TIP3    H2  214   4.635   3.384   3.907 -0.5917  0.3746 -0.3046
   70TIP3   OH2  215   6.021   2.739   3.272  0.0803  0.5770 -0.1751
   70TIP3    H1  216   6.113   2.766   3.279 -0.0635  1.5473 -1.7170
   70TIP3    H2  217   5.971   2.821   3.272 -0.8617  0.0429  1.2514
   71TIP3   OH2  218   0.230   0.815   4.751  0.0142  0.3522  0.4821
   71TIP3    H1  219   0.217   0.731   4.706  0.2699 -0.5966  2.1144
   71TIP3    H2  220   0.277   0.869   4.687  0.0732 -0.8182 -0.5098
   72TIP3   OH2  221   2.704   2.081   1.399 -0.4345  0.5042  0.3136
   72TIP3    H1  222   2.734   2.170   1.381 -0.4355  0.2153 -1.2032
   72TIP3    H2  223   2.688   2.042   1.313 -0.4160 -0.9746  0.9372
   73TIP3   OH2  224   4.201   3.121   1.332  0.2624  0.0787 -0.0124
   73TIP3    H1  225   4.211   3.210   1.297 -0.7007  0.3756  0.4324
   73TIP3    H2  226   4.289   3.098   1.363  0.2276  1.5018  1.2997
   74TIP3   OH2  227   1.861   2.590   0.503 -0.5293  0.3714 -0.1832
   74TIP3    H1  228   1.887   2.590   0.596 -0.3406 -0.8095 -0.2230
   74TIP3    H2  229   1.786   2.532   0.499 -0.9655  0.9488 -0.6791
   75TIP3   OH2  230   0.769   5.328   4.379  0.3440  0.6010 -0.5052
   75TIP3    H1  231   0.842   5.300   4.324  0.0344  1.5252 -1.4301
   75TIP3    H2  232   0.697   5.346   4.318 -0.0096  1.6842  0.1794
   76TIP3   OH2  233   5.866   3.757   0.939 -0.2611 -0.0550 -0.2694
   76TIP3    H1  234   5.908   3.761   1.025  1.1243  3.5942 -0.9201
   76TIP3    H2  235   5.800   3.827   0.942 -1.4274 -1.0441 -1.6244
   77TIP3   OH2  236   1.405   2.003   3.521 -0.1619 -0.0892 -0.0707
   77TIP3    H1  237   1.492   2.022   3.557 -0.0720 -2.2885  1.0627
   77TIP3    H2  238   1.345   2.056   3.574  0.3332  0.0205  0.3875
   78TIP3   OH2  239   1.091   5.029   3.181 -0.7329 -0.0602 -0.0514
   78TIP3    H1  240   1.085   5.038   3.276  0.7019 -0.5736  0.1159
   78TIP3    H2  241   1.013   4.978   3.157 -0.9653 -0.1673  0.8816
   79TIP3   OH2  242   4.175   2.289   4.584  0.3625 -0.0377  0.2840
   79TIP3    H1  243   4.158   2.279   4.677  0.4907  0.0660  0.3183
   79TIP3    H2  244   4.221   2.209   4.559  1.0576  0.2939  0.4824
   80TIP3   OH2  245   6.302   1.295   2.962 -0.3681  0.1419 -0.4200
   80TIP3    H1  246   6.217   1.258   2.940 -1.0173  1.1610  0.2821
   80TIP3    H2  247   6.310   1.372   2.906 -1.0103  1.4340  1.1990
   81TIP3   OH2  248   6.164   2.106   5.031 -0.2162 -0.3566  0.3991
   81TIP3    H1  249   6.122   2.189   5.008 -0.9312 -0.6348  0.6655
   81TIP3    H2  250   6.151   2.050   4.955 -1.8049 -0.9836  1.0816
   82TIP3   OH2  251   2.315   0.503   1.743  0.3750  0.3398 -0.1119
   82TIP3    H1  252   2.411   0.495   1.740  0.3074 -0.7610  0.0052
   82TIP3    H2  253   2.293   0.558   1.669  1.0693  0.1338 -0.4785
   83TIP3   OH2  254   5.326   4.333   4.633  0.3094 -0.7433  0.5346
   83TIP3    H1  255   5.418   4.324   4.611  0.1212  0.2843 -0.7983
   83TIP3    H2  256   5.282   4.272   4.574 -0.1046  1.1832 -1.2719
   84TIP3   OH2  257   4.070   1.944   4.346 -0.0894  0.1216 -0.2315
   84TIP3    H1  258   4.130   1.975   4.414 -0.7856 -1.0701  0.9653
   84TIP3    H2  259   4.127   1.902   4.281  0.3697 -1.8086  1.3368
   85TIP3   OH2  260   5.702   5.830   0.325 -0.3883  0.2384 -0.3614
   85TIP3    H1  261   5.677   5.747   0.286  0.6476 -1.1135  1.6843
   85TIP3    H2  262   5.794   5.841   0.301 -0.2805  0.3515  0.0927
   86TIP3   OH2  263   0.425   4.810   0.426 -0.2885  0.0786 -0.6514
   86TIP3    H1  264   0.412   4.857   0.509 -1.7542  2.2359 -1.9814
   86TIP3    H2  265   0.376   4.729   0.436 -2.4339  1.3510 -0.1506
   87TIP3   OH2  266   5.796   0.602   2.767  0.1198 -0.4381  0.8094
   87TIP3    H1  267   5.889   0.576   2.766 -0.0349 -0.9848  0.5180
   87TIP3    H2  268   5.763   0.577   2.680 -0.2227  0.0424  0.7996
   88TIP3   OH2  269   4.853   2.298   1.371  0.2033 -0.0989  0.1160
   88TIP3    H1  270   4.771   2.251   1.384 -1.5233  2.2769 -1.5687
   88TIP3    H2  271   4.828   2.390   1.364  3.0241  0.7291 -0.3689
   89TIP3   OH2  272   2.558   2.554  -0.031  0.4139 -0.3874 -0.0051
   89TIP3    H1  273   2.648   2.545  -0.001  1.0278  1.1168 -1.2537
   89TIP3    H2  274   2.508   2.578   0.047  1.6214  1.5331  0.2407
   90TIP3   OH2  275   0.891   2.536   4.072  0.8199 -0.2568 -0.0607
   90TIP3    H1  276   0.986   2.529   4.083  0.6756 -1.6386  0.5588
   90TIP3    H2  277   0.857   2.454   4.109 -0.6526  0.4223  0.1445
   91TIP3   OH2  278   0.544   4.985   1.692  0.0867  0.6465 -0.1644
   91TIP3    H1  279   0.538   5.041   1.769  0.9467  1.2941 -0.5535
   91TIP3    H2  280   0.638   4.971   1.680  0.0347  1.3758 -1.6627
   92TIP3   OH2  281   0.726   4.658   2.270  0.6571  0.7990  0.5341
   92TIP3    H1  282   0.701   4.650   2.362  0.3325  0.2822  0.4066
   92TIP3    H2  283   0.817   4.687   2.273  0.6776  0.7058  1.0221
   93TIP3   OH2  284   3.025   0.201   0.699  0.3930  0.0806 -0.0265
   93TIP3    H1  285   2.990   0.146   0.629  0.5503 -0.5631  0.3987
   93TIP3    H2  286   3.101   0.244   0.658  0.9139 -0.8410 -0.0472
   94TIP3   OH2  287   2.149   4.179   1.157 -0.8201  0.1171  0.7681
   94TIP3    H1  288   2.059   4.182   1.126 -0.0554 -0.4712 -1.7534
   94TIP3    H2  289   2.189   4.259   1.123 -0.1649 -0.0741  1.0786
   95TIP3   OH2  290   5.886   3.324   3.624 -0.3141  0.6694  0.7270
   95TIP3    H1  291   5.892   3.396   3.561  0.6218 -0.3777 -0.4444
   95TIP3    H2  292   5.964   3.271   3.607 -1.9325 -1.7057  0.1761
   96TIP3   OH2  293   5.707   4.230   3.095  0.1960 -0.0327 -0.2924
   96TIP3    H1  294   5.727   4.152   3.043  0.8821 -0.3954  0.4845
   96TIP3    H2  295   5.734   4.207   3.184  1.1441  1.3652 -0.1845
   97TIP3   OH2  296   1.787   1.976   0.949 -0.0207  0.1728 -0.2725
   97TIP3    H1  297   1.832   2.043   0.999  1.8193  0.0396 -1.6446
   97TIP3    H2  298   1.705   2.017   0.922 -0.4037  0.7126  1.5944
   98TIP3   OH2  299   5.518   0.762   0.253 -0.2649  0.5510 -0.2689
   98TIP3    H1  300   5.501   0.796   0.341 -1.3755 -0.6071 -0.0182
   98TIP3    H2  301   5.602   0.717   0.261 -1.1207 -0.9600  0.6446
   99TIP3   OH2  302   0.707   5.297   0.771 -0.2359  0.0198 -0.1038
   99TIP3    H1  303   0.670   5.346   0.844  0.3008  2.4217 -1.3462
   99TIP3    H2  304   0.794   5.335   0.759  1.0049 -2.5566  0.0175
  100TIP3   OH2  305   1.777   1.765   4.698 -0.2353 -0.5930  0.0892
  100TIP3    H1  306   1.817   1.782   4.612 -0.8907  0.4770 -0.0123
  100TIP3    H2  307   1.816   1.831   4.755 -0.7624 -0.4831  0.3207
  101TIP3   OH2  308   6.221   4.871   2.532 -0.1304 -0.4771 -0.0964
  101TIP3    H1  309   6.282   4.854   2.604 -0.1812 -0.1938  0.0152
  101TIP3    H2  310   6.138   4.890   2.575 -0.0352  0.2055 -0.2118
  102TIP3   OH2  311   5.297   0.563   3.283  0.4398  0.6952 -0.3020
  102TIP3    H1  312   5.360   0.591   3.217  0.4832  0.5230 -0.3350
  102TIP3    H2  313   5.339   0.583   3.367  1.1772 -0.7375 -0.2907
  103TIP3   OH2  314   1.579   3.900   5.091 -0.2954 -0.3219 -0.3120
  103TIP3    H1  315   1.519   3.950   5.035  0.2869  0.8758  0.1086
  103TIP3    H2  316   1.649   3.962   5.112  1.1615 -1.7239 -0.8835
  104TIP3   OH2  317   3.015   2.210   4.502 -0.4498 -0.3115  0.2772
  104TIP3    H1  318   3.102   2.251   4.501 -0.1078 -1.0342 -0.4178
  104TIP3    H2  319   2.965   2.258   4.436 -0.0496 -0.9743 -0.5350
  105TIP3   OH2  320   2.518   5.238   1.381 -0.4046 -0.1508  0.4691
  105TIP3    H1  321   2.470   5.162   1.413  1.2302 -1.9582 -1.1264
  105TIP3    H2  322   2.496   5.243   1.288  0.6343  0.4348  0.2364
  106TIP3   OH2  323   4.124   3.572   4.715  0.0916  0.5947 -0.0297
  106TIP3    H1  324   4.164   3.518   4.646  0.4666  1.0571 -0.1794
  106TIP3    H2  325   4.032   3.548   4.713  0.0012  0.9525 -1.0384
  107TIP3   OH2  326   3.392   2.217   1.681 -1.0522 -0.0749 -0.1550
  107TIP3    H1  327   3.488   2.223   1.676 -0.9249 -0.1100  1.4498
  107TIP3    H2  328   3.360   2.278   1.615  0.1059  0.9058  0.1521
  108TIP3   OH2  329   4.176   5.423   3.273  0.0261  0.1650  0.3014
  108TIP3    H1  330   4.248   5.374   3.313 -0.6366 -0.6176  0.5528
  108TIP3    H2  331   4.097   5.383   3.308 -0.5877 -0.3415 -1.5592
  109TIP3   OH2  332   4.210   5.562   2.523  0.1200 -0.0083 -0.1012
  109TIP3    H1  333   4.282   5.590   2.466 -0.0064 -1.6392 -1.1167
  109TIP3    H2  334   4.253   5.533   2.604  0.3613  1.5490  0.3645
  110TIP3   OH2  335   4.098   4.558   0.449 -0.0253  0.0593 -0.1606
  110TIP3    H1  336   4.054   4.621   0.506  0.6482 -0.4752  0.9828
  110TIP3    H2  337   4.113   4.605   0.367  0.7763  1.5010  0.7830
  111TIP3   OH2  338   5.924   2.225   1.393 -0.4151 -0.5863 -0.4131
  111TIP3    H1  339   5.877   2.230   1.477 -0.6166  0.6551 -0.5815
  111TIP3    H2  340   5.898   2.141   1.356 -1.4378 -0.5298  0.1310
  112TIP3   OH2  341   5.148   4.185   1.344 -0.3218 -1.3337  0.1798
  112TIP3    H1  342   5.176   4.246   1.412 -2.5968 -0.5442  0.5147
  112TIP3    H2  343   5.093   4.238   1.286 -3.5731 -3.2430  1.2548
  113TIP3   OH2  344   3.498   3.487   3.950 -0.5224  0.2627 -0.3890
  113TIP3    H1  345   3.433   3.536   3.900 -0.9235  0.0618 -0.0772
  113TIP3    H2  346   3.580   3.500   3.903 -0.7997  0.4752 -0.8205
  114TIP3   OH2  347   4.981   5.204   3.972  0.1875  0.4503 -0.1110
  114TIP3    H1  348   5.075   5.216   3.968  0.3096 -0.8318 -2.9259
  114TIP3    H2  349   4.967   5.112   3.950 -1.6567  0.0045  2.4353
  115TIP3   OH2  350   1.295   1.287   3.899 -0.1121  0.1786 -0.6325
  115TIP3    H1  351   1.350   1.345   3.846 -2.1807  1.0017 -2.0670
  115TIP3    H2  352   1.218   1.341   3.919 -1.5982 -1.7141 -1.0322
  116TIP3   OH2  353   3.469   0.460   2.039  0.4234  0.2285 -0.1307
  116TIP3    H1  354   3.440   0.550   2.023 -0.0611 -0.1413 -1.4396
  116TIP3    H2  355   3.430   0.437   2.123 -0.6693  0.7406 -0.4823
  117TIP3   OH2  356   1.157   2.327   1.860 -0.0346 -0.2103 -0.4474
  117TIP3    H1  357   1.089   2.317   1.793  0.8103  1.1658 -1.5523
  117TIP3    H2  358   1.192   2.415   1.846  0.4657 -0.0595  1.5424
  118TIP3   OH2  359   3.740   0.038   3.610  0.0654 -0.7533  0.4941
  118TIP3    H1  360   3.749   0.131   3.588 -0.7425 -0.4267  1.4456
  118TIP3    H2  361   3.826   0.013   3.642 -0.1635  0.1662  1.9336
  119TIP3   OH2  362   4.389   4.547   4.891 -0.3992 -0.0033  0.4320
  119TIP3    H1  363   4.394   4.623   4.949  0.2352 -0.1668  0.6049
  119TIP3    H2  364   4.417   4.474   4.946 -1.9865 -0.5485  0.5656
  120TIP3   OH2  365   1.853   1.364   0.117  0.5646  0.1313 -0.3495
  120TIP3    H1  366   1.783   1.308   0.150 -0.1908  0.5454 -1.1927
  120TIP3    H2  367   1.815   1.452   0.117  1.0802  0.3598 -0.8168
  121TIP3   OH2  368   0.677   1.412   3.257  0.3655  0.4640 -0.3628
  121TIP3    H1  369   0.759   1.424   3.306 -0.8508  1.3614  1.5656
  121TIP3    H2  370   0.636   1.498   3.258 -2.2191 -0.6540  1.8609
  122TIP3   OH2  371   0.138   4.560   1.539 -0.2763 -1.1207 -0.1887
  122TIP3    H1  372   0.215   4.566   1.482  1.0599 -1.4510  1.5196
  122TIP3    H2  373   0.138   4.469   1.569 -2.3888 -1.6297 -1.4984
  123TIP3   OH2  374   4.648   1.571   0.687  0.2601  0.7493  0.1990
  123TIP3    H1  375   4.642   1.510   0.761 -0.5861  1.7198  0.9571
  123TIP3    H2  376   4.737   1.560   0.654  1.1374  1.2669  2.2362
  124TIP3   OH2  377   2.348   1.125   4.440  0.2605 -0.6324 -0.0577
  124TIP3    H1  378   2.303   1.181   4.376  1.8248  0.8067  0.0346
  124TIP3    H2  379   2.282   1.059   4.464 -0.9611 -0.1125 -1.7559
  125TIP3   OH2  380   3.907   2.465   3.855  0.1493 -0.2648 -0.4127
  125TIP3    H1  381   3.987   2.427   3.893  1.7033  2.0507 -1.1091
  125TIP3    H2  382   3.927   2.474   3.762 -1.4302 -0.7082 -0.8228
  126TIP3   OH2  383   2.478   0.698   4.355 -0.2369 -0.0642  0.2640
  126TIP3    H1  384   2.555   0.713   4.411 -0.3111  1.5287 -0.0067
  126TIP3    H2  385   2.514   0.670   4.271 -0.0265 -0.5936  0.5269
  127TIP3   OH2  386   4.082   0.987   4.119 -0.7030  0.6144  0.2275
  127TIP3    H1  387   4.012   1.031   4.167 -0.2226  0.4433  1.1199
  127TIP3    H2  388   4.037   0.930   4.058 -1.4378 -1.3763  2.4733
  128TIP3   OH2  389   0.886   5.177   4.736 -0.3223 -0.0373  0.1245
  128TIP3    H1  390   0.858   5.160   4.826 -0.2529  0.4349  0.2357
  128TIP3    H2  391   0.880   5.091   4.693  1.6840 -0.7553  1.1229
  129TIP3   OH2  392   3.926   4.989   1.610 -0.4272 -0.5768  0.1367
  129TIP3    H1  393   3.970   4.904   1.609  0.7724 -0.0275  1.6609
  129TIP3    H2  394   3.980   5.045   1.554 -0.8180 -0.6230 -0.2948
  130TIP3   OH2  395   6.097   4.950   2.886 -0.1743  0.0998 -0.8900
  130TIP3    H1  396   6.102   4.875   2.944  0.1140  0.5195 -0.3599
  130TIP3    H2  397   6.150   5.017   2.929  0.0949  0.3993 -1.6659
  131TIP3   OH2  398   2.922   0.817   1.225  0.2815  0.3423  0.0444
  131TIP3    H1  399   2.877   0.766   1.291  0.1419 -0.6559 -0.7987
  131TIP3    H2  400   2.952   0.753   1.161  1.2778  1.1780 -0.3625
  132TIP3   OH2  401   5.544   5.230   2.122  0.8453  0.0835  0.1904
  132TIP3    H1  402   5.501   5.274   2.195 -0.0866 -0.8285  0.2151
  132TIP3    H2  403   5.510   5.275   2.044 -1.9538 -1.9739  0.0637
  133TIP3   OH2  404   1.584   0.528   3.974  0.5394 -0.0740 -0.4505
  133TIP3    H1  405   1.552   0.581   4.046  0.6611  1.0052 -1.1706
  133TIP3    H2  406   1.567   0.580   3.895  1.7632 -0.5657 -1.0706
  134TIP3   OH2  407   1.309   5.346   0.701 -0.4777  0.0586  0.3988
  134TIP3    H1  408   1.389   5.380   0.660 -0.9259  0.3678 -0.2424
  134TIP3    H2  409   1.340   5.294   0.774  0.3881 -0.9797 -0.6672
  135TIP3   OH2  410   3.526   4.109   2.056 -0.4409 -0.1796  0.6536
  135TIP3    H1  411   3.459   4.108   1.988  0.8733 -2.5161 -0.7360
  135TIP3    H2  412   3.559   4.199   2.056 -1.6106  0.2753 -0.6243
  136TIP3   OH2  413   3.495   3.115   4.527  0.2831 -0.0672 -0.1383
  136TIP3    H1  414   3.523   3.033   4.567  2.4106  1.1618  1.0863
  136TIP3    H2  415   3.410   3.134   4.565  1.2455 -0.0871  2.1531
  137TIP3   OH2  416   1.380   1.030   2.880  0.2581 -0.3565  0.1287
  137TIP3    H1  417   1.434   0.979   2.819 -0.5758  0.1686 -1.0681
  137TIP3    H2  418   1.431   1.109   2.896  0.3914 -0.4076 -0.0331
  138TIP3   OH2  419   0.755   1.620   1.407 -0.2702  0.1073 -0.4877
  138TIP3    H1  420   0.770   1.601   1.314  1.0902  1.2178 -0.5418
  138TIP3    H2  421   0.818   1.565   1.453  0.4302  0.9666 -0.3756
  139TIP3   OH2  422   1.023   0.816   3.005  0.1623  0.2411  0.1055
  139TIP3    H1  423   0.953   0.843   2.947  0.5308  0.6930 -0.1393
  139TIP3    H2  424   1.067   0.744   2.959 -0.6860 -0.6546  0.6611
  140TIP3   OH2  425   4.692   2.873   4.569 -0.0350 -0.1090 -0.9494
  140TIP3    H1  426   4.653   2.785   4.570 -0.9939  0.3050 -0.8680
  140TIP3    H2  427   4.770   2.865   4.624 -0.1865 -0.8766 -0.8297
  141TIP3   OH2  428   2.004   0.250   3.195  0.5672 -0.5986  0.2111
  141TIP3    H1  429   1.998   0.323   3.134 -2.2804 -0.9916 -0.1308
  141TIP3    H2  430   2.044   0.288   3.274 -0.5050  1.2769 -0.0819
  142TIP3   OH2  431   2.118   2.303   4.241  0.0819 -0.7471  0.2095
  142TIP3    H1  432   2.112   2.207   4.245 -0.1209 -0.6897  1.7574
  142TIP3    H2  433   2.185   2.320   4.175  0.6290 -1.9703  0.4187
  143TIP3   OH2  434   2.415   5.588   4.750  0.7398  0.1323  0.0468
  143TIP3    H1  435   2.464   5.619   4.826  0.2900  0.0265  0.3842
  143TIP3    H2  436   2.413   5.663   4.691  0.0039  0.6282  0.6844
  144TIP3   OH2  437   5.313   1.937   0.344 -0.2088 -0.1718  0.4531
  144TIP3    H1  438   5.377   1.975   0.404 -0.8354  0.3260  0.8136
  144TIP3    H2  439   5.252   2.008   0.327 -0.7333 -0.6810  0.2020
  145TIP3   OH2  440   1.532   1.632   0.612  0.5578 -0.0727  0.0670
  145TIP3    H1  441   1.605   1.570   0.606  0.9999  0.2548  1.5991
  145TIP3    H2  442   1.456   1.577   0.631  0.8757 -0.2154  1.0003
  146TIP3   OH2  443   1.915   1.481   1.202  0.3117  0.0890 -0.3568
  146TIP3    H1  444   1.868   1.404   1.234 -0.4496 -0.2700 -2.2350
  146TIP3    H2  445   2.006   1.452   1.195 -0.1261 -0.9922 -1.9857
  147TIP3   OH2  446   4.682   0.039   2.680 -0.4324 -0.4931 -0.0491
  147TIP3    H1  447   4.686  -0.046   2.636  0.2143 -0.7757  0.5276
  147TIP3    H2  448   4.766   0.080   2.659 -0.2109 -0.5372  0.7056
  148TIP3   OH2  449   4.326   2.164   2.511 -0.2532  0.7489  0.0612
  148TIP3    H1  450   4.347   2.079   2.549 -0.1450 -0.4990 -2.5748
  148TIP3    H2  451   4.235   2.156   2.485 -0.0486  1.1678 -0.8134
  149TIP3   OH2  452   1.708   5.523   1.491 -0.3659  0.3842  0.0715
  149TIP3    H1  453   1.761   5.537   1.412  1.4405 -0.2931  1.1113
  149TIP3    H2  454   1.668   5.437   1.478 -0.0015  0.2327 -0.0640
  150TIP3   OH2  455   1.882   0.244   1.394  0.3431  0.2511 -0.3181
  150TIP3    H1  456   1.899   0.300   1.470  0.6146  0.0770 -0.2480
  150TIP3    H2  457   1.807   0.284   1.351 -0.8923 -0.5898  0.9559
  151TIP3   OH2  458   3.679   4.064   4.203  1.0918  0.0895 -0.5834
  151TIP3    H1  459   3.693   3.993   4.265 -0.0692 -0.7015 -1.2020
  151TIP3    H2  460   3.633   4.131   4.254 -1.4609 -1.2684 -0.9584
  152TIP3   OH2  461   2.606   2.846   2.568  0.1797  0.4825 -0.5323
  152TIP3    H1  462   2.605   2.939   2.546 -2.1622  0.5307 -0.4595
  152TIP3    H2  463   2.698   2.827   2.588  1.2565  2.0295 -3.4461
  153TIP3   OH2  464   2.297   0.267   3.385  0.9323  0.7754 -0.4662
  153TIP3    H1  465   2.266   0.358   3.385  1.5096  0.9839  0.4510
  153TIP3    H2  466   2.265   0.231   3.468 -1.4368 -0.6368 -1.8988
  154TIP3   OH2  467   5.543   4.225   1.409 -0.1953  0.4946  0.3549
  154TIP3    H1  468   5.486   4.275   1.350  0.8211  1.6930  0.3413
  154TIP3    H2  469   5.490   4.149   1.434 -0.5294 -0.3053 -2.4173
  155TIP3   OH2  470   5.992   0.505   4.635 -0.2764 -0.6711 -0.0759
  155TIP3    H1  471   6.063   0.448   4.605 -0.7038 -0.3903 -1.7273
  155TIP3    H2  472   6.012   0.590   4.597  0.0999  0.2068  1.9733
  156TIP3   OH2  473   3.698   0.080   1.964 -0.4555  0.2520 -0.1730
  156TIP3    H1  474   3.776   0.039   2.001 -0.6378 -0.2646 -0.3596
  156TIP3    H2  475   3.632   0.072   2.033 -0.6607 -0.2981 -0.4274
  157TIP3   OH2  476   0.492   3.128   4.595 -0.4458 -0.2396  0.0250
  157TIP3    H1  477   0.457   3.117   4.507 -2.1138  0.4878  0.5458
  157TIP3    H2  478   0.547   3.051   4.609  0.0089 -0.2704 -1.7025
  158TIP3   OH2  479   4.259   0.185   4.672  0.2714  0.4187  0.0544
  158TIP3    H1  480   4.166   0.167   4.660  0.3207 -0.1342  0.4993
  158TIP3    H2  481   4.262   0.248   4.745  0.3603 -1.2162  1.5152
  159TIP3   OH2  482   0.533   2.732   1.954 -0.7862 -0.4838 -0.1724
  159TIP3    H1  483   0.486   2.742   1.872 -1.2564  0.7612  0.2194
  159TIP3    H2  484   0.588   2.810   1.960 -0.7946 -0.5326  0.7096
  160TIP3   OH2  485   2.207   5.866   4.905 -0.5505 -0.0471 -0.2043
  160TIP3    H1  486   2.166   5.805   4.966 -0.1148 -0.4108 -0.2659
  160TIP3    H2  487   2.146   5.872   4.832 -0.9210  0.1351  0.1174
  161TIP3   OH2  488   1.516   3.238   3.561 -0.1530  0.3609 -0.2554
  161TIP3    H1  489   1.431   3.260   3.524  0.4508  2.2852 -0.6234
  161TIP3    H2  490   1.569   3.316   3.547  2.4924 -1.5947 -2.3924
  162TIP3   OH2  491   1.091   1.050   4.140 -0.6980 -0.3673 -0.2284
  162TIP3    H1  492   1.080   1.086   4.052 -3.2431 -0.0707  0.1062
  162TIP3    H2  493   1.092   0.955   4.128  0.9416 -0.3130 -0.7008
  163TIP3   OH2  494   3.214   3.054   2.902  0.2261  0.2149 -0.5788
  163TIP3    H1  495   3.171   3.127   2.858  0.3159 -0.0173 -1.0605
  163TIP3    H2  496   3.229   2.990   2.833  0.2361 -0.2195 -0.1808
  164TIP3   OH2  497   5.081   1.941   0.098  0.2760 -0.3410  0.5394
  164TIP3    H1  498   5.051   1.866   0.150 -3.2016  0.8833  0.5450
  164TIP3    H2  499   5.119   2.001   0.162  0.4863 -0.8757  0.9299
  165TIP3   OH2  500   0.561   0.418   3.425  0.1937  0.2735  0.3736
  165TIP3    H1  501   0.538   0.460   3.342 -0.6251 -1.8454 -0.5378
  165TIP3    H2  502   0.560   0.325   3.406  2.8797 -0.2026  2.0843
  166TIP3   OH2  503   2.255   0.223   1.801  0.1403 -0.5459  0.8778
  166TIP3    H1  504   2.268   0.318   1.806 -0.3222 -0.3875 -0.6976
  166TIP3    H2  505   2.163   0.210   1.820  0.3340 -0.7605  1.7329
  167TIP3   OH2  506   1.125   1.962   0.354 -0.2501  0.3901  0.5497
  167TIP3    H1  507   1.067   1.917   0.414  0.0793 -1.7463 -0.6514
  167TIP3    H2  508   1.082   1.955   0.268  0.9247  0.2915 -0.0552
  168TIP3   OH2  509   3.416   1.374   2.312  0.1400  0.1232 -0.1374
  168TIP3    H1  510   3.359   1.310   2.356 -2.8026  0.7308 -2.7092
  168TIP3    H2  511   3.465   1.323   2.248 -0.0223  0.0364 -0.1939
  169TIP3   OH2  512   5.976   3.822   2.325 -0.5849 -0.4644 -0.6854
  169TIP3    H1  513   5.940   3.855   2.243  0.0883  1.6920 -0.1869
  169TIP3    H2  514   6.061   3.786   2.302 -0.4414  0.0455 -0.9696
  170TIP3   OH2  515   3.150   1.920   2.645  0.3408 -0.2667 -0.4690
  170TIP3    H1  516   3.200   1.966   2.578 -0.2396 -1.8646 -2.0887
  170TIP3    H2  517   3.195   1.837   2.656 -1.0430 -1.1033 -0.8403
  171TIP3   OH2  518   1.102   3.259   3.948 -0.0043 -0.1502  0.8267
  171TIP3    H1  519   1.169   3.196   3.972  0.9344  0.5320  0.0531
  171TIP3    H2  520   1.133   3.342   3.984  0.2808  0.4381 -0.6897
  172TIP3   OH2  521   0.997   2.314   3.538  0.2772  0.0708  0.7132
  172TIP3    H1  522   1.032   2.362   3.612 -1.5451  0.5843  1.3010
  172TIP3    H2  523   0.960   2.382   3.481  0.6725 -0.3979 -0.1183
  173TIP3   OH2  524   1.458   5.827   3.471  0.5609 -0.3675  0.3532
  173TIP3    H1  525   1.520   5.894   3.502 -2.2263  2.8173 -0.3601
  173TIP3    H2  526   1.399   5.814   3.545 -0.2888 -0.2573 -0.3006
  174TIP3   OH2  527   2.932   5.688   1.312  0.7621 -0.1710  0.2245
  174TIP3    H1  528   2.919   5.594   1.325  1.1015 -0.6672 -2.5511
  174TIP3    H2  529   2.847   5.719   1.281  0.8319  0.3355  0.5359
  175TIP3   OH2  530   5.925   2.616   5.043 -0.5297  0.1965 -0.2444
  175TIP3    H1  531   6.014   2.622   5.079 -0.4957 -2.1526  0.2505
  175TIP3    H2  532   5.937   2.583   4.954 -0.8693  0.9829 -0.5886
  176TIP3   OH2  533   4.495   4.949   3.157  0.3162 -0.1402  0.1262
  176TIP3    H1  534   4.504   4.855   3.147 -1.6823 -0.4840  1.0916
  176TIP3    H2  535   4.564   4.974   3.218 -1.0265 -1.5398  2.3754
  177TIP3   OH2  536   0.580   1.591   2.930  0.2646 -0.2946 -0.1835
  177TIP3    H1  537   0.532   1.527   2.876  0.0588 -0.2357 -0.0694
  177TIP3    H2  538   0.659   1.610   2.879 -0.2123  0.2077 -0.7466
  178TIP3   OH2  539   3.258   1.484   3.940 -0.3240  0.2169  0.7570
  178TIP3    H1  540   3.283   1.575   3.924 -0.0187 -0.0954 -0.7589
  178TIP3    H2  541   3.178   1.489   3.993 -0.3183  1.3615  0.6700
  179TIP3   OH2  542   6.227   5.655   1.707 -0.1770  0.3035  0.4509
  179TIP3    H1  543   6.305   5.612   1.744 -0.4649 -2.3491 -1.7248
  179TIP3    H2  544   6.153   5.607   1.746 -0.5099 -1.1813 -1.7946
  180TIP3   OH2  545   2.292   4.379   0.105  0.3376  0.2318  0.0782
  180TIP3    H1  546   2.283   4.337   0.190  0.1575  2.1714  1.0561
  180TIP3    H2  547   2.369   4.435   0.113 -0.2406  1.1791 -0.7004
  181TIP3   OH2  548   6.092   5.329   0.678  0.1138  0.0282 -0.5837
  181TIP3    H1  549   6.013   5.356   0.632  0.3713  0.7247 -0.6365
  181TIP3    H2  550   6.140   5.411   0.692  0.4360 -0.2794  0.1704
  182TIP3   OH2  551   1.919   4.114   4.129  0.4200  0.1279  0.4129
  182TIP3    H1  552   1.832   4.154   4.128 -0.0134 -0.7138 -1.3794
  182TIP3    H2  553   1.975   4.177   4.083  0.4049  0.0145  0.2361
  183TIP3   OH2  554   5.281   0.738   5.052 -0.2991  0.3855  0.6752
  183TIP3    H1  555   5.250   0.773   5.136 -0.9273 -1.6390  1.3729
  183TIP3    H2  556   5.294   0.814   4.997 -1.2151  1.6974  2.1817
  184TIP3   OH2  557   0.088   4.990   4.772 -0.7452 -0.3997  0.3070
  184TIP3    H1  558   0.008   4.938   4.778 -0.5713 -0.7674 -0.4562
  184TIP3    H2  559   0.107   4.994   4.678  0.8931 -1.5237  0.5412
  185TIP3   OH2  560   5.870   2.982   2.986 -0.0394 -0.0945 -0.2130
  185TIP3    H1  561   5.954   2.974   3.031 -0.5212  0.1376  0.7511
  185TIP3    H2  562   5.887   3.042   2.914  0.8850 -0.9235 -0.7108
  186TIP3   OH2  563   1.081   1.440   3.978  0.3988  0.6185  0.6887
  186TIP3    H1  564   0.993   1.402   3.975  0.0393  1.4774 -0.4632
  186TIP3    H2  565   1.067   1.534   3.966  1.3617  0.9904  2.1944
  187TIP3   OH2  566   0.618   3.783   1.669  0.7144  0.0267 -0.0460
  187TIP3    H1  567   0.630   3.806   1.761 -0.5384  0.8698 -0.0686
  187TIP3    H2  568   0.643   3.861   1.620 -0.4876  0.2914 -0.2901
  188TIP3   OH2  569   5.930   3.914   2.586 -0.1081 -0.2768 -0.4159
  188TIP3    H1  570   5.955   3.882   2.499  1.0250 -0.7626  0.0685
  188TIP3    H2  571   5.923   4.009   2.575 -2.1669 -0.5120 -1.5456
  189TIP3   OH2  572   2.751   4.818   2.022 -0.3265 -0.0461 -0.3413
  189TIP3    H1  573   2.795   4.883   2.077 -0.2960  0.4631 -0.9576
  189TIP3    H2  574   2.806   4.812   1.944 -0.9189  0.0068 -0.7692
  190TIP3   OH2  575   3.846   3.557   2.314  0.1331  0.0893 -0.1855
  190TIP3    H1  576   3.862   3.602   2.397  2.0204  1.1340 -1.0384
  190TIP3    H2  577   3.828   3.628   2.252  1.5771 -0.3909 -1.2279
  191TIP3   OH2  578   0.641   4.445   3.935  0.1548  0.1693 -0.5308
  191TIP3    H1  579   0.588   4.372   3.905  0.8112 -1.3852  1.8647
  191TIP3    H2  580   0.666   4.491   3.854 -0.9078 -1.7554 -2.0414
  192TIP3   OH2  581   3.390   0.884   3.203  0.5722  0.3831 -0.4590
  192TIP3    H1  582   3.385   0.887   3.298 -1.9455  0.5329 -0.5480
  192TIP3    H2  583   3.465   0.939   3.181  2.7007 -1.4965  1.4812
  193TIP3   OH2  584   4.115   0.561   1.797 -0.2475 -0.3805  0.4425
  193TIP3    H1  585   4.052   0.489   1.809  0.0788 -1.1835 -2.0217
  193TIP3    H2  586   4.070   0.638   1.832 -2.4353 -1.0332 -0.6914
  194TIP3   OH2  587   2.540   5.916   3.833  0.0039  0.1913  0.3636
  194TIP3    H1  588   2.544   5.875   3.747 -1.4305  1.3828 -0.3125
  194TIP3    H2  589   2.453   5.894   3.866  1.0221 -1.4553  2.1888
  195TIP3   OH2  590   2.957   3.121   1.823 -0.8630 -0.1799 -0.2836
  195TIP3    H1  591   2.890   3.175   1.781 -1.2350 -0.9020 -0.6295
  195TIP3    H2  592   2.947   3.140   1.917  0.3575  1.8841 -0.5003
  196TIP3   OH2  593   1.745   3.262   1.596  0.0832  0.1216  0.0503
  196TIP3    H1  594   1.674   3.317   1.563  0.3209  0.5545  0.2626
  196TIP3    H2  595   1.738   3.269   1.691  0.8595  0.7379  0.0664
  197TIP3   OH2  596   3.162   4.588   4.840 -0.3817  0.1315  0.1138
  197TIP3    H1  597   3.107   4.638   4.779  0.2834 -1.2199 -1.6636
  197TIP3    H2  598   3.251   4.597   4.806  0.0302 -0.5382  0.9720
  198TIP3   OH2  599   1.390   1.486   1.636  0.4163 -0.8169 -0.6677
  198TIP3    H1  600   1.481   1.514   1.644  0.0092  0.4204 -0.1969
  198TIP3    H2  601   1.396   1.394   1.610  1.8082 -1.2093  0.8516
  199TIP3   OH2  602   1.761   3.934   3.942 -0.8553 -0.2501  0.3298
  199TIP3    H1  603   1.834   3.947   4.003 -0.2744 -1.5852 -0.0475
  199TIP3    H2  604   1.683   3.953   3.995 -0.2388  1.8914  0.5391
  200TIP3   OH2  605   4.735   3.828   3.297 -0.4795  0.1357 -0.1075
  200TIP3    H1  606   4.682   3.791   3.367 -1.0678  0.8377 -0.1710
  200TIP3    H2  607   4.791   3.756   3.269  0.0373 -0.0673  1.3310
  201TIP3   OH2  608   2.907   3.295   1.553 -0.4410 -0.2740 -0.2413
  201TIP3    H1  609   2.911   3.374   1.500 -0.4485 -0.2649 -0.2283
  201TIP3    H2  610   2.815   3.271   1.553 -0.5612  0.1778  0.4350
  202TIP3   OH2  611   3.311   4.442   4.301  0.2911  0.3039  0.1912
  202TIP3    H1  612   3.249   4.381   4.341 -0.1187  0.8077  0.3386
  202TIP3    H2  613   3.263   4.478   4.226  0.7306  0.0390 -0.2242
  203TIP3   OH2  614   3.921   4.897   4.370 -0.7099 -0.4592 -0.6024
  203TIP3    H1  615   3.885   4.948   4.443 -0.3756 -0.7673 -0.2211
  203TIP3    H2  616   3.924   4.960   4.297  1.8176  0.7773  0.4492
  204TIP3   OH2  617   1.498   5.040   1.459  0.3696 -0.4047 -0.9776
  204TIP3    H1  618   1.407   5.019   1.482  0.5793 -1.7442 -1.2771
  204TIP3    H2  619   1.545   4.957   1.468  1.8075  0.5012  0.2280
  205TIP3   OH2  620   1.860   4.468   0.883  0.2967 -0.1588  0.0451
  205TIP3    H1  621   1.951   4.494   0.891  1.0364 -3.0346  2.4003
  205TIP3    H2  622   1.811   4.549   0.897  2.3788  1.5144 -1.5596
  206TIP3   OH2  623   4.457   0.882   3.390  0.2492 -0.1493  0.0984
  206TIP3    H1  624   4.469   0.921   3.303  1.1492  1.0263  0.7207
  206TIP3    H2  625   4.543   0.849   3.414  0.0366 -0.3457  0.6104
  207TIP3   OH2  626   5.130   0.877   2.758  0.2372 -0.0233  0.1374
  207TIP3    H1  627   5.220   0.866   2.729 -0.2864 -0.4674 -1.4255
  207TIP3    H2  628   5.081   0.806   2.715 -0.8665  0.2424  0.8954
  208TIP3   OH2  629   0.371   0.021   4.812  0.2496  0.6341  0.3222
  208TIP3    H1  630   0.401  -0.034   4.884  2.0024  0.1685 -0.6934
  208TIP3    H2  631   0.341   0.102   4.853  1.4320  0.4799  1.5402
  209TIP3   OH2  632   2.546   1.695   4.362  0.2373  0.6950  0.1312
  209TIP3    H1  633   2.527   1.734   4.277 -2.7504 -1.1435 -0.1929
  209TIP3    H2  634   2.461   1.690   4.406  1.4301 -0.0248  2.5059
  210TIP3   OH2  635   0.880   1.817   4.967  0.9258  0.6107 -0.4686
  210TIP3    H1  636   0.949   1.787   4.908  1.5882  1.7073 -0.2830
  210TIP3    H2  637   0.889   1.761   5.044  0.6307 -0.2415 -1.0417
  211TIP3   OH2  638   1.840   3.676   1.172 -0.5800  0.4717  0.0078
  211TIP3    H1  639   1.844   3.769   1.146 -0.7125  1.0360  1.8833
  211TIP3    H2  640   1.749   3.662   1.195  0.0142  0.8843  3.0158
  212TIP3   OH2  641   5.927   3.750   3.715 -0.6822 -0.2006  0.8157
  212TIP3    H1  642   5.992   3.723   3.780  2.1428 -1.1971 -2.1235
  212TIP3    H2  643   5.862   3.680   3.716 -0.3129 -0.5478  2.0444
  213TIP3   OH2  644   4.857   3.218   1.248  0.1372  0.0160  0.2136
  213TIP3    H1  645   4.853   3.250   1.339 -1.0025  1.4361 -0.2905
  213TIP3    H2  646   4.949   3.227   1.223  0.2364  0.8683  0.8217
  214TIP3   OH2  647   3.503   1.248   2.068 -0.0380  0.9308  0.5997
  214TIP3    H1  648   3.578   1.257   2.010 -0.8880  1.1247 -0.5206
  214TIP3    H2  649   3.509   1.160   2.104  0.9241  1.0840  0.8222
  215TIP3   OH2  650   4.791   3.751   2.877  0.5174  0.5705 -0.1094
  215TIP3    H1  651   4.717   3.778   2.823  0.7598  0.0035 -0.7440
  215TIP3    H2  652   4.861   3.812   2.853  0.4723  0.6441 -0.0543
  216TIP3   OH2  653   6.230   0.292   3.923 -0.1747 -0.0330  0.3516
  216TIP3    H1  654   6.155   0.277   3.981 -1.0558 -3.5597 -1.4025
  216TIP3    H2  655   6.275   0.208   3.920  2.4334  1.2838 -0.6761
  217TIP3   OH2  656   3.286   1.161   2.453 -0.4895 -0.0571  0.4811
  217TIP3    H1  657   3.239   1.099   2.397  1.4830  0.2515 -1.6615
  217TIP3    H2  658   3.374   1.124   2.462 -0.0103  1.1954  1.2270
  218TIP3   OH2  659   4.016   3.294   4.900  0.4016 -0.1251 -0.1874
  218TIP3    H1  660   3.984   3.246   4.977 -1.2524 -1.4033 -1.5947
  218TIP3    H2  661   3.956   3.368   4.891  0.2107 -0.3299 -0.6033
  219TIP3   OH2  662   2.675   3.900   0.806  0.1113 -0.4374 -0.1339
  219TIP3    H1  663   2.657   3.808   0.786 -1.0490  0.1321 -1.9462
  219TIP3    H2  664   2.694   3.901   0.900 -0.0040 -2.4943 -0.0479
  220TIP3   OH2  665   1.649   1.518   1.003 -0.2684 -0.5103 -0.3558
  220TIP3    H1  666   1.670   1.443   1.059  0.0466 -0.9539 -1.0568
  220TIP3    H2  667   1.604   1.480   0.927 -0.8889  0.1098 -0.3116
  221TIP3   OH2  668   2.700   4.277   4.736  0.3238  0.7979  0.1950
  221TIP3    H1  669   2.696   4.283   4.831  1.5669 -0.3025  0.3285
  221TIP3    H2  670   2.737   4.191   4.718 -1.1345  0.4463 -1.3243
  222TIP3   OH2  671   5.490   0.503   4.768  0.2340 -0.0583  0.0530
  222TIP3    H1  672   5.583   0.501   4.792  0.0928  1.7674  0.9053
  222TIP3    H2  673   5.452   0.430   4.816  0.9860  0.0715  0.8830
  223TIP3   OH2  674   0.939   4.116   4.083  0.3761 -0.3467 -0.3062
  223TIP3    H1  675   0.864   4.155   4.039 -0.2400 -0.1767  0.8540
  223TIP3    H2  676   0.920   4.022   4.084  0.5061 -0.3771 -0.6056
  224TIP3   OH2  677   1.926   4.111   4.537 -0.0280 -0.6280 -0.5967
  224TIP3    H1  678   1.936   4.083   4.628 -0.7863  1.5649  0.2249
  224TIP3    H2  679   1.842   4.076   4.510 -0.2916 -0.3967 -0.0828
  225TIP3   OH2  680   1.531   4.145   4.289 -0.1730 -0.1973  0.6314
  225TIP3    H1  681   1.502   4.218   4.234 -0.2428  0.6216  1.7105
  225TIP3    H2  682   1.523   4.068   4.234 -0.7445  0.5296 -0.3245
  226TIP3   OH2  683   0.778   2.099   4.924 -0.0121  0.4623  0.0303
  226TIP3    H1  684   0.813   2.011   4.928  0.6924  0.6101 -1.8637
  226TIP3    H2  685   0.690   2.089   4.888 -0.6658  0.3990  1.5727
  227TIP3   OH2  686   0.455   2.410   4.224  0.3664 -0.1229  0.1355
  227TIP3    H1  687   0.495   2.347   4.284  0.1423  0.3194  0.7504
  227TIP3    H2  688   0.383   2.449   4.273  0.8518  1.0310 -0.0376
  228TIP3   OH2  689   3.269   0.834   1.241 -0.1145  0.2210  0.3452
  228TIP3    H1  690   3.293   0.918   1.278 -0.8287  0.4386  0.3444
  228TIP3    H2  691   3.236   0.855   1.153  2.2550 -0.3577 -0.7726
  229TIP3   OH2  692   5.840   4.398   4.642 -0.2238 -0.0216 -0.4552
  229TIP3    H1  693   5.850   4.374   4.734  1.2806 -1.3540 -0.9222
  229TIP3    H2  694   5.818   4.316   4.598 -0.1614  0.4543 -1.3904
  230TIP3   OH2  695   5.918   0.734   1.029 -0.2134  0.1790 -0.3933
  230TIP3    H1  696   5.858   0.685   0.973 -0.7082  1.9731 -1.5222
  230TIP3    H2  697   5.909   0.694   1.115 -2.2025 -0.3379 -0.7907
  231TIP3   OH2  698   3.744   4.712   1.712 -0.0221 -0.1099 -0.6761
  231TIP3    H1  699   3.753   4.632   1.660  0.3217 -0.3026 -0.3213
  231TIP3    H2  700   3.695   4.772   1.655  1.7825  0.2891 -1.9121
  232TIP3   OH2  701   1.059   5.064   2.785  0.0601 -0.2356 -1.0376
  232TIP3    H1  702   0.971   5.029   2.801  0.3141 -0.4476 -0.0081
  232TIP3    H2  703   1.082   5.110   2.866  1.7770 -2.1018 -0.3775
  233TIP3   OH2  704   5.342   3.826   5.119  0.4640  0.7710  0.3503
  233TIP3    H1  705   5.266   3.789   5.164 -0.5543  1.9313 -0.3610
  233TIP3    H2  706   5.417   3.779   5.157 -0.5993 -0.5553  0.9144
  234TIP3   OH2  707   5.521   0.643   3.155 -0.0019  0.0135  0.6809
  234TIP3    H1  708   5.576   0.682   3.087 -0.7986 -0.3777 -0.2104
  234TIP3    H2  709   5.573   0.652   3.235  1.5749 -0.8004 -0.1979
  235TIP3   OH2  710   4.539   1.711   2.872  0.0395 -0.3071  0.3653
  235TIP3    H1  711   4.612   1.772   2.882 -0.2674 -0.0908  1.4666
  235TIP3    H2  712   4.472   1.744   2.933 -1.3539  0.0355 -1.2563
  236TIP3   OH2  713   1.125   5.908   4.538 -0.7187  0.9841  0.0656
  236TIP3    H1  714   1.147   5.878   4.627  1.5937  1.8852 -0.1154
  236TIP3    H2  715   1.113   6.002   4.547  0.3502  1.2076 -0.6828
  237TIP3   OH2  716   6.074   3.733   3.951 -0.6436 -0.0904 -0.2614
  237TIP3    H1  717   6.117   3.790   4.015 -0.6598 -0.3529 -0.0156
  237TIP3    H2  718   6.136   3.661   3.939 -0.1150  0.5233 -1.4039
  238TIP3   OH2  719   2.245   3.270   4.689 -0.2500 -0.5331 -0.7380
  238TIP3    H1  720   2.253   3.251   4.783  0.9826  2.1405 -0.1766
  238TIP3    H2  721   2.157   3.306   4.680  0.2974  1.0797 -0.1252
  239TIP3   OH2  722   0.771   0.833   3.898  0.0221  0.3144 -0.2589
  239TIP3    H1  723   0.692   0.883   3.878 -0.0689 -0.2568 -1.4270
  239TIP3    H2  724   0.763   0.810   3.990 -1.0394  0.5083 -0.2923
  240TIP3   OH2  725   6.054   1.928   2.848  0.0285 -0.0742  0.3685
  240TIP3    H1  726   6.081   2.005   2.798 -0.1580  0.2465  0.7541
  240TIP3    H2  727   5.958   1.928   2.841  0.0754 -0.9755 -0.6601
  241TIP3   OH2  728   5.444   5.122   2.453  1.1044  0.7388 -0.5603
  241TIP3    H1  729   5.499   5.119   2.531  1.6128 -0.5208 -0.9501
  241TIP3    H2  730   5.479   5.055   2.395 -1.2736 -0.6708 -0.5161
  242TIP3   OH2  731   1.922   0.681   4.318  0.0634 -0.2650  0.4071
  242TIP3    H1  732   1.875   0.734   4.382 -0.9361  1.2477 -1.4720
  242TIP3    H2  733   2.012   0.715   4.321  0.0704 -0.3179  1.0803
  243TIP3   OH2  734   5.119   5.093   1.444  0.0221 -0.3219 -0.3374
  243TIP3    H1  735   5.176   5.127   1.513  1.8290 -1.5153 -1.1556
  243TIP3    H2  736   5.166   5.111   1.363 -1.6179  0.1970 -1.2191
  244TIP3   OH2  737   4.195   1.802   4.157  0.3430  0.8276  0.0700
  244TIP3    H1  738   4.157   1.825   4.073  0.9976 -2.2769 -1.1977
  244TIP3    H2  739   4.285   1.834   4.152  0.9549 -0.9414 -1.2617
  245TIP3   OH2  740   2.398   3.980   3.184  0.1779  0.0111  0.2739
  245TIP3    H1  741   2.329   3.946   3.126  1.2428 -2.6237  0.3863
  245TIP3    H2  742   2.475   3.987   3.128  0.1329  1.8530  0.4033
  246TIP3   OH2  743   4.825   1.278   2.792  0.2493 -0.1297  0.0400
  246TIP3    H1  744   4.780   1.319   2.865 -1.0328  1.9986 -1.8158
  246TIP3    H2  745   4.918   1.279   2.816 -0.0382  1.4987  1.1758
  247TIP3   OH2  746   0.611   5.545   3.952 -0.2877  0.2395 -0.4024
  247TIP3    H1  747   0.533   5.589   3.919 -1.2151 -1.6706 -0.9330
  247TIP3    H2  748   0.580   5.493   4.026 -0.1009 -2.3215 -1.9868
  248TIP3   OH2  749   3.709   1.272   1.701 -0.2074 -0.0572  0.0596
  248TIP3    H1  750   3.719   1.244   1.792  1.4434 -2.1859 -0.6894
  248TIP3    H2  751   3.761   1.208   1.651  0.0768  1.8620 -2.2429
  249TIP3   OH2  752   1.254   3.533   4.369 -0.3112 -0.1146  0.3581
  249TIP3    H1  753   1.293   3.487   4.295  0.6419 -0.0202  0.7752
  249TIP3    H2  754   1.282   3.482   4.445 -1.3412 -0.2541  0.6552
  250TIP3   OH2  755   1.826   5.045   4.774 -0.3061  0.1483  0.1052
  250TIP3    H1  756   1.820   5.127   4.823  0.4618 -0.1018  0.6421
  250TIP3    H2  757   1.770   4.984   4.822  0.4935 -0.1137  0.7416
  251TIP3   OH2  758   1.194   2.798   1.915  0.6446  0.2880 -0.4264
  251TIP3    H1  759   1.150   2.863   1.860  0.5907  1.4491  0.9329
  251TIP3    H2  760   1.270   2.843   1.950 -0.3563  0.2389  1.9615
  252TIP3   OH2  761   1.281   1.849   4.688  0.9135 -0.3401 -0.1775
  252TIP3    H1  762   1.247   1.781   4.629 -0.0644 -1.6809  1.7991
  252TIP3    H2  763   1.375   1.853   4.669  0.7141 -1.0975 -1.4347
  253TIP3   OH2  764   5.211   2.880   3.911  0.3519 -0.0564  0.0129
  253TIP3    H1  765   5.255   2.894   3.827  0.8302 -1.8837 -0.0823
  253TIP3    H2  766   5.148   2.951   3.917 -0.2534 -0.3206 -2.2824
  254TIP3   OH2  767   4.126   5.897   3.006 -0.7407  0.5559 -0.0927
  254TIP3    H1  768   4.089   5.893   2.919 -1.0017 -2.0455  0.0372
  254TIP3    H2  769   4.051   5.904   3.065 -0.5657  2.3145 -0.0392
  255TIP3   OH2  770   3.913   2.835   3.008 -0.1735  0.0073 -0.2964
  255TIP3    H1  771   3.827   2.817   2.968  0.2211 -0.4642 -0.9565
  255TIP3    H2  772   3.941   2.751   3.043  0.5673 -0.1187 -1.1745
  256TIP3   OH2  773   6.141   5.206   3.191  0.3962  0.4797 -0.0994
  256TIP3    H1  774   6.114   5.279   3.136  1.6864  1.0189 -0.0590
  256TIP3    H2  775   6.182   5.144   3.131 -1.9787 -0.9496 -0.3707
  257TIP3   OH2  776   4.586   2.900   0.904 -0.3249  0.3909 -0.3513
  257TIP3    H1  777   4.600   2.923   0.996 -1.6423  0.7430 -0.2261
  257TIP3    H2  778   4.609   2.979   0.855  1.3554 -0.1066 -0.4330
  258TIP3   OH2  779   5.036   2.962   2.497 -0.0830  0.4459  0.0202
  258TIP3    H1  780   4.962   2.947   2.556 -0.8683  1.2738 -0.7179
  258TIP3    H2  781   5.089   3.029   2.540  0.5092 -0.4837  0.7715
  259TIP3   OH2  782   5.803   1.474   1.965  0.4193 -0.5856  0.0225
  259TIP3    H1  783   5.775   1.561   1.995 -2.0076 -1.1088 -0.5040
  259TIP3    H2  784   5.777   1.471   1.873  1.2786 -1.5858 -0.2066
  260TIP3   OH2  785   2.076   5.704   5.078  0.1973  0.3104  0.2303
  260TIP3    H1  786   2.051   5.629   5.024  2.1811  1.4387 -2.4565
  260TIP3    H2  787   1.996   5.753   5.089 -0.1212  0.7533 -3.0210
  261TIP3   OH2  788   2.131   4.712   2.812  0.0987  0.3116 -0.3719
  261TIP3    H1  789   2.043   4.719   2.776  0.7660  0.1678 -2.0938
  261TIP3    H2  790   2.178   4.789   2.779  0.8841 -0.0981 -0.2441
  262TIP3   OH2  791   0.463   1.963   1.715 -0.8690 -0.2728 -0.1692
  262TIP3    H1  792   0.526   1.929   1.779 -1.9189 -0.0300  1.0321
  262TIP3    H2  793   0.386   1.907   1.725 -1.5628  0.6433 -0.2315
  263TIP3   OH2  794   5.687   0.032   1.566  0.1349 -0.7680 -0.4827
  263TIP3    H1  795   5.721   0.116   1.596  0.3421 -0.6825 -0.9497
  263TIP3    H2  796   5.707   0.030   1.473  0.4833 -1.5087 -0.3987
  264TIP3   OH2  797   1.189   5.505   4.480  0.0612  0.2453 -0.0895
  264TIP3    H1  798   1.272   5.542   4.448  1.9233 -2.1558  1.6104
  264TIP3    H2  799   1.155   5.455   4.405  1.1517 -0.2905 -0.2441
  265TIP3   OH2  800   3.045   4.404   1.596 -0.2895 -0.4994 -0.1470
  265TIP3    H1  801   3.033   4.382   1.504 -0.8266 -2.6408  0.3694
  265TIP3    H2  802   3.000   4.334   1.643 -1.2613  1.3031  1.7611
  266TIP3   OH2  803   4.547   1.661   1.063 -0.0096  0.0982  0.4117
  266TIP3    H1  804   4.575   1.587   1.117  0.2956  1.6527  2.5570
  266TIP3    H2  805   4.546   1.735   1.124  0.8835  2.1390 -1.8740
  267TIP3   OH2  806   1.569   0.085   4.647 -0.5777  0.5237  0.2897
  267TIP3    H1  807   1.526   0.025   4.707 -0.6725 -0.3164 -0.5940
  267TIP3    H2  808   1.647   0.115   4.694  1.0806 -2.5390 -0.2725
  268TIP3   OH2  809   2.563   3.260   4.887  0.4717  0.2421 -0.1705
  268TIP3    H1  810   2.511   3.337   4.863  1.9650  1.3158 -0.1011
  268TIP3    H2  811   2.584   3.273   4.979 -0.4507 -1.0071  0.2498
  269TIP3   OH2  812   6.018   4.253   2.176  0.0781  0.2353 -0.4184
  269TIP3    H1  813   6.030   4.158   2.185  1.0108  0.4969  1.5510
  269TIP3    H2  814   5.939   4.272   2.227  1.2959  0.7864  1.3914
  270TIP3   OH2  815   4.103   2.306   1.148  0.2598  0.1702  0.3673
  270TIP3    H1  816   4.108   2.401   1.154  1.0956  0.1713 -0.1954
  270TIP3    H2  817   4.020   2.289   1.102 -0.2870  0.5842  1.1833
  271TIP3   OH2  818   5.357   3.404   3.618  0.2203 -0.2045 -0.0759
  271TIP3    H1  819   5.440   3.375   3.579  0.2220  0.0738 -0.2813
  271TIP3    H2  820   5.291   3.352   3.574  0.1185  0.8857 -1.2713
  272TIP3   OH2  821   0.064   3.221   2.313 -0.1586  0.0383 -0.6084
  272TIP3    H1  822   0.067   3.295   2.252  2.2230  0.3801 -0.1834
  272TIP3    H2  823   0.051   3.260   2.399  1.9518  0.1304 -0.2713
  273TIP3   OH2  824   3.156   5.923   3.777  0.2275  0.1197  0.4309
  273TIP3    H1  825   3.123   5.927   3.687 -3.2574  2.0853  1.5826
  273TIP3    H2  826   3.247   5.950   3.771  0.1409  0.0419 -2.5106
  274TIP3   OH2  827   2.639   2.654   3.795  0.5133 -0.4439  0.1473
  274TIP3    H1  828   2.659   2.739   3.835  2.3597 -1.1327  0.7907
  274TIP3    H2  829   2.633   2.672   3.701  0.0304  0.5303  0.3533
  275TIP3   OH2  830   5.697   4.020   2.802 -0.4480  0.0685 -0.3611
  275TIP3    H1  831   5.722   3.928   2.809 -2.3505 -0.4104  0.9016
  275TIP3    H2  832   5.601   4.019   2.805 -0.5670  1.9889 -1.8592
  276TIP3   OH2  833   3.325   3.531   4.257 -0.2475 -0.1617  0.3854
  276TIP3    H1  834   3.299   3.593   4.189 -0.3533  0.3706  0.9044
  276TIP3    H2  835   3.364   3.458   4.209 -1.5916 -0.4422 -0.3392
  277TIP3   OH2  836   4.408   2.476   1.326 -0.1977 -0.5002  0.4682
  277TIP3    H1  837   4.357   2.439   1.254 -0.4520  0.6656  0.0296
  277TIP3    H2  838   4.374   2.565   1.337  1.7109  0.3146  0.1783
  278TIP3   OH2  839   4.839   3.684   5.103  0.2530 -0.2618 -0.6962
  278TIP3    H1  840   4.921   3.637   5.086  0.1383 -0.6464 -0.1996
  278TIP3    H2  841   4.804   3.703   5.015  0.4606 -0.8229 -0.9040
  279TIP3   OH2  842   4.313   3.889   3.926 -0.0363  1.0678  0.3849
  279TIP3    H1  843   4.232   3.928   3.894  0.2334  1.5262  0.2457
  279TIP3    H2  844   4.360   3.963   3.966 -1.0158  0.3017  3.2348
  280TIP3   OH2  845   1.225   0.894   2.687  0.1408 -0.1822  0.0619
  280TIP3    H1  846   1.264   0.898   2.774  0.5219 -2.6471  0.0767
  280TIP3    H2  847   1.134   0.920   2.700 -0.1287 -1.6798  1.4641
  281TIP3   OH2  848   2.298   4.968   1.930 -0.2435 -0.4620  0.1995
  281TIP3    H1  849   2.345   4.966   1.846 -1.6086 -2.0621 -0.5724
  281TIP3    H2  850   2.362   4.938   1.994  0.5318 -0.1340 -0.4003
  282TIP3   OH2  851   1.836   2.802   4.224 -0.1570  0.0600 -0.1002
  282TIP3    H1  852   1.868   2.769   4.308  0.8919  1.0480 -0.0882
  282TIP3    H2  853   1.773   2.870   4.248  0.7687  0.9350 -0.0835
  283TIP3   OH2  854   1.989   0.149   4.032  0.0799 -0.7572 -0.1871
  283TIP3    H1  855   2.059   0.131   4.095  1.2706  1.7971 -0.6401
  283TIP3    H2  856   1.912   0.165   4.086  0.9722  0.9146  0.6655
  284TIP3   OH2  857   2.704   3.430   0.870  1.4011  0.5440  0.3565
  284TIP3    H1  858   2.640   3.485   0.824  0.1081 -0.7113  0.5899
  284TIP3    H2  859   2.756   3.390   0.800  0.4777 -0.1198  0.0260
  285TIP3   OH2  860   5.111   5.008   1.869 -0.4828  0.5800  0.5147
  285TIP3    H1  861   5.121   5.098   1.900  0.5508  0.1519  1.5362
  285TIP3    H2  862   5.181   4.997   1.804 -0.0130  0.2607  1.0601
  286TIP3   OH2  863   5.942   4.118   0.875 -0.2380  0.2843 -0.1248
  286TIP3    H1  864   5.904   4.043   0.829  1.0618  0.3982 -1.4480
  286TIP3    H2  865   5.933   4.096   0.968 -0.1044 -1.3958 -0.4822
  287TIP3   OH2  866   6.311   2.058   1.872 -0.0664 -0.4542 -0.5963
  287TIP3    H1  867   6.339   2.078   1.783  0.0218 -1.1933 -0.7373
  287TIP3    H2  868   6.215   2.064   1.869 -0.2067 -2.4785 -1.2563
  288TIP3   OH2  869   1.406   1.313   0.395 -0.0920  0.1603  0.6721
  288TIP3    H1  870   1.357   1.312   0.478 -0.3710 -0.7196  0.5026
  288TIP3    H2  871   1.406   1.405   0.369 -3.9589 -0.0363 -0.6488
  289TIP3   OH2  872   5.293   0.033   2.703 -0.2114 -0.2045  0.2155
  289TIP3    H1  873   5.299  -0.042   2.644 -1.4821 -0.6105  0.5794
  289TIP3    H2  874   5.254   0.102   2.649  1.7026  0.4839 -0.3566
  290TIP3   OH2  875   2.908   3.832   2.027 -0.2863 -0.6837  0.1552
  290TIP3    H1  876   2.915   3.847   2.121  0.1372  2.1151 -0.2412
  290TIP3    H2  877   2.995   3.849   1.993 -1.1486  1.9604 -1.0610
  291TIP3   OH2  878   2.201   2.209   1.020 -0.3997  0.1952 -0.4531
  291TIP3    H1  879   2.289   2.173   1.028 -1.7631 -3.0975  1.8842
  291TIP3    H2  880   2.192   2.269   1.093 -0.7904 -1.3075  0.7788
  292TIP3   OH2  881   4.763   5.069   2.922  0.1736  0.3144  0.0397
  292TIP3    H1  882   4.735   5.111   3.004  3.1486  2.2768  0.2045
  292TIP3    H2  883   4.751   4.975   2.938 -1.0772  0.7502  1.9970
  293TIP3   OH2  884   3.937   4.885   3.371  0.3811 -0.5226  0.5698
  293TIP3    H1  885   3.872   4.954   3.361  1.7483  0.5135 -2.3709
  293TIP3    H2  886   3.959   4.885   3.464 -0.8244  1.9326  0.9248
  294TIP3   OH2  887   4.098   0.651   0.034 -0.5660  0.1728 -0.2887
  294TIP3    H1  888   4.139   0.570   0.063  0.1120  1.2816  2.1499
  294TIP3    H2  889   4.007   0.627   0.014 -0.4013 -1.1587  0.4957
  295TIP3   OH2  890   5.814   5.135   2.147 -0.1129 -0.1507  0.2065
  295TIP3    H1  891   5.820   5.166   2.237 -2.4263  0.9337  0.0627
  295TIP3    H2  892   5.733   5.173   2.114  1.2789  0.5715 -2.7495
  296TIP3   OH2  893   3.021   0.131   4.267  0.2665 -0.1535  0.0467
  296TIP3    H1  894   3.069   0.157   4.346 -3.0592  0.1854  2.1567
  296TIP3    H2  895   3.008   0.037   4.277 -0.1350 -0.1176 -0.1039
  297TIP3   OH2  896   0.162   4.289   0.732 -0.0669 -0.6746  0.1568
  297TIP3    H1  897   0.109   4.320   0.659 -0.0670 -0.5440  0.2130
  297TIP3    H2  898   0.110   4.218   0.771  0.1947 -1.1404 -0.3267
  298TIP3   OH2  899   2.519   0.030   3.039  0.8569 -0.2812 -0.5380
  298TIP3    H1  900   2.532   0.124   3.025  0.0298 -0.2859 -1.4968
  298TIP3    H2  901   2.442   0.025   3.095  1.6309 -0.3719  0.5375
  299TIP3   OH2  902   4.127   4.584   4.090 -0.0670  0.1020 -0.0046
  299TIP3    H1  903   4.167   4.506   4.129  0.6606  0.5913  0.2308
  299TIP3    H2  904   4.048   4.599   4.143 -1.0660 -1.3440 -0.9787
  300TIP3   OH2  905   4.027   2.740   0.577 -0.0204  0.2580 -0.0428
  300TIP3    H1  906   4.006   2.774   0.664  0.4096 -0.9361  0.5560
  300TIP3    H2  907   4.004   2.647   0.582 -0.6543  0.3107 -1.4418
  301TIP3   OH2  908   1.966   5.370   4.284  1.1676  0.5586 -0.3562
  301TIP3    H1  909   2.030   5.437   4.305 -0.1863  2.2090 -1.2315
  301TIP3    H2  910   1.896   5.417   4.239 -1.0401 -1.0170  1.2081
  302TIP3   OH2  911   0.126   2.181   2.128 -0.0448  0.1013 -0.4620
  302TIP3    H1  912   0.069   2.127   2.073 -0.0203  0.6605 -1.0527
  302TIP3    H2  913   0.078   2.263   2.138 -0.4384 -0.2884  1.0781
  303TIP3   OH2  914   1.717   4.699   0.939  0.3894  0.1290 -0.4788
  303TIP3    H1  915   1.751   4.781   0.905 -0.2524  0.7138  0.2495
  303TIP3    H2  916   1.681   4.721   1.025 -0.7822 -0.6829 -0.7224
  304TIP3   OH2  917   1.214   5.007   2.034 -0.2595  0.1818  0.1955
  304TIP3    H1  918   1.250   4.936   2.088 -0.9523  0.3821  0.9374
  304TIP3    H2  919   1.146   4.964   1.982  0.2784  0.0278 -0.3947
  305TIP3   OH2  920   5.875   3.469   2.524  0.5936 -0.3603 -0.1827
  305TIP3    H1  921   5.818   3.540   2.494  2.3907  1.3354  0.1994
  305TIP3    H2  922   5.881   3.410   2.448 -1.1929 -0.3109 -0.3980
  306TIP3   OH2  923   2.186   0.057   0.631  0.3068  0.0333  0.2908
  306TIP3    H1  924   2.111   0.115   0.639 -0.3602 -0.6348 -0.8923
  306TIP3    H2  925   2.164  -0.018   0.687 -0.3591 -0.5914 -0.7733
  307TIP3   OH2  926   0.560   5.804   2.650 -0.7720 -0.1210  0.0639
  307TIP3    H1  927   0.510   5.779   2.573 -0.6045  0.6160 -0.2975
  307TIP3    H2  928   0.523   5.752   2.721 -0.5199 -1.2785 -0.6202
  308TIP3   OH2  929   6.349   1.807   2.009  0.0826 -0.1749 -0.1971
  308TIP3    H1  930   6.293   1.762   1.946  0.7295 -1.1584 -0.0971
  308TIP3    H2  931   6.356   1.896   1.976  0.3699 -0.6605 -1.5031
  309TIP3   OH2  932   5.238   4.379   0.371  0.3185  0.3864 -0.4124
  309TIP3    H1  933   5.289   4.361   0.450 -0.4347 -1.3916 -0.2742
  309TIP3    H2  934   5.185   4.456   0.394 -0.4240 -0.5340  1.1156
  310TIP3   OH2  935   0.748   3.241   1.804  1.0885 -0.3914 -0.8773
  310TIP3    H1  936   0.775   3.219   1.716 -0.6951 -3.3099 -0.8218
  310TIP3    H2  937   0.761   3.161   1.855 -0.3464  0.4089  0.8927
  311TIP3   OH2  938   2.898   1.410   5.092 -0.0217 -0.3093 -0.8464
  311TIP3    H1  939   2.890   1.419   4.997  2.2931  3.0156 -0.9176
  311TIP3    H2  940   2.980   1.361   5.105 -1.0824 -2.0729 -0.4719
  312TIP3   OH2  941   1.742   1.101   4.227  0.4638  0.3259  0.7398
  312TIP3    H1  942   1.787   1.070   4.149 -1.4754  0.0200 -0.3262
  312TIP3    H2  943   1.698   1.023   4.262 -0.4595  0.8788  0.8604
  313TIP3   OH2  944   0.358   0.627   4.973 -0.5527  0.4555  0.1248
  313TIP3    H1  945   0.367   0.554   4.912  1.7405  0.9269 -0.2029
  313TIP3    H2  946   0.313   0.695   4.922 -2.1207 -0.4658  0.2306
  314TIP3   OH2  947   1.682   3.907   0.842 -0.0875 -0.3535 -0.3084
  314TIP3    H1  948   1.623   3.838   0.872 -0.0268  0.0149  0.7243
  314TIP3    H2  949   1.630   3.987   0.848  0.3215 -0.1069  0.0423
  315TIP3   OH2  950   0.796   4.423   3.086  0.0543  0.2874  0.1269
  315TIP3    H1  951   0.720   4.481   3.091  0.8539  1.4493 -0.6421
  315TIP3    H2  952   0.812   4.412   2.993  0.8842  0.1444  0.2768
  316TIP3   OH2  953   2.178   4.107   3.790  0.1490 -0.0829 -0.0376
  316TIP3    H1  954   2.200   4.146   3.875  0.0327 -0.0176 -0.0382
  316TIP3    H2  955   2.113   4.040   3.811  2.1682 -2.0736  0.3302
  317TIP3   OH2  956   3.050   1.817   3.701 -0.5685  0.6075 -0.0551
  317TIP3    H1  957   3.053   1.837   3.795  0.5113 -0.6570  0.2167
  317TIP3    H2  958   3.138   1.785   3.681 -1.0462  0.0081 -1.3025
  318TIP3   OH2  959   0.090   1.517   3.464 -0.0435 -0.6760 -0.1771
  318TIP3    H1  960   0.057   1.607   3.469 -1.4776 -1.2318  1.9703
  318TIP3    H2  961   0.012   1.464   3.443  0.7977 -1.4417 -1.5229
  319TIP3   OH2  962   0.701   5.918   5.144  0.1734  0.5341  0.0742
  319TIP3    H1  963   0.612   5.882   5.151  0.9927 -1.4470  1.2024
  319TIP3    H2  964   0.758   5.846   5.172  2.2338  1.3328 -1.8128
  320TIP3   OH2  965   1.543   2.287   3.119 -0.3564  0.9554  0.4301
  320TIP3    H1  966   1.581   2.331   3.043 -1.0361  1.3249  0.2993
  320TIP3    H2  967   1.458   2.256   3.089 -0.2262  0.2589  0.7622
  321TIP3   OH2  968   2.961   0.313   2.741 -0.0434 -0.8124 -0.2265
  321TIP3    H1  969   3.032   0.306   2.804  2.2737  2.3918 -2.2143
  321TIP3    H2  970   2.983   0.250   2.673 -0.0947 -1.0801  0.0032
  322TIP3   OH2  971   3.147   4.580   2.407 -0.2412  0.2092  0.1338
  322TIP3    H1  972   3.210   4.653   2.403  1.7016 -1.3547  0.5200
  322TIP3    H2  973   3.180   4.525   2.477 -3.0794  0.1427  1.5235
  323TIP3   OH2  974   0.890   4.722   1.312  0.0293 -0.1393  0.4453
  323TIP3    H1  975   0.807   4.689   1.277  0.0802 -0.5262  0.6809
  323TIP3    H2  976   0.927   4.775   1.241 -0.4852  0.1574  0.3899
  324TIP3   OH2  977   6.017   0.462   1.609 -0.1713 -0.2889  0.4637
  324TIP3    H1  978   6.093   0.414   1.575 -1.1285 -0.4467 -1.6033
  324TIP3    H2  979   6.024   0.455   1.704  2.1213 -0.7116  0.3078
  325TIP3   OH2  980   4.493   0.131   4.816 -0.1637 -0.0505  0.7556
  325TIP3    H1  981   4.408   0.111   4.777 -0.0282  3.6936 -1.9985
  325TIP3    H2  982   4.474   0.148   4.909 -2.1970 -0.3957  0.4429
  326TIP3   OH2  983   2.793   5.121   3.292  0.0580 -1.0419 -0.0383
  326TIP3    H1  984   2.852   5.178   3.341 -1.8809 -0.7285  2.0695
  326TIP3    H2  985   2.782   5.166   3.208 -0.6618  1.2807  1.1965
  327TIP3   OH2  986   4.104   4.682   3.261 -0.1775  0.0427  0.2668
  327TIP3    H1  987   4.045   4.736   3.314  0.0543 -0.6871  1.3120
  327TIP3    H2  988   4.143   4.620   3.324 -1.0624 -1.8925 -0.9919
  328TIP3   OH2  989   1.696   0.477   1.891  0.1930 -0.3660  0.0626
  328TIP3    H1  990   1.775   0.512   1.850 -0.0212 -1.3321 -1.2248
  328TIP3    H2  991   1.655   0.553   1.932 -0.0948  0.8619 -2.3371
  329TIP3   OH2  992   6.092   0.455   0.480 -0.2891  0.3644 -0.3906
  329TIP3    H1  993   6.040   0.503   0.545  0.3675  1.9532 -0.9883
  329TIP3    H2  994   6.162   0.516   0.455 -0.2310 -0.3867 -2.2260
  330TIP3   OH2  995   3.154   5.782   0.822  0.2734 -0.0143 -0.2142
  330TIP3    H1  996   3.180   5.698   0.859 -0.2848  0.4685  1.3764
  330TIP3    H2  997   3.226   5.841   0.845 -0.3437  0.4237  0.6506
  331TIP3   OH2  998   3.830   2.022   4.249  0.2919 -0.0466 -0.4499
  331TIP3    H1  999   3.924   2.012   4.264  1.1556  2.7695 -3.0730
  331TIP3    H2 1000   3.797   2.064   4.329  1.4695 -0.0116  0.0369
  332TIP3   OH2 1001   1.452   3.555   0.577 -0.2771 -0.0361  0.1590
  332TIP3    H1 1002   1.416   3.626   0.525 -1.0895 -0.5428 -0.0003
  332TIP3    H2 1003   1.379   3.526   0.631 -0.2754 -1.4240 -0.5242
  333TIP3   OH2 1004   0.866   2.520   3.415 -0.4348 -0.0761  0.1137
  333TIP3    H1 1005   0.772   2.510   3.429 -0.8543  1.9269 -0.8424
  333TIP3    H2 1006   0.872   2.573   3.335  1.4439  1.2934  1.0962
  334TIP3   OH2 1007   6.075   4.716   1.222 -0.8586  0.5313  0.6830
  334TIP3    H1 1008   6.039   4.645   1.171  0.9743  0.1212 -0.1329
  334TIP3    H2 1009   6.159   4.683   1.254  0.3600  2.4800 -0.2569
  335TIP3   OH2 1010   3.069   0.738   2.597  0.5178  0.4935  0.2063
  335TIP3    H1 1011   2.978   0.767   2.609  0.7950  2.1994 -1.3681
  335TIP3    H2 1012   3.062   0.662   2.539  0.1069  0.6254  0.0808
  336TIP3   OH2 1013   5.663   4.740   2.830 -0.1127  0.2555  0.3855
  336TIP3    H1 1014   5.724   4.672   2.857 -0.0731 -0.7186 -1.9606
  336TIP3    H2 1015   5.704   4.822   2.858  1.1179 -0.5259  0.9168
  337TIP3   OH2 1016   1.477   1.509   5.160  0.1914 -0.6529 -0.4799
  337TIP3    H1 1017   1.460   1.573   5.229  0.5208 -0.2116 -0.7984
  337TIP3    H2 1018   1.431   1.544   5.083  2.4234  0.5977 -1.3756
  338TIP3   OH2 1019   2.969   1.334   0.726  0.0130 -0.2245 -0.4140
  338TIP3    H1 1020   3.036   1.279   0.684  0.6034 -0.5252  0.8698
  338TIP3    H2 1021   3.018   1.387   0.789 -0.9241 -0.2770  0.3734
  339TIP3   OH2 1022   5.059   2.679   3.606  0.8940  0.1671 -0.2143
  339TIP3    H1 1023   5.075   2.704   3.697 -2.7439 -0.9449  0.9380
  339TIP3    H2 1024   5.123   2.610   3.588  1.2713 -0.0645  1.7742
  340TIP3   OH2 1025   0.679   4.593   0.487 -0.1481  0.3056 -0.9060
  340TIP3    H1 1026   0.584   4.587   0.478 -0.4554  0.2294  1.7231
  340TIP3    H2 1027   0.693   4.662   0.552  1.4501 -1.3176  0.5903
  341TIP3   OH2 1028   6.215   1.945   0.279 -0.3384 -0.0088  0.2309
  341TIP3    H1 1029   6.147   1.904   0.226  1.6420  0.8210 -3.2732
  341TIP3    H2 1030   6.171   2.017   0.323 -2.2920 -1.2911  0.4747
  342TIP3   OH2 1031   1.492   4.684   0.414  0.0801 -0.2923  0.0140
  342TIP3    H1 1032   1.485   4.591   0.433  1.1887 -0.1054  1.5003
  342TIP3    H2 1033   1.402   4.716   0.415 -0.1749 -1.0255  1.2680
  343TIP3   OH2 1034   5.302   2.695   0.307  0.6817 -0.1645  0.0465
  343TIP3    H1 1035   5.329   2.786   0.317  3.5215 -0.7790 -1.0251
  343TIP3    H2 1036   5.218   2.700   0.261  0.0704  1.8912  1.2560
  344TIP3   OH2 1037   2.460   2.120   1.885 -1.0725 -0.4193 -0.1101
  344TIP3    H1 1038   2.442   2.120   1.979  0.4893 -0.2007  0.2087
  344TIP3    H2 1039   2.406   2.049   1.850 -0.1213 -1.8656  1.2720
  345TIP3   OH2 1040   6.103   4.257   1.619 -0.0329 -0.4937 -0.0054
  345TIP3    H1 1041   6.055   4.310   1.683  0.4616 -0.5346  0.4030
  345TIP3    H2 1042   6.037   4.234   1.553  0.2101  2.6672 -1.5513
  346TIP3   OH2 1043   1.110   0.071   3.739  0.3182  1.4518  0.4112
  346TIP3    H1 1044   1.162   0.057   3.818  0.5291  2.2013  0.4085
  346TIP3    H2 1045   1.020   0.075   3.770  0.4749  2.6879  0.7454
  347TIP3   OH2 1046   4.036   5.640   4.454  0.1794 -0.1057 -0.0262
  347TIP3    H1 1047   4.042   5.700   4.528  1.3168  2.5692 -2.1508
  347TIP3    H2 1048   3.962   5.582   4.476  0.9262  0.0457  3.4633
  348TIP3   OH2 1049   5.783   1.498   2.515 -0.0182 -0.3796  0.2839
  348TIP3    H1 1050   5.801   1.565   2.449  1.3945 -1.7281 -0.7864
  348TIP3    H2 1051   5.853   1.508   2.579 -0.7709  0.2342  1.0209
  349TIP3   OH2 1052   1.466   0.921   1.328 -0.1106 -0.3545 -0.2750
  349TIP3    H1 1053   1.533   0.875   1.277  1.0351 -0.0022  0.8652
  349TIP3    H2 1054   1.512   0.951   1.406 -1.0527  1.8067 -0.4815
  350TIP3   OH2 1055   3.202   4.213   3.581 -0.3495  0.0911 -0.1814
  350TIP3    H1 1056   3.154   4.294   3.561  1.7351  1.8913  1.5655
  350TIP3    H2 1057   3.157   4.177   3.658 -2.2286 -1.3729 -1.8543
  351TIP3   OH2 1058   0.931   3.420   1.450  0.2445 -0.2462 -0.4232
  351TIP3    H1 1059   0.880   3.464   1.518  1.6995  0.2772  0.3768
  351TIP3    H2 1060   0.947   3.332   1.484  0.6726 -0.0977 -0.2277
  352TIP3   OH2 1061   0.109   1.013   1.209  0.0398  0.5364 -0.9256
  352TIP3    H1 1062   0.054   1.030   1.132  0.3940 -1.1579 -1.6132
  352TIP3    H2 1063   0.164   1.090   1.217 -1.6464  1.8023 -0.8899
  353TIP3   OH2 1064   4.447   4.352   5.085  0.1319  0.0682 -0.3984
  353TIP3    H1 1065   4.533   4.379   5.118  0.8227 -1.3559 -0.9298
  353TIP3    H2 1066   4.445   4.258   5.100 -1.2917  0.0629 -0.5412
  354TIP3   OH2 1067   3.233   3.669   4.868  0.1663  0.0576 -0.2106
  354TIP3    H1 1068   3.175   3.592   4.870 -1.7652  1.4479  0.1029
  354TIP3    H2 1069   3.253   3.681   4.775  0.5138 -0.8126 -0.2641
  355TIP3   OH2 1070   5.486   2.555   2.892 -0.0098  0.1436 -0.0968
  355TIP3    H1 1071   5.446   2.533   2.976  1.3846 -0.5311  0.4280
  355TIP3    H2 1072   5.542   2.630   2.911 -0.5832  0.7261 -0.6897
  356TIP3   OH2 1073   0.950   3.039   2.001  0.2079  0.2829 -0.4103
  356TIP3    H1 1074   1.024   3.028   2.061 -1.1244  0.4732  1.3479
  356TIP3    H2 1075   0.988   3.026   1.914  2.3391  0.5605  0.4069
  357TIP3   OH2 1076   1.031   1.158   4.667 -0.0888  0.2073  0.3794
  357TIP3    H1 1077   1.087   1.086   4.694  0.1560  0.4411  0.4974
  357TIP3    H2 1078   0.997   1.132   4.581 -0.8249 -0.5151  0.8733
  358TIP3   OH2 1079   4.377   5.406   0.674 -0.5563  0.2008 -0.3252
  358TIP3    H1 1080   4.333   5.404   0.590 -1.1711 -0.3843  0.0055
  358TIP3    H2 1081   4.313   5.442   0.735 -0.3663 -0.0575  0.0341
  359TIP3   OH2 1082   3.853   1.971   0.896  0.4000 -0.4515 -0.3194
  359TIP3    H1 1083   3.822   1.912   0.965 -0.7238 -1.1544 -1.4100
  359TIP3    H2 1084   3.798   1.953   0.821  1.3984  0.5341 -1.3354
  360TIP3   OH2 1085   2.716   0.004   0.666 -0.2890  0.4589 -0.4783
  360TIP3    H1 1086   2.669   0.058   0.603 -2.1826 -0.6645 -0.1118
  360TIP3    H2 1087   2.802  -0.009   0.627  0.4496  3.9938 -0.3991
  361TIP3   OH2 1088   1.494   1.512   3.395  0.3635 -0.3529  0.1557
  361TIP3    H1 1089   1.400   1.500   3.384  0.2531  0.8690 -0.4389
  361TIP3    H2 1090   1.505   1.606   3.408  1.6904 -0.1008 -2.2323
  362TIP3   OH2 1091   2.538   0.785   1.328  0.0239 -0.3756 -0.6061
  362TIP3    H1 1092   2.580   0.699   1.334 -0.0804 -0.3894 -0.0190
  362TIP3    H2 1093   2.452   0.767   1.290  0.7741 -0.2671 -2.4467
  363TIP3   OH2 1094   3.992   3.090   0.666  0.4278  0.2928 -0.9066
  363TIP3    H1 1095   4.043   3.045   0.599  0.7498 -0.5862 -0.0798
  363TIP3    H2 1096   3.906   3.049   0.662 -0.0295  1.2957 -1.8196
  364TIP3   OH2 1097   1.956   4.291   2.211  0.0780 -0.1424 -0.1069
  364TIP3    H1 1098   2.042   4.328   2.229 -0.0692 -0.2517  0.8740
  364TIP3    H2 1099   1.928   4.253   2.295 -0.5555 -0.8641 -0.6335
  365TIP3   OH2 1100   1.022   4.259   2.281 -0.0481 -0.2762 -0.6104
  365TIP3    H1 1101   1.007   4.165   2.289 -0.2891 -0.4871 -2.8848
  365TIP3    H2 1102   0.958   4.288   2.216  1.0395  1.1427 -1.1027
  366TIP3   OH2 1103   2.573   2.801   2.900 -0.4446  0.4277  0.3669
  366TIP3    H1 1104   2.643   2.737   2.917 -0.9940 -0.2205  0.2325
  366TIP3    H2 1105   2.587   2.828   2.809  1.8521  3.0998  1.3601
  367TIP3   OH2 1106   5.831   4.990   0.204  0.5478  0.2158  0.0854
  367TIP3    H1 1107   5.839   5.075   0.248  0.7192  0.0618  0.3586
  367TIP3    H2 1108   5.869   5.005   0.117 -1.0082  0.8773 -0.5133
  368TIP3   OH2 1109   2.736   3.618   2.043 -0.8214  0.0157 -0.3763
  368TIP3    H1 1110   2.656   3.634   1.994 -1.8052  0.2382  1.2284
  368TIP3    H2 1111   2.794   3.690   2.019 -2.0547  1.2879  0.3401
  369TIP3   OH2 1112   0.103   1.492   3.850 -0.0249  0.0068  0.3761
  369TIP3    H1 1113   0.168   1.520   3.915  1.0343 -1.8033  0.1626
  369TIP3    H2 1114   0.131   1.534   3.769  1.1604 -1.0658  0.1986
  370TIP3   OH2 1115   2.106   5.212   3.995  0.5943 -0.4819  0.4872
  370TIP3    H1 1116   2.015   5.193   3.973  0.4580  0.2201  0.4147
  370TIP3    H2 1117   2.103   5.299   4.036  1.2487 -0.3739  0.3170
  371TIP3   OH2 1118   1.250   4.949   1.058 -0.3659  0.0753 -0.1057
  371TIP3    H1 1119   1.321   5.002   1.094  0.5985  0.9847 -3.0793
  371TIP3    H2 1120   1.264   4.862   1.093  0.7447  0.7696  1.2766
  372TIP3   OH2 1121   2.809   0.299   2.002  0.1133 -0.1045 -0.1849
  372TIP3    H1 1122   2.797   0.256   1.917  1.7989 -1.1819  0.0744
  372TIP3    H2 1123   2.734   0.358   2.009 -0.6589 -0.7851 -1.9241
  373TIP3   OH2 1124   0.028   5.190   0.969 -0.0784 -0.0213 -0.2789
  373TIP3    H1 1125  -0.012   5.167   0.885 -0.4320 -0.5465  0.0278
  373TIP3    H2 1126   0.120   5.165   0.959  0.3572  1.7399 -1.1991
  374TIP3   OH2 1127   1.806   0.372   2.967 -0.1827 -0.2960  0.1217
  374TIP3    H1 1128   1.750   0.342   3.038 -1.0521 -1.1422 -0.8800
  374TIP3    H2 1129   1.754   0.358   2.888  0.2430  1.8584 -0.5924
  375TIP3   OH2 1130   0.190   2.807   2.101 -0.1835  0.2972 -0.3359
  375TIP3    H1 1131   0.108   2.849   2.126  0.2335  0.8060  0.2124
  375TIP3    H2 1132   0.164   2.723   2.062 -0.9694  0.5903 -0.4526
  376TIP3   OH2 1133   4.338   4.908  -0.013 -0.0088  0.3248  0.0707
  376TIP3    H1 1134   4.392   4.985  -0.029  0.6561 -0.1665 -0.0956
  376TIP3    H2 1135   4.287   4.930   0.065 -0.3740  1.2120 -0.4124
  377TIP3   OH2 1136   2.536   0.907   4.172  0.2065 -0.0645  0.0430
  377TIP3    H1 1137   2.471   0.889   4.240 -0.3223  0.0663 -0.4223
  377TIP3    H2 1138   2.602   0.838   4.183  0.6824  0.5595  1.3592
  378TIP3   OH2 1139   1.607   5.324   4.888 -0.0829 -0.6352 -0.2118
  378TIP3    H1 1140   1.667   5.364   4.824 -0.4838 -0.1223 -0.2677
  378TIP3    H2 1141   1.639   5.353   4.973 -1.4352  1.3295 -0.3162
  379TIP3   OH2 1142   4.237   5.995   2.392  0.2461 -0.5766  0.9447
  379TIP3    H1 1143   4.261   5.904   2.374  0.0849 -0.3779 -0.3431
  379TIP3    H2 1144   4.162   6.012   2.335  1.4682  0.9443 -0.2997
  380TIP3   OH2 1145   1.849   4.736   2.818  0.1664  0.1821 -0.4722
  380TIP3    H1 1146   1.761   4.708   2.794  0.8786 -1.7666 -0.9733
  380TIP3    H2 1147   1.851   4.729   2.914 -0.6769  1.7534 -0.3129
  381TIP3   OH2 1148   4.787   1.420   0.086 -0.2449  0.0512 -0.0435
  381TIP3    H1 1149   4.831   1.367   0.152  2.9304 -0.1139 -2.0476
  381TIP3    H2 1150   4.743   1.356   0.030  0.9143 -0.2448 -0.6453
  382TIP3   OH2 1151   0.770   2.426   3.042  0.5161  0.5963  0.1679
  382TIP3    H1 1152   0.843   2.367   3.063  0.1967 -0.1859 -0.8401
  382TIP3    H2 1153   0.756   2.413   2.949 -1.3431  0.2329  0.4670
  383TIP3   OH2 1154   2.423   2.013   2.252  0.3965 -0.1687  0.2172
  383TIP3    H1 1155   2.369   2.060   2.315  1.0050 -0.2550  0.8194
  383TIP3    H2 1156   2.443   1.930   2.296  1.3398  0.0257  0.1669
  384TIP3   OH2 1157   5.982   4.359   1.893  0.2728 -0.5601  0.3979
  384TIP3    H1 1158   5.891   4.332   1.881 -0.7078  1.7688  1.8915
  384TIP3    H2 1159   6.004   4.329   1.981  0.7252 -0.5698  0.2817
  385TIP3   OH2 1160   2.307   2.241   3.774  0.0001 -0.5722 -0.1830
  385TIP3    H1 1161   2.260   2.292   3.709  0.3216 -0.3923 -0.2781
  385TIP3    H2 1162   2.389   2.216   3.731 -0.0249 -0.9198 -0.0370
  386TIP3   OH2 1163   2.948   0.393   4.245  0.0265 -0.2709 -0.2803
  386TIP3    H1 1164   2.987   0.306   4.246  0.3171 -0.1492  0.6864
  386TIP3    H2 1165   3.022   0.452   4.256 -0.1871  0.0902 -0.7681
  387TIP3   OH2 1166   5.166   0.728   4.231  0.1029 -0.8966  0.1393
  387TIP3    H1 1167   5.234   0.741   4.297  0.6725 -0.0593 -0.5737
  387TIP3    H2 1168   5.096   0.682   4.276  0.4081 -0.1989  1.3648
  388TIP3   OH2 1169   6.067   0.193   0.554  0.0382  0.6913 -0.0338
  388TIP3    H1 1170   6.076   0.204   0.648 -1.8290 -0.9751  0.4129
  388TIP3    H2 1171   6.067   0.282   0.519  2.6414  1.2978  1.2697
  389TIP3   OH2 1172   0.288   0.761   4.070 -0.2414 -0.6395 -0.1700
  389TIP3    H1 1173   0.279   0.834   4.131  1.0084  0.6793 -1.4810
  389TIP3    H2 1174   0.239   0.788   3.993  1.0296 -0.7361 -1.0359
  390TIP3   OH2 1175   0.582   0.049   3.098 -0.3936 -0.4889  0.1883
  390TIP3    H1 1176   0.638  -0.003   3.040  0.0121  0.5554 -0.3988
  390TIP3    H2 1177   0.520   0.092   3.040  0.8551  1.6331  0.2883
  391TIP3   OH2 1178   5.201   0.513   4.944 -0.3279 -0.1892 -0.2158
  391TIP3    H1 1179   5.277   0.456   4.935  0.2467  0.5161  0.1057
  391TIP3    H2 1180   5.236   0.596   4.975 -1.2600  0.0774  0.1667
  392TIP3   OH2 1181   2.317   3.421   3.791 -0.3137  0.7227 -0.1718
  392TIP3    H1 1182   2.299   3.360   3.719  1.3896  1.3823 -1.2199
  392TIP3    H2 1183   2.391   3.473   3.760 -1.2210  2.8202  1.0180
  393TIP3   OH2 1184   3.693   5.424   3.801  0.1705 -0.0784  0.2156
  393TIP3    H1 1185   3.691   5.361   3.873  0.1989  0.0287  0.3102
  393TIP3    H2 1186   3.772   5.402   3.752  0.1833 -0.1122  0.2512
  394TIP3   OH2 1187   5.362   4.470   0.077 -0.1700 -0.0206  0.6337
  394TIP3    H1 1188   5.329   4.381   0.071  0.2653 -0.0874 -1.2268
  394TIP3    H2 1189   5.354   4.492   0.170 -2.2415 -1.2301  0.8013
  395TIP3   OH2 1190   5.128   4.752   2.213  0.1218 -0.4605 -0.1642
  395TIP3    H1 1191   5.103   4.832   2.259  0.2582 -0.5092 -0.0036
  395TIP3    H2 1192   5.175   4.782   2.135  0.3345 -0.3865 -0.0094
  396TIP3   OH2 1193   3.316   3.764   1.502 -0.0173 -0.0853  0.2678
  396TIP3    H1 1194   3.343   3.749   1.592  0.8320  0.2281  0.0808
  396TIP3    H2 1195   3.276   3.851   1.503 -0.5183 -0.3182  0.4465
  397TIP3   OH2 1196   4.646   3.788   4.927 -0.0015 -0.4212 -0.0568
  397TIP3    H1 1197   4.617   3.724   4.992  2.5743  0.1881  1.8584
  397TIP3    H2 1198   4.572   3.848   4.919 -0.6385 -0.8499  1.9227
  398TIP3   OH2 1199   0.320   5.933   2.761  0.2560  0.4734 -0.4014
  398TIP3    H1 1200   0.346   5.959   2.850 -2.0694  1.1297  0.1590
  398TIP3    H2 1201   0.285   5.845   2.771 -0.5026  0.7526 -0.5605
  399TIP3   OH2 1202   5.383   2.214   2.044 -0.0392 -0.6360 -0.2921
  399TIP3    H1 1203   5.470   2.190   2.077 -0.1593 -2.4451 -1.1361
  399TIP3    H2 1204   5.388   2.196   1.950 -0.5540  1.7411 -0.8295
  400TIP3   OH2 1205   1.641   3.736   0.147 -0.2987 -0.0178  0.4313
  400TIP3    H1 1206   1.667   3.670   0.212 -0.8395  0.2703  0.9532
  400TIP3    H2 1207   1.597   3.687   0.079 -1.7134 -0.0835  1.3631
  401TIP3   OH2 1208   2.973   5.655   3.243  0.5982  0.4509  0.0136
  401TIP3    H1 1209   3.050   5.633   3.190  1.0171  0.3530  0.6593
  401TIP3    H2 1210   3.004   5.652   3.333 -0.0377  0.9395  0.2525
  402TIP3   OH2 1211   1.545   3.375   2.079 -0.6580 -0.2273 -0.4971
  402TIP3    H1 1212   1.580   3.441   2.139 -0.5039 -0.0981 -0.7308
  402TIP3    H2 1213   1.454   3.402   2.064 -0.1755  0.7818 -1.7730
  403TIP3   OH2 1214   3.661   4.804   5.094 -0.1865  0.0051  0.0343
  403TIP3    H1 1215   3.607   4.760   5.159 -0.8484 -1.2716 -1.3075
  403TIP3    H2 1216   3.740   4.830   5.142 -0.6279 -0.9274  1.3254
  404TIP3   OH2 1217   6.007   1.773   3.299  0.4221 -0.6167 -0.3205
  404TIP3    H1 1218   5.919   1.750   3.269 -0.4154  1.4902  0.3337
  404TIP3    H2 1219   6.037   1.838   3.235  0.7715 -0.0265  0.4324
  405TIP3   OH2 1220   3.132   4.446   0.717  0.4274  0.2639  0.2806
  405TIP3    H1 1221   3.212   4.394   0.718  0.2906  0.0296  1.4489
  405TIP3    H2 1222   3.099   4.440   0.628  2.4005  1.4594 -0.5871
  406TIP3   OH2 1223   5.596   3.404   2.407  0.3571  0.6019  0.1327
  406TIP3    H1 1224   5.672   3.354   2.376 -2.7577 -3.5623 -1.7121
  406TIP3    H2 1225   5.602   3.487   2.362  3.3657  0.1640 -0.5152
  407TIP3   OH2 1226   3.609   4.135   2.761 -0.0832 -0.3046  0.1946
  407TIP3    H1 1227   3.594   4.187   2.840  0.9963  0.5727 -0.1440
  407TIP3    H2 1228   3.581   4.047   2.784 -2.5346  0.5112  0.5914
  408TIP3   OH2 1229   2.976   4.617   3.512 -0.3612 -0.2045  0.1290
  408TIP3    H1 1230   2.991   4.609   3.418 -1.6698  0.0695 -0.1225
  408TIP3    H2 1231   2.969   4.527   3.543 -1.1754 -0.2794 -0.2594
  409TIP3   OH2 1232   4.282   4.086   4.335  0.2224 -0.5565  0.3028
  409TIP3    H1 1233   4.292   4.149   4.407 -0.9373  0.5267 -0.4433
  409TIP3    H2 1234   4.287   4.000   4.378 -1.3486  0.0482  1.8410
  410TIP3   OH2 1235   6.032   3.447   5.130  0.3769  0.0681 -0.2741
  410TIP3    H1 1236   5.966   3.473   5.067  0.7056  0.1696 -0.5804
  410TIP3    H2 1237   6.067   3.365   5.096 -0.9631 -1.0491  0.9162
  411TIP3   OH2 1238   0.732   2.630   1.148  0.0703  0.4293 -0.1645
  411TIP3    H1 1239   0.797   2.648   1.080 -0.3877  0.1521 -0.6820
  411TIP3    H2 1240   0.713   2.536   1.138  0.2831  0.2979  0.5985
  412TIP3   OH2 1241   5.382   1.070   4.608 -0.6709 -0.1982  0.0623
  412TIP3    H1 1242   5.372   0.995   4.549 -0.4831  0.2433 -0.5398
  412TIP3    H2 1243   5.471   1.061   4.642  0.3200  1.0861 -1.9435
  413TIP3   OH2 1244   2.685   2.220   2.177  0.1219  0.1798 -0.9626
  413TIP3    H1 1245   2.680   2.127   2.156  2.0666  0.3313 -2.4440
  413TIP3    H2 1246   2.753   2.254   2.119  1.6248  1.9325  1.5981
  414TIP3   OH2 1247   1.029   1.200   0.349  0.0847  0.4465 -0.1942
  414TIP3    H1 1248   1.012   1.183   0.442  0.3641  1.4237  0.0505
  414TIP3    H2 1249   1.040   1.295   0.344  0.7688  0.3338 -1.1110
  415TIP3   OH2 1250   5.112   3.147   0.087 -0.2040  0.1135  0.6123
  415TIP3    H1 1251   5.038   3.207   0.079 -0.2689  0.1335  1.3435
  415TIP3    H2 1252   5.186   3.197   0.054 -0.7930 -0.5319 -1.9559
  416TIP3   OH2 1253   6.116   0.604   2.533  0.4091 -0.2302 -0.2674
  416TIP3    H1 1254   6.069   0.672   2.581 -0.2927 -0.5259 -0.5070
  416TIP3    H2 1255   6.192   0.649   2.496 -0.4823  0.6432 -1.1276
  417TIP3   OH2 1256   4.368   3.842   2.908  0.0241 -0.4268 -0.0345
  417TIP3    H1 1257   4.296   3.880   2.858 -0.6444 -1.4725  0.0969
  417TIP3    H2 1258   4.379   3.900   2.983  2.3316  2.2913 -2.2398
  418TIP3   OH2 1259   3.018   1.118   4.632  0.6171  0.1141 -0.1431
  418TIP3    H1 1260   3.017   1.087   4.542  0.3891  1.0658 -0.4721
  418TIP3    H2 1261   2.936   1.166   4.643  1.0734  0.8142  0.2825
  419TIP3   OH2 1262   5.027   1.614   4.528  0.3653  0.3295  0.4279
  419TIP3    H1 1263   4.995   1.577   4.446 -0.4779 -0.9017  1.2720
  419TIP3    H2 1264   5.106   1.564   4.548  1.0436  1.1915 -0.0321
  420TIP3   OH2 1265   5.863   3.335   2.252 -0.1128  0.5175  0.0462
  420TIP3    H1 1266   5.933   3.270   2.257 -0.0576  0.5674 -0.0829
  420TIP3    H2 1267   5.833   3.332   2.161 -0.4254  0.3434  0.1503
  421TIP3   OH2 1268   1.561   5.328   1.315  0.1485  0.5063  0.2513
  421TIP3    H1 1269   1.581   5.238   1.339  1.2110  0.8113  0.5441
  421TIP3    H2 1270   1.622   5.348   1.244  0.1561  1.1068  0.4227
  422TIP3   OH2 1271   0.995   0.323   4.791 -0.1780 -0.0847  0.4069
  422TIP3    H1 1272   1.081   0.326   4.750  0.0482  0.4138  0.9004
  422TIP3    H2 1273   0.934   0.347   4.720  0.1668  0.3508  0.2480
  423TIP3   OH2 1274   5.191   1.885   3.634  0.7520  0.2239 -0.5636
  423TIP3    H1 1275   5.226   1.845   3.714  0.2798 -0.4634 -0.6852
  423TIP3    H2 1276   5.188   1.978   3.652 -0.1240  0.0021  0.5386
  424TIP3   OH2 1277   5.226   1.891   4.385  0.2889 -0.2349 -0.0197
  424TIP3    H1 1278   5.212   1.985   4.383  0.1652 -0.2611 -0.5599
  424TIP3    H2 1279   5.281   1.876   4.462  1.7983  0.4789 -0.9094
  425TIP3   OH2 1280   6.119   0.276   1.429  0.5446 -0.3674  0.1668
  425TIP3    H1 1281   6.095   0.365   1.404 -0.0908 -0.6815 -0.3619
  425TIP3    H2 1282   6.109   0.225   1.350 -1.1566 -1.3049  0.9298
  426TIP3   OH2 1283   2.838   2.346   2.595  0.0263  0.0223 -0.6495
  426TIP3    H1 1284   2.922   2.305   2.615 -0.3409 -0.3773  0.1104
  426TIP3    H2 1285   2.794   2.353   2.680 -1.7597 -2.1312 -1.3010
  427TIP3   OH2 1286   4.165   3.349   1.197  0.3147  0.4473  0.2659
  427TIP3    H1 1287   4.078   3.378   1.170 -0.3441 -2.5012 -1.0860
  427TIP3    H2 1288   4.224   3.383   1.129  0.3931  2.7462  1.3631
  428TIP3   OH2 1289   4.023   1.120   0.898 -0.2948 -0.5974 -0.1402
  428TIP3    H1 1290   4.105   1.071   0.902  0.8789  1.2277 -0.5305
  428TIP3    H2 1291   3.991   1.122   0.988 -0.5560 -2.3168 -0.1721
  429TIP3   OH2 1292   0.213   0.944   3.878  0.6654 -0.3011 -0.0311
  429TIP3    H1 1293   0.156   1.020   3.886  0.2969 -0.6015  0.2104
  429TIP3    H2 1294   0.266   0.963   3.801 -0.1344 -0.2648 -0.5817
  430TIP3   OH2 1295   2.608   3.769   3.163 -0.3895  0.2398  0.2275
  430TIP3    H1 1296   2.693   3.726   3.173  0.4845  1.8195 -0.0933
  430TIP3    H2 1297   2.544   3.699   3.176  0.9530 -0.9979  0.4114
  431TIP3   OH2 1298   2.028   0.428   1.017 -0.1224 -0.3814  0.0363
  431TIP3    H1 1299   2.104   0.372   1.032 -1.2057 -1.9804 -0.2860
  431TIP3    H2 1300   2.062   0.500   0.962  1.1649 -1.0218 -0.0349
  432TIP3   OH2 1301   0.718   4.274   0.472 -0.0293  0.0642 -0.5763
  432TIP3    H1 1302   0.691   4.214   0.402 -0.5936 -0.8591  0.4090
  432TIP3    H2 1303   0.724   4.360   0.429  0.5276 -0.6247 -1.9582
  433TIP3   OH2 1304   0.711   2.758   4.365  0.2414 -0.2625 -0.0356
  433TIP3    H1 1305   0.656   2.765   4.287 -0.1345  0.6511  0.3081
  433TIP3    H2 1306   0.663   2.804   4.433  0.2920 -1.5340  0.9050
  434TIP3   OH2 1307   4.570   1.561   2.396  0.0248 -0.2746  0.6732
  434TIP3    H1 1308   4.556   1.547   2.489  0.1734 -0.6773  0.6392
  434TIP3    H2 1309   4.665   1.567   2.386 -0.0112  0.2399  0.6098
  435TIP3   OH2 1310   3.132   3.973   1.714  0.2336  0.0115  0.4728
  435TIP3    H1 1311   3.107   3.886   1.746 -0.1751  0.9443  2.9076
  435TIP3    H2 1312   3.200   4.002   1.775  1.4233  0.8604 -1.1623
  436TIP3   OH2 1313   0.575   0.525   3.175  0.2063 -0.5811 -0.7472
  436TIP3    H1 1314   0.509   0.492   3.114 -0.1818 -2.0792  0.4054
  436TIP3    H2 1315   0.648   0.465   3.166 -0.2294 -1.4276  0.8882
  437TIP3   OH2 1316   5.962   2.633   0.232  0.2280 -0.0972 -0.1355
  437TIP3    H1 1317   5.952   2.728   0.238 -1.5433 -0.0301 -2.6294
  437TIP3    H2 1318   5.872   2.600   0.226  0.7867 -1.4435 -4.0243
  438TIP3   OH2 1319   5.810   3.020   2.587 -0.7989  0.1265  0.5492
  438TIP3    H1 1320   5.839   2.933   2.615 -1.1193 -0.6170 -1.2877
  438TIP3    H2 1321   5.827   3.076   2.663  3.8906 -0.5058  0.2575
  439TIP3   OH2 1322   2.094   4.533   1.063 -0.1143  0.4775 -0.1619
  439TIP3    H1 1323   2.183   4.502   1.045 -0.7331 -1.4247 -0.1468
  439TIP3    H2 1324   2.092   4.622   1.027  2.2133  1.1523  1.1460
  440TIP3   OH2 1325   4.035   0.931   4.495 -0.0505  0.5023  0.1758
  440TIP3    H1 1326   4.070   0.863   4.438 -0.1575  0.8017 -0.2567
  440TIP3    H2 1327   3.949   0.950   4.458 -0.2144  0.5345  0.5800
  441TIP3   OH2 1328   1.262   2.098   2.338 -0.4673  0.5214 -0.5604
  441TIP3    H1 1329   1.199   2.132   2.275  0.8494  0.4782 -1.9609
  441TIP3    H2 1330   1.334   2.065   2.285 -0.0418 -1.0817  0.9097
  442TIP3   OH2 1331   3.660   5.142   1.250 -0.7751  0.1179  0.0955
  442TIP3    H1 1332   3.665   5.136   1.345 -0.9694 -0.9809  0.0564
  442TIP3    H2 1333   3.692   5.229   1.229  2.0167 -0.6071  0.9805
  443TIP3   OH2 1334   5.157   3.713   4.518 -0.8437  0.1772  0.3179
  443TIP3    H1 1335   5.122   3.753   4.439 -2.0646 -0.4912  0.4863
  443TIP3    H2 1336   5.121   3.766   4.590 -0.5129  0.2160  0.4570
  444TIP3   OH2 1337   4.930   5.578   2.765 -0.0931 -0.4644 -0.2220
  444TIP3    H1 1338   5.023   5.591   2.783 -0.4604  0.1544  1.4065
  444TIP3    H2 1339   4.915   5.485   2.782 -0.3276  0.0068  2.4779
  445TIP3   OH2 1340   5.549   2.509   4.464 -0.1507  0.2447 -0.5793
  445TIP3    H1 1341   5.505   2.539   4.385  0.1057 -1.1120 -1.2656
  445TIP3    H2 1342   5.625   2.566   4.473  1.5146 -1.3963 -3.0422
  446TIP3   OH2 1343   1.997   3.356   4.705 -0.0877  0.1620 -0.0803
  446TIP3    H1 1344   1.928   3.420   4.688  0.4470  0.8888  0.4234
  446TIP3    H2 1345   1.981   3.325   4.793  1.6909  2.2956  1.1123
  447TIP3   OH2 1346   1.332   2.701   4.447 -0.6725  0.2439 -0.1723
  447TIP3    H1 1347   1.328   2.788   4.409 -0.9254 -0.0654 -0.8712
  447TIP3    H2 1348   1.243   2.666   4.437 -0.6436  0.0119  0.3478
  448TIP3   OH2 1349   2.690   1.039   4.783 -0.5969  0.2776  0.2162
  448TIP3    H1 1350   2.614   1.082   4.744  0.0817  0.2675 -1.1757
  448TIP3    H2 1351   2.707   1.088   4.864 -0.4593  2.0133 -0.8120
  449TIP3   OH2 1352   6.200   3.754   1.570  0.3831 -0.1685  0.1797
  449TIP3    H1 1353   6.195   3.659   1.571 -1.2252 -0.1236  0.0875
  449TIP3    H2 1354   6.251   3.777   1.648 -0.1720 -1.0755  0.8274
  450TIP3   OH2 1355   1.888   4.927   4.518 -0.0947 -0.0854 -0.6427
  450TIP3    H1 1356   1.862   4.992   4.451 -3.7509 -0.0691  0.5607
  450TIP3    H2 1357   1.905   4.979   4.596  1.6411 -0.3174 -0.8171
  451TIP3   OH2 1358   6.261   4.604   4.404 -0.4365 -0.2170 -0.1853
  451TIP3    H1 1359   6.239   4.567   4.489  0.4080  2.0254  1.0920
  451TIP3    H2 1360   6.284   4.529   4.349  0.8331 -1.5947  2.1123
  452TIP3   OH2 1361   2.294   1.941   0.727 -0.3367 -0.1047  0.4601
  452TIP3    H1 1362   2.322   1.866   0.674 -0.7645 -0.5351  0.8396
  452TIP3    H2 1363   2.200   1.929   0.738 -0.4142  0.5152  0.4880
  453TIP3   OH2 1364   4.171   4.205   4.050  0.0406  0.2842  0.2445
  453TIP3    H1 1365   4.134   4.220   3.963  0.6464  0.4918  0.0199
  453TIP3    H2 1366   4.108   4.148   4.093  1.3206 -2.6553 -1.4903
  454TIP3   OH2 1367   4.420   2.072   0.219  0.3100  0.1094 -0.5374
  454TIP3    H1 1368   4.419   2.127   0.297 -0.3713  0.1241 -0.5511
  454TIP3    H2 1369   4.410   1.983   0.253 -0.0202  0.1185 -0.6072
  455TIP3   OH2 1370   2.352   3.190   3.657  0.2676  0.1219  0.2169
  455TIP3    H1 1371   2.270   3.140   3.653 -0.4331  1.0516  1.9328
  455TIP3    H2 1372   2.413   3.132   3.703 -0.1580  0.3146  1.0505
  456TIP3   OH2 1373   2.491   2.305   4.232 -0.3263 -0.6873  0.1445
  456TIP3    H1 1374   2.476   2.391   4.192 -3.3378 -1.1455  0.0997
  456TIP3    H2 1375   2.473   2.242   4.162 -0.4966 -1.3969  0.8114
  457TIP3   OH2 1376   5.719   1.025   0.642  0.3898  0.8070 -0.4517
  457TIP3    H1 1377   5.768   1.057   0.717 -0.3093 -0.8586  0.7789
  457TIP3    H2 1378   5.656   0.963   0.679 -0.4290  0.4438 -2.3407
  458TIP3   OH2 1379   0.679   2.034   2.270  0.5560  0.1412  0.2615
  458TIP3    H1 1380   0.626   1.961   2.237  1.0877 -0.9993  1.8112
  458TIP3    H2 1381   0.700   2.085   2.192 -1.9376  0.0710 -0.5536
  459TIP3   OH2 1382   0.975   0.323   0.054 -0.3298  0.4573 -0.2869
  459TIP3    H1 1383   0.928   0.399   0.020 -0.7426  0.1950 -0.3169
  459TIP3    H2 1384   1.063   0.355   0.072 -1.3139  1.7718  2.7098
  460TIP3   OH2 1385   0.978   0.639   3.872 -0.1060  1.2088 -0.0871
  460TIP3    H1 1386   0.946   0.585   3.944  0.0393 -1.6871 -2.0208
  460TIP3    H2 1387   0.911   0.705   3.860 -0.3469  1.5132  2.3581
  461TIP3   OH2 1388   5.288   3.131   4.509  0.2473 -0.0334 -0.6261
  461TIP3    H1 1389   5.286   3.101   4.418  1.3099  0.8568 -0.9712
  461TIP3    H2 1390   5.260   3.222   4.505  1.5940  0.4271 -0.2801
  462TIP3   OH2 1391   4.566   2.205   2.818 -0.0256  0.2370 -0.8433
  462TIP3    H1 1392   4.650   2.166   2.843 -1.4276 -1.2798  2.0234
  462TIP3    H2 1393   4.560   2.285   2.870 -0.4106  0.2559 -0.9153
  463TIP3   OH2 1394   2.501   4.476   3.032  0.5695  0.2614  0.0865
  463TIP3    H1 1395   2.581   4.518   3.063  0.5779  1.4513 -1.4272
  463TIP3    H2 1396   2.431   4.530   3.068  0.5019  0.1337  0.1446
  464TIP3   OH2 1397   5.328   3.883   3.489 -0.0034  0.3812  0.0355
  464TIP3    H1 1398   5.386   3.824   3.536 -0.7511 -0.6255 -0.2712
  464TIP3    H2 1399   5.347   3.867   3.396 -0.5794  0.2259 -0.0610
  465TIP3   OH2 1400   2.181   0.162   2.801  0.0595 -0.9004 -0.3412
  465TIP3    H1 1401   2.203   0.128   2.714  0.7162  1.1032 -1.0137
  465TIP3    H2 1402   2.266   0.186   2.839 -0.1845 -2.1018  1.0462
  466TIP3   OH2 1403   5.012   3.285   2.914 -0.1475 -0.5229  0.0389
  466TIP3    H1 1404   5.004   3.380   2.904 -1.6417 -0.6415 -0.1827
  466TIP3    H2 1405   5.097   3.264   2.876  0.3102  0.7395  0.2925
  467TIP3   OH2 1406   5.297   0.702   4.744  0.0808  0.9164  0.1339
  467TIP3    H1 1407   5.358   0.628   4.751 -0.4927  0.4288 -0.0021
  467TIP3    H2 1408   5.212   0.662   4.728 -0.1274  1.6333 -0.6355
  468TIP3   OH2 1409   0.915   1.370   3.087  0.1113  0.3670 -0.1338
  468TIP3    H1 1410   0.928   1.421   3.168 -1.3586 -1.0976  1.1110
  468TIP3    H2 1411   0.825   1.338   3.094  0.3375 -0.7479 -1.8282
  469TIP3   OH2 1412   4.498   2.509   3.595 -0.2099 -0.3044 -1.0552
  469TIP3    H1 1413   4.462   2.501   3.683 -0.5121 -1.0001 -1.2359
  469TIP3    H2 1414   4.456   2.589   3.560  1.5246  1.2055  0.1520
  470TIP3   OH2 1415   4.931   0.095   2.157  0.3187 -0.0736 -0.4613
  470TIP3    H1 1416   4.879   0.172   2.180  1.3979  0.6324 -0.2796
  470TIP3    H2 1417   4.890   0.061   2.078  0.5637  1.4740 -1.2996
  471TIP3   OH2 1418   4.015   1.800   2.031  0.5398 -0.1740 -0.2184
  471TIP3    H1 1419   4.020   1.819   1.938 -1.2801  2.4012  0.1031
  471TIP3    H2 1420   4.001   1.705   2.036  0.1199 -0.2884 -2.5806
  472TIP3   OH2 1421   3.848   5.696   4.229  0.0022  0.3107 -0.0806
  472TIP3    H1 1422   3.842   5.631   4.299  1.8875  0.6132  0.4218
  472TIP3    H2 1423   3.907   5.656   4.165 -2.2876 -0.3033 -1.9657
  473TIP3   OH2 1424   4.385   3.387   2.221  0.3090 -0.1110  0.1740
  473TIP3    H1 1425   4.325   3.426   2.283  0.6442 -0.6918  0.8772
  473TIP3    H2 1426   4.374   3.293   2.232 -0.0459 -0.2372 -1.0594
  474TIP3   OH2 1427   1.316   1.075   3.313 -0.2017 -0.1303 -0.1279
  474TIP3    H1 1428   1.402   1.117   3.310  0.7191 -1.7798  1.7298
  474TIP3    H2 1429   1.278   1.095   3.227  0.3567  3.9353  0.3454
  475TIP3   OH2 1430   5.716   1.735   1.421  0.0737  0.1130  0.1393
  475TIP3    H1 1431   5.644   1.797   1.418  0.3216  0.5298  1.7820
  475TIP3    H2 1432   5.755   1.748   1.508  0.2203 -2.2429  0.4902
  476TIP3   OH2 1433   2.977   2.542   0.534  0.3159 -0.2601 -0.0158
  476TIP3    H1 1434   3.048   2.479   0.520  0.9276 -0.1542  2.1533
  476TIP3    H2 1435   2.898   2.495   0.510  0.9344 -1.2178 -0.2246
  477TIP3   OH2 1436   3.380   4.177   4.018 -0.2241 -0.6087  0.3796
  477TIP3    H1 1437   3.396   4.143   4.106 -0.7121  0.0607  0.7306
  477TIP3    H2 1438   3.338   4.104   3.972  0.4311 -1.1134  0.5574
  478TIP3   OH2 1439   6.117   1.112   2.756 -0.1586  0.3096  0.4601
  478TIP3    H1 1440   6.116   1.038   2.695 -0.2131  0.4020  0.3471
  478TIP3    H2 1441   6.147   1.186   2.703  1.7569 -0.0150  1.0160
  479TIP3   OH2 1442   5.630   1.241   0.287  0.0639  0.0146  0.3486
  479TIP3    H1 1443   5.567   1.215   0.219 -0.2353  1.5699 -0.0186
  479TIP3    H2 1444   5.683   1.163   0.302 -0.0792 -0.4730 -1.4458
  480TIP3   OH2 1445   5.700   4.263   1.809  0.2622 -0.1620 -0.1441
  480TIP3    H1 1446   5.665   4.178   1.782  1.4617 -0.6348 -0.2671
  480TIP3    H2 1447   5.671   4.324   1.741  1.5770 -0.9651 -1.4705
  481TIP3   OH2 1448   3.908   4.684   4.206  0.1349 -0.4095 -0.6194
  481TIP3    H1 1449   3.870   4.608   4.251  0.5523  0.5123  1.4288
  481TIP3    H2 1450   3.915   4.751   4.275  1.7125  0.7830 -1.8691
  482TIP3   OH2 1451   2.809   1.162   2.455 -0.2284 -0.5048 -0.3431
  482TIP3    H1 1452   2.774   1.180   2.541 -0.2300 -0.3941 -0.3666
  482TIP3    H2 1453   2.810   1.067   2.449  1.7001 -0.5907  0.5875
  483TIP3   OH2 1454   2.111   0.885   1.773 -0.2194  0.5341  0.5341
  483TIP3    H1 1455   2.146   0.850   1.855 -1.3574 -0.8407  0.4772
  483TIP3    H2 1456   2.185   0.929   1.732  1.3658 -1.8069  0.6649
  484TIP3   OH2 1457   2.808   3.974   3.660  0.2015  0.0906 -0.3108
  484TIP3    H1 1458   2.736   4.036   3.652  0.5542  0.6141  0.4206
  484TIP3    H2 1459   2.866   3.996   3.587  0.4901  0.8665  0.1313
  485TIP3   OH2 1460   0.714   2.881   3.448  0.0200  0.2719 -0.0998
  485TIP3    H1 1461   0.661   2.960   3.455  0.9709  0.8482  0.9792
  485TIP3    H2 1462   0.722   2.865   3.354 -1.7762  0.3464 -0.2913
  486TIP3   OH2 1463   3.755   1.690   4.810  0.6578  0.1001 -0.4091
  486TIP3    H1 1464   3.747   1.778   4.848  0.0235 -1.2368  2.9373
  486TIP3    H2 1465   3.706   1.634   4.870  3.1522 -2.9343 -0.9540
  487TIP3   OH2 1466   4.629   1.802   1.774 -0.5377  0.1811 -0.2167
  487TIP3    H1 1467   4.674   1.749   1.839 -1.1654  1.7005  1.5607
  487TIP3    H2 1468   4.671   1.780   1.691  0.1847 -1.9549  0.6534
  488TIP3   OH2 1469   3.899   4.922   1.184  0.3708 -0.2822  0.2423
  488TIP3    H1 1470   3.918   5.013   1.204 -1.9399  0.6841 -1.5963
  488TIP3    H2 1471   3.935   4.909   1.096  0.9703 -1.2592  0.6176
  489TIP3   OH2 1472   2.274   4.603   1.354  0.4276  0.2662 -0.2692
  489TIP3    H1 1473   2.278   4.601   1.258 -0.7233  0.4388 -0.3328
  489TIP3    H2 1474   2.363   4.623   1.381  0.9248 -0.4567 -1.2815
  490TIP3   OH2 1475   2.813   0.379   0.316  0.4346 -0.3892 -0.2510
  490TIP3    H1 1476   2.878   0.372   0.247  0.1028  2.1576 -0.9151
  490TIP3    H2 1477   2.730   0.386   0.270  0.0449 -0.2552  0.4609
  491TIP3   OH2 1478   1.878   3.502   0.487  0.6494 -0.8957 -0.3491
  491TIP3    H1 1479   1.797   3.540   0.453 -0.2591 -1.1362  1.4367
  491TIP3    H2 1480   1.851   3.450   0.562  2.4377 -1.2029  0.1330
  492TIP3   OH2 1481   3.412   1.007   1.393  0.2434  0.1665 -0.3446
  492TIP3    H1 1482   3.443   1.063   1.464  0.7711 -0.7468  0.1528
  492TIP3    H2 1483   3.417   0.918   1.428 -2.7916 -0.0800 -0.2780
  493TIP3   OH2 1484   1.201   2.215   5.105 -0.4264 -0.5612  0.1192
  493TIP3    H1 1485   1.216   2.295   5.054  1.4307 -1.5846 -1.0850
  493TIP3    H2 1486   1.182   2.149   5.039  0.7576 -1.6662  0.8532
  494TIP3   OH2 1487   4.351   1.104   5.120  0.1966 -0.0426 -0.4288
  494TIP3    H1 1488   4.409   1.106   5.197  1.1864  0.0636 -1.1570
  494TIP3    H2 1489   4.272   1.059   5.151  1.8391 -3.0013 -0.1510
  495TIP3   OH2 1490   5.820   4.516   0.498  0.3992  0.1357 -0.0144
  495TIP3    H1 1491   5.837   4.610   0.499 -1.9279  0.6294 -1.5673
  495TIP3    H2 1492   5.796   4.496   0.589 -2.1441  1.7164 -0.2427
  496TIP3   OH2 1493   3.590   4.476   3.476  0.2653  0.0077  0.1108
  496TIP3    H1 1494   3.685   4.479   3.488  0.3908 -0.9853 -0.5574
  496TIP3    H2 1495   3.578   4.482   3.382 -0.3144 -0.3599  0.1604
  497TIP3   OH2 1496   4.304   0.039   0.547 -0.2952 -0.0277 -0.3059
  497TIP3    H1 1497   4.344   0.073   0.627 -0.9063 -0.3210  0.1328
  497TIP3    H2 1498   4.285  -0.052   0.566 -0.7895 -0.0022 -0.6475
  498TIP3   OH2 1499   1.499   3.639   4.201 -0.6572 -0.6089  0.0391
  498TIP3    H1 1500   1.575   3.581   4.209 -0.5506 -0.6563 -1.2453
  498TIP3    H2 1501   1.442   3.596   4.137 -0.7847  0.4865 -0.6076
  499TIP3   OH2 1502   6.202   1.513   2.294  0.1321  0.2082 -0.4516
  499TIP3    H1 1503   6.267   1.476   2.233  0.4939  0.4365 -0.2069
  499TIP3    H2 1504   6.127   1.454   2.288  0.2060  0.1658 -1.0410
  500TIP3   OH2 1505   1.986   2.158   3.530  0.7572  0.1022 -0.0806
  500TIP3    H1 1506   1.926   2.103   3.480  0.1351  0.2471  0.5021
  500TIP3    H2 1507   1.976   2.129   3.620  0.6738  0.9441  0.1889
  501TIP3   OH2 1508   0.637   5.609   3.608 -0.6075  0.1052  0.0735
  501TIP3    H1 1509   0.636   5.703   3.592  0.7176 -0.1106 -1.6562
  501TIP3    H2 1510   0.705   5.596   3.674  0.3480  0.2652 -0.8432
  502TIP3   OH2 1511   5.019   3.037   0.320  0.0660 -0.2247 -0.1731
  502TIP3    H1 1512   5.094   3.063   0.374  1.1946 -0.6294 -1.4661
  502TIP3    H2 1513   5.050   3.049   0.230 -1.1389 -1.2008 -0.7440
  503TIP3   OH2 1514   2.834   3.405   4.313  0.8981 -0.1581  0.2612
  503TIP3    H1 1515   2.760   3.362   4.356  1.2160 -0.3672  0.6031
  503TIP3    H2 1516   2.903   3.339   4.313 -0.1412 -1.5477 -3.8159
  504TIP3   OH2 1517   4.040   1.962   1.372 -0.5793  0.0479  0.0453
  504TIP3    H1 1518   4.086   1.905   1.434 -2.0091 -1.0366  0.1663
  504TIP3    H2 1519   4.089   1.953   1.290 -0.0770 -0.3889  0.3889
  505TIP3   OH2 1520   5.417   3.546   1.005  0.5212  0.2292 -0.3753
  505TIP3    H1 1521   5.494   3.494   0.983  0.6204  0.1012  0.2522
  505TIP3    H2 1522   5.344   3.498   0.965  0.7954  0.5089 -1.2174
  506TIP3   OH2 1523   3.629   1.341   4.744  0.5424  0.2420 -0.4688
  506TIP3    H1 1524   3.703   1.347   4.684  1.3589  0.0610  0.4924
  506TIP3    H2 1525   3.582   1.262   4.716  0.8263  0.2368 -0.9460
  507TIP3   OH2 1526   3.921   4.187   4.953 -0.3379 -0.0712  0.3420
  507TIP3    H1 1527   3.989   4.182   5.021  0.0091 -2.0191 -0.0874
  507TIP3    H2 1528   3.839   4.174   5.001 -0.2937  0.8052  0.6675
  508TIP3   OH2 1529   4.669   4.429   4.122 -0.0917 -0.0439 -0.1984
  508TIP3    H1 1530   4.734   4.497   4.141 -0.9309  0.1500  2.3129
  508TIP3    H2 1531   4.585   4.473   4.131 -0.6202 -1.0713  0.0286
  509TIP3   OH2 1532   5.296   5.295   3.905  0.1464  0.1864 -0.1135
  509TIP3    H1 1533   5.310   5.205   3.878  2.4138  0.3241  0.4382
  509TIP3    H2 1534   5.284   5.343   3.823  1.6229 -0.2147 -0.5836
  510TIP3   OH2 1535   1.945   2.327   4.484 -0.0057 -0.3163 -0.1074
  510TIP3    H1 1536   2.035   2.341   4.453  0.0803 -0.2538  0.1706
  510TIP3    H2 1537   1.900   2.288   4.409 -0.5196  2.2978 -1.2743
  511TIP3   OH2 1538   3.238   2.896   3.766 -0.0497 -0.0468 -0.3257
  511TIP3    H1 1539   3.216   2.860   3.852 -0.5185  0.5388 -0.1908
  511TIP3    H2 1540   3.157   2.888   3.716  0.5545 -1.5285 -1.1362
  512TIP3   OH2 1541   6.175   4.842   4.775 -0.3117  0.1597 -0.3352
  512TIP3    H1 1542   6.162   4.840   4.870 -0.5999  0.4983 -0.3635
  512TIP3    H2 1543   6.131   4.922   4.747 -0.5282 -0.1126 -0.7980
  513TIP3   OH2 1544   3.582   0.724   3.516 -0.4768 -0.0578  0.5642
  513TIP3    H1 1545   3.625   0.674   3.447 -0.9530  0.7929 -0.3794
  513TIP3    H2 1546   3.652   0.745   3.577 -0.3132 -2.0911  1.1478
  514TIP3   OH2 1547   4.050   0.060   2.663 -0.8342  0.0692 -0.6867
  514TIP3    H1 1548   4.115   0.113   2.710  0.2271 -2.2968  0.6736
  514TIP3    H2 1549   3.976   0.055   2.724 -0.3231 -1.2138 -0.1469
  515TIP3   OH2 1550   2.195   5.482   4.071  0.3656 -0.4892  0.2453
  515TIP3    H1 1551   2.230   5.571   4.079  1.6487 -0.7763 -1.4976
  515TIP3    H2 1552   2.234   5.434   4.143 -0.4905  0.3801  1.3197
  516TIP3   OH2 1553   4.644   0.662   1.879  0.2529  0.4732 -0.2807
  516TIP3    H1 1554   4.558   0.632   1.908  1.9026 -0.6525  4.2470
  516TIP3    H2 1555   4.640   0.757   1.886 -0.9988  0.5593 -1.6338
  517TIP3   OH2 1556   2.344   4.106   1.835  0.2198  0.4426 -0.4494
  517TIP3    H1 1557   2.276   4.169   1.860 -0.3870 -1.0701  2.0954
  517TIP3    H2 1558   2.390   4.087   1.917  0.8641 -1.8365 -1.2553
  518TIP3   OH2 1559   3.582   1.170   4.072  0.1744  0.1625 -0.4820
  518TIP3    H1 1560   3.589   1.263   4.093 -0.1546 -0.3074  2.0612
  518TIP3    H2 1561   3.496   1.145   4.106  0.8849 -1.3703  0.2745
  519TIP3   OH2 1562   6.135   5.330   1.946  0.3279  0.2672  0.3116
  519TIP3    H1 1563   6.106   5.402   1.891  2.4078  1.1560  0.2850
  519TIP3    H2 1564   6.098   5.252   1.905 -2.1863  1.2843  0.4904
  520TIP3   OH2 1565   2.669   2.750   1.122  0.4096 -0.3269  0.6156
  520TIP3    H1 1566   2.605   2.821   1.116  1.4663  0.5916 -0.3443
  520TIP3    H2 1567   2.737   2.774   1.058  0.7097 -2.3074  0.1399
  521TIP3   OH2 1568   1.395   2.854   2.745 -0.5953 -0.1240  0.4127
  521TIP3    H1 1569   1.351   2.783   2.699 -1.0725 -1.3178  2.5546
  521TIP3    H2 1570   1.338   2.873   2.820  1.0797  0.3064  1.6431
  522TIP3   OH2 1571   4.722   4.444   3.795 -0.5221  0.1127 -0.0539
  522TIP3    H1 1572   4.744   4.370   3.852 -0.9105 -0.8187 -1.0817
  522TIP3    H2 1573   4.649   4.487   3.840  0.4360  0.5732  1.1222
  523TIP3   OH2 1574   6.287   2.067   0.851  0.1117 -0.5257 -0.4094
  523TIP3    H1 1575   6.246   1.991   0.893 -0.9979  0.2007 -0.1604
  523TIP3    H2 1576   6.374   2.071   0.890 -0.4844 -0.5587  0.9904
  524TIP3   OH2 1577   2.866   3.656   3.147  0.2021  0.2476 -0.5675
  524TIP3    H1 1578   2.891   3.564   3.138 -0.6403 -0.1842  1.0625
  524TIP3    H2 1579   2.927   3.691   3.212 -2.1427 -0.3825  2.1709
  525TIP3   OH2 1580   3.373   0.345   0.238  0.4692 -0.1652 -0.0489
  525TIP3    H1 1581   3.290   0.387   0.264  1.1365  0.3020  1.4464
  525TIP3    H2 1582   3.383   0.273   0.300 -0.0574 -1.8697 -1.8382
  526TIP3   OH2 1583   5.535   5.499   4.320 -0.5633  0.7909 -0.1310
  526TIP3    H1 1584   5.612   5.552   4.342  0.4175 -0.8860  0.6044
  526TIP3    H2 1585   5.528   5.436   4.392 -1.6000 -0.1917 -1.0654
  527TIP3   OH2 1586   6.284   3.999   4.809  0.8380  0.3791 -0.7432
  527TIP3    H1 1587   6.286   4.029   4.900  0.2783 -0.0326 -0.5861
  527TIP3    H2 1588   6.191   3.986   4.791  1.0195 -0.7292 -0.9729
  528TIP3   OH2 1589   2.143   0.761   2.858 -0.1662 -0.2983 -0.0517
  528TIP3    H1 1590   2.100   0.701   2.798  1.4363 -0.7051 -0.8371
  528TIP3    H2 1591   2.079   0.774   2.929 -2.0815  0.1395 -1.7558
  529TIP3   OH2 1592   1.782   0.616   1.451  0.3498 -0.4693 -0.2986
  529TIP3    H1 1593   1.758   0.610   1.358 -0.4302  0.2654 -0.1581
  529TIP3    H2 1594   1.698   0.622   1.497  0.7485  1.9893  0.2201
  530TIP3   OH2 1595   3.670   0.376   3.459  0.1540  0.1385 -0.0121
  530TIP3    H1 1596   3.602   0.328   3.506 -0.1596  1.5414  1.0026
  530TIP3    H2 1597   3.650   0.361   3.367 -1.1095 -0.0505  0.2731
  531TIP3   OH2 1598   4.812   5.156   0.567  0.2156 -0.0668  0.4850
  531TIP3    H1 1599   4.771   5.118   0.489  0.9256 -0.0908  0.1152
  531TIP3    H2 1600   4.821   5.082   0.627 -0.8087  0.0544  0.8066
  532TIP3   OH2 1601   0.810   4.446   4.427 -0.4491 -0.2145 -0.0760
  532TIP3    H1 1602   0.848   4.472   4.511  1.9463 -1.1703 -0.7757
  532TIP3    H2 1603   0.779   4.529   4.389 -0.3292  0.4197  1.1372
  533TIP3   OH2 1604   4.200   2.840   2.619 -0.4681 -0.2949 -0.2858
  533TIP3    H1 1605   4.258   2.769   2.645 -0.8282 -0.3418  0.3822
  533TIP3    H2 1606   4.113   2.812   2.645 -0.7735 -0.1334 -1.1018
  534TIP3   OH2 1607   0.679   2.971   1.933 -0.1057 -0.3165 -0.4520
  534TIP3    H1 1608   0.668   2.989   2.026  0.6709 -0.3904 -0.3475
  534TIP3    H2 1609   0.771   2.950   1.922  0.1487  1.1455 -1.4764
  535TIP3   OH2 1610   5.365   5.616   2.004 -0.2209 -0.1390  0.8307
  535TIP3    H1 1611   5.293   5.578   2.054  0.5373 -1.6078  0.8627
  535TIP3    H2 1612   5.348   5.589   1.914  0.5597 -0.9419  0.9172
  536TIP3   OH2 1613   4.774   0.561   3.200  0.9371 -0.5532 -0.4816
  536TIP3    H1 1614   4.780   0.525   3.112  3.0147 -1.2934 -0.1041
  536TIP3    H2 1615   4.806   0.491   3.257 -1.4536 -0.5243  1.0249
  537TIP3   OH2 1616   2.091   0.994   4.440  0.1453 -0.8669 -0.2346
  537TIP3    H1 1617   2.089   1.009   4.345  1.5325 -0.7038 -0.2569
  537TIP3    H2 1618   2.004   0.959   4.460 -0.4690 -0.1243 -1.4273
  538TIP3   OH2 1619   1.431   4.439   1.368 -0.3573  0.1222  0.1619
  538TIP3    H1 1620   1.520   4.432   1.336 -0.6958 -1.1659 -0.5722
  538TIP3    H2 1621   1.376   4.416   1.293 -1.3144  0.9585  0.5785
  539TIP3   OH2 1622   5.103   0.460   3.746  0.0943 -0.6734 -0.4041
  539TIP3    H1 1623   5.173   0.410   3.787  0.9371  0.7200 -0.0466
  539TIP3    H2 1624   5.078   0.525   3.812  0.2561  0.4791 -1.4313
  540TIP3   OH2 1625   2.917   4.541   0.847  0.6066  0.6470  0.4854
  540TIP3    H1 1626   2.985   4.536   0.780 -0.7974 -1.3982 -0.9356
  540TIP3    H2 1627   2.955   4.499   0.924  1.4704  0.9133  0.2072
  541TIP3   OH2 1628   0.939   0.842   4.438  0.2010 -0.2860  0.2590
  541TIP3    H1 1629   0.993   0.917   4.412  0.6010 -1.0515 -1.1869
  541TIP3    H2 1630   0.868   0.882   4.489 -0.2323  1.2563 -1.4121
  542TIP3   OH2 1631   4.382   0.757   2.957 -0.8542 -0.0905 -0.2279
  542TIP3    H1 1632   4.354   0.685   3.014 -0.9911  0.5650  0.5501
  542TIP3    H2 1633   4.341   0.738   2.873 -2.5329  0.1039  0.4992
  543TIP3   OH2 1634   5.509   5.782   4.570 -0.3515  0.2491 -0.3453
  543TIP3    H1 1635   5.423   5.825   4.572 -0.5856 -0.0407 -2.0298
  543TIP3    H2 1636   5.557   5.830   4.502  0.8784  0.4886  0.6743
  544TIP3   OH2 1637   1.210   1.020   1.570 -0.1493 -0.5411  0.0916
  544TIP3    H1 1638   1.234   0.928   1.555 -1.4777 -1.1713  1.5524
  544TIP3    H2 1639   1.207   1.029   1.665  0.6585  1.2468 -0.0029
  545TIP3   OH2 1640   1.350   5.213   0.340  0.2962 -0.2896  0.1141
  545TIP3    H1 1641   1.292   5.165   0.400  0.8453 -2.1127 -0.7277
  545TIP3    H2 1642   1.437   5.176   0.357  0.5651 -0.3786 -1.3233
  546TIP3   OH2 1643   4.675   3.655   1.344 -0.0855  0.2484  0.3372
  546TIP3    H1 1644   4.768   3.643   1.363  0.5448  2.7279 -0.7351
  546TIP3    H2 1645   4.637   3.686   1.426 -0.4810 -2.5394  1.3445
  547TIP3   OH2 1646   3.326   1.983   1.875 -0.2784 -1.1003 -0.3681
  547TIP3    H1 1647   3.259   1.921   1.847 -3.3493  1.6285  0.2681
  547TIP3    H2 1648   3.343   2.036   1.797  0.3393 -1.1092 -0.2433
  548TIP3   OH2 1649   0.183   1.837   0.221 -0.5920 -0.1725  0.3998
  548TIP3    H1 1650   0.167   1.824   0.315 -1.2132 -1.5093  0.1379
  548TIP3    H2 1651   0.199   1.931   0.212 -1.3007  0.1011  1.7401
  549TIP3   OH2 1652   1.569   5.896   2.469 -0.6034  0.1800  0.6009
  549TIP3    H1 1653   1.535   5.928   2.385  1.3345 -1.8961 -1.1153
  549TIP3    H2 1654   1.565   5.972   2.527 -0.4399  2.1999 -1.8638
  550TIP3   OH2 1655   4.510   1.481   3.170  0.1311  0.3189 -0.0237
  550TIP3    H1 1656   4.442   1.418   3.196 -0.9084  1.1940 -0.5088
  550TIP3    H2 1657   4.587   1.456   3.221 -0.5403 -0.7363  0.5136
  551TIP3   OH2 1658   0.896   1.900   1.762  0.3158 -0.2098  0.1316
  551TIP3    H1 1659   0.928   1.934   1.678  1.5067  0.6534  0.8964
  551TIP3    H2 1660   0.880   1.807   1.746 -0.0386  0.0712 -1.2032
  552TIP3   OH2 1661   0.693   0.288   1.973  0.4787 -0.1893  0.2901
  552TIP3    H1 1662   0.760   0.245   1.920  0.3668 -1.5049  1.1693
  552TIP3    H2 1663   0.610   0.255   1.938  0.2794  1.0136 -0.4375
  553TIP3   OH2 1664   0.277   3.357   1.413 -0.5520  0.1591 -0.0259
  553TIP3    H1 1665   0.200   3.358   1.356 -0.2927 -0.3226 -0.3948
  553TIP3    H2 1666   0.348   3.389   1.357  0.1284 -2.1884 -0.6188
  554TIP3   OH2 1667   3.856   2.166   1.134 -0.5914  0.3034  0.3938
  554TIP3    H1 1668   3.789   2.101   1.112 -2.2392  1.5859  1.3611
  554TIP3    H2 1669   3.807   2.247   1.146  1.1508  1.2877  1.1849
  555TIP3   OH2 1670   2.044   0.571   2.666  0.3685 -0.3074  0.3059
  555TIP3    H1 1671   1.973   0.516   2.634 -0.5126  0.8705  0.1524
  555TIP3    H2 1672   2.071   0.530   2.748 -0.0782 -1.1107  0.0665
  556TIP3   OH2 1673   2.982   3.226   3.706 -0.0231 -0.2761  0.1738
  556TIP3    H1 1674   2.897   3.186   3.722  0.1196 -0.2481  1.0481
  556TIP3    H2 1675   2.963   3.319   3.693 -0.0380 -0.1126  1.3116
  557TIP3   OH2 1676   3.722   2.652   0.278  0.3113  0.9299 -0.0710
  557TIP3    H1 1677   3.707   2.691   0.192  0.0444 -0.0546 -0.4916
  557TIP3    H2 1678   3.743   2.560   0.258 -0.1839  0.5913  0.9372
  558TIP3   OH2 1679   0.989   4.750   2.185  0.0825  0.5139 -0.3807
  558TIP3    H1 1680   0.981   4.691   2.110 -1.1294 -0.3657  0.3922
  558TIP3    H2 1681   0.955   4.834   2.153 -2.4460 -0.3777 -0.3034
  559TIP3   OH2 1682   3.603   1.153   2.777 -0.0912  0.4487  0.7163
  559TIP3    H1 1683   3.651   1.226   2.817  0.8957  1.1540 -1.5702
  559TIP3    H2 1684   3.545   1.195   2.713  0.2975 -0.7224 -0.4455
  560TIP3   OH2 1685   5.266   5.251   0.477  0.2361  0.1731 -0.3025
  560TIP3    H1 1686   5.216   5.322   0.518  0.1334  0.5777 -1.1061
  560TIP3    H2 1687   5.201   5.204   0.424  0.6947  0.7018 -1.3525
  561TIP3   OH2 1688   6.152   0.722   1.848 -0.6286  0.3089 -0.0184
  561TIP3    H1 1689   6.126   0.631   1.863 -1.6759  0.5078 -0.5399
  561TIP3    H2 1690   6.239   0.716   1.808 -0.3395 -0.4224  0.6915
  562TIP3   OH2 1691   0.490   5.675   1.133  0.7923 -0.2169  0.2207
  562TIP3    H1 1692   0.411   5.622   1.131  0.2886  0.5264  0.0252
  562TIP3    H2 1693   0.491   5.721   1.049 -0.4633  2.4625  1.5475
  563TIP3   OH2 1694   5.176   4.434   5.140  0.0223 -0.0858 -0.3276
  563TIP3    H1 1695   5.204   4.349   5.175  2.4753  1.2199  1.1271
  563TIP3    H2 1696   5.229   4.447   5.062 -1.0756 -0.2778 -1.1397
  564TIP3   OH2 1697   1.146   4.188   4.288 -0.4824 -0.5131 -0.1117
  564TIP3    H1 1698   1.079   4.225   4.231 -0.5464 -0.0522  0.2525
  564TIP3    H2 1699   1.190   4.122   4.235  1.0059  1.4889 -1.5088
  565TIP3   OH2 1700   5.901   0.090   3.838 -0.0992  0.4591  0.0204
  565TIP3    H1 1701   5.820   0.134   3.865 -0.0380  0.5541  0.0499
  565TIP3    H2 1702   5.970   0.154   3.855 -0.2579  1.3658 -2.2703
  566TIP3   OH2 1703   2.410   0.211   4.302  0.2955  0.7290  0.2881
  566TIP3    H1 1704   2.428   0.118   4.320 -1.8260  0.3549  0.6913
  566TIP3    H2 1705   2.472   0.234   4.232  1.0654 -0.9073  0.3906
  567TIP3   OH2 1706   0.175   0.535   2.137  0.1560 -0.5396  0.2529
  567TIP3    H1 1707   0.255   0.504   2.094  0.3322  0.1953  0.0371
  567TIP3    H2 1708   0.105   0.485   2.096  0.4959 -1.1861  0.4383
  568TIP3   OH2 1709   5.839   4.637   3.493 -0.0898 -0.0627 -0.8033
  568TIP3    H1 1710   5.805   4.562   3.444 -0.8183  0.1910 -0.6924
  568TIP3    H2 1711   5.934   4.626   3.490 -0.0915  0.1341 -2.5740
  569TIP3   OH2 1712   2.747   4.480   3.202 -0.3788 -0.5392  0.0015
  569TIP3    H1 1713   2.739   4.531   3.283 -0.2834 -0.7902  0.1709
  569TIP3    H2 1714   2.686   4.407   3.214  1.7296 -2.2256  1.1110
  570TIP3   OH2 1715   2.150   4.743   1.547  0.1729 -0.0353  0.3850
  570TIP3    H1 1716   2.149   4.680   1.475  1.8827  0.9215 -0.5446
  570TIP3    H2 1717   2.226   4.719   1.599  2.9696  3.0880 -1.8523
  571TIP3   OH2 1718   4.670   0.956   1.874  0.0253 -0.0529  0.4566
  571TIP3    H1 1719   4.697   1.013   1.802  1.3629  1.4113  2.0015
  571TIP3    H2 1720   4.601   1.005   1.919 -0.7012 -0.8835  0.2575
  572TIP3   OH2 1721   2.604   1.491   0.877  0.3849 -0.5380  0.0607
  572TIP3    H1 1722   2.612   1.557   0.945  1.0974  0.4843 -0.9864
  572TIP3    H2 1723   2.509   1.480   0.865  0.2623 -0.3384  0.8353
  573TIP3   OH2 1724   6.175   5.484   2.744 -0.5337 -0.5286 -0.6688
  573TIP3    H1 1725   6.144   5.461   2.656  0.7372 -2.4096 -0.6786
  573TIP3    H2 1726   6.265   5.514   2.731 -0.6269  0.0418 -0.0819
  574TIP3   OH2 1727   5.510   5.737   1.616 -0.0794 -0.2442  0.3941
  574TIP3    H1 1728   5.573   5.749   1.545  1.0159 -1.5167  1.0964
  574TIP3    H2 1729   5.425   5.729   1.573  0.5000 -0.5297 -0.7349
  575TIP3   OH2 1730   1.224   1.662   3.580  0.3711 -0.6894  0.5492
  575TIP3    H1 1731   1.241   1.616   3.498  1.6074 -1.2514  1.1057
  575TIP3    H2 1732   1.133   1.639   3.601 -0.2188  0.0596 -1.0147
  576TIP3   OH2 1733   1.405   1.053   4.953  0.0973 -0.0446  0.0885
  576TIP3    H1 1734   1.452   1.105   5.018  0.0468  0.6125 -0.3900
  576TIP3    H2 1735   1.354   1.117   4.903  1.4660 -0.2905 -1.7402
  577TIP3   OH2 1736   6.186   0.980   4.706 -0.2446  0.1284  0.2539
  577TIP3    H1 1737   6.230   1.015   4.784 -0.8723 -0.4902  0.9042
  577TIP3    H2 1738   6.209   1.041   4.636  0.0584  0.8857  0.9938
  578TIP3   OH2 1739   5.111   2.513   2.184  0.2124 -0.4006 -0.2687
  578TIP3    H1 1740   5.147   2.600   2.174  1.2020 -0.8033 -0.2870
  578TIP3    H2 1741   5.073   2.493   2.098 -0.1215  0.0443 -0.2297
  579TIP3   OH2 1742   2.254   2.800   4.753 -0.0684 -0.3119 -0.2429
  579TIP3    H1 1743   2.239   2.877   4.808 -0.4618 -0.2216 -0.4712
  579TIP3    H2 1744   2.174   2.748   4.763  0.6253 -1.2315  0.7730
  580TIP3   OH2 1745   5.111   2.731   1.283  0.1976 -0.2435  0.2181
  580TIP3    H1 1746   5.132   2.639   1.297  1.1026 -0.0880 -0.0637
  580TIP3    H2 1747   5.025   2.742   1.324 -1.1585 -1.8017 -1.9736
  581TIP3   OH2 1748   4.148   0.730   4.343  0.1989 -0.3457 -0.5202
  581TIP3    H1 1749   4.191   0.696   4.421  0.5900  1.3831  0.0664
  581TIP3    H2 1750   4.077   0.669   4.325 -1.3900  0.4277  2.5805
  582TIP3   OH2 1751   3.374   0.619   3.050 -0.3307  0.4012 -0.0693
  582TIP3    H1 1752   3.372   0.705   3.092  0.3055  0.5564 -0.3479
  582TIP3    H2 1753   3.312   0.626   2.978 -1.7497  0.0010  1.0721
  583TIP3   OH2 1754   4.716   2.589   0.871 -0.5649  0.3938 -0.0488
  583TIP3    H1 1755   4.675   2.675   0.886 -0.5972  0.7304 -1.8944
  583TIP3    H2 1756   4.677   2.557   0.790 -0.1713 -1.1576  0.3394
  584TIP3   OH2 1757   0.392   5.656   3.828 -0.5651  0.2852  0.4594
  584TIP3    H1 1758   0.342   5.718   3.882 -0.6309  0.5594  0.0868
  584TIP3    H2 1759   0.344   5.652   3.745  1.4147  2.5974 -0.9393
  585TIP3   OH2 1760   4.706  -0.007   0.686  0.2288 -0.0242 -0.2123
  585TIP3    H1 1761   4.800  -0.012   0.702  0.1049 -1.4431  0.2091
  585TIP3    H2 1762   4.679   0.075   0.728  1.2287  0.2513 -0.0870
  586TIP3   OH2 1763   3.747   0.983   1.350 -0.5064  0.3099  0.0234
  586TIP3    H1 1764   3.687   0.917   1.315  0.5032 -0.9646  0.6412
  586TIP3    H2 1765   3.693   1.062   1.358 -1.5273 -0.1911 -1.4944
  587TIP3   OH2 1766   5.021   0.190   3.684  0.3249 -0.2065 -0.3528
  587TIP3    H1 1767   5.059   0.278   3.691  0.6561 -0.3924  0.2920
  587TIP3    H2 1768   5.046   0.160   3.597 -0.8703  0.8251 -1.0809
  588TIP3   OH2 1769   1.563   3.095   2.152  0.8079  0.5350  0.0098
  588TIP3    H1 1770   1.533   3.077   2.242 -1.6814  0.2567 -0.7999
  588TIP3    H2 1771   1.569   3.191   2.148 -0.6266  0.6534  0.0619
  589TIP3   OH2 1772   2.327   3.345   1.931  0.2865 -0.2153 -0.2414
  589TIP3    H1 1773   2.287   3.260   1.912  0.9572 -0.4415 -0.6565
  589TIP3    H2 1774   2.297   3.366   2.019  0.6422 -1.1920  0.1309
  590TIP3   OH2 1775   0.386   0.167   2.942 -0.5184 -0.6350 -0.1946
  590TIP3    H1 1776   0.295   0.179   2.913 -0.0662  1.2792 -0.9779
  590TIP3    H2 1777   0.436   0.165   2.861  0.4179  1.3279  0.2682
  591TIP3   OH2 1778   4.572   1.077   2.807 -0.8062  0.2781 -0.3501
  591TIP3    H1 1779   4.592   1.135   2.881 -0.8127 -1.0809  0.7670
  591TIP3    H2 1780   4.612   1.120   2.732  1.5983  0.3939  0.8764
  592TIP3   OH2 1781   4.446   0.172   1.716  1.1570  0.4504  0.0195
  592TIP3    H1 1782   4.408   0.125   1.642 -1.6035 -0.3573  1.7677
  592TIP3    H2 1783   4.427   0.264   1.698  0.1805  0.2308 -0.1649
  593TIP3   OH2 1784   3.151   5.095   4.448  0.2714 -0.8768 -0.4097
  593TIP3    H1 1785   3.229   5.087   4.393 -0.2747  2.0795 -1.7454
  593TIP3    H2 1786   3.135   5.189   4.455 -2.7407 -1.3577  0.4967
  594TIP3   OH2 1787   2.995   5.476   0.257  0.0937 -0.4088 -0.8188
  594TIP3    H1 1788   2.970   5.568   0.269  0.5447 -0.4369  0.3740
  594TIP3    H2 1789   2.911   5.430   0.250 -0.1953 -0.1951  0.8760
  595TIP3   OH2 1790   2.297   1.108   1.618  0.2266  0.0226 -0.1334
  595TIP3    H1 1791   2.374   1.105   1.562 -0.1920 -0.3953 -0.6967
  595TIP3    H2 1792   2.223   1.106   1.558 -0.2623 -1.9315  0.4414
  596TIP3   OH2 1793   5.733   3.719   2.759 -0.4660  0.4972 -0.7161
  596TIP3    H1 1794   5.828   3.721   2.743 -0.6952  0.4238 -2.2501
  596TIP3    H2 1795   5.695   3.712   2.672 -1.8718 -0.3341 -0.0617
  597TIP3   OH2 1796   0.984   3.008   2.528  0.3833 -0.4183 -0.4235
  597TIP3    H1 1797   0.989   2.982   2.620 -1.2023 -0.8401 -0.4222
  597TIP3    H2 1798   1.027   2.937   2.480  0.2610 -0.7286 -0.0740
  598TIP3   OH2 1799   2.061   4.877   0.762 -0.0767  0.2208 -0.0611
  598TIP3    H1 1800   2.048   4.880   0.857  0.4977  1.7709  0.0051
  598TIP3    H2 1801   2.150   4.911   0.749 -0.1713  0.0900 -1.1535
  599TIP3   OH2 1802   4.124   5.121   1.485  0.2417 -0.3081 -0.0774
  599TIP3    H1 1803   4.200   5.063   1.494  0.6901  0.1768 -0.6285
  599TIP3    H2 1804   4.122   5.171   1.566 -0.0878 -1.0208  0.3578
  600TIP3   OH2 1805   1.808   0.194   4.231 -0.1099  0.4801 -0.4539
  600TIP3    H1 1806   1.837   0.271   4.280  1.5961 -0.1394 -0.4134
  600TIP3    H2 1807   1.771   0.136   4.298 -0.8072  0.9781 -0.3932
  601TIP3   OH2 1808   4.350   0.938   4.120  0.0676 -0.7366 -0.0297
  601TIP3    H1 1809   4.389   1.012   4.165  0.4067 -0.7025 -0.3736
  601TIP3    H2 1810   4.259   0.964   4.104 -0.2018 -0.9582  1.0867
  602TIP3   OH2 1811   0.550   5.637   4.896  0.2143 -0.0769 -0.1255
  602TIP3    H1 1812   0.458   5.663   4.883  0.2231  0.0222  0.0030
  602TIP3    H2 1813   0.548   5.542   4.896  0.0645 -0.0761  0.1951
  603TIP3   OH2 1814   4.793   0.577   1.200 -0.4478 -0.1700  0.3968
  603TIP3    H1 1815   4.866   0.569   1.137  0.8481 -3.5198  2.0713
  603TIP3    H2 1816   4.715   0.560   1.148  0.0300  1.9376 -1.1464
  604TIP3   OH2 1817   3.564   2.186   4.988  0.9316  0.5930 -0.1183
  604TIP3    H1 1818   3.644   2.238   4.997  1.0694  0.3203  0.2516
  604TIP3    H2 1819   3.526   2.186   5.075  1.2068 -0.3615  0.0159
  605TIP3   OH2 1820   1.125   5.150   0.517  0.8396 -0.1466 -0.3560
  605TIP3    H1 1821   1.117   5.055   0.509 -0.8939 -0.0025 -0.7821
  605TIP3    H2 1822   1.130   5.166   0.611  0.0580 -0.6083 -0.2270
  606TIP3   OH2 1823   0.972   0.952   0.592 -0.0548  0.2618  0.0080
  606TIP3    H1 1824   1.022   1.024   0.630 -0.7060  1.0754 -0.6213
  606TIP3    H2 1825   0.999   0.875   0.641  1.6602  0.7020 -0.2030
  607TIP3   OH2 1826   4.698   0.197   2.921  1.0913  0.0443 -0.0261
  607TIP3    H1 1827   4.693   0.151   2.837 -1.0245 -0.2067  0.1803
  607TIP3    H2 1828   4.731   0.130   2.982  1.4708 -0.1289 -0.4133
  608TIP3   OH2 1829   4.032   1.677   2.393  0.5666 -0.0562  0.1503
  608TIP3    H1 1830   4.074   1.735   2.330  2.7672  1.2161  2.6197
  608TIP3    H2 1831   3.939   1.701   2.390  1.2322  2.8834  0.2765
  609TIP3   OH2 1832   5.460   3.513   2.682 -0.0287 -0.2772 -0.2713
  609TIP3    H1 1833   5.524   3.503   2.612 -0.2465 -0.4293 -0.4471
  609TIP3    H2 1834   5.427   3.602   2.672  0.1803 -0.1827 -0.1545
  610TIP3   OH2 1835   6.170   3.301   2.056  0.2021 -0.5023 -0.3810
  610TIP3    H1 1836   6.184   3.210   2.030 -0.4906 -1.2243  1.5881
  610TIP3    H2 1837   6.076   3.315   2.045  0.5687  0.7041 -2.6678
  611TIP3   OH2 1838   2.471   2.230   4.688  0.4984 -0.2087  0.2892
  611TIP3    H1 1839   2.531   2.225   4.614 -0.3989  0.0779 -0.4806
  611TIP3    H2 1840   2.406   2.162   4.671 -0.1633  0.3805  0.3852
  612TIP3   OH2 1841   2.479   4.647   2.703  0.0622 -0.3012  0.0172
  612TIP3    H1 1842   2.445   4.706   2.635  2.0284 -0.3915 -1.1368
  612TIP3    H2 1843   2.434   4.564   2.688 -0.2797 -0.0284 -0.5009
  613TIP3   OH2 1844   2.978   2.842   3.728 -0.3387 -0.0942 -0.0414
  613TIP3    H1 1845   2.962   2.760   3.775 -0.8969 -0.0016 -0.0675
  613TIP3    H2 1846   2.949   2.823   3.638 -0.7437  0.2220  0.0201
  614TIP3   OH2 1847   2.019   2.547   4.152  0.1127  0.0253  0.2717
  614TIP3    H1 1848   1.967   2.596   4.215  0.1771 -0.6042  0.8321
  614TIP3    H2 1849   2.072   2.487   4.206 -0.4756 -1.1576 -0.4096
  615TIP3   OH2 1850   1.109   0.427   5.022 -0.1222 -0.4512  0.0587
  615TIP3    H1 1851   1.022   0.440   5.060 -1.0473 -2.6055 -1.1170
  615TIP3    H2 1852   1.092   0.393   4.934  1.9241 -0.1717 -0.5007
  616TIP3   OH2 1853   3.755   1.070   4.956  0.0737 -0.0515 -0.0537
  616TIP3    H1 1854   3.756   1.083   4.862 -2.6497 -1.6298 -0.3986
  616TIP3    H2 1855   3.803   0.989   4.971  1.2582  0.6527  0.0459
  617TIP3   OH2 1856   1.070   3.460   0.576 -0.6211 -0.0429  0.5248
  617TIP3    H1 1857   1.132   3.453   0.649 -0.0928  1.1391  0.2176
  617TIP3    H2 1858   1.125   3.453   0.498 -0.8926  0.7329  0.2527
  618TIP3   OH2 1859   4.988   4.356   1.179 -0.6526 -0.2922 -0.7636
  618TIP3    H1 1860   5.044   4.394   1.112 -0.8503 -0.0632 -0.8057
  618TIP3    H2 1861   4.902   4.349   1.136 -0.9621  0.5446 -0.3199
  619TIP3   OH2 1862   5.770   5.234   1.312 -0.7447 -0.5299  0.0275
  619TIP3    H1 1863   5.778   5.327   1.289 -2.1929 -0.2218  0.6481
  619TIP3    H2 1864   5.718   5.233   1.392 -0.7919 -1.8818  0.0098
  620TIP3   OH2 1865   0.119   2.396   1.284  0.3161  0.0628 -0.4645
  620TIP3    H1 1866   0.102   2.318   1.232  1.1604  0.9482 -2.1341
  620TIP3    H2 1867   0.100   2.369   1.374 -1.2211 -1.5103 -1.1986
  621TIP3   OH2 1868   0.557   0.958   3.656 -0.4825  0.2595  0.1979
  621TIP3    H1 1869   0.602   0.959   3.572 -0.5934 -0.8848  0.1093
  621TIP3    H2 1870   0.504   1.038   3.656  1.8079  1.8682  0.4851
  622TIP3   OH2 1871   1.184   0.595   1.161 -0.3965  0.3327 -0.1249
  622TIP3    H1 1872   1.232   0.655   1.104  0.0302  0.7322  0.6333
  622TIP3    H2 1873   1.126   0.547   1.102  1.1981 -0.4257 -1.1421
  623TIP3   OH2 1874   2.898   2.389   4.261  0.2509 -0.6612  0.3087
  623TIP3    H1 1875   2.826   2.447   4.239  0.0737 -1.5006 -1.5402
  623TIP3    H2 1876   2.977   2.438   4.240  0.1054 -0.9839 -1.0658
  624TIP3   OH2 1877   6.332   5.448   0.924  0.0742  0.5485 -0.0327
  624TIP3    H1 1878   6.355   5.355   0.931  1.2058  0.7885 -0.3622
  624TIP3    H2 1879   6.313   5.475   1.014 -0.3870 -0.0233  0.0511
  625TIP3   OH2 1880   5.628   4.666   1.469 -0.9487  0.2559 -0.6986
  625TIP3    H1 1881   5.573   4.686   1.393  1.2889  1.2725 -2.1315
  625TIP3    H2 1882   5.683   4.743   1.480  0.9215 -1.1062  0.0083
  626TIP3   OH2 1883   1.838   4.746   1.246 -0.2674  0.4483  0.2568
  626TIP3    H1 1884   1.855   4.829   1.291 -0.3355  0.6320 -0.0488
  626TIP3    H2 1885   1.743   4.745   1.233 -0.5216 -0.5449  1.9089
  627TIP3   OH2 1886   6.241   4.140   1.331 -0.5482  0.1809 -0.0943
  627TIP3    H1 1887   6.288   4.137   1.414 -1.3594 -3.3144  0.3979
  627TIP3    H2 1888   6.229   4.234   1.314 -0.2941  1.0748  3.6781
  628TIP3   OH2 1889   5.708   4.532   3.095  0.5371 -0.3402  0.2381
  628TIP3    H1 1890   5.734   4.440   3.095 -0.7318 -0.7380 -1.2515
  628TIP3    H2 1891   5.777   4.576   3.045  0.6798 -0.6141  0.1928
  629TIP3   OH2 1892   0.196   4.804   3.783 -0.6498 -0.0478  0.0414
  629TIP3    H1 1893   0.249   4.865   3.834 -0.5616  1.1015 -1.3631
  629TIP3    H2 1894   0.258   4.767   3.719 -1.0980 -0.2141 -0.3003
  630TIP3   OH2 1895   4.028   4.781   2.251 -0.0844  0.1485 -0.3204
  630TIP3    H1 1896   4.022   4.689   2.275  0.6552  0.6649  2.1053
  630TIP3    H2 1897   4.095   4.784   2.183 -0.1947 -1.1009 -0.5058
  631TIP3   OH2 1898   3.802   0.285   0.144  0.3763  0.2434  0.0172
  631TIP3    H1 1899   3.825   0.329   0.063 -1.8779 -0.1425 -0.9018
  631TIP3    H2 1900   3.874   0.224   0.160 -0.1674 -1.3317 -2.9639
  632TIP3   OH2 1901   5.406   4.954   3.524 -0.0941 -0.3417  0.5990
  632TIP3    H1 1902   5.435   5.026   3.468 -1.2347 -0.8196 -0.6519
  632TIP3    H2 1903   5.364   4.997   3.598  0.8236  0.2916  0.7727
  633TIP3   OH2 1904   3.571   3.068   1.970  0.6939 -0.3121 -0.3772
  633TIP3    H1 1905   3.660   3.057   2.003 -0.2826 -0.2573  2.5503
  633TIP3    H2 1906   3.562   3.162   1.958  0.8442 -0.2548 -0.0594
  634TIP3   OH2 1907   0.119   4.988   1.482 -0.0849  0.3927  0.3210
  634TIP3    H1 1908   0.175   5.057   1.518  0.0768  0.2873  0.2682
  634TIP3    H2 1909   0.145   4.909   1.529  1.2754 -0.0968 -1.1648
  635TIP3   OH2 1910   2.468   0.305   0.793 -0.5244  0.1977  0.5167
  635TIP3    H1 1911   2.460   0.242   0.721 -1.0824 -0.4010  1.0770
  635TIP3    H2 1912   2.543   0.274   0.843 -2.6078 -1.9646  2.5627
  636TIP3   OH2 1913   4.236   5.658   2.928 -0.1374 -0.1498  0.1326
  636TIP3    H1 1914   4.252   5.731   2.869  0.7272  0.6772  1.3412
  636TIP3    H2 1915   4.174   5.693   2.993 -0.2744 -0.7088  0.3083
  637TIP3   OH2 1916   0.917   5.608   4.152 -0.1810  0.2673 -0.0628
  637TIP3    H1 1917   0.946   5.517   4.162  0.1654  0.4693  0.9089
  637TIP3    H2 1918   0.846   5.618   4.215  0.2402  0.8464  0.3357
  638TIP3   OH2 1919   0.698   0.950   0.995 -0.1285 -0.8997  0.3731
  638TIP3    H1 1920   0.654   0.973   1.077 -0.2582 -1.9771  0.6108
  638TIP3    H2 1921   0.768   0.891   1.021 -0.2736 -1.3816 -0.3137
  639TIP3   OH2 1922   6.091   0.645   0.141 -0.2615  0.4108  0.1671
  639TIP3    H1 1923   6.139   0.570   0.174 -0.8882 -0.1062 -0.0883
  639TIP3    H2 1924   6.033   0.610   0.073 -0.2184  1.1915 -0.2920
  640TIP3   OH2 1925   2.218   1.563   1.555 -0.8052 -0.2162 -0.3554
  640TIP3    H1 1926   2.166   1.606   1.487 -0.7332  0.2169 -0.1411
  640TIP3    H2 1927   2.152   1.527   1.615 -0.8648 -0.1222 -0.3633
  641TIP3   OH2 1928   5.908   3.160   1.562  0.0802 -0.4740 -0.5343
  641TIP3    H1 1929   5.948   3.213   1.493  1.3252  0.4025  0.8023
  641TIP3    H2 1930   5.949   3.191   1.643 -2.3031 -0.5323  0.7758
  642TIP3   OH2 1931   4.961   5.857   5.017 -0.1024  0.1032 -0.2295
  642TIP3    H1 1932   5.024   5.923   4.987 -0.3349 -0.1906 -1.3922
  642TIP3    H2 1933   5.012   5.776   5.018 -0.6897 -0.3300 -2.1615
  643TIP3   OH2 1934   2.620   3.562   0.064  0.9531  0.2857  0.2135
  643TIP3    H1 1935   2.674   3.634   0.094 -0.5261  0.5991  2.3385
  643TIP3    H2 1936   2.657   3.484   0.106  1.1501  0.1269 -0.2372
  644TIP3   OH2 1937   5.498   4.679   0.292  0.5332 -0.4468 -0.0065
  644TIP3    H1 1938   5.403   4.686   0.299  0.6297 -0.0504  1.2242
  644TIP3    H2 1939   5.522   4.746   0.228  0.2534  1.8783  2.1865
  645TIP3   OH2 1940   5.995   5.493   1.763  0.8049  0.1903 -0.1208
  645TIP3    H1 1941   5.959   5.476   1.676  1.2200 -0.8399 -0.1060
  645TIP3    H2 1942   5.940   5.563   1.798  0.3473  0.3037 -1.0340
  646TIP3   OH2 1943   1.742   5.759   4.762 -0.5810 -0.1759  0.5423
  646TIP3    H1 1944   1.653   5.792   4.757 -0.6009 -0.1894  0.8013
  646TIP3    H2 1945   1.771   5.755   4.671 -1.3169 -1.4657  0.3498
  647TIP3   OH2 1946   3.299   4.123   1.906  1.0282  0.3048  0.8570
  647TIP3    H1 1947   3.335   4.199   1.861  0.9331  0.2684  0.7189
  647TIP3    H2 1948   3.219   4.154   1.947  0.8273  0.2045  0.5426
  648TIP3   OH2 1949   2.893   2.601   1.643  0.3129 -0.4129  0.7417
  648TIP3    H1 1950   2.908   2.693   1.663  1.2991 -0.2265 -0.6591
  648TIP3    H2 1951   2.853   2.602   1.556  0.3809 -1.3144  0.6909
  649TIP3   OH2 1952   3.417   3.793   1.190  0.4201  0.1747 -0.3732
  649TIP3    H1 1953   3.396   3.879   1.152  1.3502  0.9661  0.8159
  649TIP3    H2 1954   3.337   3.767   1.236  0.1613  0.4470 -0.6662
  650TIP3   OH2 1955   2.429   3.705   4.349  0.5079 -0.2647 -0.8215
  650TIP3    H1 1956   2.348   3.659   4.369  0.3369  0.8113  1.2641
  650TIP3    H2 1957   2.496   3.659   4.399  0.7661  0.2458 -0.6907
  651TIP3   OH2 1958   0.896   1.944   3.571 -0.0709  0.1405 -0.0285
  651TIP3    H1 1959   0.951   2.000   3.626 -0.6851  1.5823 -0.8318
  651TIP3    H2 1960   0.834   1.904   3.631 -0.4490  1.3437  0.4025
  652TIP3   OH2 1961   1.398   4.676   4.752 -1.0271 -0.3797  0.7805
  652TIP3    H1 1962   1.333   4.619   4.712 -0.7937  0.5613 -1.0345
  652TIP3    H2 1963   1.349   4.750   4.787 -1.1999 -1.0632  2.0441
  653TIP3   OH2 1964   1.475   1.378   0.833 -0.1329 -0.8738  0.1604
  653TIP3    H1 1965   1.409   1.423   0.781  1.5506 -1.7550 -2.9545
  653TIP3    H2 1966   1.459   1.285   0.817  1.4890 -1.1085 -0.2091
  654TIP3   OH2 1967   4.929   1.501   0.609  0.1407 -0.7749  0.0024
  654TIP3    H1 1968   4.899   1.480   0.520  0.1826  1.7988 -0.6925
  654TIP3    H2 1969   5.017   1.538   0.596  0.3988 -0.9540  1.1950
  655TIP3   OH2 1970   2.786   5.368   2.579  0.1363  0.1669 -0.1811
  655TIP3    H1 1971   2.845   5.438   2.608  0.4787  0.4208 -1.4222
  655TIP3    H2 1972   2.713   5.414   2.539 -0.7847 -0.1554  1.0875
  656TIP3   OH2 1973   1.714   4.120   3.234  0.5154 -0.0892 -0.3325
  656TIP3    H1 1974   1.708   4.048   3.298  0.5166  0.4782  0.3231
  656TIP3    H2 1975   1.806   4.118   3.206  0.5677 -0.2202 -0.1616
  657TIP3   OH2 1976   0.233   5.655   2.898  0.2742 -0.3195  0.4578
  657TIP3    H1 1977   0.321   5.619   2.903 -0.3960 -2.0273  0.7285
  657TIP3    H2 1978   0.197   5.619   2.817 -0.1885  0.3541  0.3542
  658TIP3   OH2 1979   3.187   2.072   2.102 -0.3833  0.3730  0.2135
  658TIP3    H1 1980   3.157   2.158   2.071 -0.1846  0.7768  1.1081
  658TIP3    H2 1981   3.236   2.036   2.028 -0.6062  0.9616 -0.2281
  659TIP3   OH2 1982   2.144   5.579   2.408  0.0914  0.3914 -0.1203
  659TIP3    H1 1983   2.176   5.520   2.476 -0.4013  0.1829 -0.0693
  659TIP3    H2 1984   2.053   5.555   2.396 -0.3690  1.7130  0.5212
  660TIP3   OH2 1985   2.489   2.110   2.646 -0.0699 -0.2853 -0.4033
  660TIP3    H1 1986   2.445   2.183   2.690 -0.3386 -0.7779  0.1416
  660TIP3    H2 1987   2.567   2.093   2.699 -0.2348 -0.6802 -0.2885
  661TIP3   OH2 1988   1.299   5.648   3.629  0.1707  0.8257 -0.1535
  661TIP3    H1 1989   1.315   5.596   3.708 -1.0457  0.9602  0.2036
  661TIP3    H2 1990   1.211   5.684   3.642  0.3017  1.5475 -1.1892
  662TIP3   OH2 1991   4.762   4.886   1.353 -0.1960  0.2368 -0.3983
  662TIP3    H1 1992   4.725   4.801   1.378  0.5322 -0.0983 -0.4212
  662TIP3    H2 1993   4.715   4.910   1.273 -0.1552 -0.3183 -0.5936
  663TIP3   OH2 1994   3.349   4.300   3.151  0.1282 -0.5865 -0.0645
  663TIP3    H1 1995   3.328   4.393   3.162  3.1592  0.3987 -1.3617
  663TIP3    H2 1996   3.317   4.279   3.063  0.2778 -0.4983 -0.1402
  664TIP3   OH2 1997   3.468   5.406   0.180 -0.0271 -0.2204 -0.1226
  664TIP3    H1 1998   3.495   5.446   0.097  1.3016  1.5211  1.0702
  664TIP3    H2 1999   3.439   5.318   0.156  2.3505 -0.5626 -2.1747
  665TIP3   OH2 2000   1.350   0.284   1.675  0.1005  0.4427  0.2203
  665TIP3    H1 2001   1.309   0.200   1.697 -0.7360  0.9552  0.6306
  665TIP3    H2 2002   1.383   0.318   1.758  0.5273  0.4848  0.0387
  666TIP3   OH2 2003   3.702   0.152   1.310  0.4795  0.1751  0.0714
  666TIP3    H1 2004   3.662   0.089   1.371  0.9521 -0.1526  0.0492
  666TIP3    H2 2005   3.689   0.112   1.224 -0.7736  0.9505 -0.1241
  667TIP3   OH2 2006   0.481   2.738   1.161 -0.0969 -0.5261  0.3149
  667TIP3    H1 2007   0.441   2.727   1.248 -2.0409 -1.3899 -0.6351
  667TIP3    H2 2008   0.574   2.718   1.176 -0.3170 -0.3702  2.2453
  668TIP3   OH2 2009   4.029   4.794   0.300 -0.6188  0.5003  0.2461
  668TIP3    H1 2010   4.045   4.862   0.366  1.0273 -2.5311  3.3330
  668TIP3    H2 2011   3.954   4.745   0.335  0.9557 -1.8301  0.5459
  669TIP3   OH2 2012   0.696   1.025   4.330  0.0455  0.6153  0.4246
  669TIP3    H1 2013   0.660   1.103   4.371  0.0967 -0.6590  3.1734
  669TIP3    H2 2014   0.786   1.048   4.309  0.1209  1.2460  1.3781
  670TIP3   OH2 2015   2.973   1.666   1.060 -0.1059  0.5333 -0.2660
  670TIP3    H1 2016   3.026   1.592   1.090 -0.5857  0.4903  0.4826
  670TIP3    H2 2017   2.992   1.672   0.966 -0.2928 -0.7354 -0.3977
  671TIP3   OH2 2018   1.595   5.021   2.056  0.1117  0.1893  0.3436
  671TIP3    H1 2019   1.571   4.946   2.111  0.6653 -0.8105 -0.7357
  671TIP3    H2 2020   1.658   4.986   1.993  0.0663  1.4763 -0.4651
  672TIP3   OH2 2021   6.002   0.355   2.393 -0.9215  0.2420  0.5499
  672TIP3    H1 2022   6.030   0.416   2.461 -1.1673 -0.7417  1.5874
  672TIP3    H2 2023   5.926   0.311   2.432 -1.3358 -0.0322 -0.5521
  673TIP3   OH2 2024   5.763  -0.015   2.562  0.2037  0.3943  0.2834
  673TIP3    H1 2025   5.790  -0.021   2.654 -1.2278 -1.7419  0.6440
  673TIP3    H2 2026   5.802   0.066   2.530  1.6044  0.6533  2.4847
  674TIP3   OH2 2027   2.880   4.685   1.501 -0.3083  0.1053 -0.0289
  674TIP3    H1 2028   2.923   4.601   1.486  2.2791  1.1313  1.1232
  674TIP3    H2 2029   2.818   4.669   1.572  0.5389 -0.7029  0.5376
  675TIP3   OH2 2030   1.209   4.094   0.614 -0.0925 -0.6340 -0.1211
  675TIP3    H1 2031   1.294   4.080   0.572 -0.2282  1.4263 -1.1990
  675TIP3    H2 2032   1.170   4.166   0.565 -2.1596 -1.0430  0.8333
  676TIP3   OH2 2033   3.862   2.917   4.519  0.4642 -0.1190  0.0616
  676TIP3    H1 2034   3.850   3.011   4.532 -0.2368 -0.4414  2.1210
  676TIP3    H2 2035   3.776   2.885   4.491 -0.4047 -0.6352  3.0092
  677TIP3   OH2 2036   3.212   3.155   1.498 -0.1708 -0.5335  0.8788
  677TIP3    H1 2037   3.226   3.150   1.592 -0.0136  1.3906  0.9847
  677TIP3    H2 2038   3.300   3.162   1.460 -0.0179 -3.7785  0.3208
  678TIP3   OH2 2039   5.280   1.520   4.420 -0.1638  0.3136  0.9158
  678TIP3    H1 2040   5.315   1.432   4.435  0.9847  0.8477  1.5922
  678TIP3    H2 2041   5.205   1.507   4.363  0.7463 -0.9810 -0.0571
  679TIP3   OH2 2042   0.898   3.830   4.968 -0.2747  0.3586  0.3131
  679TIP3    H1 2043   0.847   3.827   4.887 -0.8958  0.6264  0.6882
  679TIP3    H2 2044   0.933   3.919   4.971 -0.2043  0.3307  0.3046
  680TIP3   OH2 2045   5.433   4.646   2.959  0.1177  0.4639 -0.5503
  680TIP3    H1 2046   5.486   4.674   2.884  1.5605  0.1689  0.3110
  680TIP3    H2 2047   5.489   4.584   3.005 -1.6523 -1.1843 -0.5071
  681TIP3   OH2 2048   1.631   0.357   3.243  0.4097 -0.2961 -0.4649
  681TIP3    H1 2049   1.544   0.356   3.283  0.4872 -2.0288 -0.2561
  681TIP3    H2 2050   1.667   0.442   3.267 -0.6666 -0.1386  0.7176
  682TIP3   OH2 2051   5.517   5.027   3.942 -0.6888  0.0978 -0.4505
  682TIP3    H1 2052   5.424   5.013   3.957 -0.5252 -0.5748 -0.0499
  682TIP3    H2 2053   5.543   5.090   4.009 -0.5766 -0.7266  0.3007
  683TIP3   OH2 2054   4.132   4.245   3.721 -0.1259  0.0035  0.2393
  683TIP3    H1 2055   4.154   4.337   3.709  1.4189 -0.1296  1.7465
  683TIP3    H2 2056   4.126   4.211   3.631  2.1661  0.9505 -0.3652
  684TIP3   OH2 2057   2.366   2.615   4.923 -0.0033  0.5427  0.1004
  684TIP3    H1 2058   2.430   2.565   4.871 -1.4473 -1.2083 -0.0863
  684TIP3    H2 2059   2.333   2.681   4.863  1.1236  1.0427 -0.0019
  685TIP3   OH2 2060   0.310   4.970   0.240  1.3199  0.0086 -0.1668
  685TIP3    H1 2061   0.283   5.031   0.309 -0.0937  0.2106 -0.8719
  685TIP3    H2 2062   0.344   4.894   0.288  0.4794  0.1905  0.7500
  686TIP3   OH2 2063   0.904   2.875   3.989 -0.1202 -0.1121 -0.4309
  686TIP3    H1 2064   0.925   2.792   4.032  1.1691 -0.8886 -2.4189
  686TIP3    H2 2065   0.971   2.936   4.020  0.2378 -0.4185 -0.5875
  687TIP3   OH2 2066   1.620   2.376   2.297 -0.0881 -0.1058  0.0469
  687TIP3    H1 2067   1.673   2.411   2.368  0.4250 -2.1772  0.7734
  687TIP3    H2 2068   1.530   2.378   2.330  0.1819 -1.3403  0.9329
  688TIP3   OH2 2069   3.295   1.158   4.460 -0.6236  0.0669 -0.1755
  688TIP3    H1 2070   3.319   1.230   4.403  2.7867  0.6915  1.7795
  688TIP3    H2 2071   3.245   1.098   4.404 -0.4330  2.1966 -2.8059
  689TIP3   OH2 2072   5.901   4.357   3.303  0.3421 -0.2182 -0.1618
  689TIP3    H1 2073   5.921   4.280   3.250  0.5297 -0.9599  0.9690
  689TIP3    H2 2074   5.983   4.405   3.309  0.5202 -0.5672  0.1615
  690TIP3   OH2 2075   4.582   2.236   2.545  0.6639 -0.6033 -0.3661
  690TIP3    H1 2076   4.506   2.181   2.527 -0.6985  0.6849  1.0836
  690TIP3    H2 2077   4.584   2.243   2.640  1.2389  1.2051 -0.4778
  691TIP3   OH2 2078   0.067   0.085   4.859  0.0288  0.2908 -0.6579
  691TIP3    H1 2079   0.128   0.159   4.856 -0.1026  0.3785 -1.1492
  691TIP3    H2 2080   0.095   0.028   4.787  0.3107 -0.2837 -0.1101
  692TIP3   OH2 2081   1.198   2.048   4.438 -0.1876  0.2945 -0.2225
  692TIP3    H1 2082   1.118   2.014   4.479 -0.4725  0.1842 -0.8603
  692TIP3    H2 2083   1.244   2.092   4.510 -0.0401 -1.0084  0.5201
  693TIP3   OH2 2084   3.542   0.797   2.537  0.1413 -0.0102 -0.4263
  693TIP3    H1 2085   3.459   0.795   2.586  1.4005  2.1961  2.0288
  693TIP3    H2 2086   3.606   0.761   2.599  1.7537  2.5765 -0.4750
  694TIP3   OH2 2087   4.794   3.169   4.068  0.0192 -0.8497  0.0388
  694TIP3    H1 2088   4.760   3.258   4.071  2.0415  0.0419 -1.6478
  694TIP3    H2 2089   4.817   3.150   4.159  2.1894  1.4931  0.0981
  695TIP3   OH2 2090   0.565   2.255   4.449  0.3139 -0.0970  0.0291
  695TIP3    H1 2091   0.583   2.339   4.491  0.6113  1.1418 -2.4194
  695TIP3    H2 2092   0.642   2.201   4.469  1.7800  1.4324 -1.2392
  696TIP3   OH2 2093   4.225   0.892   0.778 -0.3794  0.3618  0.2908
  696TIP3    H1 2094   4.286   0.960   0.748 -0.2232  0.2242  0.2921
  696TIP3    H2 2095   4.181   0.863   0.698 -0.7156  0.7213  0.3396
  697TIP3   OH2 2096   1.828   5.176   2.353  0.0051  0.5119  0.1501
  697TIP3    H1 2097   1.777   5.095   2.345  0.4855  0.1790  0.4300
  697TIP3    H2 2098   1.763   5.242   2.380 -0.4767  0.3349 -0.5363
  698TIP3   OH2 2099   3.351   3.183   1.138 -0.3092  0.4943  0.0850
  698TIP3    H1 2100   3.314   3.271   1.126  0.3682  0.8187  0.3150
  698TIP3    H2 2101   3.402   3.190   1.219 -2.4487 -0.8549  1.6740
  699TIP3   OH2 2102   3.274   4.068   1.482  0.1390 -0.1096  0.2173
  699TIP3    H1 2103   3.237   4.110   1.560  0.7176 -0.8434  0.8981
  699TIP3    H2 2104   3.204   4.072   1.417 -0.4864  0.1676  0.8975
  700TIP3   OH2 2105   2.030   4.271   0.680  0.0391 -0.7396 -0.0644
  700TIP3    H1 2106   1.952   4.238   0.636  0.6255 -2.3386  0.0258
  700TIP3    H2 2107   1.996   4.325   0.751 -0.9247  1.8560 -2.3400
  701TIP3   OH2 2108   4.226   1.299   4.940 -0.1665  0.1771 -0.2052
  701TIP3    H1 2109   4.230   1.368   5.006 -0.5600 -0.3224  0.3580
  701TIP3    H2 2110   4.258   1.221   4.986 -4.1720 -1.1452  0.6881
  702TIP3   OH2 2111   4.118   2.185   0.453 -0.3704 -0.1670  0.1875
  702TIP3    H1 2112   4.139   2.165   0.362 -0.7677 -1.0172  0.2711
  702TIP3    H2 2113   4.096   2.100   0.492  2.1941 -0.2463  1.7279
  703TIP3   OH2 2114   0.768   4.844   1.926  0.3564 -0.0340  0.0695
  703TIP3    H1 2115   0.732   4.907   1.988  0.2957 -0.9570  0.9969
  703TIP3    H2 2116   0.717   4.764   1.940  1.8367 -0.9647  0.4814
  704TIP3   OH2 2117   2.239   2.380   3.543  0.6046  0.0440  0.0732
  704TIP3    H1 2118   2.196   2.418   3.466 -1.1988 -1.9536 -0.0362
  704TIP3    H2 2119   2.307   2.324   3.507  1.7626  1.3774  0.1248
  705TIP3   OH2 2120   2.113   5.601   1.487 -0.6769  0.3734  0.0014
  705TIP3    H1 2121   2.140   5.552   1.565 -1.1365  1.1815  0.6966
  705TIP3    H2 2122   2.140   5.691   1.506  0.0306  0.4263 -1.1864
  706TIP3   OH2 2123   2.491   5.238   0.689 -0.4058 -0.4381 -0.0311
  706TIP3    H1 2124   2.514   5.286   0.768  0.6298 -0.4908 -0.2831
  706TIP3    H2 2125   2.419   5.289   0.650 -0.2143  0.1637  0.3901
  707TIP3   OH2 2126   1.950   2.568   0.805 -0.0269  0.4151 -0.1102
  707TIP3    H1 2127   2.032   2.545   0.850 -0.1178 -0.7579 -0.5093
  707TIP3    H2 2128   1.881   2.532   0.862 -0.2056  0.1908 -0.4690
  708TIP3   OH2 2129   3.138   1.442   1.112  0.4568  0.0893  0.2368
  708TIP3    H1 2130   3.166   1.432   1.021  0.0335 -1.2608  0.2338
  708TIP3    H2 2131   3.191   1.379   1.160  1.9015  1.9583  1.2399
  709TIP3   OH2 2132   0.799   0.203   0.666 -0.8573 -0.9763 -0.5304
  709TIP3    H1 2133   0.874   0.230   0.718 -0.1824 -0.7151 -1.6050
  709TIP3    H2 2134   0.727   0.197   0.728 -0.1545 -0.3403  0.3595
  710TIP3   OH2 2135   4.769   5.773   3.986  0.0523 -0.0079  0.0631
  710TIP3    H1 2136   4.784   5.727   4.069  2.0211 -0.7211 -0.6277
  710TIP3    H2 2137   4.719   5.710   3.934 -0.3585  0.0622  0.3653
  711TIP3   OH2 2138   4.401   4.216   2.120 -0.4506  0.0272  0.4405
  711TIP3    H1 2139   4.383   4.182   2.033  0.0179 -1.0969  0.7544
  711TIP3    H2 2140   4.496   4.225   2.123 -0.6137  2.5764 -0.0279
  712TIP3   OH2 2141   2.207   4.951   2.717  0.3880 -0.4591  0.0493
  712TIP3    H1 2142   2.259   4.958   2.636 -0.0761 -1.7511 -0.3865
  712TIP3    H2 2143   2.136   5.013   2.705  0.9842  0.2333  0.0012
  713TIP3   OH2 2144   1.676   4.849   4.881  0.2043  0.2514  0.3152
  713TIP3    H1 2145   1.642   4.768   4.844  0.5092  0.0017  0.5761
  713TIP3    H2 2146   1.607   4.914   4.866 -0.1769 -0.1319  0.4100
  714TIP3   OH2 2147   5.234   1.606   1.347  0.3389 -0.2772  0.1958
  714TIP3    H1 2148   5.180   1.630   1.271 -0.4014  0.1863  0.8439
  714TIP3    H2 2149   5.324   1.610   1.315  0.0967  0.9549 -0.3811
  715TIP3   OH2 2150   4.339   3.040   0.621  0.4592 -0.1452  0.2680
  715TIP3    H1 2151   4.346   3.098   0.545  1.5966 -0.2799  0.2538
  715TIP3    H2 2152   4.301   3.095   0.690 -1.0669 -0.1653 -0.5226
  716TIP3   OH2 2153   3.765   2.677   3.976 -0.6022 -0.0451  0.6541
  716TIP3    H1 2154   3.801   2.605   3.924 -1.5053 -0.0393  0.0056
  716TIP3    H2 2155   3.842   2.732   3.996 -0.3910  0.7710 -1.9696
  717TIP3   OH2 2156   3.135   3.208   0.432  0.0003 -0.2848  0.1972
  717TIP3    H1 2157   3.124   3.298   0.464  2.6243 -0.1091  0.8095
  717TIP3    H2 2158   3.139   3.216   0.337  1.3095  0.4120  0.2981
  718TIP3   OH2 2159   1.807   1.983   4.853 -0.2259  0.1570  0.5749
  718TIP3    H1 2160   1.729   2.037   4.837 -0.3209 -0.0889  0.1975
  718TIP3    H2 2161   1.796   1.952   4.943 -1.6377 -1.5855 -0.1217
  719TIP3   OH2 2162   2.739   1.091   3.636 -0.2825  0.1737 -0.3369
  719TIP3    H1 2163   2.709   1.001   3.646 -0.2260  0.2795  0.8887
  719TIP3    H2 2164   2.833   1.084   3.620 -0.7983 -0.1631 -4.2201
  720TIP3   OH2 2165   4.817   2.372   2.664 -0.1040  0.2557  0.3292
  720TIP3    H1 2166   4.867   2.445   2.628 -0.3080  0.5106  0.5618
  720TIP3    H2 2167   4.826   2.380   2.758 -0.2739  0.0845  0.3618
  721TIP3   OH2 2168   2.462   2.508   5.163  0.0181 -0.1560 -0.0491
  721TIP3    H1 2169   2.433   2.518   5.072 -0.0570 -0.1207 -0.0210
  721TIP3    H2 2170   2.459   2.596   5.199  3.1114  0.4144 -0.9244
  722TIP3   OH2 2171   1.241   2.734   4.965  0.1416  0.2851 -0.3429
  722TIP3    H1 2172   1.194   2.707   4.886 -2.9488  1.1333  1.0386
  722TIP3    H2 2173   1.317   2.783   4.932  0.9150 -2.2559 -2.7351
  723TIP3   OH2 2174   3.591   5.046   2.743 -0.4700 -0.1875 -0.0885
  723TIP3    H1 2175   3.640   5.050   2.825 -0.3458  0.0610 -0.1734
  723TIP3    H2 2176   3.632   5.112   2.687  0.1208 -1.0614 -0.7205
  724TIP3   OH2 2177   5.210   2.135   4.098 -0.1007 -0.1789 -0.0811
  724TIP3    H1 2178   5.278   2.202   4.102 -1.1033  0.8732 -0.0772
  724TIP3    H2 2179   5.161   2.155   4.018 -0.1435 -1.1880 -0.3223
  725TIP3   OH2 2180   4.541   1.545   0.171 -0.3680  0.2419 -0.1276
  725TIP3    H1 2181   4.625   1.503   0.153  0.3563  0.6651  1.9815
  725TIP3    H2 2182   4.551   1.634   0.138 -0.8893 -0.3643 -2.0355
  726TIP3   OH2 2183   5.830   5.264   0.278  0.3236  0.2356 -0.7206
  726TIP3    H1 2184   5.773   5.309   0.341 -0.3641 -0.3952 -0.8715
  726TIP3    H2 2185   5.826   5.318   0.200  0.5103  0.5782 -0.4951
  727TIP3   OH2 2186   1.961   3.220   1.185 -0.4559  0.2623  0.0243
  727TIP3    H1 2187   1.888   3.251   1.132  0.8783  2.7631 -0.4668
  727TIP3    H2 2188   2.038   3.233   1.130  0.4592 -1.9956  0.6593
  728TIP3   OH2 2189   6.117   0.634   2.865 -0.5654 -0.2118 -0.4124
  728TIP3    H1 2190   6.136   0.558   2.919  1.3115 -0.4350 -1.3080
  728TIP3    H2 2191   6.163   0.706   2.907 -0.8681  0.0613 -0.5429
  729TIP3   OH2 2192   6.041   3.357   4.250  0.0575 -0.5141  0.1943
  729TIP3    H1 2193   6.126   3.396   4.268 -0.4994 -0.2364  2.6565
  729TIP3    H2 2194   5.978   3.424   4.275 -0.8746 -1.7258  1.3083
  730TIP3   OH2 2195   1.470   4.684   4.093 -0.3422 -0.0145  0.1814
  730TIP3    H1 2196   1.563   4.665   4.101  0.2210  2.5765  0.6892
  730TIP3    H2 2197   1.437   4.684   4.183 -1.2490 -2.4963 -0.0891
  731TIP3   OH2 2198   5.944   1.064   2.961 -0.1641 -0.0572 -0.0723
  731TIP3    H1 2199   6.014   1.031   3.017  0.1983  1.9043  0.7386
  731TIP3    H2 2200   5.989   1.108   2.889 -0.4860  1.5034  0.6283
  732TIP3   OH2 2201   1.049   2.537   1.067 -0.0447 -0.1489 -0.2099
  732TIP3    H1 2202   0.991   2.557   0.993  0.3337 -1.1723 -0.8075
  732TIP3    H2 2203   1.055   2.441   1.067  0.8193 -0.1050  0.4865
  733TIP3   OH2 2204   3.667   5.539   2.892 -0.3407 -0.6223 -0.0356
  733TIP3    H1 2205   3.684   5.499   2.807  0.2152  0.8982 -0.6737
  733TIP3    H2 2206   3.753   5.549   2.932 -0.4492  0.0193  0.0557
  734TIP3   OH2 2207   2.904   1.575   2.095 -0.4921  0.3244 -0.0616
  734TIP3    H1 2208   2.912   1.544   2.186  0.7384  0.0549 -0.2527
  734TIP3    H2 2209   2.843   1.649   2.101 -1.7059 -0.6859  0.7334
  735TIP3   OH2 2210   2.760   3.041   3.237 -0.1558  0.0316  0.0958
  735TIP3    H1 2211   2.691   3.023   3.301 -1.5358 -1.4510 -1.6966
  735TIP3    H2 2212   2.822   2.969   3.248  0.8146  0.9917  1.2306
  736TIP3   OH2 2213   0.838   5.049   5.009 -0.2875 -0.1960  0.0816
  736TIP3    H1 2214   0.827   5.008   5.095 -1.2008 -0.2893 -0.0730
  736TIP3    H2 2215   0.876   4.979   4.955  0.3814 -0.1068  0.4248
  737TIP3   OH2 2216   6.034   4.805   0.482  0.4189  0.0674 -0.3386
  737TIP3    H1 2217   6.087   4.884   0.470  0.0835  0.4338  0.5541
  737TIP3    H2 2218   5.954   4.822   0.433 -0.7272  1.3506  1.8369
  738TIP3   OH2 2219   1.274   2.816   2.497  0.0440  0.6105 -0.7667
  738TIP3    H1 2220   1.310   2.738   2.454  1.1947 -0.2678  1.6266
  738TIP3    H2 2221   1.191   2.786   2.534 -0.3299  1.0177 -1.2549
  739TIP3   OH2 2222   4.721   3.785   1.096  0.2672 -0.1066 -0.1412
  739TIP3    H1 2223   4.753   3.710   1.046  1.7502  1.3496 -1.5433
  739TIP3    H2 2224   4.714   3.753   1.186 -0.8943 -2.3733 -0.9634
  740TIP3   OH2 2225   5.417   0.045   1.808 -0.6756  0.0452  0.2254
  740TIP3    H1 2226   5.467  -0.033   1.783  1.0842  0.8709  0.9989
  740TIP3    H2 2227   5.380   0.022   1.894 -1.2533 -0.3907 -0.1297
  741TIP3   OH2 2228  -0.001   3.834   3.030 -0.1269 -0.1834 -0.0786
  741TIP3    H1 2229   0.058   3.759   3.019  2.4204  1.3043  2.1905
  741TIP3    H2 2230  -0.045   3.818   3.113 -1.1328 -0.0715 -0.5713
  742TIP3   OH2 2231   4.747   3.311   2.680 -0.0537  0.6084 -0.7097
  742TIP3    H1 2232   4.716   3.358   2.758 -1.2729 -0.4818 -0.5048
  742TIP3    H2 2233   4.789   3.232   2.713  0.8290  0.8947 -1.1103
  743TIP3   OH2 2234   3.540   0.976   2.131 -0.2809  0.2922  0.0704
  743TIP3    H1 2235   3.520   0.898   2.079 -0.7493  0.5039 -0.0658
  743TIP3    H2 2236   3.521   0.949   2.221  1.0134 -0.2392  0.2099
  744TIP3   OH2 2237   1.443   3.305   2.391  0.1422  0.1037  0.1434
  744TIP3    H1 2238   1.375   3.240   2.373  0.7682  0.0188 -2.2362
  744TIP3    H2 2239   1.406   3.360   2.460 -1.9223 -0.5672 -0.3674
  745TIP3   OH2 2240   4.129   2.115   1.680  0.2795 -0.2535 -0.0319
  745TIP3    H1 2241   4.052   2.116   1.624  0.2372 -1.2251 -0.0119
  745TIP3    H2 2242   4.130   2.027   1.718  0.7376  0.1370  0.8883
  746TIP3   OH2 2243   1.225   0.218   0.233  0.1694  0.3346 -0.3273
  746TIP3    H1 2244   1.232   0.287   0.299 -0.8571  0.4830 -0.3585
  746TIP3    H2 2245   1.316   0.193   0.215  0.4618 -0.1579  1.6071
  747TIP3   OH2 2246   1.731   0.733   0.301  0.5352  0.0550 -0.3633
  747TIP3    H1 2247   1.799   0.722   0.368 -1.8473 -0.3701  2.2096
  747TIP3    H2 2248   1.662   0.671   0.327 -1.7630  1.9802 -1.4568
  748TIP3   OH2 2249   0.671   4.766   0.701  0.0798  0.0259  0.0725
  748TIP3    H1 2250   0.616   4.822   0.756  0.7295  1.7698 -0.9799
  748TIP3    H2 2251   0.760   4.799   0.717  0.3357  0.1761 -1.5444
  749TIP3   OH2 2252   2.263   4.420   0.447 -0.0066 -0.3264  0.1750
  749TIP3    H1 2253   2.194   4.485   0.464  0.5677  0.6841 -1.1305
  749TIP3    H2 2254   2.342   4.462   0.480  0.0239 -1.4517  1.5971
  750TIP3   OH2 2255   1.058   5.926   1.213 -0.0259  0.2016  0.4087
  750TIP3    H1 2256   1.125   5.879   1.262  0.7711  0.9136  0.0161
  750TIP3    H2 2257   1.021   5.860   1.154  1.2419  0.0906 -0.3053
  751TIP3   OH2 2258   2.452   2.407   0.950 -0.5825 -0.4748  0.0075
  751TIP3    H1 2259   2.522   2.430   1.011 -1.3497 -2.1538  1.5985
  751TIP3    H2 2260   2.456   2.311   0.944 -2.4790 -0.5665 -0.1918
  752TIP3   OH2 2261   5.539   3.122   0.033  0.1601 -0.5186  0.6158
  752TIP3    H1 2262   5.577   3.115  -0.055 -0.4350  0.0201  0.3028
  752TIP3    H2 2263   5.474   3.052   0.037  0.3718 -0.7085  0.7225
  753TIP3   OH2 2264   3.841   4.447   0.244 -0.0381 -0.3482 -0.5646
  753TIP3    H1 2265   3.758   4.482   0.212  0.0608 -0.6782 -1.2004
  753TIP3    H2 2266   3.908   4.490   0.190  0.3544  1.2111  1.0609
  754TIP3   OH2 2267   3.243   0.855   2.301  0.2823 -0.0663 -0.3002
  754TIP3    H1 2268   3.182   0.834   2.371  0.1781 -2.2306 -0.9782
  754TIP3    H2 2269   3.204   0.816   2.223  1.2280  0.8272 -1.2507
  755TIP3   OH2 2270   6.034   5.728   2.757  0.1633  0.2397  0.0721
  755TIP3    H1 2271   6.122   5.763   2.767 -0.4330  2.0906 -0.6807
  755TIP3    H2 2272   6.047   5.637   2.732  1.9833  1.1333 -2.6694
  756TIP3   OH2 2273   0.268   0.226   2.662 -0.2421  0.1734  0.0274
  756TIP3    H1 2274   0.182   0.184   2.669  0.2997 -0.7619  1.5755
  756TIP3    H2 2275   0.249   0.312   2.623 -2.2086  0.8453  2.1846
  757TIP3   OH2 2276   0.809   5.909   2.618  0.7727  0.0004  0.0385
  757TIP3    H1 2277   0.729   5.859   2.632  0.2976  0.8198  0.3070
  757TIP3    H2 2278   0.864   5.852   2.563 -0.7148  0.1413 -1.6778
  758TIP3   OH2 2279   4.755   3.569   3.387  0.1697  0.0008  0.1021
  758TIP3    H1 2280   4.849   3.557   3.398  0.1437 -0.0342  0.3018
  758TIP3    H2 2281   4.719   3.481   3.392 -0.0436  0.1343  1.8115
  759TIP3   OH2 2282   5.544   4.739   3.616 -0.0301  0.3006  0.3491
  759TIP3    H1 2283   5.495   4.814   3.583  1.0593  1.2874  0.9036
  759TIP3    H2 2284   5.482   4.692   3.672 -1.5185 -0.6933 -1.9602
  760TIP3   OH2 2285   0.566   5.276   3.698 -0.1546  0.5351 -0.1649
  760TIP3    H1 2286   0.553   5.199   3.644  0.0830  0.5788 -0.2882
  760TIP3    H2 2287   0.528   5.348   3.647 -0.9411  0.4046  0.2321
  761TIP3   OH2 2288   6.016   0.796   4.635  0.3489  0.2195  0.0266
  761TIP3    H1 2289   6.068   0.859   4.686  1.0209  0.0677 -0.4575
  761TIP3    H2 2290   6.044   0.810   4.544  0.4921 -0.7668 -0.0901
  762TIP3   OH2 2291   4.249   1.227   2.460  0.0961  0.2240  0.3657
  762TIP3    H1 2292   4.194   1.281   2.402 -0.7549 -1.4406 -0.4679
  762TIP3    H2 2293   4.332   1.273   2.463 -0.6864  1.7520 -0.0369
  763TIP3   OH2 2294   1.555   3.274   4.418 -0.2801  0.1160  0.1384
  763TIP3    H1 2295   1.620   3.283   4.487 -0.5941  0.2042  0.4257
  763TIP3    H2 2296   1.490   3.213   4.454 -1.0478  1.0599  0.3809
  764TIP3   OH2 2297   4.525   4.188   2.726 -0.5337 -0.1148  0.4007
  764TIP3    H1 2298   4.501   4.143   2.644  0.2837 -0.1491  0.1748
  764TIP3    H2 2299   4.559   4.273   2.698 -1.3431  0.3452  0.7831
  765TIP3   OH2 2300   5.924   5.258  -0.006 -0.7777 -0.1387 -0.2169
  765TIP3    H1 2301   5.949   5.168  -0.024  0.5794  0.2954 -0.5683
  765TIP3    H2 2302   5.998   5.295   0.042 -1.9387  0.3817  1.2442
  766TIP3   OH2 2303   1.941   4.161   3.601 -0.2190 -0.1583  0.4450
  766TIP3    H1 2304   2.028   4.121   3.610  0.1861  0.5708 -0.0876
  766TIP3    H2 2305   1.950   4.220   3.526 -1.0181  0.3471  0.7371
  767TIP3   OH2 2306   3.299   0.934   4.797 -0.2802 -0.4559 -0.0312
  767TIP3    H1 2307   3.358   0.898   4.863  0.6425  1.4665  0.2368
  767TIP3    H2 2308   3.217   0.950   4.844 -0.1624 -0.6535  0.2428
  768TIP3   OH2 2309   1.054   4.026   2.942  0.6145 -0.0158  0.1269
  768TIP3    H1 2310   1.071   4.054   3.032  2.0321 -0.7624  0.1220
  768TIP3    H2 2311   1.058   3.931   2.946  0.7243 -0.0509 -0.7469
  769TIP3   OH2 2312   0.227   5.298   2.726 -0.3906  0.0372 -0.5017
  769TIP3    H1 2313   0.189   5.268   2.644  0.0777  0.3533 -0.8464
  769TIP3    H2 2314   0.294   5.362   2.699 -0.9904  0.9815  0.1738
  770TIP3   OH2 2315   5.662   0.024   3.088 -0.3242  0.6123  0.1709
  770TIP3    H1 2316   5.616   0.015   3.171 -0.3953 -0.2698  0.0501
  770TIP3    H2 2317   5.604   0.078   3.034 -0.1829  1.3594  0.7550
  771TIP3   OH2 2318   6.177   4.402   1.353  0.3228 -0.1276 -0.8372
  771TIP3    H1 2319   6.115   4.421   1.424  0.1434 -0.3228 -0.9421
  771TIP3    H2 2320   6.261   4.434   1.386 -0.1602  1.8749 -1.4445
  772TIP3   OH2 2321   1.344   3.427   4.664 -0.0120  0.8353 -0.2271
  772TIP3    H1 2322   1.404   3.375   4.717 -2.8000  0.0009  2.4855
  772TIP3    H2 2323   1.342   3.512   4.707 -0.2653  1.0625 -0.6798
  773TIP3   OH2 2324   5.596   3.772   4.688 -0.3168  0.2385 -0.6754
  773TIP3    H1 2325   5.541   3.746   4.762 -0.5277 -1.6830 -1.4410
  773TIP3    H2 2326   5.686   3.752   4.717 -0.3606 -0.1050 -0.7718
  774TIP3   OH2 2327   1.697   2.610   0.019  0.4826 -0.1914  0.1804
  774TIP3    H1 2328   1.681   2.703   0.003  1.9080  0.1251  0.4237
  774TIP3    H2 2329   1.611   2.573   0.036 -0.1703  0.9775 -0.4553
  775TIP3   OH2 2330   2.635   2.841   5.008 -0.3070  0.2857 -0.2109
  775TIP3    H1 2331   2.710   2.895   5.030  1.6304 -3.1102  2.5349
  775TIP3    H2 2332   2.583   2.838   5.088 -0.8002 -1.1524 -0.5554
  776TIP3   OH2 2333   4.650   1.193   1.678 -0.0276 -0.2575  0.7393
  776TIP3    H1 2334   4.629   1.273   1.726  0.1827 -1.3970  2.8079
  776TIP3    H2 2335   4.577   1.183   1.617 -0.0180  1.5249  0.3587
  777TIP3   OH2 2336   6.259   3.093   1.840 -0.1423  0.2369  0.3691
  777TIP3    H1 2337   6.212   3.022   1.884 -1.7248  0.7785 -0.3690
  777TIP3    H2 2338   6.351   3.077   1.861 -0.1448 -3.3318 -1.5628
  778TIP3   OH2 2339   3.890   5.153   4.225  0.3248 -0.3852  0.1651
  778TIP3    H1 2340   3.805   5.195   4.236  0.4975  0.4836 -1.5204
  778TIP3    H2 2341   3.927   5.193   4.147  1.6505 -1.8217  0.0030
  779TIP3   OH2 2342   5.611   3.088   2.945 -0.4182  0.0576  0.5211
  779TIP3    H1 2343   5.698   3.060   2.974 -0.5745 -0.3596  0.5978
  779TIP3    H2 2344   5.610   3.182   2.961  0.1671  0.1376  0.1307
  780TIP3   OH2 2345   2.745   2.868   0.493  0.4440  0.5396  0.0074
  780TIP3    H1 2346   2.653   2.841   0.500  0.7426 -0.1199  1.8041
  780TIP3    H2 2347   2.783   2.846   0.578  2.9172 -1.5673 -1.5152
  781TIP3   OH2 2348   2.504   4.003   0.233 -0.0696  0.1397  0.4471
  781TIP3    H1 2349   2.499   4.051   0.315  2.5779  0.8846  0.2583
  781TIP3    H2 2350   2.521   4.070   0.167 -1.5067 -0.5266 -0.6690
  782TIP3   OH2 2351   5.680   1.509   1.719 -0.3263 -0.1001  0.1238
  782TIP3    H1 2352   5.728   1.557   1.652  1.0154 -0.7858  0.5616
  782TIP3    H2 2353   5.643   1.434   1.674  0.6569 -0.6146  0.1302
  783TIP3   OH2 2354   3.940   5.532   2.933 -0.0492  0.8091 -0.1955
  783TIP3    H1 2355   3.988   5.559   2.855 -0.1461  1.7670  0.0641
  783TIP3    H2 2356   3.987   5.454   2.964 -0.6967 -0.2859 -1.8393
  784TIP3   OH2 2357   4.427   0.781   1.275 -0.1383  0.2342 -0.1765
  784TIP3    H1 2358   4.364   0.837   1.229 -0.4242  0.6429  0.7066
  784TIP3    H2 2359   4.502   0.837   1.292 -0.4659  0.3874  0.7988
  785TIP3   OH2 2360   5.531   3.009   3.745 -0.5004  0.4406  0.0856
  785TIP3    H1 2361   5.507   3.014   3.837 -1.4202 -0.4566 -0.0856
  785TIP3    H2 2362   5.586   2.930   3.739  0.6327  1.2038  0.0711
  786TIP3   OH2 2363   0.467   2.560   0.077  0.1933 -0.0489 -0.3898
  786TIP3    H1 2364   0.452   2.465   0.082  0.7558 -0.2172 -1.5497
  786TIP3    H2 2365   0.408   2.597   0.143  1.3192 -1.3233  1.4511
  787TIP3   OH2 2366   6.077   2.179   0.371 -0.0350 -0.4427  0.7852
  787TIP3    H1 2367   6.134   2.255   0.387  0.6154 -0.8687  0.5413
  787TIP3    H2 2368   5.996   2.217   0.337  0.3871  0.1282  0.3901
  788TIP3   OH2 2369   5.343   3.554   2.961 -0.0417 -0.3235  0.2224
  788TIP3    H1 2370   5.306   3.522   2.879 -1.1124 -1.5687  1.1634
  788TIP3    H2 2371   5.284   3.624   2.989 -2.4752 -2.9800  2.2450
  789TIP3   OH2 2372   5.303   4.735   1.588 -0.0098 -0.4542 -0.1696
  789TIP3    H1 2373   5.310   4.642   1.610  0.2054 -0.7500 -1.4075
  789TIP3    H2 2374   5.333   4.740   1.497  0.8674  0.9672  0.1673
  790TIP3   OH2 2375   3.972   3.371   0.651 -0.4754  0.8218  0.9021
  790TIP3    H1 2376   4.051   3.367   0.598 -0.9098  0.8031  0.2431
  790TIP3    H2 2377   3.946   3.280   0.664 -1.2454  0.8713 -0.2016
  791TIP3   OH2 2378   5.854   1.994   1.261 -0.2270  0.3082 -0.1658
  791TIP3    H1 2379   5.788   1.984   1.193  0.6149 -1.4753 -0.8007
  791TIP3    H2 2380   5.838   1.921   1.321  0.7093  0.2824  0.0657
  792TIP3   OH2 2381   6.341   0.408   4.731 -0.1262 -0.3517  0.5525
  792TIP3    H1 2382   6.274   0.379   4.793 -0.4640 -0.6313  0.0568
  792TIP3    H2 2383   6.366   0.495   4.763 -0.4921 -0.3812  0.9278
  793TIP3   OH2 2384   4.138   2.389   1.519  0.0533 -0.5850  0.3545
  793TIP3    H1 2385   4.179   2.310   1.484 -0.1351  0.6364 -2.9886
  793TIP3    H2 2386   4.044   2.373   1.509 -0.1291 -0.9016  2.1593
  794TIP3   OH2 2387   5.750   0.533   2.479 -0.5166  0.2958 -0.4450
  794TIP3    H1 2388   5.668   0.500   2.441 -1.3288  1.3610  0.3104
  794TIP3    H2 2389   5.800   0.566   2.404 -1.2573  0.6223 -0.8076
  795TIP3   OH2 2390   2.762   5.612   2.757 -0.0636  0.0315 -0.1279
  795TIP3    H1 2391   2.833   5.582   2.814  1.2635 -0.3277 -1.8819
  795TIP3    H2 2392   2.688   5.556   2.779  0.6467 -0.6173  0.6821
  796TIP3   OH2 2393   0.757   3.950   0.591 -0.3270  0.7581 -0.3320
  796TIP3    H1 2394   0.827   3.985   0.536  0.1997 -1.0301 -0.8492
  796TIP3    H2 2395   0.721   3.876   0.542 -1.5052  0.6375  0.6491
  797TIP3   OH2 2396   2.986   4.867   5.110 -0.4030  0.0446 -0.0437
  797TIP3    H1 2397   2.936   4.937   5.152 -0.9523  0.6024 -1.5443
  797TIP3    H2 2398   2.951   4.863   5.021  2.6648  0.9836 -1.4364
  798TIP3   OH2 2399   3.170   5.059   1.070  0.2138  0.3416  0.2124
  798TIP3    H1 2400   3.079   5.034   1.057  0.3986 -0.3830  0.2895
  798TIP3    H2 2401   3.178   5.143   1.025 -1.2342  1.8924  2.5981
  799TIP3   OH2 2402   5.882   1.454   3.075  0.2274 -0.6750  0.7500
  799TIP3    H1 2403   5.967   1.429   3.111  1.0707  0.2187 -0.5898
  799TIP3    H2 2404   5.830   1.373   3.079  1.3050 -1.3692  1.0468
  800TIP3   OH2 2405   5.585   1.246   4.446  0.4975  0.6623 -0.7615
  800TIP3    H1 2406   5.523   1.184   4.407  0.5208 -1.0233  1.6633
  800TIP3    H2 2407   5.659   1.192   4.475  0.2761  1.6392  1.9333
  801TIP3   OH2 2408   6.194   0.409   3.282  0.0859 -0.6995  0.1565
  801TIP3    H1 2409   6.243   0.363   3.350 -1.7612 -0.6702  1.6038
  801TIP3    H2 2410   6.169   0.492   3.322  0.1095 -0.0803 -1.0633
  802TIP3   OH2 2411   1.563   4.791   0.168 -0.0209 -0.5655 -0.2854
  802TIP3    H1 2412   1.657   4.778   0.174 -0.1306 -0.5745  2.7817
  802TIP3    H2 2413   1.527   4.744   0.243 -2.5871 -1.1961 -1.7729
  803TIP3   OH2 2414   2.449   5.304   4.737 -0.1113 -0.2655  0.0828
  803TIP3    H1 2415   2.414   5.392   4.750  1.4059  0.2883  0.5670
  803TIP3    H2 2416   2.507   5.312   4.662 -0.5536 -1.0490 -0.3627
  804TIP3   OH2 2417   3.596   5.886   3.398  0.7701 -0.1229  0.1827
  804TIP3    H1 2418   3.641   5.824   3.456  0.8154 -0.6715 -0.4276
  804TIP3    H2 2419   3.535   5.932   3.455 -0.4621 -1.8993  0.3642
  805TIP3   OH2 2420   1.305   5.208   1.288 -0.2229 -0.2093  0.2035
  805TIP3    H1 2421   1.392   5.193   1.251 -0.2372  0.5803 -0.1622
  805TIP3    H2 2422   1.271   5.120   1.307 -0.1287 -0.6303 -1.4610
  806TIP3   OH2 2423   4.004   3.363   2.498  0.2501 -0.1190 -0.1050
  806TIP3    H1 2424   4.088   3.386   2.538  0.2907  3.3633 -1.8149
  806TIP3    H2 2425   3.943   3.429   2.531 -0.7206  0.1430 -2.2943
  807TIP3   OH2 2426   0.272   3.731   3.278  0.1606 -0.2507  0.0239
  807TIP3    H1 2427   0.221   3.690   3.208 -1.3374 -1.0727  1.5270
  807TIP3    H2 2428   0.363   3.711   3.256 -0.2561 -0.4524 -1.6781
  808TIP3   OH2 2429   4.333   4.566   2.393 -0.2747 -0.0570 -0.1302
  808TIP3    H1 2430   4.354   4.562   2.487  0.5400 -0.5283 -0.3211
  808TIP3    H2 2431   4.311   4.658   2.378 -0.3665  0.0336  0.5107
  809TIP3   OH2 2432   4.694   3.387   0.244  0.3713  0.3576  0.3095
  809TIP3    H1 2433   4.789   3.386   0.245  0.4458 -1.6912  3.4768
  809TIP3    H2 2434   4.669   3.302   0.209 -0.2827  0.5521  0.2826
  810TIP3   OH2 2435   4.531   1.807   4.079 -0.4642  0.3272  0.5524
  810TIP3    H1 2436   4.606   1.781   4.132 -0.8228 -0.1804  0.8194
  810TIP3    H2 2437   4.497   1.885   4.122  0.2051  0.8594  0.1414
  811TIP3   OH2 2438   0.825   3.060   3.812 -0.4491  0.1782  0.4622
  811TIP3    H1 2439   0.831   2.985   3.870  0.6632 -0.4555 -0.4363
  811TIP3    H2 2440   0.850   3.026   3.726 -2.9723  0.8507 -0.6308
  812TIP3   OH2 2441   5.671   4.528   2.229 -0.2252 -0.2203  0.4051
  812TIP3    H1 2442   5.680   4.611   2.275 -0.4466  0.6877 -1.1298
  812TIP3    H2 2443   5.698   4.547   2.139  0.2884 -1.9541  0.1603
  813TIP3   OH2 2444   4.984   5.905   4.691  0.1489 -0.3503 -0.2992
  813TIP3    H1 2445   4.904   5.854   4.705  0.4626 -0.7246  0.1569
  813TIP3    H2 2446   5.047   5.842   4.657  0.4320 -0.1897 -0.0758
  814TIP3   OH2 2447   2.781   5.475   1.320  0.2207  0.1585  0.7555
  814TIP3    H1 2448   2.709   5.494   1.261  1.2818  1.0207 -0.3237
  814TIP3    H2 2449   2.791   5.380   1.318  0.7612  0.2339 -1.1147
  815TIP3   OH2 2450   3.729   3.165   1.306 -0.1686 -0.1665 -0.3421
  815TIP3    H1 2451   3.752   3.202   1.221  3.8801 -0.1863  0.5537
  815TIP3    H2 2452   3.755   3.232   1.369  0.3608 -1.5686  0.9887
  816TIP3   OH2 2453   2.307   1.630   4.499  0.4785  0.6791  0.2782
  816TIP3    H1 2454   2.272   1.665   4.417 -0.7053 -2.4000 -0.6932
  816TIP3    H2 2455   2.241   1.566   4.527  1.4803  0.6928  2.9887
  817TIP3   OH2 2456   3.425   5.266   2.025 -0.3770  0.0888 -0.1953
  817TIP3    H1 2457   3.347   5.318   2.043  0.0408  1.3264 -1.7591
  817TIP3    H2 2458   3.395   5.194   1.970 -0.3973  0.6576 -0.9337
  818TIP3   OH2 2459   3.071   1.977   3.056 -0.5054 -0.2362 -0.2859
  818TIP3    H1 2460   3.130   1.932   3.117  0.8884 -0.4723 -1.7286
  818TIP3    H2 2461   3.025   1.906   3.010 -2.4456 -0.0499  1.2531
  819TIP3   OH2 2462   4.423   5.149   0.831  0.3624  0.3088  0.4249
  819TIP3    H1 2463   4.386   5.157   0.919 -0.2318  0.1117  0.1989
  819TIP3    H2 2464   4.446   5.239   0.807  0.9831  0.3030  0.9692
  820TIP3   OH2 2465   5.066   3.151   3.984 -0.0700  0.2202  0.0000
  820TIP3    H1 2466   5.050   3.214   3.915 -1.4992 -0.4599 -0.3206
  820TIP3    H2 2467   4.988   3.153   4.038  1.9131  2.5285  3.1342
  821TIP3   OH2 2468   5.595   1.881   0.834 -0.6885 -0.1083  0.1382
  821TIP3    H1 2469   5.500   1.891   0.826 -0.9198 -0.8474  1.7250
  821TIP3    H2 2470   5.607   1.793   0.869  0.5517  0.2999  0.7766
  822TIP3   OH2 2471   4.547   5.937   3.768 -0.4774  0.0063  0.4042
  822TIP3    H1 2472   4.623   5.880   3.767 -1.9741 -2.1557  1.5593
  822TIP3    H2 2473   4.528   5.955   3.676  1.0955  0.1724  0.0938
  823TIP3   OH2 2474   4.728   2.576   0.555 -0.1046 -0.3302  0.3075
  823TIP3    H1 2475   4.717   2.482   0.571  0.9188 -0.8635 -1.7118
  823TIP3    H2 2476   4.822   2.587   0.542 -0.2438  0.9302  0.2926
  824TIP3   OH2 2477   0.959   1.036   2.677 -0.0520  0.1910  0.2035
  824TIP3    H1 2478   0.902   0.978   2.728 -0.0656 -1.1320 -1.2524
  824TIP3    H2 2479   0.996   1.096   2.742  0.2598 -1.6829  1.8409
  825TIP3   OH2 2480   2.144   2.500   3.322  0.3390 -0.0100 -0.0914
  825TIP3    H1 2481   2.195   2.530   3.247  0.3681 -1.1234 -0.5313
  825TIP3    H2 2482   2.057   2.482   3.285  0.5371 -1.2025 -0.0161
  826TIP3   OH2 2483   1.541   2.575   2.667 -0.4420 -0.5998  0.2887
  826TIP3    H1 2484   1.623   2.536   2.638  0.3235  0.8729  0.3610
  826TIP3    H2 2485   1.516   2.524   2.744 -0.5396 -2.1761 -0.7464
  827TIP3   OH2 2486   5.238   5.078   4.549 -0.4893 -0.2385 -0.4172
  827TIP3    H1 2487   5.191   5.149   4.592  2.2453  0.8863  0.9281
  827TIP3    H2 2488   5.172   5.009   4.539 -2.4923  1.3380  0.9702
  828TIP3   OH2 2489   4.454   5.744   3.509 -0.5625  0.3961 -0.4579
  828TIP3    H1 2490   4.379   5.708   3.461 -0.1378  0.0628 -0.8799
  828TIP3    H2 2491   4.485   5.817   3.456 -0.6902  0.6404 -0.1988
  829TIP3   OH2 2492   5.647   4.771   4.070  0.1284 -0.2330  0.4000
  829TIP3    H1 2493   5.606   4.854   4.045 -1.9562 -0.9994  1.0188
  829TIP3    H2 2494   5.695   4.791   4.150  1.3318  0.7688 -0.5195
  830TIP3   OH2 2495   4.094   2.573   1.157  0.4036  0.0132  0.2232
  830TIP3    H1 2496   4.153   2.636   1.199  1.4770  0.3191 -1.6480
  830TIP3    H2 2497   4.017   2.625   1.133  0.8086  0.3810 -0.3083
  831TIP3   OH2 2498   1.499   0.616   4.300 -0.4455  0.1273  0.5076
  831TIP3    H1 2499   1.406   0.628   4.319 -0.1923  0.9641  1.2384
  831TIP3    H2 2500   1.529   0.553   4.365 -0.3956  0.2067  0.5612
  832TIP3   OH2 2501   1.123   4.623   4.914 -0.1622 -0.1864 -0.3507
  832TIP3    H1 2502   1.165   4.574   4.843  0.6277  1.8840 -1.3878
  832TIP3    H2 2503   1.185   4.619   4.987 -0.3568 -1.1472 -0.2203
  833TIP3   OH2 2504   5.837   3.202   4.857  0.2752 -0.2777 -0.1712
  833TIP3    H1 2505   5.777   3.131   4.880 -1.3041  1.0739  0.1298
  833TIP3    H2 2506   5.825   3.212   4.762  0.3377 -0.2842 -0.1795
  834TIP3   OH2 2507   3.032   5.197   3.857  0.0624 -0.4235 -0.6788
  834TIP3    H1 2508   3.038   5.184   3.951  0.9505 -0.2865 -0.7042
  834TIP3    H2 2509   3.034   5.293   3.846  1.6847 -0.4400 -0.8989
  835TIP3   OH2 2510   5.099   2.942   2.234  0.3761 -0.7655 -0.0955
  835TIP3    H1 2511   5.089   2.930   2.329 -1.0068 -1.9049 -0.3562
  835TIP3    H2 2512   5.124   3.034   2.225 -0.4373 -0.3668  1.3280
  836TIP3   OH2 2513   6.214   5.031   4.426  0.3696  0.9662  0.3867
  836TIP3    H1 2514   6.175   5.044   4.512 -1.3926 -0.7251 -0.0806
  836TIP3    H2 2515   6.305   5.007   4.444  0.7648  3.0955  1.6058
  837TIP3   OH2 2516   5.594   2.794   1.728 -0.1417  0.7774  0.3386
  837TIP3    H1 2517   5.503   2.804   1.757 -1.3240 -0.0342 -2.7082
  837TIP3    H2 2518   5.624   2.883   1.712 -2.1226  1.0081 -3.0801
  838TIP3   OH2 2519   4.495   4.676   0.586 -0.4207 -0.0616 -0.8301
  838TIP3    H1 2520   4.477   4.583   0.597  1.6509 -0.2992  1.4046
  838TIP3    H2 2521   4.432   4.720   0.643 -1.5248 -0.0334 -2.0292
  839TIP3   OH2 2522   2.881   2.856   1.707 -0.0981  0.2106 -0.4681
  839TIP3    H1 2523   2.791   2.875   1.682 -1.8558 -2.0662  3.2366
  839TIP3    H2 2524   2.902   2.921   1.774  0.2171 -0.4654  0.1039
  840TIP3   OH2 2525   3.676   2.382   3.236 -0.3069 -0.2500 -0.4462
  840TIP3    H1 2526   3.661   2.295   3.199 -3.3689 -0.3188  0.6702
  840TIP3    H2 2527   3.618   2.386   3.312  0.9988  2.1871  0.5178
  841TIP3   OH2 2528   3.710   3.843   4.375 -0.4278 -0.1951 -0.2543
  841TIP3    H1 2529   3.765   3.801   4.309 -0.8736  0.8049 -1.2959
  841TIP3    H2 2530   3.762   3.840   4.455  1.1182  0.6185 -1.1722
  842TIP3   OH2 2531   4.534   1.498   1.906 -0.3825  0.3379 -0.6934
  842TIP3    H1 2532   4.614   1.457   1.940 -0.4767 -1.0607 -2.0263
  842TIP3    H2 2533   4.557   1.525   1.817 -1.0684  0.9594 -0.6902
  843TIP3   OH2 2534   0.535   4.761   2.122  0.0658 -0.4978  0.0084
  843TIP3    H1 2535   0.596   4.730   2.189 -1.0496 -1.0930  0.7892
  843TIP3    H2 2536   0.502   4.844   2.156 -0.0595 -0.5092 -0.0826
  844TIP3   OH2 2537   0.555   4.838   3.217 -0.0802  0.1656 -0.3195
  844TIP3    H1 2538   0.547   4.820   3.311  1.6236  0.1960 -0.1366
  844TIP3    H2 2539   0.521   4.927   3.206 -1.7003 -0.3858 -0.0092
  845TIP3   OH2 2540   3.444   2.764   4.172  0.1313  0.0809 -0.3435
  845TIP3    H1 2541   3.386   2.738   4.101 -0.8135 -0.8834  0.7439
  845TIP3    H2 2542   3.444   2.860   4.169 -2.6884  0.1985  0.4699
  846TIP3   OH2 2543   5.664   1.259   1.624  0.5706  0.1743  0.2456
  846TIP3    H1 2544   5.648   1.235   1.533  0.1311 -0.1212  0.3974
  846TIP3    H2 2545   5.691   1.178   1.667 -0.4764  0.0210  0.6569
  847TIP3   OH2 2546   5.550   4.620   1.789 -0.1702 -0.3769  0.2720
  847TIP3    H1 2547   5.614   4.688   1.769  2.3884 -1.5775  3.5678
  847TIP3    H2 2548   5.544   4.568   1.709 -0.8262  2.5026 -1.7179
  848TIP3   OH2 2549   0.272   4.342   3.595 -0.1148 -0.1985 -0.8984
  848TIP3    H1 2550   0.337   4.303   3.653  1.1633  0.4816 -1.8099
  848TIP3    H2 2551   0.196   4.356   3.650  0.0777 -2.0890 -0.0585
  849TIP3   OH2 2552   5.642   2.972   2.335 -0.3324  0.6946 -0.1775
  849TIP3    H1 2553   5.557   2.984   2.375 -0.3774 -0.1223 -0.0003
  849TIP3    H2 2554   5.705   3.006   2.399 -0.2839 -1.9641  1.3685
  850TIP3   OH2 2555   1.703   4.874   4.307 -0.3521 -0.3470  0.6258
  850TIP3    H1 2556   1.732   4.839   4.392  0.2230  0.8797  0.9530
  850TIP3    H2 2557   1.771   4.936   4.282  0.4118 -1.9572 -1.6177
  851TIP3   OH2 2558   4.559   3.158   2.521  0.4655  0.1682 -0.1384
  851TIP3    H1 2559   4.618   3.086   2.497  1.0225 -0.1942  2.0761
  851TIP3    H2 2560   4.604   3.202   2.593 -1.5054  0.5181  0.9488
  852TIP3   OH2 2561   2.272   3.793   2.755 -0.2055 -0.0072  0.5356
  852TIP3    H1 2562   2.321   3.870   2.783 -1.2538  0.8377  0.1221
  852TIP3    H2 2563   2.205   3.782   2.823 -1.0948  0.4616 -0.2385
  853TIP3   OH2 2564   3.898   4.148   2.698 -0.1003 -0.0458 -0.1160
  853TIP3    H1 2565   3.812   4.176   2.730  0.4952  1.6507  0.1115
  853TIP3    H2 2566   3.886   4.056   2.674 -1.9044  0.0800  0.1511
  854TIP3   OH2 2567   4.663   4.983   4.426 -0.3201 -0.0773  0.0696
  854TIP3    H1 2568   4.592   4.981   4.363 -1.5854  1.5002  1.3380
  854TIP3    H2 2569   4.636   4.923   4.496 -0.6055  0.7439  0.6939
  855TIP3   OH2 2570   5.852   3.466   3.004 -0.0824 -0.3089 -0.2627
  855TIP3    H1 2571   5.756   3.467   3.003 -0.1550 -1.1533  1.3657
  855TIP3    H2 2572   5.877   3.447   2.913 -1.2927  3.4205 -1.5311
  856TIP3   OH2 2573   3.046   3.449   4.866 -0.1006  0.0537 -0.0700
  856TIP3    H1 2574   2.996   3.479   4.942  0.2219 -1.4101  0.7642
  856TIP3    H2 2575   2.979   3.432   4.799 -0.4461  0.7645  0.0809
  857TIP3   OH2 2576   1.619   0.922   1.544  0.6155  0.0460 -0.0816
  857TIP3    H1 2577   1.696   0.940   1.598 -0.5491  1.8440  1.0707
  857TIP3    H2 2578   1.547   0.968   1.587 -0.6847  0.2992 -2.3389
  858TIP3   OH2 2579   0.704   5.692   0.897 -0.0329 -0.4314 -0.0047
  858TIP3    H1 2580   0.704   5.787   0.911  0.1640 -0.2526 -1.1094
  858TIP3    H2 2581   0.737   5.681   0.807 -0.5813 -1.5115 -0.0892
  859TIP3   OH2 2582   3.646   3.594   1.756 -0.0132  0.3903  0.6748
  859TIP3    H1 2583   3.695   3.591   1.674  1.3359  0.0918  1.4665
  859TIP3    H2 2584   3.639   3.688   1.776 -0.5664  0.4781  0.1108
  860TIP3   OH2 2585   4.192   0.421   4.831  0.2448  0.2577 -0.1337
  860TIP3    H1 2586   4.252   0.453   4.899 -1.0435  3.8814 -0.4550
  860TIP3    H2 2587   4.108   0.413   4.876  0.0020 -0.2061 -0.6675
  861TIP3   OH2 2588   2.678   1.462   2.260 -0.2110 -0.2563 -0.2288
  861TIP3    H1 2589   2.667   1.535   2.321 -1.3874  0.3147 -1.1014
  861TIP3    H2 2590   2.773   1.448   2.256 -0.1017 -0.4370  1.8499
  862TIP3   OH2 2591   1.976   0.800   1.514  0.2010 -0.4340  0.3320
  862TIP3    H1 2592   2.048   0.761   1.564  0.1686  1.9516  2.4925
  862TIP3    H2 2593   1.922   0.726   1.488  2.6377 -2.1882 -0.1504
  863TIP3   OH2 2594   1.983   3.458   1.721  0.3861 -0.2306 -0.4722
  863TIP3    H1 2595   2.057   3.508   1.686  0.0001  1.3308  0.7980
  863TIP3    H2 2596   1.970   3.387   1.658  3.5632 -1.1836 -0.2553
  864TIP3   OH2 2597   6.173   5.079   0.115  0.6334 -0.0313 -0.3099
  864TIP3    H1 2598   6.168   5.171   0.139 -3.0276 -0.4050  0.8910
  864TIP3    H2 2599   6.225   5.039   0.185  0.9804  0.8598 -0.0447
  865TIP3   OH2 2600   2.548   5.310   3.835 -0.7016  0.4422  0.1528
  865TIP3    H1 2601   2.559   5.255   3.912 -2.8304 -1.8359 -1.0533
  865TIP3    H2 2602   2.500   5.387   3.868 -3.9937 -1.6859  0.8195
  866TIP3   OH2 2603   1.050   0.076   2.709 -0.0316  0.1365  0.5540
  866TIP3    H1 2604   1.052   0.088   2.804  2.2237  0.2882  0.5371
  866TIP3    H2 2605   1.089  -0.010   2.695  0.6942  0.5823 -0.2782
  867TIP3   OH2 2606   5.914   1.260   0.736 -0.5156  0.3114 -0.1711
  867TIP3    H1 2607   5.897   1.332   0.797  0.5503  0.2151  0.2634
  867TIP3    H2 2608   5.909   1.182   0.791  0.5511  0.2329 -0.1734
  868TIP3   OH2 2609   0.980   3.596   5.085 -0.1270  0.0264  0.1452
  868TIP3    H1 2610   0.978   3.525   5.021 -0.4906  1.3694 -1.4057
  868TIP3    H2 2611   0.959   3.675   5.035  0.0670  1.2256  1.8351
  869TIP3   OH2 2612   4.171   2.206   3.938 -0.0015  0.2029 -0.4873
  869TIP3    H1 2613   4.170   2.210   3.842  0.5881 -0.5378 -0.5422
  869TIP3    H2 2614   4.162   2.296   3.966 -0.2821  0.4208 -1.2455
  870TIP3   OH2 2615   2.687   2.405   2.841 -0.1951  0.6028  0.2569
  870TIP3    H1 2616   2.655   2.447   2.920 -1.0390 -1.0242  0.8341
  870TIP3    H2 2617   2.667   2.312   2.853  2.6265 -0.2092 -0.4060
  871TIP3   OH2 2618   3.001   0.701   0.576  0.6356  0.0657  0.5081
  871TIP3    H1 2619   3.007   0.659   0.662 -1.1023  0.6813  0.9730
  871TIP3    H2 2620   3.055   0.779   0.584  0.9285 -0.1642  0.8517
  872TIP3   OH2 2621   5.983   2.434   0.620 -0.5724 -0.0974  0.0180
  872TIP3    H1 2622   5.903   2.382   0.622 -1.5083  1.3005  2.1391
  872TIP3    H2 2623   6.045   2.383   0.672 -1.1027  0.2922  1.0566
  873TIP3   OH2 2624   5.633   5.633   2.037 -0.5970 -0.1601 -0.0042
  873TIP3    H1 2625   5.652   5.612   2.128  0.1472  0.1295 -0.0888
  873TIP3    H2 2626   5.539   5.618   2.028 -0.3465 -2.1447  0.2949
  874TIP3   OH2 2627   5.878   2.142   4.829 -0.8191 -0.5155 -0.0528
  874TIP3    H1 2628   5.789   2.117   4.802 -0.9714  0.9161 -0.9761
  874TIP3    H2 2629   5.931   2.065   4.807 -1.3217 -0.2656 -2.4708
  875TIP3   OH2 2630   0.124   1.136   2.353  0.4110  0.0008  0.0235
  875TIP3    H1 2631   0.159   1.063   2.303 -0.4682 -0.9489  0.7466
  875TIP3    H2 2632   0.042   1.158   2.308  0.1601 -0.1448  0.4067
  876TIP3   OH2 2633   4.519   0.048   4.409  0.3245  0.1307  0.0012
  876TIP3    H1 2634   4.587   0.081   4.349  0.1058  0.6021  0.0063
  876TIP3    H2 2635   4.483   0.127   4.450  1.1733 -0.2400  1.5307
  877TIP3   OH2 2636   0.181   5.813   0.468 -0.0061  0.0474 -0.7805
  877TIP3    H1 2637   0.140   5.883   0.517 -0.8171  0.4981 -2.0372
  877TIP3    H2 2638   0.211   5.751   0.534 -0.8842  0.7098  0.2712
  878TIP3   OH2 2639   0.986   2.195   4.085 -0.3191 -0.0152  0.4182
  878TIP3    H1 2640   1.071   2.234   4.102 -0.4224  0.4066 -0.0214
  878TIP3    H2 2641   0.926   2.243   4.142 -0.1204 -1.0204  1.5378
  879TIP3   OH2 2642   3.906   4.412   3.881 -0.4385  0.0446  0.1538
  879TIP3    H1 2643   3.889   4.325   3.919 -0.7430  1.5256  3.8265
  879TIP3    H2 2644   3.818   4.447   3.862 -0.5023  0.6228  1.4530
  880TIP3   OH2 2645   3.806   0.306   4.091  0.4998  0.4775  0.2050
  880TIP3    H1 2646   3.741   0.336   4.028 -1.1322 -0.2960  1.4552
  880TIP3    H2 2647   3.842   0.386   4.129 -0.1404  0.9054 -0.0848
  881TIP3   OH2 2648   3.277   2.905   2.689  0.1784 -0.2865  0.3542
  881TIP3    H1 2649   3.240   2.874   2.606  0.4687 -2.6353  1.0162
  881TIP3    H2 2650   3.335   2.834   2.717 -2.0287 -0.9445  3.9394
  882TIP3   OH2 2651   4.358   3.296   4.250  0.3981 -0.6473  0.0650
  882TIP3    H1 2652   4.296   3.279   4.179 -1.2729 -1.0007  1.5409
  882TIP3    H2 2653   4.406   3.213   4.261  1.3589 -0.3070 -1.2194
  883TIP3   OH2 2654   5.430   0.242   3.705 -0.6706 -0.0200 -0.4026
  883TIP3    H1 2655   5.510   0.293   3.718 -1.2828  1.0611 -0.7476
  883TIP3    H2 2656   5.369   0.276   3.770 -1.0224 -0.4564 -0.4992
  884TIP3   OH2 2657   5.786   4.084   4.164 -0.2805  0.5515  0.1015
  884TIP3    H1 2658   5.767   4.159   4.108  3.0276  0.3643 -1.4691
  884TIP3    H2 2659   5.749   4.009   4.118  1.3820  0.5566 -1.3379
  885TIP3   OH2 2660   5.242   1.563   1.790  0.2510  0.4485  0.1817
  885TIP3    H1 2661   5.192   1.580   1.710  1.5792  0.2585 -0.7167
  885TIP3    H2 2662   5.266   1.471   1.785 -0.7815  0.0837  1.4785
  886TIP3   OH2 2663   4.454   2.298   0.709  0.3951 -0.2496  0.3975
  886TIP3    H1 2664   4.443   2.393   0.709 -2.1567 -0.4611  2.0261
  886TIP3    H2 2665   4.549   2.285   0.710  0.8406  2.2309 -0.7953
  887TIP3   OH2 2666   5.037   0.558   3.472 -0.1692  0.1068 -0.6271
  887TIP3    H1 2667   5.104   0.566   3.405  1.7170  1.3650  1.2702
  887TIP3    H2 2668   5.085   0.536   3.552 -2.0883  0.4054  0.6875
  888TIP3   OH2 2669   1.102   4.450   1.226  0.1660  0.6239  0.3024
  888TIP3    H1 2670   1.115   4.367   1.273 -0.1062 -0.1029 -0.8585
  888TIP3    H2 2671   1.064   4.509   1.291  0.4683 -0.1260  1.1827
  889TIP3   OH2 2672   2.375   4.771   1.014  0.7670  0.4119 -0.1904
  889TIP3    H1 2673   2.413   4.730   1.092  1.8866  1.0571 -0.3822
  889TIP3    H2 2674   2.436   4.841   0.991 -0.6807  1.6857 -0.3448
  890TIP3   OH2 2675   3.022   3.959   3.488  1.0406  0.2455 -0.3069
  890TIP3    H1 2676   2.996   4.025   3.424 -1.0449 -0.1503  0.0626
  890TIP3    H2 2677   3.017   3.876   3.441 -0.3271 -0.0280  0.2556
  891TIP3   OH2 2678   0.383   5.189   4.445  0.8409 -0.6916  0.0569
  891TIP3    H1 2679   0.446   5.254   4.477 -1.0281  1.3041 -0.0155
  891TIP3    H2 2680   0.310   5.242   4.412 -0.4095 -2.8589 -0.8370
  892TIP3   OH2 2681   4.268   1.646   1.858 -0.1426 -0.4374  0.1132
  892TIP3    H1 2682   4.266   1.720   1.919 -1.3282 -1.4720  1.3834
  892TIP3    H2 2683   4.359   1.618   1.858  0.1239  0.3954  0.3919
  893TIP3   OH2 2684   5.561   2.258   1.379  0.1229 -0.1939  0.2948
  893TIP3    H1 2685   5.632   2.279   1.439  0.0773  1.3233 -0.1232
  893TIP3    H2 2686   5.544   2.340   1.332  0.9725 -1.5635 -2.6909
  894TIP3   OH2 2687   5.440   5.471   1.651  0.1311  0.2040  0.0710
  894TIP3    H1 2688   5.383   5.459   1.575 -0.9014  1.9070  0.5216
  894TIP3    H2 2689   5.449   5.566   1.659  0.5056  0.0501  1.8687
  895TIP3   OH2 2690   3.870   5.697   2.615  0.6343 -0.2391  0.2524
  895TIP3    H1 2691   3.838   5.606   2.613  0.5021 -0.1904 -1.1825
  895TIP3    H2 2692   3.942   5.697   2.551 -0.0127  0.8878 -0.4971
  896TIP3   OH2 2693   2.064   4.631   0.481 -0.1923 -0.3720 -0.0152
  896TIP3    H1 2694   2.077   4.607   0.572 -0.6627  0.0173  0.1601
  896TIP3    H2 2695   1.974   4.663   0.477 -0.7230 -1.8959 -0.9595
  897TIP3   OH2 2696   5.835   4.974   2.824  0.3791  0.1112 -0.3055
  897TIP3    H1 2697   5.924   4.942   2.836  1.2093  2.2383 -0.4591
  897TIP3    H2 2698   5.831   5.056   2.872 -0.5306  1.6310 -2.7819
  898TIP3   OH2 2699   4.868   4.783   2.805  0.2437  0.1997 -0.0063
  898TIP3    H1 2700   4.956   4.817   2.821 -0.2267  2.6647 -1.9932
  898TIP3    H2 2701   4.863   4.771   2.710 -0.1198 -4.5571  0.3718
  899TIP3   OH2 2702   6.209   1.452   4.004  0.3891 -0.0822 -0.4078
  899TIP3    H1 2703   6.257   1.427   4.084  0.5928  1.0822 -0.1503
  899TIP3    H2 2704   6.270   1.431   3.933  0.3863 -0.7030 -0.2367
  900TIP3   OH2 2705   3.749   2.952   4.206  0.1792  0.2927  0.8225
  900TIP3    H1 2706   3.832   2.967   4.251 -0.5668  1.4388  1.8771
  900TIP3    H2 2707   3.708   2.880   4.255  0.9753 -1.0273 -0.3573
  901TIP3   OH2 2708   6.002   4.999   1.605  0.2030  0.6401  0.1041
  901TIP3    H1 2709   6.053   5.032   1.679  0.3769  0.7902 -0.0840
  901TIP3    H2 2710   6.066   4.982   1.536 -0.0984  1.7240 -0.4578
  902TIP3   OH2 2711   3.384   1.157   1.621  0.0837  0.2089 -0.0777
  902TIP3    H1 2712   3.440   1.203   1.684 -0.0838 -1.5459  1.4387
  902TIP3    H2 2713   3.296   1.191   1.638  0.1837  0.4707 -0.0768
  903TIP3   OH2 2714   2.196   4.730   2.501  0.1702  0.2327 -0.0384
  903TIP3    H1 2715   2.189   4.775   2.585 -0.2400  1.2704 -0.6080
  903TIP3    H2 2716   2.135   4.777   2.444 -0.0722 -0.8898 -0.7308
  904TIP3   OH2 2717   0.331   2.348   3.397 -0.0013  0.4923 -0.0017
  904TIP3    H1 2718   0.292   2.343   3.485  0.0757 -0.4492 -0.0130
  904TIP3    H2 2719   0.267   2.399   3.346 -1.3581 -1.1965 -0.0816
  905TIP3   OH2 2720   4.234   0.301   2.419 -0.2344 -0.1312 -0.1691
  905TIP3    H1 2721   4.233   0.206   2.435  0.1952  0.1509  1.8764
  905TIP3    H2 2722   4.143   0.328   2.428 -0.3376 -0.3413 -0.6063
  906TIP3   OH2 2723   4.901   4.950   3.901  0.6456 -0.3811  0.9369
  906TIP3    H1 2724   4.827   4.927   3.957 -1.1042  0.3337 -0.9694
  906TIP3    H2 2725   4.927   4.867   3.861 -0.4765 -0.3552  0.0998
  907TIP3   OH2 2726   2.064   1.040   4.161 -0.2460 -0.6036  0.2321
  907TIP3    H1 2727   2.123   0.975   4.122 -0.6249 -0.6457 -0.2787
  907TIP3    H2 2728   2.005   1.065   4.090  0.1089  0.5580  0.3138
  908TIP3   OH2 2729   5.974   1.119   2.327 -0.5878  0.2001 -0.6452
  908TIP3    H1 2730   5.938   1.142   2.412  3.2601  1.9055  0.7962
  908TIP3    H2 2731   5.906   1.068   2.283 -2.9176 -0.3371  3.2199
  909TIP3   OH2 2732   1.385   3.104   4.536  0.0131  0.5002 -0.2216
  909TIP3    H1 2733   1.403   3.112   4.630  0.5317  2.1326 -0.4309
  909TIP3    H2 2734   1.290   3.091   4.531 -0.1134  1.0989  0.5069
  910TIP3   OH2 2735   0.033   5.192   3.405 -0.1595 -0.4702  0.0511
  910TIP3    H1 2736   0.105   5.179   3.466  1.1657  3.7104 -0.2732
  910TIP3    H2 2737   0.073   5.229   3.327 -2.5390  2.1360 -0.1123
  911TIP3   OH2 2738   3.171   4.846   0.663  0.0950  0.2104 -0.1703
  911TIP3    H1 2739   3.096   4.898   0.693 -0.3105 -0.0207 -0.7541
  911TIP3    H2 2740   3.210   4.898   0.592  0.5220  0.3544  0.1681
  912TIP3   OH2 2741   5.479   3.767   1.582 -0.0908  0.1033 -0.5382
  912TIP3    H1 2742   5.533   3.689   1.571 -1.5302 -1.0436  0.3106
  912TIP3    H2 2743   5.459   3.770   1.675 -0.2161  1.3910 -0.5896
  913TIP3   OH2 2744   5.622   2.131   2.732 -0.5230  0.5070  0.1422
  913TIP3    H1 2745   5.545   2.181   2.758 -0.5368  0.7349 -0.3216
  913TIP3    H2 2746   5.684   2.198   2.701 -0.7840  0.1996 -1.0965
  914TIP3   OH2 2747   5.894   3.733   4.199 -0.1559 -0.1457 -0.0340
  914TIP3    H1 2748   5.827   3.771   4.142 -0.1573 -0.3481 -0.1656
  914TIP3    H2 2749   5.964   3.706   4.140 -0.1568 -0.3541  0.0615
  915TIP3   OH2 2750   4.360   5.676   2.064  0.5429  0.4744 -0.0798
  915TIP3    H1 2751   4.270   5.644   2.053  0.8937 -0.0349 -1.7875
  915TIP3    H2 2752   4.401   5.662   1.979  2.8145 -1.0240  1.1709
  916TIP3   OH2 2753   2.826   2.665   5.144  0.2008 -0.5232  0.0563
  916TIP3    H1 2754   2.809   2.582   5.188  0.0221 -0.8994 -0.6972
  916TIP3    H2 2755   2.752   2.720   5.167  0.1663 -0.6761  0.3155
  917TIP3   OH2 2756   4.434   2.569   0.706  0.0684 -0.1454  0.0444
  917TIP3    H1 2757   4.352   2.559   0.755 -1.8344 -2.3585 -3.1987
  917TIP3    H2 2758   4.412   2.631   0.637  1.6719  0.4108  0.0056
  918TIP3   OH2 2759   3.421   0.298   3.613 -0.3726 -0.5275 -0.3478
  918TIP3    H1 2760   3.423   0.223   3.553 -0.0079 -1.9226  1.3271
  918TIP3    H2 2761   3.354   0.275   3.677  0.7176 -0.0781  0.9892
  919TIP3   OH2 2762   0.163   4.287   1.296 -0.6494  0.7179  0.3981
  919TIP3    H1 2763   0.247   4.246   1.275 -0.1393  1.7454  0.3847
  919TIP3    H2 2764   0.144   4.260   1.386 -0.5030  0.1709  0.2672
  920TIP3   OH2 2765   2.718   0.255   1.437  0.3666 -0.2139  0.6539
  920TIP3    H1 2766   2.794   0.246   1.495 -0.6436 -1.5259  1.8419
  920TIP3    H2 2767   2.645   0.272   1.496 -0.5089 -0.4092 -0.3503
  921TIP3   OH2 2768   5.446   1.849   0.058  0.7476 -0.1207  0.3378
  921TIP3    H1 2769   5.403   1.861   0.143  1.0059  0.2534  0.4171
  921TIP3    H2 2770   5.396   1.903  -0.003  0.5005 -0.4682  0.2279
  922TIP3   OH2 2771   0.815   1.156   4.890 -0.0427 -0.1781 -0.4003
  922TIP3    H1 2772   0.760   1.235   4.894  1.9289  1.2905 -0.5974
  922TIP3    H2 2773   0.864   1.166   4.808 -0.4100 -2.1115 -0.8956
  923TIP3   OH2 2774   0.015   2.195   4.352  0.0267  0.5071  0.0058
  923TIP3    H1 2775  -0.025   2.147   4.279  0.0172  0.8069 -0.1883
  923TIP3    H2 2776   0.081   2.136   4.387  0.4378  0.5859 -0.6205
  924TIP3   OH2 2777   0.990   5.051   3.458 -0.0451  0.2109  0.2608
  924TIP3    H1 2778   0.965   4.973   3.509 -1.1936 -1.4258 -2.5683
  924TIP3    H2 2779   0.954   5.124   3.508 -0.1084 -1.1417  2.3509
  925TIP3   OH2 2780   1.527   2.361   4.807  0.1751 -0.3786 -0.0807
  925TIP3    H1 2781   1.602   2.351   4.749  0.3045 -1.0277  0.1843
  925TIP3    H2 2782   1.556   2.423   4.874  0.3474 -0.3461 -0.1854
  926TIP3   OH2 2783   0.126   3.912   2.083  0.4144 -0.3411 -0.2407
  926TIP3    H1 2784   0.043   3.938   2.124 -0.3163 -0.1307 -1.7583
  926TIP3    H2 2785   0.155   3.991   2.036 -0.1548 -1.2585 -2.2477
  927TIP3   OH2 2786   0.813   1.565   5.091 -0.4467 -0.3523  0.1955
  927TIP3    H1 2787   0.885   1.510   5.120 -1.1399 -1.3845  0.0148
  927TIP3    H2 2788   0.786   1.528   5.007 -2.0569 -0.8572  0.8845
  928TIP3   OH2 2789   1.694   1.761   2.339  0.5128 -0.1162  0.1089
  928TIP3    H1 2790   1.723   1.852   2.347  1.3754 -0.1043 -2.1925
  928TIP3    H2 2791   1.599   1.766   2.333  0.6057  0.7514 -0.9134
  929TIP3   OH2 2792   4.762   0.584   3.976 -0.2394 -0.2362  0.0018
  929TIP3    H1 2793   4.679   0.539   3.959  0.0102 -0.6282 -0.1734
  929TIP3    H2 2794   4.815   0.567   3.899 -0.4346  1.0402 -0.4306
  930TIP3   OH2 2795   2.656   0.409   2.987  0.1876  0.2230  0.0777
  930TIP3    H1 2796   2.714   0.380   3.056  0.6135 -0.0842 -0.4011
  930TIP3    H2 2797   2.705   0.394   2.906  1.1750  3.8207 -0.1794
  931TIP3   OH2 2798   4.243   5.344   0.045 -0.2656 -0.0194 -0.3393
  931TIP3    H1 2799   4.261   5.425  -0.004  0.0576  0.5005  0.6032
  931TIP3    H2 2800   4.254   5.274  -0.020  0.2905  0.6342 -0.9789
  932TIP3   OH2 2801   4.181   3.444   2.697 -0.4899 -0.2293  0.2463
  932TIP3    H1 2802   4.243   3.506   2.734 -0.0700 -0.8351  0.5791
  932TIP3    H2 2803   4.234   3.367   2.677 -0.7076  0.0509 -1.5686
  933TIP3   OH2 2804   0.990   4.096   4.957  0.4416  0.5301 -0.3998
  933TIP3    H1 2805   1.024   4.148   4.884 -0.5030  0.7728 -0.6768
  933TIP3    H2 2806   1.000   4.153   5.033  0.5599  0.6365 -0.4948
  934TIP3   OH2 2807   0.901   4.547   0.349 -0.2542 -0.5969  0.5079
  934TIP3    H1 2808   0.817   4.562   0.392 -0.8893 -0.2840 -0.7885
  934TIP3    H2 2809   0.899   4.605   0.272  0.9264 -0.9813  0.1628
  935TIP3   OH2 2810   0.074   3.898   1.391  0.2354 -0.3139  0.0203
  935TIP3    H1 2811   0.043   3.948   1.467 -1.7171 -0.9082 -0.3282
  935TIP3    H2 2812   0.089   3.809   1.425  2.1439  0.0694  0.2891
  936TIP3   OH2 2813   5.388   5.677   3.856  0.1185  0.2428  0.3229
  936TIP3    H1 2814   5.345   5.596   3.830 -0.0480  0.2519  0.5670
  936TIP3    H2 2815   5.397   5.726   3.774 -0.0887  0.1250  0.2275
  937TIP3   OH2 2816   2.782   2.726   3.116  0.6416  0.5647 -0.1068
  937TIP3    H1 2817   2.764   2.804   3.064  1.3402 -0.8549 -2.6479
  937TIP3    H2 2818   2.856   2.750   3.171  0.6397  1.7913 -0.6154
  938TIP3   OH2 2819   1.447   2.176   0.439 -0.2013 -0.1511  0.6471
  938TIP3    H1 2820   1.458   2.271   0.428 -1.3171  0.0049  0.7068
  938TIP3    H2 2821   1.435   2.144   0.349 -2.4706  0.1654  0.7715
  939TIP3   OH2 2822   1.356   5.920   3.088  0.1890 -0.0864 -0.1364
  939TIP3    H1 2823   1.417   5.958   3.151 -0.3522  0.0230  0.3336
  939TIP3    H2 2824   1.305   5.994   3.057  0.2046 -0.1969 -0.4239
  940TIP3   OH2 2825   4.338   5.481   1.611  0.1515 -0.4603  0.2914
  940TIP3    H1 2826   4.394   5.481   1.689  0.9810  0.6155 -0.2760
  940TIP3    H2 2827   4.383   5.421   1.550  1.9471  1.9775 -0.9655
  941TIP3   OH2 2828   4.394   1.233   3.264 -0.0845 -0.2953  0.0969
  941TIP3    H1 2829   4.401   1.199   3.353  0.3229 -0.9302 -0.1770
  941TIP3    H2 2830   4.406   1.157   3.207  1.3594  0.3478 -0.5301
  942TIP3   OH2 2831   5.038   1.553   3.883  0.1118  0.8364  0.3257
  942TIP3    H1 2832   5.093   1.550   3.805 -0.5149  1.9273 -0.1842
  942TIP3    H2 2833   5.072   1.484   3.939  1.7142  1.1910 -0.1534
  943TIP3   OH2 2834   0.670   5.624   5.140  0.6610 -0.6275 -0.6769
  943TIP3    H1 2835   0.646   5.632   5.047  0.5268 -0.9733 -0.6744
  943TIP3    H2 2836   0.591   5.650   5.187  0.5583 -0.9653 -0.6629
  944TIP3   OH2 2837   4.184   5.792   3.389 -0.2866  0.0228  0.1095
  944TIP3    H1 2838   4.230   5.876   3.383  0.6723 -0.5764 -1.5055
  944TIP3    H2 2839   4.154   5.775   3.300 -0.7001 -1.2302  0.4760
  945TIP3   OH2 2840   5.308   2.626   0.821  0.3060  0.0209 -0.3400
  945TIP3    H1 2841   5.294   2.632   0.727 -0.0145  0.2889 -0.2776
  945TIP3    H2 2842   5.393   2.583   0.830  0.3422  0.0035 -0.7511
  946TIP3   OH2 2843   1.954   1.874   2.816 -0.2494  0.1218  0.0234
  946TIP3    H1 2844   1.950   1.787   2.855  1.0245 -1.0914 -2.3395
  946TIP3    H2 2845   2.031   1.915   2.856  1.1511 -1.1718 -1.2086
  947TIP3   OH2 2846   0.999   5.667   2.600 -0.6080  0.1247 -0.3339
  947TIP3    H1 2847   1.030   5.596   2.543  0.5113 -0.6539  1.1816
  947TIP3    H2 2848   1.062   5.670   2.671 -1.2756  1.9211  0.2336
  948TIP3   OH2 2849   4.886   5.863   0.456 -0.5136 -0.0591  0.0740
  948TIP3    H1 2850   4.803   5.910   0.465  0.1559  0.9913  1.0156
  948TIP3    H2 2851   4.939   5.894   0.529  1.6482  1.2255 -1.9035
  949TIP3   OH2 2852   0.754   1.341   1.511  0.0180 -0.1795 -0.2615
  949TIP3    H1 2853   0.749   1.344   1.606  0.6799  3.7806 -0.2142
  949TIP3    H2 2854   0.838   1.299   1.493  0.7951  0.7731  0.9890
  950TIP3   OH2 2855   2.791   0.800   1.885 -0.1267 -0.0758 -0.3143
  950TIP3    H1 2856   2.853   0.871   1.869  0.0771  0.0203  0.8633
  950TIP3    H2 2857   2.725   0.838   1.943 -1.1909 -0.2432 -1.3714
  951TIP3   OH2 2858   0.462   4.175   1.785  0.3271 -0.4612 -0.4294
  951TIP3    H1 2859   0.486   4.164   1.877 -0.0809  0.8715 -0.1405
  951TIP3    H2 2860   0.475   4.268   1.767 -0.4724 -0.5177 -1.4677
  952TIP3   OH2 2861   3.027   4.638   1.159 -0.8607 -0.2437  0.0002
  952TIP3    H1 2862   2.951   4.683   1.197 -0.7650 -0.1469  0.0764
  952TIP3    H2 2863   3.097   4.703   1.159 -0.4804 -0.6325  0.8789
  953TIP3   OH2 2864   1.577   4.296   2.735  0.1305  0.2616 -0.2268
  953TIP3    H1 2865   1.612   4.256   2.814  1.3807 -0.5210 -1.1273
  953TIP3    H2 2866   1.513   4.360   2.766  0.7142  0.0947  1.4036
  954TIP3   OH2 2867   1.886   1.192   5.209  0.2790 -0.1986 -0.1188
  954TIP3    H1 2868   1.926   1.114   5.170 -2.0936 -1.2783 -0.5807
  954TIP3    H2 2869   1.901   1.261   5.145  1.2649 -0.5806 -0.3205
  955TIP3   OH2 2870   3.465   3.532   2.481  0.4917  0.0848 -0.4091
  955TIP3    H1 2871   3.391   3.544   2.540 -0.0916  0.1657 -1.1552
  955TIP3    H2 2872   3.513   3.458   2.518  0.1182  0.1127  0.1453
  956TIP3   OH2 2873   2.024   0.007   0.924  0.5360  0.3986  0.2927
  956TIP3    H1 2874   1.943   0.000   0.874  1.3257  1.0682 -1.1323
  956TIP3    H2 2875   2.006   0.073   0.991  0.7570  2.7271 -1.8314
  957TIP3   OH2 2876   3.879   2.920   0.008  0.4231 -0.7971  0.0320
  957TIP3    H1 2877   3.882   2.955   0.097 -1.2518  0.8783 -0.5213
  957TIP3    H2 2878   3.914   2.831   0.017  2.6175  0.1240  1.9042
  958TIP3   OH2 2879   0.827   4.928   1.644 -0.2753 -0.3045 -0.7243
  958TIP3    H1 2880   0.898   4.875   1.607  0.8153  1.7241 -1.7416
  958TIP3    H2 2881   0.838   4.920   1.739  0.8266 -0.6502 -0.8677
  959TIP3   OH2 2882   2.885   3.393   0.136 -0.8605 -0.4581 -0.3948
  959TIP3    H1 2883   2.928   3.307   0.136 -2.7756 -1.4657  0.0909
  959TIP3    H2 2884   2.918   3.436   0.057  3.8082  0.3736  1.6459
  960TIP3   OH2 2885   3.588   1.451   4.143  0.0888 -0.4549  0.3269
  960TIP3    H1 2886   3.638   1.453   4.225  0.3951  1.5449  0.1328
  960TIP3    H2 2887   3.514   1.510   4.158  0.1506 -0.0599 -0.8387
  961TIP3   OH2 2888   2.678   5.199   3.044  0.0166 -0.2039  0.3810
  961TIP3    H1 2889   2.752   5.220   2.987  0.3250 -0.2085  0.7734
  961TIP3    H2 2890   2.634   5.126   3.001 -0.7683  0.8941 -0.7396
  962TIP3   OH2 2891   3.079   0.070   2.179 -0.7476 -0.0719  0.3708
  962TIP3    H1 2892   3.116   0.012   2.246  0.1328 -0.3700 -0.3609
  962TIP3    H2 2893   2.996   0.029   2.155 -0.7028 -0.3750  0.7292
  963TIP3   OH2 2894   0.839   0.954   2.418 -0.1010 -0.5908 -0.0440
  963TIP3    H1 2895   0.885   0.984   2.496 -0.7335 -0.2682  0.2164
  963TIP3    H2 2896   0.907   0.917   2.362  0.7704  1.4881 -0.4667
  964TIP3   OH2 2897   1.998   1.212   3.518  0.3775  0.4764  0.2037
  964TIP3    H1 2898   1.909   1.178   3.511 -0.4255  2.5078 -0.2421
  964TIP3    H2 2899   1.987   1.307   3.531  2.4685  0.7773  0.2025
  965TIP3   OH2 2900   5.564   2.284   3.041  0.2175 -0.5859 -0.4123
  965TIP3    H1 2901   5.495   2.342   3.075  2.3754  1.6903  0.3599
  965TIP3    H2 2902   5.624   2.342   2.995  2.2381 -2.2786 -0.0566
  966TIP3   OH2 2903   3.651   4.096   4.554 -0.7733  0.4959 -0.1317
  966TIP3    H1 2904   3.741   4.100   4.523  0.0578  1.3610  2.1677
  966TIP3    H2 2905   3.604   4.162   4.503  0.2605  1.1244 -0.2781
  967TIP3   OH2 2906   0.996   0.375   2.337  0.4682  0.1576 -0.5535
  967TIP3    H1 2907   1.018   0.302   2.394 -0.4759 -1.1225 -1.7440
  967TIP3    H2 2908   0.925   0.420   2.382  0.7215  0.0491 -0.0401
  968TIP3   OH2 2909   0.266   0.780   3.329  0.5796 -0.0839  0.6377
  968TIP3    H1 2910   0.360   0.783   3.312  0.6445 -0.2431  0.9517
  968TIP3    H2 2911   0.227   0.748   3.248  0.8557 -0.6441  0.7279
  969TIP3   OH2 2912   4.218   5.099   0.178  0.0189 -0.0552 -0.4933
  969TIP3    H1 2913   4.280   5.097   0.251 -0.9211 -1.2208  0.3100
  969TIP3    H2 2914   4.233   5.184   0.136  0.2989  0.8243  1.2862
  970TIP3   OH2 2915   2.671   4.538   4.237  0.6130 -0.2801  0.4181
  970TIP3    H1 2916   2.743   4.557   4.298  1.8613 -0.5770 -0.9000
  970TIP3    H2 2917   2.641   4.451   4.262  0.8884 -0.2629  0.8271
  971TIP3   OH2 2918   2.493   4.544   2.155 -0.6333 -0.3470  0.1372
  971TIP3    H1 2919   2.497   4.505   2.242  1.3449 -0.2430  0.1478
  971TIP3    H2 2920   2.569   4.508   2.110 -1.2222  0.1717 -1.3079
  972TIP3   OH2 2921   4.706   4.047   2.306 -0.0681 -0.5533 -0.3804
  972TIP3    H1 2922   4.729   4.087   2.222 -0.1929  0.5180  0.0769
  972TIP3    H2 2923   4.643   3.979   2.283 -3.0187  2.0921 -0.9217
  973TIP3   OH2 2924   0.750   5.931   1.244  0.1036  0.0379 -0.1072
  973TIP3    H1 2925   0.800   5.972   1.315  0.3844  2.4808 -1.5952
  973TIP3    H2 2926   0.814   5.876   1.199  0.8543  1.2132 -0.5177
  974TIP3   OH2 2927   5.351   0.386   0.217  0.4196  0.6678 -0.5345
  974TIP3    H1 2928   5.382   0.343   0.138  1.1862  0.1775  0.0179
  974TIP3    H2 2929   5.429   0.431   0.252  0.3806 -0.0480  0.5292
  975TIP3   OH2 2930   1.147   3.282   3.657 -0.4819  0.1291  0.4000
  975TIP3    H1 2931   1.154   3.258   3.749  1.1300 -1.3348 -0.0587
  975TIP3    H2 2932   1.054   3.270   3.636 -0.3584 -2.4453  1.0971
  976TIP3   OH2 2933   4.817   5.722   4.782  0.3917 -0.4510 -0.0800
  976TIP3    H1 2934   4.822   5.627   4.793 -2.3288 -0.8224 -1.2227
  976TIP3    H2 2935   4.874   5.757   4.850  0.0703 -2.8666  1.5686
  977TIP3   OH2 2936   3.061   4.307   3.859  0.2195  0.0860  0.5593
  977TIP3    H1 2937   3.074   4.213   3.857 -1.6937 -0.2029 -0.8495
  977TIP3    H2 2938   2.971   4.319   3.890 -0.0405  1.3658 -0.5872
  978TIP3   OH2 2939   1.778   4.542   4.142  0.2688  0.4515 -0.1767
  978TIP3    H1 2940   1.873   4.550   4.132  0.2656  1.5080  0.4832
  978TIP3    H2 2941   1.757   4.457   4.104  1.4429  0.3215 -0.5770
  979TIP3   OH2 2942   4.057   5.367   0.339 -0.9279  0.4864  0.5986
  979TIP3    H1 2943   4.043   5.277   0.369 -0.8680 -0.5021 -2.0868
  979TIP3    H2 2944   4.151   5.381   0.346 -0.4715 -0.8402 -1.7724
  980TIP3   OH2 2945   5.094   5.141   0.037 -0.0960  0.4595 -0.0035
  980TIP3    H1 2946   5.174   5.120  -0.010 -0.9069  0.2669 -1.3428
  980TIP3    H2 2947   5.053   5.210  -0.015 -1.3655 -0.2552  0.0057
  981TIP3   OH2 2948   2.543   4.548   3.932  0.2758 -0.5649 -0.0750
  981TIP3    H1 2949   2.546   4.633   3.976 -0.6683 -0.2405 -0.6081
  981TIP3    H2 2950   2.539   4.484   4.003  0.4074 -0.1393  0.3232
  982TIP3   OH2 2951   4.667   2.851   0.637  0.8934 -0.0059  0.2756
  982TIP3    H1 2952   4.690   2.761   0.616  1.0159 -0.3139  1.6319
  982TIP3    H2 2953   4.630   2.847   0.725 -0.2698  1.1059 -0.1185
  983TIP3   OH2 2954   3.945   5.224   2.753  0.4605 -0.2179  0.4454
  983TIP3    H1 2955   3.917   5.132   2.751  0.1089 -0.1274  0.8379
  983TIP3    H2 2956   4.040   5.220   2.764  0.9760 -0.5569 -3.0005
  984TIP3   OH2 2957   5.784   1.240   2.480 -0.1978 -0.5544  0.3452
  984TIP3    H1 2958   5.716   1.230   2.414  0.6363  0.8174 -0.7938
  984TIP3    H2 2959   5.780   1.333   2.504 -0.2834 -0.9740  2.0195
  985TIP3   OH2 2960   0.515   0.919   4.893 -0.3994  0.3362 -0.3296
  985TIP3    H1 2961   0.423   0.896   4.904 -0.3606  0.4845  0.3214
  985TIP3    H2 2962   0.513   1.007   4.855 -0.5256  0.4016 -0.1708
  986TIP3   OH2 2963   4.454   0.538   1.104  0.0611  0.0250 -0.5094
  986TIP3    H1 2964   4.433   0.610   1.164  1.5275  0.3487 -0.3390
  986TIP3    H2 2965   4.416   0.565   1.020 -1.2108 -0.0017  0.0326
  987TIP3   OH2 2966   0.433   1.331   3.867  0.0471  0.5042 -0.3317
  987TIP3    H1 2967   0.518   1.310   3.829 -1.2741 -0.0702 -3.2643
  987TIP3    H2 2968   0.382   1.367   3.794 -2.2953  0.6364  1.2528
  988TIP3   OH2 2969   0.784   4.286   1.121 -0.2788 -0.0323  0.1289
  988TIP3    H1 2970   0.865   4.236   1.132 -1.8061 -2.2238  2.7532
  988TIP3    H2 2971   0.733   4.236   1.057 -0.8625 -0.5616  0.9897
  989TIP3   OH2 2972   5.659   2.100   0.369  0.2203  0.3766 -0.0465
  989TIP3    H1 2973   5.601   2.176   0.376  0.5811  0.8126 -1.4088
  989TIP3    H2 2974   5.614   2.031   0.417 -0.2368  1.3733  1.0017
  990TIP3   OH2 2975   0.519   1.828   0.775  0.3645  0.4405  0.0598
  990TIP3    H1 2976   0.587   1.801   0.837 -0.2221 -0.8193  0.1990
  990TIP3    H2 2977   0.439   1.831   0.827  0.4668  3.2018  0.1907
  991TIP3   OH2 2978   5.012   1.789   4.028  0.3195  0.4380  0.2072
  991TIP3    H1 2979   5.008   1.699   3.996 -1.4025  0.9717 -1.2107
  991TIP3    H2 2980   5.080   1.831   3.974  0.8996  0.0938  0.6568
  992TIP3   OH2 2981   4.550   2.214   1.422 -0.7562 -0.7246 -0.3521
  992TIP3    H1 2982   4.509   2.178   1.501  0.8460  0.7913  1.2360
  992TIP3    H2 2983   4.490   2.284   1.395 -0.5877 -0.2742  0.4005
  993TIP3   OH2 2984   2.520   3.083   0.450 -0.1573  0.2287 -0.7247
  993TIP3    H1 2985   2.440   3.083   0.502 -0.2546 -0.0206 -0.8679
  993TIP3    H2 2986   2.590   3.070   0.513 -0.3151 -0.5982 -0.7085
  994TIP3   OH2 2987   2.820   0.894   5.012 -0.0859  0.5474  0.0779
  994TIP3    H1 2988   2.792   0.984   5.032  0.5572  0.4337  1.6077
  994TIP3    H2 2989   2.796   0.882   4.920  1.0606  2.7776 -0.6125
  995TIP3   OH2 2990   1.568   3.111   3.249  0.2880 -0.5536  0.4572
  995TIP3    H1 2991   1.491   3.152   3.208 -0.3903 -0.5184  1.7029
  995TIP3    H2 2992   1.551   3.017   3.241  0.0855 -0.5456  0.7687
  996TIP3   OH2 2993   0.285   5.220   1.505 -0.1844 -0.0288 -0.1876
  996TIP3    H1 2994   0.255   5.274   1.579 -3.0943 -1.5172 -0.1380
  996TIP3    H2 2995   0.377   5.202   1.524 -0.4785  0.7657  2.3570
  997TIP3   OH2 2996   5.788   0.273   1.581  0.4811 -0.0334  0.4796
  997TIP3    H1 2997   5.854   0.342   1.575  0.0125  0.3732 -0.0444
  997TIP3    H2 2998   5.741   0.277   1.498  1.0549 -1.6192  0.0422
  998TIP3   OH2 2999   0.439   3.987   1.442  0.3407 -0.1504  0.0833
  998TIP3    H1 3000   0.528   4.023   1.439 -0.1901  1.2437 -0.0083
  998TIP3    H2 3001   0.389   4.042   1.381 -0.6458 -0.7230  0.3519
  999TIP3   OH2 3002   4.713   3.261   2.114  0.0340 -0.1764  0.0748
  999TIP3    H1 3003   4.788   3.220   2.073 -0.8408 -1.9313  0.1321
  999TIP3    H2 3004   4.707   3.221   2.201 -0.6887  0.2744  0.2489
 1000TIP3   OH2 3005   4.198   4.526   4.659 -0.7924 -0.3451  0.1202
 1000TIP3    H1 3006   4.241   4.538   4.743  1.2519  3.4039 -1.2111
 1000TIP3    H2 3007   4.129   4.593   4.657  0.0949  0.5897 -1.6113
 1001TIP3   OH2 3008   6.188   0.654   3.444 -0.0493  0.5206 -0.0465
 1001TIP3    H1 3009   6.195   0.720   3.375  1.8117  0.1409 -0.2827
 1001TIP3    H2 3010   6.260   0.674   3.504 -0.4409 -0.3417  0.7466
 1002TIP3   OH2 3011   1.319   3.673   5.062  0.2716  0.0793 -0.5573
 1002TIP3    H1 3012   1.280   3.738   5.122  1.2940 -1.0874  1.4912
 1002TIP3    H2 3013   1.325   3.719   4.978 -0.2538  2.1891  0.4749
 1003TIP3   OH2 3014   1.850   3.070   0.009 -0.3351 -0.5510  0.0407
 1003TIP3    H1 3015   1.927   3.105   0.054  0.6158 -0.8202 -1.3349
 1003TIP3    H2 3016   1.802   3.022   0.077  0.7260 -0.4177  0.9033
 1004TIP3   OH2 3017   1.655   0.022   0.136  0.0766 -0.5537  0.5951
 1004TIP3    H1 3018   1.716   0.031   0.209  0.6245 -2.8455  0.4652
 1004TIP3    H2 3019   1.705  -0.022   0.067 -0.4338  1.5296 -1.2285
 1005TIP3   OH2 3020   5.148   4.142   0.512  0.0759 -0.0503 -0.5814
 1005TIP3    H1 3021   5.101   4.181   0.586  0.8048  0.2968 -0.2849
 1005TIP3    H2 3022   5.161   4.215   0.451 -1.7719 -0.6202 -1.7498
 1006TIP3   OH2 3023   4.540   3.568   5.106  0.3348  0.2267  0.0395
 1006TIP3    H1 3024   4.607   3.500   5.105 -1.4520 -1.7333  2.2683
 1006TIP3    H2 3025   4.467   3.531   5.057  0.5319  2.0731 -1.7931
 1007TIP3   OH2 3026   2.263   0.261   4.545 -0.0950  0.3033  0.2139
 1007TIP3    H1 3027   2.332   0.310   4.590 -0.2763  1.6135 -0.8779
 1007TIP3    H2 3028   2.296   0.249   4.456 -0.9084  0.1755 -0.0780
 1008TIP3   OH2 3029   1.809   5.869   3.247 -0.6301 -0.3411 -0.4002
 1008TIP3    H1 3030   1.810   5.909   3.160 -2.3401 -0.8763 -0.6884
 1008TIP3    H2 3031   1.775   5.937   3.304 -1.4014 -0.6417 -0.4993
 1009TIP3   OH2 3032   4.057   2.201   4.817 -0.5026  0.3760  0.4035
 1009TIP3    H1 3033   4.087   2.175   4.904  0.7759 -0.0846 -0.1493
 1009TIP3    H2 3034   3.991   2.137   4.793  0.8539 -0.9488  0.0733
 1010TIP3   OH2 3035   5.057   1.728   1.177 -0.6421  0.1579  0.1392
 1010TIP3    H1 3036   4.984   1.718   1.116 -2.1220 -1.9552  2.1067
 1010TIP3    H2 3037   5.023   1.785   1.246 -1.0213 -1.9355  1.7773
 1011TIP3   OH2 3038   4.823   1.909   0.602  0.3219  0.2164 -0.5874
 1011TIP3    H1 3039   4.897   1.863   0.640 -2.3173 -2.8063  1.4327
 1011TIP3    H2 3040   4.813   1.987   0.656 -0.6666 -1.7542  2.3114
 1012TIP3   OH2 3041   5.742   5.734   0.008  0.2775  0.1093 -0.4914
 1012TIP3    H1 3042   5.835   5.753   0.023 -0.0155 -0.1088  2.0821
 1012TIP3    H2 3043   5.731   5.644   0.039 -0.5904 -0.3089 -1.9130
 1013TIP3   OH2 3044   2.278   4.487   4.672  0.7726  0.1340 -0.2353
 1013TIP3    H1 3045   2.268   4.435   4.592  1.9974  0.0384 -0.3500
 1013TIP3    H2 3046   2.316   4.426   4.736 -0.4322  0.1366  0.5245
 1014TIP3   OH2 3047   0.324   1.422   4.594  0.1829 -0.4155 -0.0843
 1014TIP3    H1 3048   0.345   1.486   4.662  0.2535 -1.4930  0.9204
 1014TIP3    H2 3049   0.408   1.386   4.568  0.1874  0.1909 -0.9769
 1015TIP3   OH2 3050   1.945   0.300   0.393  0.1330  0.1242 -0.2661
 1015TIP3    H1 3051   1.865   0.319   0.441  1.5006  0.6513  1.9191
 1015TIP3    H2 3052   1.981   0.386   0.370  0.0702 -0.1078 -1.3002
 1016TIP3   OH2 3053   0.159   3.612   2.438  0.2323  0.0274  0.1455
 1016TIP3    H1 3054   0.245   3.570   2.429  0.7954  1.3291 -0.9308
 1016TIP3    H2 3055   0.102   3.543   2.472  1.5263 -1.0765  0.1663
 1017TIP3   OH2 3056   5.714   0.197   5.139 -0.5226 -0.2631  0.3649
 1017TIP3    H1 3057   5.703   0.182   5.045 -0.9381  0.2065  0.3380
 1017TIP3    H2 3058   5.807   0.218   5.148 -0.5118 -0.1580  0.0386
 1018TIP3   OH2 3059   5.698   3.420   5.044 -0.1568  0.3855  0.1037
 1018TIP3    H1 3060   5.647   3.383   5.117 -0.1635  0.6742  0.2505
 1018TIP3    H2 3061   5.701   3.351   4.979 -0.0069  0.0620  0.4508
 1019TIP3   OH2 3062   0.691   2.163   3.642  0.0099 -0.3722  0.3680
 1019TIP3    H1 3063   0.749   2.144   3.716 -0.8413 -0.3158  1.0777
 1019TIP3    H2 3064   0.656   2.250   3.661  0.8189  0.2360 -0.8154
 1020TIP3   OH2 3065   1.465   2.907   4.183  0.0475 -0.7070 -0.1052
 1020TIP3    H1 3066   1.497   2.948   4.263  0.8963  0.2211 -0.8946
 1020TIP3    H2 3067   1.514   2.824   4.178  1.4814  0.1274 -0.6496
 1021TIP3   OH2 3068   0.902   3.670   4.078 -0.1934  0.1870  0.3946
 1021TIP3    H1 3069   0.857   3.613   4.140 -0.3581  0.3450  0.4205
 1021TIP3    H2 3070   0.994   3.660   4.099 -0.1714 -0.5574 -0.0089
 1022TIP3   OH2 3071   1.550   2.895   0.103 -0.3136 -0.3285 -0.3462
 1022TIP3    H1 3072   1.528   2.988   0.098  0.1933 -0.1811  0.1426
 1022TIP3    H2 3073   1.494   2.854   0.037  1.8958  0.7692 -3.0950
 1023TIP3   OH2 3074   2.041   3.946   0.136  0.4065  0.1618 -0.1551
 1023TIP3    H1 3075   2.104   3.950   0.208 -1.1030  0.8297  1.2079
 1023TIP3    H2 3076   1.995   3.864   0.149  0.4813  0.0290 -0.6996
 1024TIP3   OH2 3077   3.047   4.350   1.314 -0.2653  0.2819  0.7998
 1024TIP3    H1 3078   3.056   4.255   1.303 -0.4973  0.4577 -1.3008
 1024TIP3    H2 3079   3.051   4.385   1.225  1.3900  2.4133  1.6437
 1025TIP3   OH2 3080   3.712   5.845   4.895  0.1357 -0.4581  0.3989
 1025TIP3    H1 3081   3.636   5.835   4.953  0.0852 -0.7773  0.2816
 1025TIP3    H2 3082   3.730   5.756   4.864  1.0150 -0.5019  0.9955
 1026TIP3   OH2 3083   0.015   5.386   4.178 -0.0208 -0.3884  0.6433
 1026TIP3    H1 3084   0.005   5.349   4.091  3.4303 -0.9603  0.3752
 1026TIP3    H2 3085  -0.000   5.480   4.166  0.0866 -0.5068 -0.4976
 1027TIP3   OH2 3086   4.232   3.891   2.433 -0.0821  0.6151  0.3502
 1027TIP3    H1 3087   4.159   3.867   2.490 -0.5626  0.4461 -0.3278
 1027TIP3    H2 3088   4.277   3.809   2.415  0.6096  0.7869  1.1941
 1028TIP3   OH2 3089   3.208   3.561   0.347 -0.4078  0.1025  0.9093
 1028TIP3    H1 3090   3.179   3.601   0.265  0.0032  1.4571  1.3983
 1028TIP3    H2 3091   3.206   3.632   0.411  4.3301  0.5411  0.9317
 1029TIP3   OH2 3092   0.852   4.242   1.623 -0.1161  0.1919  0.7331
 1029TIP3    H1 3093   0.831   4.311   1.686  0.3137  1.0242 -0.0053
 1029TIP3    H2 3094   0.944   4.223   1.638 -0.2845 -0.3898  1.0757
 1030TIP3   OH2 3095   5.962   5.625   2.056 -0.1182 -0.5015 -0.0016
 1030TIP3    H1 3096   5.914   5.702   2.024  1.6616  1.0606  0.9286
 1030TIP3    H2 3097   5.948   5.625   2.150 -1.1282 -2.1059 -0.1119
 1031TIP3   OH2 3098   5.306   3.896   3.872  0.3722  0.0026 -0.0071
 1031TIP3    H1 3099   5.379   3.917   3.930  0.8583 -0.2780 -0.5108
 1031TIP3    H2 3100   5.337   3.822   3.819 -0.1902  0.0248 -0.3789
 1032TIP3   OH2 3101   3.348   1.915   4.886 -0.4373 -0.1750 -0.3154
 1032TIP3    H1 3102   3.355   1.988   4.825 -0.8174  0.0871 -0.0465
 1032TIP3    H2 3103   3.417   1.854   4.859 -0.1880  0.2353 -0.6005
 1033TIP3   OH2 3104   0.927   3.585   0.971 -0.4307 -0.5986 -0.1124
 1033TIP3    H1 3105   0.886   3.664   0.934  0.1886  0.1007  0.6658
 1033TIP3    H2 3106   0.926   3.599   1.065  0.1346 -1.2996  0.0054
 1034TIP3   OH2 3107   5.832   5.472   2.460  0.2394 -0.2474 -0.0157
 1034TIP3    H1 3108   5.853   5.385   2.425 -2.2330 -1.1109  0.4302
 1034TIP3    H2 3109   5.841   5.463   2.555  1.9230  0.6230 -0.0455
 1035TIP3   OH2 3110   1.037   1.215   2.897 -0.3867 -0.8396 -0.1225
 1035TIP3    H1 3111   1.122   1.259   2.889 -0.6989 -0.2798 -0.4081
 1035TIP3    H2 3112   0.994   1.258   2.970 -1.1638  0.1461 -1.1215
 1036TIP3   OH2 3113   0.641   1.219   3.054  0.1098 -0.1556 -0.8863
 1036TIP3    H1 3114   0.564   1.220   2.997 -1.0463  1.5985  0.5785
 1036TIP3    H2 3115   0.636   1.302   3.101  2.2577 -0.5507  0.1319
 1037TIP3   OH2 3116   1.022   2.791   5.109  0.3030  0.6116 -0.1877
 1037TIP3    H1 3117   1.096   2.813   5.053  0.8905 -0.5672  0.0990
 1037TIP3    H2 3118   1.028   2.853   5.181  0.4297  1.1614 -0.6650
 1038TIP3   OH2 3119   3.463   5.749   1.350 -0.3158 -0.4419  0.0239
 1038TIP3    H1 3120   3.554   5.769   1.370 -0.2703 -0.6080 -0.0188
 1038TIP3    H2 3121   3.416   5.831   1.366 -0.0795 -0.2103 -0.4514
 1039TIP3   OH2 3122   3.253   1.823   0.812 -0.5457 -0.3639  0.2600
 1039TIP3    H1 3123   3.341   1.784   0.813  0.3445  1.5087  0.5077
 1039TIP3    H2 3124   3.269   1.917   0.823 -2.6145  0.0039  0.4906
 1040TIP3   OH2 3125   3.235   4.143   2.515 -0.1319  0.1133  0.0918
 1040TIP3    H1 3126   3.321   4.183   2.499 -0.3504  0.3084 -0.6175
 1040TIP3    H2 3127   3.197   4.131   2.428 -1.0941  0.6095  0.4289
 1041TIP3   OH2 3128   0.384   5.380   3.890 -0.5468  0.7275  0.0811
 1041TIP3    H1 3129   0.465   5.349   3.851  0.8154  0.0883  3.1405
 1041TIP3    H2 3130   0.385   5.475   3.876  0.5488  0.6827 -0.1969
 1042TIP3   OH2 3131   3.339   0.337   1.440 -0.2620 -0.1452  0.4441
 1042TIP3    H1 3132   3.250   0.319   1.470 -0.6612  0.2687 -0.4632
 1042TIP3    H2 3133   3.352   0.278   1.367 -0.7433  1.5479 -1.0755
 1043TIP3   OH2 3134   2.070   5.722   3.073  0.4327 -0.2360  0.0337
 1043TIP3    H1 3135   2.002   5.697   3.012  0.6240 -0.4585 -0.0929
 1043TIP3    H2 3136   2.068   5.817   3.075  0.8536 -0.1984 -0.8130
 1044TIP3   OH2 3137   3.005   0.365   2.204  0.3800 -0.0090  0.1156
 1044TIP3    H1 3138   2.991   0.387   2.112 -0.1646 -0.9918 -0.0538
 1044TIP3    H2 3139   2.996   0.270   2.207 -0.2987  0.0786  1.2972
 1045TIP3   OH2 3140   0.119   3.535   3.595  0.2534  0.7682  0.9307
 1045TIP3    H1 3141   0.113   3.459   3.538 -1.0545 -0.7421  2.9095
 1045TIP3    H2 3142   0.039   3.585   3.577  0.2722  0.7608  0.8269
 1046TIP3   OH2 3143   0.275   5.065   4.966 -0.3433  0.0357 -0.0267
 1046TIP3    H1 3144   0.206   5.039   4.904  1.2624  0.5551 -2.1684
 1046TIP3    H2 3145   0.249   5.153   4.994 -0.0713  0.7019 -1.6994
 1047TIP3   OH2 3146   0.394   4.538   5.031 -0.5205  0.1077  0.1520
 1047TIP3    H1 3147   0.370   4.494   4.949 -1.0414 -0.5879  0.6718
 1047TIP3    H2 3148   0.375   4.475   5.099  0.0740  0.6225  0.8122
 1048TIP3   OH2 3149   1.517   3.668   2.886 -0.1932  0.4453  0.0721
 1048TIP3    H1 3150   1.608   3.687   2.864 -0.5346 -0.0679 -1.9173
 1048TIP3    H2 3151   1.468   3.743   2.852 -0.5519  0.6315  0.9699
 1049TIP3   OH2 3152   4.140   3.918   0.825 -0.0928  0.3949 -0.1845
 1049TIP3    H1 3153   4.114   3.835   0.785 -0.1809  0.6103 -0.5778
 1049TIP3    H2 3154   4.224   3.940   0.784  1.3366 -0.8597  1.8908
 1050TIP3   OH2 3155   0.982   4.432   4.170 -0.4611  0.7467 -0.4161
 1050TIP3    H1 3156   0.927   4.463   4.242 -0.4774  1.0951 -0.5771
 1050TIP3    H2 3157   1.053   4.496   4.165  1.1688 -0.7825  1.1766
 1051TIP3   OH2 3158   4.299   2.929   0.257 -0.0436  0.7893  0.0407
 1051TIP3    H1 3159   4.225   2.932   0.317  0.0545  1.8258  0.1196
 1051TIP3    H2 3160   4.261   2.905   0.172 -0.0873 -1.4078  0.6233
 1052TIP3   OH2 3161   2.517   3.644   2.710 -0.0129  0.2137  0.1143
 1052TIP3    H1 3162   2.590   3.706   2.717 -0.2906  0.4027  1.7929
 1052TIP3    H2 3163   2.439   3.698   2.720 -0.4201  0.0162 -1.7372
 1053TIP3   OH2 3164   5.012   4.234   4.699 -0.6642  0.1756  0.2804
 1053TIP3    H1 3165   4.999   4.329   4.696  0.0723  0.2573 -0.7259
 1053TIP3    H2 3166   4.926   4.197   4.681 -0.8128  0.6615 -0.0239
 1054TIP3   OH2 3167   2.035   3.805   1.855  0.2887 -0.1975 -0.0835
 1054TIP3    H1 3168   2.053   3.894   1.887  1.9494 -0.2075 -0.8720
 1054TIP3    H2 3169   1.991   3.818   1.771 -0.0277 -0.1249  0.0941
 1055TIP3   OH2 3170   1.373   0.337   3.323  0.1688 -0.5744 -0.3413
 1055TIP3    H1 3171   1.364   0.249   3.286  0.2155 -1.1628  0.9993
 1055TIP3    H2 3172   1.285   0.373   3.320 -0.3522 -1.5831  1.2411
 1056TIP3   OH2 3173   0.568   2.402   3.799 -0.6553 -0.6313  0.5428
 1056TIP3    H1 3174   0.478   2.424   3.775 -1.0033 -2.2004  0.3049
 1056TIP3    H2 3175   0.559   2.344   3.875  0.1684 -0.6666  0.6244
 1057TIP3   OH2 3176   3.544   4.002   2.306 -0.0201  0.6701  0.2620
 1057TIP3    H1 3177   3.536   4.045   2.221 -0.8701  1.2238  0.6011
 1057TIP3    H2 3178   3.529   3.909   2.288  0.2861  0.7168 -0.2560
 1058TIP3   OH2 3179   5.156   4.848   4.367  0.5265 -0.4800 -0.3518
 1058TIP3    H1 3180   5.065   4.839   4.394  0.8950  2.4276  2.3605
 1058TIP3    H2 3181   5.200   4.774   4.409 -0.1280 -0.1162  1.0403
 1059TIP3   OH2 3182   0.018   4.379   0.499  0.2282 -0.4110  0.0723
 1059TIP3    H1 3183   0.092   4.434   0.473  0.6148 -0.1605  1.5762
 1059TIP3    H2 3184  -0.059   4.431   0.477  0.5430  0.0136 -0.0456
 1060TIP3   OH2 3185   0.137   1.442   1.287  0.1394  0.5148  0.6258
 1060TIP3    H1 3186   0.183   1.362   1.311 -0.3693  0.3060  0.9249
 1060TIP3    H2 3187   0.064   1.413   1.234  0.0166  0.7899  0.6411
 1061TIP3   OH2 3188   3.832   3.057   2.077  0.5443 -0.0628  0.4270
 1061TIP3    H1 3189   3.838   3.070   2.172  3.0279 -1.1335  0.4948
 1061TIP3    H2 3190   3.917   3.021   2.053 -0.3122 -0.5446 -2.1196
 1062TIP3   OH2 3191   0.120   0.517   2.905  0.4410  0.1961  0.0418
 1062TIP3    H1 3192   0.059   0.491   2.975  1.5597 -2.1498  0.2320
 1062TIP3    H2 3193   0.072   0.500   2.824  0.1929  0.1265  0.2012
 1063TIP3   OH2 3194   3.348   3.721   0.671  0.0536  0.3547  0.7819
 1063TIP3    H1 3195   3.311   3.703   0.758 -0.7891  2.3113  0.8781
 1063TIP3    H2 3196   3.272   3.727   0.613  0.6225 -1.1881 -0.1794
 1064TIP3   OH2 3197   5.131   0.309   3.239  0.2915 -0.0111 -0.5527
 1064TIP3    H1 3198   5.194   0.239   3.254  1.0851  0.8033 -0.0228
 1064TIP3    H2 3199   5.173   0.388   3.273 -1.2705  0.4480  0.4856
 1065TIP3   OH2 3200   2.732   4.679   0.074 -0.0865  0.0296  0.1769
 1065TIP3    H1 3201   2.723   4.757   0.018  1.0923 -0.3161 -0.5183
 1065TIP3    H2 3202   2.785   4.619   0.023 -1.5165 -1.5280  0.4378
 1066TIP3   OH2 3203   5.266   0.312   0.696  0.8811  0.0559  0.1721
 1066TIP3    H1 3204   5.250   0.236   0.641 -1.2410  0.3943  0.2020
 1066TIP3    H2 3205   5.288   0.276   0.782  0.4050 -0.5234  0.0559
 1067TIP3   OH2 3206   3.130   0.737   1.521 -0.0739 -0.0461  0.1312
 1067TIP3    H1 3207   3.204   0.766   1.466 -1.7236  0.1514 -2.1306
 1067TIP3    H2 3208   3.112   0.648   1.491  1.0517 -1.2733  2.7728
 1068TIP3   OH2 3209   0.035   3.412   3.197 -0.2479  0.1560  0.0082
 1068TIP3    H1 3210   0.073   3.377   3.278  0.7709 -2.4213 -1.4402
 1068TIP3    H2 3211  -0.051   3.445   3.223 -0.3706 -1.4868  2.0001
 1069TIP3   OH2 3212   5.947   0.659   2.305  0.1249 -0.0042 -0.4367
 1069TIP3    H1 3213   6.030   0.643   2.350  0.6530  3.9027  0.3741
 1069TIP3    H2 3214   5.969   0.722   2.236 -2.2492  1.9446  0.4665
 1070TIP3   OH2 3215   4.584   3.794   2.241 -0.5008 -0.1098  0.1649
 1070TIP3    H1 3216   4.515   3.760   2.297 -0.2175 -0.1890  0.4636
 1070TIP3    H2 3217   4.625   3.716   2.204  0.5217 -0.1171  1.2945
 1071TIP3   OH2 3218   0.341   3.435   4.819 -1.0635 -0.3137  0.3143
 1071TIP3    H1 3219   0.406   3.467   4.756 -2.7521  2.7611 -0.0764
 1071TIP3    H2 3220   0.257   3.446   4.775 -2.1868  0.3548  2.4631
 1072TIP3   OH2 3221   4.662   2.160   0.068 -0.5824 -0.2196  0.3238
 1072TIP3    H1 3222   4.718   2.222   0.115 -0.5786  0.8711 -1.0304
 1072TIP3    H2 3223   4.582   2.155   0.120  0.2192 -0.6995  1.5351
 1073TIP3   OH2 3224   2.566   4.189   1.039 -0.1311  0.5725  0.1438
 1073TIP3    H1 3225   2.632   4.194   0.970 -0.9287 -1.3067 -0.8513
 1073TIP3    H2 3226   2.615   4.200   1.120  0.7599  3.4081 -0.6642
 1074TIP3   OH2 3227   0.621   4.768   0.212  0.3368 -1.1269 -0.2623
 1074TIP3    H1 3228   0.587   4.680   0.197 -0.2229 -0.8448 -0.7356
 1074TIP3    H2 3229   0.567   4.803   0.283 -1.3587 -0.1997 -1.8835
 1075TIP3   OH2 3230   1.222   3.029   4.902  0.2895 -0.0580 -0.1146
 1075TIP3    H1 3231   1.172   2.949   4.885  1.0484 -0.2929 -1.3988
 1075TIP3    H2 3232   1.156   3.095   4.920 -0.4345 -0.6035 -0.7088
 1076TIP3   OH2 3233   4.069   5.160   1.202 -0.3843 -0.3441 -0.0197
 1076TIP3    H1 3234   4.009   5.231   1.181  0.7741  0.2200 -1.6593
 1076TIP3    H2 3235   4.066   5.152   1.298 -3.3278 -0.6431 -0.0631
 1077TIP3   OH2 3236   5.923   2.829   4.781 -0.1592 -0.8585 -0.6815
 1077TIP3    H1 3237   5.901   2.880   4.859 -1.2725  0.9249 -2.0898
 1077TIP3    H2 3238   6.014   2.802   4.795 -0.2832 -0.4517  1.1425
 1078TIP3   OH2 3239   2.154   2.168   1.970  0.4760  0.1997  0.1002
 1078TIP3    H1 3240   2.094   2.207   1.906  2.7237 -0.0254 -2.3209
 1078TIP3    H2 3241   2.189   2.243   2.018 -0.1884  0.5314  0.0761
 1079TIP3   OH2 3242   1.776   5.358   0.719 -0.5010  0.2707 -0.1269
 1079TIP3    H1 3243   1.864   5.336   0.686 -0.3433 -0.0866  0.5114
 1079TIP3    H2 3244   1.728   5.275   0.718  0.3670 -0.4419  3.1237
 1080TIP3   OH2 3245   4.572   0.537   2.734 -0.7292 -0.4080 -0.1060
 1080TIP3    H1 3246   4.590   0.628   2.710 -0.8135  0.3618  2.4850
 1080TIP3    H2 3247   4.504   0.509   2.671 -1.3988  1.6346 -0.3658
 1081TIP3   OH2 3248   5.789   1.415   4.344  0.8310 -0.2471 -0.0279
 1081TIP3    H1 3249   5.788   1.441   4.436  0.5196  1.9317 -0.5986
 1081TIP3    H2 3250   5.701   1.380   4.328  0.2696  1.0840  0.0612
 1082TIP3   OH2 3251   2.850   4.332   2.452  0.0836 -0.7531  0.5573
 1082TIP3    H1 3252   2.918   4.275   2.417  0.1844 -0.7720  0.7830
 1082TIP3    H2 3253   2.773   4.275   2.462 -0.2875 -0.4992 -0.6831
 1083TIP3   OH2 3254   3.804   0.545   1.116 -0.8313  0.3366 -0.2785
 1083TIP3    H1 3255   3.796   0.638   1.094 -0.9790 -0.1258 -2.4490
 1083TIP3    H2 3256   3.726   0.505   1.078 -0.5998 -0.7353  0.3374
 1084TIP3   OH2 3257   0.950   2.176   3.076  0.2920  0.3203 -0.1629
 1084TIP3    H1 3258   1.025   2.191   3.134 -0.1654  1.7027  0.1060
 1084TIP3    H2 3259   0.884   2.137   3.133  0.9632 -1.4266 -0.5228
 1085TIP3   OH2 3260   4.005   1.943   2.615  0.3090  0.2726 -0.2131
 1085TIP3    H1 3261   3.957   1.950   2.532 -0.2529 -0.0822  0.0704
 1085TIP3    H2 3262   4.035   2.032   2.633  1.1090  0.2189 -1.1798
 1086TIP3   OH2 3263   1.054   5.543   0.931  0.0400 -0.4402  0.3486
 1086TIP3    H1 3264   1.098   5.510   1.010  0.7879  1.4409  0.7625
 1086TIP3    H2 3265   1.022   5.630   0.955 -0.0644  0.0202 -1.3013
 1087TIP3   OH2 3266   1.681   4.537   4.450 -0.3578 -0.7837 -0.2515
 1087TIP3    H1 3267   1.635   4.456   4.470 -0.7279 -1.0155 -1.9030
 1087TIP3    H2 3268   1.680   4.543   4.354 -0.5683  1.2983 -0.1725
 1088TIP3   OH2 3269   2.298   5.434   3.049 -0.6454  0.0079 -0.2391
 1088TIP3    H1 3270   2.276   5.493   3.121 -0.1630 -1.2633  0.9993
 1088TIP3    H2 3271   2.214   5.408   3.012 -0.8799  0.9799 -0.4119
 1089TIP3   OH2 3272   0.113   0.099   2.938 -0.2131  0.0959 -0.2405
 1089TIP3    H1 3273   0.068   0.140   2.864  1.1983 -1.5244 -2.1015
 1089TIP3    H2 3274   0.054   0.028   2.965 -0.5265  0.4083 -0.0930
 1090TIP3   OH2 3275   0.163   3.733   4.407  0.2601  0.1250 -0.0024
 1090TIP3    H1 3276   0.078   3.774   4.418 -0.2099 -0.7897 -0.0863
 1090TIP3    H2 3277   0.149   3.666   4.339  1.0873  0.0849 -0.1515
 1091TIP3   OH2 3278   5.128   1.144   2.099 -0.1463  0.3482 -0.4973
 1091TIP3    H1 3279   5.147   1.174   2.188  0.1771  1.0115 -0.7864
 1091TIP3    H2 3280   5.033   1.141   2.094 -0.1887 -1.4683  0.4539
 1092TIP3   OH2 3281   4.583   2.624   3.871  0.1305  0.2785  0.0567
 1092TIP3    H1 3282   4.580   2.707   3.919 -0.2062  0.1241  0.3024
 1092TIP3    H2 3283   4.666   2.584   3.899  0.7387  0.9241 -0.7333
 1093TIP3   OH2 3284   2.723   2.568   4.134  0.3292 -0.6812 -0.1638
 1093TIP3    H1 3285   2.743   2.512   4.059 -0.3264  1.7513 -2.3176
 1093TIP3    H2 3286   2.629   2.557   4.147 -0.0761  0.8086 -1.4900
 1094TIP3   OH2 3287   0.596   4.666   3.008  0.0007  0.3575 -0.1443
 1094TIP3    H1 3288   0.514   4.637   2.970 -1.8091  1.6273  2.4704
 1094TIP3    H2 3289   0.570   4.719   3.084  3.2404  0.6849  0.8989
 1095TIP3   OH2 3290   5.664   5.646   3.801 -0.2913  0.6784 -0.7446
 1095TIP3    H1 3291   5.572   5.669   3.818 -0.2557 -0.4310  1.3354
 1095TIP3    H2 3292   5.713   5.685   3.873  0.5887 -0.3841 -0.7349
 1096TIP3   OH2 3293   6.229   0.398   0.184 -0.0613 -0.4764 -0.3323
 1096TIP3    H1 3294   6.186   0.314   0.202 -0.9388 -0.0056 -0.1875
 1096TIP3    H2 3295   6.292   0.409   0.255 -1.2881 -0.1133  0.7241
 1097TIP3   OH2 3296   6.015   3.687   4.449 -0.1903  0.7120  0.1386
 1097TIP3    H1 3297   5.968   3.651   4.375 -0.0065  0.0363  0.3479
 1097TIP3    H2 3298   5.957   3.755   4.484 -0.9460 -0.0187  0.3175
 1098TIP3   OH2 3299   6.278   0.663   1.088  0.0252  0.5340 -0.1330
 1098TIP3    H1 3300   6.367   0.680   1.056 -0.5674  1.3010 -1.4380
 1098TIP3    H2 3301   6.225   0.655   1.009 -0.5659 -3.1596  0.4555
 1099TIP3   OH2 3302   1.824   3.009   1.042 -0.0221 -0.1799  0.5571
 1099TIP3    H1 3303   1.769   2.964   1.106 -0.8496 -0.2640 -0.1907
 1099TIP3    H2 3304   1.904   3.031   1.090 -0.5249 -0.4499  1.5447
 1100TIP3   OH2 3305   1.704   4.983   4.050 -0.2655 -0.0021 -0.1991
 1100TIP3    H1 3306   1.688   4.941   4.135  1.4419 -0.2210  0.0616
 1100TIP3    H2 3307   1.720   4.910   3.990  0.0240  0.1996 -0.3671
 1101TIP3   OH2 3308   3.131   0.619   4.262  0.5088  0.1256 -0.1945
 1101TIP3    H1 3309   3.115   0.646   4.172  1.6185  0.2481 -0.3800
 1101TIP3    H2 3310   3.138   0.700   4.311 -0.6793  0.0435  0.1193
 1102TIP3   OH2 3311   0.249   4.871   1.253 -0.2764  0.3265  0.1528
 1102TIP3    H1 3312   0.336   4.905   1.272  0.1533 -0.4964 -0.2693
 1102TIP3    H2 3313   0.191   4.916   1.314  0.6591 -0.2302  1.5022
 1103TIP3   OH2 3314   5.148   3.130   1.150  0.0919 -0.0492  0.1244
 1103TIP3    H1 3315   5.089   3.057   1.171 -0.6312  0.8554  1.4222
 1103TIP3    H2 3316   5.232   3.103   1.187 -0.3270  0.0116  1.1813
 1104TIP3   OH2 3317   1.835   4.177   0.514  0.9242  0.2732 -0.0466
 1104TIP3    H1 3318   1.872   4.200   0.429  1.3004  0.8925  0.2752
 1104TIP3    H2 3319   1.759   4.235   0.524 -1.0055 -1.8559 -1.2715
 1105TIP3   OH2 3320   2.958   1.887   3.936 -0.2265  0.6055 -0.6109
 1105TIP3    H1 3321   3.036   1.907   3.987 -0.0685 -1.6060  0.1307
 1105TIP3    H2 3322   2.887   1.932   3.982  0.4334  1.7507 -0.6790
 1106TIP3   OH2 3323   0.576   0.183   0.027  0.1327 -0.0347 -0.5273
 1106TIP3    H1 3324   0.647   0.119   0.039  0.4255  0.2073 -0.9512
 1106TIP3    H2 3325   0.605   0.260   0.075 -0.0101 -0.0607 -0.3993
 1107TIP3   OH2 3326   1.609   2.883   2.910 -0.1334  0.0105 -0.1072
 1107TIP3    H1 3327   1.663   2.805   2.893 -1.2766 -1.0814  1.0083
 1107TIP3    H2 3328   1.538   2.877   2.846 -0.8384 -0.5130  0.6991
 1108TIP3   OH2 3329   5.386   4.247   5.143  0.1243  0.1561  0.3301
 1108TIP3    H1 3330   5.443   4.290   5.206 -1.4913  1.8247  0.7144
 1108TIP3    H2 3331   5.418   4.277   5.058 -0.0204  0.9071  0.5334
 1109TIP3   OH2 3332   5.200   2.925   4.688 -0.5207 -0.2661  0.6603
 1109TIP3    H1 3333   5.239   2.887   4.767  1.1610  1.0657  0.4985
 1109TIP3    H2 3334   5.251   3.004   4.671 -1.3529 -0.1152 -1.3362
 1110TIP3   OH2 3335   3.597   0.863   4.392 -0.3761  0.1469 -0.0038
 1110TIP3    H1 3336   3.650   0.934   4.428 -0.3715 -0.1432  0.5776
 1110TIP3    H2 3337   3.511   0.874   4.434 -0.1251 -0.7025  0.7690
 1111TIP3   OH2 3338   2.043   0.497   4.081  0.0569 -0.4421 -0.0751
 1111TIP3    H1 3339   1.979   0.517   4.150  0.1291 -0.5371  0.0187
 1111TIP3    H2 3340   2.036   0.571   4.021 -0.0527 -0.3898 -0.0001
 1112TIP3   OH2 3341   3.465   2.285   3.405  0.7502  0.5829 -0.3340
 1112TIP3    H1 3342   3.533   2.222   3.428  0.9762  0.8263 -0.3302
 1112TIP3    H2 3343   3.410   2.292   3.483 -0.1078 -0.6690 -0.8039
 1113TIP3   OH2 3344   2.565   5.125   0.422 -0.3025  0.0298  0.8887
 1113TIP3    H1 3345   2.554   5.174   0.340 -0.1944 -1.1862  0.1300
 1113TIP3    H2 3346   2.518   5.177   0.487 -0.8506  0.7416 -0.0473
 1114TIP3   OH2 3347   2.807   5.065   2.548  0.3159  0.7560  0.1243
 1114TIP3    H1 3348   2.793   5.159   2.551 -0.0439  0.8068 -1.9167
 1114TIP3    H2 3349   2.746   5.033   2.481 -0.0160 -1.0182  1.2054
 1115TIP3   OH2 3350   5.746   5.501   1.241 -0.7124 -0.6009 -0.2749
 1115TIP3    H1 3351   5.753   5.556   1.319  2.6672 -2.2697  0.8170
 1115TIP3    H2 3352   5.777   5.557   1.170  1.5026 -0.5762  0.6135
 1116TIP3   OH2 3353   2.148   5.944   2.209  0.1145  0.4891  0.3467
 1116TIP3    H1 3354   2.209   6.017   2.217 -0.7094  1.4426 -1.5958
 1116TIP3    H2 3355   2.204   5.866   2.218  0.8065  1.2040  3.9795
 1117TIP3   OH2 3356   5.077   3.961   1.490  0.1479  0.3665 -0.3286
 1117TIP3    H1 3357   5.075   4.042   1.438  0.5361 -0.1032 -1.1012
 1117TIP3    H2 3358   5.171   3.945   1.504  0.0567  0.2543  0.1501
 1118TIP3   OH2 3359   6.197   4.463   2.133 -0.3830  0.1785  0.1898
 1118TIP3    H1 3360   6.249   4.487   2.210  0.3125  0.6014 -0.3969
 1118TIP3    H2 3361   6.161   4.377   2.154 -2.3008  1.3413  2.0434
 1119TIP3   OH2 3362   4.790   4.714   0.888 -0.0207  0.9864 -0.1593
 1119TIP3    H1 3363   4.781   4.753   0.801 -0.0428  1.2304 -0.0476
 1119TIP3    H2 3364   4.733   4.637   0.886  0.0493  0.9399 -0.3907
 1120TIP3   OH2 3365   4.844   2.519   4.424 -0.0521 -0.3287 -0.1808
 1120TIP3    H1 3366   4.924   2.571   4.431  0.3254 -0.3080 -3.2244
 1120TIP3    H2 3367   4.874   2.428   4.433  0.5785 -0.3894 -2.3367
 1121TIP3   OH2 3368   3.202   1.879   3.315  0.2439  0.4680 -0.3580
 1121TIP3    H1 3369   3.233   1.791   3.295 -1.2451 -0.2840  0.4437
 1121TIP3    H2 3370   3.282   1.931   3.325  1.3106 -1.3945  1.7521
 1122TIP3   OH2 3371   1.012   2.751   4.314  0.1490 -0.3542  0.0858
 1122TIP3    H1 3372   1.023   2.839   4.350 -1.7107  0.5139 -1.2737
 1122TIP3    H2 3373   0.920   2.729   4.331  0.8382 -2.4962  1.2951
 1123TIP3   OH2 3374   4.252   1.667   0.297 -0.0108 -0.2795  0.1699
 1123TIP3    H1 3375   4.215   1.592   0.250 -0.3624 -0.5894  0.9325
 1123TIP3    H2 3376   4.335   1.634   0.332  0.2548 -0.0471 -0.2399
 1124TIP3   OH2 3377   0.146   5.612   3.203  0.6073 -0.4635 -0.4526
 1124TIP3    H1 3378   0.138   5.516   3.204  2.5528 -0.6602  0.6671
 1124TIP3    H2 3379   0.164   5.633   3.111  1.3093 -1.2995 -0.5177
 1125TIP3   OH2 3380   5.529   5.809   2.822 -0.5430 -0.1631  0.0407
 1125TIP3    H1 3381   5.545   5.715   2.829  1.6281 -0.0458 -1.9572
 1125TIP3    H2 3382   5.597   5.849   2.877  0.3697  0.2313 -1.3187
 1126TIP3   OH2 3383   3.022   5.389   4.502  0.3546  0.3171  0.2139
 1126TIP3    H1 3384   3.071   5.403   4.421  0.5218 -0.9440  0.0646
 1126TIP3    H2 3385   2.944   5.444   4.494  0.5779  0.5175 -0.6160
 1127TIP3   OH2 3386   2.609   2.311   0.177 -0.2819  0.5627  0.1430
 1127TIP3    H1 3387   2.574   2.374   0.241 -1.2947  0.1233  0.0357
 1127TIP3    H2 3388   2.531   2.272   0.136  0.3079 -0.8977  0.3413
 1128TIP3   OH2 3389   1.560  -0.002   2.871 -0.6037  0.1025 -0.0296
 1128TIP3    H1 3390   1.634   0.036   2.918  0.6820 -0.5754 -1.3898
 1128TIP3    H2 3391   1.503   0.073   2.850  0.0539  0.7409  0.4243
 1129TIP3   OH2 3392   3.614   2.132   3.140 -0.0156 -0.1087  0.1242
 1129TIP3    H1 3393   3.641   2.067   3.076 -0.9067 -0.9320  0.5564
 1129TIP3    H2 3394   3.575   2.081   3.211 -0.5751  0.8836  0.5524
 1130TIP3   OH2 3395   4.955   0.693   2.157  0.2126 -0.3698  0.0417
 1130TIP3    H1 3396   4.998   0.758   2.213  1.7143 -1.5158  0.2937
 1130TIP3    H2 3397   4.864   0.693   2.186  0.5128  0.5493  1.0581
 1131TIP3   OH2 3398   0.811   3.849   1.899  0.0153  0.0102  0.2148
 1131TIP3    H1 3399   0.800   3.800   1.981 -2.9184 -2.7206 -1.5422
 1131TIP3    H2 3400   0.905   3.847   1.881  0.4835 -1.1157  2.4662
 1132TIP3   OH2 3401   4.525   4.812   0.324 -0.0308 -0.5263  0.3203
 1132TIP3    H1 3402   4.570   4.747   0.269 -1.4270 -1.2309 -0.0537
 1132TIP3    H2 3403   4.522   4.771   0.411 -2.3598 -1.7916 -0.2700
 1133TIP3   OH2 3404   2.558   3.654   0.688 -0.2119 -0.1302 -0.1158
 1133TIP3    H1 3405   2.477   3.700   0.665 -0.7027 -0.2961  1.1908
 1133TIP3    H2 3406   2.567   3.587   0.620 -0.7691  0.3475 -0.6847
 1134TIP3   OH2 3407   4.627   3.553   2.514  0.4070  0.2792  0.4109
 1134TIP3    H1 3408   4.608   3.491   2.444 -3.3042  1.3255  0.2664
 1134TIP3    H2 3409   4.661   3.498   2.585 -2.0697 -1.9286  0.0598
 1135TIP3   OH2 3410   4.927   0.014   0.277  0.0255  0.3349 -0.4307
 1135TIP3    H1 3411   5.009   0.064   0.284  0.2470 -0.1174  0.2507
 1135TIP3    H2 3412   4.863   0.067   0.325  0.3662 -0.2403  0.6962
 1136TIP3   OH2 3413   4.383   0.166   1.461  0.5764 -0.8307 -0.0478
 1136TIP3    H1 3414   4.314   0.213   1.415 -0.2576 -1.3819  0.5990
 1136TIP3    H2 3415   4.464   0.201   1.426 -0.0360 -0.3386 -1.0036
 1137TIP3   OH2 3416   5.517   0.412   4.417  0.2439  0.2911  0.2618
 1137TIP3    H1 3417   5.424   0.421   4.435  0.4042  1.7445  0.4793
 1137TIP3    H2 3418   5.548   0.502   4.405  1.3500 -0.2365 -1.1755
 1138TIP3   OH2 3419   6.083   4.762   3.111 -0.0619 -0.4544 -0.4496
 1138TIP3    H1 3420   6.167   4.744   3.068  0.7225  0.5423  0.6149
 1138TIP3    H2 3421   6.087   4.712   3.193 -0.3183 -0.0581 -0.1943
 1139TIP3   OH2 3422   2.925   0.022   1.507  0.3485 -0.0317 -0.3885
 1139TIP3    H1 3423   2.857  -0.044   1.518  2.6482 -2.4106  0.5771
 1139TIP3    H2 3424   2.962   0.033   1.595  2.1915  0.0021 -1.1183
 1140TIP3   OH2 3425   6.240   2.387   2.069 -0.0984  0.9080 -0.1996
 1140TIP3    H1 3426   6.198   2.315   2.116  1.8080  0.5938  1.1558
 1140TIP3    H2 3427   6.221   2.370   1.977 -0.3758 -0.8726  0.1469
 1141TIP3   OH2 3428   0.189   3.290   4.357  0.0655  0.1524  0.1009
 1141TIP3    H1 3429   0.123   3.345   4.399  1.4185  0.0107  2.6293
 1141TIP3    H2 3430   0.262   3.350   4.340  0.9652 -0.4890  1.4934
 1142TIP3   OH2 3431   1.376   3.881   2.799 -0.0740 -0.0082 -0.0531
 1142TIP3    H1 3432   1.365   3.968   2.759 -2.1258 -1.5947 -3.4255
 1142TIP3    H2 3433   1.287   3.847   2.806  0.6086 -1.5553  2.0768
 1143TIP3   OH2 3434   5.477   4.152   4.447 -0.1767  0.5710  0.4767
 1143TIP3    H1 3435   5.407   4.200   4.403  0.2273  0.1223 -0.6820
 1143TIP3    H2 3436   5.433   4.080   4.491 -0.4237  0.1479 -0.4529
 1144TIP3   OH2 3437   1.984   3.338   2.443 -0.1935 -0.4769  0.1994
 1144TIP3    H1 3438   1.892   3.320   2.426 -0.2407 -1.0869  1.0329
 1144TIP3    H2 3439   2.027   3.253   2.434  0.2512 -0.2387  0.0419
 1145TIP3   OH2 3440   1.889   1.743   4.439 -0.4545 -0.1319 -0.2238
 1145TIP3    H1 3441   1.950   1.671   4.458  1.2302  0.9033 -1.5011
 1145TIP3    H2 3442   1.940   1.805   4.388 -2.3803  1.1795 -0.6467
 1146TIP3   OH2 3443   3.560   0.552   0.880 -0.0495  0.0804 -0.7287
 1146TIP3    H1 3444   3.473   0.534   0.845  0.6893 -1.8808 -1.6834
 1146TIP3    H2 3445   3.563   0.504   0.963  0.9014 -1.8977 -1.8497
 1147TIP3   OH2 3446   5.311   3.354   3.152  0.2151  0.0317  0.0726
 1147TIP3    H1 3447   5.318   3.428   3.091 -1.0091  0.2766  0.2183
 1147TIP3    H2 3448   5.288   3.393   3.236 -0.0874 -0.4916  0.2377
 1148TIP3   OH2 3449   4.307   4.561   1.500 -0.1337  0.6422 -0.1234
 1148TIP3    H1 3450   4.312   4.651   1.468 -2.3246  1.1374  0.7376
 1148TIP3    H2 3451   4.258   4.515   1.432 -0.8199  0.6142  0.3832
 1149TIP3   OH2 3452   0.614   1.828   4.134  0.5794 -0.1166 -0.7056
 1149TIP3    H1 3453   0.681   1.771   4.097 -0.1611 -0.7328 -1.1061
 1149TIP3    H2 3454   0.552   1.768   4.176  1.0449  0.5214  0.9706
 1150TIP3   OH2 3455   5.865   0.153   0.932  0.4650 -0.8453 -0.2345
 1150TIP3    H1 3456   5.785   0.109   0.903  0.0856  0.7183 -1.7061
 1150TIP3    H2 3457   5.834   0.235   0.971  1.3259 -0.3733 -0.5163
 1151TIP3   OH2 3458   5.063   4.654   1.035  0.3073 -0.2893 -0.5876
 1151TIP3    H1 3459   5.057   4.657   1.130  0.4078  0.9129 -0.6075
 1151TIP3    H2 3460   5.000   4.720   1.004 -1.8374 -2.5753 -1.4733
 1152TIP3   OH2 3461   2.501   1.705   0.587 -0.4484  0.3830  0.1294
 1152TIP3    H1 3462   2.460   1.641   0.530 -2.5752  0.5520  1.3573
 1152TIP3    H2 3463   2.578   1.660   0.624 -1.3095 -1.0988  0.1721
 1153TIP3   OH2 3464   2.123   5.422   3.759  0.2050  0.4358 -0.3128
 1153TIP3    H1 3465   2.140   5.328   3.761 -0.6365  0.2835  1.7648
 1153TIP3    H2 3466   2.040   5.433   3.805  0.3007  2.2139 -0.4831
 1154TIP3   OH2 3467   0.042   0.062   3.904  0.1626 -0.1923  0.2327
 1154TIP3    H1 3468  -0.000  -0.001   3.962  1.5897  0.1540  1.7039
 1154TIP3    H2 3469   0.134   0.037   3.904  0.4048  0.5901 -0.9070
 1155TIP3   OH2 3470   5.543   0.431   1.877 -0.7917 -0.3109 -0.5696
 1155TIP3    H1 3471   5.497   0.386   1.807  3.5790 -0.4180 -3.8591
 1155TIP3    H2 3472   5.522   0.524   1.863 -2.5136 -0.5625  0.1801
 1156TIP3   OH2 3473   3.532   4.529   0.309  0.5054 -0.1529  0.0516
 1156TIP3    H1 3474   3.520   4.597   0.243  0.9739 -0.5697 -0.4703
 1156TIP3    H2 3475   3.508   4.572   0.392  1.1654  0.7614 -0.2131
 1157TIP3   OH2 3476   4.052   4.652   0.838  0.3882  0.0649  0.9642
 1157TIP3    H1 3477   4.079   4.562   0.855  1.8803  0.3328  0.1995
 1157TIP3    H2 3478   3.988   4.645   0.766  1.7518 -0.2901 -0.2595
 1158TIP3   OH2 3479   6.262   4.142   0.858 -0.2185  0.4631  0.3731
 1158TIP3    H1 3480   6.288   4.079   0.925 -0.4402  1.3339  1.3000
 1158TIP3    H2 3481   6.170   4.162   0.878 -0.2398  0.8509 -0.0866
 1159TIP3   OH2 3482   2.914   5.861   4.968 -0.5714 -0.1652 -0.0871
 1159TIP3    H1 3483   2.936   5.801   5.039 -0.4165  0.3389  0.2941
 1159TIP3    H2 3484   2.846   5.918   5.004 -0.9119 -0.2737 -0.5341
 1160TIP3   OH2 3485   5.084   4.455   2.187  0.0741 -0.2177  0.3889
 1160TIP3    H1 3486   5.109   4.528   2.131  0.7412 -0.0958  0.8414
 1160TIP3    H2 3487   5.020   4.493   2.248 -1.3064 -0.5411 -0.7919
 1161TIP3   OH2 3488   0.756   3.601   3.714 -0.4108  0.5213 -0.1749
 1161TIP3    H1 3489   0.829   3.654   3.748  0.0253  0.1421 -0.4974
 1161TIP3    H2 3490   0.698   3.589   3.789 -0.5608  1.5138 -0.1106
 1162TIP3   OH2 3491   4.673   0.346   4.457 -0.1830 -0.3188 -0.3248
 1162TIP3    H1 3492   4.609   0.326   4.388  0.3058 -1.2994 -0.5009
 1162TIP3    H2 3493   4.748   0.291   4.437  0.9865  1.2621 -0.4639
 1163TIP3   OH2 3494   4.092   2.395   0.159  0.2118  0.4480 -0.0284
 1163TIP3    H1 3495   4.127   2.469   0.209 -1.4836  0.7397  0.7982
 1163TIP3    H2 3496   4.122   2.410   0.070  1.8620  0.8479  0.5472
 1164TIP3   OH2 3497   6.235   3.958   4.484  0.1545  1.2038 -0.4031
 1164TIP3    H1 3498   6.158   4.014   4.483 -0.0928  0.8556 -0.7815
 1164TIP3    H2 3499   6.215   3.887   4.424  0.9185  1.3103 -0.8034
 1165TIP3   OH2 3500   0.984   0.309   4.011  0.3131  0.0431  0.1021
 1165TIP3    H1 3501   0.990   0.214   4.017 -0.0448  0.0926  1.6846
 1165TIP3    H2 3502   0.918   0.326   3.943 -2.1526 -0.9163  2.1294
 1166TIP3   OH2 3503   3.757   3.608   3.102 -0.0719  0.1151  0.2332
 1166TIP3    H1 3504   3.695   3.544   3.138  0.2315  0.0008  0.5508
 1166TIP3    H2 3505   3.808   3.558   3.038  0.7944 -0.2065  1.1436
 1167TIP3   OH2 3506   0.777   5.782   3.915  0.4277 -0.2250  0.2760
 1167TIP3    H1 3507   0.738   5.701   3.949 -0.4292  0.3081  0.6205
 1167TIP3    H2 3508   0.860   5.790   3.961  0.8844 -1.3005 -0.3321
 1168TIP3   OH2 3509   4.907   5.155   4.350 -0.5088  0.1615  0.2872
 1168TIP3    H1 3510   4.820   5.117   4.336 -0.9035  1.0069  0.3788
 1168TIP3    H2 3511   4.908   5.232   4.295  1.2871 -1.3965 -2.0284
 1169TIP3   OH2 3512   0.643   2.495   2.309  0.2861 -0.1718 -0.3264
 1169TIP3    H1 3513   0.616   2.568   2.365  0.6847  0.2689 -0.7091
 1169TIP3    H2 3514   0.569   2.434   2.313 -0.3539  0.5724 -0.5674
 1170TIP3   OH2 3515   4.596   5.707   4.572 -0.7220 -0.6606 -0.5187
 1170TIP3    H1 3516   4.613   5.621   4.533  0.3300 -1.4571  1.5351
 1170TIP3    H2 3517   4.673   5.724   4.627 -2.3419  0.0591  1.6711
 1171TIP3   OH2 3518   2.875   0.141   4.674  0.9223  0.8546 -0.4487
 1171TIP3    H1 3519   2.831   0.071   4.722  1.7807  0.5771 -0.0364
 1171TIP3    H2 3520   2.861   0.220   4.726  1.6613  0.5964  0.1609
 1172TIP3   OH2 3521   1.289   0.387   4.655 -0.8374  0.2605  0.3348
 1172TIP3    H1 3522   1.321   0.473   4.626  0.4261 -0.8037 -1.6379
 1172TIP3    H2 3523   1.335   0.371   4.738  0.1448  0.8164 -0.0813
 1173TIP3   OH2 3524   3.716   3.614   3.875  0.4978  0.3963 -0.6859
 1173TIP3    H1 3525   3.690   3.693   3.921 -1.2525  0.8217 -2.2633
 1173TIP3    H2 3526   3.713   3.638   3.782 -0.4682 -1.5941 -1.2305
 1174TIP3   OH2 3527   4.312   5.432   2.782 -0.1312  0.0769  0.2292
 1174TIP3    H1 3528   4.265   5.363   2.829 -0.0628  0.7361  1.2707
 1174TIP3    H2 3529   4.300   5.511   2.834 -0.2853  0.8983 -0.9971
 1175TIP3   OH2 3530   6.239   2.403   2.453  0.5107 -0.4470  0.0106
 1175TIP3    H1 3531   6.298   2.463   2.408  1.4017 -0.4845  1.0949
 1175TIP3    H2 3532   6.151   2.431   2.425  0.9585  0.6641 -0.3353
 1176TIP3   OH2 3533   6.152   1.442   3.696 -0.6453 -0.5497 -0.1707
 1176TIP3    H1 3534   6.187   1.531   3.696  0.1081 -0.7769 -2.4012
 1176TIP3    H2 3535   6.057   1.454   3.699 -0.5519  0.3399 -0.4729
 1177TIP3   OH2 3536   0.158   5.821   4.142  0.2504  0.2546  0.0181
 1177TIP3    H1 3537   0.104   5.787   4.213  0.7591 -1.5204 -0.3972
 1177TIP3    H2 3538   0.226   5.872   4.186  1.4020 -1.9757  0.9902
 1178TIP3   OH2 3539   1.583   0.882   2.101 -0.4287 -0.2025 -0.2262
 1178TIP3    H1 3540   1.622   0.858   2.185 -2.7754  2.3936  1.7932
 1178TIP3    H2 3541   1.593   0.977   2.096 -0.8450 -0.2239 -2.6570
 1179TIP3   OH2 3542   5.539   1.759   3.006  0.8347  0.4170  0.5914
 1179TIP3    H1 3543   5.634   1.762   2.998  0.7625  3.6284 -1.0612
 1179TIP3    H2 3544   5.508   1.813   2.933 -2.2534 -0.1638  1.3310
 1180TIP3   OH2 3545   2.423   4.236   4.687  0.4686 -0.3642 -0.0418
 1180TIP3    H1 3546   2.514   4.213   4.668  0.8093  0.2048  0.8369
 1180TIP3    H2 3547   2.426   4.276   4.774 -0.4493  0.6937 -0.4682
 1181TIP3   OH2 3548   0.234   5.653   3.573 -0.1660 -0.2496  0.3552
 1181TIP3    H1 3549   0.142   5.646   3.598 -0.3010  1.7333  0.5980
 1181TIP3    H2 3550   0.241   5.740   3.534  2.0565  0.5831  2.3873
 1182TIP3   OH2 3551   5.636   3.987   3.423 -0.3396  0.1114 -0.2637
 1182TIP3    H1 3552   5.636   4.080   3.445  2.2094  0.5740 -1.7427
 1182TIP3    H2 3553   5.546   3.968   3.399 -0.9244  2.1850  0.0546
 1183TIP3   OH2 3554   5.584   1.999   1.467  0.3736 -0.1945 -0.2011
 1183TIP3    H1 3555   5.586   2.081   1.417  0.0296  0.0389  0.1686
 1183TIP3    H2 3556   5.506   2.006   1.521  0.0507 -1.0023 -0.5548
 1184TIP3   OH2 3557   0.855   1.745   2.159 -0.7528 -0.0560  0.2421
 1184TIP3    H1 3558   0.922   1.681   2.134  1.2549  1.3695  1.6465
 1184TIP3    H2 3559   0.798   1.699   2.219  0.4186 -0.6800  0.9149
 1185TIP3   OH2 3560   5.601   3.867   2.066 -0.1296  0.3370 -0.0668
 1185TIP3    H1 3561   5.620   3.893   1.976 -1.3203  0.1767 -0.3805
 1185TIP3    H2 3562   5.586   3.949   2.112 -2.2330  0.3535 -0.6734
 1186TIP3   OH2 3563   5.179   5.588   1.175  0.2504  0.4774  0.0284
 1186TIP3    H1 3564   5.175   5.676   1.212  1.0793  0.6219 -0.1986
 1186TIP3    H2 3565   5.160   5.600   1.082  1.0558  0.5303 -0.1425
 1187TIP3   OH2 3566   2.352   3.920   4.879  0.5400  0.2442 -0.2868
 1187TIP3    H1 3567   2.281   3.858   4.891  1.8872 -1.4587 -0.7149
 1187TIP3    H2 3568   2.352   3.939   4.785  0.3010  0.6870 -0.1985
 1188TIP3   OH2 3569   1.703   1.920   1.373 -0.3032 -0.2817 -0.0625
 1188TIP3    H1 3570   1.763   1.961   1.434 -0.7721 -1.0707  0.9596
 1188TIP3    H2 3571   1.759   1.882   1.306  0.2073  0.7225 -0.2222
 1189TIP3   OH2 3572   3.803   3.696   1.271 -0.3454  0.6939 -0.3320
 1189TIP3    H1 3573   3.756   3.623   1.232 -0.0769  0.0234  0.5757
 1189TIP3    H2 3574   3.794   3.683   1.366  0.5900  1.2420 -0.1568
 1190TIP3   OH2 3575   2.224   1.445   2.254 -0.0804  0.0483 -0.1031
 1190TIP3    H1 3576   2.180   1.408   2.331 -0.1641 -2.7100 -1.3308
 1190TIP3    H2 3577   2.185   1.531   2.243 -0.0214  0.5740  2.9378
 1191TIP3   OH2 3578   0.906   4.862   0.495 -0.5168  0.2536  0.0689
 1191TIP3    H1 3579   0.872   4.916   0.566 -0.5683  0.5577 -0.1847
 1191TIP3    H2 3580   0.901   4.919   0.418 -2.2662 -0.6797 -0.5702
 1192TIP3   OH2 3581   0.611   2.926   2.226  0.3262 -0.2552 -0.2328
 1192TIP3    H1 3582   0.637   2.834   2.234 -0.1635 -0.2376  2.7625
 1192TIP3    H2 3583   0.691   2.976   2.239 -0.0413 -0.2952  3.0756
 1193TIP3   OH2 3584   3.561   4.771   3.537  0.2569  0.0009  0.1105
 1193TIP3    H1 3585   3.533   4.696   3.483  0.3778 -0.1974  0.3223
 1193TIP3    H2 3586   3.649   4.748   3.565  0.2067  0.1215  0.3656
 1194TIP3   OH2 3587   2.078   3.663   2.265 -0.4586 -0.0947  0.6058
 1194TIP3    H1 3588   2.138   3.635   2.196  0.4082 -2.2249  2.1121
 1194TIP3    H2 3589   2.135   3.680   2.341 -1.5800 -0.2837  1.5200
 1195TIP3   OH2 3590   4.123   1.859   4.934  0.2456 -0.5294 -0.1642
 1195TIP3    H1 3591   4.191   1.916   4.972 -2.5849  2.4203  0.9361
 1195TIP3    H2 3592   4.110   1.790   4.998  0.6288  0.2105  0.7399
 1196TIP3   OH2 3593   4.395   1.913   1.797  0.0601 -0.0922 -0.5535
 1196TIP3    H1 3594   4.351   1.950   1.720 -0.4814 -0.2334 -0.3209
 1196TIP3    H2 3595   4.482   1.889   1.766  0.0590  0.4164 -0.9674
 1197TIP3   OH2 3596   0.039   4.741   0.614  0.4790 -0.3318 -0.3593
 1197TIP3    H1 3597   0.118   4.746   0.668  0.3221 -0.6542 -0.0980
 1197TIP3    H2 3598  -0.032   4.724   0.676  0.2881 -0.6352 -0.6578
 1198TIP3   OH2 3599   0.846   0.552   1.631 -0.1673 -0.0086  0.1468
 1198TIP3    H1 3600   0.934   0.530   1.661  0.4249 -0.3011 -1.6664
 1198TIP3    H2 3601   0.856   0.568   1.537 -2.2529 -1.3892 -0.3876
 1199TIP3   OH2 3602   4.417   0.026   4.104  0.0433 -0.3968  0.2277
 1199TIP3    H1 3603   4.367   0.072   4.172 -1.5884 -1.8495  0.0844
 1199TIP3    H2 3604   4.407   0.081   4.026 -2.3442 -1.1507 -0.0849
 1200TIP3   OH2 3605   5.908   0.166   3.025  0.5223 -0.4142  0.1453
 1200TIP3    H1 3606   5.822   0.123   3.029  0.4402 -0.1387  1.7436
 1200TIP3    H2 3607   5.927   0.172   2.931  0.9880 -4.7863 -0.2260
 1201TIP3   OH2 3608   3.673   5.946   2.852  0.9912  0.6045  0.1679
 1201TIP3    H1 3609   3.593   5.984   2.816  0.7478 -0.7353 -0.7545
 1201TIP3    H2 3610   3.649   5.917   2.940 -0.2827 -2.0305 -0.9675
 1202TIP3   OH2 3611   5.702   0.652   3.747 -0.2177 -0.4410 -0.0552
 1202TIP3    H1 3612   5.614   0.682   3.724 -0.8283 -1.2274  1.1445
 1202TIP3    H2 3613   5.753   0.733   3.759 -0.8979  0.0300 -0.2958
 1203TIP3   OH2 3614   1.383   1.240   1.505 -0.2497  0.3307  0.0649
 1203TIP3    H1 3615   1.401   1.173   1.570 -1.3947 -1.2353 -1.1670
 1203TIP3    H2 3616   1.298   1.216   1.468  0.0021  1.6251 -1.4627
 1204TIP3   OH2 3617   1.623   5.817   1.527 -0.3606  0.1986  0.2713
 1204TIP3    H1 3618   1.636   5.809   1.432 -0.8949  0.5431  0.1616
 1204TIP3    H2 3619   1.572   5.740   1.551 -0.2300  0.1143  0.2809
 1205TIP3   OH2 3620   5.275   1.494   2.710  0.1543  0.0547 -0.2783
 1205TIP3    H1 3621   5.365   1.471   2.685  0.1790 -0.3326  0.1521
 1205TIP3    H2 3622   5.285   1.543   2.791  0.1275  1.9577 -1.3783
 1206TIP3   OH2 3623   4.165   1.866   4.659  0.3530 -0.1886  0.5306
 1206TIP3    H1 3624   4.162   1.865   4.754 -0.4689  2.6855  0.6424
 1206TIP3    H2 3625   4.079   1.832   4.632  0.2695 -0.2322  0.8528
 1207TIP3   OH2 3626   0.234   2.918   0.038 -0.0224  0.1894 -0.4775
 1207TIP3    H1 3627   0.151   2.954   0.008 -0.9614 -2.1408 -0.9220
 1207TIP3    H2 3628   0.285   2.903  -0.042 -0.2315 -0.7285 -0.4566
 1208TIP3   OH2 3629   4.956   1.610   0.870  0.6129  0.3085 -0.6525
 1208TIP3    H1 3630   4.941   1.583   0.779 -1.0766 -0.2409 -0.2450
 1208TIP3    H2 3631   4.899   1.686   0.882 -2.3628 -2.0013  1.0489
 1209TIP3   OH2 3632   4.400   2.162   1.662 -0.0247  0.6440  0.5788
 1209TIP3    H1 3633   4.399   2.164   1.758  0.4231 -1.8789  0.7251
 1209TIP3    H2 3634   4.307   2.163   1.638 -0.2865 -1.5360  1.2558
 1210TIP3   OH2 3635   3.192   4.262   0.180  0.5982 -0.0510 -0.1403
 1210TIP3    H1 3636   3.251   4.281   0.108  0.6086 -0.4426 -0.2352
 1210TIP3    H2 3637   3.133   4.195   0.146 -0.5288  1.0120 -0.3781
 1211TIP3   OH2 3638   2.093   4.994   2.083 -0.1263 -0.1058 -0.0975
 1211TIP3    H1 3639   2.073   5.087   2.089  0.3685  0.0530 -0.8189
 1211TIP3    H2 3640   2.158   4.987   2.013 -0.4343 -1.0318 -0.3141
 1212TIP3   OH2 3641   1.448   2.897   4.859  0.2308  0.6012 -0.3900
 1212TIP3    H1 3642   1.389   2.968   4.881  0.5200  0.3169  1.4560
 1212TIP3    H2 3643   1.534   2.938   4.852  0.5163  0.3579  1.3928
 1213TIP3   OH2 3644   3.269   0.358   2.213  0.5399 -0.4129  0.3349
 1213TIP3    H1 3645   3.290   0.301   2.287 -0.1321 -0.1667  0.7265
 1213TIP3    H2 3646   3.175   0.370   2.218  0.2468 -1.5818 -1.4436
 1214TIP3   OH2 3647   2.162   5.567   4.623 -0.3642 -0.4804  0.2494
 1214TIP3    H1 3648   2.226   5.600   4.687 -0.8881  0.5707  0.2553
 1214TIP3    H2 3649   2.089   5.629   4.629 -0.1157  0.0915 -1.9110
 1215TIP3   OH2 3650   6.167   2.120   2.161  0.3275  0.2984  0.3245
 1215TIP3    H1 3651   6.118   2.142   2.240  2.0543  1.0682  1.2558
 1215TIP3    H2 3652   6.165   2.024   2.158 -0.8088  0.2992  0.5817
 1216TIP3   OH2 3653   5.519   3.393   0.473  0.2383  0.1910 -0.6273
 1216TIP3    H1 3654   5.431   3.405   0.509  0.6493 -0.3408  0.6445
 1216TIP3    H2 3655   5.568   3.469   0.504  1.2522 -1.4570  2.2407
 1217TIP3   OH2 3656   2.587   3.498   0.463 -0.2425 -0.2412 -0.4147
 1217TIP3    H1 3657   2.666   3.449   0.440  0.5960  0.5631  0.6327
 1217TIP3    H2 3658   2.514   3.439   0.442  0.6382 -1.1118 -1.1104
 1218TIP3   OH2 3659   4.179   3.335   0.464  0.0395  0.2665 -0.8858
 1218TIP3    H1 3660   4.196   3.398   0.394  0.8128  0.1939 -0.7682
 1218TIP3    H2 3661   4.175   3.250   0.419  2.1275  0.0126 -0.6722
 1219TIP3   OH2 3662   2.510   0.661   2.678  0.4135  0.0930  0.0577
 1219TIP3    H1 3663   2.550   0.589   2.629  0.1658 -0.3457  0.4957
 1219TIP3    H2 3664   2.417   0.656   2.657  0.0979 -0.9088  1.5675
 1220TIP3   OH2 3665   1.385   4.360   1.941 -0.2983  0.3318  0.5002
 1220TIP3    H1 3666   1.463   4.309   1.918 -0.4798  0.4909 -0.5118
 1220TIP3    H2 3667   1.410   4.451   1.926 -0.9763  0.3245 -0.8098
 1221TIP3   OH2 3668   1.241   3.101   0.352 -0.1813 -0.3703 -0.2007
 1221TIP3    H1 3669   1.173   3.163   0.325  0.6712  0.8533  0.3706
 1221TIP3    H2 3670   1.215   3.074   0.440 -0.5784 -0.8654 -0.4680
 1222TIP3   OH2 3671   1.787   3.292   3.258  0.0882 -0.6768  0.2381
 1222TIP3    H1 3672   1.828   3.293   3.171 -0.0167 -0.7466  0.1865
 1222TIP3    H2 3673   1.697   3.263   3.241  0.2553 -1.3306  0.4534
 1223TIP3   OH2 3674   4.194   2.175   3.412  0.4380  0.6982 -0.2822
 1223TIP3    H1 3675   4.200   2.082   3.393 -0.6547  0.2531  1.2943
 1223TIP3    H2 3676   4.284   2.202   3.433  0.5611 -0.3520  0.6249
 1224TIP3   OH2 3677   0.999   5.309   0.317 -0.4743 -0.2609 -0.2438
 1224TIP3    H1 3678   1.042   5.253   0.381  0.8382 -1.1201 -1.7987
 1224TIP3    H2 3679   0.929   5.254   0.281 -3.1836  1.1753  2.3753
 1225TIP3   OH2 3680   1.819   5.219   3.994 -0.0683  0.2638 -0.3083
 1225TIP3    H1 3681   1.776   5.135   4.010  3.0957 -1.3706  0.5423
 1225TIP3    H2 3682   1.749   5.283   3.996 -2.2702 -1.9859  2.2703
 1226TIP3   OH2 3683   4.108   5.277   0.785 -0.0400 -0.1868  0.3510
 1226TIP3    H1 3684   4.144   5.348   0.837 -3.8042  1.0621  1.5303
 1226TIP3    H2 3685   4.046   5.233   0.843 -0.3270 -2.2968 -1.4022
 1227TIP3   OH2 3686   5.087   1.365   2.570 -0.2818 -0.2999  0.4337
 1227TIP3    H1 3687   5.016   1.333   2.626  1.2072  0.3528  2.8530
 1227TIP3    H2 3688   5.140   1.420   2.628  0.7954  1.3186 -1.9326
 1228TIP3   OH2 3689   4.595   4.234   4.469  0.1003  0.5330  0.2179
 1228TIP3    H1 3690   4.572   4.214   4.560  1.2437  0.7258  0.5637
 1228TIP3    H2 3691   4.581   4.329   4.461 -0.3547  0.4560  0.0816
 1229TIP3   OH2 3692   0.227   4.789   0.889  0.3842 -0.0868 -0.1518
 1229TIP3    H1 3693   0.268   4.749   0.813 -0.1659 -0.5629 -0.2035
 1229TIP3    H2 3694   0.283   4.864   0.910  2.3134 -1.7325  0.8905
 1230TIP3   OH2 3695   5.342   2.883   1.850  0.1089  0.4234  0.5026
 1230TIP3    H1 3696   5.335   2.950   1.782 -0.3438  0.4060  0.5261
 1230TIP3    H2 3697   5.358   2.932   1.930 -1.6970  0.6438  0.7759
 1231TIP3   OH2 3698   5.135   5.436   1.781  0.0670  0.3992 -0.0990
 1231TIP3    H1 3699   5.040   5.422   1.787  0.3972 -1.4211  1.8660
 1231TIP3    H2 3700   5.145   5.530   1.795 -1.4700  0.7805 -1.1857
 1232TIP3   OH2 3701   4.731   0.507   0.910  0.0608 -0.1032 -0.2956
 1232TIP3    H1 3702   4.817   0.498   0.951  0.5554 -0.0105 -1.2865
 1232TIP3    H2 3703   4.702   0.595   0.936 -1.8566 -1.6846  3.8924
 1233TIP3   OH2 3704   2.030   0.036   4.862  0.1404  0.3929  0.1015
 1233TIP3    H1 3705   2.094   0.067   4.927  0.5794  1.2725 -0.7183
 1233TIP3    H2 3706   1.993  -0.042   4.901  2.4631 -0.7603  0.2004
 1234TIP3   OH2 3707   1.656   2.035   1.694  0.4654  0.0442 -0.3131
 1234TIP3    H1 3708   1.751   2.029   1.680  0.3913 -1.5239 -0.3167
 1234TIP3    H2 3709   1.645   2.024   1.789  0.2509 -0.2967 -0.3774
 1235TIP3   OH2 3710   1.541   2.432   1.292  0.2588 -0.3097 -0.0935
 1235TIP3    H1 3711   1.511   2.451   1.381  0.5926 -2.8680  0.6555
 1235TIP3    H2 3712   1.488   2.489   1.236 -0.4327  0.8795  1.6859
 1236TIP3   OH2 3713   4.382   5.835   2.757  0.5083 -0.3017  0.3163
 1236TIP3    H1 3714   4.446   5.842   2.828  1.3748 -0.9266 -0.3749
 1236TIP3    H2 3715   4.429   5.791   2.686  0.0881  1.4801 -1.1639
 1237TIP3   OH2 3716   0.717   5.670   4.350  0.0889 -0.1189  0.5834
 1237TIP3    H1 3717   0.706   5.644   4.442  2.3140 -1.1791  0.6038
 1237TIP3    H2 3718   0.781   5.742   4.353 -0.0478  0.0390 -0.1237
 1238TIP3   OH2 3719   4.561   0.320   4.203  0.0543  0.0430 -0.2674
 1238TIP3    H1 3720   4.600   0.253   4.146 -2.5836 -3.7050  1.8565
 1238TIP3    H2 3721   4.554   0.397   4.147  2.2528 -1.7347 -3.3410
 1239TIP3   OH2 3722   0.431   2.461   2.747 -0.1087  0.4004 -0.8689
 1239TIP3    H1 3723   0.448   2.555   2.743 -1.8267  0.7939  0.1508
 1239TIP3    H2 3724   0.363   2.445   2.681  1.1337 -0.4103 -2.0158
 1240TIP3   OH2 3725   3.712   5.579   4.805  0.2963  0.0735  0.0557
 1240TIP3    H1 3726   3.730   5.487   4.821  0.1124 -0.0362 -0.3403
 1240TIP3    H2 3727   3.651   5.579   4.731 -0.9987  0.4435  1.0844
 1241TIP3   OH2 3728   3.171   0.753   2.046 -0.1349 -0.0632  0.0531
 1241TIP3    H1 3729   3.103   0.712   2.100  0.5102 -0.8272  0.2998
 1241TIP3    H2 3730   3.127   0.828   2.006 -0.9901 -0.2588  0.5922
 1242TIP3   OH2 3731   0.003   4.714   3.003 -0.0134 -0.0443 -0.1378
 1242TIP3    H1 3732   0.037   4.668   3.080 -1.9707  0.8608  1.3549
 1242TIP3    H2 3733   0.076   4.767   2.972  0.6599  0.0211  1.4660
 1243TIP3   OH2 3734   1.702   4.386   1.277  0.2904  0.4257 -0.4454
 1243TIP3    H1 3735   1.687   4.329   1.201  0.6437  0.3524 -0.4625
 1243TIP3    H2 3736   1.796   4.405   1.274  0.6372 -0.9252  0.9178
 1244TIP3   OH2 3737   0.864   4.340   3.650  0.0836  0.0734  0.6278
 1244TIP3    H1 3738   0.812   4.280   3.704 -0.1350 -0.0546  0.2760
 1244TIP3    H2 3739   0.945   4.351   3.699  0.4432 -1.1074  0.3309
 1245TIP3   OH2 3740   5.336   2.848   1.026  0.0053  0.1504  0.6484
 1245TIP3    H1 3741   5.343   2.906   1.103 -0.4536 -1.9484  2.3757
 1245TIP3    H2 3742   5.380   2.767   1.053  0.2202 -0.5136 -1.4998
 1246TIP3   OH2 3743   6.133   1.937   3.103  0.5296 -1.1139  0.3047
 1246TIP3    H1 3744   6.226   1.917   3.117  0.3152 -2.7545 -0.3676
 1246TIP3    H2 3745   6.124   1.944   3.008  0.0839 -0.2817  0.4022
 1247TIP3   OH2 3746   3.631   5.289   4.032  0.3307 -0.0031  0.1186
 1247TIP3    H1 3747   3.539   5.265   4.030 -0.5024  2.8907  0.0727
 1247TIP3    H2 3748   3.654   5.292   4.125  0.0554  0.3612  0.1753
 1248TIP3   OH2 3749   2.341   5.624   0.210  0.1016  0.1193  0.1962
 1248TIP3    H1 3750   2.293   5.574   0.275 -0.0781  0.7836  0.5842
 1248TIP3    H2 3751   2.274   5.663   0.155  0.2462 -0.2288 -0.2362
 1249TIP3   OH2 3752   3.717   3.204   3.276  0.3078 -0.4758  0.0426
 1249TIP3    H1 3753   3.678   3.118   3.289  0.4149 -0.2459  2.1846
 1249TIP3    H2 3754   3.743   3.232   3.363  2.5395  0.6830 -0.9176
 1250TIP3   OH2 3755   0.646   4.814   4.892  1.0687  0.4809  0.0390
 1250TIP3    H1 3756   0.621   4.779   4.977  0.2664  0.7284 -0.0886
 1250TIP3    H2 3757   0.741   4.826   4.898  1.2044 -0.6411  0.4721
 1251TIP3   OH2 3758   1.764   1.396   2.208 -0.2691 -0.8850  0.2453
 1251TIP3    H1 3759   1.837   1.431   2.258  0.1063  0.0086 -0.8749
 1251TIP3    H2 3760   1.686   1.435   2.247 -0.0271 -0.6275  0.4724
 1252TIP3   OH2 3761   4.109   4.012   2.208  0.0160  0.2376  0.4688
 1252TIP3    H1 3762   4.160   3.979   2.282  0.8509  0.9541  0.2246
 1252TIP3    H2 3763   4.162   3.992   2.131 -1.5332 -1.9195 -0.1403
 1253TIP3   OH2 3764   5.262   4.458   4.870 -0.1385  0.2474 -0.3540
 1253TIP3    H1 3765   5.287   4.418   4.786  2.1074  2.2421 -0.7523
 1253TIP3    H2 3766   5.176   4.496   4.854 -0.2031 -0.3124 -1.4256
 1254TIP3   OH2 3767   5.250   2.701   4.533 -0.0174  0.8438 -0.2999
 1254TIP3    H1 3768   5.305   2.648   4.590 -0.1358 -0.4710 -1.3708
 1254TIP3    H2 3769   5.212   2.767   4.592 -0.4858 -0.7209  1.2506
 1255TIP3   OH2 3770   4.580   1.442   5.055 -0.3576  0.6077 -0.2867
 1255TIP3    H1 3771   4.566   1.435   5.150  0.3090 -0.2286 -0.2328
 1255TIP3    H2 3772   4.559   1.533   5.034  0.9057  1.2116  0.9116
 1256TIP3   OH2 3773   5.261   0.966   3.355  0.1927  0.1857  0.4230
 1256TIP3    H1 3774   5.343   0.918   3.369  0.4045  0.4926  0.2349
 1256TIP3    H2 3775   5.252   0.970   3.260 -0.2423 -0.1851  0.4430
 1257TIP3   OH2 3776   4.855   1.488   1.359  0.6959  0.2236  0.4106
 1257TIP3    H1 3777   4.920   1.543   1.401  0.8557 -0.2810  0.8237
 1257TIP3    H2 3778   4.870   1.401   1.394  0.8315 -0.2048 -0.6881
 1258TIP3   OH2 3779   3.776   4.435   1.266 -0.1718 -0.3353  0.4645
 1258TIP3    H1 3780   3.782   4.529   1.280  0.0260 -0.4759  1.3933
 1258TIP3    H2 3781   3.866   4.408   1.247 -0.3623 -0.2194 -0.6921
 1259TIP3   OH2 3782   2.663   4.798   4.326 -0.3412 -0.3075 -0.1497
 1259TIP3    H1 3783   2.625   4.731   4.269 -1.6474  0.1632  0.1293
 1259TIP3    H2 3784   2.590   4.857   4.346  1.0616  2.1993 -1.7702
 1260TIP3   OH2 3785   4.050   4.688   5.095  0.3520  0.4513 -0.2288
 1260TIP3    H1 3786   4.071   4.625   5.026  0.8097  1.1884 -0.7724
 1260TIP3    H2 3787   3.997   4.755   5.051  0.8175  1.0316  0.0852
 1261TIP3   OH2 3788  -0.020   1.121   4.920  0.5381  0.1142  0.4699
 1261TIP3    H1 3789   0.035   1.160   4.852 -0.8039  0.3240 -0.5412
 1261TIP3    H2 3790  -0.011   1.180   4.995  0.6519  0.8825 -0.1356
 1262TIP3   OH2 3791   4.326   0.186   3.920 -0.2408 -0.0325 -0.6666
 1262TIP3    H1 3792   4.239   0.220   3.939 -0.1443 -0.5889  0.9063
 1262TIP3    H2 3793   4.324   0.166   3.827 -1.5844  0.5325 -0.7825
 1263TIP3   OH2 3794   4.867   0.501   4.684  0.6520 -0.9519 -0.5243
 1263TIP3    H1 3795   4.798   0.436   4.688  0.6076 -0.8566  0.3392
 1263TIP3    H2 3796   4.948   0.452   4.699  0.4742 -0.5782  2.0444
 1264TIP3   OH2 3797   4.736   0.225   3.774  0.1796 -0.8495  0.1006
 1264TIP3    H1 3798   4.815   0.213   3.720 -0.2838 -1.1653 -0.5139
 1264TIP3    H2 3799   4.696   0.138   3.776 -0.7254 -0.4532 -0.4857
 1265TIP3   OH2 3800   4.539   0.743   2.469 -0.3126  0.3324  0.2395
 1265TIP3    H1 3801   4.547   0.830   2.432 -2.2741  0.6542  0.4775
 1265TIP3    H2 3802   4.457   0.709   2.433  0.8515 -1.7992 -0.5781
 1266TIP3   OH2 3803   1.184   2.527   1.470  0.0759  0.2647 -0.0347
 1266TIP3    H1 3804   1.181   2.434   1.448  0.0422  0.6121 -1.5883
 1266TIP3    H2 3805   1.269   2.539   1.512 -0.0373 -0.5098  0.4339
 1267TIP3   OH2 3806   3.381   1.908   1.571  0.0627 -0.1678 -0.0610
 1267TIP3    H1 3807   3.384   1.813   1.562 -0.2957 -0.2889  0.9753
 1267TIP3    H2 3808   3.451   1.940   1.514  0.1628 -1.0438 -0.4437
 1268TIP3   OH2 3809   1.439   0.811   4.833 -0.3794  0.4190 -0.1406
 1268TIP3    H1 3810   1.438   0.758   4.913 -0.7716  0.2928 -0.2280
 1268TIP3    H2 3811   1.465   0.898   4.863  0.0809  0.2260  0.0323
 1269TIP3   OH2 3812   3.185   5.656   3.039 -0.3648 -0.5127  0.3194
 1269TIP3    H1 3813   3.155   5.746   3.041 -0.9275 -0.7037  2.2830
 1269TIP3    H2 3814   3.278   5.662   3.018  0.0100  0.6750  2.1433
 1270TIP3   OH2 3815   4.420   3.338   4.770 -0.0447  0.4168  0.2409
 1270TIP3    H1 3816   4.372   3.364   4.691  0.9726  1.4984 -0.0551
 1270TIP3    H2 3817   4.508   3.317   4.738  0.5324  1.3659  1.1303
 1271TIP3   OH2 3818   4.145   3.211   3.979 -0.4072  0.1199  0.4423
 1271TIP3    H1 3819   4.075   3.170   3.928 -1.4823  1.4662  0.7698
 1271TIP3    H2 3820   4.222   3.205   3.923 -0.8499 -1.0777 -0.0791
 1272TIP3   OH2 3821   5.455   0.974   3.075  0.0811 -0.4652 -0.2060
 1272TIP3    H1 3822   5.523   0.976   3.007 -0.6609  1.9445 -0.9918
 1272TIP3    H2 3823   5.374   0.959   3.026 -0.1586 -1.7379  0.5436
 1273TIP3   OH2 3824   1.703   4.421   0.635  1.1297 -0.4764  0.0582
 1273TIP3    H1 3825   1.615   4.400   0.666  0.4174  1.8938 -0.1269
 1273TIP3    H2 3826   1.757   4.420   0.715 -0.0790  2.6051  1.0590
 1274TIP3   OH2 3827   1.733   5.151   3.452  0.0870 -0.5709  0.0395
 1274TIP3    H1 3828   1.795   5.157   3.380  1.2805  1.1562  1.1384
 1274TIP3    H2 3829   1.652   5.189   3.417  0.3745 -0.5642 -0.6374
 1275TIP3   OH2 3830   5.820   2.524   3.194  0.3224 -0.2092  0.3672
 1275TIP3    H1 3831   5.888   2.587   3.172 -0.1669  0.5318  0.9584
 1275TIP3    H2 3832   5.804   2.477   3.111 -0.0875  1.1864 -0.3761
 1276TIP3   OH2 3833   5.602   3.385   2.945 -0.0878 -0.4903  0.6308
 1276TIP3    H1 3834   5.533   3.430   2.895 -0.2150  1.4443  2.4298
 1276TIP3    H2 3835   5.557   3.351   3.023  0.7404 -0.3759  1.1705
 1277TIP3   OH2 3836   4.849   4.013   1.119 -0.0665  0.5202 -0.0896
 1277TIP3    H1 3837   4.782   3.955   1.085  1.0667 -0.7643 -0.2020
 1277TIP3    H2 3838   4.882   3.969   1.197 -0.2594  1.7803  0.7369
 1278TIP3   OH2 3839   4.808   2.128   0.813 -0.0091 -0.0395 -0.0814
 1278TIP3    H1 3840   4.901   2.145   0.823  0.1274 -0.7093 -0.1729
 1278TIP3    H2 3841   4.771   2.141   0.900 -0.0837  1.6875 -0.3370
 1279TIP3   OH2 3842   3.741   1.380   0.805 -0.2993  0.0029  0.2578
 1279TIP3    H1 3843   3.833   1.381   0.832  0.2567 -1.3581 -1.3778
 1279TIP3    H2 3844   3.725   1.468   0.771 -0.1022  0.7466  2.0188
 1280TIP3   OH2 3845   3.023   0.784   0.112  0.0729  0.4942  0.0116
 1280TIP3    H1 3846   3.064   0.772   0.198  1.0934  0.9938 -0.3929
 1280TIP3    H2 3847   2.952   0.720   0.110  1.3304 -0.9527  0.4226
 1281TIP3   OH2 3848   1.475   5.598   1.642  0.0078 -0.2187  0.3036
 1281TIP3    H1 3849   1.553   5.544   1.646 -0.2686 -0.5724  2.4220
 1281TIP3    H2 3850   1.404   5.540   1.671 -0.4833  0.9037  1.4695
 1282TIP3   OH2 3851   5.830   0.943   3.715 -0.0896  0.5357  0.0165
 1282TIP3    H1 3852   5.911   0.978   3.677  0.8786  0.2589  1.7146
 1282TIP3    H2 3853   5.807   1.005   3.784  0.3558 -0.8594  1.5085
 1283TIP3   OH2 3854   1.526   4.925   3.832  0.3011 -0.1489  0.7236
 1283TIP3    H1 3855   1.586   4.851   3.845  1.2954  0.3537 -0.7011
 1283TIP3    H2 3856   1.583   4.996   3.803 -0.5828  1.3284  2.4224
 1284TIP3   OH2 3857   3.821   3.813   4.609  0.1000 -0.2060 -0.3236
 1284TIP3    H1 3858   3.880   3.832   4.682 -0.5342 -2.1447  0.7760
 1284TIP3    H2 3859   3.733   3.820   4.648 -0.2296 -1.8170 -0.7246
 1285TIP3   OH2 3860   0.301   1.941   5.153  0.6020  0.1817  0.0486
 1285TIP3    H1 3861   0.391   1.937   5.183  0.5628 -2.4748 -0.0029
 1285TIP3    H2 3862   0.295   1.877   5.082 -1.1365  0.8943 -0.5208
 1286TIP3   OH2 3863   2.847   0.395   4.819 -0.3741 -0.4082 -0.8056
 1286TIP3    H1 3864   2.755   0.401   4.794  0.0021 -0.8149 -2.4306
 1286TIP3    H2 3865   2.860   0.468   4.879 -1.6819 -0.1699 -0.7747
 1287TIP3   OH2 3866   3.581   2.565   0.479  0.8617 -0.4126 -0.4998
 1287TIP3    H1 3867   3.609   2.630   0.545  1.1512 -1.4712  0.4467
 1287TIP3    H2 3868   3.626   2.592   0.399 -0.6555  1.7931 -0.7051
 1288TIP3   OH2 3869   5.549   0.157   2.831  0.3573  0.2170  0.1559
 1288TIP3    H1 3870   5.469   0.171   2.781  0.5256  0.9839  0.0877
 1288TIP3    H2 3871   5.577   0.245   2.858  0.3978 -0.1486  1.3954
 1289TIP3   OH2 3872   2.141   5.197   4.828  0.2008 -0.2383 -0.3354
 1289TIP3    H1 3873   2.093   5.237   4.755  3.4322 -0.3711 -2.7412
 1289TIP3    H2 3874   2.202   5.265   4.857 -0.7753 -0.3103  2.1529
 1290TIP3   OH2 3875   4.808   1.447   2.167  0.0762  0.5724 -0.0143
 1290TIP3    H1 3876   4.808   1.535   2.127  0.4581  0.5855  0.0055
 1290TIP3    H2 3877   4.852   1.459   2.251 -0.9208  0.5836  0.5149
 1291TIP3   OH2 3878   3.785   3.898   1.583  0.1977  0.2904  0.2971
 1291TIP3    H1 3879   3.770   3.974   1.638  1.6912  0.7551  0.1076
 1291TIP3    H2 3880   3.704   3.887   1.534 -0.1142  1.6368  0.4798
 1292TIP3   OH2 3881   0.821   3.575   2.126 -0.0882  0.7578 -0.1099
 1292TIP3    H1 3882   0.916   3.564   2.115  0.0499  1.2972  0.4754
 1292TIP3    H2 3883   0.783   3.504   2.075  0.5219  2.1269 -2.5887
 1293TIP3   OH2 3884   3.318   3.118   0.604 -0.3374  0.2674  0.5820
 1293TIP3    H1 3885   3.249   3.126   0.537 -0.7348 -1.6181  0.7024
 1293TIP3    H2 3886   3.398   3.144   0.558 -0.8746  0.8975 -0.0413
 1294TIP3   OH2 3887   1.563   3.389   0.929  0.1677  0.3404  0.0661
 1294TIP3    H1 3888   1.652   3.398   0.965  0.2661 -1.0265  0.2508
 1294TIP3    H2 3889   1.536   3.301   0.956 -1.3168  0.7979  0.1471
 1295TIP3   OH2 3890   2.224   3.374   1.540 -0.2265  0.0212  0.5983
 1295TIP3    H1 3891   2.141   3.370   1.492 -1.7912 -0.6091  3.1937
 1295TIP3    H2 3892   2.220   3.457   1.588  0.7554  0.0769  0.5981
 1296TIP3   OH2 3893   4.608   3.944   3.853  0.5164  0.3160  0.8804
 1296TIP3    H1 3894   4.540   4.010   3.868 -0.3250 -0.2931 -0.1194
 1296TIP3    H2 3895   4.575   3.865   3.895 -0.1611 -0.4039 -0.8986
 1297TIP3   OH2 3896   0.623   5.787   1.538 -0.0166 -0.1545 -0.0898
 1297TIP3    H1 3897   0.566   5.817   1.608 -0.2318  0.0074 -0.3323
 1297TIP3    H2 3898   0.576   5.810   1.457 -0.6866 -2.0752 -0.2926
 1298TIP3   OH2 3899   2.961   3.511   0.655  0.4345 -0.3120 -0.2597
 1298TIP3    H1 3900   2.936   3.514   0.562 -1.4884  2.1332  0.2171
 1298TIP3    H2 3901   2.921   3.430   0.688 -0.5049 -0.2512 -1.1866
 1299TIP3   OH2 3902   4.380   5.905   4.670  0.5298 -0.5941 -0.6879
 1299TIP3    H1 3903   4.353   5.823   4.714  0.8105 -0.5039 -0.3373
 1299TIP3    H2 3904   4.463   5.882   4.627  1.5765 -0.0290  0.9326
 1300TIP3   OH2 3905   4.177   1.587   2.613  0.3989 -0.2493  0.8108
 1300TIP3    H1 3906   4.129   1.627   2.686  1.4636 -0.3533  1.6071
 1300TIP3    H2 3907   4.118   1.594   2.538 -0.5971  0.1640  1.6069
 1301TIP3   OH2 3908   1.694   5.714   2.665  0.0795 -0.5340  0.3933
 1301TIP3    H1 3909   1.625   5.749   2.609  1.1309  0.6523 -0.2143
 1301TIP3    H2 3910   1.666   5.736   2.754  0.0500  0.6731  0.0980
 1302TIP3   OH2 3911   4.973   4.153   2.357  0.0875  0.2412  0.2805
 1302TIP3    H1 3912   4.944   4.244   2.363  0.7428  0.5129 -0.5792
 1302TIP3    H2 3913   4.892   4.102   2.364 -0.3648  0.9113  0.0324
 1303TIP3   OH2 3914   1.605   5.938   5.011  0.6629  0.2361 -0.4621
 1303TIP3    H1 3915   1.538   5.871   5.025  0.6748 -0.0184 -1.5309
 1303TIP3    H2 3916   1.587   5.973   4.924  1.1048  1.1167 -0.2119
 1304TIP3   OH2 3917   1.215   4.950   4.147 -0.1600 -0.1595 -0.8684
 1304TIP3    H1 3918   1.241   4.919   4.233 -1.8017  2.2866  0.6207
 1304TIP3    H2 3919   1.285   5.011   4.121 -0.1993 -0.0868 -0.8009
 1305TIP3   OH2 3920   4.246   2.691   3.979 -0.3157 -0.2638 -0.3016
 1305TIP3    H1 3921   4.287   2.773   3.952 -0.6681  0.1092  0.2820
 1305TIP3    H2 3922   4.293   2.666   4.059 -1.1293  0.1136  0.3148
 1306TIP3   OH2 3923   2.372   4.316   4.240 -0.7138  0.2649 -0.1160
 1306TIP3    H1 3924   2.287   4.289   4.273 -0.8440  0.4514 -0.2950
 1306TIP3    H2 3925   2.368   4.412   4.237 -0.1168  0.3337  0.8949
 1307TIP3   OH2 3926   1.708   3.248   2.362 -0.0793  0.2766 -0.0543
 1307TIP3    H1 3927   1.744   3.219   2.446 -1.3843 -1.8126 -0.1300
 1307TIP3    H2 3928   1.622   3.283   2.383 -0.6565 -0.7990 -0.5391
 1308TIP3   OH2 3929   3.042   2.316   3.195  0.7186  0.2433 -0.0527
 1308TIP3    H1 3930   2.967   2.375   3.208  0.6479 -0.1741  1.6704
 1308TIP3    H2 3931   3.113   2.374   3.167  0.3341  0.9900  0.4639
 1309TIP3   OH2 3932   3.996   3.563   1.056 -0.8922 -0.3865  0.2192
 1309TIP3    H1 3933   4.030   3.584   0.969  0.5989 -0.1059  0.8425
 1309TIP3    H2 3934   3.983   3.648   1.098 -0.5773 -0.5491  0.6482
 1310TIP3   OH2 3935   3.177   2.613   1.931 -0.0797 -0.0507  0.0116
 1310TIP3    H1 3936   3.154   2.545   1.867  1.1232 -0.3391 -0.1307
 1310TIP3    H2 3937   3.197   2.690   1.878  0.4667 -0.1557  0.0609
 1311TIP3   OH2 3938   4.506   5.226   2.097  0.1082 -0.1361  0.5796
 1311TIP3    H1 3939   4.594   5.191   2.113 -0.2864 -1.7958 -0.5943
 1311TIP3    H2 3940   4.450   5.178   2.158 -0.1118  0.3576  0.7749
 1312TIP3   OH2 3941   6.254   5.934   4.380 -0.2533 -0.1339  0.5547
 1312TIP3    H1 3942   6.313   5.934   4.455 -0.7781  0.3745  0.9728
 1312TIP3    H2 3943   6.206   6.016   4.387  1.1195  0.9314 -1.4756
 1313TIP3   OH2 3944   0.051   2.073   4.728  0.4378 -0.6784  1.0112
 1313TIP3    H1 3945   0.093   2.092   4.645  1.0175  1.7784  1.7730
 1313TIP3    H2 3946   0.091   1.992   4.758  2.6343  0.1038  0.3946
 1314TIP3   OH2 3947   2.079   0.530   1.304 -0.1929  0.2661 -0.2795
 1314TIP3    H1 3948   1.990   0.563   1.293 -1.0700 -0.9854  2.2562
 1314TIP3    H2 3949   2.068   0.436   1.320  1.5869  0.0726  0.0810
 1315TIP3   OH2 3950   1.577   4.756   2.172 -0.5991  0.2351 -0.1119
 1315TIP3    H1 3951   1.618   4.670   2.184 -2.1394 -0.4021  0.8671
 1315TIP3    H2 3952   1.484   4.742   2.189 -0.6708  2.4265  1.8988
 1316TIP3   OH2 3953   3.706   0.762   3.209 -0.0667  0.3840 -0.4021
 1316TIP3    H1 3954   3.709   0.858   3.204 -2.5170  0.5309 -0.7588
 1316TIP3    H2 3955   3.700   0.734   3.117 -0.8019  0.0166 -0.2513
 1317TIP3   OH2 3956   4.680   1.237   4.449 -0.0402  0.7514  0.4637
 1317TIP3    H1 3957   4.662   1.226   4.543  1.5109 -1.0717  0.6216
 1317TIP3    H2 3958   4.776   1.239   4.444 -0.1140  1.2168 -1.0606
 1318TIP3   OH2 3959   3.857   2.457   2.416  0.0190 -0.0604 -0.0729
 1318TIP3    H1 3960   3.768   2.423   2.426 -0.1097  0.4768  0.7142
 1318TIP3    H2 3961   3.890   2.414   2.338 -0.3672 -1.4891  0.5133
 1319TIP3   OH2 3962   2.576   5.757   1.472 -0.2712  0.2985 -0.5356
 1319TIP3    H1 3963   2.495   5.734   1.518 -0.5275 -0.9368 -1.5634
 1319TIP3    H2 3964   2.636   5.686   1.492  0.5488  1.1620  0.1402
 1320TIP3   OH2 3965   5.913   3.169   2.774 -0.2979 -0.0808  0.0843
 1320TIP3    H1 3966   5.976   3.113   2.729 -1.3780  0.1699 -1.8823
 1320TIP3    H2 3967   5.953   3.256   2.772  0.0274 -0.2196  0.3881
 1321TIP3   OH2 3968   3.441   0.875   0.857  0.1779  0.3913  0.0970
 1321TIP3    H1 3969   3.357   0.852   0.897  0.1604  1.2208  0.5515
 1321TIP3    H2 3970   3.476   0.945   0.912  0.6703  0.7880 -0.6931
 1322TIP3   OH2 3971   1.675   4.569   2.567  0.3577  0.3302 -0.9342
 1322TIP3    H1 3972   1.629   4.512   2.505  0.6507 -0.7546 -0.1690
 1322TIP3    H2 3973   1.608   4.631   2.596 -0.3024 -0.4170 -0.8248
 1323TIP3   OH2 3974   0.329   3.209   5.152 -0.1312 -0.4795 -0.0434
 1323TIP3    H1 3975   0.277   3.288   5.134 -1.1470 -1.2882 -0.7520
 1323TIP3    H2 3976   0.418   3.242   5.164 -0.7501  0.9357  1.0445
 1324TIP3   OH2 3977   1.480   3.030   3.729  0.7012 -0.1328 -0.0336
 1324TIP3    H1 3978   1.506   2.952   3.681 -0.1939 -0.1188 -0.5730
 1324TIP3    H2 3979   1.536   3.100   3.693 -0.5621  0.0655 -1.7679
 1325TIP3   OH2 3980   2.707   3.734   4.538  0.2685 -0.0351 -0.2933
 1325TIP3    H1 3981   2.666   3.727   4.624  0.8423  1.1891  0.0977
 1325TIP3    H2 3982   2.710   3.644   4.505 -2.4073 -0.2414 -0.2109
 1326TIP3   OH2 3983   5.958   0.197   1.802 -0.2730  0.2757  0.4291
 1326TIP3    H1 3984   5.893   0.220   1.735  1.0769  1.2605 -0.5995
 1326TIP3    H2 3985   5.916   0.218   1.885 -2.2230 -1.5321 -0.0040
 1327TIP3   OH2 3986   2.465   2.584   2.606 -0.2127 -0.2199  0.4288
 1327TIP3    H1 3987   2.524   2.658   2.598 -0.2245 -0.1622  0.8289
 1327TIP3    H2 3988   2.411   2.604   2.683 -1.4449  0.2029 -0.5179
 1328TIP3   OH2 3989   3.050   3.234   1.270  0.2148  0.1264  0.1986
 1328TIP3    H1 3990   3.075   3.224   1.362 -1.2236  1.3550  0.7538
 1328TIP3    H2 3991   3.060   3.146   1.233  0.5829 -0.4406  1.5740
 1329TIP3   OH2 3992   3.410   1.627   2.587  0.2704  0.1029 -0.2656
 1329TIP3    H1 3993   3.431   1.662   2.500 -1.9166  1.5910 -0.2652
 1329TIP3    H2 3994   3.368   1.543   2.569 -0.8466  0.7434 -0.7204
 1330TIP3   OH2 3995   2.454   2.651   4.126 -0.3879  0.7239 -0.1184
 1330TIP3    H1 3996   2.387   2.709   4.161  0.0964  1.4984 -0.4644
 1330TIP3    H2 3997   2.427   2.634   4.036 -1.0877 -0.4520  0.2837
 1331TIP3   OH2 3998   2.853   3.258   3.114 -0.6017 -0.3128  0.1772
 1331TIP3    H1 3999   2.881   3.293   3.199  0.0034 -1.3131  0.4122
 1331TIP3    H2 4000   2.810   3.175   3.136  0.0465 -0.8457 -0.5214
 1332TIP3   OH2 4001   1.260   3.096   2.622  0.2084  0.1274 -0.0873
 1332TIP3    H1 4002   1.277   3.003   2.626 -0.1827 -0.0180 -1.2225
 1332TIP3    H2 4003   1.222   3.110   2.535 -1.3580  1.0678  0.6837
 1333TIP3   OH2 4004   6.325   4.082   1.579  0.5930  0.4857 -0.3507
 1333TIP3    H1 4005   6.248   4.132   1.607  0.1770 -1.2443  1.8414
 1333TIP3    H2 4006   6.380   4.076   1.657  1.2089 -1.3879 -0.8656
 1334TIP3   OH2 4007   3.415   1.544   4.703  0.5276 -0.1959  0.4831
 1334TIP3    H1 4008   3.433   1.621   4.648 -1.0351 -1.1499 -1.4903
 1334TIP3    H2 4009   3.502   1.515   4.732  1.2815  1.2896 -0.1407
 1335TIP3   OH2 4010   5.490   0.661   1.658  0.0348 -0.3097  0.4216
 1335TIP3    H1 4011   5.405   0.623   1.637 -0.4247  0.8237  0.1705
 1335TIP3    H2 4012   5.484   0.687   1.749  0.1925 -0.3996  0.4599
 1336TIP3   OH2 4013   1.055   5.985   0.353 -0.7578  0.0114 -0.3629
 1336TIP3    H1 4014   1.094   5.901   0.330  1.2532  1.5567 -3.1560
 1336TIP3    H2 4015   0.990   6.001   0.284 -0.0930  1.3638 -0.7101
 1337TIP3   OH2 4016   5.434   5.596   0.809 -0.5457 -0.7423 -0.3776
 1337TIP3    H1 4017   5.477   5.580   0.893  0.0691 -0.0077 -0.5483
 1337TIP3    H2 4018   5.380   5.674   0.825 -0.1201 -0.3644 -0.7708
 1338TIP3   OH2 4019   4.536   4.681   3.194  0.5264 -0.0515 -0.1362
 1338TIP3    H1 4020   4.475   4.612   3.165  0.6867  0.2542 -1.2608
 1338TIP3    H2 4021   4.609   4.674   3.133  1.0663  0.3798  0.4577
 1339TIP3   OH2 4022   1.489   2.071   0.163 -0.6075  0.0951  0.1762
 1339TIP3    H1 4023   1.519   1.980   0.172 -1.5203 -0.2611 -0.1673
 1339TIP3    H2 4024   1.406   2.063   0.115 -0.7329  1.1098  0.2132
 1340TIP3   OH2 4025   4.902   4.810   3.491  0.7025 -0.0239  0.1241
 1340TIP3    H1 4026   4.967   4.742   3.509  1.0648 -0.2814 -1.8485
 1340TIP3    H2 4027   4.833   4.795   3.555  3.1299  1.1427  3.2854
 1341TIP3   OH2 4028   3.040   5.078   1.921  0.5094  0.4663 -0.0305
 1341TIP3    H1 4029   2.993   5.156   1.951  0.8199  0.8161 -0.4494
 1341TIP3    H2 4030   3.074   5.101   1.835 -0.3218 -0.5193 -0.6397
 1342TIP3   OH2 4031   0.290   2.306   1.565  0.2882 -0.0408 -0.3594
 1342TIP3    H1 4032   0.348   2.232   1.546 -0.1907 -0.6530  0.5048
 1342TIP3    H2 4033   0.223   2.270   1.624 -0.3383  0.9189 -0.4604
 1343TIP3   OH2 4034   4.718   5.114   0.910  0.1548  0.0263 -0.1281
 1343TIP3    H1 4035   4.647   5.179   0.908 -3.0226 -3.1622 -0.3623
 1343TIP3    H2 4036   4.717   5.076   0.822  2.0120 -0.2957 -0.0342
 1344TIP3   OH2 4037   3.653   4.525   1.901 -0.9125  0.2140 -0.4052
 1344TIP3    H1 4038   3.729   4.559   1.854  0.2675  2.0983  2.5630
 1344TIP3    H2 4039   3.582   4.586   1.881 -0.5272  0.7748 -0.0922
 1345TIP3   OH2 4040   5.605   3.220   3.584  0.0553 -1.1501  0.3186
 1345TIP3    H1 4041   5.679   3.265   3.623 -0.2593 -0.7096  0.4171
 1345TIP3    H2 4042   5.579   3.155   3.649 -0.2289 -0.6751  0.6908
 1346TIP3   OH2 4043   1.771   2.725   1.538  0.0150 -0.2731  0.2080
 1346TIP3    H1 4044   1.708   2.654   1.532  0.5321 -0.6833 -0.4587
 1346TIP3    H2 4045   1.721   2.798   1.574 -0.8569 -0.5729 -0.3568
 1347TIP3   OH2 4046   6.204   3.997   2.160  0.0959  0.0512 -0.5777
 1347TIP3    H1 4047   6.119   3.985   2.116  0.2972 -0.8127 -0.7393
 1347TIP3    H2 4048   6.181   4.040   2.243 -1.1743 -4.3896  1.7103
 1348TIP3   OH2 4049   1.181   5.911   1.568 -0.1653  0.1480  0.1690
 1348TIP3    H1 4050   1.196   5.820   1.544  0.0443  0.5448 -1.3006
 1348TIP3    H2 4051   1.260   5.937   1.615 -1.3952 -1.2187  3.2659
 1349TIP3   OH2 4052   5.182   0.159   2.229 -0.2228  0.8309 -0.0840
 1349TIP3    H1 4053   5.238   0.090   2.192  2.8703  1.7875  2.3462
 1349TIP3    H2 4054   5.093   0.134   2.203  0.8195 -3.3978 -0.3989
 1350TIP3   OH2 4055   0.395   4.087   4.215  0.7181  0.1290 -0.2648
 1350TIP3    H1 4056   0.345   4.074   4.295  2.8854  2.3417  1.6164
 1350TIP3    H2 4057   0.347   4.155   4.167  0.3571  0.0916  0.0426
 1351TIP3   OH2 4058   3.842   4.136   3.960  0.0024 -0.1799  0.0829
 1351TIP3    H1 4059   3.897   4.061   3.980  1.2395  0.6434 -0.1072
 1351TIP3    H2 4060   3.777   4.138   4.030  0.6419 -0.7801  0.7049
 1352TIP3   OH2 4061   5.166   4.182   4.465 -0.0122 -0.1396 -0.0979
 1352TIP3    H1 4062   5.099   4.180   4.397 -0.4930  1.0185  0.3202
 1352TIP3    H2 4063   5.117   4.195   4.546  0.7378  1.3693  0.1414
 1353TIP3   OH2 4064   3.655   5.066   1.544 -0.4651  0.1155  0.0908
 1353TIP3    H1 4065   3.746   5.066   1.572  0.1121  1.9226 -1.5846
 1353TIP3    H2 4066   3.622   5.152   1.570 -1.4102 -0.1518 -0.1690
 1354TIP3   OH2 4067   0.313  -0.010   1.677  0.1129  0.1017 -0.0179
 1354TIP3    H1 4068   0.291  -0.055   1.595 -2.0873 -1.1020  1.1492
 1354TIP3    H2 4069   0.261   0.071   1.674  0.8513  0.5733 -0.2624
 1355TIP3   OH2 4070   4.649   0.511   0.261  0.1676  0.3701  0.1062
 1355TIP3    H1 4071   4.697   0.568   0.321 -0.7028 -0.2784  1.4678
 1355TIP3    H2 4072   4.627   0.434   0.313 -1.0522  0.0096 -0.8949
 1356TIP3   OH2 4073   6.183   4.933   1.415  0.1979  0.3644  0.2722
 1356TIP3    H1 4074   6.201   4.844   1.385 -0.3818  0.2033  0.3956
 1356TIP3    H2 4075   6.267   4.964   1.449  0.6202  0.1837 -0.5798
 1357TIP3   OH2 4076   0.842   1.340   3.972 -0.0650 -0.1855 -0.4709
 1357TIP3    H1 4077   0.868   1.258   3.929  2.1806  0.6242 -0.7894
 1357TIP3    H2 4078   0.841   1.319   4.065 -0.7562 -0.8701 -0.6208
 1358TIP3   OH2 4079   0.845   5.235   3.613 -0.2978 -0.3412  0.3439
 1358TIP3    H1 4080   0.795   5.281   3.545  0.3706 -0.1418 -0.0287
 1358TIP3    H2 4081   0.796   5.251   3.694 -0.8368 -0.1580 -0.0078
 1359TIP3   OH2 4082   2.064   0.708   2.283  0.5246  0.0819  0.0275
 1359TIP3    H1 4083   2.031   0.745   2.365  1.0649  0.9066 -0.1128
 1359TIP3    H2 4084   2.057   0.613   2.295  0.7848  0.1873  1.1127
 1360TIP3   OH2 4085   3.147   3.396   2.223 -0.0415  0.0065 -0.4488
 1360TIP3    H1 4086   3.076   3.394   2.159 -0.6602 -0.4280  0.2246
 1360TIP3    H2 4087   3.186   3.482   2.214 -2.0588  1.1062  0.6492
 1361TIP3   OH2 4088   1.403   3.277   0.218  0.4408  0.3544  0.5918
 1361TIP3    H1 4089   1.440   3.247   0.136 -0.8222  0.2683  0.0359
 1361TIP3    H2 4090   1.362   3.200   0.256 -0.6881  0.8085  0.3365
 1362TIP3   OH2 4091   3.183   1.355   4.739 -0.0211  0.4626 -0.1074
 1362TIP3    H1 4092   3.273   1.388   4.751 -0.0540  0.8472 -0.8469
 1362TIP3    H2 4093   3.194   1.270   4.696 -0.0304  1.0591 -1.3413
 1363TIP3   OH2 4094   3.978   4.723   4.662 -0.3875 -0.1446  0.4817
 1363TIP3    H1 4095   3.906   4.778   4.633 -0.2250  0.9699  2.0318
 1363TIP3    H2 4096   4.027   4.779   4.723  2.0338 -0.7307 -0.8330
 1364TIP3   OH2 4097   1.599   3.549   3.780 -0.1176  0.6386  0.3689
 1364TIP3    H1 4098   1.663   3.595   3.834 -0.8504  3.6158 -1.1264
 1364TIP3    H2 4099   1.632   3.557   3.691 -0.2906 -1.8644  0.0051
 1365TIP3   OH2 4100   1.245   2.353   4.834  0.2930 -0.3351 -0.0576
 1365TIP3    H1 4101   1.340   2.352   4.849  0.0384 -1.0044  1.8350
 1365TIP3    H2 4102   1.231   2.428   4.777  1.8710  0.4586  0.5193
 1366TIP3   OH2 4103   1.147   1.877   3.393  0.5059 -0.4495  0.2641
 1366TIP3    H1 4104   1.156   1.812   3.324  1.9459 -0.3031  0.2970
 1366TIP3    H2 4105   1.204   1.847   3.464  0.4835  0.3696  0.6461
 1367TIP3   OH2 4106   1.110   5.043   5.076 -0.3250 -0.0860 -0.7420
 1367TIP3    H1 4107   1.018   5.061   5.058 -0.8804 -1.3958  0.5666
 1367TIP3    H2 4108   1.136   5.115   5.135 -0.8361 -0.2827 -0.2568
 1368TIP3   OH2 4109   2.106   3.073   2.448 -0.0578  0.2978 -0.3880
 1368TIP3    H1 4110   2.126   3.018   2.524 -1.4860 -0.4264 -0.5128
 1368TIP3    H2 4111   2.138   3.023   2.373 -0.2041  0.2177 -0.3977
 1369TIP3   OH2 4112   2.681   4.126   2.987  0.4547  0.1255  0.4161
 1369TIP3    H1 4113   2.651   4.203   2.938 -1.9977 -0.5222  0.7939
 1369TIP3    H2 4114   2.763   4.155   3.027  0.3917  2.0335 -0.6810
 1370TIP3   OH2 4115   6.153   2.789   2.612 -0.2534  0.2415 -0.3318
 1370TIP3    H1 4116   6.146   2.762   2.521 -1.1388 -0.2960 -0.1116
 1370TIP3    H2 4117   6.236   2.752   2.642  0.2934  0.8533 -1.0490
 1371TIP3   OH2 4118   1.782   3.650   4.440 -0.1025  0.2467 -0.1774
 1371TIP3    H1 4119   1.764   3.743   4.425  0.5723  0.2251 -1.1627
 1371TIP3    H2 4120   1.804   3.615   4.354 -0.3158 -0.8270  0.1916
 1372TIP3   OH2 4121   6.285   4.838   5.020  0.5445  0.7639 -0.0915
 1372TIP3    H1 4122   6.262   4.905   5.085 -0.5961  1.8480 -1.5481
 1372TIP3    H2 4123   6.379   4.826   5.031  0.7487  2.4648  0.3537
 1373TIP3   OH2 4124   3.458   3.198   1.406 -0.0423  0.3374 -0.6321
 1373TIP3    H1 4125   3.455   3.261   1.478 -0.4929 -2.0498  1.5738
 1373TIP3    H2 4126   3.550   3.172   1.401 -0.4107 -1.4707  0.9963
 1374TIP3   OH2 4127   1.371   2.377   0.929 -0.0467  0.2245  0.4348
 1374TIP3    H1 4128   1.409   2.336   1.007  0.5771  0.5628  0.3153
 1374TIP3    H2 4129   1.342   2.303   0.876  1.4964 -0.1095  0.0034
 1375TIP3   OH2 4130   3.855   1.989   5.130 -0.3129  0.0623 -0.6794
 1375TIP3    H1 4131   3.833   1.897   5.147  0.1174  0.0163 -0.3521
 1375TIP3    H2 4132   3.943   1.999   5.166 -1.4988  1.3969  2.1311
 1376TIP3   OH2 4133   5.001   0.727   1.624  0.5452 -0.2853  0.5758
 1376TIP3    H1 4134   4.960   0.732   1.710  0.7411 -1.6154  0.7682
 1376TIP3    H2 4135   4.953   0.657   1.579 -1.4364  2.1726 -1.4715
 1377TIP3   OH2 4136   4.218   1.921   3.329  0.6677 -0.3291 -0.1270
 1377TIP3    H1 4137   4.217   1.872   3.247  0.0303 -0.6318  0.0562
 1377TIP3    H2 4138   4.277   1.871   3.386  2.8237  0.9945 -1.0394
 1378TIP3   OH2 4139   2.974   3.561   5.131 -0.1259 -0.0526  0.4393
 1378TIP3    H1 4140   3.052   3.586   5.181  0.9040  1.4862 -1.7943
 1378TIP3    H2 4141   2.915   3.636   5.139  1.0056  1.2466 -2.4215
 1379TIP3   OH2 4142   5.692   0.863   1.405  0.4025  0.3276 -0.0538
 1379TIP3    H1 4143   5.756   0.935   1.401 -0.1095  0.9152  1.4796
 1379TIP3    H2 4144   5.659   0.866   1.495 -1.7005 -0.0187 -0.7610
 1380TIP3   OH2 4145   5.319   3.848   0.430 -0.0669  0.3870 -0.4685
 1380TIP3    H1 4146   5.228   3.831   0.406  0.3096  0.0911 -1.7595
 1380TIP3    H2 4147   5.317   3.857   0.526 -1.4846  0.6639 -0.5037
 1381TIP3   OH2 4148   0.465   1.612   1.383  0.0504  0.6938  0.3504
 1381TIP3    H1 4149   0.557   1.634   1.401  0.3364 -0.0131 -0.1780
 1381TIP3    H2 4150   0.457   1.520   1.410 -0.7516  1.0203  1.2610
 1382TIP3   OH2 4151   1.954   2.067   0.631  0.1140  0.8181  0.4029
 1382TIP3    H1 4152   1.953   2.128   0.705  0.1525  2.0864 -0.6039
 1382TIP3    H2 4153   1.863   2.065   0.600 -0.4296 -1.5198  1.8482
 1383TIP3   OH2 4154   3.763   4.716   1.324  0.1293 -0.0589  0.1185
 1383TIP3    H1 4155   3.682   4.745   1.366  0.3650 -0.6739  1.0197
 1383TIP3    H2 4156   3.783   4.785   1.260 -1.8266 -0.5625 -1.0927
 1384TIP3   OH2 4157   3.854   3.012   3.499  0.4334  0.2506 -0.3278
 1384TIP3    H1 4158   3.825   2.935   3.450  0.0936  0.5557 -0.6120
 1384TIP3    H2 4159   3.774   3.050   3.533  0.7098 -0.2657  0.9396
 1385TIP3   OH2 4160   2.313   5.456   2.635 -0.1744  0.2185 -0.4652
 1385TIP3    H1 4161   2.319   5.404   2.715 -2.4281  0.2524 -0.1960
 1385TIP3    H2 4162   2.401   5.453   2.597  0.7410 -0.4897  1.5636
 1386TIP3   OH2 4163   1.965   1.362   0.765 -0.7323  0.5109 -0.2187
 1386TIP3    H1 4164   2.034   1.380   0.702  0.7005  0.5948  1.2965
 1386TIP3    H2 4165   1.884   1.391   0.722  0.2224  0.9007 -1.8294
 1387TIP3   OH2 4166   2.560   2.320   1.612  0.4993  0.8635  0.3589
 1387TIP3    H1 4167   2.632   2.337   1.673  0.3396 -0.2931  0.8876
 1387TIP3    H2 4168   2.481   2.328   1.665  0.1790  2.5750 -0.3167
 1388TIP3   OH2 4169   0.465   2.098   1.487 -0.1422  0.1885 -0.0322
 1388TIP3    H1 4170   0.493   2.053   1.566  1.5772  1.5825  0.2153
 1388TIP3    H2 4171   0.542   2.097   1.430 -0.1066  2.5627 -0.1008
 1389TIP3   OH2 4172   4.033   5.704   2.382  0.5160 -0.5135 -0.1565
 1389TIP3    H1 4173   4.036   5.647   2.304 -0.2482  0.0430 -0.6047
 1389TIP3    H2 4174   4.095   5.663   2.443  3.4978  0.6769 -2.1399
 1390TIP3   OH2 4175   4.187   1.076   1.517  0.3494 -0.0314  0.4722
 1390TIP3    H1 4176   4.192   0.983   1.543  3.4616  0.2018  1.1325
 1390TIP3    H2 4177   4.207   1.076   1.424  0.3181 -0.0147  0.4654
 1391TIP3   OH2 4178   3.454   5.820   1.696 -0.1914 -0.0227 -0.2181
 1391TIP3    H1 4179   3.518   5.880   1.659 -0.2236  0.0856 -0.1007
 1391TIP3    H2 4180   3.458   5.742   1.641  0.4376 -0.2351  0.1224
 1392TIP3   OH2 4181   5.582   4.267   0.140 -0.4720  0.5155  0.2469
 1392TIP3    H1 4182   5.621   4.191   0.184  1.7931  0.5542 -1.4954
 1392TIP3    H2 4183   5.578   4.334   0.208 -0.1875 -0.4035  1.2050
 1393TIP3   OH2 4184   4.807   2.786   2.372 -0.1042  0.1911 -0.2205
 1393TIP3    H1 4185   4.771   2.728   2.305 -1.5813 -0.1427  0.8161
 1393TIP3    H2 4186   4.865   2.729   2.423  1.3623  0.5436 -1.4078
 1394TIP3   OH2 4187   2.034   0.809   3.558 -0.3208 -0.3288  0.8985
 1394TIP3    H1 4188   1.957   0.812   3.500  0.1176  0.8318  0.3458
 1394TIP3    H2 4189   2.001   0.840   3.643 -0.8479 -1.5447  1.1599
 1395TIP3   OH2 4190   5.817   4.347   2.379  0.4334  0.9112  0.2752
 1395TIP3    H1 4191   5.747   4.289   2.407 -0.9067  0.1332 -4.0763
 1395TIP3    H2 4192   5.775   4.413   2.325  2.8353  1.4485 -1.1102
 1396TIP3   OH2 4193   3.849   3.201   5.130 -0.5215 -0.1767 -0.1769
 1396TIP3    H1 4194   3.782   3.193   5.062  0.1477 -1.6411 -0.7066
 1396TIP3    H2 4195   3.822   3.137   5.197 -1.2369  1.3215  1.0429
 1397TIP3   OH2 4196   0.549   4.724   1.174 -0.6594  0.1963  0.8168
 1397TIP3    H1 4197   0.524   4.708   1.083  0.7151  0.5309  0.3573
 1397TIP3    H2 4198   0.599   4.806   1.170  1.6481 -1.0987  1.4446
 1398TIP3   OH2 4199   0.392   3.624   1.572  0.5287 -0.2555 -0.8916
 1398TIP3    H1 4200   0.344   3.673   1.505 -0.0228  0.5957  0.1074
 1398TIP3    H2 4201   0.459   3.685   1.603 -1.2814  0.5941  1.6201
 1399TIP3   OH2 4202   5.712   5.493   3.097 -0.0396  0.1079 -0.2243
 1399TIP3    H1 4203   5.730   5.572   3.046 -0.5465  1.6702  1.8688
 1399TIP3    H2 4204   5.618   5.480   3.088 -0.3589  1.1383  1.2203
 1400TIP3   OH2 4205   4.684   0.627   4.306 -0.0062  0.3212  0.3114
 1400TIP3    H1 4206   4.764   0.616   4.254 -0.4692  0.6753 -0.4863
 1400TIP3    H2 4207   4.667   0.540   4.341  0.9188  0.3136  0.7733
 1401TIP3   OH2 4208   2.692   1.749   0.357 -0.2791  0.2851 -0.1780
 1401TIP3    H1 4209   2.749   1.784   0.425 -0.1676  1.4765 -0.8590
 1401TIP3    H2 4210   2.709   1.655   0.358  0.3909  0.3992  0.8196
 1402TIP3   OH2 4211   2.610   2.832   1.634  0.0590  0.4447 -0.0118
 1402TIP3    H1 4212   2.530   2.782   1.617 -0.1661  0.5641  0.6684
 1402TIP3    H2 4213   2.628   2.878   1.551  0.7348 -1.3714 -0.9211
 1403TIP3   OH2 4214   2.815   3.283   0.656  0.3451 -0.4295  0.3815
 1403TIP3    H1 4215   2.789   3.286   0.564  2.1438  0.1647 -0.1538
 1403TIP3    H2 4216   2.865   3.202   0.665  0.9186 -0.0541  0.6214
 1404TIP3   OH2 4217   2.437   0.176   3.874 -0.5269 -0.1145 -0.0663
 1404TIP3    H1 4218   2.481   0.241   3.819 -1.7463  1.0420  0.2820
 1404TIP3    H2 4219   2.384   0.227   3.935 -1.5695 -1.4320  0.1887
 1405TIP3   OH2 4220   2.571   2.991   0.169  0.2995  0.0552  0.1268
 1405TIP3    H1 4221   2.545   3.046   0.242 -1.2115  1.0519 -1.0979
 1405TIP3    H2 4222   2.666   2.995   0.168  0.3050  0.6808  1.5317
 1406TIP3   OH2 4223   0.914   3.873   3.354 -0.0296  0.0096 -0.1892
 1406TIP3    H1 4224   0.899   3.955   3.308 -0.2491  0.1716  0.1661
 1406TIP3    H2 4225   0.830   3.852   3.395 -0.1276 -0.6664 -0.7027
 1407TIP3   OH2 4226   4.326   2.772   0.548 -0.0118  0.0672 -0.5327
 1407TIP3    H1 4227   4.232   2.761   0.536 -0.1128  0.1173  0.1700
 1407TIP3    H2 4228   4.335   2.861   0.581  0.3095  0.1590 -0.8661
 1408TIP3   OH2 4229   3.448   3.443   0.341 -0.1018  0.2834 -0.1372
 1408TIP3    H1 4230   3.496   3.525   0.336  0.3464 -0.0630 -2.3945
 1408TIP3    H2 4231   3.356   3.468   0.333 -0.2559  0.7628  2.2103
 1409TIP3   OH2 4232   0.069   3.154   0.067  0.2158  0.2301  0.4085
 1409TIP3    H1 4233   0.108   3.149   0.154  3.0106 -1.5992 -0.8204
 1409TIP3    H2 4234   0.128   3.210   0.017 -1.9842  2.2534 -0.1169
 1410TIP3   OH2 4235   2.962   4.516   4.073  0.4655  0.1195  0.1710
 1410TIP3    H1 4236   2.877   4.560   4.080  0.5188  0.4418 -0.8969
 1410TIP3    H2 4237   2.947   4.429   4.110  0.0897  0.6826  1.4050
 1411TIP3   OH2 4238   5.582   3.775   3.580  0.4095 -0.1812 -0.2094
 1411TIP3    H1 4239   5.645   3.796   3.511  0.3247  0.4667 -0.0954
 1411TIP3    H2 4240   5.585   3.851   3.639 -1.0485  0.2283 -0.6221
 1412TIP3   OH2 4241   4.950   2.732   4.651 -0.6175 -0.2275  0.2559
 1412TIP3    H1 4242   5.010   2.807   4.648 -0.8141 -0.0753  0.0799
 1412TIP3    H2 4243   4.972   2.687   4.732 -0.0836 -0.3269  0.0559
 1413TIP3   OH2 4244   0.349   2.686   3.100  0.0397 -0.3276  0.0474
 1413TIP3    H1 4245   0.344   2.676   3.005 -0.9380 -2.4100  0.2738
 1413TIP3    H2 4246   0.434   2.650   3.124  0.0342 -0.3599  0.0185
 1414TIP3   OH2 4247   3.549   2.058   3.826  0.4123 -0.5286  0.0917
 1414TIP3    H1 4248   3.589   2.138   3.860  0.7592 -0.6178 -0.0961
 1414TIP3    H2 4249   3.515   2.013   3.903 -2.0048  0.9709 -0.0167
 1415TIP3   OH2 4250   2.847   0.985   2.844  0.2657  0.3134 -0.1356
 1415TIP3    H1 4251   2.811   1.056   2.791  0.9191 -0.3695 -1.5353
 1415TIP3    H2 4252   2.773   0.956   2.898 -0.7141  0.3714 -1.3880
 1416TIP3   OH2 4253   0.131   5.006   4.495 -0.2164  0.0491  0.0964
 1416TIP3    H1 4254   0.158   5.071   4.430  0.7587  1.0250  1.4205
 1416TIP3    H2 4255   0.173   4.925   4.468  0.4894  0.5364 -0.2715
 1417TIP3   OH2 4256   5.281   5.433   3.666  0.4330  0.0407  0.2667
 1417TIP3    H1 4257   5.343   5.496   3.630  0.0633  0.0122 -0.4362
 1417TIP3    H2 4258   5.281   5.361   3.603  0.8669 -0.6841  1.0679
 1418TIP3   OH2 4259   0.584   3.905   2.593 -0.0468  0.0855  0.5122
 1418TIP3    H1 4260   0.564   3.899   2.500 -0.5410  0.9875  0.5446
 1418TIP3    H2 4261   0.653   3.841   2.608  0.0446 -0.0519 -0.4763
 1419TIP3   OH2 4262   4.745   2.937   4.966 -0.4647 -0.2274  0.6802
 1419TIP3    H1 4263   4.838   2.928   4.947 -0.2897 -0.1205  1.4213
 1419TIP3    H2 4264   4.737   3.024   5.005 -1.1151  0.3449 -0.6658
 1420TIP3   OH2 4265   2.188   0.785   5.141  0.4088 -0.5078 -0.1895
 1420TIP3    H1 4266   2.205   0.799   5.234  1.9445  1.5325 -0.7270
 1420TIP3    H2 4267   2.111   0.727   5.139 -1.4457  1.6399  2.3539
 1421TIP3   OH2 4268   4.786   2.054   2.769  0.3439  0.4304  0.0078
 1421TIP3    H1 4269   4.869   2.078   2.809  1.0076 -1.0675 -0.4067
 1421TIP3    H2 4270   4.744   1.995   2.831  0.1132  0.2742 -0.2898
 1422TIP3   OH2 4271   3.548   5.400   3.344  0.4019  0.2085  0.8924
 1422TIP3    H1 4272   3.487   5.396   3.271  0.4724 -1.1176  0.8774
 1422TIP3    H2 4273   3.629   5.435   3.307  0.8479 -1.6279 -0.0016
 1423TIP3   OH2 4274   1.514   5.065   4.920 -0.7539 -0.5736  0.2766
 1423TIP3    H1 4275   1.511   5.061   5.016 -0.5736 -0.9488  0.2683
 1423TIP3    H2 4276   1.532   5.157   4.900 -0.8470 -0.4855  0.6034
 1424TIP3   OH2 4277   5.784   5.606   0.980 -0.3706 -0.3050  0.4721
 1424TIP3    H1 4278   5.701   5.569   0.949 -1.1528  0.6216  1.3629
 1424TIP3    H2 4279   5.819   5.653   0.905 -0.8296 -0.4230  0.1786
 1425TIP3   OH2 4280   2.913   1.370   1.334 -0.1942 -0.2044 -0.3217
 1425TIP3    H1 4281   2.953   1.283   1.333  0.8035  0.2340 -1.1348
 1425TIP3    H2 4282   2.961   1.419   1.267 -0.1012  1.2594  0.7708
 1426TIP3   OH2 4283   0.066   4.241   2.281 -0.1154 -0.2965 -0.0500
 1426TIP3    H1 4284   0.144   4.203   2.322 -0.8094 -1.9661 -0.2102
 1426TIP3    H2 4285   0.061   4.200   2.195 -0.6549  0.5191 -0.4255
 1427TIP3   OH2 4286   6.066   3.979   4.175  0.8768  0.4878 -0.0219
 1427TIP3    H1 4287   6.077   4.056   4.231 -0.2824  0.3543  0.4311
 1427TIP3    H2 4288   5.971   3.973   4.161  1.0131 -0.4101 -0.6913
 1428TIP3   OH2 4289   2.790   2.416   0.399 -0.4721 -0.2877 -0.1518
 1428TIP3    H1 4290   2.701   2.446   0.417 -0.5473 -1.0957  0.9532
 1428TIP3    H2 4291   2.781   2.322   0.382  0.1035 -0.2773 -0.5555
 1429TIP3   OH2 4292   4.788   5.139   0.273 -0.2967 -0.0441 -0.0265
 1429TIP3    H1 4293   4.711   5.188   0.244 -0.2809  0.2856  0.4807
 1429TIP3    H2 4294   4.800   5.072   0.206 -1.7693 -0.9181  0.5310
 1430TIP3   OH2 4295   1.987   2.590   3.882 -0.2099  0.1143 -0.7825
 1430TIP3    H1 4296   1.902   2.613   3.921  0.8032  1.6305  0.6799
 1430TIP3    H2 4297   2.041   2.565   3.957  0.5059 -1.3902 -1.7618
 1431TIP3   OH2 4298   4.736   1.907   2.980 -0.0728 -0.0480  0.6723
 1431TIP3    H1 4299   4.830   1.888   2.980 -0.0643 -0.1442 -0.6696
 1431TIP3    H2 4300   4.713   1.915   3.072  1.4358  0.8896  1.0142
 1432TIP3   OH2 4301   0.366   1.155   3.586  0.0402  0.4453 -0.0891
 1432TIP3    H1 4302   0.369   1.141   3.491  1.2727  1.9845 -0.3310
 1432TIP3    H2 4303   0.360   1.250   3.596 -1.5114  0.2380  1.3993
 1433TIP3   OH2 4304   4.028   4.637   1.775  0.1578  0.1382 -0.2945
 1433TIP3    H1 4305   3.953   4.669   1.824 -0.1591 -0.4698 -0.3690
 1433TIP3    H2 4306   4.065   4.568   1.831 -1.2223 -1.7741 -1.6111
 1434TIP3   OH2 4307   5.643   5.993   2.039  0.9250 -0.0033  0.4062
 1434TIP3    H1 4308   5.722   5.954   2.075  0.4153 -1.1359  0.3381
 1434TIP3    H2 4309   5.638   5.960   1.950 -0.1478 -0.7603  0.7269
 1435TIP3   OH2 4310   1.693   0.435   3.607 -0.3265 -0.0309 -0.1440
 1435TIP3    H1 4311   1.731   0.510   3.653  0.6352  0.9121 -2.3102
 1435TIP3    H2 4312   1.599   0.451   3.609 -0.2662  0.2977  0.9167
 1436TIP3   OH2 4313   2.173   4.723   2.130  0.3124  0.1724 -0.0840
 1436TIP3    H1 4314   2.189   4.817   2.124  0.2663  0.1105 -1.8071
 1436TIP3    H2 4315   2.078   4.715   2.137  0.3025  0.2524 -0.1288
 1437TIP3   OH2 4316   4.334   0.642   3.470 -0.2406 -0.1290  0.7580
 1437TIP3    H1 4317   4.359   0.727   3.434 -0.7677 -0.7734 -1.2379
 1437TIP3    H2 4318   4.393   0.579   3.428 -0.2968 -0.8510  1.7030
 1438TIP3   OH2 4319   3.567   5.932   2.034 -0.1888  0.0036 -0.2543
 1438TIP3    H1 4320   3.641   5.932   1.973  0.2421  0.1189  0.2553
 1438TIP3    H2 4321   3.589   5.866   2.099 -2.0662 -2.3682 -1.8568
 1439TIP3   OH2 4322   1.608   1.919   1.925  0.5960  0.0374  0.2120
 1439TIP3    H1 4323   1.677   1.852   1.926  0.4280 -0.1331  0.7910
 1439TIP3    H2 4324   1.532   1.876   1.963 -0.4547 -0.4070 -2.2084
 1440TIP3   OH2 4325   5.245   5.526   4.423  0.0394  0.0846  0.0363
 1440TIP3    H1 4326   5.197   5.507   4.341 -0.8392 -0.7915  0.7232
 1440TIP3    H2 4327   5.337   5.526   4.397 -0.2795  2.5057 -1.4725
 1441TIP3   OH2 4328   3.201   0.893   0.524 -0.1690  0.5872  0.1394
 1441TIP3    H1 4329   3.213   0.812   0.473 -1.7613  1.5589 -1.9491
 1441TIP3    H2 4330   3.289   0.929   0.534  0.2632  0.1310 -1.6369
 1442TIP3   OH2 4331   1.824   3.471   0.977  0.2933  0.1054 -0.5126
 1442TIP3    H1 4332   1.816   3.529   1.053  0.5545 -1.0313  0.4243
 1442TIP3    H2 4333   1.894   3.511   0.925  2.1855 -0.5847  1.3225
 1443TIP3   OH2 4334   5.500   1.997   0.564 -0.5570 -0.1664 -0.5501
 1443TIP3    H1 4335   5.438   1.987   0.636  0.0693  0.9435  0.1694
 1443TIP3    H2 4336   5.584   1.970   0.602 -0.4126 -0.6474 -1.2023
 1444TIP3   OH2 4337   3.742   3.757   3.326  0.1136 -0.4941  0.1892
 1444TIP3    H1 4338   3.660   3.804   3.342  0.8700  0.6447  0.8209
 1444TIP3    H2 4339   3.731   3.722   3.237  0.0033  2.0130 -0.8975
 1445TIP3   OH2 4340   2.159   3.591   3.605  0.0244  0.1082 -0.5560
 1445TIP3    H1 4341   2.077   3.541   3.599 -0.3393  0.7850 -5.0836
 1445TIP3    H2 4342   2.145   3.651   3.678 -2.3905 -1.6130  0.5271
 1446TIP3   OH2 4343   5.998   0.951   5.097 -0.0157 -0.3488  0.0704
 1446TIP3    H1 4344   6.087   0.918   5.089 -0.2953 -1.2448  0.4682
 1446TIP3    H2 4345   5.944   0.887   5.051 -0.5025 -0.0904  0.2671
 1447TIP3   OH2 4346   5.918   4.071   0.410 -0.2597 -0.4277  0.2768
 1447TIP3    H1 4347   6.006   4.047   0.440 -0.5625  0.9518  2.4102
 1447TIP3    H2 4348   5.859   4.021   0.467 -0.9118 -1.4090 -1.1959
 1448TIP3   OH2 4349   0.020   0.322   1.849  0.6911  0.8319  0.2710
 1448TIP3    H1 4350   0.073   0.379   1.794  2.5436 -0.1309  0.9837
 1448TIP3    H2 4351   0.025   0.236   1.808 -0.3331  0.7149  0.3589
 1449TIP3   OH2 4352   2.380   5.236   4.403  0.3586 -0.3025 -0.4077
 1449TIP3    H1 4353   2.349   5.327   4.412  2.3089  0.4417 -0.8197
 1449TIP3    H2 4354   2.458   5.231   4.458  0.1355 -1.8238 -0.1914
 1450TIP3   OH2 4355   0.161   5.246   2.489  0.3345  0.3490  0.0203
 1450TIP3    H1 4356   0.083   5.191   2.475  2.1797 -1.9269 -2.3601
 1450TIP3    H2 4357   0.143   5.326   2.439 -1.0633  0.5455  0.7809
 1451TIP3   OH2 4358   4.568   0.393   3.893  0.2588 -0.6575 -0.5215
 1451TIP3    H1 4359   4.497   0.351   3.845  0.2999 -1.7259  0.3076
 1451TIP3    H2 4360   4.648   0.363   3.850  0.2477  0.9531 -1.7837
 1452TIP3   OH2 4361   2.084   3.745   2.950 -0.0745 -0.6046 -0.3080
 1452TIP3    H1 4362   2.051   3.726   3.038  0.4836  1.3379  0.3695
 1452TIP3    H2 4363   2.087   3.660   2.907  1.4473 -1.9366  2.1762
 1453TIP3   OH2 4364   4.432   4.586   4.193 -0.3681  0.5581  0.9172
 1453TIP3    H1 4365   4.364   4.558   4.253 -2.0780  0.1470 -1.0810
 1453TIP3    H2 4366   4.444   4.679   4.212 -1.9821  0.7968  0.9141
 1454TIP3   OH2 4367   4.139   2.612   0.318 -0.3122  0.3569 -0.1806
 1454TIP3    H1 4368   4.204   2.671   0.356  0.8997 -1.0709  0.0734
 1454TIP3    H2 4369   4.107   2.561   0.392 -0.2328 -0.3201 -0.5996
 1455TIP3   OH2 4370   3.829   5.546   0.393 -0.6765 -0.0365 -0.0466
 1455TIP3    H1 4371   3.853   5.498   0.472 -1.7570  0.0404  0.3501
 1455TIP3    H2 4372   3.890   5.514   0.326  0.0192 -0.3655  0.7227
 1456TIP3   OH2 4373   4.559   4.082  -0.030 -0.0303 -0.1506 -0.6843
 1456TIP3    H1 4374   4.576   4.038   0.054  0.3853  1.0118 -0.1377
 1456TIP3    H2 4375   4.472   4.120  -0.019 -0.6687 -1.3253 -1.3962
 1457TIP3   OH2 4376   0.584   3.040   0.530  0.4490  0.1952 -0.5528
 1457TIP3    H1 4377   0.517   2.988   0.486 -0.1723  0.8818 -0.4338
 1457TIP3    H2 4378   0.658   2.980   0.541 -1.0513 -1.3575  1.6618
 1458TIP3   OH2 4379   1.940   0.516   0.697  0.1557  0.1383  0.5385
 1458TIP3    H1 4380   1.905   0.599   0.665 -0.9702  0.0712  1.5342
 1458TIP3    H2 4381   2.033   0.520   0.677 -0.2614  0.6673 -1.4677
 1459TIP3   OH2 4382   2.391   3.186   2.380  0.4804 -0.0570 -0.0564
 1459TIP3    H1 4383   2.394   3.257   2.444 -1.2699  0.3678 -0.3951
 1459TIP3    H2 4384   2.406   3.106   2.431  0.2977  0.3737  0.6822
 1460TIP3   OH2 4385   2.346   2.294   0.647  0.5741  0.1078  0.0437
 1460TIP3    H1 4386   2.392   2.256   0.722 -0.1695 -0.4050  0.2568
 1460TIP3    H2 4387   2.312   2.218   0.600 -2.0508  0.4766  1.1762
 1461TIP3   OH2 4388   1.305   0.272   1.238  0.0071  0.5341 -0.2796
 1461TIP3    H1 4389   1.267   0.359   1.252 -1.9978 -0.2416 -0.5694
 1461TIP3    H2 4390   1.321   0.267   1.143  0.5283  0.7312 -0.2051
 1462TIP3   OH2 4391   4.359   4.550   0.889  0.5804  0.1847 -0.4525
 1462TIP3    H1 4392   4.345   4.629   0.836 -0.5124  0.5465  0.3327
 1462TIP3    H2 4393   4.409   4.580   0.965  2.2805 -0.3641 -1.3132
 1463TIP3   OH2 4394   1.872   4.409   2.714  0.3509  0.1314 -0.0251
 1463TIP3    H1 4395   1.788   4.454   2.701  1.3664  2.2375  0.2619
 1463TIP3    H2 4396   1.858   4.321   2.679 -2.1663  0.1953  0.6028
 1464TIP3   OH2 4397   5.648   4.240   0.593 -0.0842 -0.2900  0.1505
 1464TIP3    H1 4398   5.659   4.146   0.578  0.0697 -0.3289  0.4851
 1464TIP3    H2 4399   5.657   4.280   0.506  0.7049 -0.5095  0.1220
 1465TIP3   OH2 4400   3.619   0.607   2.307 -0.2438  0.4584 -0.0561
 1465TIP3    H1 4401   3.580   0.690   2.333 -1.4022 -0.2879  0.7152
 1465TIP3    H2 4402   3.604   0.549   2.382  0.7615 -0.3818 -0.4720
 1466TIP3   OH2 4403   5.706   2.500   4.840 -0.0815  0.4636  0.6036
 1466TIP3    H1 4404   5.690   2.527   4.930  1.8705 -1.6474  1.7068
 1466TIP3    H2 4405   5.689   2.406   4.840  0.7851  0.2682 -1.0093
 1467TIP3   OH2 4406   3.625   0.114   3.272  0.2894 -0.1689  0.0869
 1467TIP3    H1 4407   3.649   0.175   3.203  2.0597 -2.9575 -2.0179
 1467TIP3    H2 4408   3.700   0.114   3.332 -0.8172  1.4981  1.5817
 1468TIP3   OH2 4409   4.449   4.874   4.248  0.2960 -0.4910  0.1420
 1468TIP3    H1 4410   4.367   4.916   4.220  0.2576 -1.7252 -1.7932
 1468TIP3    H2 4411   4.427   4.834   4.332 -0.9517 -0.4059 -0.1140
 1469TIP3   OH2 4412   2.569   3.508   4.491  0.7807 -0.1157  0.2170
 1469TIP3    H1 4413   2.580   3.421   4.453 -0.8111  0.0990 -0.8433
 1469TIP3    H2 4414   2.516   3.494   4.569 -0.1649 -0.0403 -0.3935
 1470TIP3   OH2 4415   0.296   1.110   4.999 -0.1938  0.0316 -0.3822
 1470TIP3    H1 4416   0.362   1.175   5.023 -0.3722  0.3160 -0.6590
 1470TIP3    H2 4417   0.285   1.121   4.905 -0.0197 -0.5893 -0.4799
 1471TIP3   OH2 4418   4.304   2.738   1.232  0.3263 -0.1925 -0.4916
 1471TIP3    H1 4419   4.296   2.782   1.317 -0.0042 -0.5474 -0.3326
 1471TIP3    H2 4420   4.370   2.788   1.185 -0.8607  1.1914 -0.7608
 1472TIP3   OH2 4421   5.907   4.595   2.845  0.8578  0.1529  0.3407
 1472TIP3    H1 4422   5.946   4.518   2.886 -0.1405 -1.8694 -2.2093
 1472TIP3    H2 4423   5.981   4.654   2.829  2.0857 -1.3551  0.1874
 1473TIP3   OH2 4424   1.815   0.511   2.240 -0.0098  0.4648 -0.4683
 1473TIP3    H1 4425   1.850   0.600   2.239  0.7166  0.2089  0.3353
 1473TIP3    H2 4426   1.727   0.520   2.276  0.2819  0.7991  0.1830
 1474TIP3   OH2 4427   5.892   1.330   1.417 -0.6229  0.2234  0.0090
 1474TIP3    H1 4428   5.897   1.235   1.411  0.6003  0.2604  0.2337
 1474TIP3    H2 4429   5.837   1.356   1.343 -0.4637 -0.6121 -0.4120
 1475TIP3   OH2 4430   5.642   5.104   2.646  0.6683 -0.6234  0.3565
 1475TIP3    H1 4431   5.607   5.157   2.717  3.4936  1.6362  0.2501
 1475TIP3    H2 4432   5.711   5.052   2.687 -0.2817 -2.3029 -0.0687
 1476TIP3   OH2 4433   3.323   3.619   3.464 -0.1842  0.3553  0.2367
 1476TIP3    H1 4434   3.405   3.575   3.487 -0.6512 -1.1524 -0.8999
 1476TIP3    H2 4435   3.327   3.702   3.513  1.7768  0.1035  0.6000
 1477TIP3   OH2 4436   0.800   2.609   3.820 -0.2655  0.1195 -0.0379
 1477TIP3    H1 4437   0.815   2.605   3.914  1.6222 -1.3171 -0.3590
 1477TIP3    H2 4438   0.735   2.541   3.803  0.8629 -1.0121  0.0114
 1478TIP3   OH2 4439   3.495   2.572   1.432  0.1422 -0.2883 -0.7057
 1478TIP3    H1 4440   3.573   2.517   1.431 -0.5751 -1.3363 -1.3957
 1478TIP3    H2 4441   3.521   2.651   1.385  1.3604  0.2653  0.7861
 1479TIP3   OH2 4442   6.016   0.518   3.745 -0.1647  0.0995 -0.3139
 1479TIP3    H1 4443   6.033   0.430   3.714 -0.7021  0.7183 -2.6092
 1479TIP3    H2 4444   6.101   0.561   3.745  0.0102 -0.2489  0.2152
 1480TIP3   OH2 4445   4.276   1.497   0.086  0.0122 -0.2404 -0.2161
 1480TIP3    H1 4446   4.363   1.527   0.113 -0.5812  2.0603 -0.6644
 1480TIP3    H2 4447   4.273   1.514  -0.008 -1.0512  0.0497 -0.1384
 1481TIP3   OH2 4448   0.502   0.711   4.696 -0.5334  0.0765 -0.3904
 1481TIP3    H1 4449   0.521   0.726   4.603  2.4863 -1.2725 -0.0911
 1481TIP3    H2 4450   0.514   0.797   4.737  0.2941  0.2487 -0.9600
 1482TIP3   OH2 4451   2.765   1.648   4.639 -0.1873  0.4656 -0.0411
 1482TIP3    H1 4452   2.723   1.660   4.554 -0.0420  0.5532 -0.0992
 1482TIP3    H2 4453   2.703   1.592   4.688  0.7691 -1.5488 -1.0087
 1483TIP3   OH2 4454   2.826   4.030   1.086 -0.4155  0.1249  0.4076
 1483TIP3    H1 4455   2.823   3.934   1.090  2.5951 -0.0336  2.3259
 1483TIP3    H2 4456   2.892   4.050   1.020  0.8248  0.7238  1.7679
 1484TIP3   OH2 4457   3.607   1.522   4.977  0.3409  0.3443  0.7508
 1484TIP3    H1 4458   3.512   1.535   4.979  0.2958  0.1527  0.1946
 1484TIP3    H2 4459   3.631   1.507   5.068 -0.2449 -0.1989  0.8234
 1485TIP3   OH2 4460   3.830   1.558   3.440 -0.3594  0.3428 -0.4372
 1485TIP3    H1 4461   3.823   1.622   3.512 -0.4528  0.0592 -0.1919
 1485TIP3    H2 4462   3.868   1.608   3.368  1.0935  0.2938  0.2466
 1486TIP3   OH2 4463   0.380   0.067   1.413  0.0131  0.5470  0.0160
 1486TIP3    H1 4464   0.385   0.087   1.507 -0.4577 -1.9501  0.6577
 1486TIP3    H2 4465   0.287   0.060   1.395  0.0020  2.9395 -1.1746
 1487TIP3   OH2 4466   3.035   2.002   4.702  0.0771 -0.0239 -0.1048
 1487TIP3    H1 4467   3.080   2.054   4.768  0.8273 -0.9557  0.1279
 1487TIP3    H2 4468   3.025   2.062   4.627  1.8713  0.1567 -0.2322
 1488TIP3   OH2 4469   0.502   5.277   2.227  0.1730 -0.1655  0.4760
 1488TIP3    H1 4470   0.407   5.273   2.218 -0.0856 -0.8504  2.7637
 1488TIP3    H2 4471   0.518   5.258   2.320  2.5102  0.5831  0.2920
 1489TIP3   OH2 4472   4.688   0.793   0.702 -1.4885 -0.2641  0.6804
 1489TIP3    H1 4473   4.694   0.781   0.797 -1.4393 -0.2252  0.6822
 1489TIP3    H2 4474   4.765   0.845   0.679 -1.5778 -0.1482  0.6400
 1490TIP3   OH2 4475   0.084   0.736   3.558 -0.2989  0.0584  0.4531
 1490TIP3    H1 4476   0.112   0.802   3.495 -0.2635 -3.4271 -3.6278
 1490TIP3    H2 4477   0.158   0.676   3.564 -0.4022  0.0866  3.8416
 1491TIP3   OH2 4478   3.170   5.394   2.096 -0.2684  0.0295 -0.2076
 1491TIP3    H1 4479   3.089   5.346   2.081 -0.0528 -0.5133  0.3340
 1491TIP3    H2 4480   3.145   5.466   2.154 -0.3177 -0.2811  0.1581
 1492TIP3   OH2 4481   3.639   5.253   4.306  0.0464  0.2310 -0.1415
 1492TIP3    H1 4482   3.563   5.296   4.345 -0.5348 -2.2451  1.6816
 1492TIP3    H2 4483   3.631   5.161   4.331  4.4031  0.0371  1.5759
 1493TIP3   OH2 4484   2.694   1.227   3.076  0.1470 -0.4065  0.2517
 1493TIP3    H1 4485   2.741   1.170   3.137  0.4191 -0.1602  0.2696
 1493TIP3    H2 4486   2.646   1.166   3.019 -1.1224 -0.6268  1.4898
 1494TIP3   OH2 4487   1.421   0.499   2.905 -0.2869  0.7732 -0.2254
 1494TIP3    H1 4488   1.478   0.567   2.939 -0.2192  0.2626  0.7177
 1494TIP3    H2 4489   1.425   0.429   2.971 -3.0200  1.2396  0.5449
 1495TIP3   OH2 4490   4.263   0.480   2.790 -0.4565 -0.4600  0.7271
 1495TIP3    H1 4491   4.334   0.447   2.846 -0.8346 -1.6030  0.5584
 1495TIP3    H2 4492   4.294   0.566   2.760 -0.2183  0.1425  2.6056
 1496TIP3   OH2 4493   4.653   3.438   1.607  0.3676 -0.3247 -0.7892
 1496TIP3    H1 4494   4.687   3.525   1.630  1.5873 -0.9476 -0.1040
 1496TIP3    H2 4495   4.562   3.440   1.634 -0.1511  1.3294 -2.4354
 1497TIP3   OH2 4496   5.075   0.400   2.255  0.3412  0.5900 -0.2378
 1497TIP3    H1 4497   5.036   0.415   2.169 -0.6084 -0.2935  0.0207
 1497TIP3    H2 4498   5.132   0.324   2.243  0.0634  0.3501 -0.0453
 1498TIP3   OH2 4499   1.542   5.975   1.064 -0.2111 -0.4744 -0.6866
 1498TIP3    H1 4500   1.588   5.939   0.989 -0.1135 -0.1947 -0.7635
 1498TIP3    H2 4501   1.450   5.950   1.050 -0.2214 -0.2775 -0.9905
 1499TIP3   OH2 4502   1.058   1.477   1.297  0.0567 -0.0268 -0.9727
 1499TIP3    H1 4503   1.119   1.403   1.306  0.3765  0.4618  1.5137
 1499TIP3    H2 4504   1.112   1.555   1.311 -1.2129  0.3829  2.5348
 1500TIP3   OH2 4505   5.294   0.194   0.967  0.0025  0.0288 -0.4950
 1500TIP3    H1 4506   5.227   0.129   0.989 -0.0549  0.1746 -0.2367
 1500TIP3    H2 4507   5.367   0.174   1.026  0.3766 -0.4311 -1.1004
 1501TIP3   OH2 4508   3.216   3.423   1.069 -0.1533  0.0391  0.4239
 1501TIP3    H1 4509   3.271   3.496   1.097 -1.2242  0.3679  1.8094
 1501TIP3    H2 4510   3.201   3.439   0.976 -0.8882  1.9928  0.8276
 1502TIP3   OH2 4511   3.108   1.553   3.467 -0.4655  0.5362  0.7225
 1502TIP3    H1 4512   3.180   1.561   3.530 -1.1089  1.6906  1.3294
 1502TIP3    H2 4513   3.091   1.643   3.439 -1.0165  0.1599 -0.1680
 1503TIP3   OH2 4514   4.915   3.390   2.481 -0.1567 -0.4555 -0.1376
 1503TIP3    H1 4515   4.992   3.442   2.501 -0.1768 -0.0394 -1.0733
 1503TIP3    H2 4516   4.865   3.388   2.563  0.5241 -0.1768  0.2887
 1504TIP3   OH2 4517   3.377   5.536   3.523  0.6210 -0.4221  0.4810
 1504TIP3    H1 4518   3.329   5.469   3.572 -0.5601 -1.3359 -1.7801
 1504TIP3    H2 4519   3.443   5.487   3.475  1.1787  0.3330  0.4590
 1505TIP3   OH2 4520   3.679   0.253   0.394 -0.3627 -0.0668  0.4293
 1505TIP3    H1 4521   3.741   0.256   0.321 -0.0707  0.9470  0.7016
 1505TIP3    H2 4522   3.593   0.250   0.352 -0.1551 -1.3944  0.0483
 1506TIP3   OH2 4523   1.001   0.143   3.480  0.6331  0.1705 -0.3468
 1506TIP3    H1 4524   1.044   0.102   3.556  0.6601 -0.1708 -0.5429
 1506TIP3    H2 4525   0.958   0.221   3.515  0.8470  0.1436 -0.0241
 1507TIP3   OH2 4526   2.721   4.151   1.302  0.1414 -0.8452 -0.2030
 1507TIP3    H1 4527   2.760   4.084   1.245  1.2247 -0.2383 -0.2077
 1507TIP3    H2 4528   2.772   4.147   1.382  1.1498  0.8844 -0.7019
 1508TIP3   OH2 4529   5.939   5.747   4.690 -0.0357  0.1962 -0.0798
 1508TIP3    H1 4530   6.001   5.810   4.653  1.6287 -0.7303  1.0029
 1508TIP3    H2 4531   5.869   5.801   4.726  0.9636  1.3997  0.1555
 1509TIP3   OH2 4532   0.706   1.409   4.900  0.1425  0.2565 -0.0825
 1509TIP3    H1 4533   0.716   1.426   4.806  0.2077 -0.7920 -0.2785
 1509TIP3    H2 4534   0.611   1.411   4.914 -0.0051 -1.3572 -0.5549
 1510TIP3   OH2 4535   4.909   3.873   2.199 -0.5033 -0.2268 -0.4825
 1510TIP3    H1 4536   4.892   3.780   2.184 -1.5242  0.0100 -0.8397
 1510TIP3    H2 4537   4.836   3.903   2.253 -1.7351  0.9760 -2.6631
 1511TIP3   OH2 4538   0.594   3.711   0.520  0.0927 -0.4736 -0.9040
 1511TIP3    H1 4539   0.548   3.795   0.523 -1.9057 -1.5157 -0.7801
 1511TIP3    H2 4540   0.577   3.671   0.606  0.7756 -1.1361 -1.0641
 1512TIP3   OH2 4541   5.479   4.346   2.167 -0.4066 -0.1086  0.3898
 1512TIP3    H1 4542   5.418   4.388   2.106  0.5068  0.2696 -0.2776
 1512TIP3    H2 4543   5.544   4.413   2.188  0.6389 -0.9368 -0.0997
 1513TIP3   OH2 4544   0.596   4.023   4.977 -0.0702  0.2498 -0.1571
 1513TIP3    H1 4545   0.652   4.101   4.978 -0.0830  0.2489  0.4610
 1513TIP3    H2 4546   0.517   4.051   4.929  0.5913  0.1461 -1.3628
 1514TIP3   OH2 4547   0.713   0.502   4.399  0.5264  0.4987  0.5851
 1514TIP3    H1 4548   0.689   0.449   4.475  0.8381 -0.9846 -0.3066
 1514TIP3    H2 4549   0.796   0.542   4.422  0.9367 -0.4558  0.7944
 1515TIP3   OH2 4550   1.808   4.979   2.662  0.3370  0.1322  0.1388
 1515TIP3    H1 4551   1.770   4.946   2.580 -0.8253  3.0782 -0.6395
 1515TIP3    H2 4552   1.829   4.900   2.712  0.1299 -1.7638 -2.5475
 1516TIP3   OH2 4553   5.804   1.463   0.312 -0.7737  0.1888 -0.3501
 1516TIP3    H1 4554   5.759   1.547   0.327 -0.2153  0.5008 -0.3975
 1516TIP3    H2 4555   5.734   1.402   0.292 -1.0919  0.9095 -1.5229
 1517TIP3   OH2 4556   1.162   2.571   4.700 -0.2317 -0.2001  0.1256
 1517TIP3    H1 4557   1.088   2.632   4.699 -0.2539 -0.1628  1.6924
 1517TIP3    H2 4558   1.173   2.545   4.608 -0.3153  2.0181 -0.5668
 1518TIP3   OH2 4559   0.221   0.554   0.586 -0.2880  0.2589 -0.5202
 1518TIP3    H1 4560   0.192   0.498   0.658 -0.4793  0.4774 -0.4251
 1518TIP3    H2 4561   0.209   0.643   0.619  2.2103  0.3853  0.2216
 1519TIP3   OH2 4562   5.735   5.399   1.910 -0.1938  0.1243 -0.4408
 1519TIP3    H1 4563   5.828   5.413   1.928  0.2721 -1.0793 -1.7094
 1519TIP3    H2 4564   5.695   5.486   1.920  0.8742  0.4736  1.0845
 1520TIP3   OH2 4565   1.029   2.211   2.085 -0.0226  0.0893  0.1355
 1520TIP3    H1 4566   1.002   2.124   2.054 -2.0457  0.7648 -0.1117
 1520TIP3    H2 4567   1.077   2.248   2.011 -0.0225 -0.4193 -0.1286
 1521TIP3   OH2 4568   0.433   3.255   4.124  0.1292  0.2484 -0.3489
 1521TIP3    H1 4569   0.392   3.211   4.050  0.2275 -0.6819  0.1270
 1521TIP3    H2 4570   0.477   3.331   4.087  0.8090 -0.6094 -1.3553
 1522TIP3   OH2 4571   3.856   1.362   4.607  0.1681 -0.3423  0.2233
 1522TIP3    H1 4572   3.832   1.405   4.525 -1.0686 -0.0337  0.7142
 1522TIP3    H2 4573   3.943   1.395   4.627 -0.4284  1.3509  0.1818
 1523TIP3   OH2 4574   6.151   0.135   4.611  0.8053 -0.3496 -0.2497
 1523TIP3    H1 4575   6.168   0.088   4.529  0.3748  1.0668 -1.1932
 1523TIP3    H2 4576   6.233   0.127   4.660  1.4128 -0.4429 -1.2377
 1524TIP3   OH2 4577   4.199   3.542   1.409  0.3842  0.2563 -0.7116
 1524TIP3    H1 4578   4.163   3.606   1.348 -1.3899 -0.0487 -0.0443
 1524TIP3    H2 4579   4.277   3.508   1.365  0.1699  1.3415 -1.9949
 1525TIP3   OH2 4580   5.639   1.739   2.270 -0.4524  0.0533  0.2711
 1525TIP3    H1 4581   5.730   1.716   2.287  0.1495  1.4206 -0.8683
 1525TIP3    H2 4582   5.605   1.666   2.218 -0.1250 -0.6064  0.9534
 1526TIP3   OH2 4583   1.546   2.087   4.880  0.0926  0.3244  0.1957
 1526TIP3    H1 4584   1.545   2.182   4.875  1.5985  0.3108 -1.0605
 1526TIP3    H2 4585   1.453   2.063   4.888 -0.2330  1.9072  1.9529
 1527TIP3   OH2 4586   2.209   1.539   1.944  0.0208  0.5022  0.0490
 1527TIP3    H1 4587   2.222   1.601   1.872  0.3587  1.1435  0.6493
 1527TIP3    H2 4588   2.220   1.453   1.904 -1.1393  0.7921 -0.9433
 1528TIP3   OH2 4589   0.212   3.505   4.207  0.6636 -0.2550  0.2752
 1528TIP3    H1 4590   0.305   3.528   4.196  0.5858 -1.0114 -3.2015
 1528TIP3    H2 4591   0.196   3.438   4.141 -2.3046 -0.4423  1.0378
 1529TIP3   OH2 4592   5.134   4.352   3.197  0.7847 -0.0593 -0.3097
 1529TIP3    H1 4593   5.186   4.287   3.243  0.5429 -0.2520 -0.3021
 1529TIP3    H2 4594   5.043   4.329   3.218  0.7013  0.3349 -0.2329
 1530TIP3   OH2 4595   3.136   2.465   1.718  0.1570  0.0460  0.3471
 1530TIP3    H1 4596   3.219   2.488   1.676 -0.6656 -0.8666 -1.8976
 1530TIP3    H2 4597   3.072   2.523   1.677 -0.7700 -1.2923 -0.1413
 1531TIP3   OH2 4598   0.397   0.550   3.820  0.4333 -0.5318 -0.0469
 1531TIP3    H1 4599   0.394   0.635   3.775  0.1554  0.4132  1.6872
 1531TIP3    H2 4600   0.475   0.554   3.875  0.4765 -1.4563 -0.0169
 1532TIP3   OH2 4601   1.909   5.090   3.707 -0.5606 -0.6545 -0.2323
 1532TIP3    H1 4602   1.822   5.125   3.726 -0.4993 -0.3853 -0.4545
 1532TIP3    H2 4603   1.941   5.142   3.633 -0.9250 -1.9162 -1.3084
 1533TIP3   OH2 4604   2.218   5.436   0.752 -0.5948  0.2558 -0.3312
 1533TIP3    H1 4605   2.189   5.527   0.744 -0.3016  0.2596 -1.6191
 1533TIP3    H2 4606   2.310   5.442   0.775 -0.4997  0.2997 -0.7113
 1534TIP3   OH2 4607   2.135   3.130   1.950  0.3880  0.0287 -0.2130
 1534TIP3    H1 4608   2.050   3.170   1.970  0.1285  0.0055 -1.1910
 1534TIP3    H2 4609   2.113   3.051   1.900  0.9718 -0.1204 -0.2361
 1535TIP3   OH2 4610   3.641   4.939   4.298 -0.0086  0.6918 -0.3725
 1535TIP3    H1 4611   3.728   4.924   4.260 -0.7360 -0.7781 -1.5518
 1535TIP3    H2 4612   3.617   4.855   4.337 -0.7813  1.1716  0.2128
 1536TIP3   OH2 4613   5.090   2.795   1.978  0.3968 -0.4070  0.5362
 1536TIP3    H1 4614   5.179   2.829   1.969  0.7110 -0.6715  2.2634
 1536TIP3    H2 4615   5.062   2.823   2.066 -1.2643 -0.2500 -0.0063
 1537TIP3   OH2 4616   6.063   0.885   0.613 -0.4174  0.5225 -0.2798
 1537TIP3    H1 4617   5.968   0.881   0.607 -0.3995  0.1847 -0.3574
 1537TIP3    H2 4618   6.093   0.862   0.525 -0.2495  0.0189 -0.0909
 1538TIP3   OH2 4619   4.340   0.603   3.922  0.2887 -0.2262 -0.2021
 1538TIP3    H1 4620   4.397   0.626   3.995  2.0464  1.3508 -1.9325
 1538TIP3    H2 4621   4.336   0.508   3.923  1.2381 -0.2842  1.2297
 1539TIP3   OH2 4622   2.458   5.568   3.850 -0.1487 -0.1759 -0.4038
 1539TIP3    H1 4623   2.441   5.645   3.904  0.2373  0.9744 -1.8552
 1539TIP3    H2 4624   2.395   5.575   3.778  0.9687 -0.3176 -1.4308
 1540TIP3   OH2 4625   2.018   5.407   0.159  0.3445 -0.2130  0.3174
 1540TIP3    H1 4626   2.001   5.376   0.070 -0.3748 -0.0981  0.4107
 1540TIP3    H2 4627   2.067   5.336   0.200 -0.0144 -0.6066  0.0751
 1541TIP3   OH2 4628   2.024   4.837   1.058 -0.0537 -0.1243 -0.0437
 1541TIP3    H1 4629   2.089   4.870   1.121 -0.0753 -0.0980 -0.0351
 1541TIP3    H2 4630   1.956   4.798   1.113  0.4963 -1.1724 -0.0792
 1542TIP3   OH2 4631   2.660   3.769   4.019  0.2120  0.3201  0.5878
 1542TIP3    H1 4632   2.707   3.776   4.102  0.2196  2.0568  0.4803
 1542TIP3    H2 4633   2.574   3.809   4.037  0.6019  1.7159 -0.4905
 1543TIP3   OH2 4634   0.466   1.803   0.166 -0.4943 -0.5267  0.0042
 1543TIP3    H1 4635   0.473   1.875   0.103  0.2564 -0.2844  0.3563
 1543TIP3    H2 4636   0.372   1.799   0.187 -0.2410  2.4416  2.3653
 1544TIP3   OH2 4637   5.667   1.969   2.135 -0.2139  0.6162 -0.2501
 1544TIP3    H1 4638   5.633   1.903   2.194 -1.3813  0.9245 -0.5572
 1544TIP3    H2 4639   5.652   1.933   2.047 -0.0424  0.9007 -0.3985
 1545TIP3   OH2 4640   6.243   5.570   1.447 -0.1557  0.2526 -0.6734
 1545TIP3    H1 4641   6.164   5.517   1.455 -0.1008  0.3342  0.5389
 1545TIP3    H2 4642   6.255   5.609   1.533  0.0242  1.9528 -1.4350
 1546TIP3   OH2 4643   2.850   3.949   0.573 -0.1797  0.0972 -0.1395
 1546TIP3    H1 4644   2.801   3.920   0.496 -0.1144 -0.2327 -0.0577
 1546TIP3    H2 4645   2.783   3.958   0.642 -0.5751  2.3751 -0.7530
 1547TIP3   OH2 4646   0.026   3.862   3.609 -0.0020 -0.1411 -0.3439
 1547TIP3    H1 4647   0.051   3.905   3.690  0.4018 -0.7092 -0.1649
 1547TIP3    H2 4648   0.108   3.832   3.570 -0.0474  1.2828 -1.6360
 1548TIP3   OH2 4649   0.148   0.443   2.469  0.3680 -0.0352  0.1229
 1548TIP3    H1 4650   0.146   0.354   2.434  5.2258 -1.0272  1.5933
 1548TIP3    H2 4651   0.207   0.490   2.411 -0.3370  1.6400  0.6987
 1549TIP3   OH2 4652   5.783   1.258   3.748 -0.6853 -0.2580 -0.2026
 1549TIP3    H1 4653   5.723   1.187   3.771 -2.6933  0.9935 -1.2595
 1549TIP3    H2 4654   5.832   1.276   3.828 -2.7361 -0.4022  1.1524
 1550TIP3   OH2 4655   0.048   0.811   2.103 -0.1831 -0.3757  0.0618
 1550TIP3    H1 4656   0.119   0.837   2.162 -1.4482 -1.0848  1.9984
 1550TIP3    H2 4657   0.076   0.727   2.067  0.3954 -0.1645  0.0045
 1551TIP3   OH2 4658   0.339   1.274   0.981 -0.0528  0.3436  0.3258
 1551TIP3    H1 4659   0.262   1.255   0.928  0.0351 -1.9593  0.9315
 1551TIP3    H2 4660   0.403   1.308   0.918 -0.7610 -0.0125 -0.6164
 1552TIP3   OH2 4661   6.252   2.849   4.486  0.1779  0.0749  0.5052
 1552TIP3    H1 4662   6.239   2.934   4.445 -0.4930  0.5166  1.5858
 1552TIP3    H2 4663   6.279   2.791   4.415  1.1588  1.3086 -0.1542
 1553TIP3   OH2 4664   1.690   3.733   4.887  0.0054 -0.1643 -0.2587
 1553TIP3    H1 4665   1.634   3.790   4.834  0.2797 -0.2794 -0.6695
 1553TIP3    H2 4666   1.671   3.759   4.977  1.2623  1.6644 -0.4777
 1554TIP3   OH2 4667   2.402   2.637   1.570 -0.3444 -0.2228  0.0134
 1554TIP3    H1 4668   2.319   2.683   1.571  0.2567  0.9262  1.7874
 1554TIP3    H2 4669   2.400   2.581   1.648  0.5413 -0.1537  0.1036
 1555TIP3   OH2 4670   1.376   1.899   3.091 -0.3254 -0.0953 -0.1589
 1555TIP3    H1 4671   1.315   1.832   3.120 -2.1441  1.3106 -0.5737
 1555TIP3    H2 4672   1.410   1.938   3.172 -1.7185  0.5984  0.1190
 1556TIP3   OH2 4673   4.370   5.065   0.378  0.0785 -0.0263  0.0259
 1556TIP3    H1 4674   4.413   4.993   0.333 -1.7951  0.3555 -2.6194
 1556TIP3    H2 4675   4.335   5.026   0.458  2.5899 -0.9968  0.7565
 1557TIP3   OH2 4676   4.212   2.185   0.855  0.2290 -0.1268 -0.1996
 1557TIP3    H1 4677   4.293   2.225   0.822  0.8322 -0.7143  0.5524
 1557TIP3    H2 4678   4.209   2.099   0.812  0.1340 -0.2058 -0.0343
 1558TIP3   OH2 4679   5.550   0.356   3.242 -0.3057 -0.4735 -0.1357
 1558TIP3    H1 4680   5.549   0.418   3.169 -0.1189 -0.5613 -0.2128
 1558TIP3    H2 4681   5.627   0.379   3.293 -0.7380 -0.0643  0.3391
 1559TIP3   OH2 4682   6.295   1.672   1.481  0.1798 -0.2954 -0.2754
 1559TIP3    H1 4683   6.222   1.721   1.442  1.0470  0.3202 -1.2077
 1559TIP3    H2 4684   6.254   1.602   1.531 -1.0420  0.0289 -0.7918
 1560TIP3   OH2 4685   2.898   2.049   3.694  0.2898 -0.2360  0.1802
 1560TIP3    H1 4686   2.977   2.065   3.642  0.0330 -0.8434 -0.4064
 1560TIP3    H2 4687   2.930   2.010   3.776  0.6266 -0.0524  0.1374
 1561TIP3   OH2 4688   1.976   5.902   4.753  0.2160 -0.0985 -0.0640
 1561TIP3    H1 4689   1.913   5.836   4.783  0.4908 -0.1653  0.3690
 1561TIP3    H2 4690   1.930   5.985   4.760 -0.0370 -0.2151 -0.3444
 1562TIP3   OH2 4691   2.070   4.369   3.080  0.5987  0.2497 -0.0988
 1562TIP3    H1 4692   2.074   4.387   2.986 -1.6596 -1.6298 -0.6542
 1562TIP3    H2 4693   2.097   4.451   3.121  0.7247  1.4394 -2.3717
 1563TIP3   OH2 4694   3.640   3.076   0.182 -0.8619  0.6063  0.0371
 1563TIP3    H1 4695   3.713   3.020   0.208 -1.9490  0.5953  3.7315
 1563TIP3    H2 4696   3.678   3.138   0.120  2.2108  0.2860  1.3846
 1564TIP3   OH2 4697   1.936   4.451   0.268 -0.2075 -0.6821  0.2625
 1564TIP3    H1 4698   1.941   4.356   0.263  0.9954 -0.6626  0.9217
 1564TIP3    H2 4699   2.006   4.476   0.327  0.8817  0.7722 -1.5432
 1565TIP3   OH2 4700   2.154   0.331   2.551  0.1467  0.3908  0.8153
 1565TIP3    H1 4701   2.199   0.247   2.552 -1.2558 -0.4601 -1.2975
 1565TIP3    H2 4702   2.075   0.317   2.603 -0.5242  0.1031 -0.2562
 1566TIP3   OH2 4703   2.189   5.689   1.921  0.3636  0.2061  0.2270
 1566TIP3    H1 4704   2.196   5.678   2.016  0.3674  0.3331  0.2417
 1566TIP3    H2 4705   2.225   5.776   1.904  0.3735  0.1796  0.1074
 1567TIP3   OH2 4706   0.787   5.868   2.133  0.1353  0.1330  0.6833
 1567TIP3    H1 4707   0.811   5.831   2.048  0.6919  1.3793  0.2772
 1567TIP3    H2 4708   0.772   5.792   2.189 -2.0315 -0.7663 -0.9852
 1568TIP3   OH2 4709   4.403   1.736   4.589 -0.1333  0.1141 -0.0538
 1568TIP3    H1 4710   4.439   1.661   4.636  1.0089 -0.0724 -1.1417
 1568TIP3    H2 4711   4.312   1.740   4.615  0.3093 -0.3334  1.6861
 1569TIP3   OH2 4712   5.182   1.644   4.943  0.0709 -0.7809  0.0014
 1569TIP3    H1 4713   5.155   1.736   4.949  0.7458 -0.4118 -1.8181
 1569TIP3    H2 4714   5.101   1.595   4.953 -0.7943  0.1676 -1.7229
 1570TIP3   OH2 4715   4.110   5.277   1.723  0.0123 -0.2661 -0.2682
 1570TIP3    H1 4716   4.021   5.303   1.699 -0.7384  0.6223  2.9314
 1570TIP3    H2 4717   4.162   5.356   1.709 -0.4304  0.2655  0.9122
 1571TIP3   OH2 4718   1.797   3.379   0.155 -0.8797  0.0726 -0.3175
 1571TIP3    H1 4719   1.731   3.438   0.191 -2.2374 -2.2660  1.3402
 1571TIP3    H2 4720   1.781   3.296   0.200  2.6374 -0.8737 -0.5434
 1572TIP3   OH2 4721   0.671   1.186   3.793  0.0016  0.0722 -0.0640
 1572TIP3    H1 4722   0.672   1.102   3.746 -1.2791 -0.4357  0.7607
 1572TIP3    H2 4723   0.695   1.163   3.883 -1.2630  0.4144  0.3849
 1573TIP3   OH2 4724   1.085   4.308   0.488  0.3249 -0.8804  0.0083
 1573TIP3    H1 4725   1.014   4.372   0.492  0.8638 -0.3560  1.7715
 1573TIP3    H2 4726   1.112   4.308   0.396 -0.5340  0.4765 -0.2636
 1574TIP3   OH2 4727   3.635   2.452   4.956  0.0227  0.2466  0.3193
 1574TIP3    H1 4728   3.678   2.389   4.898  1.1329 -0.6650  2.0462
 1574TIP3    H2 4729   3.541   2.437   4.943  0.2474  0.0856 -1.2231
 1575TIP3   OH2 4730   5.823   4.727  -0.007 -0.3209  0.3845 -0.1648
 1575TIP3    H1 4731   5.739   4.746   0.035  0.3346 -0.5909  1.6820
 1575TIP3    H2 4732   5.832   4.632   0.000 -0.3621  0.0646 -3.0047
 1576TIP3   OH2 4733   0.156   2.732   3.552  0.2314  0.8343  0.3597
 1576TIP3    H1 4734   0.251   2.746   3.549  0.0707  1.9034 -0.1496
 1576TIP3    H2 4735   0.145   2.638   3.535  1.0402  1.2398 -3.1299
 1577TIP3   OH2 4736   1.077   1.682   4.826  0.2786 -0.5816  0.2820
 1577TIP3    H1 4737   1.053   1.596   4.792  2.0333 -1.4563  1.0907
 1577TIP3    H2 4738   1.140   1.716   4.762  2.8190 -1.7989  1.9724
 1578TIP3   OH2 4739   4.323   2.074   4.545 -0.3612 -0.0993  0.8287
 1578TIP3    H1 4740   4.282   2.000   4.589  0.4455 -0.6555  0.6735
 1578TIP3    H2 4741   4.399   2.095   4.598  0.6184 -0.7764 -0.2621
 1579TIP3   OH2 4742   2.675   2.150   3.836 -0.0534 -0.0996  0.2039
 1579TIP3    H1 4743   2.721   2.119   3.914  0.4789  0.3222  0.0652
 1579TIP3    H2 4744   2.721   2.108   3.763 -0.4406 -0.3578  0.1059
 1580TIP3   OH2 4745   0.631   4.065   2.193 -0.7093 -0.3059  0.6951
 1580TIP3    H1 4746   0.655   4.136   2.252 -2.3481 -0.0874  1.1287
 1580TIP3    H2 4747   0.683   3.990   2.223  0.5869  0.5288  0.6074
 1581TIP3   OH2 4748   5.603   0.854   2.060  0.7138 -0.1059  0.2403
 1581TIP3    H1 4749   5.512   0.885   2.057  1.2220  1.5370  0.6854
 1581TIP3    H2 4750   5.596   0.759   2.066 -0.9594 -0.0987 -0.9259
 1582TIP3   OH2 4751   3.163   3.848   3.113  0.6300 -0.0401 -0.7086
 1582TIP3    H1 4752   3.189   3.890   3.195  0.6176 -0.1832 -0.6314
 1582TIP3    H2 4753   3.073   3.879   3.098  0.2258 -0.8733 -0.0972
 1583TIP3   OH2 4754   2.444   1.117   0.362 -0.1172  0.0428  0.4064
 1583TIP3    H1 4755   2.366   1.120   0.307 -0.1536 -0.3562  0.4341
 1583TIP3    H2 4756   2.411   1.110   0.451 -0.0764  1.6221  0.5731
 1584TIP3   OH2 4757   3.319   4.388   1.351  0.5192 -0.0949  0.2565
 1584TIP3    H1 4758   3.228   4.371   1.327  0.3045 -1.1835  1.7087
 1584TIP3    H2 4759   3.333   4.480   1.329 -0.8110 -0.0181 -0.3299
 1585TIP3   OH2 4760   4.921   5.624   4.451 -0.4088  0.4595  0.3963
 1585TIP3    H1 4761   5.012   5.622   4.481  0.0320  0.2928 -0.9155
 1585TIP3    H2 4762   4.896   5.716   4.456 -1.5838  0.1315  4.6997
 1586TIP3   OH2 4763   6.248   1.807   0.545 -0.6006 -0.4140  0.5734
 1586TIP3    H1 4764   6.273   1.891   0.506 -1.0532 -0.1854  0.7639
 1586TIP3    H2 4765   6.168   1.827   0.593  0.1966 -0.5741  2.0244
 1587TIP3   OH2 4766   1.895   5.569   1.271 -0.2102  0.4801  0.0941
 1587TIP3    H1 4767   1.896   5.652   1.224 -1.0658  0.2350 -0.3821
 1587TIP3    H2 4768   1.956   5.581   1.344 -0.6548  1.6721  0.2842
 1588TIP3   OH2 4769   6.035   3.268   1.761 -0.3048  0.4571 -0.1733
 1588TIP3    H1 4770   6.046   3.363   1.760 -0.3701  0.5258  1.6921
 1588TIP3    H2 4771   6.107   3.236   1.815  0.3971 -0.6873 -1.7218
 1589TIP3   OH2 4772   2.078   1.824   0.843 -0.0225 -0.1001  0.2338
 1589TIP3    H1 4773   2.092   1.821   0.938  1.0290  2.0088  0.1882
 1589TIP3    H2 4774   1.986   1.802   0.832 -0.4500  0.7281  1.8475
 1590TIP3   OH2 4775   4.361   4.353   3.216 -0.7462 -0.1806 -0.4354
 1590TIP3    H1 4776   4.421   4.295   3.170  0.9512  1.5952 -0.6006
 1590TIP3    H2 4777   4.279   4.304   3.222  1.1000 -3.3710  1.1815
 1591TIP3   OH2 4778   6.167   5.585   0.727  0.3919  0.2863  0.2767
 1591TIP3    H1 4779   6.217   5.554   0.802  2.1198 -0.4111 -1.0846
 1591TIP3    H2 4780   6.222   5.654   0.689 -0.1460  0.2150 -0.6693
 1592TIP3   OH2 4781   4.871   1.788   2.359  0.2285  0.0312 -0.1584
 1592TIP3    H1 4782   4.784   1.828   2.349  0.6647  0.9365 -0.4622
 1592TIP3    H2 4783   4.924   1.828   2.289 -0.0828 -3.4566 -2.6420
 1593TIP3   OH2 4784   2.162   5.003   0.063 -0.8234  0.2578 -1.0956
 1593TIP3    H1 4785   2.107   4.936   0.023  0.6581 -1.1443 -0.9289
 1593TIP3    H2 4786   2.251   4.980   0.035 -0.1589  1.5783 -0.1926
 1594TIP3   OH2 4787   6.109   3.977   2.886 -0.0409  0.1752  0.3450
 1594TIP3    H1 4788   6.171   3.959   2.957  0.9724 -0.2532 -0.6234
 1594TIP3    H2 4789   6.159   3.959   2.806 -1.1962  0.5489 -0.4730
 1595TIP3   OH2 4790   0.909   5.559   0.404  0.0466 -0.2339  0.2902
 1595TIP3    H1 4791   0.990   5.604   0.427  0.1105 -0.3411  0.2766
 1595TIP3    H2 4792   0.937   5.470   0.383 -0.1315 -0.3920  0.7196
 1596TIP3   OH2 4793   5.530   0.742   0.549 -0.2185 -0.3188  0.5904
 1596TIP3    H1 4794   5.625   0.737   0.558 -0.1197  1.0659  0.4832
 1596TIP3    H2 4795   5.499   0.653   0.567  1.1759 -1.0460 -0.4506
 1597TIP3   OH2 4796   2.792   0.163   5.005 -0.2668  0.4288 -0.2861
 1597TIP3    H1 4797   2.815   0.104   5.076 -0.5395  0.7789  0.0969
 1597TIP3    H2 4798   2.867   0.222   4.998  0.0953 -0.0812 -0.8049
 1598TIP3   OH2 4799   0.444   3.347   0.104  0.3543 -0.0974  0.0056
 1598TIP3    H1 4800   0.539   3.337   0.093 -0.0401 -2.4656 -2.2130
 1598TIP3    H2 4801   0.427   3.315   0.192  1.4672 -1.2823 -0.1720
 1599TIP3   OH2 4802   0.536   0.305   0.786  0.4010  0.3724  0.0035
 1599TIP3    H1 4803   0.526   0.354   0.704 -0.1493 -1.2566 -0.9584
 1599TIP3    H2 4804   0.449   0.303   0.824  0.7119  1.3721  0.8059
 1600TIP3   OH2 4805   3.354   3.453   1.956 -0.0960 -0.3279  0.1160
 1600TIP3    H1 4806   3.440   3.456   1.915 -1.3382 -0.2374 -2.7462
 1600TIP3    H2 4807   3.341   3.361   1.977  1.5176 -0.0656  2.7498
 1601TIP3   OH2 4808   3.150   4.697   4.166  0.2924 -0.5741 -0.2495
 1601TIP3    H1 4809   3.089   4.629   4.138 -0.5362  0.4873 -1.1121
 1601TIP3    H2 4810   3.102   4.746   4.233  0.3935 -0.0618 -0.5451
 1602TIP3   OH2 4811   2.606   0.705   2.920 -0.1554 -0.0408  0.4475
 1602TIP3    H1 4812   2.591   0.687   2.828  0.5770 -0.9075  0.4872
 1602TIP3    H2 4813   2.680   0.650   2.944  0.4227  1.0465  1.2632
 1603TIP3   OH2 4814   1.914   1.480   0.405 -0.3752  0.4560  0.1790
 1603TIP3    H1 4815   1.928   1.565   0.363 -0.3191 -0.8676 -2.7008
 1603TIP3    H2 4816   1.958   1.418   0.348 -0.7398 -1.5863  2.0063
 1604TIP3   OH2 4817   1.738   4.718   3.936 -0.0655  0.1604  0.3151
 1604TIP3    H1 4818   1.750   4.654   4.006 -0.2631 -1.8459 -1.3689
 1604TIP3    H2 4819   1.783   4.679   3.860 -0.8176  1.6790 -0.9732
 1605TIP3   OH2 4820   4.293   3.678   0.743 -0.0949  0.6279  0.0449
 1605TIP3    H1 4821   4.377   3.699   0.784  0.4837 -1.1895 -0.1155
 1605TIP3    H2 4822   4.314   3.667   0.650 -0.8593  1.8577 -0.2917
 1606TIP3   OH2 4823   0.296   4.796   2.965 -0.3522 -0.3528 -0.3661
 1606TIP3    H1 4824   0.316   4.721   2.910 -0.1755 -1.4872  1.1921
 1606TIP3    H2 4825   0.377   4.847   2.967  0.1507 -1.1562  0.1309
 1607TIP3   OH2 4826   3.077   2.302   0.105  0.0326 -0.4067  0.3726
 1607TIP3    H1 4827   3.100   2.252   0.027 -0.0356  0.2781 -0.1035
 1607TIP3    H2 4828   2.992   2.267   0.132  1.0721 -2.1933  1.4896
 1608TIP3   OH2 4829   5.122   4.122   2.675 -0.2593 -0.0615 -0.0025
 1608TIP3    H1 4830   5.174   4.190   2.718  0.9084 -0.9509  0.0484
 1608TIP3    H2 4831   5.087   4.165   2.597 -0.7817  1.0056  0.7901
 1609TIP3   OH2 4832   3.352   4.958   4.556  0.2993 -0.3864 -0.0838
 1609TIP3    H1 4833   3.358   4.867   4.528 -0.9462 -0.0892 -1.4306
 1609TIP3    H2 4834   3.264   4.985   4.530  0.6533  1.2213  0.2831
 1610TIP3   OH2 4835   3.454   3.208   3.966  0.0340  0.2354  0.1790
 1610TIP3    H1 4836   3.370   3.204   3.922  0.1338  0.5728 -0.0448
 1610TIP3    H2 4837   3.484   3.298   3.953 -0.6439  0.8243  2.2594
 1611TIP3   OH2 4838   4.222   2.174   1.363 -0.3284  0.6168 -0.1284
 1611TIP3    H1 4839   4.194   2.235   1.295  0.4432 -0.3848 -1.3740
 1611TIP3    H2 4840   4.155   2.106   1.364 -1.0459  1.3004  1.0761
 1612TIP3   OH2 4841   4.280   3.029   4.365  0.5179 -0.6221  0.1577
 1612TIP3    H1 4842   4.244   3.014   4.453  2.2087 -1.2639  0.7930
 1612TIP3    H2 4843   4.371   3.055   4.382  0.4789  0.6162 -1.3670
 1613TIP3   OH2 4844   1.291   0.742   0.450  0.2178  0.0609  0.0011
 1613TIP3    H1 4845   1.197   0.727   0.442  0.3816 -1.0743  0.0524
 1613TIP3    H2 4846   1.300   0.837   0.451 -1.0961  0.2324  1.9414
 1614TIP3   OH2 4847   3.941   2.983   1.321  0.2709  0.4117  0.0119
 1614TIP3    H1 4848   3.863   3.036   1.333 -0.4581 -1.0703  2.4228
 1614TIP3    H2 4849   4.013   3.040   1.348 -0.2732  0.8185  0.6290
 1615TIP3   OH2 4850   4.920   3.095   1.732  0.4282 -0.4801  0.0052
 1615TIP3    H1 4851   4.982   3.143   1.787  0.4268  0.0733 -0.4706
 1615TIP3    H2 4852   4.890   3.022   1.787  0.5703 -0.0433  0.6632
 1616TIP3   OH2 4853   3.463   0.584   1.387 -0.1830 -0.1748 -0.4229
 1616TIP3    H1 4854   3.544   0.533   1.378 -1.1834 -1.7970 -0.7261
 1616TIP3    H2 4855   3.400   0.522   1.424 -0.8880  1.5053  1.3669
 1617TIP3   OH2 4856   0.147   5.235   1.280 -0.4522  0.0696  0.4387
 1617TIP3    H1 4857   0.164   5.234   1.374 -0.3072  0.0121  0.4119
 1617TIP3    H2 4858   0.072   5.177   1.268  0.1405 -0.7041  0.4021
 1618TIP3   OH2 4859   3.624   0.860   2.814  0.1051 -0.3783  0.1300
 1618TIP3    H1 4860   3.614   0.954   2.829 -3.5133 -0.4167 -1.0491
 1618TIP3    H2 4861   3.536   0.824   2.826  1.2071 -3.5411 -0.2332
 1619TIP3   OH2 4862   4.914   4.867   4.489 -0.0617 -0.2505  0.3253
 1619TIP3    H1 4863   4.843   4.916   4.446 -1.1662 -1.7872  0.3077
 1619TIP3    H2 4864   4.898   4.879   4.582  0.8274  0.9910  0.3358
 1620TIP3   OH2 4865   0.329   4.823   1.595  0.3123  0.5568  0.6965
 1620TIP3    H1 4866   0.369   4.841   1.510 -1.6747  2.1876 -0.0017
 1620TIP3    H2 4867   0.379   4.876   1.657  2.5614 -1.5789  0.8455
 1621TIP3   OH2 4868   5.941   4.866   0.746  0.3782 -0.2076 -0.2792
 1621TIP3    H1 4869   5.955   4.947   0.795  0.1269  0.1077 -0.7201
 1621TIP3    H2 4870   5.987   4.879   0.664  1.0290 -0.8457 -0.0279
 1622TIP3   OH2 4871   3.146   2.118   3.536  0.1615 -0.3259 -0.1005
 1622TIP3    H1 4872   3.213   2.110   3.604 -1.2522 -0.8058  1.3204
 1622TIP3    H2 4873   3.158   2.041   3.481  2.4624  0.9573 -1.5540
 1623TIP3   OH2 4874   2.864   5.175   0.894 -0.6584  0.0286  0.2151
 1623TIP3    H1 4875   2.823   5.247   0.846 -0.9466  0.3128  0.8866
 1623TIP3    H2 4876   2.887   5.112   0.825 -0.8029  0.5584 -0.3307
 1624TIP3   OH2 4877   0.712   0.389   4.648 -0.2610  0.7355  0.6154
 1624TIP3    H1 4878   0.649   0.438   4.701 -0.6986 -0.3398  1.1302
 1624TIP3    H2 4879   0.676   0.300   4.644  0.3624  0.5106 -0.5249
 1625TIP3   OH2 4880   0.088   0.371   0.398  0.1636  0.6611 -0.0260
 1625TIP3    H1 4881   0.081   0.290   0.449 -0.2675 -0.2812 -1.5361
 1625TIP3    H2 4882   0.165   0.415   0.434  0.3991 -0.4041  0.8332
 1626TIP3   OH2 4883   0.948   2.671   3.213  0.5034  0.0867  0.0968
 1626TIP3    H1 4884   0.992   2.673   3.128 -0.6727 -1.6276 -0.5917
 1626TIP3    H2 4885   0.873   2.730   3.202  0.0791 -0.5016 -0.2400
 1627TIP3   OH2 4886   5.400   5.210   0.737 -0.2627  0.4527  0.3020
 1627TIP3    H1 4887   5.335   5.202   0.668  0.1172  0.6164 -0.0810
 1627TIP3    H2 4888   5.352   5.242   0.813 -0.1124  3.6978 -0.8308
 1628TIP3   OH2 4889   1.503   5.616   4.189 -0.5249 -0.1407 -0.6467
 1628TIP3    H1 4890   1.417   5.617   4.148 -0.3706  2.3835 -1.0946
 1628TIP3    H2 4891   1.485   5.605   4.283 -1.3178 -0.0094 -0.7794
 1629TIP3   OH2 4892   5.492   0.428   1.216  0.0658  0.4772  0.3750
 1629TIP3    H1 4893   5.465   0.370   1.287 -2.4594  0.1104 -0.7646
 1629TIP3    H2 4894   5.501   0.514   1.257  0.1723 -0.0104  1.3939
 1630TIP3   OH2 4895   2.672   0.684   2.152 -0.3411  0.3413 -0.0502
 1630TIP3    H1 4896   2.637   0.618   2.092 -1.0665 -0.2952  1.0258
 1630TIP3    H2 4897   2.636   0.767   2.120 -1.3506 -0.0793 -0.0683
 1631TIP3   OH2 4898   1.296   2.148   3.013 -0.1480 -0.3367  0.4455
 1631TIP3    H1 4899   1.255   2.135   2.928 -3.6430 -0.7383  2.0390
 1631TIP3    H2 4900   1.309   2.059   3.047 -0.2272 -0.1613  0.9449
 1632TIP3   OH2 4901   0.082   4.922   0.073  0.2688 -0.0962  0.4843
 1632TIP3    H1 4902   0.055   4.831   0.060  1.4273 -0.4132  0.2191
 1632TIP3    H2 4903   0.156   4.917   0.133 -1.0230  0.8655  2.2689
 1633TIP3   OH2 4904   2.072   0.742   3.943  0.6948 -0.0490  0.1739
 1633TIP3    H1 4905   2.137   0.791   3.993 -0.4026  0.1841  1.4446
 1633TIP3    H2 4906   2.017   0.809   3.903  0.8594 -0.2419 -0.3749
 1634TIP3   OH2 4907   6.029   3.088   4.291 -0.0402 -0.4506  0.0405
 1634TIP3    H1 4908   6.018   3.182   4.279 -1.2821 -0.5191  0.4516
 1634TIP3    H2 4909   6.003   3.072   4.382 -0.2955 -1.2441 -0.1606
 1635TIP3   OH2 4910   5.412   4.355   1.207 -0.3684 -0.1468  0.1454
 1635TIP3    H1 4911   5.484   4.325   1.153 -0.6265 -2.6482  1.0682
 1635TIP3    H2 4912   5.356   4.405   1.148  1.1741  0.2949 -0.9942
 1636TIP3   OH2 4913   3.928   3.461   2.928  0.1853 -0.5524 -0.2026
 1636TIP3    H1 4914   3.936   3.380   2.979 -0.1638 -1.0646 -0.9432
 1636TIP3    H2 4915   3.954   3.436   2.839  0.4650  0.2481 -0.3552
 1637TIP3   OH2 4916   2.252   3.025   2.186  0.3372  0.0772  0.0082
 1637TIP3    H1 4917   2.324   3.074   2.224  1.6417  0.6471 -2.9160
 1637TIP3    H2 4918   2.219   3.081   2.116 -0.1787 -1.8830 -1.4033
 1638TIP3   OH2 4919   3.783   1.667   1.434  0.3893 -0.3348  0.1710
 1638TIP3    H1 4920   3.844   1.594   1.434  0.7791 -0.0137 -0.2635
 1638TIP3    H2 4921   3.825   1.733   1.379 -0.1268  0.0734  0.2631
 1639TIP3   OH2 4922   4.740   2.192   4.020 -0.7554  0.4026  0.3561
 1639TIP3    H1 4923   4.794   2.256   4.066 -2.1707  1.0055  1.2513
 1639TIP3    H2 4924   4.763   2.108   4.060  0.0366  0.5530  0.2220
 1640TIP3   OH2 4925   2.204   5.103   1.486 -0.4590 -0.6384 -1.0312
 1640TIP3    H1 4926   2.189   5.157   1.409 -0.4373  1.7034  0.4839
 1640TIP3    H2 4927   2.153   5.145   1.555  2.0668 -0.5965  0.9925
 1641TIP3   OH2 4928   1.281   0.204   5.092  0.1010  0.4131 -0.1525
 1641TIP3    H1 4929   1.347   0.265   5.060 -0.2325  0.6473 -0.4072
 1641TIP3    H2 4930   1.199   0.254   5.089 -0.1609 -0.0174 -0.2889
 1642TIP3   OH2 4931   2.828   0.574   5.029 -0.2165 -0.1528 -0.6277
 1642TIP3    H1 4932   2.862   0.525   5.104 -0.5893 -1.6853 -1.4243
 1642TIP3    H2 4933   2.889   0.647   5.019 -0.2990  0.2457  1.3017
 1643TIP3   OH2 4934   2.158   2.028   2.944 -0.3351 -0.1498  0.3470
 1643TIP3    H1 4935   2.251   2.006   2.936  0.0196  1.3131  0.0178
 1643TIP3    H2 4936   2.132   1.997   3.030  0.1605 -1.5492  0.0165
 1644TIP3   OH2 4937   1.812   2.177   3.162 -0.0873 -0.1168  0.1089
 1644TIP3    H1 4938   1.819   2.142   3.074  0.9341 -0.7315  0.4236
 1644TIP3    H2 4939   1.721   2.206   3.169 -0.7866 -2.0050 -0.4356
 1645TIP3   OH2 4940   1.308   2.212   3.720 -0.2175 -0.3350  0.2094
 1645TIP3    H1 4941   1.349   2.215   3.806 -0.1078 -0.3039  0.1555
 1645TIP3    H2 4942   1.317   2.301   3.686 -1.0730 -0.1066  0.5509
 1646TIP3   OH2 4943   4.946   5.307   3.693  0.3634  0.2482 -0.1206
 1646TIP3    H1 4944   4.970   5.229   3.642  0.4229  0.6542 -0.7190
 1646TIP3    H2 4945   4.935   5.274   3.782  3.7736  0.0736  0.3851
 1647TIP3   OH2 4946   0.210   3.478   0.552  0.5188 -0.3283  0.5156
 1647TIP3    H1 4947   0.160   3.456   0.630 -0.4841 -0.3076 -0.1033
 1647TIP3    H2 4948   0.249   3.564   0.571 -1.6204  0.7894  0.1408
 1648TIP3   OH2 4949   2.532   0.065   4.919  0.0085 -0.7659 -0.0382
 1648TIP3    H1 4950   2.577   0.146   4.941 -2.6368  0.4433  1.4255
 1648TIP3    H2 4951   2.531   0.063   4.823  1.3760  0.1414 -0.0970
 1649TIP3   OH2 4952   3.587   4.240   4.776  0.1963 -0.3432  0.1397
 1649TIP3    H1 4953   3.555   4.169   4.831  1.7990 -0.1276  1.4419
 1649TIP3    H2 4954   3.643   4.197   4.711  1.4478 -0.2914  1.1429
 1650TIP3   OH2 4955   0.838   1.538   1.168 -0.9498 -0.2933 -0.3246
 1650TIP3    H1 4956   0.929   1.523   1.193 -1.5956 -1.2460  1.6252
 1650TIP3    H2 4957   0.835   1.515   1.075  0.5213 -1.5692 -0.1038
 1651TIP3   OH2 4958   4.422   2.888   1.768 -0.3837 -0.3134 -0.3750
 1651TIP3    H1 4959   4.343   2.844   1.799 -1.4155  0.2483 -2.0559
 1651TIP3    H2 4960   4.468   2.914   1.848 -1.2821 -1.6960  0.6433
 1652TIP3   OH2 4961   6.235   5.099   0.763  0.2741  0.5697 -0.2455
 1652TIP3    H1 4962   6.180   5.169   0.726 -0.1590 -0.2118 -1.1306
 1652TIP3    H2 4963   6.204   5.019   0.719  1.9080  0.0574 -0.5270
 1653TIP3   OH2 4964   5.342   1.949   0.770 -0.3639 -0.0291 -1.0340
 1653TIP3    H1 4965   5.279   1.908   0.830  0.3417  1.8443  1.1447
 1653TIP3    H2 4966   5.300   2.030   0.743  1.7136  2.3552  2.1532
 1654TIP3   OH2 4967   3.456   5.532   4.108 -0.1730 -0.2075 -0.1162
 1654TIP3    H1 4968   3.397   5.550   4.035 -0.8319  2.0445  0.8736
 1654TIP3    H2 4969   3.456   5.437   4.117 -1.9816 -0.3872 -1.4938
 1655TIP3   OH2 4970   1.734   3.538   2.220  0.2207  0.5070  0.0218
 1655TIP3    H1 4971   1.765   3.581   2.140  0.0255  0.0020 -0.3271
 1655TIP3    H2 4972   1.793   3.570   2.288 -0.0881  1.5556 -0.1698
 1656TIP3   OH2 4973   5.113   3.517   1.673 -0.5811  0.0800  0.1699
 1656TIP3    H1 4974   5.078   3.602   1.699  2.9634  2.0381 -0.6785
 1656TIP3    H2 4975   5.174   3.494   1.743  0.4286 -0.4006 -0.8315
 1657TIP3   OH2 4976   1.072   5.816   0.646  0.1691 -0.1621  0.2098
 1657TIP3    H1 4977   1.092   5.846   0.557 -0.1303  1.1466  0.5664
 1657TIP3    H2 4978   1.116   5.731   0.653 -0.9237 -0.9236 -1.6411
 1658TIP3   OH2 4979   2.047   5.846   1.651 -0.7808 -0.5211  0.0482
 1658TIP3    H1 4980   2.080   5.788   1.719 -2.5100 -2.6498 -0.7929
 1658TIP3    H2 4981   1.954   5.854   1.670 -0.6020  2.0873  0.1320
 1659TIP3   OH2 4982   6.059   5.063   4.653 -0.5977  0.1476  0.1903
 1659TIP3    H1 4983   5.981   5.059   4.597 -0.9006 -0.8871  0.6754
 1659TIP3    H2 4984   6.041   5.137   4.712 -1.5879 -0.5667  0.8221
 1660TIP3   OH2 4985   3.152   2.378   3.558 -0.4367 -0.1131  0.3643
 1660TIP3    H1 4986   3.141   2.286   3.536 -0.5142 -0.1041  0.3645
 1660TIP3    H2 4987   3.228   2.380   3.615 -0.8039 -0.2540  0.8642
 1661TIP3   OH2 4988   2.268   2.053   4.272 -0.1587  0.1001 -0.2370
 1661TIP3    H1 4989   2.294   2.097   4.190  1.3332 -2.0526 -1.0132
 1661TIP3    H2 4990   2.332   2.082   4.336  0.6036 -0.5938 -0.6595
 1662TIP3   OH2 4991   0.253   2.736   2.456 -0.4702  0.3188  0.3949
 1662TIP3    H1 4992   0.287   2.816   2.415 -0.5615 -0.2004 -0.7178
 1662TIP3    H2 4993   0.313   2.667   2.428 -0.9109 -0.1530  0.5962
 1663TIP3   OH2 4994   1.190   5.662   4.009 -0.1405  0.0421  0.1665
 1663TIP3    H1 4995   1.119   5.662   4.073  1.0625  1.1762  1.5544
 1663TIP3    H2 4996   1.209   5.569   3.993  0.3261 -0.2800  2.3718
 1664TIP3   OH2 4997   3.853   3.563   2.643 -0.4300 -0.0253  0.3982
 1664TIP3    H1 4998   3.825   3.651   2.667 -1.7927 -0.1483 -0.5881
 1664TIP3    H2 4999   3.797   3.505   2.695 -0.1141 -0.3050  0.4297
 1665TIP3   OH2 5000   0.468   2.535   0.672 -0.1371  0.6514  0.4031
 1665TIP3    H1 5001   0.409   2.553   0.598  1.0200  1.8469 -0.2764
 1665TIP3    H2 5002   0.503   2.448   0.654 -1.2867  0.1532  0.5371
 1666TIP3   OH2 5003   0.421   2.210   0.763 -0.0703 -0.0733  0.1145
 1666TIP3    H1 5004   0.513   2.220   0.737 -0.1303  1.5528  0.4443
 1666TIP3    H2 5005   0.388   2.299   0.769 -1.2456 -0.5748  1.5719
 1667TIP3   OH2 5006   1.670   4.485   3.510 -0.3108  0.0991  0.2929
 1667TIP3    H1 5007   1.635   4.396   3.505  0.3705 -0.0957 -1.9366
 1667TIP3    H2 5008   1.763   4.476   3.487 -0.4374  1.4807 -0.9227
 1668TIP3   OH2 5009   3.266   3.000   4.661 -0.2200  0.0184  0.3756
 1668TIP3    H1 5010   3.244   3.092   4.647 -0.0159 -0.1269 -1.0308
 1668TIP3    H2 5011   3.294   2.996   4.753  1.2448  1.6654  0.0690
 1669TIP3   OH2 5012   2.552   5.794   3.302 -0.6697  0.5012 -0.2093
 1669TIP3    H1 5013   2.631   5.761   3.261 -1.1674  0.4576 -1.1530
 1669TIP3    H2 5014   2.481   5.762   3.247 -1.3561  0.4962  0.6516
 1670TIP3   OH2 5015   2.116   3.565   2.538  0.7251 -0.2361 -0.2882
 1670TIP3    H1 5016   2.210   3.546   2.540  0.7652 -0.0158 -0.0031
 1670TIP3    H2 5017   2.077   3.488   2.497  0.9732 -0.5711  0.1000
 1671TIP3   OH2 5018   3.249   2.354   4.477  0.5553 -0.6625 -0.1761
 1671TIP3    H1 5019   3.325   2.316   4.521  2.3784  2.8246 -0.0038
 1671TIP3    H2 5020   3.281   2.378   4.390 -0.6582 -0.1648 -0.5054
 1672TIP3   OH2 5021   2.233   3.859   0.312  0.0060 -0.4308  0.2725
 1672TIP3    H1 5022   2.166   3.815   0.363  1.3260 -1.6288  1.0290
 1672TIP3    H2 5023   2.305   3.874   0.373  0.5725  0.5303 -0.5915
 1673TIP3   OH2 5024   3.250   2.794   0.943  0.1957 -0.2122 -0.0181
 1673TIP3    H1 5025   3.235   2.885   0.917 -1.7517 -0.7767 -1.1026
 1673TIP3    H2 5026   3.268   2.748   0.861  0.1085 -0.9945  0.3885
 1674TIP3   OH2 5027   4.852   4.052   4.225 -0.4461 -0.0613 -0.1225
 1674TIP3    H1 5028   4.895   4.136   4.242  0.2956 -0.9739  3.3758
 1674TIP3    H2 5029   4.761   4.074   4.206 -0.2524  1.5712  0.6497
 1675TIP3   OH2 5030   0.541   4.173   2.674 -0.0384  0.3027  0.3488
 1675TIP3    H1 5031   0.535   4.078   2.671  0.9163  0.2287  0.3163
 1675TIP3    H2 5032   0.610   4.195   2.611 -0.5814  1.0527  0.0077
 1676TIP3   OH2 5033   2.897   1.844   0.588  0.1404 -0.7857 -0.0060
 1676TIP3    H1 5034   2.819   1.895   0.609 -0.3398 -1.5882  0.1987
 1676TIP3    H2 5035   2.877   1.756   0.619  0.6214 -1.3032 -1.1099
 1677TIP3   OH2 5036   5.752   0.705   0.067  0.9960 -0.2676 -0.0479
 1677TIP3    H1 5037   5.685   0.683   0.002  0.5322 -1.4241  0.7962
 1677TIP3    H2 5038   5.785   0.790   0.039 -2.2774  1.4055  0.6314
 1678TIP3   OH2 5039   3.554   4.696   4.583  0.3749  0.0345 -0.2358
 1678TIP3    H1 5040   3.512   4.620   4.623 -1.7048  1.0111 -0.4512
 1678TIP3    H2 5041   3.569   4.671   4.492 -2.3343  0.5660 -0.9051
 1679TIP3   OH2 5042   2.968   1.072   0.939  0.1600  0.6817 -0.8366
 1679TIP3    H1 5043   3.032   1.142   0.926  0.4961  0.2909 -1.3480
 1679TIP3    H2 5044   2.891   1.116   0.973  0.1138  1.4156 -1.8506
 1680TIP3   OH2 5045   3.343   4.674   0.824  0.3835 -0.0239 -0.4209
 1680TIP3    H1 5046   3.277   4.606   0.831  0.5145 -0.1425 -0.3446
 1680TIP3    H2 5047   3.372   4.671   0.732  0.5433 -0.2128 -0.3634
 1681TIP3   OH2 5048   6.332   4.207   3.151  0.1802 -0.1185 -0.1243
 1681TIP3    H1 5049   6.276   4.258   3.209 -0.1254 -1.1055  0.4621
 1681TIP3    H2 5050   6.387   4.156   3.210 -1.2729 -2.4199 -0.6347
 1682TIP3   OH2 5051   3.715   3.980   1.287 -0.1077 -0.0908 -0.2281
 1682TIP3    H1 5052   3.740   3.888   1.286  0.8155  0.1511 -2.0016
 1682TIP3    H2 5053   3.671   3.992   1.372  0.5361 -1.9301  0.4018
 1683TIP3   OH2 5054   4.789   4.450   1.489  0.3642  0.2292  0.1730
 1683TIP3    H1 5055   4.745   4.530   1.460  1.0445  1.2571  1.8754
 1683TIP3    H2 5056   4.815   4.468   1.579  1.4959 -1.5178  0.2310
 1684TIP3   OH2 5057   2.216   2.098   2.430  0.2327  0.2704  0.5825
 1684TIP3    H1 5058   2.127   2.086   2.398  0.3462 -0.7683  0.6291
 1684TIP3    H2 5059   2.206   2.136   2.517 -0.2150 -0.8678  1.0483
 1685TIP3   OH2 5060   1.496   4.128   0.848  0.3582 -0.2094  0.1066
 1685TIP3    H1 5061   1.454   4.043   0.859 -0.0431 -0.1317 -0.7766
 1685TIP3    H2 5062   1.437   4.178   0.792  1.5751 -0.0800 -1.1115
 1686TIP3   OH2 5063   1.965   4.090   1.946  0.3849  0.2408 -0.2370
 1686TIP3    H1 5064   1.903   4.161   1.962  0.1548 -0.0822  0.3234
 1686TIP3    H2 5065   2.050   4.127   1.967  0.3564  0.5982 -0.7254
 1687TIP3   OH2 5066   1.825   1.392   1.918  0.5644  0.0296 -0.0255
 1687TIP3    H1 5067   1.808   1.298   1.920  0.2332  0.0949  0.8056
 1687TIP3    H2 5068   1.812   1.421   2.009  1.6917  0.7048 -0.0591
 1688TIP3   OH2 5069   5.940   5.729   0.813  0.8108 -0.3942  0.7573
 1688TIP3    H1 5070   6.004   5.685   0.757  0.1115  0.9734 -1.2559
 1688TIP3    H2 5071   5.964   5.822   0.809  0.5860 -0.2207  2.5972
 1689TIP3   OH2 5072   3.407   0.131   2.652  0.1290  0.3814  0.4026
 1689TIP3    H1 5073   3.499   0.150   2.631  0.0362  0.8274  0.3818
 1689TIP3    H2 5074   3.357   0.181   2.588 -0.1436  0.8377  0.9596
 1690TIP3   OH2 5075   0.534   1.991   3.938  0.0317  0.7289 -0.3058
 1690TIP3    H1 5076   0.553   1.934   4.013 -0.2423 -0.6684 -1.2506
 1690TIP3    H2 5077   0.575   2.075   3.960  0.0816  0.3054  1.3287
 1691TIP3   OH2 5078   3.130   5.201   0.110 -0.1194  0.0894 -0.0630
 1691TIP3    H1 5079   3.182   5.196   0.030 -0.5391  1.2071 -0.4270
 1691TIP3    H2 5080   3.161   5.281   0.154  2.0592 -1.8843  2.3273
 1692TIP3   OH2 5081   0.531   2.932   2.625 -0.3730  0.5533  0.1577
 1692TIP3    H1 5082   0.473   3.008   2.622  0.8713  1.5147 -0.7602
 1692TIP3    H2 5083   0.613   2.966   2.663  0.3497 -0.2116 -0.6706
 1693TIP3   OH2 5084   3.887   1.244   2.214 -0.0081  0.1484  0.0772
 1693TIP3    H1 5085   3.823   1.221   2.281 -1.6834 -0.5067 -1.6566
 1693TIP3    H2 5086   3.962   1.278   2.263 -1.5359  0.6544  2.2037
 1694TIP3   OH2 5087   3.655   3.132   4.929 -0.0825 -0.3505  0.1590
 1694TIP3    H1 5088   3.612   3.048   4.940  1.0527 -1.0023 -0.1649
 1694TIP3    H2 5089   3.664   3.143   4.834 -0.5341  0.3083  0.1830
 1695TIP3   OH2 5090   4.669   0.039   0.983 -0.1692 -0.3657  0.5687
 1695TIP3    H1 5091   4.683  -0.055   0.994 -4.0752 -1.0827  0.9189
 1695TIP3    H2 5092   4.633   0.067   1.067  0.7181  1.4194  0.3844
 1696TIP3   OH2 5093   0.509   0.827   0.531  0.6788  0.5899 -0.5916
 1696TIP3    H1 5094   0.561   0.898   0.493  0.2324  1.3241  0.1350
 1696TIP3    H2 5095   0.425   0.868   0.551  0.5810 -0.0178  0.2782
 1697TIP3   OH2 5096   4.412   0.768   2.133 -0.9367 -0.1379  0.1406
 1697TIP3    H1 5097   4.369   0.844   2.094 -1.4490  1.1474  2.9690
 1697TIP3    H2 5098   4.365   0.693   2.098 -2.2013  0.9932 -0.6671
 1698TIP3   OH2 5099   2.704   4.953   2.800 -0.1038  0.0261  0.2084
 1698TIP3    H1 5100   2.616   4.987   2.785 -0.6428 -1.5499 -0.4550
 1698TIP3    H2 5101   2.745   4.955   2.714 -0.2638 -1.2216  0.0792
 1699TIP3   OH2 5102   3.394   0.971   1.840  0.5630 -0.1435 -0.2238
 1699TIP3    H1 5103   3.316   0.999   1.887  0.4307 -1.0149  0.0988
 1699TIP3    H2 5104   3.378   0.993   1.749 -0.4102 -1.0363 -0.2843
 1700TIP3   OH2 5105   5.659   3.942   1.793 -0.2493  0.7710 -0.1894
 1700TIP3    H1 5106   5.714   3.940   1.714 -0.2557  2.6362 -0.2789
 1700TIP3    H2 5107   5.572   3.916   1.762 -0.1217  0.8993 -0.6640
 1701TIP3   OH2 5108   1.507   1.686   1.214 -0.5550  0.3329  0.6746
 1701TIP3    H1 5109   1.548   1.618   1.266  0.5414 -0.2114 -0.8184
 1701TIP3    H2 5110   1.427   1.646   1.180 -0.3387  0.0577  0.4820
 1702TIP3   OH2 5111   0.471   2.780   4.990  0.3757  0.2073 -0.1451
 1702TIP3    H1 5112   0.378   2.800   4.984  0.7437  2.3865  0.5261
 1702TIP3    H2 5113   0.499   2.818   5.073  2.1349  0.8470 -0.9693
 1703TIP3   OH2 5114   1.557   4.804   2.698  0.4515  0.3646  0.4582
 1703TIP3    H1 5115   1.522   4.787   2.785  0.3600  0.9877  0.5471
 1703TIP3    H2 5116   1.492   4.862   2.657  1.2890  1.3933  0.5642
 1704TIP3   OH2 5117   4.890   0.427   4.180  0.3472 -0.0430  0.1630
 1704TIP3    H1 5118   4.866   0.456   4.092  3.0286 -0.7755 -0.9106
 1704TIP3    H2 5119   4.939   0.346   4.166  1.2766  0.0875  2.2797
 1705TIP3   OH2 5120   0.232   0.262   1.654  0.0779 -0.5859 -0.2129
 1705TIP3    H1 5121   0.201   0.302   1.573  0.1309 -0.4146 -0.1507
 1705TIP3    H2 5122   0.292   0.327   1.691 -1.8014  0.4575  1.1971
 1706TIP3   OH2 5123   3.016   1.079   3.581 -0.3711 -0.0207 -0.4266
 1706TIP3    H1 5124   3.064   1.155   3.615 -0.7123 -0.1680  0.3902
 1706TIP3    H2 5125   3.037   1.078   3.487  0.4330  0.4951 -0.2618
 1707TIP3   OH2 5126   5.771   3.892   3.974  0.0325 -0.1439  0.1633
 1707TIP3    H1 5127   5.713   3.909   3.900 -0.0418 -0.7632  0.0721
 1707TIP3    H2 5128   5.852   3.859   3.933 -0.0832 -0.6888  0.3638
 1708TIP3   OH2 5129   2.133   2.841   4.478  0.6015 -0.2171 -0.7101
 1708TIP3    H1 5130   2.138   2.757   4.524 -0.6928  0.9559  1.8120
 1708TIP3    H2 5131   2.152   2.906   4.545 -0.5273  1.6121 -2.0656
 1709TIP3   OH2 5132   2.541   3.075   2.986  0.2013  0.1858 -0.6290
 1709TIP3    H1 5133   2.467   3.107   2.935 -0.8502  0.4125  0.9725
 1709TIP3    H2 5134   2.535   2.980   2.980  0.4725  0.2107 -1.4317
 1710TIP3   OH2 5135   0.233   5.428   0.750  0.3856 -0.5832 -0.1571
 1710TIP3    H1 5136   0.289   5.505   0.760 -0.4980  0.3240 -1.7713
 1710TIP3    H2 5137   0.163   5.441   0.814  0.0628  0.1419 -0.6440
 1711TIP3   OH2 5138   0.453   0.288   3.634 -0.0746 -0.3502  0.1224
 1711TIP3    H1 5139   0.499   0.363   3.597  0.4385 -0.7279 -0.0249
 1711TIP3    H2 5140   0.516   0.216   3.628 -1.5544 -1.5522 -2.5004
 1712TIP3   OH2 5141   5.014   3.074   3.532  0.0869 -0.4078  0.0983
 1712TIP3    H1 5142   5.018   3.005   3.466  1.2078 -1.2392  0.9986
 1712TIP3    H2 5143   4.987   3.029   3.612  1.0279  0.1419  0.7469
 1713TIP3   OH2 5144   1.777   4.667   0.496  0.3056  0.2215  0.1232
 1713TIP3    H1 5145   1.697   4.668   0.443  0.0611  2.2039  0.4646
 1713TIP3    H2 5146   1.765   4.593   0.556 -0.0308 -1.1880 -1.6032
 1714TIP3   OH2 5147   2.292   3.853   2.467  0.5555  0.0859  0.1676
 1714TIP3    H1 5148   2.263   3.793   2.536 -1.6097 -1.5330 -1.9882
 1714TIP3    H2 5149   2.213   3.902   2.444  0.9598 -0.1390 -1.8231
 1715TIP3   OH2 5150   3.522   5.123   2.340 -0.5428  0.4356  0.0064
 1715TIP3    H1 5151   3.544   5.127   2.247  1.6737  1.0257  0.5117
 1715TIP3    H2 5152   3.530   5.030   2.362 -0.8938  0.3205 -0.3371
 1716TIP3   OH2 5153   0.576   1.994   5.179 -0.7058  0.1778 -0.5302
 1716TIP3    H1 5154   0.553   1.996   5.086  0.2778  0.2123 -0.7870
 1716TIP3    H2 5155   0.632   2.071   5.191  2.4684 -1.9086 -0.8478
 1717TIP3   OH2 5156  -0.032   1.898   3.741 -0.3991 -0.6546 -0.2350
 1717TIP3    H1 5157   0.026   1.823   3.746 -1.0712 -1.2471 -1.0209
 1717TIP3    H2 5158   0.022   1.969   3.706  0.6080 -0.3402  1.7881
 1718TIP3   OH2 5159   0.714   5.552   2.571  0.2385  0.7357 -0.0798
 1718TIP3    H1 5160   0.646   5.551   2.639  0.2883  0.4449 -0.0322
 1718TIP3    H2 5161   0.788   5.599   2.611  0.3935  0.2648  0.1905
 1719TIP3   OH2 5162   5.212   1.220   1.460 -0.0073 -0.2661 -0.0821
 1719TIP3    H1 5163   5.204   1.125   1.468 -0.2303 -0.2265  0.1710
 1719TIP3    H2 5164   5.205   1.236   1.366 -0.6296 -0.4476 -0.0776
 1720TIP3   OH2 5165   3.074   2.734   5.047 -0.9679 -0.7542 -0.0724
 1720TIP3    H1 5166   2.981   2.719   5.064 -1.0656  0.7765  0.9635
 1720TIP3    H2 5167   3.118   2.655   5.079 -1.9617 -1.9553 -1.5404
 1721TIP3   OH2 5168   1.897   2.293   1.886  0.0225  0.1774  0.0107
 1721TIP3    H1 5169   1.931   2.353   1.952  0.5476 -0.3220  0.2114
 1721TIP3    H2 5170   1.864   2.219   1.937  3.6328 -1.8999 -0.2725
 1722TIP3   OH2 5171   5.905   4.282   3.594  0.2481  0.0847 -0.0440
 1722TIP3    H1 5172   5.936   4.220   3.528 -2.9360 -1.4807 -0.2512
 1722TIP3    H2 5173   5.964   4.270   3.668  1.2811 -1.2885 -1.0343
 1723TIP3   OH2 5174   0.079   0.807   4.378 -0.0903  0.0327 -0.1999
 1723TIP3    H1 5175   0.146   0.855   4.331 -1.7287  1.7779 -0.8667
 1723TIP3    H2 5176   0.125   0.766   4.452  1.4182  2.5852  0.3801
 1724TIP3   OH2 5177   6.023   4.557   2.413 -0.2809  0.1586  0.1590
 1724TIP3    H1 5178   5.980   4.471   2.413  1.5194 -0.7860  0.9267
 1724TIP3    H2 5179   6.116   4.538   2.410  0.1705  2.1165  0.1192
 1725TIP3   OH2 5180   0.782   0.132   4.874  0.4489  0.0328  0.7751
 1725TIP3    H1 5181   0.734   0.069   4.821 -0.9722 -0.5466  2.6777
 1725TIP3    H2 5182   0.860   0.153   4.821 -1.9250  1.2662 -2.5967
 1726TIP3   OH2 5183   6.024   5.679   3.101 -0.4235  0.2515 -0.2446
 1726TIP3    H1 5184   6.103   5.730   3.117 -0.1527 -0.0763 -0.5185
 1726TIP3    H2 5185   5.954   5.729   3.143 -0.0105  0.3369  0.3532
 1727TIP3   OH2 5186   1.089   4.440   1.729 -0.5770  0.5767 -0.0730
 1727TIP3    H1 5187   1.170   4.464   1.685 -0.1604  0.5447  0.6795
 1727TIP3    H2 5188   1.020   4.473   1.671 -0.0590 -0.2830 -1.2316
 1728TIP3   OH2 5189   4.661   3.591   0.032  0.0241  0.4848 -0.2824
 1728TIP3    H1 5190   4.745   3.637   0.021 -0.4799  1.4370 -0.2355
 1728TIP3    H2 5191   4.676   3.532   0.105  0.8375  0.2086 -0.6517
 1729TIP3   OH2 5192   5.438   2.893   0.722  0.3025 -0.2827  0.0657
 1729TIP3    H1 5193   5.369   2.863   0.781 -0.4140  0.3057 -0.4573
 1729TIP3    H2 5194   5.416   2.984   0.704  1.3524 -0.0208  0.0777
 1730TIP3   OH2 5195   0.851   5.142   0.973 -1.1620  0.5487 -0.5211
 1730TIP3    H1 5196   0.879   5.139   1.065 -0.2133 -1.0449 -0.8190
 1730TIP3    H2 5197   0.897   5.218   0.937 -1.2214  0.9481  0.2247
 1731TIP3   OH2 5198   2.393   3.563   2.340  0.7757 -0.0950  0.1427
 1731TIP3    H1 5199   2.326   3.519   2.289  1.8509 -1.2425 -0.3446
 1731TIP3    H2 5200   2.428   3.629   2.282  1.3990 -0.8177 -0.3234
 1732TIP3   OH2 5201   3.175   2.159   1.262 -0.6138 -0.4919 -0.6785
 1732TIP3    H1 5202   3.215   2.085   1.216  2.8418  0.1368  0.9893
 1732TIP3    H2 5203   3.155   2.125   1.349  3.2183  0.9016  0.9345
 1733TIP3   OH2 5204   6.258   4.928   3.392  0.4504  0.0620  0.5684
 1733TIP3    H1 5205   6.263   5.022   3.406 -0.7540  0.1371  0.5658
 1733TIP3    H2 5206   6.307   4.912   3.311 -0.8383  0.9260 -0.4139
 1734TIP3   OH2 5207   2.538   4.518   0.618  0.0718  0.2680 -0.6774
 1734TIP3    H1 5208   2.584   4.528   0.701  0.6628  1.3541 -1.1232
 1734TIP3    H2 5209   2.477   4.592   0.615 -1.0114 -0.5850 -0.5582
 1735TIP3   OH2 5210   1.723   4.304   4.014  0.1881  0.5162 -0.2040
 1735TIP3    H1 5211   1.634   4.280   3.986  0.9535 -2.5407 -0.3192
 1735TIP3    H2 5212   1.763   4.341   3.936 -0.4645  0.3490 -0.6301
 1736TIP3   OH2 5213   2.342   4.062   2.242  0.4794  0.5537  0.1222
 1736TIP3    H1 5214   2.318   4.078   2.334 -0.0052  0.2937  0.0467
 1736TIP3    H2 5215   2.354   3.967   2.237  1.9568  0.7113  0.2470
 1737TIP3   OH2 5216   3.137   4.534   2.814 -0.1080  0.3715  0.1562
 1737TIP3    H1 5217   3.150   4.466   2.747  0.0302  1.0056 -0.4762
 1737TIP3    H2 5218   3.115   4.613   2.764  1.1272  1.1407  0.7700
 1738TIP3   OH2 5219   2.821   2.029   2.549  0.3787 -0.7811  0.3220
 1738TIP3    H1 5220   2.787   2.056   2.634  1.0622  0.5031  0.2109
 1738TIP3    H2 5221   2.744   2.002   2.499 -0.0702 -1.1430  1.1932
 1739TIP3   OH2 5222   2.305   2.846   0.763 -0.7037 -0.3448  0.0428
 1739TIP3    H1 5223   2.293   2.863   0.856 -1.4765 -0.1556 -0.0838
 1739TIP3    H2 5224   2.299   2.751   0.755 -0.4368 -0.3764  0.2138
 1740TIP3   OH2 5225   6.219   0.403   3.018  0.2794 -0.0141  0.4190
 1740TIP3    H1 5226   6.181   0.340   2.957 -0.3175  0.1414  0.6182
 1740TIP3    H2 5227   6.184   0.377   3.103  0.6868  0.0889  0.6204
 1741TIP3   OH2 5228   5.496   3.301   1.619 -0.4030 -0.0142  0.7212
 1741TIP3    H1 5229   5.553   3.377   1.625  1.3197 -1.3388  2.0218
 1741TIP3    H2 5230   5.478   3.292   1.525  0.8567  0.9138  0.3655
 1742TIP3   OH2 5231   0.131   3.811   2.658 -0.3073  0.0247 -0.4767
 1742TIP3    H1 5232   0.158   3.751   2.589  0.0853 -0.0908 -0.2235
 1742TIP3    H2 5233   0.207   3.819   2.716 -0.8482 -0.4119  0.3180
 1743TIP3   OH2 5234   1.943   5.215   2.085 -0.0418 -0.1479 -0.4717
 1743TIP3    H1 5235   1.890   5.196   2.163  0.8994  0.0135  0.2173
 1743TIP3    H2 5236   1.959   5.309   2.089  0.4049 -0.2161 -0.6003
 1744TIP3   OH2 5237   2.764   5.963   3.043 -0.2457 -0.3318 -0.5970
 1744TIP3    H1 5238   2.742   5.870   3.038  2.4660 -0.9683 -2.6914
 1744TIP3    H2 5239   2.791   5.976   3.134  0.5179 -1.9051 -0.5654
 1745TIP3   OH2 5240   0.937   0.814   1.802  0.5366  0.6407 -0.3161
 1745TIP3    H1 5241   1.017   0.866   1.800  0.6613  0.4319 -0.8839
 1745TIP3    H2 5242   0.918   0.795   1.710  0.0688  0.3324 -0.1599
 1746TIP3   OH2 5243   3.963   2.725   4.699  0.6461  0.0026  0.4630
 1746TIP3    H1 5244   3.920   2.768   4.625 -0.8466  0.0430  1.2975
 1746TIP3    H2 5245   3.985   2.796   4.759 -1.7968 -0.2484  1.8318
 1747TIP3   OH2 5246   1.004   0.560   0.348 -0.2939 -0.3904  0.3624
 1747TIP3    H1 5247   0.982   0.617   0.273  1.1371  0.2740  0.4205
 1747TIP3    H2 5248   0.919   0.538   0.386 -0.9149  1.5852  0.2380
 1748TIP3   OH2 5249   1.301   5.218   3.630 -0.2492 -0.0396  0.6354
 1748TIP3    H1 5250   1.278   5.139   3.679 -0.4116 -0.0111  0.6069
 1748TIP3    H2 5251   1.217   5.256   3.606 -0.2033  0.7814  1.6735
 1749TIP3   OH2 5252   2.956   0.985   2.248  0.5633  0.1125 -0.1157
 1749TIP3    H1 5253   2.949   0.891   2.261  1.4988 -0.3079 -2.3413
 1749TIP3    H2 5254   3.045   1.007   2.278  0.2498  0.3659  0.6644
 1750TIP3   OH2 5255   5.033   0.158   4.173  0.1673  0.3275  0.1079
 1750TIP3    H1 5256   5.023   0.096   4.101 -2.7790  1.2456 -0.3801
 1750TIP3    H2 5257   5.119   0.198   4.158  1.0402 -1.7941 -0.9723
 1751TIP3   OH2 5258   0.940   5.846   4.352  0.3610  0.0199  0.2478
 1751TIP3    H1 5259   1.007   5.880   4.413  0.6043  2.2784 -1.1691
 1751TIP3    H2 5260   0.984   5.775   4.306  1.8951  1.5152 -0.7094
 1752TIP3   OH2 5261   0.988   1.937   2.853  0.3775  0.0709 -0.1066
 1752TIP3    H1 5262   1.024   1.894   2.776  0.1749  0.1111 -0.2251
 1752TIP3    H2 5263   1.027   2.024   2.853 -0.1151  0.3008 -0.5296
 1753TIP3   OH2 5264   5.281   2.732   3.123  0.9601  0.0782 -0.1511
 1753TIP3    H1 5265   5.324   2.799   3.070 -0.8749  0.7635 -0.8437
 1753TIP3    H2 5266   5.193   2.767   3.140  0.0139 -2.0307 -0.3386
 1754TIP3   OH2 5267   0.163   3.041   3.427 -0.2043  0.3638  0.3170
 1754TIP3    H1 5268   0.237   3.034   3.366 -1.4847 -0.7574 -1.2074
 1754TIP3    H2 5269   0.189   2.988   3.503  0.0499 -1.1677 -0.7858
 1755TIP3   OH2 5270   3.944   4.172   4.471 -0.5076 -0.8877  0.0065
 1755TIP3    H1 5271   3.938   4.268   4.467 -0.7279 -0.7526  2.3891
 1755TIP3    H2 5272   4.009   4.155   4.540  0.4368 -2.4854 -1.1954
 1756TIP3   OH2 5273   4.538   4.335   2.363 -0.3014 -0.2187 -0.5565
 1756TIP3    H1 5274   4.474   4.403   2.383  0.7099  1.7611 -3.4360
 1756TIP3    H2 5275   4.491   4.275   2.305 -0.5464 -0.7999  0.2234
 1757TIP3   OH2 5276   1.785   2.671   4.730  0.1045  0.4585  0.0275
 1757TIP3    H1 5277   1.694   2.701   4.731  0.7318  2.5777  1.9134
 1757TIP3    H2 5278   1.826   2.721   4.659 -0.2062 -0.7605 -1.0653
 1758TIP3   OH2 5279   5.771   1.230   4.782 -0.6970  0.0783 -0.3672
 1758TIP3    H1 5280   5.714   1.245   4.858 -0.1365 -1.0909  0.3076
 1758TIP3    H2 5281   5.859   1.228   4.818 -0.3359  0.4683 -1.2031
 1759TIP3   OH2 5282   1.968   1.771   0.319  0.0174  0.0485  0.0765
 1759TIP3    H1 5283   1.932   1.754   0.406  0.0375 -1.6115 -0.2210
 1759TIP3    H2 5284   1.899   1.743   0.259  0.6983 -0.5091 -0.4547
 1760TIP3   OH2 5285   2.712   0.362   0.572  0.4243  0.4231  0.0040
 1760TIP3    H1 5286   2.788   0.395   0.523  0.5448  0.0481 -0.0693
 1760TIP3    H2 5287   2.653   0.328   0.504 -0.3033  1.6850 -0.0217
 1761TIP3   OH2 5288   5.571   5.088   4.951 -0.2426 -0.6681 -0.2905
 1761TIP3    H1 5289   5.549   5.050   5.036 -2.0819 -0.0782 -0.4401
 1761TIP3    H2 5290   5.586   5.013   4.894 -0.5856 -1.1119  0.1968
 1762TIP3   OH2 5291   1.054   2.777   0.461  0.4675 -0.3591  0.1899
 1762TIP3    H1 5292   1.121   2.836   0.496  0.5715 -0.8533  0.8349
 1762TIP3    H2 5293   0.986   2.836   0.427  0.0156  0.1518  1.8769
 1763TIP3   OH2 5294   2.974   4.876   2.617 -0.8692 -0.0481  0.3368
 1763TIP3    H1 5295   2.918   4.824   2.561 -1.3837  1.3749 -0.5325
 1763TIP3    H2 5296   2.953   4.967   2.595  0.1958  0.5422  1.5704
 1764TIP3   OH2 5297   2.416   3.544   1.759 -0.0762 -0.3637 -0.2141
 1764TIP3    H1 5298   2.367   3.605   1.814  0.8155  0.1506  0.0155
 1764TIP3    H2 5299   2.401   3.459   1.801 -1.6061 -0.3934 -0.7355
 1765TIP3   OH2 5300   4.974   1.967   1.660 -0.2788  0.4846  0.3908
 1765TIP3    H1 5301   5.027   2.040   1.693 -0.3166  1.7851 -2.1721
 1765TIP3    H2 5302   4.884   1.994   1.678 -0.2350  0.3246  0.8554
 1766TIP3   OH2 5303   0.102   4.118   5.143  0.4140  0.7357 -0.0917
 1766TIP3    H1 5304   0.128   4.026   5.150  0.1324  0.7585  1.8595
 1766TIP3    H2 5305   0.012   4.115   5.112 -0.8246  0.1023  3.1972
 1767TIP3   OH2 5306   2.984   0.118   3.301 -0.1771  0.7402 -0.0403
 1767TIP3    H1 5307   3.015   0.030   3.279  1.1486  1.5139 -1.4871
 1767TIP3    H2 5308   2.889   0.113   3.292 -0.0101 -0.1542 -1.7012
 1768TIP3   OH2 5309   2.531   0.075   4.648 -0.4029 -0.0343  0.2073
 1768TIP3    H1 5310   2.572   0.160   4.634  0.8991 -0.3518  1.8278
 1768TIP3    H2 5311   2.556   0.023   4.572  1.3246  0.1194  0.6478
 1769TIP3   OH2 5312   1.303   3.076   0.971  0.0959  0.1974  0.1619
 1769TIP3    H1 5313   1.390   3.115   0.970 -0.2232  0.9414  0.6308
 1769TIP3    H2 5314   1.315   2.989   0.933  1.2243 -0.0846  1.0904
 1770TIP3   OH2 5315   4.864   1.189   1.483  0.0715 -0.3406  0.5240
 1770TIP3    H1 5316   4.851   1.105   1.438 -1.6990  0.9685 -1.6181
 1770TIP3    H2 5317   4.798   1.189   1.552 -0.4202 -0.4381  0.0635
 1771TIP3   OH2 5318   5.296   1.444   3.377 -0.1072  0.4281 -0.1207
 1771TIP3    H1 5319   5.316   1.390   3.453  2.3725  0.7897 -0.4519
 1771TIP3    H2 5320   5.305   1.386   3.302  0.1052  0.7107 -0.3166
 1772TIP3   OH2 5321   1.037   4.380   3.864  0.3509  0.4419  0.1074
 1772TIP3    H1 5322   0.981   4.393   3.939  0.7959  0.0630  0.5154
 1772TIP3    H2 5323   1.078   4.465   3.848  0.4555  0.4573  0.4612
 1773TIP3   OH2 5324   4.697   4.903   1.090  0.4711 -0.1492  0.5253
 1773TIP3    H1 5325   4.737   4.826   1.048  0.9686  1.1164 -1.4526
 1773TIP3    H2 5326   4.706   4.973   1.025 -1.2775  1.2390  1.6892
 1774TIP3   OH2 5327   5.884   2.804   2.768  0.1004  0.4556  0.8262
 1774TIP3    H1 5328   5.972   2.769   2.755  0.8387  2.1938  0.9211
 1774TIP3    H2 5329   5.889   2.851   2.851 -0.4036  2.0927 -0.0436
 1775TIP3   OH2 5330   5.513   3.809   0.705 -0.2773  0.4588 -0.2045
 1775TIP3    H1 5331   5.418   3.802   0.713 -0.1334  0.4268  2.5811
 1775TIP3    H2 5332   5.541   3.842   0.791  2.5563 -3.1941  0.4902
 1776TIP3   OH2 5333   5.173   3.297   1.518 -0.2404 -0.0383  0.6021
 1776TIP3    H1 5334   5.196   3.386   1.542 -0.2373 -0.3740  1.9417
 1776TIP3    H2 5335   5.077   3.294   1.524 -0.2479 -0.1019  0.4599
 1777TIP3   OH2 5336   1.756   4.692   1.816 -0.1789  0.1515  0.2380
 1777TIP3    H1 5337   1.816   4.749   1.865  0.7436 -0.4804 -0.1288
 1777TIP3    H2 5338   1.813   4.625   1.778 -0.9123  0.3914 -1.3713
 1778TIP3   OH2 5339   3.665   4.020   3.272 -0.0023  0.0945  0.6755
 1778TIP3    H1 5340   3.590   3.987   3.321  0.3258 -1.2675  0.3001
 1778TIP3    H2 5341   3.729   4.042   3.340  0.1220 -0.9540  0.9110
 1779TIP3   OH2 5342   2.235   5.963   0.073  0.0546  0.3543 -0.0498
 1779TIP3    H1 5343   2.161   5.958   0.013  1.7231 -0.1432 -2.2298
 1779TIP3    H2 5344   2.296   5.896   0.041  1.0387  0.0277  2.2773
 1780TIP3   OH2 5345   1.364   4.994   3.360 -0.4306  0.0514  0.6067
 1780TIP3    H1 5346   1.358   4.959   3.449 -0.5516 -0.1201  0.5325
 1780TIP3    H2 5347   1.363   5.089   3.371  0.0874  0.0352  0.8271
 1781TIP3   OH2 5348   0.728   0.426   0.962  0.7852  0.5528 -0.0146
 1781TIP3    H1 5349   0.735   0.357   1.028 -0.4234  0.9153  0.5171
 1781TIP3    H2 5350   0.675   0.387   0.892  2.1571  0.1309 -0.8516
 1782TIP3   OH2 5351   1.967   4.192   0.288 -0.3435 -0.1874  0.2296
 1782TIP3    H1 5352   1.961   4.132   0.213  2.7933  0.7548 -0.9650
 1782TIP3    H2 5353   2.058   4.184   0.317 -0.6493  1.8046  1.9414
 1783TIP3   OH2 5354   0.157   5.545   0.216 -0.7398 -0.1561 -0.0142
 1783TIP3    H1 5355   0.185   5.570   0.304  0.3054 -0.7461 -0.1577
 1783TIP3    H2 5356   0.230   5.494   0.182 -0.9491  0.4314 -1.3905
 1784TIP3   OH2 5357   2.308   1.266   2.944  0.4468  0.5245  0.2468
 1784TIP3    H1 5358   2.228   1.298   2.985  0.3601  1.0200 -0.2835
 1784TIP3    H2 5359   2.351   1.213   3.011 -0.2925  0.3083  0.5499
 1785TIP3   OH2 5360   5.419   2.208   2.323 -0.0574 -0.1385  0.4506
 1785TIP3    H1 5361   5.416   2.258   2.241  0.5531 -0.8551 -0.0193
 1785TIP3    H2 5362   5.347   2.145   2.315  1.2213 -1.5540 -0.4457
 1786TIP3   OH2 5363   4.446   4.072   5.122 -0.0492 -0.3369  0.0299
 1786TIP3    H1 5364   4.536   4.089   5.092  1.1423 -1.9073  2.4494
 1786TIP3    H2 5365   4.405   4.026   5.048  1.5858 -0.7998 -0.6437
 1787TIP3   OH2 5366   2.231   4.172   0.349  0.3030  0.7751 -0.3306
 1787TIP3    H1 5367   2.255   4.262   0.369 -0.7161  1.1561 -0.7159
 1787TIP3    H2 5368   2.299   4.118   0.389 -0.0645  1.6342  1.5296
 1788TIP3   OH2 5369   6.217   2.735   1.984 -0.6631 -0.0478 -0.1217
 1788TIP3    H1 5370   6.164   2.775   2.053  0.4882  2.4456 -0.6116
 1788TIP3    H2 5371   6.159   2.667   1.947 -2.9711  1.5499  0.3419
 1789TIP3   OH2 5372   1.326   5.791   2.247  0.5314  0.2285 -0.0177
 1789TIP3    H1 5373   1.317   5.869   2.192  1.5840  0.4065  0.0493
 1789TIP3    H2 5374   1.351   5.722   2.186  2.5168  0.6013  0.3016
 1790TIP3   OH2 5375   0.770   0.925   0.075 -0.9298  0.0838  0.7469
 1790TIP3    H1 5376   0.785   1.003   0.128 -0.2556 -0.8968  2.0559
 1790TIP3    H2 5377   0.841   0.865   0.099  0.0794 -0.0287 -2.0627
 1791TIP3   OH2 5378   1.293   2.110   0.801 -0.1839  0.1118  0.4839
 1791TIP3    H1 5379   1.275   2.063   0.719  0.8803 -0.7301  0.7071
 1791TIP3    H2 5380   1.238   2.066   0.866 -0.6594  0.4625  0.3271
 1792TIP3   OH2 5381   4.341   3.136   2.320 -0.6814 -0.0768 -0.2547
 1792TIP3    H1 5382   4.309   3.046   2.319 -1.3366  0.0934 -2.8645
 1792TIP3    H2 5383   4.404   3.138   2.392 -3.7135 -1.4313  2.6838
 1793TIP3   OH2 5384   0.687   5.300   3.020 -0.7723  0.0869  0.0400
 1793TIP3    H1 5385   0.626   5.369   3.048 -0.2199  0.1817  1.0817
 1793TIP3    H2 5386   0.770   5.346   3.005  0.2669 -0.5581  2.9887
 1794TIP3   OH2 5387   3.829   4.429   4.246 -0.3133  0.2314 -0.2212
 1794TIP3    H1 5388   3.909   4.405   4.293  0.0416 -0.6309 -1.2289
 1794TIP3    H2 5389   3.806   4.350   4.196 -3.3700 -0.5679  2.1417
 1795TIP3   OH2 5390   0.554   0.645   0.347  0.3278  0.0230 -0.1724
 1795TIP3    H1 5391   0.529   0.567   0.397  0.6546 -0.0584 -0.1304
 1795TIP3    H2 5392   0.552   0.716   0.411  0.2158  0.0146 -0.1668
 1796TIP3   OH2 5393   4.673   3.319   3.328 -0.2913 -0.2871  0.2325
 1796TIP3    H1 5394   4.584   3.326   3.295 -0.4077 -1.0141  0.3945
 1796TIP3    H2 5395   4.688   3.226   3.340  0.1194 -0.1044  1.2453
 1797TIP3   OH2 5396   2.767   5.457   4.773 -0.4740  0.0561  0.3422
 1797TIP3    H1 5397   2.703   5.519   4.809 -1.7732 -0.0835 -1.5976
 1797TIP3    H2 5398   2.850   5.506   4.773 -1.1239  1.1850  0.4412
 1798TIP3   OH2 5399   3.263   2.568   0.749 -0.9145  0.1350 -0.5211
 1798TIP3    H1 5400   3.297   2.646   0.705 -1.8036  0.8193 -0.0188
 1798TIP3    H2 5401   3.214   2.522   0.682 -1.5271  0.7187 -0.4833
 1799TIP3   OH2 5402   3.189   4.964   1.711 -0.5146  0.6101 -0.2320
 1799TIP3    H1 5403   3.207   4.994   1.622 -0.8491 -0.0928 -0.5473
 1799TIP3    H2 5404   3.274   4.930   1.742 -0.4033  0.8314 -0.2947
 1800TIP3   OH2 5405   3.411   2.130   4.731 -0.4948  0.1920  1.2456
 1800TIP3    H1 5406   3.462   2.153   4.809  0.9342  0.9410  0.1470
 1800TIP3    H2 5407   3.441   2.191   4.664  0.7141 -2.4231 -0.7894
 1801TIP3   OH2 5408   2.187   4.244   2.007 -0.0672  0.6682  0.1876
 1801TIP3    H1 5409   2.218   4.213   2.092 -3.8381  0.4918  1.7351
 1801TIP3    H2 5410   2.171   4.338   2.019  1.8915  1.2381 -1.2668
 1802TIP3   OH2 5411   5.212   2.805   4.290  0.0236  0.5312  0.3877
 1802TIP3    H1 5412   5.304   2.786   4.267 -0.1056 -0.0985  0.3631
 1802TIP3    H2 5413   5.198   2.755   4.371 -0.2645  0.7175  0.4503
 1803TIP3   OH2 5414   6.019   1.259   4.930  0.1026 -0.2064 -0.3728
 1803TIP3    H1 5415   6.020   1.332   4.993  4.7081  0.9174 -1.4301
 1803TIP3    H2 5416   6.057   1.186   4.978 -0.1765 -0.5709 -0.7046
 1804TIP3   OH2 5417   1.235   0.560   3.213 -0.0006  0.6437  0.3762
 1804TIP3    H1 5418   1.171   0.569   3.283  2.0293  2.3111  2.1486
 1804TIP3    H2 5419   1.269   0.648   3.199  1.4295 -0.0668 -0.9681
 1805TIP3   OH2 5420   3.972   1.663   0.941 -0.1332 -0.1055  0.0645
 1805TIP3    H1 5421   4.058   1.706   0.935 -0.3936  0.4729  0.4457
 1805TIP3    H2 5422   3.987   1.576   0.904  0.1526  0.6681 -1.7769
 1806TIP3   OH2 5423   3.155   2.050   4.134 -0.6147  0.1238  0.0028
 1806TIP3    H1 5424   3.222   2.086   4.192 -0.7048  0.2602  0.0222
 1806TIP3    H2 5425   3.203   2.028   4.054 -0.3593 -0.6996  0.3712
 1807TIP3   OH2 5426   0.290   4.923   2.484  0.2232 -0.4589 -0.0825
 1807TIP3    H1 5427   0.196   4.940   2.484 -0.0055 -1.6422 -0.1277
 1807TIP3    H2 5428   0.297   4.828   2.476  1.4245 -0.3960  0.0732
 1808TIP3   OH2 5429   4.451   5.856   0.207 -0.3772  0.0940  0.1128
 1808TIP3    H1 5430   4.476   5.807   0.285 -3.4417 -2.3138 -0.2098
 1808TIP3    H2 5431   4.364   5.891   0.228 -1.7616 -1.5056 -2.4481
 1809TIP3   OH2 5432   6.022  -0.001   3.187 -0.2448 -0.4090  0.0828
 1809TIP3    H1 5433   6.038   0.048   3.268  1.8100  0.3085 -0.6745
 1809TIP3    H2 5434   5.970   0.058   3.133 -2.1817 -1.1376  1.0470
 1810TIP3   OH2 5435   1.470   2.810   1.625 -0.3202 -0.2063  0.1468
 1810TIP3    H1 5436   1.484   2.716   1.631 -0.7512 -0.5094 -2.5161
 1810TIP3    H2 5437   1.397   2.820   1.564 -0.0607  1.8747  0.1012
 1811TIP3   OH2 5438   0.741   3.777   4.732 -0.0833  0.4285 -0.4518
 1811TIP3    H1 5439   0.737   3.835   4.656 -1.4752 -0.4097 -1.0601
 1811TIP3    H2 5440   0.701   3.695   4.702 -1.2348  0.2778  1.3350
 1812TIP3   OH2 5441   1.194   2.833   2.912  0.3166  0.4836  0.1672
 1812TIP3    H1 5442   1.106   2.861   2.887  0.6545  1.3428 -0.1032
 1812TIP3    H2 5443   1.181   2.752   2.961 -0.7270  1.3781  1.4054
 1813TIP3   OH2 5444   3.671   2.301   0.518 -0.3870  0.0535  0.2879
 1813TIP3    H1 5445   3.671   2.396   0.504 -1.1276  0.2020  1.1923
 1813TIP3    H2 5446   3.712   2.290   0.604  1.2683 -0.5951 -0.5363
 1814TIP3   OH2 5447  -0.011   4.395   1.077 -0.3390 -0.2602  0.6030
 1814TIP3    H1 5448   0.009   4.481   1.114 -0.6563  0.5016 -0.9246
 1814TIP3    H2 5449   0.023   4.333   1.141  1.1511  0.9921  1.0825
 1815TIP3   OH2 5450   2.161   3.653   0.005  0.1197 -0.2105  0.3862
 1815TIP3    H1 5451   2.103   3.650   0.081  0.2357 -2.4905  0.4709
 1815TIP3    H2 5452   2.110   3.695  -0.064 -0.8725 -0.3250  1.0376
 1816TIP3   OH2 5453   0.095   3.823   4.064 -0.3137  0.0427  0.0126
 1816TIP3    H1 5454   0.066   3.781   3.983 -0.0704 -0.2119  0.0540
 1816TIP3    H2 5455   0.185   3.850   4.045  0.2496 -1.2988  0.6640
 1817TIP3   OH2 5456   5.016   1.453   5.099  0.0075  0.2505 -1.1559
 1817TIP3    H1 5457   4.929   1.428   5.129 -0.0692  3.5148  2.1357
 1817TIP3    H2 5458   5.071   1.376   5.116 -1.8292 -1.1358 -1.2567
 1818TIP3   OH2 5459   5.092   2.454   1.686  0.2349 -0.6485  0.1639
 1818TIP3    H1 5460   5.175   2.502   1.692  0.7259 -1.4495 -0.0992
 1818TIP3    H2 5461   5.028   2.521   1.661  0.6838  0.0904  0.9143
 1819TIP3   OH2 5462   0.518   4.542   4.164  0.1037  0.1259 -0.0900
 1819TIP3    H1 5463   0.569   4.511   4.088  1.1469 -0.4040  0.8007
 1819TIP3    H2 5464   0.489   4.462   4.207  0.5847  0.4042  0.7660
 1820TIP3   OH2 5465   4.902   0.898   0.531  0.0225  0.0709  0.2790
 1820TIP3    H1 5466   4.942   0.902   0.444  0.4818  3.0769  0.5175
 1820TIP3    H2 5467   4.977   0.892   0.590 -0.1245  0.6746  0.5352
 1821TIP3   OH2 5468   3.077   5.069   0.353  1.0849 -0.4227 -0.3085
 1821TIP3    H1 5469   2.981   5.061   0.361  0.9484  2.2096  1.7214
 1821TIP3    H2 5470   3.090   5.111   0.268  0.4489 -0.6480 -0.5306
 1822TIP3   OH2 5471   1.137   1.784   2.259 -0.4902 -0.3099 -0.3661
 1822TIP3    H1 5472   1.068   1.849   2.259 -0.9921 -0.8167  0.4097
 1822TIP3    H2 5473   1.127   1.736   2.177  0.2787  0.9729 -1.2368
 1823TIP3   OH2 5474   4.044   4.755   3.605  0.3797  0.1135 -0.0243
 1823TIP3    H1 5475   4.061   4.669   3.644 -1.1200 -1.1316 -1.9091
 1823TIP3    H2 5476   4.119   4.808   3.630  0.4152 -1.1227  2.8895
 1824TIP3   OH2 5477   1.545   0.071   0.915 -0.2614  0.3578 -0.1197
 1824TIP3    H1 5478   1.561   0.155   0.959 -0.2366  0.2797  0.0211
 1824TIP3    H2 5479   1.622   0.059   0.859 -0.6952  0.8731 -0.8392
 1825TIP3   OH2 5480   1.539   1.011   3.750  0.3190  0.4658  0.0516
 1825TIP3    H1 5481   1.610   1.076   3.751 -0.3474  1.1973  0.4706
 1825TIP3    H2 5482   1.476   1.044   3.686  0.8534 -0.7620 -1.1805
 1826TIP3   OH2 5483   5.057   5.201   2.213  0.0277 -0.5209  0.5288
 1826TIP3    H1 5484   5.018   5.288   2.221 -1.1961 -1.0140 -0.0060
 1826TIP3    H2 5485   5.131   5.214   2.154 -0.1230  0.1568  0.4769
 1827TIP3   OH2 5486   4.264   4.319   1.051 -0.1130 -0.4031 -0.2495
 1827TIP3    H1 5487   4.187   4.285   1.004 -0.1612 -0.8036  0.1060
 1827TIP3    H2 5488   4.330   4.331   0.984 -0.5518  0.1332 -0.5907
 1828TIP3   OH2 5489   1.542   1.220   3.313 -0.1043 -0.5923  0.2980
 1828TIP3    H1 5490   1.565   1.299   3.363 -1.5945  0.1735 -0.1684
 1828TIP3    H2 5491   1.575   1.238   3.225  0.8419 -1.1332  0.5292
 1829TIP3   OH2 5492   4.657   4.219   1.678 -0.3689  0.4298 -0.6013
 1829TIP3    H1 5493   4.619   4.303   1.654 -0.9500  0.9139  1.7532
 1829TIP3    H2 5494   4.746   4.240   1.708 -0.2400  0.0978 -0.7390
 1830TIP3   OH2 5495   1.059   5.876   2.378 -0.0624 -0.3809 -0.5062
 1830TIP3    H1 5496   1.143   5.909   2.410 -0.7257  0.1555  0.7668
 1830TIP3    H2 5497   1.041   5.799   2.434 -0.8504  0.0767 -0.1082
 1831TIP3   OH2 5498   4.289   5.939   1.837 -0.3077 -0.4772  0.0062
 1831TIP3    H1 5499   4.307   5.849   1.810 -0.5349 -0.3708 -0.5112
 1831TIP3    H2 5500   4.243   5.978   1.763 -0.5531 -0.0452  0.3778
 1832TIP3   OH2 5501   2.072   3.242   3.403 -0.4251  0.5320  0.0332
 1832TIP3    H1 5502   1.994   3.275   3.357 -0.7038 -1.1121 -0.7681
 1832TIP3    H2 5503   2.144   3.293   3.368 -0.5284 -1.0824 -2.8439
 1833TIP3   OH2 5504   2.920   3.558   0.377 -0.0519  0.8569 -0.4953
 1833TIP3    H1 5505   2.953   3.524   0.293 -0.6273  2.2058 -1.2896
 1833TIP3    H2 5506   2.835   3.596   0.355 -1.8888 -1.8421  1.3507
 1834TIP3   OH2 5507   6.110   3.395   3.334  0.2993  0.0696  0.1075
 1834TIP3    H1 5508   6.058   3.359   3.262  1.8374 -0.6705 -0.6572
 1834TIP3    H2 5509   6.150   3.319   3.375 -0.9866  0.4140  2.1545
 1835TIP3   OH2 5510   3.695   0.132   2.626 -0.3912  0.3155 -0.6412
 1835TIP3    H1 5511   3.718   0.098   2.713 -0.1397 -0.0282 -0.8409
 1835TIP3    H2 5512   3.754   0.206   2.613  0.4903 -0.4512 -1.0753
 1836TIP3   OH2 5513   2.564   4.140   0.688 -0.6540  0.0280 -0.0219
 1836TIP3    H1 5514   2.569   4.070   0.753  0.1199 -0.7532 -0.8976
 1836TIP3    H2 5515   2.646   4.188   0.699 -1.3334  1.0526  0.8170
 1837TIP3   OH2 5516   2.881   1.720   4.228 -0.3477 -0.4499  0.6855
 1837TIP3    H1 5517   2.908   1.683   4.143 -1.1588  0.0505  0.2009
 1837TIP3    H2 5518   2.826   1.652   4.267 -0.0840 -0.6255  0.7572
 1838TIP3   OH2 5519   3.907   3.348   1.457 -0.4396  0.3978  0.4334
 1838TIP3    H1 5520   3.925   3.313   1.545 -2.5327 -1.9739  0.0216
 1838TIP3    H2 5521   3.992   3.347   1.414  0.1769 -1.0719  1.5730
 1839TIP3   OH2 5522   5.651   1.018   4.669  0.4141  0.3256  0.5378
 1839TIP3    H1 5523   5.711   1.002   4.597 -0.8915  1.2078 -0.8132
 1839TIP3    H2 5524   5.684   1.097   4.711  0.3597  0.6706 -0.0519
 1840TIP3   OH2 5525   2.788   0.407   4.479 -0.3569 -0.0427 -0.6958
 1840TIP3    H1 5526   2.859   0.366   4.529  0.4541  1.5970 -0.4520
 1840TIP3    H2 5527   2.822   0.413   4.390  0.0314  1.2047 -0.4758
 1841TIP3   OH2 5528   2.054   2.745   0.144  0.8028 -0.1725 -0.3420
 1841TIP3    H1 5529   2.033   2.660   0.107 -0.6564 -0.0345  0.1225
 1841TIP3    H2 5530   2.038   2.807   0.072  1.2705 -0.2198 -0.4921
 1842TIP3   OH2 5531   0.138   4.645   1.140  0.5937  0.9730  0.3417
 1842TIP3    H1 5532   0.185   4.721   1.173  1.2008  1.2031 -0.9726
 1842TIP3    H2 5533   0.155   4.646   1.046  0.3207 -0.5871  0.2529
 1843TIP3   OH2 5534   2.149   5.190   0.302 -0.4148  0.0518  0.1321
 1843TIP3    H1 5535   2.109   5.157   0.382  0.9785 -1.5974  0.1972
 1843TIP3    H2 5536   2.141   5.118   0.239  0.9447  0.2737 -0.3374
 1844TIP3   OH2 5537   1.399   4.102   2.633 -0.0597  0.7639 -0.1970
 1844TIP3    H1 5538   1.334   4.152   2.584 -0.8892 -0.3544 -0.2761
 1844TIP3    H2 5539   1.474   4.161   2.641 -0.6113  1.6288 -1.1885
 1845TIP3   OH2 5540   6.116   5.416   2.479  0.2288 -0.0997  1.0690
 1845TIP3    H1 5541   6.167   5.335   2.474  0.5027  0.0404  1.6127
 1845TIP3    H2 5542   6.073   5.422   2.393  2.2144  0.5179  0.0761
 1846TIP3   OH2 5543   5.603   3.101   0.994 -0.4420 -0.5661 -0.2342
 1846TIP3    H1 5544   5.510   3.124   1.007  0.1073  1.3922  0.7264
 1846TIP3    H2 5545   5.621   3.036   1.062 -0.4151  1.3296  1.6845
 1847TIP3   OH2 5546   1.866   5.012   1.348 -0.3126  0.0269 -0.0589
 1847TIP3    H1 5547   1.836   5.085   1.402 -0.9759 -0.6530  0.5381
 1847TIP3    H2 5548   1.877   5.049   1.261 -0.1646  0.9419  0.3349
 1848TIP3   OH2 5549   3.489   2.839   3.666  0.1125 -0.5287  0.6231
 1848TIP3    H1 5550   3.533   2.912   3.622  1.2406 -0.5132  1.7132
 1848TIP3    H2 5551   3.407   2.878   3.699 -0.1462 -0.2294 -0.3422
 1849TIP3   OH2 5552   1.971   1.430   4.024  0.1269  0.4110  0.6356
 1849TIP3    H1 5553   1.959   1.520   4.052  0.8380 -0.2197  3.1804
 1849TIP3    H2 5554   2.065   1.421   4.008 -0.0898  0.3908 -0.8347
 1850TIP3   OH2 5555   1.689   3.451   3.496 -0.0251  0.0269 -0.5307
 1850TIP3    H1 5556   1.729   3.393   3.432 -0.2852 -0.2573 -0.4399
 1850TIP3    H2 5557   1.705   3.539   3.462  0.7359 -0.0731 -0.4555
 1851TIP3   OH2 5558   3.817   4.307   2.283  0.0259 -0.1633  0.1266
 1851TIP3    H1 5559   3.743   4.308   2.222 -0.6218 -0.0743  0.9054
 1851TIP3    H2 5560   3.813   4.220   2.323 -1.4187  0.7958  2.2611
 1852TIP3   OH2 5561   5.198   0.183   4.528 -0.8458 -0.1237 -0.4864
 1852TIP3    H1 5562   5.149   0.103   4.507 -1.5668 -0.0483  0.8313
 1852TIP3    H2 5563   5.289   0.155   4.535 -1.0140 -0.7105 -0.6268
 1853TIP3   OH2 5564   5.733   4.204   3.928 -0.8413  0.5362 -0.9656
 1853TIP3    H1 5565   5.745   4.274   3.864  1.6308  0.8335 -0.2883
 1853TIP3    H2 5566   5.650   4.226   3.972 -2.1711  0.7693 -3.4129
 1854TIP3   OH2 5567   2.162   1.298   4.281  0.2871 -0.6202  0.3748
 1854TIP3    H1 5568   2.205   1.346   4.210  0.8475 -2.1052 -0.3133
 1854TIP3    H2 5569   2.121   1.223   4.239 -0.5241 -0.7919  1.4456
 1855TIP3   OH2 5570   5.733   3.023   4.414  0.1635 -0.0260  0.2108
 1855TIP3    H1 5571   5.723   3.089   4.346 -1.0006  0.1497  0.5379
 1855TIP3    H2 5572   5.747   2.941   4.367 -1.5450 -0.0665 -0.2960
 1856TIP3   OH2 5573   0.189   1.977   3.950  0.0479 -0.3628 -0.7960
 1856TIP3    H1 5574   0.104   1.948   3.985  0.3549 -0.8009 -0.4009
 1856TIP3    H2 5575   0.241   1.897   3.945  1.3144  0.2275  1.4685
 1857TIP3   OH2 5576   3.627   0.636   3.872  0.3825 -0.1964  0.0099
 1857TIP3    H1 5577   3.609   0.651   3.965  1.1869  0.7154  0.0357
 1857TIP3    H2 5578   3.657   0.721   3.839  1.6003 -0.8870 -0.7271
 1858TIP3   OH2 5579   4.355   2.732   3.592 -0.2512  0.6598  0.3692
 1858TIP3    H1 5580   4.335   2.807   3.537 -0.3127  1.0128  0.8605
 1858TIP3    H2 5581   4.368   2.770   3.679 -1.4420 -0.0214  0.8706
 1859TIP3   OH2 5582   3.806   2.764   3.376 -0.5555 -0.4686 -0.3438
 1859TIP3    H1 5583   3.754   2.717   3.311 -0.4751 -1.4693  0.2870
 1859TIP3    H2 5584   3.870   2.699   3.406 -0.7225 -0.0964  0.8688
 1860TIP3   OH2 5585   3.160   2.585   2.438 -0.8237 -0.0665  0.1372
 1860TIP3    H1 5586   3.198   2.499   2.453 -2.8454 -1.3648 -1.5948
 1860TIP3    H2 5587   3.066   2.569   2.430 -1.0559  1.9304 -2.4170
 1861TIP3   OH2 5588   3.327   1.746   2.796 -0.2839  0.3787 -0.4041
 1861TIP3    H1 5589   3.393   1.816   2.795 -1.2371  1.3033 -0.8395
 1861TIP3    H2 5590   3.348   1.692   2.720 -0.8253  1.4562 -1.3386
 1862TIP3   OH2 5591   1.242   5.271   2.295 -0.3410 -0.4038 -0.1191
 1862TIP3    H1 5592   1.306   5.277   2.224 -0.7590 -1.3791 -0.5929
 1862TIP3    H2 5593   1.284   5.214   2.360 -0.2081  0.0022  0.1570
 1863TIP3   OH2 5594   3.727   4.167   5.153  1.0284  0.1647  0.4315
 1863TIP3    H1 5595   3.669   4.243   5.155 -0.3253 -0.7915 -0.5365
 1863TIP3    H2 5596   3.668   4.092   5.145  2.3996 -0.8081 -1.5222
 1864TIP3   OH2 5597   0.572   4.249   1.533  0.0443  0.1813  0.1500
 1864TIP3    H1 5598   0.665   4.260   1.513  0.1695 -0.2506  0.4716
 1864TIP3    H2 5599   0.571   4.195   1.613 -0.5025 -1.5179 -0.9405
 1865TIP3   OH2 5600   4.938   1.253   4.565 -0.1210 -0.0887  0.3727
 1865TIP3    H1 5601   4.954   1.274   4.657  0.7788 -0.9126  0.4130
 1865TIP3    H2 5602   5.024   1.235   4.529 -0.0807  2.8274 -1.3398
 1866TIP3   OH2 5603   2.638   3.270   1.623  0.2849  0.2560  0.2435
 1866TIP3    H1 5604   2.627   3.206   1.693 -2.3411  1.1126  0.7285
 1866TIP3    H2 5605   2.578   3.241   1.554  1.0960  0.7126 -0.6711
 1867TIP3   OH2 5606   3.203   3.421   0.799 -0.0010 -0.6829 -0.2942
 1867TIP3    H1 5607   3.152   3.448   0.723  0.1359 -0.1030 -0.1918
 1867TIP3    H2 5608   3.277   3.372   0.763  0.4295  0.1638 -0.5983
 1868TIP3   OH2 5609   5.178   0.201   2.503  0.5641 -0.3531 -0.1896
 1868TIP3    H1 5610   5.187   0.209   2.408  3.0843 -1.1331 -0.0806
 1868TIP3    H2 5611   5.172   0.291   2.535  1.0723 -0.0250 -1.0036
 1869TIP3   OH2 5612   4.893   0.373   3.342 -0.4671 -0.7904 -0.4940
 1869TIP3    H1 5613   4.926   0.437   3.405 -0.3985 -0.6083 -0.7167
 1869TIP3    H2 5614   4.970   0.342   3.296 -0.3836 -1.7047  0.2304
 1870TIP3   OH2 5615   2.622   4.361   0.361 -0.3954 -0.4264 -0.4279
 1870TIP3    H1 5616   2.563   4.427   0.324  2.2858  1.5645 -1.4122
 1870TIP3    H2 5617   2.625   4.382   0.455 -0.4740  0.1047 -0.5393
 1871TIP3   OH2 5618   4.069   5.653   3.152  0.3393 -0.1655 -0.3922
 1871TIP3    H1 5619   4.009   5.594   3.106  0.3701  0.1112 -0.7847
 1871TIP3    H2 5620   4.107   5.598   3.221 -1.2024 -0.0612  0.5939
 1872TIP3   OH2 5621   1.914   4.625   2.454  0.2760  0.0815 -0.6487
 1872TIP3    H1 5622   1.961   4.542   2.465  1.6195  0.9614  0.6729
 1872TIP3    H2 5623   1.827   4.609   2.489  1.0593 -0.3242  1.2194
 1873TIP3   OH2 5624   5.850   1.084   4.003  0.2248  0.7159 -0.6028
 1873TIP3    H1 5625   5.879   1.176   4.008  1.2583  0.3923 -0.2351
 1873TIP3    H2 5626   5.932   1.034   4.004 -0.3351 -0.2141 -0.6925
 1874TIP3   OH2 5627   1.051   0.159   1.218 -0.5384  0.6169 -0.1605
 1874TIP3    H1 5628   1.024   0.241   1.177  1.0915  0.5758 -1.4048
 1874TIP3    H2 5629   1.142   0.173   1.243  0.2213 -1.2370 -1.6657
 1875TIP3   OH2 5630   1.878   1.893   4.051  0.0768 -0.2336 -0.1337
 1875TIP3    H1 5631   1.887   1.934   4.137 -0.2690  0.8767 -0.6163
 1875TIP3    H2 5632   1.862   1.800   4.071 -0.2864  0.0558  1.0023
 1876TIP3   OH2 5633   5.824   5.499   2.722  0.1158 -0.0308 -0.0423
 1876TIP3    H1 5634   5.844   5.550   2.801 -0.2199  1.9855 -1.1917
 1876TIP3    H2 5635   5.729   5.504   2.714 -0.0198 -1.5748  0.2479
 1877TIP3   OH2 5636   3.293   3.892   3.554  0.2182  0.4430 -0.0368
 1877TIP3    H1 5637   3.205   3.926   3.568  0.4892  1.1551  0.0125
 1877TIP3    H2 5638   3.334   3.955   3.495  0.2391 -0.6487 -1.2215
 1878TIP3   OH2 5639   6.045   0.034   4.913 -0.1123 -0.1956 -0.2756
 1878TIP3    H1 5640   5.962  -0.004   4.886 -0.2862  0.8541 -1.2957
 1878TIP3    H2 5641   6.028   0.068   5.001 -1.2129  1.2083 -0.9719
 1879TIP3   OH2 5642   2.223   1.742   4.262  0.3541  0.0225  0.4734
 1879TIP3    H1 5643   2.189   1.720   4.175 -1.0084 -0.1114  1.0170
 1879TIP3    H2 5644   2.270   1.825   4.248 -0.2985  0.2820 -0.2987
 1880TIP3   OH2 5645   1.860   2.349   2.755  0.1621  0.9922  0.2392
 1880TIP3    H1 5646   1.809   2.301   2.690 -1.2604  2.0575  0.5301
 1880TIP3    H2 5647   1.901   2.280   2.809  1.1989  0.0904 -1.5885
 1881TIP3   OH2 5648   0.664   2.507   2.043 -0.1056  0.5756 -0.0460
 1881TIP3    H1 5649   0.609   2.570   1.997  0.8185  0.1555 -1.8122
 1881TIP3    H2 5650   0.668   2.540   2.133 -0.5977  2.3892 -0.6384
 1882TIP3   OH2 5651   2.089   2.822   3.398 -0.0052  0.1247 -0.0532
 1882TIP3    H1 5652   2.015   2.764   3.416 -1.0882  0.5910 -2.5861
 1882TIP3    H2 5653   2.158   2.764   3.367 -0.3640 -0.0315 -0.5736
 1883TIP3   OH2 5654   2.309   5.553   3.600  0.1634  0.0617 -0.5114
 1883TIP3    H1 5655   2.235   5.517   3.649  0.6544  1.3080  1.2492
 1883TIP3    H2 5656   2.354   5.476   3.565 -0.5362 -0.8602  0.5401
 1884TIP3   OH2 5657   3.311   0.240   1.928  0.4101  0.2423 -0.3417
 1884TIP3    H1 5658   3.345   0.281   2.008  2.3533 -1.2837 -0.2907
 1884TIP3    H2 5659   3.367   0.274   1.858  0.7775 -0.7925 -0.5713
 1885TIP3   OH2 5660   0.975   1.156   4.369 -0.2356  0.2692  0.9714
 1885TIP3    H1 5661   1.022   1.238   4.381 -0.1686  0.1773  1.3464
 1885TIP3    H2 5662   1.011   1.120   4.288  0.5548  0.0612  1.4031
 1886TIP3   OH2 5663   2.441   4.896   4.668  0.4429  0.0984  0.6377
 1886TIP3    H1 5664   2.519   4.842   4.677  0.6581  0.4555  0.9027
 1886TIP3    H2 5665   2.456   4.971   4.724  0.4711  0.8140 -0.2960
 1887TIP3   OH2 5666   1.744   5.501   4.162  0.4559  0.4214 -0.1664
 1887TIP3    H1 5667   1.750   5.540   4.075  1.1752 -0.3626 -0.4754
 1887TIP3    H2 5668   1.651   5.508   4.185  0.0408 -0.4348 -1.4985
 1888TIP3   OH2 5669   1.102   3.755   4.271 -0.1843  0.6248  0.2383
 1888TIP3    H1 5670   1.068   3.803   4.346  2.1682  1.7989  0.6555
 1888TIP3    H2 5671   1.154   3.684   4.309 -0.8582 -0.2008 -0.3411
 1889TIP3   OH2 5672   5.487   2.305   0.345 -0.6941  0.2488 -0.0175
 1889TIP3    H1 5673   5.398   2.340   0.340 -0.8056  0.4394  2.1959
 1889TIP3    H2 5674   5.531   2.360   0.409  0.7243 -0.4561 -0.3506
 1890TIP3   OH2 5675   6.023   5.413   1.166  1.1008  0.2098 -0.1077
 1890TIP3    H1 5676   5.939   5.401   1.122 -0.4008  0.4049  2.5106
 1890TIP3    H2 5677   6.043   5.506   1.155  0.8359  0.2281 -0.4627
 1891TIP3   OH2 5678   0.070   4.199   4.203 -0.4597  0.2242  0.4883
 1891TIP3    H1 5679   0.119   4.177   4.123  0.0601  0.5147  0.7258
 1891TIP3    H2 5680   0.013   4.271   4.176 -0.2615  0.3440  0.3835
 1892TIP3   OH2 5681   5.441   4.847   2.648 -0.0737 -0.3389 -0.0703
 1892TIP3    H1 5682   5.516   4.867   2.703  1.0105  0.0743 -1.6427
 1892TIP3    H2 5683   5.448   4.753   2.630  1.3468  0.0633 -1.9455
 1893TIP3   OH2 5684   4.898   3.925   3.655 -0.3339  0.1999 -0.1047
 1893TIP3    H1 5685   4.991   3.949   3.654  0.1355 -1.4665  0.1058
 1893TIP3    H2 5686   4.890   3.864   3.728 -1.2316 -0.9634 -1.1268
 1894TIP3   OH2 5687   4.684   2.621   5.178 -0.3114 -1.2321  0.1377
 1894TIP3    H1 5688   4.752   2.564   5.141 -0.1807 -0.9088 -0.1301
 1894TIP3    H2 5689   4.673   2.690   5.113 -0.0848 -0.6561  0.6905
 1895TIP3   OH2 5690   4.935   2.491   1.912  0.0338 -0.3628 -0.4855
 1895TIP3    H1 5691   4.998   2.445   1.856 -0.4860 -0.1321 -1.2814
 1895TIP3    H2 5692   4.931   2.579   1.875  0.0701 -0.0490  0.2490
 1896TIP3   OH2 5693   0.417   4.492   2.119  1.1215  0.3503  0.5791
 1896TIP3    H1 5694   0.427   4.490   2.214  1.2501 -0.3949  0.5567
 1896TIP3    H2 5695   0.452   4.577   2.093  0.6953  0.7382  1.2381
 1897TIP3   OH2 5696   4.667   0.476   2.356  0.2771  0.0469 -0.1470
 1897TIP3    H1 5697   4.627   0.553   2.397 -0.6666 -1.0999  1.1711
 1897TIP3    H2 5698   4.593   0.418   2.338  1.1264 -1.2754  0.4648
 1898TIP3   OH2 5699   1.320   2.457   3.580  0.2170  0.1712 -0.4976
 1898TIP3    H1 5700   1.383   2.437   3.511 -0.9507 -0.7226 -1.3400
 1898TIP3    H2 5701   1.247   2.500   3.535 -0.4225 -0.1314  0.2236
 1899TIP3   OH2 5702   1.439   4.084   0.479 -0.1524  0.3608  0.4840
 1899TIP3    H1 5703   1.483   4.048   0.402 -3.0321 -0.2964 -1.0214
 1899TIP3    H2 5704   1.447   4.179   0.470  0.9288  0.2543  0.2771
 1900TIP3   OH2 5705   0.648   1.848   1.926  0.1475  0.3515 -0.1135
 1900TIP3    H1 5706   0.690   1.776   1.975 -1.5235 -1.2644 -0.9340
 1900TIP3    H2 5707   0.712   1.870   1.858  1.1861  0.5081  0.8692
 1901TIP3   OH2 5708   1.000   3.516   1.780 -0.0701 -0.0841 -0.2287
 1901TIP3    H1 5709   0.994   3.579   1.852 -0.8276 -1.0749  0.5967
 1901TIP3    H2 5710   0.914   3.519   1.738 -0.3592 -1.0845  0.2715
 1902TIP3   OH2 5711   2.949   2.963   1.448 -0.0489  0.0646 -0.1585
 1902TIP3    H1 5712   3.000   3.043   1.457  0.6390 -0.4164  0.3236
 1902TIP3    H2 5713   2.969   2.913   1.527  2.6461 -2.3216 -2.1348
 1903TIP3   OH2 5714   0.872   2.891   0.993  0.6389  0.0283  0.3986
 1903TIP3    H1 5715   0.928   2.908   1.069  0.2281  1.3738  0.4299
 1903TIP3    H2 5716   0.790   2.935   1.013  0.7091  0.9086 -1.0531
 1904TIP3   OH2 5717   1.951   4.380   4.705  0.0414 -0.0824 -0.0916
 1904TIP3    H1 5718   1.870   4.363   4.657  1.6788 -0.0109 -3.1207
 1904TIP3    H2 5719   1.978   4.294   4.736 -1.4443 -0.0234  1.5117
 1905TIP3   OH2 5720   0.181   4.167   1.986  0.6265  0.5346 -0.8015
 1905TIP3    H1 5721   0.271   4.184   2.013  1.0861  0.6147 -2.2984
 1905TIP3    H2 5722   0.152   4.249   1.946  0.3015  0.1372 -1.3920
 1906TIP3   OH2 5723   3.104   0.941   4.047 -0.2754  0.1150 -0.0303
 1906TIP3    H1 5724   3.174   1.001   4.020 -0.4061 -0.2858 -1.3444
 1906TIP3    H2 5725   3.114   0.934   4.142  1.4756  0.0789 -0.1784
 1907TIP3   OH2 5726   6.116   2.451   2.711 -0.4897  0.0913 -0.9693
 1907TIP3    H1 5727   6.198   2.432   2.663 -0.8147  0.5193 -1.7161
 1907TIP3    H2 5728   6.047   2.430   2.648 -0.9522 -0.0075 -0.4324
 1908TIP3   OH2 5729   3.071   4.270   4.467  0.0844 -0.7901 -0.1953
 1908TIP3    H1 5730   2.990   4.235   4.429 -0.5466  0.9306 -0.5408
 1908TIP3    H2 5731   3.041   4.341   4.524  1.1565 -2.1137  2.1611
 1909TIP3   OH2 5732   3.627   4.624   4.313 -0.3269 -0.0967  0.1157
 1909TIP3    H1 5733   3.679   4.545   4.296 -0.5157 -0.6445  1.8800
 1909TIP3    H2 5734   3.572   4.633   4.236 -1.2212 -2.4600  0.3872
 1910TIP3   OH2 5735   0.507   4.460   1.752 -0.4032 -0.3170 -0.4915
 1910TIP3    H1 5736   0.521   4.487   1.661 -0.2362 -0.8956 -0.6383
 1910TIP3    H2 5737   0.445   4.524   1.786  1.2632  1.3090 -0.3218
 1911TIP3   OH2 5738   2.493   5.085   2.248 -0.1128 -0.0455  0.3607
 1911TIP3    H1 5739   2.405   5.116   2.268 -1.1846 -2.7256  0.2663
 1911TIP3    H2 5740   2.481   4.992   2.228  2.7476 -0.4724  0.2678
 1912TIP3   OH2 5741   0.289   2.315   3.667 -0.3523  0.9649  0.0648
 1912TIP3    H1 5742   0.340   2.233   3.669  1.3388  1.9353 -0.9619
 1912TIP3    H2 5743   0.298   2.351   3.756  2.3352  1.9825 -0.5317
 1913TIP3   OH2 5744   5.629   3.637   4.432  0.1269  0.0008  0.1056
 1913TIP3    H1 5745   5.573   3.679   4.367  0.5470  1.3421  0.5787
 1913TIP3    H2 5746   5.628   3.696   4.507  2.1034  0.0463  0.1493
 1914TIP3   OH2 5747   1.896   1.561   2.389  0.0414 -0.2045  0.2446
 1914TIP3    H1 5748   1.976   1.594   2.348 -0.4129 -0.9450 -1.3053
 1914TIP3    H2 5749   1.833   1.633   2.379 -0.1063 -0.4300 -0.5129
 1915TIP3   OH2 5750   3.701   1.545   2.633 -0.1118  0.1160  0.6537
 1915TIP3    H1 5751   3.620   1.596   2.623  0.7407  1.4691  0.4485
 1915TIP3    H2 5752   3.764   1.588   2.575  1.0922 -0.2104  1.6784
 1916TIP3   OH2 5753   2.952   1.418   2.329  0.0223  0.0387  0.5402
 1916TIP3    H1 5754   2.917   1.351   2.387  0.4197 -0.2138  0.4967
 1916TIP3    H2 5755   3.001   1.476   2.387  0.7736 -0.4518  0.4113
 1917TIP3   OH2 5756   3.101   0.423   1.841  0.2241 -0.3204 -0.0099
 1917TIP3    H1 5757   3.141   0.377   1.915 -0.7896  2.0524  2.1786
 1917TIP3    H2 5758   3.175   0.460   1.793  0.8619 -0.8058  0.5819
 1918TIP3   OH2 5759   1.816   1.698   0.864  0.2411  0.4196  0.3799
 1918TIP3    H1 5760   1.785   1.635   0.928  0.4843 -0.4615 -0.3496
 1918TIP3    H2 5761   1.774   1.781   0.889 -2.8502 -0.6959 -0.6136
 1919TIP3   OH2 5762   3.175   5.831   0.278  0.4847  0.2411 -0.3144
 1919TIP3    H1 5763   3.089   5.790   0.287  1.4212 -1.8326 -0.2376
 1919TIP3    H2 5764   3.214   5.826   0.365  0.5559  1.5224 -0.2567
 1920TIP3   OH2 5765   6.164   3.015   3.065  0.4682 -0.1991 -0.0552
 1920TIP3    H1 5766   6.228   3.086   3.074 -0.4975  0.7780 -0.7794
 1920TIP3    H2 5767   6.217   2.939   3.039  1.6698 -0.0810  1.8393
 1921TIP3   OH2 5768   1.230   5.598   2.788 -0.3131  0.2161  0.5266
 1921TIP3    H1 5769   1.281   5.635   2.716 -0.0312  0.8057  1.0181
 1921TIP3    H2 5770   1.296   5.576   2.854 -0.6547  0.5237  0.9716
 1922TIP3   OH2 5771   5.799   0.209   3.585  0.4925 -0.2594  0.1111
 1922TIP3    H1 5772   5.750   0.128   3.569  0.0871 -0.3220  1.5288
 1922TIP3    H2 5773   5.886   0.179   3.613  0.6102 -0.1775 -0.1589
 1923TIP3   OH2 5774   3.629   1.912   4.940 -0.0264 -0.3685  0.7227
 1923TIP3    H1 5775   3.642   1.863   5.021  0.2005 -0.0930  0.8546
 1923TIP3    H2 5776   3.631   2.004   4.967 -2.3053 -0.2719  0.7684
 1924TIP3   OH2 5777   4.629   1.857   3.228  0.5365 -0.4952 -0.1055
 1924TIP3    H1 5778   4.682   1.790   3.271  0.6637 -0.0032  0.5066
 1924TIP3    H2 5779   4.545   1.815   3.212  0.4079 -0.6126  0.8341
 1925TIP3   OH2 5780   0.291   3.817   3.528 -0.7132 -0.8811 -0.0926
 1925TIP3    H1 5781   0.307   3.783   3.440  1.3008 -0.0162 -0.0969
 1925TIP3    H2 5782   0.377   3.843   3.560 -1.4400 -0.9553  2.0598
 1926TIP3   OH2 5783   2.811   0.444   3.932  0.1397  0.4165 -0.4902
 1926TIP3    H1 5784   2.893   0.493   3.942  1.2451 -1.4905  0.4081
 1926TIP3    H2 5785   2.835   0.353   3.950 -1.8364 -0.4732 -1.9698
 1927TIP3   OH2 5786   4.981   0.548   1.002 -0.6172  0.1720  0.2193
 1927TIP3    H1 5787   5.030   0.584   0.928 -1.0562 -0.2358 -0.2771
 1927TIP3    H2 5788   5.046   0.498   1.051 -0.2803  0.6032  0.2208
 1928TIP3   OH2 5789   2.925   3.550   1.428 -0.2649  0.4217 -0.4362
 1928TIP3    H1 5790   2.859   3.602   1.384 -1.4283 -1.1623 -0.6585
 1928TIP3    H2 5791   2.958   3.606   1.499 -1.5309  1.3864 -0.5883
 1929TIP3   OH2 5792   3.268   1.925   3.903 -0.9515 -0.6356  0.1233
 1929TIP3    H1 5793   3.341   1.875   3.941 -0.4741  0.4755  0.7069
 1929TIP3    H2 5794   3.276   1.912   3.809  0.6974  0.3630  0.0850
 1930TIP3   OH2 5795   2.794   4.472   3.701  0.0435  0.5343 -0.1456
 1930TIP3    H1 5796   2.851   4.533   3.749  1.1397 -0.5566 -0.0189
 1930TIP3    H2 5797   2.771   4.406   3.766  2.1091 -1.3584 -1.1921
 1931TIP3   OH2 5798   3.841   3.542   4.300  0.6977 -0.1017 -0.5958
 1931TIP3    H1 5799   3.842   3.507   4.211  1.2987 -1.7855  0.0272
 1931TIP3    H2 5800   3.748   3.540   4.326  0.7006 -1.2907 -0.5945
 1932TIP3   OH2 5801   2.713   5.301   3.510 -0.6993  0.4755 -0.1574
 1932TIP3    H1 5802   2.707   5.374   3.572 -3.2175  1.1254 -1.0779
 1932TIP3    H2 5803   2.705   5.341   3.424  2.9732 -0.3919 -1.1012
 1933TIP3   OH2 5804   1.428   2.625   1.108 -0.0795 -0.1831 -0.2351
 1933TIP3    H1 5805   1.398   2.564   1.040  2.6884  0.8081 -2.5889
 1933TIP3    H2 5806   1.348   2.660   1.146 -1.7993 -1.4845 -2.3978
 1934TIP3   OH2 5807   2.345   1.690   0.127  0.0886  0.0271 -0.3530
 1934TIP3    H1 5808   2.351   1.774   0.082  0.2553  1.1857  1.6858
 1934TIP3    H2 5809   2.272   1.645   0.084  1.4329  0.1778 -2.9983
 1935TIP3   OH2 5810   4.410   2.328   2.313 -0.1671  0.0810  0.5475
 1935TIP3    H1 5811   4.495   2.333   2.357  0.2691  0.7578 -0.3287
 1935TIP3    H2 5812   4.358   2.270   2.367  1.1738 -1.1243  0.5997
 1936TIP3   OH2 5813   5.753   1.903   0.622  0.1314  0.7468  0.1629
 1936TIP3    H1 5814   5.724   1.875   0.709  0.3744 -0.1802 -0.0382
 1936TIP3    H2 5815   5.849   1.901   0.627  0.2054 -1.5812 -0.7654
 1937TIP3   OH2 5816   5.159   0.125   5.165  0.3282  0.0360  0.1664
 1937TIP3    H1 5817   5.208   0.206   5.173  0.2910  0.1941 -1.0105
 1937TIP3    H2 5818   5.069   0.153   5.148 -0.0965 -0.2508  1.8321
 1938TIP3   OH2 5819   2.404   3.638   0.260  0.0588  0.4058 -0.4014
 1938TIP3    H1 5820   2.350   3.707   0.300 -1.1838  0.7982 -2.5554
 1938TIP3    H2 5821   2.363   3.556   0.287  1.5535  0.4273  2.1889
 1939TIP3   OH2 5822   2.243   3.607   3.998 -0.4510 -0.2042  0.2829
 1939TIP3    H1 5823   2.229   3.543   4.067  0.1059 -1.7329 -0.9499
 1939TIP3    H2 5824   2.289   3.559   3.929  1.1515  1.8483 -0.2061
 1940TIP3   OH2 5825   0.487   0.442   0.534  0.0047 -0.0887 -0.2578
 1940TIP3    H1 5826   0.445   0.380   0.475 -0.9786  0.9965 -0.7351
 1940TIP3    H2 5827   0.416   0.496   0.568  0.5215 -0.6916  1.9848
 1941TIP3   OH2 5828   1.267   5.180   0.041 -0.2265  0.6858 -0.3621
 1941TIP3    H1 5829   1.258   5.216   0.130 -0.4318  0.7508 -0.4082
 1941TIP3    H2 5830   1.360   5.159   0.033 -0.4841 -0.8811  0.4616
 1942TIP3   OH2 5831   2.623   1.963   0.576 -0.2885  0.0148 -0.1040
 1942TIP3    H1 5832   2.561   2.034   0.557 -0.1434  0.2988  0.4325
 1942TIP3    H2 5833   2.570   1.884   0.579 -0.5006  0.1455 -0.4229
 1943TIP3   OH2 5834   0.600   4.604   1.513 -0.1182 -0.2651 -0.5598
 1943TIP3    H1 5835   0.512   4.640   1.504 -0.1544 -0.0136  0.6466
 1943TIP3    H2 5836   0.622   4.573   1.425 -1.2054  0.1248 -0.9897
 1944TIP3   OH2 5837   0.920   1.511   0.904 -0.0949 -0.3698 -0.1087
 1944TIP3    H1 5838   0.919   1.507   0.809 -0.5693 -0.0099 -0.1261
 1944TIP3    H2 5839   0.992   1.454   0.931 -0.2701 -0.8551 -0.6628
 1945TIP3   OH2 5840   3.315   1.427   1.874  0.8000  0.4990 -0.4012
 1945TIP3    H1 5841   3.241   1.478   1.906  0.3405  0.7783 -1.8185
 1945TIP3    H2 5842   3.342   1.374   1.948  0.2758  1.6511  0.6495
 1946TIP3   OH2 5843   3.543   0.441   3.188 -0.1489 -0.0466  0.4474
 1946TIP3    H1 5844   3.502   0.509   3.134 -1.3256 -0.1266  1.1866
 1946TIP3    H2 5845   3.469   0.398   3.231  0.6573 -1.0473  0.8706
 1947TIP3   OH2 5846   0.263   5.530   1.128 -0.4949  0.6032  0.2589
 1947TIP3    H1 5847   0.172   5.558   1.138 -0.5684  0.4286  0.0749
 1947TIP3    H2 5848   0.259   5.435   1.129 -0.1800  0.5779  1.5306
 1948TIP3   OH2 5849   0.112   4.674   2.605 -0.6307 -0.2219 -0.1787
 1948TIP3    H1 5850   0.082   4.593   2.647 -0.2578  0.6103  1.7999
 1948TIP3    H2 5851   0.087   4.743   2.666  1.9276  0.8555 -0.2269
 1949TIP3   OH2 5852   3.903   4.779   3.944 -1.1681 -0.7849  0.3516
 1949TIP3    H1 5853   3.900   4.754   4.036 -1.1486 -0.0367  0.5598
 1949TIP3    H2 5854   3.879   4.700   3.897  0.6576 -1.7129  0.8948
 1950TIP3   OH2 5855   2.426   5.323   3.459  0.1836  0.3329 -0.3101
 1950TIP3    H1 5856   2.516   5.299   3.437 -0.0315  0.0158 -0.8722
 1950TIP3    H2 5857   2.380   5.239   3.467 -0.3031  0.5181 -1.0840
 1951TIP3   OH2 5858   5.962   0.353   5.055 -0.7511 -0.4883  0.4529
 1951TIP3    H1 5859   6.037   0.375   5.001 -1.3287  0.6682  0.0901
 1951TIP3    H2 5860   5.994   0.361   5.145 -0.6206  0.7012  0.3086
 1952TIP3   OH2 5861   3.984   1.535   4.940 -0.4891  0.2659 -0.0205
 1952TIP3    H1 5862   3.940   1.579   4.867 -2.1487 -0.8367  0.2578
 1952TIP3    H2 5863   3.939   1.451   4.947  1.0458 -0.5038  0.9536
 1953TIP3   OH2 5864   4.678   1.474   2.950 -0.3599  0.0063 -0.3147
 1953TIP3    H1 5865   4.612   1.442   3.011 -2.4653 -0.3275 -2.6066
 1953TIP3    H2 5866   4.642   1.556   2.916  0.6556  0.1074 -1.2227
 1954TIP3   OH2 5867   4.600   4.178   4.198 -0.6139 -0.0363  0.5264
 1954TIP3    H1 5868   4.603   4.183   4.293  1.3686 -0.6179  0.5355
 1954TIP3    H2 5869   4.638   4.260   4.168  0.8040 -0.7397  0.2998
 1955TIP3   OH2 5870   3.038   1.482   4.358  0.0344 -0.5802 -0.7176
 1955TIP3    H1 5871   2.945   1.486   4.337 -0.0096  0.2967 -0.3818
 1955TIP3    H2 5872   3.044   1.516   4.447  0.7525 -0.0160 -0.9754
 1956TIP3   OH2 5873   3.511   4.570   4.061 -0.4719 -0.6930  0.2130
 1956TIP3    H1 5874   3.576   4.517   4.015 -1.0567  0.6731 -2.3828
 1956TIP3    H2 5875   3.427   4.534   4.033 -0.8444  0.2055  0.1439
 1957TIP3   OH2 5876   3.034   1.709   0.049  0.3413  0.3624 -0.1391
 1957TIP3    H1 5877   3.008   1.770  -0.021  1.3556  0.0214 -0.8345
 1957TIP3    H2 5878   3.052   1.627   0.003 -1.1680 -0.5397  0.8088
 1958TIP3   OH2 5879   0.895   5.013   2.145  0.8793  0.5201  0.1050
 1958TIP3    H1 5880   0.928   5.093   2.104  1.8669 -0.0354 -0.2267
 1958TIP3    H2 5881   0.801   5.014   2.127  1.3963 -0.4048 -3.5113
 1959TIP3   OH2 5882   4.179   3.028   2.965 -0.6138 -0.4417 -0.2024
 1959TIP3    H1 5883   4.245   2.968   3.000 -3.1224 -4.2733 -1.4710
 1959TIP3    H2 5884   4.203   3.040   2.874  1.1165  2.5638  0.5124
 1960TIP3   OH2 5885   1.057   4.194   4.671 -0.2376 -0.1003 -0.8156
 1960TIP3    H1 5886   1.127   4.152   4.620 -0.6111 -2.0354  0.1668
 1960TIP3    H2 5887   0.998   4.232   4.605  0.6479 -0.2642 -1.7138
 1961TIP3   OH2 5888   5.311   5.932   1.045  0.1285 -0.2982 -0.1712
 1961TIP3    H1 5889   5.305   5.995   1.117  2.2774  0.5609 -0.6470
 1961TIP3    H2 5890   5.363   5.860   1.080 -0.4129 -0.7672 -0.3190
 1962TIP3   OH2 5891   1.535   4.304   4.526  0.8000 -0.0101  0.0358
 1962TIP3    H1 5892   1.523   4.238   4.457  0.3269 -0.0632  0.1642
 1962TIP3    H2 5893   1.490   4.268   4.602  1.7744 -0.1842  0.5292
 1963TIP3   OH2 5894   1.733   4.093   4.988 -0.1538  0.2412 -0.1193
 1963TIP3    H1 5895   1.680   4.170   4.965 -0.5441  0.3144  0.9684
 1963TIP3    H2 5896   1.821   4.114   4.957 -0.1510  1.3438  0.5994
 1964TIP3   OH2 5897   3.604   0.305   2.310 -0.0666  0.4879 -0.0691
 1964TIP3    H1 5898   3.605   0.376   2.246 -1.2284  2.0050  1.5042
 1964TIP3    H2 5899   3.638   0.345   2.391  1.7791 -1.4832  0.2109
 1965TIP3   OH2 5900   1.987   5.347   3.514  0.4753 -0.0189  0.2682
 1965TIP3    H1 5901   1.980   5.402   3.436 -1.1992 -0.8070 -0.1713
 1965TIP3    H2 5902   1.965   5.406   3.587  1.6405  0.6135  0.1347
 1966TIP3   OH2 5903   3.723   5.175   0.499  0.1384 -0.1841 -0.1997
 1966TIP3    H1 5904   3.753   5.105   0.441  1.5861  2.1255 -2.5235
 1966TIP3    H2 5905   3.798   5.235   0.503 -1.7740  2.3960 -0.3748
 1967TIP3   OH2 5906   0.627   5.003   2.371 -0.4740  0.4229 -0.3162
 1967TIP3    H1 5907   0.713   5.009   2.413  0.2660 -0.6181 -1.6051
 1967TIP3    H2 5908   0.574   5.069   2.415  0.8906  0.8650  0.7283
 1968TIP3   OH2 5909   1.244   4.257   3.058  0.7482 -0.0088 -0.2194
 1968TIP3    H1 5910   1.309   4.316   3.097  0.3487  1.4861 -1.7046
 1968TIP3    H2 5911   1.231   4.189   3.124  1.9313  1.0479  1.1686
 1969TIP3   OH2 5912   0.733   3.458   3.202 -0.2646 -0.3382  0.1154
 1969TIP3    H1 5913   0.697   3.435   3.288  0.2751 -1.7160 -0.0062
 1969TIP3    H2 5914   0.729   3.376   3.152  2.4570 -0.4212 -0.0917
 1970TIP3   OH2 5915   3.019   4.559   3.256 -1.0088  0.1833  0.3138
 1970TIP3    H1 5916   2.937   4.551   3.206 -0.9289 -1.4542  0.3704
 1970TIP3    H2 5917   3.088   4.551   3.191 -0.8989  0.0605  0.4460
 1971TIP3   OH2 5918   4.671   5.030   3.340  0.1999 -0.2511 -1.0669
 1971TIP3    H1 5919   4.753   4.991   3.310  0.7614  0.1420 -0.0744
 1971TIP3    H2 5920   4.656   5.102   3.279 -0.6283 -1.6870 -2.6610
 1972TIP3   OH2 5921   3.268   3.286   4.897  0.2852 -0.0827  0.1501
 1972TIP3    H1 5922   3.193   3.344   4.909 -0.4768 -1.0142 -0.0165
 1972TIP3    H2 5923   3.277   3.239   4.980  1.0538  0.4279  0.3725
 1973TIP3   OH2 5924   0.206   1.616   2.687 -0.4644  0.0543 -0.2524
 1973TIP3    H1 5925   0.162   1.549   2.634 -0.4429  0.0621 -0.2804
 1973TIP3    H2 5926   0.244   1.567   2.759 -1.4399  0.1848  0.3701
 1974TIP3   OH2 5927   1.207   2.462   0.132 -0.1288 -0.2738 -0.3229
 1974TIP3    H1 5928   1.124   2.493   0.167 -0.2324  1.2752 -1.8135
 1974TIP3    H2 5929   1.194   2.368   0.119 -1.7686 -0.0019 -0.8567
 1975TIP3   OH2 5930   4.201   1.184   4.409 -0.2493  0.5788  0.2814
 1975TIP3    H1 5931   4.201   1.157   4.501  0.0205 -0.9592 -0.1442
 1975TIP3    H2 5932   4.151   1.115   4.365  1.0464  0.4217 -0.9700
 1976TIP3   OH2 5933   2.973   3.049   2.626  0.2224  0.0251 -0.6019
 1976TIP3    H1 5934   2.933   3.097   2.698 -0.1389 -1.1108 -0.0138
 1976TIP3    H2 5935   3.055   3.095   2.609 -0.6223  1.5085 -0.8395
 1977TIP3   OH2 5936   1.051   0.839   2.291 -0.4785 -0.2179 -0.2475
 1977TIP3    H1 5937   1.003   0.800   2.218 -1.6463  0.2433  0.2386
 1977TIP3    H2 5938   1.136   0.796   2.290 -0.1950  0.3041 -2.3188
 1978TIP3   OH2 5939   3.590   0.492   2.882 -0.2242 -0.4525 -0.2074
 1978TIP3    H1 5940   3.579   0.406   2.921 -1.7179 -0.4062 -0.4807
 1978TIP3    H2 5941   3.518   0.545   2.919 -0.6049  0.0773 -1.6379
 1979TIP3   OH2 5942   1.541   0.836   0.126 -0.3417 -0.1482  0.7196
 1979TIP3    H1 5943   1.615   0.826   0.187 -0.7275 -1.4487  1.0166
 1979TIP3    H2 5944   1.582   0.844   0.040  0.1698 -1.9390  0.7442
 1980TIP3   OH2 5945   1.153   4.603   0.867  0.3206  0.1844 -0.3540
 1980TIP3    H1 5946   1.134   4.513   0.893  1.0008  0.2809  0.5463
 1980TIP3    H2 5947   1.083   4.626   0.807 -0.0268 -0.8465 -0.3714
 1981TIP3   OH2 5948   3.816   4.044   2.390 -0.4049 -0.4762  0.5446
 1981TIP3    H1 5949   3.728   4.023   2.358 -0.3237  1.9504 -1.5522
 1981TIP3    H2 5950   3.867   3.964   2.372 -1.3364 -0.6419 -1.8061
 1982TIP3   OH2 5951   1.130   1.342   0.902 -0.2590  0.2586  0.8467
 1982TIP3    H1 5952   1.103   1.271   0.959  0.7691 -1.5293 -0.8032
 1982TIP3    H2 5953   1.149   1.300   0.818 -0.0829  2.5439 -0.3381
 1983TIP3   OH2 5954   6.220   3.483   3.943  0.3570 -0.1908 -0.2196
 1983TIP3    H1 5955   6.139   3.468   3.893 -0.6029 -0.4249  1.3389
 1983TIP3    H2 5956   6.229   3.406   3.998  1.5357 -0.0510 -0.1928
 1984TIP3   OH2 5957   1.811   1.923   2.586 -0.1792  0.1842  0.6928
 1984TIP3    H1 5958   1.852   1.862   2.647 -0.1222 -1.1743 -0.6310
 1984TIP3    H2 5959   1.877   1.938   2.519 -1.1276 -0.4431 -0.4174
 1985TIP3   OH2 5960   1.668   2.816   0.548 -0.3863  0.4555 -0.0681
 1985TIP3    H1 5961   1.670   2.872   0.626  0.9802  0.3551 -0.0034
 1985TIP3    H2 5962   1.751   2.769   0.550 -0.8093 -0.3689 -1.0043
 1986TIP3   OH2 5963   1.429   3.241   1.635 -0.1300 -0.2309  0.1154
 1986TIP3    H1 5964   1.464   3.157   1.606 -0.6003 -0.4933  0.2995
 1986TIP3    H2 5965   1.377   3.220   1.713 -1.4918  0.0102 -0.7018
 1987TIP3   OH2 5966   2.565   0.464   3.365  0.1394  0.3097  1.1359
 1987TIP3    H1 5967   2.657   0.489   3.370  0.3940 -0.6257  1.3199
 1987TIP3    H2 5968   2.556   0.394   3.430 -0.6348  0.2040  0.9225
 1988TIP3   OH2 5969   2.716   1.351   3.444 -0.5900  0.3033  0.2554
 1988TIP3    H1 5970   2.669   1.363   3.362  0.1095  1.3434 -0.0234
 1988TIP3    H2 5971   2.706   1.259   3.466 -0.8547  0.0363 -0.9593
 1989TIP3   OH2 5972   5.011   5.975   2.907 -0.0761  0.2576  0.3624
 1989TIP3    H1 5973   5.098   5.943   2.931 -0.7468 -0.5909  1.8453
 1989TIP3    H2 5974   5.010   5.973   2.811  1.4063 -0.0524  0.3297
 1990TIP3   OH2 5975   3.247   1.384   0.870 -0.2985  0.0528 -0.5984
 1990TIP3    H1 5976   3.334   1.403   0.906 -0.2821 -0.2962 -0.4592
 1990TIP3    H2 5977   3.256   1.299   0.828 -1.4508 -1.7329  2.4685
 1991TIP3   OH2 5978   0.527   2.627   4.055  0.1951 -0.0351 -0.0199
 1991TIP3    H1 5979   0.491   2.592   3.974  2.0563 -1.3643 -0.3465
 1991TIP3    H2 5980   0.491   2.571   4.123 -0.5163  0.4029 -0.0252
 1992TIP3   OH2 5981   5.299   5.948   4.527 -0.2317 -0.1848 -0.2413
 1992TIP3    H1 5982   5.332   6.035   4.507 -2.0651  0.6325  0.0814
 1992TIP3    H2 5983   5.239   5.928   4.454  0.0531 -1.1199 -0.2373
 1993TIP3   OH2 5984   0.372   5.917   4.330  0.4720 -0.6780 -0.7699
 1993TIP3    H1 5985   0.446   5.904   4.388  0.0759 -1.0405 -0.3354
 1993TIP3    H2 5986   0.411   5.927   4.243  1.0498 -0.3740 -0.4786
 1994TIP3   OH2 5987   4.398   1.756   3.140  0.4948  0.1952 -0.9513
 1994TIP3    H1 5988   4.405   1.661   3.147 -1.3015  0.1358  1.0241
 1994TIP3    H2 5989   4.309   1.772   3.108  0.8111  1.2124 -1.3711
 1995TIP3   OH2 5990   4.922   1.743   5.115 -0.2811 -0.6623  0.9205
 1995TIP3    H1 5991   4.898   1.654   5.142 -0.3379 -0.6052  1.0595
 1995TIP3    H2 5992   4.916   1.795   5.196 -1.0277 -0.3664  0.6863
 1996TIP3   OH2 5993   4.687   2.585   2.188  0.2699 -0.3171 -0.2156
 1996TIP3    H1 5994   4.669   2.491   2.185 -1.2588 -0.0291 -1.1030
 1996TIP3    H2 5995   4.675   2.615   2.098 -0.2399  0.8836  0.2282
 1997TIP3   OH2 5996   1.715   5.429   2.110 -0.1192  0.4907  0.4794
 1997TIP3    H1 5997   1.766   5.496   2.063  2.3066 -2.1033 -0.9067
 1997TIP3    H2 5998   1.753   5.428   2.198  1.8417 -0.8763 -0.3139
 1998TIP3   OH2 5999   2.828   3.150   1.030 -0.2241 -0.5834  0.0649
 1998TIP3    H1 6000   2.834   3.213   1.102  0.7112 -0.8277  0.2053
 1998TIP3    H2 6001   2.857   3.067   1.068  0.1063 -0.7502 -0.5475
 1999TIP3   OH2 6002   1.642   1.187   0.275  0.4954 -0.0315  0.2457
 1999TIP3    H1 6003   1.604   1.123   0.214  0.3622 -0.8447  1.1625
 1999TIP3    H2 6004   1.570   1.245   0.298  0.3821 -0.1408  0.1630
 2000TIP3   OH2 6005   3.882   0.135   3.383  0.0980 -0.2110  0.4976
 2000TIP3    H1 6006   3.911   0.172   3.466  0.3278 -2.4730  1.4784
 2000TIP3    H2 6007   3.949   0.161   3.320  0.4208  0.7112  1.1957
 2001TIP3   OH2 6008   3.946   2.346   3.390 -0.0544  0.0976 -0.5270
 2001TIP3    H1 6009   3.878   2.317   3.329 -0.7958 -0.9432  0.7124
 2001TIP3    H2 6010   4.022   2.293   3.368 -0.1932  0.0220 -0.8246
 2002TIP3   OH2 6011   0.601   3.360   3.851 -0.4591  0.1104 -0.3203
 2002TIP3    H1 6012   0.529   3.423   3.852 -0.2035  0.4065  1.2115
 2002TIP3    H2 6013   0.558   3.275   3.852 -0.8181  0.2847  0.6884
 2003TIP3   OH2 6014   3.786   0.719   0.820  0.1369  0.2021  0.2382
 2003TIP3    H1 6015   3.764   0.762   0.903  0.9199 -1.3778  1.3056
 2003TIP3    H2 6016   3.715   0.657   0.806  0.3446  0.0026  0.0675
 2004TIP3   OH2 6017   1.946   0.181   1.155 -0.2838 -0.8448  0.4774
 2004TIP3    H1 6018   1.928   0.210   1.245 -1.3146 -0.5457  0.1831
 2004TIP3    H2 6019   1.967   0.262   1.108 -0.6420 -0.8914  0.2376
 2005TIP3   OH2 6020   4.916   0.452   2.483 -0.1614  0.5150 -0.5218
 2005TIP3    H1 6021   4.830   0.472   2.446 -0.4270  1.0233  0.3289
 2005TIP3    H2 6022   4.973   0.439   2.407 -0.8664  0.7038 -1.0959
 2006TIP3   OH2 6023   5.481   2.769   4.233 -0.4928  0.1091 -0.4656
 2006TIP3    H1 6024   5.460   2.742   4.144 -0.4930 -0.6359 -0.2481
 2006TIP3    H2 6025   5.575   2.787   4.232 -0.4501 -0.1203 -0.5637
 2007TIP3   OH2 6026   5.035   4.636   1.339  0.1493  0.9599  0.4810
 2007TIP3    H1 6027   4.948   4.605   1.363  0.4453 -0.0995  0.2457
 2007TIP3    H2 6028   5.042   4.722   1.381 -1.4500  1.6166 -0.4768
 2008TIP3   OH2 6029   3.449   5.917   0.328  0.2162  0.1459  0.3953
 2008TIP3    H1 6030   3.384   5.922   0.258  0.7432 -0.5386 -0.1633
 2008TIP3    H2 6031   3.524   5.872   0.288  1.1466  1.1598  0.9419
 2009TIP3   OH2 6032   3.546   0.128   0.755 -0.2345  0.0221 -0.0737
 2009TIP3    H1 6033   3.594   0.054   0.792  0.8670  0.4192 -0.6751
 2009TIP3    H2 6034   3.608   0.201   0.756 -0.3162  0.1792 -2.1778
 2010TIP3   OH2 6035   6.180   2.706   3.966  0.5018 -0.1872 -0.6095
 2010TIP3    H1 6036   6.153   2.782   4.017 -2.4797 -0.9902 -0.8231
 2010TIP3    H2 6037   6.130   2.712   3.884 -2.0430 -3.6434  0.4224
 2011TIP3   OH2 6038   6.300   2.357   4.729 -0.1670 -0.0974 -0.0972
 2011TIP3    H1 6039   6.266   2.365   4.818  3.2087 -0.6682  1.4251
 2011TIP3    H2 6040   6.347   2.273   4.729  0.1835  0.0372 -2.3537
 2012TIP3   OH2 6041   2.506   1.398   3.639 -0.1508  0.3094 -0.4998
 2012TIP3    H1 6042   2.572   1.413   3.571  1.6540  0.7338  1.2551
 2012TIP3    H2 6043   2.557   1.381   3.718 -2.1596 -1.8708  0.4429
 2013TIP3   OH2 6044   5.505   4.973   0.804  0.1138 -0.3618  0.1910
 2013TIP3    H1 6045   5.464   5.056   0.778 -2.5106 -1.1162  1.4896
 2013TIP3    H2 6046   5.491   4.916   0.729  0.4375 -0.1051 -0.0687
 2014TIP3   OH2 6047   5.943   5.994   4.406  0.1655 -0.6593  0.2416
 2014TIP3    H1 6048   5.895   6.026   4.482 -0.7807 -1.9025  0.1944
 2014TIP3    H2 6049   5.921   5.901   4.400  0.2153 -0.5971 -1.5375
 2015TIP3   OH2 6050   5.408   2.694   3.985 -0.0624  0.7810  0.1507
 2015TIP3    H1 6051   5.349   2.755   3.939  0.1471 -0.4432 -1.8505
 2015TIP3    H2 6052   5.475   2.672   3.920  1.5900  0.7375  1.8129
 2016TIP3   OH2 6053   2.190   0.459   3.118 -0.4048 -0.0388  0.1931
 2016TIP3    H1 6054   2.263   0.519   3.134 -3.1833  3.2741  1.7043
 2016TIP3    H2 6055   2.192   0.445   3.023  1.4433  0.9398  0.0235
 2017TIP3   OH2 6056   5.802   3.488   4.289  0.6342  0.0232  0.0711
 2017TIP3    H1 6057   5.776   3.525   4.373  3.3899  0.9824  0.6101
 2017TIP3    H2 6058   5.801   3.563   4.229  0.4441 -0.2807 -0.3079
 2018TIP3   OH2 6059   2.291   2.667   3.163  0.1691  0.1135  0.0212
 2018TIP3    H1 6060   2.256   2.755   3.147  0.1413  0.6379  2.5165
 2018TIP3    H2 6061   2.378   2.684   3.202  0.6860 -1.0050 -0.6256
 2019TIP3   OH2 6062   0.658   2.263   1.757 -0.5229  0.5603  0.3572
 2019TIP3    H1 6063   0.699   2.198   1.700  1.0605  0.8149  1.1531
 2019TIP3    H2 6064   0.665   2.226   1.845 -0.3676  1.4198  0.7160
 2020TIP3   OH2 6065   5.815   5.180   2.394 -0.4130  0.4630  0.2650
 2020TIP3    H1 6066   5.753   5.158   2.464  0.0745 -1.3351  0.1984
 2020TIP3    H2 6067   5.898   5.142   2.424  0.2833  1.4369 -0.3787
 2021TIP3   OH2 6068   0.567   2.170   3.317 -0.3851 -0.3119 -0.4772
 2021TIP3    H1 6069   0.525   2.118   3.249 -1.2723 -1.5250  0.9419
 2021TIP3    H2 6070   0.497   2.225   3.352 -0.4806 -1.3102  0.9467
 2022TIP3   OH2 6071   1.365   3.890   0.856  0.2488 -0.3147 -0.4255
 2022TIP3    H1 6072   1.319   3.860   0.778  1.4980  0.5155 -1.5114
 2022TIP3    H2 6073   1.409   3.812   0.890 -0.1749 -0.6432 -0.6326
 2023TIP3   OH2 6074   3.190   3.416   3.305 -0.9292 -0.3665 -0.1237
 2023TIP3    H1 6075   3.238   3.476   3.363 -1.1789 -0.6478  0.3814
 2023TIP3    H2 6076   3.190   3.333   3.352 -0.4822 -0.7968 -0.8799
 2024TIP3   OH2 6077   1.056   2.440   2.736 -0.5183 -0.5004 -0.3490
 2024TIP3    H1 6078   1.098   2.398   2.661 -1.9532 -0.3922 -1.2346
 2024TIP3    H2 6079   0.966   2.406   2.736 -1.0334  0.7955  0.3031
 2025TIP3   OH2 6080   2.372   2.373   3.045 -0.2651 -0.5509  0.8151
 2025TIP3    H1 6081   2.360   2.462   3.079  1.5364 -1.1095  3.1046
 2025TIP3    H2 6082   2.397   2.321   3.121  0.4672 -2.6748 -0.7856
 2026TIP3   OH2 6083   5.890   0.426   3.140 -0.4309 -0.5877  0.2916
 2026TIP3    H1 6084   5.922   0.341   3.111 -0.9913 -1.3594  1.8207
 2026TIP3    H2 6085   5.856   0.410   3.228  0.2076  1.3902  0.9561
 2027TIP3   OH2 6086   6.127   0.164   0.834  0.2434 -0.3344  0.0491
 2027TIP3    H1 6087   6.152   0.253   0.858 -0.9328 -0.0560  0.2707
 2027TIP3    H2 6088   6.045   0.148   0.880  1.4509 -2.2937  1.7170
 2028TIP3   OH2 6089   1.354   0.345   3.854 -0.2002 -0.5308  0.1294
 2028TIP3    H1 6090   1.414   0.275   3.879  0.4737 -0.2584 -0.6571
 2028TIP3    H2 6091   1.383   0.421   3.905 -0.8209 -0.7777  0.8536
 2029TIP3   OH2 6092   3.352   0.831   4.554  0.7506  0.6586  0.3671
 2029TIP3    H1 6093   3.345   0.873   4.640 -0.0945  2.5866 -0.5724
 2029TIP3    H2 6094   3.270   0.853   4.510  1.6471  0.7167 -1.3452
 2030TIP3   OH2 6095   0.636   0.675   4.970 -1.1950 -0.3215  0.2603
 2030TIP3    H1 6096   0.606   0.736   4.903  0.5400  0.3535  0.0511
 2030TIP3    H2 6097   0.555   0.643   5.011 -2.2054  0.7971 -0.7754
 2031TIP3   OH2 6098   4.214   5.016   4.187  0.3376 -0.4936  0.6838
 2031TIP3    H1 6099   4.185   4.952   4.122  1.7982 -0.8583  0.3788
 2031TIP3    H2 6100   4.142   5.019   4.250 -0.4172 -1.2904 -0.1024
 2032TIP3   OH2 6101   5.404   2.050   3.144 -0.6016  0.0927  0.2397
 2032TIP3    H1 6102   5.454   2.097   3.077  0.3582 -1.8176 -0.4555
 2032TIP3    H2 6103   5.371   2.119   3.202  1.7738  1.5246  0.0090
 2033TIP3   OH2 6104   5.680   2.086   0.005 -0.3165 -0.8388 -0.1264
 2033TIP3    H1 6105   5.592   2.116   0.027  0.3230  0.4992  0.6973
 2033TIP3    H2 6106   5.738   2.151   0.043  1.0154 -1.0414 -1.6881
 2034TIP3   OH2 6107   3.050   5.116   2.356  0.5420 -0.0783  0.0413
 2034TIP3    H1 6108   3.140   5.129   2.387  0.0352  0.7215  1.2118
 2034TIP3    H2 6109   3.007   5.201   2.370 -1.6873 -1.5972  3.8373
 2035TIP3   OH2 6110   4.412   4.783   2.678 -0.1863 -0.0165 -0.0518
 2035TIP3    H1 6111   4.464   4.714   2.720 -0.8037  0.8307  2.2894
 2035TIP3    H2 6112   4.478   4.843   2.642  0.5092  0.3403  1.6866
 2036TIP3   OH2 6113   1.734   0.079   3.074  0.1910 -0.0456  0.3107
 2036TIP3    H1 6114   1.749   0.115   3.161 -0.8457  1.7221 -0.2144
 2036TIP3    H2 6115   1.822   0.062   3.040  0.6053 -1.4555  1.9304
 2037TIP3   OH2 6116   6.178   5.438   3.351  0.1891  0.5252 -0.0982
 2037TIP3    H1 6117   6.177   5.357   3.300  0.2190  0.0436  0.6541
 2037TIP3    H2 6118   6.091   5.475   3.338  0.0137  0.1278 -0.0661
 2038TIP3   OH2 6119   1.978   0.352   0.039 -0.8745 -0.4877 -0.3670
 2038TIP3    H1 6120   1.970   0.436   0.084  0.5528 -0.6592  0.2677
 2038TIP3    H2 6121   1.896   0.343  -0.009 -0.2202  2.2656 -2.2298
 2039TIP3   OH2 6122   1.674   3.542   1.749 -0.4086 -0.6108  0.1149
 2039TIP3    H1 6123   1.694   3.563   1.658  1.3255  0.0712  0.6273
 2039TIP3    H2 6124   1.739   3.477   1.774 -0.8930 -0.8252  0.8742
 2040TIP3   OH2 6125   1.730   3.607   1.490 -0.4021  0.1139  0.0216
 2040TIP3    H1 6126   1.647   3.654   1.477  0.2727  1.1769 -0.5527
 2040TIP3    H2 6127   1.797   3.666   1.457  0.7340 -0.2030  1.6455
 2041TIP3   OH2 6128   1.075   5.144   4.284 -0.4435  0.2389  0.2054
 2041TIP3    H1 6129   1.114   5.109   4.204  1.1056 -0.8735  1.4046
 2041TIP3    H2 6130   1.059   5.067   4.339 -1.8692  0.9397  0.8307
 2042TIP3   OH2 6131   5.699   0.159   4.871  0.2669 -0.4321  0.0966
 2042TIP3    H1 6132   5.770   0.136   4.811  3.2219  1.1296  2.7113
 2042TIP3    H2 6133   5.635   0.089   4.860  1.5238 -1.2435 -3.3665
 2043TIP3   OH2 6134   5.056   2.537   4.853 -0.3151  0.2186  0.2931
 2043TIP3    H1 6135   5.115   2.554   4.927  1.3639  0.3023 -0.9923
 2043TIP3    H2 6136   5.098   2.466   4.805 -1.2136  0.3576 -0.7416
 2044TIP3   OH2 6137   1.316   0.698   3.656  0.6870  0.1245  0.0183
 2044TIP3    H1 6138   1.307   0.792   3.641  0.4666  0.3216  1.2748
 2044TIP3    H2 6139   1.226   0.665   3.647  0.6711  0.1288  0.1610
 2045TIP3   OH2 6140   4.865   1.413   1.043 -0.1755  0.6043  0.1489
 2045TIP3    H1 6141   4.900   1.474   0.978  0.0720  1.1254  0.7574
 2045TIP3    H2 6142   4.888   1.452   1.127 -0.7601  0.0942  0.5541
 2046TIP3   OH2 6143   2.775   4.846   3.284  0.3943 -0.1483 -0.2600
 2046TIP3    H1 6144   2.788   4.939   3.298 -1.6981  0.2470 -0.6514
 2046TIP3    H2 6145   2.809   4.830   3.195 -1.6716  0.8417 -1.2893
 2047TIP3   OH2 6146   0.466   2.917   0.913  0.0401 -0.3580  0.0378
 2047TIP3    H1 6147   0.531   2.873   0.968  0.3924  0.4861  0.3006
 2047TIP3    H2 6148   0.419   2.976   0.972 -0.6151 -0.5616 -0.2603
 2048TIP3   OH2 6149  -0.004   5.717   0.031  0.1331  0.0248 -0.7046
 2048TIP3    H1 6150   0.003   5.672  -0.054 -1.0833 -0.9341 -0.3366
 2048TIP3    H2 6151   0.030   5.654   0.094 -0.3120  0.1564 -0.3268
 2049TIP3   OH2 6152   3.129   2.506   4.192 -0.5372 -0.0432 -0.1622
 2049TIP3    H1 6153   3.095   2.595   4.202  1.8189  0.8334  0.9793
 2049TIP3    H2 6154   3.178   2.508   4.110  1.7780  0.6449  1.1215
 2050TIP3   OH2 6155   0.950   0.821   1.500 -0.0355 -0.1256  0.1656
 2050TIP3    H1 6156   1.001   0.746   1.470  1.6623  1.1328 -0.2662
 2050TIP3    H2 6157   1.008   0.897   1.486 -0.3310  0.9399  3.6218
 2051TIP3   OH2 6158   2.767   4.329   1.772 -0.3003 -0.2552  0.3339
 2051TIP3    H1 6159   2.682   4.320   1.728 -1.1393  2.7641  1.1099
 2051TIP3    H2 6160   2.752   4.394   1.840  2.8112  0.9497  0.0128
 2052TIP3   OH2 6161   5.950   2.273   1.124  0.5661  0.5085  0.3500
 2052TIP3    H1 6162   5.994   2.249   1.206  0.5119 -0.5649  0.0770
 2052TIP3    H2 6163   6.019   2.308   1.069  0.1030  4.4852  1.9966
 2053TIP3   OH2 6164   4.217   4.243   4.572 -0.3710  0.0586 -0.2438
 2053TIP3    H1 6165   4.212   4.330   4.611 -1.3937  0.5353 -1.4025
 2053TIP3    H2 6166   4.166   4.188   4.632 -1.1868  0.6048 -0.4196
 2054TIP3   OH2 6167   3.186   0.391   4.051  0.0235 -0.0562  0.1503
 2054TIP3    H1 6168   3.172   0.428   3.964 -1.1908  0.8228  0.6896
 2054TIP3    H2 6169   3.183   0.466   4.110  2.0640 -0.4805  0.8602
 2055TIP3   OH2 6170   6.193   4.140   0.466 -0.4809 -0.1772  1.0735
 2055TIP3    H1 6171   6.174   4.220   0.514  2.3136  1.2703 -0.0047
 2055TIP3    H2 6172   6.268   4.102   0.512 -1.4618 -1.9383  1.2750
 2056TIP3   OH2 6173   5.820   2.747   0.861  0.6557  0.4262 -0.7353
 2056TIP3    H1 6174   5.738   2.791   0.838  0.3612 -0.0401 -0.5957
 2056TIP3    H2 6175   5.804   2.655   0.841  0.7465  0.1652  0.3402
 2057TIP3   OH2 6176   1.414   0.270   2.182 -0.2263 -0.3352  0.2748
 2057TIP3    H1 6177   1.508   0.273   2.204  0.1080 -1.3928 -0.8954
 2057TIP3    H2 6178   1.404   0.188   2.134 -1.5792  0.2485 -0.4702
 2058TIP3   OH2 6179   1.495   1.236   1.947 -0.3428  0.1323 -0.4884
 2058TIP3    H1 6180   1.552   1.197   2.014 -0.2518 -0.7490 -1.0711
 2058TIP3    H2 6181   1.469   1.321   1.985 -0.3353 -0.3664  0.6850
 2059TIP3   OH2 6182   4.680   2.790   0.036 -0.0662 -0.2953 -0.3782
 2059TIP3    H1 6183   4.634   2.776   0.118 -0.1097  1.0854 -0.1577
 2059TIP3    H2 6184   4.612   2.785  -0.031 -0.0322 -1.4109 -0.3542
 2060TIP3   OH2 6185   5.904   2.347  -0.029  0.6146  0.0453 -0.2172
 2060TIP3    H1 6186   5.887   2.407   0.043  1.2025  0.2131 -0.2123
 2060TIP3    H2 6187   5.959   2.279   0.009  2.1347  0.8764 -0.8145
 2061TIP3   OH2 6188   2.805   2.063   1.667  0.7846  0.0833  0.2964
 2061TIP3    H1 6189   2.774   2.083   1.579  1.1399 -1.7228 -0.2689
 2061TIP3    H2 6190   2.891   2.106   1.673  0.7354  0.2556 -0.2019
 2062TIP3   OH2 6191   0.207   3.183   0.494  0.0839 -1.0574 -0.2498
 2062TIP3    H1 6192   0.171   3.236   0.565  1.4211  1.2263 -1.1775
 2062TIP3    H2 6193   0.136   3.176   0.430 -0.0693 -0.2406 -0.1750
 2063TIP3   OH2 6194   3.023   4.483   2.124 -0.0621  0.0283  0.4637
 2063TIP3    H1 6195   3.082   4.515   2.056  0.5094 -1.5429  0.1764
 2063TIP3    H2 6196   3.050   4.530   2.203 -0.0475  1.1017 -0.1632
 2064TIP3   OH2 6197   4.806   1.386   1.891  0.1238 -0.3679 -0.3392
 2064TIP3    H1 6198   4.887   1.365   1.845  1.2474  3.6665 -0.5509
 2064TIP3    H2 6199   4.832   1.393   1.983 -0.7346 -2.0553  0.0762
 2065TIP3   OH2 6200   4.914   2.346   3.772 -0.3251  0.0450 -0.0300
 2065TIP3    H1 6201   4.856   2.400   3.826 -0.3919 -0.6858  0.6365
 2065TIP3    H2 6202   4.856   2.306   3.708 -0.6097 -0.8723  0.7845
 2066TIP3   OH2 6203   1.532   1.505   0.071  0.9076  0.1827  0.0219
 2066TIP3    H1 6204   1.465   1.568   0.098 -1.0090 -2.3645  1.6984
 2066TIP3    H2 6205   1.483   1.435   0.027  2.3090 -1.9620  1.6189
 2067TIP3   OH2 6206   0.143   2.752   1.064  0.1571 -0.3756  0.2158
 2067TIP3    H1 6207   0.193   2.774   1.143  0.8203  2.1376 -0.8043
 2067TIP3    H2 6208   0.198   2.690   1.017 -0.6558 -2.6476  2.0727
 2068TIP3   OH2 6209   5.850   3.294   3.202 -0.0462 -0.4229 -0.1948
 2068TIP3    H1 6210   5.755   3.288   3.209 -0.2123 -1.5455 -2.6400
 2068TIP3    H2 6211   5.866   3.356   3.131  1.0520 -0.5063 -0.0453
 2069TIP3   OH2 6212   3.150   2.708   3.098  0.1437  0.2259  0.1772
 2069TIP3    H1 6213   3.089   2.669   3.036  0.1398 -0.1263  0.3994
 2069TIP3    H2 6214   3.212   2.639   3.118  0.2377  0.3843  0.4424
 2070TIP3   OH2 6215   0.356   5.740   2.433  0.0574  0.2343 -0.1627
 2070TIP3    H1 6216   0.280   5.788   2.402 -0.8556 -1.0510  0.0266
 2070TIP3    H2 6217   0.419   5.746   2.361 -0.8830 -0.1453 -1.0374
 2071TIP3   OH2 6218   3.042   5.324   3.104 -0.6236  0.6827  0.5797
 2071TIP3    H1 6219   3.127   5.359   3.077 -0.8585  1.0789  0.3349
 2071TIP3    H2 6220   3.052   5.302   3.196 -0.3881  1.1618  0.6712
 2072TIP3   OH2 6221   5.208   5.265   1.989  0.1546 -0.3091  0.3249
 2072TIP3    H1 6222   5.170   5.333   1.933 -0.7541 -0.3175  0.9206
 2072TIP3    H2 6223   5.301   5.286   1.992 -0.0058  0.4924 -0.0688
 2073TIP3   OH2 6224   5.285   0.006   4.161 -0.4427 -0.5584 -0.1495
 2073TIP3    H1 6225   5.365  -0.020   4.208 -0.6346  0.2746  0.6693
 2073TIP3    H2 6226   5.226   0.036   4.230 -0.9491  0.1518 -0.8833
 2074TIP3   OH2 6227   1.237   1.530   0.201  0.4694 -0.2934 -0.6783
 2074TIP3    H1 6228   1.170   1.495   0.261  1.8060 -2.3763 -0.2776
 2074TIP3    H2 6229   1.206   1.506   0.114 -0.2243  0.4697 -0.6540
 2075TIP3   OH2 6230   4.172   0.872   0.166 -0.5366  0.8784 -0.4213
 2075TIP3    H1 6231   4.266   0.857   0.180 -0.8468 -0.6295  0.3467
 2075TIP3    H2 6232   4.138   0.786   0.141 -1.8876  1.1437  0.4230
 2076TIP3   OH2 6233   3.566   4.349   3.915 -0.1088  0.6488  0.3595
 2076TIP3    H1 6234   3.521   4.341   3.831  0.7232  0.2406 -0.0602
 2076TIP3    H2 6235   3.516   4.292   3.974  1.5122 -2.1579 -0.8241
 2077TIP3   OH2 6236   2.010   0.241   4.530 -0.1379  0.2740 -0.3461
 2077TIP3    H1 6237   2.105   0.241   4.542 -0.3339 -0.5544  1.4526
 2077TIP3    H2 6238   1.992   0.321   4.479  1.5142  0.3427 -0.8597
 2078TIP3   OH2 6239   5.166   0.872   3.098 -0.5214  0.0611 -0.0465
 2078TIP3    H1 6240   5.091   0.932   3.104  0.0554  1.0192 -1.6899
 2078TIP3    H2 6241   5.128   0.787   3.079 -1.2712  0.2241  0.6911
 2079TIP3   OH2 6242   2.346   1.712   1.770 -0.2581  0.7015 -0.5906
 2079TIP3    H1 6243   2.315   1.800   1.749 -0.7079  0.3188 -1.6228
 2079TIP3    H2 6244   2.330   1.661   1.690  0.6227 -0.1522 -0.2473
 2080TIP3   OH2 6245   0.886   2.166   1.214  0.2320  0.1351 -0.4272
 2080TIP3    H1 6246   0.799   2.189   1.248  0.3286 -0.9756  0.6633
 2080TIP3    H2 6247   0.880   2.072   1.197  1.2157  0.0541 -0.3438
 2081TIP3   OH2 6248   4.766   2.090   2.334 -0.0032 -0.0069  0.5571
 2081TIP3    H1 6249   4.695   2.025   2.330  0.8678 -0.9430 -0.4111
 2081TIP3    H2 6250   4.771   2.124   2.245  1.4655 -0.7636  0.3163
 2082TIP3   OH2 6251   1.189   2.206   3.361 -0.6829 -0.0920  0.2421
 2082TIP3    H1 6252   1.123   2.236   3.424 -0.4672 -0.6034  0.7206
 2082TIP3    H2 6253   1.212   2.118   3.391  2.2685  1.0798  1.7723
 2083TIP3   OH2 6254   2.545   2.488   4.767  0.4639 -0.6427 -0.0393
 2083TIP3    H1 6255   2.588   2.515   4.686  0.9597 -1.8713 -0.2170
 2083TIP3    H2 6256   2.525   2.395   4.753  1.6181 -1.1936  1.6802
 2084TIP3   OH2 6257   3.956   5.412   3.714 -0.4124 -0.3085 -0.3148
 2084TIP3    H1 6258   4.047   5.431   3.739  0.1371 -1.3481 -1.4118
 2084TIP3    H2 6259   3.962   5.376   3.626 -2.0092  0.5140 -0.7964
 2085TIP3   OH2 6260   1.284   5.429   4.112  0.6336 -0.0277 -0.1411
 2085TIP3    H1 6261   1.340   5.377   4.169  0.8598  2.1891  1.8380
 2085TIP3    H2 6262   1.283   5.382   4.029  1.0050 -2.9576  1.4045
 2086TIP3   OH2 6263   3.233   2.305   2.305  0.0409 -0.1995  0.0623
 2086TIP3    H1 6264   3.303   2.254   2.266 -0.8512  0.0466 -2.0507
 2086TIP3    H2 6265   3.155   2.250   2.297 -0.3613  0.2828  0.5508
 2087TIP3   OH2 6266   4.018   0.127   0.113 -0.0613  1.0998 -0.1488
 2087TIP3    H1 6267   4.084   0.110   0.181  2.3133  1.6461 -2.1667
 2087TIP3    H2 6268   4.021   0.049   0.057 -0.9194  1.2681 -0.4340
 2088TIP3   OH2 6269   3.496   1.862   4.050  0.2978 -0.2628 -0.1168
 2088TIP3    H1 6270   3.585   1.833   4.032 -0.4471 -3.7766  1.0270
 2088TIP3    H2 6271   3.487   1.854   4.145 -1.1455  0.2748 -0.1846
 2089TIP3   OH2 6272   3.464   0.977   0.599  0.2278 -0.0434  0.0994
 2089TIP3    H1 6273   3.479   0.954   0.691  1.6234 -1.3912 -0.4067
 2089TIP3    H2 6274   3.548   1.013   0.569  0.1663 -0.6919 -0.9180
 2090TIP3   OH2 6275   4.775   1.611   4.112  0.0173 -0.4455  0.6850
 2090TIP3    H1 6276   4.754   1.631   4.021 -0.9605 -0.1919  0.9610
 2090TIP3    H2 6277   4.702   1.558   4.143 -0.5829  0.9940  1.8513
 2091TIP3   OH2 6278   3.864   2.036   0.117  0.5525  0.2886  0.0380
 2091TIP3    H1 6279   3.937   2.089   0.084  1.4255 -1.2233 -0.6112
 2091TIP3    H2 6280   3.904   1.951   0.137 -1.1857 -0.9255 -1.3167
 2092TIP3   OH2 6281   5.146   2.454   4.460  0.4958  0.0888 -0.0002
 2092TIP3    H1 6282   5.165   2.540   4.496  2.2953 -0.6599  0.9357
 2092TIP3    H2 6283   5.222   2.432   4.407 -0.3277 -0.5689 -0.9414
 2093TIP3   OH2 6284   3.930   1.882   2.884  0.0950 -0.4168  0.1475
 2093TIP3    H1 6285   3.849   1.832   2.883 -0.2026  0.0481  0.7787
 2093TIP3    H2 6286   3.967   1.868   2.797 -1.0040 -0.0783 -0.3960
 2094TIP3   OH2 6287   1.721   1.423   0.578 -0.1027  0.3287 -0.1269
 2094TIP3    H1 6288   1.775   1.448   0.502 -0.3292  0.3635 -0.2781
 2094TIP3    H2 6289   1.698   1.332   0.562  0.3947  0.1346  0.2300
 2095TIP3   OH2 6290   2.782   2.516   4.895  0.0314 -0.1545 -0.4089
 2095TIP3    H1 6291   2.800   2.584   4.960 -1.4756  0.4386 -0.5786
 2095TIP3    H2 6292   2.694   2.535   4.864 -1.3798 -3.4841  1.1226
 2096TIP3   OH2 6293   3.555   5.630  -0.003 -0.0266  0.4425 -0.0920
 2096TIP3    H1 6294   3.562   5.679   0.078 -2.9823 -1.1251  1.2824
 2096TIP3    H2 6295   3.493   5.680  -0.056  0.0878  0.2576 -0.4069
 2097TIP3   OH2 6296   1.630   3.733   2.003  0.0095  0.2974 -0.1572
 2097TIP3    H1 6297   1.674   3.673   1.943  0.8252 -0.3044  1.0048
 2097TIP3    H2 6298   1.701   3.771   2.055 -0.7744 -3.1837  4.1196
 2098TIP3   OH2 6299   4.856   0.980   2.266  1.0735  0.2347  0.0296
 2098TIP3    H1 6300   4.811   0.902   2.233 -0.5761  1.1655 -0.0175
 2098TIP3    H2 6301   4.875   1.032   2.189  2.0706 -0.0373  0.0732
 2099TIP3   OH2 6302   3.672   4.476   2.508  0.3051 -0.1907 -0.0025
 2099TIP3    H1 6303   3.603   4.522   2.556  0.5040  0.6336 -0.4942
 2099TIP3    H2 6304   3.652   4.383   2.522 -0.5949  0.0336  0.3039
 2100TIP3   OH2 6305   5.183   2.474   1.271 -0.7090 -0.8030 -0.0941
 2100TIP3    H1 6306   5.257   2.421   1.240  0.0330  0.3494 -0.3460
 2100TIP3    H2 6307   5.128   2.412   1.318  1.3747 -1.3737  1.7812
 2101TIP3   OH2 6308   0.525   3.003   2.917  0.0838 -0.3622 -0.1524
 2101TIP3    H1 6309   0.541   2.909   2.928  2.9849 -0.2291 -2.3019
 2101TIP3    H2 6310   0.596   3.045   2.966  1.1435  0.5384 -2.3183
 2102TIP3   OH2 6311   4.363   0.140   3.405  0.3648 -0.0785 -0.1708
 2102TIP3    H1 6312   4.370   0.218   3.461 -1.3162  1.0061 -1.3641
 2102TIP3    H2 6313   4.420   0.159   3.331  2.2701 -1.3345  0.9138
 2103TIP3   OH2 6314   1.334   2.371   2.075  0.5599  0.6204  0.0172
 2103TIP3    H1 6315   1.405   2.419   2.033 -1.2556  2.0196 -1.6261
 2103TIP3    H2 6316   1.263   2.373   2.012 -0.4928 -2.0633  0.9755
 2104TIP3   OH2 6317   0.411   1.812   1.032 -0.3659  0.4212  0.0822
 2104TIP3    H1 6318   0.342   1.867   1.071 -0.5542  0.1941  0.0710
 2104TIP3    H2 6319   0.380   1.722   1.045 -0.1953  0.3277 -0.1564
 2105TIP3   OH2 6320   2.413   4.922   1.442 -0.0843  0.6485  0.2789
 2105TIP3    H1 6321   2.324   4.939   1.475 -0.4269  1.3083 -0.9160
 2105TIP3    H2 6322   2.422   4.827   1.445 -1.5909  0.4093 -1.3995
 2106TIP3   OH2 6323   0.915   2.935   1.384 -0.1819 -0.2655  0.4493
 2106TIP3    H1 6324   0.913   2.841   1.401 -0.9793 -0.1146  1.2436
 2106TIP3    H2 6325   0.969   2.943   1.305 -0.4150 -1.4198  0.1481
 2107TIP3   OH2 6326   3.407   1.274   5.018  0.2042  0.1182  0.1120
 2107TIP3    H1 6327   3.448   1.278   5.104 -0.9627 -0.1199  0.7112
 2107TIP3    H2 6328   3.462   1.327   4.961  0.1275  1.6179  1.3851
 2108TIP3   OH2 6329   5.534   4.680   1.198 -0.8816  0.5184  0.2842
 2108TIP3    H1 6330   5.484   4.626   1.137  0.9488 -1.2343  0.2165
 2108TIP3    H2 6331   5.625   4.654   1.184 -0.3049  0.6397  3.1713
 2109TIP3   OH2 6332   1.079   5.909   1.907 -0.2236 -0.4180 -0.3489
 2109TIP3    H1 6333   1.027   5.832   1.931  1.2672 -0.8699  1.6789
 2109TIP3    H2 6334   1.032   5.983   1.947 -1.5358 -0.2379 -2.1119
 2110TIP3   OH2 6335   6.054   3.176   0.475  0.2435  0.5015  0.0429
 2110TIP3    H1 6336   6.037   3.227   0.396  1.4261  0.2216 -0.4030
 2110TIP3    H2 6337   6.029   3.234   0.547 -2.2106  0.2660 -0.5049
 2111TIP3   OH2 6338   5.325   2.405   2.721  0.1894  0.4627  0.0543
 2111TIP3    H1 6339   5.403   2.446   2.759 -0.7152  2.7914 -0.3919
 2111TIP3    H2 6340   5.257   2.418   2.787 -0.1589 -0.2608 -0.1546
 2112TIP3   OH2 6341   5.561   0.425   2.914  0.0113  0.6113  0.0750
 2112TIP3    H1 6342   5.494   0.493   2.920  1.6621  2.1844  2.1151
 2112TIP3    H2 6343   5.638   0.470   2.880  0.4839 -0.8131 -0.8165
 2113TIP3   OH2 6344   3.748   0.299   3.118 -0.5867  0.3144 -0.4431
 2113TIP3    H1 6345   3.821   0.351   3.082 -0.1914  0.2224  0.2014
 2113TIP3    H2 6346   3.676   0.362   3.127 -0.3445  0.5863 -0.3737
 2114TIP3   OH2 6347   0.632   3.678   3.964 -0.2781 -0.1284  0.8966
 2114TIP3    H1 6348   0.706   3.720   4.009 -1.4486  1.1964  1.6650
 2114TIP3    H2 6349   0.579   3.751   3.932 -0.0973 -1.0253 -1.6855
 2115TIP3   OH2 6350   4.347   3.836   0.226  0.2421 -0.0523 -0.6344
 2115TIP3    H1 6351   4.427   3.887   0.236 -0.4107  0.5995  2.2493
 2115TIP3    H2 6352   4.353   3.769   0.294 -1.5237 -0.1008 -0.4751
 2116TIP3   OH2 6353   5.512   3.578   3.330  0.7182 -0.2476  0.1738
 2116TIP3    H1 6354   5.575   3.511   3.354  0.8939  0.5015  1.9735
 2116TIP3    H2 6355   5.427   3.541   3.353  0.2979 -1.6053 -3.0435
 2117TIP3   OH2 6356   2.319   1.830   1.416 -0.2272  0.7512 -0.4930
 2117TIP3    H1 6357   2.231   1.835   1.451  0.3794  0.2101  1.1975
 2117TIP3    H2 6358   2.318   1.751   1.360 -0.7193  0.5631 -0.2192
 2118TIP3   OH2 6359   0.360   4.453   3.018 -0.6946 -0.2796  0.2708
 2118TIP3    H1 6360   0.372   4.505   2.938 -0.7860  2.1890  1.7737
 2118TIP3    H2 6361   0.426   4.385   3.011  2.2837  2.3969 -0.0054
 2119TIP3   OH2 6362   4.553   2.507   0.317  0.2061 -0.0804  0.1623
 2119TIP3    H1 6363   4.533   2.523   0.225  0.5720  0.3347  0.1487
 2119TIP3    H2 6364   4.532   2.590   0.361  1.4011  0.2141  0.2192
 2120TIP3   OH2 6365   0.612   2.224   2.038  0.3849 -0.2445 -0.1187
 2120TIP3    H1 6366   0.527   2.182   2.023  0.4689 -0.7483  0.7357
 2120TIP3    H2 6367   0.595   2.317   2.022  0.7106 -0.7401 -4.1781
 2121TIP3   OH2 6368   6.086   3.563   1.831 -0.2900 -0.0214  0.0359
 2121TIP3    H1 6369   6.147   3.574   1.757 -0.8397 -0.3052 -0.4678
 2121TIP3    H2 6370   6.129   3.608   1.904  1.0045 -1.0421 -0.0440
 2122TIP3   OH2 6371   2.932   2.330   0.809  0.7742  0.1420 -0.3787
 2122TIP3    H1 6372   2.863   2.317   0.874  1.2109  1.6029  0.4205
 2122TIP3    H2 6373   2.893   2.300   0.726  0.3967 -2.2697  0.5948
 2123TIP3   OH2 6374   0.959   3.037   4.355  0.4077 -0.3426 -0.3820
 2123TIP3    H1 6375   0.865   3.025   4.345  0.3172 -0.1074  0.1926
 2123TIP3    H2 6376   0.989   3.065   4.268 -0.4708  2.3459  0.0998
 2124TIP3   OH2 6377   4.908   3.085   3.189 -0.2065 -0.3705  0.5885
 2124TIP3    H1 6378   4.889   3.166   3.142 -2.7555 -1.6460 -0.7912
 2124TIP3    H2 6379   4.833   3.075   3.248  0.1595 -1.6325  0.8523
 2125TIP3   OH2 6380   2.026   2.021   3.233  0.2917 -0.3293 -0.0029
 2125TIP3    H1 6381   1.953   2.082   3.230 -0.8184 -1.6050  0.1156
 2125TIP3    H2 6382   1.993   1.947   3.284  1.7029 -0.8887  0.1382
 2126TIP3   OH2 6383   0.223   1.161   0.100 -0.5859  0.8156  0.1239
 2126TIP3    H1 6384   0.275   1.144   0.021  1.6383  1.0682  1.4321
 2126TIP3    H2 6385   0.265   1.107   0.168 -2.2426  0.8352  1.2109
 2127TIP3   OH2 6386   0.260   0.929   2.263 -0.3398  0.1126 -0.1305
 2127TIP3    H1 6387   0.276   0.854   2.320 -2.8595 -0.9817 -0.7145
 2127TIP3    H2 6388   0.347   0.961   2.239  0.8227 -2.6503  0.1127
 2128TIP3   OH2 6389   3.084   5.066   2.963 -0.0032  0.1482 -0.3962
 2128TIP3    H1 6390   3.017   5.015   3.007 -0.1874  0.3389 -0.4530
 2128TIP3    H2 6391   3.082   5.151   3.006 -0.5521  0.5120 -1.1163
 2129TIP3   OH2 6392   1.366   3.829   2.058 -0.1069  0.1307 -0.5275
 2129TIP3    H1 6393   1.408   3.749   2.026  0.0278 -1.8875  3.9241
 2129TIP3    H2 6394   1.435   3.895   2.056  0.2520 -0.2217 -2.6617
 2130TIP3   OH2 6395   0.300   4.408   4.788  0.0505 -0.4061  0.2041
 2130TIP3    H1 6396   0.303   4.442   4.699 -3.0433  0.3192  0.2708
 2130TIP3    H2 6397   0.245   4.330   4.781 -0.8581  0.0821  1.5584
 2131TIP3   OH2 6398   4.608   3.978   0.226  0.0887  0.2903 -0.0283
 2131TIP3    H1 6399   4.605   4.024   0.310 -2.6726 -0.6643  0.4950
 2131TIP3    H2 6400   4.702   3.968   0.208  0.7832  1.0344  2.6397
 2132TIP3   OH2 6401   0.066   3.558   1.775  0.6603 -0.3004 -0.4064
 2132TIP3    H1 6402   0.091   3.481   1.725 -3.5569 -0.6229 -2.4485
 2132TIP3    H2 6403   0.044   3.524   1.862 -1.0625 -1.5326 -1.2497
 2133TIP3   OH2 6404   4.480   0.460   3.300 -0.3243  0.1431  0.0387
 2133TIP3    H1 6405   4.518   0.492   3.217 -1.4305 -2.8214 -1.7920
 2133TIP3    H2 6406   4.536   0.386   3.324 -2.0004 -1.1718  0.0224
 2134TIP3   OH2 6407   5.781   2.771   4.340 -0.1353  0.5480 -0.1959
 2134TIP3    H1 6408   5.788   2.736   4.429  0.0625 -0.2842 -0.5347
 2134TIP3    H2 6409   5.859   2.738   4.295  0.2032  1.6524 -0.4568
 2135TIP3   OH2 6410   4.057   2.428   0.540  0.0741 -0.2761 -0.7117
 2135TIP3    H1 6411   4.102   2.429   0.625 -2.3236 -0.4346  0.6409
 2135TIP3    H2 6412   4.070   2.340   0.507 -0.3413 -0.7308  0.3004
 2136TIP3   OH2 6413   4.432   2.105   3.669 -0.7802 -1.0101 -0.5853
 2136TIP3    H1 6414   4.410   2.012   3.663 -1.9538 -0.6801 -1.8516
 2136TIP3    H2 6415   4.436   2.135   3.578  0.3140  0.0358 -0.2323
 2137TIP3   OH2 6416   2.592   5.597   4.975  0.3917 -0.4398 -0.1961
 2137TIP3    H1 6417   2.593   5.547   5.056  0.5368 -0.4874 -0.2261
 2137TIP3    H2 6418   2.601   5.688   5.003  1.4206 -0.5228 -0.2012
 2138TIP3   OH2 6419   5.283   1.650   0.342 -0.4994  0.5140  0.1947
 2138TIP3    H1 6420   5.304   1.743   0.345 -0.5756  0.5149  0.8361
 2138TIP3    H2 6421   5.191   1.646   0.318 -0.3230  0.5745 -0.5303
 2139TIP3   OH2 6422   1.519   0.655   3.380  0.3378  0.7787  0.1746
 2139TIP3    H1 6423   1.465   0.624   3.452 -0.7137  0.9289 -0.5201
 2139TIP3    H2 6424   1.458   0.702   3.323  0.6880 -1.0699 -1.8497
 2140TIP3   OH2 6425   0.574   2.582   3.179 -0.0938  0.3184 -0.2484
 2140TIP3    H1 6426   0.632   2.525   3.128 -0.9625 -0.9783  0.1596
 2140TIP3    H2 6427   0.587   2.554   3.270 -2.5592 -1.2014 -0.2840
 2141TIP3   OH2 6428   0.135   5.964   1.983  0.0780 -0.2909 -0.3862
 2141TIP3    H1 6429   0.042   5.967   1.958  0.4121  1.2386 -1.5805
 2141TIP3    H2 6430   0.182   5.988   1.903  1.5135 -0.9559  0.2285
 2142TIP3   OH2 6431   4.829   5.153   1.790  0.1248  0.0584  0.4378
 2142TIP3    H1 6432   4.839   5.068   1.833 -2.1433 -1.0730 -1.0687
 2142TIP3    H2 6433   4.825   5.132   1.697  1.1014  2.0210 -0.0921
 2143TIP3   OH2 6434   2.085   2.775   1.075  0.0247 -0.1847  0.2393
 2143TIP3    H1 6435   2.120   2.723   1.003  1.3246  0.4863  0.3398
 2143TIP3    H2 6436   1.990   2.771   1.065  0.1659  0.4582 -1.9440
 2144TIP3   OH2 6437   1.088   4.159   2.673  0.1544  0.2582  0.3997
 2144TIP3    H1 6438   1.094   4.116   2.758  1.5976 -0.4626 -0.0456
 2144TIP3    H2 6439   1.003   4.133   2.639 -0.0074 -0.2671  1.1863
 2145TIP3   OH2 6440   5.241   0.085   0.534 -0.0188  0.1848 -0.5477
 2145TIP3    H1 6441   5.278  -0.003   0.521 -2.6694 -0.8526 -1.7176
 2145TIP3    H2 6442   5.204   0.108   0.449 -0.8679  1.7008  0.1994
 2146TIP3   OH2 6443   0.207   0.704   3.066  0.3643 -0.1014  0.2212
 2146TIP3    H1 6444   0.276   0.757   3.026  0.2176 -1.3236 -1.7883
 2146TIP3    H2 6445   0.196   0.630   3.006 -1.6618 -0.7218  1.2756
 2147TIP3   OH2 6446   3.186   2.686   0.444  0.2187  0.4077 -0.0578
 2147TIP3    H1 6447   3.152   2.737   0.370  3.6167 -1.2670 -3.1089
 2147TIP3    H2 6448   3.107   2.650   0.485 -1.9294  1.3668 -2.9454
 2148TIP3   OH2 6449   2.029   1.638   2.952 -0.2459  0.3358 -0.5442
 2148TIP3    H1 6450   2.030   1.550   2.991 -1.4612  0.4153 -0.2997
 2148TIP3    H2 6451   2.100   1.636   2.888 -0.8959 -1.1853 -1.2897
 2149TIP3   OH2 6452   0.101   4.604   4.899  0.6906  0.3457 -0.2355
 2149TIP3    H1 6453   0.011   4.638   4.897  0.8255  0.7460  0.2969
 2149TIP3    H2 6454   0.091   4.511   4.880  0.2699  0.5850 -1.2796
 2150TIP3   OH2 6455   2.130   3.792   3.308 -0.0238 -0.6614 -0.5924
 2150TIP3    H1 6456   2.168   3.742   3.380 -1.1556  0.8537  1.1325
 2150TIP3    H2 6457   2.172   3.878   3.314 -0.5968 -0.3192 -1.3405
 2151TIP3   OH2 6458   4.164   2.496   3.717  0.1776  0.8827  0.1373
 2151TIP3    H1 6459   4.238   2.452   3.759 -1.2298  0.4213  2.3121
 2151TIP3    H2 6460   4.166   2.585   3.752 -1.3233  0.3454  1.7236
 2152TIP3   OH2 6461   5.737   1.037   2.222 -0.2242 -0.0325  0.3410
 2152TIP3    H1 6462   5.704   0.981   2.152 -0.7695  0.3620  0.2744
 2152TIP3    H2 6463   5.668   1.102   2.235  0.3924  0.6183  0.4279
 2153TIP3   OH2 6464   3.031   1.540   0.251 -0.0837  0.0877 -0.1605
 2153TIP3    H1 6465   3.033   1.617   0.195 -0.5344  0.2496  0.0379
 2153TIP3    H2 6466   2.943   1.541   0.290  0.0021 -0.3714  0.0558
 2154TIP3   OH2 6467   4.334   2.510   4.652  0.1372  0.3991  0.0189
 2154TIP3    H1 6468   4.334   2.426   4.607 -0.4982  0.3921  0.0200
 2154TIP3    H2 6469   4.260   2.504   4.713 -0.0291  1.0309 -0.1196
 2155TIP3   OH2 6470   4.501   4.997   1.257  0.1252  0.0516 -0.3487
 2155TIP3    H1 6471   4.459   5.065   1.205 -0.6879  0.2978  0.5853
 2155TIP3    H2 6472   4.559   4.952   1.196  0.8514  1.7073 -0.9601
 2156TIP3   OH2 6473   2.249   0.085   2.542 -0.6010 -0.2023  0.9263
 2156TIP3    H1 6474   2.305   0.100   2.466 -1.2030  1.9242  0.8221
 2156TIP3    H2 6475   2.309   0.068   2.614  0.3018  2.5470  0.9339
 2157TIP3   OH2 6476   3.207   2.021   5.106 -0.4319  0.3532 -0.3549
 2157TIP3    H1 6477   3.198   2.103   5.058  0.0266 -0.1377 -1.3084
 2157TIP3    H2 6478   3.269   1.970   5.055 -0.7614 -0.6206  0.1884
 2158TIP3   OH2 6479   2.998   2.586   3.815  0.3899 -0.2649  0.3035
 2158TIP3    H1 6480   3.069   2.573   3.752  0.9787 -0.7133  1.0518
 2158TIP3    H2 6481   2.945   2.506   3.808  0.8928 -0.6554  0.9316
 2159TIP3   OH2 6482   1.971   1.457   3.674 -0.2137 -0.3478 -0.2980
 2159TIP3    H1 6483   2.010   1.503   3.599  0.5566  0.6447  0.6754
 2159TIP3    H2 6484   1.933   1.527   3.727  0.5225 -0.8773  0.9604
 2160TIP3   OH2 6485   2.967   1.568   2.792 -0.0243  0.3317 -0.2803
 2160TIP3    H1 6486   2.962   1.661   2.811 -2.9010  0.6253 -1.8621
 2160TIP3    H2 6487   2.925   1.526   2.867  0.3746  0.3687 -0.0320
 2161TIP3   OH2 6488   2.497   1.860   2.470  0.8129  0.0350 -0.4984
 2161TIP3    H1 6489   2.484   1.930   2.535  1.5851 -1.4447  1.3495
 2161TIP3    H2 6490   2.472   1.780   2.516 -0.6260 -0.9175 -2.7501
 2162TIP3   OH2 6491   4.060   1.983   1.091  0.0095 -0.0215  0.6074
 2162TIP3    H1 6492   4.008   2.063   1.094 -1.1844 -0.6910 -0.8531
 2162TIP3    H2 6493   4.117   1.994   1.014  1.3010  0.2443  1.5667
 2163TIP3   OH2 6494   0.886   1.411   3.646 -0.3772 -0.5551 -0.1064
 2163TIP3    H1 6495   0.968   1.362   3.652 -0.2452 -0.4013 -0.5811
 2163TIP3    H2 6496   0.819   1.345   3.631 -0.3948 -0.7158  0.6430
 2164TIP3   OH2 6497   3.084   1.586   1.901  0.2100  0.6690 -0.2193
 2164TIP3    H1 6498   3.085   1.681   1.892  0.6646  0.7157  0.3314
 2164TIP3    H2 6499   3.036   1.570   1.982  0.7244  0.4582  0.0469
 2165TIP3   OH2 6500   1.336   3.595   0.138  0.3129 -0.4349 -0.2666
 2165TIP3    H1 6501   1.351   3.678   0.183  1.5543 -1.7882  2.0456
 2165TIP3    H2 6502   1.398   3.595   0.066  0.5571  0.4948 -0.0687
 2166TIP3   OH2 6503   1.628   4.345   4.916 -0.6097  0.0460  0.5996
 2166TIP3    H1 6504   1.606   4.434   4.888 -1.9493  0.7267  3.4191
 2166TIP3    H2 6505   1.710   4.354   4.964  0.2888 -0.6272 -0.7642
 2167TIP3   OH2 6506   0.541   0.881   2.418 -0.0813  0.0464  0.2328
 2167TIP3    H1 6507   0.494   0.962   2.399 -1.2859 -0.9063 -1.0824
 2167TIP3    H2 6508   0.633   0.902   2.401 -0.5506  0.7025 -1.8071
 2168TIP3   OH2 6509   2.765   5.737   3.857  0.0722 -0.4863  0.1763
 2168TIP3    H1 6510   2.710   5.811   3.832  0.3726 -0.6774 -1.1201
 2168TIP3    H2 6511   2.846   5.778   3.889  0.4149 -0.2314 -0.9570
 2169TIP3   OH2 6512   5.141   5.853   2.043  0.5953 -0.1270  0.0152
 2169TIP3    H1 6513   5.178   5.766   2.023  2.5730  1.0870 -2.1628
 2169TIP3    H2 6514   5.203   5.891   2.106  0.5814  0.2621 -0.2048
 2170TIP3   OH2 6515   2.190   5.804   3.377  0.0629 -0.3070 -0.5605
 2170TIP3    H1 6516   2.111   5.781   3.329  0.0168  0.7717 -1.0380
 2170TIP3    H2 6517   2.192   5.900   3.376  1.8857 -0.2961 -1.4537
 2171TIP3   OH2 6518   3.952   3.268   4.375  0.3045  0.2835  0.0389
 2171TIP3    H1 6519   3.944   3.356   4.338  2.2386  0.5362  0.1066
 2171TIP3    H2 6520   3.993   3.281   4.461  0.3446 -0.6608  0.1798
 2172TIP3   OH2 6521   2.892   4.215   2.759  0.0850 -0.6755 -0.4918
 2172TIP3    H1 6522   2.933   4.287   2.711  1.0059 -0.0991  1.0975
 2172TIP3    H2 6523   2.800   4.242   2.765  0.0405 -0.5395 -1.4949
 2173TIP3   OH2 6524   3.158   1.667   2.992 -0.2540  0.5019 -0.9135
 2173TIP3    H1 6525   3.137   1.601   2.926 -0.5392  0.1554 -0.4851
 2173TIP3    H2 6526   3.215   1.729   2.947 -1.0419  0.6831 -1.6984
 2174TIP3   OH2 6527   3.544   1.519   3.538  0.2191  0.2224  0.5056
 2174TIP3    H1 6528   3.621   1.526   3.596 -1.0085  0.6758  2.1478
 2174TIP3    H2 6529   3.476   1.567   3.583 -0.9039  0.3116 -1.2096
 2175TIP3   OH2 6530   3.663   4.430   0.770  0.1364  0.3653 -0.5700
 2175TIP3    H1 6531   3.650   4.486   0.846  0.9520  1.7516 -1.4119
 2175TIP3    H2 6532   3.576   4.419   0.732  0.1778  2.7215 -1.4895
 2176TIP3   OH2 6533   6.120   0.815   2.139  0.1493  0.1619  0.0965
 2176TIP3    H1 6534   6.215   0.822   2.143  0.3908 -1.6781 -1.1018
 2176TIP3    H2 6535   6.102   0.774   2.053 -1.5755 -1.1444  1.0042
 2177TIP3   OH2 6536   4.238   1.733   0.945 -0.0976 -0.0801 -0.2166
 2177TIP3    H1 6537   4.279   1.797   0.888 -0.0731 -1.4225 -1.7889
 2177TIP3    H2 6538   4.306   1.668   0.961 -0.8376 -1.0036 -0.7431
 2178TIP3   OH2 6539   2.903   4.583   2.532 -0.6214  0.0531  0.2949
 2178TIP3    H1 6540   2.881   4.494   2.505 -0.2841 -0.2034  0.8482
 2178TIP3    H2 6541   2.975   4.609   2.474  0.1494 -0.5220  0.9681
 2179TIP3   OH2 6542   2.178   3.526   0.638  0.7526  0.4398  0.0250
 2179TIP3    H1 6543   2.196   3.451   0.694  0.0709  0.8128  0.7697
 2179TIP3    H2 6544   2.167   3.489   0.550  0.3838 -0.3315  0.3905
 2180TIP3   OH2 6545   2.281   0.342   4.043 -1.1393  0.0456  0.3919
 2180TIP3    H1 6546   2.339   0.349   4.119  0.1885  0.4737 -0.6208
 2180TIP3    H2 6547   2.204   0.393   4.067 -1.0696 -0.4441  1.7306
 2181TIP3   OH2 6548   4.107   3.619   0.326  0.0159  0.0127  0.8156
 2181TIP3    H1 6549   4.074   3.538   0.287  1.2292  0.1093 -0.4956
 2181TIP3    H2 6550   4.047   3.638   0.398  0.3510 -2.6704  1.9184
 2182TIP3   OH2 6551   0.103   1.809   4.823 -0.3732  0.3511 -0.5806
 2182TIP3    H1 6552   0.082   1.734   4.767 -0.7515  0.1795 -0.2151
 2182TIP3    H2 6553   0.187   1.787   4.864 -0.8991 -0.2709  0.1972
 2183TIP3   OH2 6554   0.304   1.311   0.451  0.0923 -0.5045  0.2865
 2183TIP3    H1 6555   0.369   1.371   0.487 -0.2136 -0.2449  0.4067
 2183TIP3    H2 6556   0.221   1.357   0.460  0.1925  0.4476 -2.6363
 2184TIP3   OH2 6557   4.976   1.778   2.992 -0.0233 -0.5071  0.0475
 2184TIP3    H1 6558   4.974   1.730   2.909  0.5241 -1.4657  0.5710
 2184TIP3    H2 6559   5.063   1.817   2.996 -0.5228  0.6859 -0.4493
 2185TIP3   OH2 6560   1.452   3.121   4.019  0.0109  0.2418 -0.2554
 2185TIP3    H1 6561   1.469   3.042   4.071 -0.6265  1.0057  1.1431
 2185TIP3    H2 6562   1.437   3.088   3.930 -0.8031 -1.2689  0.4051
 2186TIP3   OH2 6563   3.270   5.303   1.642 -0.7792  0.5940 -0.1349
 2186TIP3    H1 6564   3.271   5.222   1.591  0.6266  1.8464 -2.2432
 2186TIP3    H2 6565   3.183   5.305   1.681 -1.6126 -0.9178 -1.7552
 2187TIP3   OH2 6566   3.063   1.847   1.839  0.0830  0.1258  0.0386
 2187TIP3    H1 6567   2.999   1.875   1.905 -0.7538 -0.4021 -0.5219
 2187TIP3    H2 6568   3.034   1.890   1.759 -1.6619 -2.7654 -1.0186
 2188TIP3   OH2 6569   3.257   5.312   4.641  0.0558 -0.5686 -0.4532
 2188TIP3    H1 6570   3.236   5.224   4.673 -0.4282  0.2040  1.5067
 2188TIP3    H2 6571   3.171   5.350   4.621 -0.1505  0.7455  2.4565
 2189TIP3   OH2 6572   3.913   0.109   2.186  0.2222  0.8785 -0.4165
 2189TIP3    H1 6573   3.824   0.120   2.219 -0.1196  0.6038 -1.2364
 2189TIP3    H2 6574   3.964   0.083   2.263 -0.9022 -1.4955 -0.4172
 2190TIP3   OH2 6575   1.651   4.205   2.397  0.4968  0.1705 -0.0151
 2190TIP3    H1 6576   1.595   4.266   2.445  0.9560  0.6958 -0.1405
 2190TIP3    H2 6577   1.590   4.153   2.345  0.2017  1.7135 -1.2777
 2191TIP3   OH2 6578   2.239   0.132   5.018 -0.3427 -0.5257  0.2591
 2191TIP3    H1 6579   2.186   0.202   5.055  0.0135 -1.0172  1.7680
 2191TIP3    H2 6580   2.320   0.176   4.991 -1.1426  0.0772 -1.2797
 2192TIP3   OH2 6581   5.475   0.180   4.553 -0.3725  0.1896 -0.2633
 2192TIP3    H1 6582   5.523   0.182   4.636  1.5846  0.2288 -1.3424
 2192TIP3    H2 6583   5.517   0.246   4.499 -0.2478 -1.2289 -1.9911
 2193TIP3   OH2 6584   6.069   4.166   3.809  0.1213 -0.6767  0.0178
 2193TIP3    H1 6585   6.131   4.140   3.877  0.8714 -1.3016 -0.8753
 2193TIP3    H2 6586   6.068   4.093   3.748  0.9135  0.6156 -1.6313
 2194TIP3   OH2 6587   5.269   1.860   1.441  0.0739 -0.2050 -0.1770
 2194TIP3    H1 6588   5.289   1.885   1.351 -0.6609  0.9565 -0.0364
 2194TIP3    H2 6589   5.212   1.783   1.433 -0.2140  0.0589 -0.7157
 2195TIP3   OH2 6590   4.041   4.583   0.112  0.2786 -0.3734 -0.2736
 2195TIP3    H1 6591   4.031   4.617   0.023  0.8998  0.8506  0.0983
 2195TIP3    H2 6592   4.048   4.661   0.167 -1.5838 -1.0799  1.0629
 2196TIP3   OH2 6593   3.787   0.682   2.931  0.5417 -0.3043  0.0384
 2196TIP3    H1 6594   3.736   0.751   2.887  1.4188 -0.3930 -1.1551
 2196TIP3    H2 6595   3.746   0.601   2.902  0.7107 -0.3413 -0.0980
 2197TIP3   OH2 6596   2.658   4.138   2.423 -0.1823 -0.0261  0.0068
 2197TIP3    H1 6597   2.610   4.071   2.470  0.3577 -0.5261 -0.1490
 2197TIP3    H2 6598   2.690   4.095   2.344  1.2580  0.0471  0.5179
 2198TIP3   OH2 6599   1.113   3.047   4.567 -0.1077 -0.0033 -0.2332
 2198TIP3    H1 6600   1.070   3.105   4.629 -1.2423  0.6325 -1.5513
 2198TIP3    H2 6601   1.065   3.059   4.485  0.7558 -1.4828 -1.0158
 2199TIP3   OH2 6602   4.552   2.384   3.069  1.1083 -0.0547 -0.2233
 2199TIP3    H1 6603   4.558   2.454   3.134  0.0040 -0.1349 -0.0202
 2199TIP3    H2 6604   4.572   2.304   3.119  0.8593 -0.0497 -0.1143
 2200TIP3   OH2 6605   4.845   2.813   3.858  0.6945 -0.7354 -0.1462
 2200TIP3    H1 6606   4.774   2.832   3.920 -1.3992 -2.2141 -1.9090
 2200TIP3    H2 6607   4.867   2.898   3.821  1.2343  0.0229  1.7852
 2201TIP3   OH2 6608   5.082   1.018   1.834  1.1479 -0.1470  0.2685
 2201TIP3    H1 6609   5.081   1.058   1.920 -0.3591  1.0833 -0.2832
 2201TIP3    H2 6610   5.019   0.946   1.840  1.7233 -0.6378  0.4488
 2202TIP3   OH2 6611   0.299   0.523   3.551  0.1178 -0.0916 -0.5756
 2202TIP3    H1 6612   0.390   0.553   3.555  0.4479 -1.1407 -0.0686
 2202TIP3    H2 6613   0.288   0.491   3.462 -0.2011  1.3737 -1.0874
 2203TIP3   OH2 6614   4.636   1.379   0.880 -0.8274 -0.5051 -0.5167
 2203TIP3    H1 6615   4.647   1.302   0.824 -0.5252 -0.8170 -0.0397
 2203TIP3    H2 6616   4.715   1.381   0.933 -1.2725 -0.4216  0.1499
 2204TIP3   OH2 6617   5.232   2.399   0.274 -0.1773  0.9497 -0.2986
 2204TIP3    H1 6618   5.178   2.441   0.340  0.4952  0.7725  0.3768
 2204TIP3    H2 6619   5.229   2.458   0.199 -0.1124  1.6689  0.2558
 2205TIP3   OH2 6620   6.001   5.068   1.950 -0.5818 -0.2234 -0.0408
 2205TIP3    H1 6621   5.939   5.058   2.022  0.0382  0.5696  0.6202
 2205TIP3    H2 6622   6.082   5.029   1.982 -0.1971  0.4616 -0.1604
 2206TIP3   OH2 6623   0.151   5.825   2.283 -0.2737  0.5899 -0.0015
 2206TIP3    H1 6624   0.164   5.844   2.191 -0.5136  1.4881  0.1365
 2206TIP3    H2 6625   0.064   5.861   2.303 -0.2876  0.2729  0.5368
 2207TIP3   OH2 6626   2.754   5.284   5.031 -0.1981  0.0564  0.3265
 2207TIP3    H1 6627   2.670   5.308   5.070 -0.2369  0.8671 -0.2262
 2207TIP3    H2 6628   2.765   5.346   4.959 -0.2765 -1.5722 -1.1592
 2208TIP3   OH2 6629   5.565   4.956   2.260  0.0792  0.0802  0.4476
 2208TIP3    H1 6630   5.599   5.042   2.237 -1.1494  0.2539 -0.8476
 2208TIP3    H2 6631   5.564   4.908   2.178 -0.7134 -0.6348  0.8621
 2209TIP3   OH2 6632   0.991   4.006   0.761  0.1643  0.2565 -0.2264
 2209TIP3    H1 6633   1.073   4.052   0.740  0.9173 -0.6180  0.7257
 2209TIP3    H2 6634   0.944   4.003   0.678  1.5009 -0.0151 -1.0123
 2210TIP3   OH2 6635   6.251   1.737   3.447 -0.5184 -0.2178  0.4183
 2210TIP3    H1 6636   6.278   1.828   3.435  0.4292 -0.5736 -0.3490
 2210TIP3    H2 6637   6.156   1.738   3.439 -0.3970  0.4598 -1.4733
 2211TIP3   OH2 6638   4.878   5.473   4.852 -0.6709  0.0519 -0.0666
 2211TIP3    H1 6639   4.848   5.408   4.916 -0.3850  0.3430  0.3611
 2211TIP3    H2 6640   4.897   5.421   4.773 -1.4141 -0.2522 -0.0513
 2212TIP3   OH2 6641   3.297   5.716   2.133  0.1253  0.6081 -0.2728
 2212TIP3    H1 6642   3.386   5.715   2.168  0.2817 -1.3815 -0.6075
 2212TIP3    H2 6643   3.302   5.661   2.055 -1.3832  0.5560 -0.3511
 2213TIP3   OH2 6644   4.655   3.649   0.523  0.2491 -0.6936  0.1112
 2213TIP3    H1 6645   4.691   3.619   0.439  0.0539 -1.2048  0.2088
 2213TIP3    H2 6646   4.570   3.605   0.530 -2.0757  3.0233 -1.7192
 2214TIP3   OH2 6647   4.177   1.782   1.551  0.4167 -0.6274 -0.0506
 2214TIP3    H1 6648   4.216   1.723   1.486  2.8789  0.1110  0.6772
 2214TIP3    H2 6649   4.245   1.794   1.617 -0.1639  2.6180  0.1066
 2215TIP3   OH2 6650   3.929   5.646   3.507  0.1430 -0.2798 -0.6933
 2215TIP3    H1 6651   3.996   5.692   3.457 -0.9992 -0.3772 -2.4074
 2215TIP3    H2 6652   3.922   5.694   3.589  2.2589 -0.2635 -0.4679
 2216TIP3   OH2 6653   3.969   1.842   1.742  0.1704  0.2546  0.6223
 2216TIP3    H1 6654   4.036   1.785   1.704  1.4031  1.3040  1.1560
 2216TIP3    H2 6655   3.891   1.787   1.746  1.1816 -1.2425  0.6596
 2217TIP3   OH2 6656   5.683   2.677   3.388 -0.0815 -0.1069  0.3828
 2217TIP3    H1 6657   5.678   2.771   3.371  2.0718  0.2025  1.1966
 2217TIP3    H2 6658   5.747   2.645   3.324 -0.4976 -0.9653  0.3826
 2218TIP3   OH2 6659   2.402   2.936   1.394 -0.0672 -0.1010 -0.5071
 2218TIP3    H1 6660   2.498   2.934   1.398 -0.1217 -0.4496  1.8993
 2218TIP3    H2 6661   2.380   2.865   1.334  1.1677 -0.1927 -0.8892
 2219TIP3   OH2 6662   5.406   1.188   3.502 -0.0632  0.3595 -0.2320
 2219TIP3    H1 6663   5.475   1.180   3.436  1.7309 -0.0216  1.5882
 2219TIP3    H2 6664   5.378   1.098   3.519 -0.3743  0.4368 -0.3342
 2220TIP3   OH2 6665   3.614   4.988   2.089  0.1575  0.1035 -0.0421
 2220TIP3    H1 6666   3.532   4.943   2.113  0.5972 -0.5982  0.1681
 2220TIP3    H2 6667   3.664   4.922   2.042  0.5453  0.5821 -0.2998
 2221TIP3   OH2 6668   4.499   3.294   1.163 -0.4679 -0.1870 -0.0283
 2221TIP3    H1 6669   4.486   3.382   1.198 -0.0839 -0.1027 -0.0928
 2221TIP3    H2 6670   4.559   3.252   1.224  0.1861 -0.0485 -0.5706
 2222TIP3   OH2 6671   2.873   2.807   2.609 -0.1315 -0.1854 -0.1128
 2222TIP3    H1 6672   2.917   2.892   2.613 -0.4006 -0.0857  1.5278
 2222TIP3    H2 6673   2.891   2.767   2.694  0.6328 -2.1269 -1.1176
 2223TIP3   OH2 6674   5.653   2.928   3.224 -0.0374 -0.1088  0.0353
 2223TIP3    H1 6675   5.616   3.000   3.275 -0.1227  1.1426 -1.7078
 2223TIP3    H2 6676   5.742   2.958   3.203 -1.2584  1.3750 -3.9234
 2224TIP3   OH2 6677   6.232   1.817   2.269 -0.1391  0.3340  0.1348
 2224TIP3    H1 6678   6.167   1.754   2.239  1.0841 -0.3830 -1.1032
 2224TIP3    H2 6679   6.308   1.803   2.213  0.4423  2.4189  0.2907
 2225TIP3   OH2 6680   2.334   4.360   1.502  0.5733 -0.3360 -0.0978
 2225TIP3    H1 6681   2.291   4.442   1.477  1.4320 -0.2350 -1.3706
 2225TIP3    H2 6682   2.264   4.295   1.497 -0.1292  0.3004  0.9762
 2226TIP3   OH2 6683   1.350   2.900   3.159  0.1775 -0.5322  0.0249
 2226TIP3    H1 6684   1.274   2.904   3.217  0.5635 -0.1906  0.5144
 2226TIP3    H2 6685   1.329   2.961   3.088  0.0727 -0.2945  0.2581
 2227TIP3   OH2 6686   1.116   5.756   0.117  0.6282 -0.0949  0.3550
 2227TIP3    H1 6687   1.187   5.808   0.080 -0.6373 -0.0505 -2.2423
 2227TIP3    H2 6688   1.149   5.666   0.119  1.8720  0.3338  2.3814
 2228TIP3   OH2 6689   3.994   1.446   2.783 -0.0677 -0.0229  0.4856
 2228TIP3    H1 6690   4.048   1.390   2.839  1.7051  1.3308  0.2506
 2228TIP3    H2 6691   3.995   1.401   2.698  1.8051  0.5547  0.1456
 2229TIP3   OH2 6692   2.875   5.478   1.798  0.0164  0.3665 -0.6804
 2229TIP3    H1 6693   2.800   5.505   1.851 -0.2100  0.1873 -0.9047
 2229TIP3    H2 6694   2.938   5.549   1.808  0.2009  0.0906  0.2630
 2230TIP3   OH2 6695   2.497   0.374   0.178 -0.4778 -0.0761 -0.1065
 2230TIP3    H1 6696   2.409   0.386   0.143 -0.4257 -1.1864 -0.6596
 2230TIP3    H2 6697   2.542   0.321   0.113  0.2976 -0.3486  0.6298
 2231TIP3   OH2 6698   1.899   1.658   5.011 -0.1043  0.3842 -0.4057
 2231TIP3    H1 6699   1.911   1.607   4.931  1.5215 -0.6331  0.4339
 2231TIP3    H2 6700   1.917   1.748   4.984  1.1583 -0.0397 -1.0485
 2232TIP3   OH2 6701   4.113   3.339   3.297  0.0603 -0.5502  0.1286
 2232TIP3    H1 6702   4.101   3.422   3.250 -2.9657 -1.1440 -0.3963
 2232TIP3    H2 6703   4.200   3.345   3.335  1.1988  1.5334 -2.4773
 2233TIP3   OH2 6704   5.095   5.364   4.212 -1.2884  0.0593 -0.4843
 2233TIP3    H1 6705   5.130   5.275   4.212  2.4826  1.3577 -1.7083
 2233TIP3    H2 6706   5.139   5.407   4.139 -1.4971  3.4696  1.2066
 2234TIP3   OH2 6707   1.881   0.637   4.865 -0.1168 -0.3793  0.3225
 2234TIP3    H1 6708   1.928   0.719   4.849 -1.7882  0.5781  0.0794
 2234TIP3    H2 6709   1.934   0.570   4.822  0.0519  0.9049 -1.5803
 2235TIP3   OH2 6710   1.659   2.344   0.196 -0.6137 -0.0993 -0.0289
 2235TIP3    H1 6711   1.591   2.396   0.154 -1.7392 -1.9099 -0.5600
 2235TIP3    H2 6712   1.622   2.256   0.203  0.8751 -0.6641  1.6210
 2236TIP3   OH2 6713   3.552   3.428   1.045  0.5394 -0.3938  0.4236
 2236TIP3    H1 6714   3.638   3.393   1.068  0.7349 -0.6571 -0.6759
 2236TIP3    H2 6715   3.542   3.410   0.952 -0.7619 -0.4742  0.5525
 2237TIP3   OH2 6716   6.023   5.238   2.728 -0.2494 -0.2032  0.4170
 2237TIP3    H1 6717   6.099   5.287   2.760  0.6972 -0.3388 -1.4913
 2237TIP3    H2 6718   5.969   5.305   2.686 -0.1491 -0.4251 -0.0661
 2238TIP3   OH2 6719   1.906   3.901   1.605 -0.3114  0.2011 -0.0411
 2238TIP3    H1 6720   1.836   3.944   1.557  0.1226  0.4263 -0.4827
 2238TIP3    H2 6721   1.953   3.850   1.539 -0.6564 -0.7486  0.4288
 2239TIP3   OH2 6722   5.158   2.077   2.321  0.1485  0.1536 -0.4103
 2239TIP3    H1 6723   5.172   1.986   2.295  1.0677  0.2407 -0.2582
 2239TIP3    H2 6724   5.085   2.074   2.383  2.2293 -0.9726  2.2078
 2240TIP3   OH2 6725   4.398   1.150   0.257 -0.3347  0.1265  0.3693
 2240TIP3    H1 6726   4.330   1.158   0.190  0.1450 -0.7624 -0.2366
 2240TIP3    H2 6727   4.400   1.057   0.278  0.3970  0.2101  0.6887
 2241TIP3   OH2 6728   0.249   4.184   1.002 -0.3730 -0.0268  0.1721
 2241TIP3    H1 6729   0.198   4.251   0.956 -1.1344 -1.2629 -0.8494
 2241TIP3    H2 6730   0.301   4.233   1.065  0.4148  1.7214 -1.7277
 2242TIP3   OH2 6731   2.948   0.211   3.980 -0.2977 -0.5444  0.0540
 2242TIP3    H1 6732   2.981   0.214   4.070 -0.8149 -0.2764  0.2442
 2242TIP3    H2 6733   3.026   0.215   3.925  0.0005 -0.2064  0.4900
 2243TIP3   OH2 6734   1.781   1.003   1.335 -0.4865 -0.3337 -0.1060
 2243TIP3    H1 6735   1.732   0.970   1.410 -0.8022 -0.7367 -0.4858
 2243TIP3    H2 6736   1.848   0.937   1.318  0.4520  0.3967  0.6492
 2244TIP3   OH2 6737   1.881   4.921   3.507 -0.7703  0.3041  0.5574
 2244TIP3    H1 6738   1.830   4.990   3.465  0.8889  0.9334 -0.5152
 2244TIP3    H2 6739   1.903   4.957   3.593  0.6043  1.4116 -0.2258
 2245TIP3   OH2 6740   5.186   5.724   4.634 -0.7015  0.3669  0.3120
 2245TIP3    H1 6741   5.213   5.656   4.572 -0.6288 -1.4486  2.2047
 2245TIP3    H2 6742   5.233   5.803   4.606  3.5396 -1.6066  0.9739
 2246TIP3   OH2 6743   3.763   2.845   1.769  0.0495  0.2774 -0.0282
 2246TIP3    H1 6744   3.700   2.806   1.830  0.4860  1.3324  1.1270
 2246TIP3    H2 6745   3.840   2.864   1.822  0.1359  1.9785 -0.7138
 2247TIP3   OH2 6746   4.113   2.090   2.345 -0.2672  0.6992  0.1568
 2247TIP3    H1 6747   4.157   2.040   2.277  0.5995  1.3591  0.2009
 2247TIP3    H2 6748   4.022   2.061   2.342 -0.4571  1.3467 -1.8818
 2248TIP3   OH2 6749   4.583   5.816   0.996 -0.3709  0.4450  0.1491
 2248TIP3    H1 6750   4.678   5.814   1.003 -0.4594 -1.0605  1.4431
 2248TIP3    H2 6751   4.560   5.909   1.002  1.1040  1.0500 -2.3501
 2249TIP3   OH2 6752   6.250   4.101   2.461  0.0510  0.3161  0.1921
 2249TIP3    H1 6753   6.231   4.160   2.534  0.1054  1.6093 -0.8081
 2249TIP3    H2 6754   6.298   4.155   2.398 -1.2168 -0.3633 -1.4354
 2250TIP3   OH2 6755   3.524   1.847   4.348 -0.6260 -0.4111  0.0776
 2250TIP3    H1 6756   3.551   1.938   4.353 -0.9041 -0.1519 -2.1633
 2250TIP3    H2 6757   3.462   1.836   4.421 -1.1189  1.3772 -0.0317
 2251TIP3   OH2 6758   0.837   4.476   4.692 -0.3945  0.1826 -0.4915
 2251TIP3    H1 6759   0.764   4.418   4.714  0.3984 -0.7591 -0.2607
 2251TIP3    H2 6760   0.816   4.559   4.734 -0.4574 -0.6251  1.1235
 2252TIP3   OH2 6761   4.918   2.814   3.429  0.1900  0.0756  0.1290
 2252TIP3    H1 6762   4.850   2.748   3.417  1.4315 -0.9377 -1.7567
 2252TIP3    H2 6763   4.983   2.772   3.485  0.1078  0.3971  0.4702
 2253TIP3   OH2 6764   1.781   5.336   1.150  0.4362 -0.2539 -0.1088
 2253TIP3    H1 6765   1.845   5.399   1.183  0.5433 -0.8322  0.8326
 2253TIP3    H2 6766   1.833   5.264   1.114  0.3129 -0.0958 -0.6131
 2254TIP3   OH2 6767   3.510   2.326   4.563  0.1017 -0.0282 -0.3009
 2254TIP3    H1 6768   3.579   2.306   4.626 -2.4153 -3.1640  1.8020
 2254TIP3    H2 6769   3.499   2.421   4.568  2.8807  0.3278  0.6838
 2255TIP3   OH2 6770   5.312   1.586   2.954 -0.6353  0.4241  0.2651
 2255TIP3    H1 6771   5.389   1.643   2.950 -0.8132  0.5993 -1.3263
 2255TIP3    H2 6772   5.268   1.612   3.035  1.5975 -0.5570  1.8955
 2256TIP3   OH2 6773   6.222   0.011   1.265 -0.5250 -0.6005  0.1393
 2256TIP3    H1 6774   6.139   0.052   1.241 -2.2014 -2.6650  2.0110
 2256TIP3    H2 6775   6.286   0.049   1.205 -2.2536  3.1315  0.3926
 2257TIP3   OH2 6776   4.551   1.281   3.782 -0.2124  0.2893  0.4271
 2257TIP3    H1 6777   4.511   1.203   3.820  0.9813 -1.4417 -1.6770
 2257TIP3    H2 6778   4.477   1.333   3.750 -0.9511 -1.3926 -0.7135
 2258TIP3   OH2 6779   3.412   5.246   4.927  0.0885 -0.7845 -0.5212
 2258TIP3    H1 6780   3.340   5.228   4.988 -0.6644  0.1415 -1.1074
 2258TIP3    H2 6781   3.485   5.194   4.960 -0.8388 -1.7375  0.1083
 2259TIP3   OH2 6782   0.327   5.454   1.996  0.2264 -0.0498  0.1580
 2259TIP3    H1 6783   0.309   5.362   2.017  1.1927 -0.7397 -1.8181
 2259TIP3    H2 6784   0.421   5.464   2.012  0.0364  0.7549  0.8282
 2260TIP3   OH2 6785   1.137   0.487   1.711 -0.4416  0.3322  0.1682
 2260TIP3    H1 6786   1.150   0.579   1.690  0.7148  0.1910  0.2030
 2260TIP3    H2 6787   1.180   0.475   1.796  0.9219 -0.5768 -0.6039
 2261TIP3   OH2 6788   6.311   1.151   1.556  0.4700 -0.2413 -0.4735
 2261TIP3    H1 6789   6.265   1.222   1.512  1.4531  0.1138 -0.9521
 2261TIP3    H2 6790   6.242   1.093   1.587 -0.2872  0.2256 -1.2644
 2262TIP3   OH2 6791   4.006   1.092   0.249 -0.2299 -0.1621 -0.0922
 2262TIP3    H1 6792   4.072   1.033   0.213 -1.2880 -2.0221  0.8800
 2262TIP3    H2 6793   3.956   1.038   0.310 -0.1227  2.2016  2.2573
 2263TIP3   OH2 6794   2.981   5.983   1.595  0.1148 -0.3545 -0.0151
 2263TIP3    H1 6795   2.980   5.895   1.633 -1.6928 -0.1434  0.4781
 2263TIP3    H2 6796   3.013   5.969   1.505  1.4896 -1.2493  0.5722
 2264TIP3   OH2 6797   3.139   3.587   3.059  0.4695  0.0021  0.3053
 2264TIP3    H1 6798   3.163   3.679   3.071  0.5707 -0.0898  0.8278
 2264TIP3    H2 6799   3.149   3.548   3.145  1.0237 -0.6413 -0.0406
 2265TIP3   OH2 6800   0.534   2.489   1.691 -0.2039  0.1954  0.4335
 2265TIP3    H1 6801   0.570   2.405   1.720  0.8190  0.6835  0.6103
 2265TIP3    H2 6802   0.578   2.506   1.608 -2.0394 -0.4907 -0.7630
 2266TIP3   OH2 6803   5.913   1.675   2.338 -0.2166 -0.1347 -0.0309
 2266TIP3    H1 6804   5.925   1.770   2.343 -1.5540  0.0350  0.1435
 2266TIP3    H2 6805   5.947   1.652   2.252 -1.8735  0.8284 -0.9847
 2267TIP3   OH2 6806   4.087   1.450   3.466  1.1620 -0.2938 -0.0313
 2267TIP3    H1 6807   4.008   1.502   3.447  0.9028 -0.3012  0.9588
 2267TIP3    H2 6808   4.118   1.421   3.381 -0.7165 -1.4728 -0.3723
 2268TIP3   OH2 6809   3.186   2.294   1.934  0.5276 -0.2722  0.0565
 2268TIP3    H1 6810   3.192   2.323   1.843  1.4227  0.4471  0.3311
 2268TIP3    H2 6811   3.268   2.321   1.974 -0.4363  0.7495  1.4607
 2269TIP3   OH2 6812   3.070   2.452   5.161 -0.3811 -1.0816 -0.2034
 2269TIP3    H1 6813   2.995   2.482   5.211 -0.8722 -2.4357 -0.0809
 2269TIP3    H2 6814   3.035   2.386   5.101  0.8175 -2.3706  0.4446
 2270TIP3   OH2 6815   5.982   4.376   2.988  0.5755 -0.0351  0.2061
 2270TIP3    H1 6816   5.945   4.340   3.068  1.6454 -0.3557  0.5843
 2270TIP3    H2 6817   5.985   4.302   2.927  1.3789 -0.2472  0.4790
 2271TIP3   OH2 6818   0.749   4.236   0.197 -0.5423 -0.1810  0.7717
 2271TIP3    H1 6819   0.719   4.145   0.201 -1.9066  0.1739 -0.6296
 2271TIP3    H2 6820   0.805   4.240   0.120  0.0646  0.0266  1.2157
 2272TIP3   OH2 6821   0.055   3.302   3.457  0.2042 -0.1489  1.0378
 2272TIP3    H1 6822  -0.024   3.266   3.497 -0.3188  0.4199  0.5376
 2272TIP3    H2 6823   0.112   3.226   3.443  0.1807 -0.4313  2.3316
 2273TIP3   OH2 6824   1.435   5.950   1.684 -0.1136  0.1621  0.0069
 2273TIP3    H1 6825   1.494   5.919   1.616  1.5699 -1.6109  2.1342
 2273TIP3    H2 6826   1.474   6.032   1.714  2.8374 -2.0487  2.9200
 2274TIP3   OH2 6827   0.208   1.830   0.814 -0.9171  0.1994  0.6058
 2274TIP3    H1 6828   0.243   1.908   0.858  0.1800 -0.6255  1.2389
 2274TIP3    H2 6829   0.155   1.787   0.882 -1.3106  0.2481  0.3339
 2275TIP3   OH2 6830   0.759   0.995   2.045 -0.0521  0.4691 -0.1149
 2275TIP3    H1 6831   0.731   0.978   1.955  0.6599  0.0596 -0.2686
 2275TIP3    H2 6832   0.835   1.052   2.036 -1.5314  2.6448  0.3459
 2276TIP3   OH2 6833   4.881   4.904   3.237  0.2576 -0.3091 -0.4190
 2276TIP3    H1 6834   4.959   4.938   3.195  0.7768 -1.1893 -0.1946
 2276TIP3    H2 6835   4.912   4.864   3.318 -0.6664  0.9638  0.6050
 2277TIP3   OH2 6836   0.882   4.613   1.576  0.5490  0.4651  0.0676
 2277TIP3    H1 6837   0.787   4.622   1.586 -0.0697 -4.3012  0.8594
 2277TIP3    H2 6838   0.898   4.628   1.483 -1.5801 -1.6568 -0.7508
 2278TIP3   OH2 6839   4.075   3.827   4.810  0.9693 -0.2542  0.0513
 2278TIP3    H1 6840   4.157   3.866   4.842  1.1750 -0.6774  0.0516
 2278TIP3    H2 6841   4.103   3.748   4.763  0.4962 -0.8529  0.7605
 2279TIP3   OH2 6842   3.645   1.867   0.561 -0.1795 -0.5178  0.1555
 2279TIP3    H1 6843   3.639   1.916   0.643  2.2556 -0.2385  0.2441
 2279TIP3    H2 6844   3.643   1.934   0.493 -2.1443 -0.7462 -0.0738
 2280TIP3   OH2 6845   0.704   1.772   4.557 -0.9137 -0.2572 -0.1018
 2280TIP3    H1 6846   0.616   1.779   4.519 -1.7177  1.5176  1.8781
 2280TIP3    H2 6847   0.754   1.842   4.515 -2.0256  2.2371  2.4332
 2281TIP3   OH2 6848   5.326   2.617   0.561  0.2971  0.1634 -0.2137
 2281TIP3    H1 6849   5.418   2.625   0.536  0.1542 -1.2475 -1.3269
 2281TIP3    H2 6850   5.279   2.670   0.496  0.1161 -1.6159 -1.6143
 2282TIP3   OH2 6851   2.145   4.017   0.704 -0.1323  0.2917  0.4756
 2282TIP3    H1 6852   2.123   4.110   0.708  0.2710  0.4594 -0.8351
 2282TIP3    H2 6853   2.061   3.972   0.693 -0.1704  0.6432 -0.7310
 2283TIP3   OH2 6854   3.370   4.836   4.046 -0.1788 -0.2554  0.5193
 2283TIP3    H1 6855   3.440   4.772   4.054  0.2632  0.2424  0.6427
 2283TIP3    H2 6856   3.290   4.786   4.064 -0.0131 -1.1630 -1.0550
 2284TIP3   OH2 6857   4.704   4.439   0.718  0.4161 -0.4102 -0.0743
 2284TIP3    H1 6858   4.746   4.375   0.776 -0.2945  0.1283  1.0675
 2284TIP3    H2 6859   4.632   4.391   0.678 -0.5695 -0.1582  1.3375
 2285TIP3   OH2 6860   1.074   5.336   5.095  0.4083  0.1684 -0.3480
 2285TIP3    H1 6861   1.106   5.425   5.082  0.2551  0.3708  0.5711
 2285TIP3    H2 6862   0.988   5.335   5.053  1.0992 -0.0367 -1.7961
 2286TIP3   OH2 6863   3.800   2.405   0.143 -0.1687 -0.6551 -0.5395
 2286TIP3    H1 6864   3.882   2.367   0.176 -0.7205 -0.9962  0.4752
 2286TIP3    H2 6865   3.749   2.330   0.114 -0.3205 -0.4840 -0.7139
 2287TIP3   OH2 6866   0.087   2.644   3.842  0.4823 -0.0737 -0.4403
 2287TIP3    H1 6867   0.015   2.663   3.902  1.6732 -0.5764  1.2127
 2287TIP3    H2 6868   0.043   2.617   3.760 -1.2175 -0.9552  0.6870
 2288TIP3   OH2 6869   5.812   1.858   1.663 -0.4007 -0.0457  0.4344
 2288TIP3    H1 6870   5.779   1.944   1.691 -1.3611  0.8196 -2.9013
 2288TIP3    H2 6871   5.908   1.869   1.661 -0.3299  0.0767  2.3579
 2289TIP3   OH2 6872   4.934   2.327   4.151 -0.1075 -0.9194 -0.1825
 2289TIP3    H1 6873   5.023   2.331   4.116  0.2696  0.3346  0.8417
 2289TIP3    H2 6874   4.946   2.311   4.245 -0.9286 -0.1300  0.0728
 2290TIP3   OH2 6875   1.837   1.762   3.234 -0.5808  0.2742 -0.1704
 2290TIP3    H1 6876   1.887   1.692   3.275 -2.1017 -0.6199  0.2351
 2290TIP3    H2 6877   1.869   1.766   3.144 -1.5287 -2.0391 -0.6809
 2291TIP3   OH2 6878   3.277   2.157   2.816 -0.1761 -0.0763 -0.3105
 2291TIP3    H1 6879   3.206   2.093   2.821 -0.6045  0.3469 -0.8438
 2291TIP3    H2 6880   3.355   2.105   2.796 -0.5906 -0.3935 -1.1448
 2292TIP3   OH2 6881   4.991   5.603   0.652 -0.0847  0.4351  0.0718
 2292TIP3    H1 6882   5.035   5.684   0.626 -0.0853  0.0314 -1.2665
 2292TIP3    H2 6883   4.898   5.625   0.650 -0.0684  0.5056  0.0759
 2293TIP3   OH2 6884   4.232   1.398   1.146 -0.5190  0.3099  0.3584
 2293TIP3    H1 6885   4.301   1.393   1.212 -0.5321  0.6497  0.3990
 2293TIP3    H2 6886   4.279   1.405   1.062 -0.5024 -0.1680  0.3282
 2294TIP3   OH2 6887   2.904   0.131   0.467 -0.1642  0.6476 -0.2480
 2294TIP3    H1 6888   2.811   0.151   0.452 -0.2743  0.1064 -0.2806
 2294TIP3    H2 6889   2.928   0.073   0.395  0.5685  1.8928 -1.0438
 2295TIP3   OH2 6890   0.662   3.309   4.413 -0.3881  0.8844 -0.0544
 2295TIP3    H1 6891   0.639   3.282   4.501 -1.3807  1.6226 -0.0663
 2295TIP3    H2 6892   0.643   3.233   4.358 -0.0769  0.5345  0.3171
 2296TIP3   OH2 6893   4.178   0.563   0.536  0.1125 -0.1698  0.2768
 2296TIP3    H1 6894   4.202   0.617   0.461 -1.3666 -2.3516 -1.9483
 2296TIP3    H2 6895   4.102   0.607   0.574  1.2809  1.3134  0.9944
 2297TIP3   OH2 6896   4.089   3.029   1.036 -0.7445  0.2315  0.0484
 2297TIP3    H1 6897   4.063   3.001   1.124 -1.1156 -0.6629 -0.3325
 2297TIP3    H2 6898   4.178   3.062   1.046 -0.7144 -0.0431  0.7226
 2298TIP3   OH2 6899   5.093   0.366   4.735 -0.4280 -0.3366  0.1767
 2298TIP3    H1 6900   5.129   0.281   4.713  1.0199 -0.0353  1.2250
 2298TIP3    H2 6901   5.141   0.394   4.813  0.8536  2.4758 -1.4591
 2299TIP3   OH2 6902   2.830   5.839   2.316 -0.1272 -0.0764 -0.7164
 2299TIP3    H1 6903   2.819   5.902   2.245  0.0225  1.9527  0.9466
 2299TIP3    H2 6904   2.924   5.819   2.316 -0.1849 -0.3657 -1.2834
 2300TIP3   OH2 6905   1.621   2.462   5.063  0.3449 -0.1509 -0.1818
 2300TIP3    H1 6906   1.569   2.537   5.091  1.0400  0.0749  0.5597
 2300TIP3    H2 6907   1.658   2.427   5.144 -1.9463 -2.8678 -0.1319
 2301TIP3   OH2 6908   5.122   4.901   5.058  0.4969  0.3381  0.2003
 2301TIP3    H1 6909   5.154   4.978   5.105  0.9983  0.8798 -1.0095
 2301TIP3    H2 6910   5.185   4.886   4.988  0.9372 -1.7522  0.9478
 2302TIP3   OH2 6911   5.673   2.803   0.622  0.2365  0.2976  0.7457
 2302TIP3    H1 6912   5.727   2.881   0.632  1.7820 -0.9335  2.6721
 2302TIP3    H2 6913   5.589   2.826   0.662 -0.2515  1.7293 -0.9429
 2303TIP3   OH2 6914   3.712   2.411   1.168 -0.0132  0.1067 -0.4673
 2303TIP3    H1 6915   3.627   2.367   1.170  0.1396 -0.1488  0.5503
 2303TIP3    H2 6916   3.700   2.482   1.104 -1.6324  1.3270  1.0672
 2304TIP3   OH2 6917   3.088   3.101   5.078 -0.6091  0.2115  0.3063
 2304TIP3    H1 6918   3.031   3.129   5.007 -1.1891 -0.2120  0.5954
 2304TIP3    H2 6919   3.098   3.178   5.134 -0.1750  0.5357 -0.2155
 2305TIP3   OH2 6920   1.144   0.243   4.454  0.2669 -0.2176 -0.3317
 2305TIP3    H1 6921   1.068   0.300   4.440  0.0120 -0.0904  1.3894
 2305TIP3    H2 6922   1.208   0.299   4.497  0.1047 -1.1251  1.1701
 2306TIP3   OH2 6923   3.929   3.258   3.121 -0.0764  0.2278  0.5547
 2306TIP3    H1 6924   3.981   3.266   3.200 -1.2517 -0.9966  1.4997
 2306TIP3    H2 6925   3.842   3.233   3.152 -0.4804 -0.6303 -1.1370
 2307TIP3   OH2 6926   1.080   0.881   0.344  0.2136 -0.0041  0.3790
 2307TIP3    H1 6927   1.020   0.867   0.418 -0.5547  1.2440  0.0066
 2307TIP3    H2 6928   1.138   0.951   0.374 -0.4229  0.8585 -0.3841
 2308TIP3   OH2 6929   5.650   2.255   3.463  0.8313 -0.6268  0.1519
 2308TIP3    H1 6930   5.727   2.209   3.498  1.8852  2.3734  2.2719
 2308TIP3    H2 6931   5.687   2.321   3.404 -0.2708 -0.1206  0.0041
 2309TIP3   OH2 6932   3.782   4.697   3.677  0.1984  0.0853  0.1979
 2309TIP3    H1 6933   3.776   4.610   3.638 -0.6342  0.6523 -1.0358
 2309TIP3    H2 6934   3.867   4.730   3.649 -0.0003  0.1226 -0.3879
 2310TIP3   OH2 6935   1.673   3.424   0.678 -0.6504  0.2461  0.2903
 2310TIP3    H1 6936   1.658   3.409   0.771 -1.8100 -3.4643 -0.3661
 2310TIP3    H2 6937   1.596   3.473   0.648 -0.0579  1.8681  1.2639
 2311TIP3   OH2 6938   5.538   3.375   4.445 -0.0880  0.1942  0.3638
 2311TIP3    H1 6939   5.561   3.467   4.443  0.1867  0.1187 -0.0836
 2311TIP3    H2 6940   5.486   3.361   4.366  0.5264 -0.1940  0.0147
 2312TIP3   OH2 6941   0.717   5.184   1.812 -0.4136 -0.0214  0.2071
 2312TIP3    H1 6942   0.755   5.235   1.742  0.2475 -2.0600 -1.0152
 2312TIP3    H2 6943   0.773   5.201   1.888 -0.0036  0.7648 -0.2653
 2313TIP3   OH2 6944   1.720   2.474   3.987  0.5627 -0.0602 -0.4574
 2313TIP3    H1 6945   1.721   2.511   3.898 -1.6308  0.1916 -0.4344
 2313TIP3    H2 6946   1.627   2.461   4.006  1.0472 -1.0139  1.4501
 2314TIP3   OH2 6947   3.927   2.841   5.155 -0.2035  0.4491 -0.0592
 2314TIP3    H1 6948   3.988   2.914   5.143 -1.1574  1.2583 -0.0492
 2314TIP3    H2 6949   3.969   2.767   5.109 -0.0135  1.4157 -1.5027
 2315TIP3   OH2 6950   1.215   4.802   2.730 -0.2817  0.0409  0.0792
 2315TIP3    H1 6951   1.236   4.895   2.728  2.4250 -0.5023 -0.4914
 2315TIP3    H2 6952   1.176   4.789   2.817  1.4566  1.3182  1.1221
 2316TIP3   OH2 6953   5.181   0.394   2.978  0.6365  0.0187  0.2996
 2316TIP3    H1 6954   5.159   0.325   2.917 -0.8247  0.8287 -0.1276
 2316TIP3    H2 6955   5.178   0.352   3.064 -1.0937 -0.2656  0.1181
 2317TIP3   OH2 6956   1.865   3.537   1.971  0.1958 -0.3443  0.8232
 2317TIP3    H1 6957   1.915   3.546   1.889 -0.1946  0.4416  0.6598
 2317TIP3    H2 6958   1.876   3.446   1.996  2.3736 -0.0247  1.2241
 2318TIP3   OH2 6959   6.286   5.176   2.187 -0.2065 -0.9005 -0.3083
 2318TIP3    H1 6960   6.261   5.095   2.143 -1.8199  0.3731 -1.8802
 2318TIP3    H2 6961   6.253   5.245   2.130 -0.9319  0.8589  2.0870
 2319TIP3   OH2 6962   1.364   0.992   2.464 -0.0316 -0.3511  0.1379
 2319TIP3    H1 6963   1.454   1.020   2.448  0.1065 -0.2926  0.9581
 2319TIP3    H2 6964   1.364   0.964   2.556 -1.3335  1.6367  0.7915
 2320TIP3   OH2 6965   5.705   2.255   3.790 -0.0142 -0.3651  0.7722
 2320TIP3    H1 6966   5.649   2.180   3.770 -1.9568  0.8995  1.2353
 2320TIP3    H2 6967   5.757   2.227   3.866 -0.2783 -1.4280  0.5770
 2321TIP3   OH2 6968   1.420   2.573   3.815 -0.1948  0.4554 -0.2537
 2321TIP3    H1 6969   1.354   2.544   3.752 -0.3762 -0.7013  0.4440
 2321TIP3    H2 6970   1.503   2.538   3.781 -0.6615 -3.0440  1.7087
 2322TIP3   OH2 6971   5.206   2.278   3.082  0.0182  0.4762  0.5168
 2322TIP3    H1 6972   5.236   2.358   3.124 -1.0401  0.3787  1.5125
 2322TIP3    H2 6973   5.175   2.223   3.155  0.0404 -0.5360 -0.2107
 2323TIP3   OH2 6974   5.605   5.286   3.851  0.0679  0.5560  0.1998
 2323TIP3    H1 6975   5.607   5.268   3.945 -0.4945 -0.5712  0.0113
 2323TIP3    H2 6976   5.690   5.325   3.832  0.8950 -0.8308  0.8856
 2324TIP3   OH2 6977   1.417   0.411   3.588  0.3726 -0.2832 -0.2981
 2324TIP3    H1 6978   1.353   0.424   3.658  2.0461 -1.7969  1.6504
 2324TIP3    H2 6979   1.365   0.390   3.511 -1.5308  0.8969  0.5844
 2325TIP3   OH2 6980   1.533   3.150   2.656  0.5821  0.5376 -0.5788
 2325TIP3    H1 6981   1.517   3.229   2.708  0.4730  1.7244 -2.3341
 2325TIP3    H2 6982   1.457   3.095   2.672  1.2242  0.1851  1.6374
 2326TIP3   OH2 6983   1.733   5.177   1.528  0.7944  0.1416  0.0231
 2326TIP3    H1 6984   1.768   5.163   1.616  1.1968 -0.9951 -0.2928
 2326TIP3    H2 6985   1.645   5.138   1.531 -0.2965  2.4878  0.6540
 2327TIP3   OH2 6986   0.606   3.446   1.917 -0.8718  0.2081 -0.5421
 2327TIP3    H1 6987   0.689   3.400   1.898 -0.5446  0.8718 -0.7592
 2327TIP3    H2 6988   0.548   3.421   1.845 -1.1179 -0.8480 -0.0009
 2328TIP3   OH2 6989   4.902   3.263   0.467 -0.4742 -0.1584 -0.0233
 2328TIP3    H1 6990   4.841   3.224   0.529  0.2856 -0.0509  0.8222
 2328TIP3    H2 6991   4.923   3.193   0.405  1.7978 -1.5655  2.1632
 2329TIP3   OH2 6992   3.722   2.596   4.590  0.1152 -0.4040  0.5850
 2329TIP3    H1 6993   3.765   2.552   4.517 -0.3411 -0.5008  0.3664
 2329TIP3    H2 6994   3.793   2.632   4.643  0.4369  0.9645 -0.7043
 2330TIP3   OH2 6995   5.875   4.685   4.577 -0.0688 -0.0306 -0.1912
 2330TIP3    H1 6996   5.844   4.594   4.583 -0.4468  0.0383 -1.0437
 2330TIP3    H2 6997   5.954   4.679   4.523  0.2462  0.0776  0.2493
 2331TIP3   OH2 6998   6.169   4.671   2.776 -0.2906  0.2684 -0.1176
 2331TIP3    H1 6999   6.218   4.595   2.745  1.2955  0.6280  1.3279
 2331TIP3    H2 7000   6.224   4.708   2.845 -2.1497  1.3214  0.8828
 2332TIP3   OH2 7001   2.563   4.772   2.951 -0.8527  0.5022  0.0137
 2332TIP3    H1 7002   2.529   4.726   2.874  0.4620  0.4946 -0.5959
 2332TIP3    H2 7003   2.613   4.845   2.914 -0.2809  0.5444  0.8586
 2333TIP3   OH2 7004   6.207   4.083   3.532  0.4009  0.1139 -0.0282
 2333TIP3    H1 7005   6.261   4.004   3.527  0.8470  0.3183  1.3293
 2333TIP3    H2 7006   6.118   4.051   3.513  0.5432 -0.7592  0.6769
 2334TIP3   OH2 7007   4.634   4.577   2.216  0.3862 -0.0127 -0.1554
 2334TIP3    H1 7008   4.628   4.587   2.311  0.4209 -0.3653 -0.1134
 2334TIP3    H2 7009   4.544   4.561   2.188  0.5902 -1.6824  0.0381
 2335TIP3   OH2 7010   6.202   2.349   1.103  0.3585 -0.0323 -0.2585
 2335TIP3    H1 7011   6.271   2.354   1.038  1.9767  1.5419  1.4532
 2335TIP3    H2 7012   6.185   2.441   1.127 -1.8560 -0.4118 -0.1003
 2336TIP3   OH2 7013   5.333   2.977   0.375 -0.3359 -0.7202  0.3609
 2336TIP3    H1 7014   5.428   2.973   0.380 -0.3207 -0.9291 -0.0308
 2336TIP3    H2 7015   5.306   3.019   0.456  0.0583 -1.1018  0.6931
 2337TIP3   OH2 7016   0.744   4.147   1.955 -0.3581 -0.0063 -0.4306
 2337TIP3    H1 7017   0.738   4.053   1.939 -0.5788  0.1173 -1.1267
 2337TIP3    H2 7018   0.704   4.160   2.041  1.9786 -0.8655  0.8485
 2338TIP3   OH2 7019   4.806   0.435   2.923  0.0571 -0.4367 -0.0165
 2338TIP3    H1 7020   4.728   0.487   2.905  1.0118  0.4095 -2.0296
 2338TIP3    H2 7021   4.779   0.345   2.903 -0.4900 -0.1975 -0.3955
 2339TIP3   OH2 7022   3.435   5.112   3.757  0.7484  0.0945  0.3822
 2339TIP3    H1 7023   3.502   5.062   3.803  0.8883 -1.0462 -1.0064
 2339TIP3    H2 7024   3.464   5.116   3.666 -1.4238 -1.1963 -0.4645
 2340TIP3   OH2 7025   5.593   1.111   1.130  0.0509  0.0440  0.5383
 2340TIP3    H1 7026   5.681   1.145   1.113  0.3397 -1.5423 -1.6161
 2340TIP3    H2 7027   5.535   1.185   1.109  0.8138  0.8526  1.1915
 2341TIP3   OH2 7028   0.401   1.233   2.876 -0.9845  0.1580 -0.4746
 2341TIP3    H1 7029   0.454   1.254   2.799 -1.3353  1.8294 -0.2912
 2341TIP3    H2 7030   0.344   1.309   2.888 -1.1845 -0.2228  1.2347
 2342TIP3   OH2 7031   0.815   0.251   2.520  0.0445  0.5599  0.0020
 2342TIP3    H1 7032   0.904   0.215   2.518 -0.6659 -1.3314  0.2294
 2342TIP3    H2 7033   0.794   0.257   2.614 -0.5253 -0.2661 -0.0623
 2343TIP3   OH2 7034   5.798   4.715   2.047 -0.4921  0.8762 -0.1660
 2343TIP3    H1 7035   5.851   4.767   2.106 -1.0874  1.2792  0.0108
 2343TIP3    H2 7036   5.856   4.698   1.972 -0.0579  1.1660  0.1013
 2344TIP3   OH2 7037   1.200   3.746   0.671 -0.0787 -0.6992 -0.1357
 2344TIP3    H1 7038   1.238   3.756   0.583  1.4739 -2.9528  0.1954
 2344TIP3    H2 7039   1.142   3.671   0.663  0.2084 -1.0310  0.7808
 2345TIP3   OH2 7040   4.460   5.782   0.746  0.1213 -0.0250  0.3288
 2345TIP3    H1 7041   4.476   5.762   0.838 -0.2886  0.2974  0.4753
 2345TIP3    H2 7042   4.473   5.877   0.740  0.9888 -0.1607 -0.1263
 2346TIP3   OH2 7043   5.317   2.757   2.292 -0.6856  0.4808 -0.4029
 2346TIP3    H1 7044   5.336   2.823   2.359  0.0886  1.0416 -1.1617
 2346TIP3    H2 7045   5.226   2.733   2.307 -0.8042  1.3038  0.2417
 2347TIP3   OH2 7046   5.146   3.570   2.207 -0.2702 -0.0232  0.4715
 2347TIP3    H1 7047   5.192   3.605   2.283 -1.3686 -0.8591  1.5365
 2347TIP3    H2 7048   5.054   3.592   2.222 -0.6585 -1.2527 -0.0175
 2348TIP3   OH2 7049   4.834   2.492   5.007  0.1220  0.2023 -0.6700
 2348TIP3    H1 7050   4.829   2.397   5.006  1.5893  0.0914 -0.4076
 2348TIP3    H2 7051   4.911   2.513   4.953  1.6085  1.0450  1.6288
 2349TIP3   OH2 7052   4.713   2.920   4.307  0.0555 -0.2384  0.0931
 2349TIP3    H1 7053   4.797   2.964   4.310 -0.9770  1.9196 -0.7432
 2349TIP3    H2 7054   4.695   2.897   4.399  2.5082 -2.8913  0.0660
 2350TIP3   OH2 7055   0.353   0.419   3.046 -0.2765  0.3067 -0.5299
 2350TIP3    H1 7056   0.379   0.331   3.020 -2.0310 -0.4435  0.1548
 2350TIP3    H2 7057   0.282   0.442   2.987 -1.0611  0.5144  0.4706
 2351TIP3   OH2 7058   5.261   5.258   3.452 -0.0229 -0.0301 -0.3467
 2351TIP3    H1 7059   5.190   5.197   3.432 -0.2053  0.5200 -1.4361
 2351TIP3    H2 7060   5.331   5.234   3.392  0.1495  0.3942 -0.3185
 2352TIP3   OH2 7061   2.643   2.847   4.728  0.4938  0.1660 -0.0574
 2352TIP3    H1 7062   2.698   2.774   4.702  3.4040  2.5947 -1.3836
 2352TIP3    H2 7063   2.646   2.847   4.823  1.4740 -0.7334 -0.0756
 2353TIP3   OH2 7064   4.627   4.445   2.646  0.0404 -0.2369  0.0804
 2353TIP3    H1 7065   4.631   4.522   2.703  1.8008 -0.0235 -0.2819
 2353TIP3    H2 7066   4.651   4.477   2.559 -0.4516 -0.9714 -0.3404
 2354TIP3   OH2 7067   3.740   5.036   2.984  0.1042 -0.9342 -0.5903
 2354TIP3    H1 7068   3.830   5.005   2.976  0.3592 -0.1860 -0.7451
 2354TIP3    H2 7069   3.749   5.127   3.013 -0.6184 -1.0089 -0.1054
 2355TIP3   OH2 7070   5.083   4.567   4.643  0.5237  0.8048 -0.3161
 2355TIP3    H1 7071   5.170   4.606   4.643  1.2053 -0.6632 -1.1333
 2355TIP3    H2 7072   5.040   4.603   4.565  1.0275  0.1853 -0.8814
 2356TIP3   OH2 7073   1.185   2.749   1.177 -0.0895 -0.8727 -0.0741
 2356TIP3    H1 7074   1.139   2.672   1.143  0.5212 -1.4080  0.2972
 2356TIP3    H2 7075   1.127   2.822   1.156  0.0410 -1.2267 -1.8226
 2357TIP3   OH2 7076   0.607   0.565   1.764  0.3045  0.2013 -0.3490
 2357TIP3    H1 7077   0.686   0.567   1.709  0.5134  1.4677 -0.0482
 2357TIP3    H2 7078   0.640   0.579   1.852  0.0699 -2.7089  0.3008
 2358TIP3   OH2 7079   1.947   0.615   0.105 -0.0084 -0.6001  0.0534
 2358TIP3    H1 7080   1.908   0.682   0.161  0.5333 -0.0759 -0.1778
 2358TIP3    H2 7081   1.987   0.665   0.033 -2.3375 -1.3356 -1.8899
 2359TIP3   OH2 7082   5.659   4.282   3.411  0.3510 -0.4010  0.5559
 2359TIP3    H1 7083   5.750   4.309   3.398 -0.0291  1.3134  1.1976
 2359TIP3    H2 7084   5.607   4.359   3.387 -0.8735 -0.9161  1.4220
 2360TIP3   OH2 7085   3.208   0.221   2.458  0.4365  0.1925 -0.4248
 2360TIP3    H1 7086   3.199   0.304   2.504 -0.8795 -0.4201  0.4917
 2360TIP3    H2 7087   3.119   0.186   2.454  0.8976 -0.9548 -1.1986
 2361TIP3   OH2 7088   1.695   3.675   3.348  0.4308  0.0667  0.3389
 2361TIP3    H1 7089   1.604   3.650   3.337  0.6319 -0.4007 -0.3318
 2361TIP3    H2 7090   1.692   3.770   3.362 -0.0376  0.4131 -1.7572
 2362TIP3   OH2 7091   5.544   5.506   2.781  0.5365  0.0994 -0.0337
 2362TIP3    H1 7092   5.535   5.468   2.869  1.1354 -0.3005 -0.1377
 2362TIP3    H2 7093   5.468   5.475   2.733  0.3188  0.1426  0.2794
 2363TIP3   OH2 7094   1.991   0.842   2.539  0.1843  0.5221  0.3808
 2363TIP3    H1 7095   2.008   0.750   2.558  1.9572  0.5596 -0.7088
 2363TIP3    H2 7096   1.897   0.853   2.551  0.1937 -1.0063  2.2024
 2364TIP3   OH2 7097   4.806   5.589   2.504  0.2080 -0.2311 -0.4444
 2364TIP3    H1 7098   4.743   5.518   2.514  0.3715 -0.1661  1.4590
 2364TIP3    H2 7099   4.859   5.585   2.584 -0.1964  2.4111  0.0541
 2365TIP3   OH2 7100   0.605   4.687   5.118 -0.6308  0.5119 -0.2000
 2365TIP3    H1 7101   0.545   4.629   5.071  0.4039  1.9092 -3.5444
 2365TIP3    H2 7102   0.688   4.639   5.118 -0.2718  1.1130 -1.1634
 2366TIP3   OH2 7103   6.305   1.465   0.130  0.3243 -0.4680 -0.0631
 2366TIP3    H1 7104   6.289   1.512   0.212  1.9093 -0.9621  0.5668
 2366TIP3    H2 7105   6.250   1.387   0.138  0.9932 -0.8714  0.8886
 2367TIP3   OH2 7106   4.330   2.229   4.230 -0.0110 -0.0464 -0.2935
 2367TIP3    H1 7107   4.256   2.289   4.243  0.6819  0.5739  1.0300
 2367TIP3    H2 7108   4.369   2.256   4.146 -0.6955  0.2596 -0.5166
 2368TIP3   OH2 7109   4.517   2.511   2.647 -0.9273 -0.1149  0.2073
 2368TIP3    H1 7110   4.571   2.588   2.627 -0.1467  0.1789  2.9838
 2368TIP3    H2 7111   4.567   2.437   2.612  0.9699  0.2386  1.9555
 2369TIP3   OH2 7112   0.184   3.038   1.930  0.0624  0.2414 -0.0577
 2369TIP3    H1 7113   0.236   3.117   1.945  1.0829 -0.4780  0.2607
 2369TIP3    H2 7114   0.234   2.968   1.971 -1.1757 -0.4781  0.2778
 2370TIP3   OH2 7115   2.643   3.769   0.273  0.3037  0.0473 -0.1668
 2370TIP3    H1 7116   2.576   3.701   0.281  0.0024  0.4308  0.6147
 2370TIP3    H2 7117   2.595   3.851   0.270  0.7076  0.2856 -0.2796
 2371TIP3   OH2 7118   5.274   1.297   1.721  0.0725  0.1924 -0.0402
 2371TIP3    H1 7119   5.295   1.285   1.628 -0.1068  1.9797 -0.3383
 2371TIP3    H2 7120   5.186   1.259   1.730 -0.4554  1.1481 -0.9090
 2372TIP3   OH2 7121   1.990   3.924   3.798  0.3507 -0.4408 -0.2041
 2372TIP3    H1 7122   1.898   3.941   3.820  0.9088  0.0147  2.0260
 2372TIP3    H2 7123   2.000   3.829   3.807  0.1230 -0.4737 -0.2939
 2373TIP3   OH2 7124   2.955   1.849   2.842 -0.0369 -0.3251 -0.1822
 2373TIP3    H1 7125   2.878   1.906   2.841 -0.2553 -0.6159  0.1310
 2373TIP3    H2 7126   3.016   1.891   2.781 -0.8983 -0.7178 -1.3573
 2374TIP3   OH2 7127   6.097   2.131   2.642 -0.2708 -0.2336  0.1106
 2374TIP3    H1 7128   6.050   2.177   2.573 -1.0482  0.3117  0.9772
 2374TIP3    H2 7129   6.164   2.080   2.596 -0.6002  0.3159 -1.0116
 2375TIP3   OH2 7130   4.385   3.393   3.346 -0.1264  0.2718 -0.0189
 2375TIP3    H1 7131   4.367   3.482   3.317  0.7536  0.2606 -0.6153
 2375TIP3    H2 7132   4.419   3.403   3.435 -2.3409  0.3359  0.8878
 2376TIP3   OH2 7133   3.450   4.619   2.769 -0.3318 -0.6516 -0.1286
 2376TIP3    H1 7134   3.409   4.706   2.776 -0.8418 -0.9735  1.3191
 2376TIP3    H2 7135   3.482   4.601   2.857 -1.1400 -2.3660 -0.1572
 2377TIP3   OH2 7136   0.836   2.322   4.270 -0.8642 -0.3423  0.0408
 2377TIP3    H1 7137   0.834   2.411   4.307 -0.9440  0.2654 -1.3735
 2377TIP3    H2 7138   0.844   2.265   4.347 -1.0863  0.8636  1.0006
 2378TIP3   OH2 7139   2.444   2.743   0.452 -0.0758  0.2111 -0.7673
 2378TIP3    H1 7140   2.416   2.832   0.435  0.5534  0.3480 -1.1245
 2378TIP3    H2 7141   2.366   2.699   0.486  0.0512  1.3484  1.1074
 2379TIP3   OH2 7142   4.909   0.053   3.328 -0.5613  0.6759 -0.0241
 2379TIP3    H1 7143   4.864   0.049   3.412  0.9208 -0.7673  0.7451
 2379TIP3    H2 7144   5.002   0.062   3.350 -0.1718  0.5416 -1.5007
 2380TIP3   OH2 7145   4.573   5.601   4.905  0.8565 -0.2099  0.1542
 2380TIP3    H1 7146   4.582   5.588   5.000  0.7334  1.1179  0.3663
 2380TIP3    H2 7147   4.621   5.682   4.888 -0.4879  0.4495 -0.6543
 2381TIP3   OH2 7148   3.794   5.789   2.239  0.0354  0.0965  0.3176
 2381TIP3    H1 7149   3.791   5.712   2.184  0.0410  0.2874  0.0484
 2381TIP3    H2 7150   3.855   5.766   2.310  1.9929  0.6809 -1.0633
 2382TIP3   OH2 7151   0.461   3.007   1.301  0.1021  0.2016  0.1855
 2382TIP3    H1 7152   0.412   3.039   1.225 -1.1762  0.9162  1.2675
 2382TIP3    H2 7153   0.427   2.919   1.316  1.3121 -0.4602 -0.8535
 2383TIP3   OH2 7154   1.478   4.768   2.959 -0.0445 -0.3283  0.6875
 2383TIP3    H1 7155   1.413   4.831   2.988  1.2163  0.6875  1.4152
 2383TIP3    H2 7156   1.498   4.715   3.036  0.1838 -0.4564  0.5450
 2384TIP3   OH2 7157   5.354   0.235   3.429  0.4238  0.6447  0.3828
 2384TIP3    H1 7158   5.396   0.274   3.506  1.0353  2.0521 -0.6184
 2384TIP3    H2 7159   5.393   0.281   3.355 -0.7472 -0.1107 -0.7430
 2385TIP3   OH2 7160   2.698   3.291   1.947  0.2739  0.1594  0.0583
 2385TIP3    H1 7161   2.718   3.270   2.039  1.4436  0.4591 -0.1125
 2385TIP3    H2 7162   2.767   3.352   1.921 -0.1630  0.2260 -0.9674
 2386TIP3   OH2 7163   0.519   1.626   3.200 -0.1592 -0.2170 -0.0300
 2386TIP3    H1 7164   0.424   1.626   3.201 -0.3389 -4.0439  0.1039
 2386TIP3    H2 7165   0.542   1.625   3.107 -0.3747 -0.8178 -0.0854
 2387TIP3   OH2 7166   4.870   5.748   2.293  0.4546 -0.4798 -0.1536
 2387TIP3    H1 7167   4.936   5.798   2.341 -1.5882  1.8300  0.4754
 2387TIP3    H2 7168   4.832   5.689   2.358 -0.5911  0.8642  0.5074
 2388TIP3   OH2 7169   1.308   2.828   1.415 -0.5025  0.3240  0.3231
 2388TIP3    H1 7170   1.255   2.906   1.399 -1.6261 -0.4562  0.1216
 2388TIP3    H2 7171   1.303   2.778   1.334  0.0801 -0.0356  0.5028
 2389TIP3   OH2 7172   6.104   0.727   4.022 -0.3207 -0.0125  0.1065
 2389TIP3    H1 7173   6.116   0.714   3.928 -1.9824 -2.0227  0.1049
 2389TIP3    H2 7174   6.123   0.642   4.061  0.7801  0.9020  1.6942
 2390TIP3   OH2 7175   2.646   3.149   2.580 -0.0664  0.0097  0.0488
 2390TIP3    H1 7176   2.684   3.153   2.668 -1.0066 -0.5552  0.5021
 2390TIP3    H2 7177   2.651   3.239   2.548  0.7681  0.1226  0.4614
 2391TIP3   OH2 7178   4.100   0.094   1.202  0.6213 -0.7887 -0.1738
 2391TIP3    H1 7179   4.041   0.149   1.151  1.2766  0.3368  0.2401
 2391TIP3    H2 7180   4.183   0.097   1.154  0.5567 -1.7783 -0.3725
 2392TIP3   OH2 7181   4.447   0.998   3.124  0.1877 -0.1131 -0.2477
 2392TIP3    H1 7182   4.408   0.942   3.056  0.0346  1.7719 -1.8034
 2392TIP3    H2 7183   4.523   1.037   3.081 -1.3220  3.0811 -0.2931
 2393TIP3   OH2 7184   0.910   1.483   3.369  0.4569  0.2524  0.1883
 2393TIP3    H1 7185   0.880   1.495   3.459 -2.1529  3.2480 -0.8910
 2393TIP3    H2 7186   1.000   1.517   3.368  0.9966 -0.9986  1.8342
 2394TIP3   OH2 7187   2.913   4.008   4.125 -0.0615 -0.0609  0.0690
 2394TIP3    H1 7188   2.903   3.962   4.042  0.0986 -0.0794  0.0595
 2394TIP3    H2 7189   2.842   3.975   4.180 -0.8403  0.7535 -0.4221
 2395TIP3   OH2 7190   4.594   0.525   4.910  0.7605  0.2025 -0.7148
 2395TIP3    H1 7191   4.644   0.607   4.912  0.7024  0.2492 -1.0892
 2395TIP3    H2 7192   4.562   0.519   4.820 -0.7531  0.6706 -0.2384
 2396TIP3   OH2 7193   3.081   5.443   1.442 -0.7271 -0.0033  0.0170
 2396TIP3    H1 7194   3.085   5.349   1.424 -0.7311  0.2858 -1.6028
 2396TIP3    H2 7195   3.118   5.484   1.364  0.5579  1.3166  1.2726
 2397TIP3   OH2 7196   1.621   0.767   1.178  0.0732  0.0071 -0.5464
 2397TIP3    H1 7197   1.709   0.757   1.141  0.0858 -0.0554 -0.4998
 2397TIP3    H2 7198   1.563   0.724   1.116  0.0296  0.4090 -0.7829
 2398TIP3   OH2 7199   0.500   0.776   4.396  0.4436 -0.6041 -0.4060
 2398TIP3    H1 7200   0.501   0.701   4.337 -0.4151  0.9474 -2.5299
 2398TIP3    H2 7201   0.566   0.836   4.360  2.1729 -0.8756  2.0855
 2399TIP3   OH2 7202   1.017   2.700   2.613 -0.2990  0.2522  0.0372
 2399TIP3    H1 7203   0.943   2.648   2.582  0.5812  0.5012 -2.7344
 2399TIP3    H2 7204   1.049   2.654   2.690 -2.0782 -0.9685  0.0979
 2400TIP3   OH2 7205   0.556   2.420   5.115  0.1058  0.3099 -0.1743
 2400TIP3    H1 7206   0.610   2.494   5.143  1.5301 -0.9726  0.5909
 2400TIP3    H2 7207   0.616   2.347   5.108 -1.7171 -1.6582  2.4611
 2401TIP3   OH2 7208   2.111   1.566   0.599 -0.6257 -0.3375 -0.1832
 2401TIP3    H1 7209   2.158   1.628   0.542  0.9364 -0.2398  1.1428
 2401TIP3    H2 7210   2.041   1.618   0.638 -1.9888 -0.5032 -2.2527
 2402TIP3   OH2 7211   1.660   4.616   1.458 -0.2130 -0.5509  0.0322
 2402TIP3    H1 7212   1.734   4.667   1.491 -0.7375  0.3496 -0.1547
 2402TIP3    H2 7213   1.690   4.584   1.373 -0.3385  0.5401 -0.4376
 2403TIP3   OH2 7214   0.945   2.664   1.344 -0.0286 -0.2338  0.3660
 2403TIP3    H1 7215   0.896   2.641   1.264  0.0689  1.0452 -0.0909
 2403TIP3    H2 7216   1.025   2.611   1.339 -0.2859 -0.5919 -0.0939
 2404TIP3   OH2 7217   5.165   4.795  -0.010  0.2754 -0.5614 -0.3417
 2404TIP3    H1 7218   5.188   4.735   0.061 -0.1146 -1.1514 -0.7070
 2404TIP3    H2 7219   5.211   4.876   0.012 -0.6862 -0.3787  1.1752
 2405TIP3   OH2 7220   4.113   0.928   1.131  0.3946 -0.4725  0.2347
 2405TIP3    H1 7221   4.075   0.843   1.155 -0.8453 -0.1777 -0.6116
 2405TIP3    H2 7222   4.059   0.992   1.177  0.0047 -0.0593 -0.7705
 2406TIP3   OH2 7223   1.051   0.317   1.508 -0.1047 -0.0923  0.3311
 2406TIP3    H1 7224   1.100   0.357   1.580 -0.4902  1.0315 -0.0157
 2406TIP3    H2 7225   1.105   0.242   1.481  1.0423  0.6759  0.4515
 2407TIP3   OH2 7226   1.219   3.928   1.215  0.2489 -0.0196  0.0332
 2407TIP3    H1 7227   1.246   3.846   1.256  1.1583  0.6077  0.7220
 2407TIP3    H2 7228   1.179   3.901   1.132 -1.5580 -1.3118  1.2598
 2408TIP3   OH2 7229   5.032   0.141   2.881  0.4509 -0.4098  0.5722
 2408TIP3    H1 7230   4.996   0.165   2.796  0.8456 -0.2650  0.4429
 2408TIP3    H2 7231   4.962   0.091   2.924 -0.1652  0.4703  0.6102
 2409TIP3   OH2 7232   2.159   1.930   1.816  0.3321  0.2597 -0.1289
 2409TIP3    H1 7233   2.216   1.885   1.879  1.4524  1.1141 -0.4931
 2409TIP3    H2 7234   2.143   2.016   1.855  0.4597  0.5377 -0.6714
 2410TIP3   OH2 7235   2.561   5.738   2.282  0.1584 -0.2591  0.2068
 2410TIP3    H1 7236   2.613   5.804   2.330  0.9239 -1.0309  0.4541
 2410TIP3    H2 7237   2.626   5.679   2.244 -0.3372  1.1150 -3.0513
 2411TIP3   OH2 7238   3.087   0.881   5.178  0.5092 -0.1434  0.3459
 2411TIP3    H1 7239   3.109   0.973   5.163 -1.7755  0.6853  1.6503
 2411TIP3    H2 7240   3.008   0.867   5.126 -0.3871 -0.7167  1.8050
 2412TIP3   OH2 7241   3.474   0.108   4.936 -0.0541 -0.5699  0.6059
 2412TIP3    H1 7242   3.414   0.181   4.922 -0.5713 -0.9929  0.5893
 2412TIP3    H2 7243   3.541   0.118   4.868  0.0117  0.0197  0.7547
 2413TIP3   OH2 7244   3.851   5.809   3.725 -0.3900 -0.2540  0.3207
 2413TIP3    H1 7245   3.841   5.886   3.782  0.6631  0.5681 -0.5473
 2413TIP3    H2 7246   3.761   5.782   3.706 -0.7744  0.3886  1.1419
 2414TIP3   OH2 7247   5.778   2.347   1.883 -0.2412 -0.0613  0.0262
 2414TIP3    H1 7248   5.745   2.428   1.845 -0.3766 -0.3079 -0.3909
 2414TIP3    H2 7249   5.872   2.352   1.872 -0.1118  0.6985  1.3255
 2415TIP3   OH2 7250   4.839   0.863   0.071  1.0149 -0.1116 -0.4251
 2415TIP3    H1 7251   4.892   0.834   0.145  0.3108  0.3730  0.2796
 2415TIP3    H2 7252   4.789   0.937   0.105  0.3333 -0.1798 -1.2574
 2416TIP3   OH2 7253   5.926   4.159   2.779  0.3329 -0.6926  0.2154
 2416TIP3    H1 7254   5.976   4.081   2.806  0.1111 -0.7478  0.4779
 2416TIP3    H2 7255   5.836   4.128   2.773  0.1961 -0.3841  0.6237
 2417TIP3   OH2 7256   2.708   4.801   5.036  0.8013 -0.1309 -0.8989
 2417TIP3    H1 7257   2.614   4.811   5.049  0.3079 -2.9741 -1.5907
 2417TIP3    H2 7258   2.733   4.874   4.981 -0.5930  1.7349  0.7781
 2418TIP3   OH2 7259   5.634   1.949   1.107 -0.1827 -0.6113  0.2916
 2418TIP3    H1 7260   5.619   1.946   1.012 -2.2549 -0.9027  0.5707
 2418TIP3    H2 7261   5.557   1.906   1.144 -0.0476  0.6668  2.1553
 2419TIP3   OH2 7262   0.912   3.608   1.261 -0.2072  0.1066  0.8695
 2419TIP3    H1 7263   0.837   3.661   1.288 -0.5227 -0.5465  1.2926
 2419TIP3    H2 7264   0.925   3.546   1.332  1.7043  1.1598  1.5205
 2420TIP3   OH2 7265   6.087   0.137   0.183 -0.1627  0.3920  0.3667
 2420TIP3    H1 7266   6.030   0.161   0.109  0.6114  0.5304 -0.1994
 2420TIP3    H2 7267   6.026   0.107   0.251 -0.8697 -0.1048 -0.4566
 2421TIP3   OH2 7268   2.925   5.026   0.662  0.2938 -0.4167  0.1961
 2421TIP3    H1 7269   2.874   4.955   0.623 -3.8469  2.1831  0.2606
 2421TIP3    H2 7270   2.939   5.088   0.591  1.3602 -0.0039  0.7441
 2422TIP3   OH2 7271   2.182   3.545   4.415  0.5312 -0.3452 -0.1495
 2422TIP3    H1 7272   2.185   3.484   4.488 -0.5424 -1.3703 -0.9255
 2422TIP3    H2 7273   2.116   3.610   4.441  0.2573 -0.6255 -0.1456
 2423TIP3   OH2 7274   1.157   0.370   2.113  0.4092 -0.1097  0.8363
 2423TIP3    H1 7275   1.102   0.334   2.182 -0.2553 -0.2592  0.2502
 2423TIP3    H2 7276   1.243   0.329   2.126 -0.5667 -2.8524 -0.4574
 2424TIP3   OH2 7277   5.841   3.666   1.473 -0.1712 -0.1971 -0.4098
 2424TIP3    H1 7278   5.856   3.760   1.486  0.1220  0.0951 -2.4923
 2424TIP3    H2 7279   5.927   3.626   1.486 -0.6332 -0.5180  2.4230
 2425TIP3   OH2 7280   2.932   4.114   3.303  0.1801 -0.4080  0.4556
 2425TIP3    H1 7281   2.850   4.067   3.291 -0.5780  0.5376  1.6709
 2425TIP3    H2 7282   2.951   4.153   3.218 -0.5286 -0.8023  0.1153
 2426TIP3   OH2 7283   1.668   3.863   3.683  0.0442  0.3812  0.6649
 2426TIP3    H1 7284   1.574   3.849   3.684  0.2207 -0.9930  0.6169
 2426TIP3    H2 7285   1.693   3.874   3.775 -0.1173  0.4238  0.7027
 2427TIP3   OH2 7286   3.746   4.688   0.432  0.0244 -0.0019 -0.2806
 2427TIP3    H1 7287   3.696   4.650   0.359  0.4956 -0.0464 -0.5809
 2427TIP3    H2 7288   3.701   4.771   0.449  0.4195  0.4190 -1.1963
 2428TIP3   OH2 7289   1.951   0.622   1.753  0.2268 -0.4619 -0.0885
 2428TIP3    H1 7290   1.929   0.712   1.727 -0.5814 -0.4646  0.5487
 2428TIP3    H2 7291   2.046   0.620   1.751  0.3897  1.0635  1.9225
 2429TIP3   OH2 7292   5.950   3.698   1.188 -0.9876 -0.0511 -0.4047
 2429TIP3    H1 7293   5.975   3.767   1.249 -0.5453  1.6026 -2.3277
 2429TIP3    H2 7294   6.021   3.634   1.194  0.3880  1.3529 -0.9917
 2430TIP3   OH2 7295   3.017   3.738   3.672 -0.9846  0.2855 -0.2360
 2430TIP3    H1 7296   2.988   3.751   3.762  2.6557  0.2186  1.1485
 2430TIP3    H2 7297   3.026   3.826   3.637  0.8458  0.5496  0.7594
 2431TIP3   OH2 7298   6.238   0.732   1.510 -0.2551 -0.3474  0.1579
 2431TIP3    H1 7299   6.297   0.802   1.535 -1.1439  0.1043  1.0907
 2431TIP3    H2 7300   6.198   0.704   1.593 -0.5262 -1.3818 -0.3038
 2432TIP3   OH2 7301   5.422   4.580   2.415 -0.3253  0.0101 -0.7421
 2432TIP3    H1 7302   5.508   4.621   2.409 -1.2502  2.5856  1.5101
 2432TIP3    H2 7303   5.414   4.528   2.335  3.3246 -0.4266 -0.9606
 2433TIP3   OH2 7304   3.626   3.826   4.042 -0.0842 -0.5392  0.6216
 2433TIP3    H1 7305   3.653   3.912   4.073 -1.7278  0.3551 -0.3393
 2433TIP3    H2 7306   3.537   3.814   4.075 -0.6598 -0.9528 -0.9646
 2434TIP3   OH2 7307   4.858   3.783   4.741  0.2508  0.2118  0.5354
 2434TIP3    H1 7308   4.841   3.877   4.738  0.5355  0.2527  0.0504
 2434TIP3    H2 7309   4.800   3.750   4.809  0.7667  0.8683  1.3191
 2435TIP3   OH2 7310   2.541   0.806   1.604  0.2061  0.9107 -0.0141
 2435TIP3    H1 7311   2.533   0.796   1.509  0.7621 -0.5404  0.0653
 2435TIP3    H2 7312   2.634   0.792   1.622  0.0818  1.0253  0.7648
 2436TIP3   OH2 7313   3.900   0.106   3.926 -0.2357 -0.3529  0.6266
 2436TIP3    H1 7314   3.915   0.029   3.981  0.2010  0.9367  2.3782
 2436TIP3    H2 7315   3.835   0.158   3.974 -1.7564 -0.3572 -1.3079
 2437TIP3   OH2 7316   1.410   3.763   4.528  0.2299 -0.0439  0.2954
 2437TIP3    H1 7317   1.350   3.705   4.483 -0.1673  0.4511  0.1772
 2437TIP3    H2 7318   1.496   3.743   4.491  0.0961 -0.5297  0.2415
 2438TIP3   OH2 7319   4.339   2.859   1.489 -0.5157  0.6045  0.1619
 2438TIP3    H1 7320   4.260   2.806   1.500 -0.6559  0.3750 -1.5616
 2438TIP3    H2 7321   4.369   2.878   1.578 -1.9142 -0.1942  0.8301
 2439TIP3   OH2 7322   4.597   1.883   2.377  0.2300  0.1970  0.3585
 2439TIP3    H1 7323   4.558   1.836   2.303  1.5704 -0.0903 -0.1893
 2439TIP3    H2 7324   4.537   1.867   2.450 -0.6967 -0.1734 -0.4688
 2440TIP3   OH2 7325   2.108   0.585   4.590 -0.2208 -0.4599  0.1863
 2440TIP3    H1 7326   2.128   0.608   4.499 -0.2229  0.4820  0.4191
 2440TIP3    H2 7327   2.193   0.567   4.629 -0.1279  0.1248  0.2593
 2441TIP3   OH2 7328   4.808   3.322   3.683  0.1439 -0.2490 -0.9527
 2441TIP3    H1 7329   4.720   3.360   3.679  0.8934  1.8176  0.1795
 2441TIP3    H2 7330   4.842   3.331   3.595  0.1191  1.3944 -0.8287
 2442TIP3   OH2 7331   4.989   0.580   4.389  0.1294 -0.1338  0.1931
 2442TIP3    H1 7332   4.963   0.534   4.309 -2.2815  3.7745 -1.5758
 2442TIP3    H2 7333   4.941   0.535   4.459  0.6253 -2.3474 -0.8119
 2443TIP3   OH2 7334   4.421   2.914   2.053  0.0733 -0.6381 -0.5888
 2443TIP3    H1 7335   4.344   2.944   2.102  1.0092  1.5633 -0.3891
 2443TIP3    H2 7336   4.417   2.818   2.059 -0.7759 -0.5035  2.3579
 2444TIP3   OH2 7337   5.377   2.491   3.135 -0.3278 -0.0767  0.4914
 2444TIP3    H1 7338   5.395   2.481   3.228 -1.0982 -1.2074  0.5412
 2444TIP3    H2 7339   5.346   2.581   3.126 -1.0691 -0.2146  1.4725
 2445TIP3   OH2 7340   5.994   0.134   1.187 -0.1919  0.0232 -0.1294
 2445TIP3    H1 7341   5.919   0.093   1.231  0.5040  0.0477  1.1193
 2445TIP3    H2 7342   5.955   0.188   1.118 -1.2339 -1.1697 -0.5076
 2446TIP3   OH2 7343   3.333   1.671   0.057  0.2427 -0.1884  0.0673
 2446TIP3    H1 7344   3.374   1.749   0.020 -0.0391 -1.7734 -4.0740
 2446TIP3    H2 7345   3.244   1.699   0.077  0.4975  0.8487 -0.1708
 2447TIP3   OH2 7346   3.853   3.823   2.211 -0.0470  0.0665  0.2836
 2447TIP3    H1 7347   3.819   3.837   2.122  0.3855 -1.5523 -0.1792
 2447TIP3    H2 7348   3.948   3.823   2.201 -0.0001 -0.4843  0.6789
 2448TIP3   OH2 7349   0.225   2.093   0.903  0.4806  0.4529 -0.2401
 2448TIP3    H1 7350   0.306   2.120   0.860 -0.2178 -0.0408 -1.9461
 2448TIP3    H2 7351   0.183   2.175   0.929  0.7144  0.7868 -0.9096
 2449TIP3   OH2 7352   6.093   0.333   4.431  0.2937  0.7168  0.4435
 2449TIP3    H1 7353   6.108   0.273   4.505  1.0785  1.6708  1.0893
 2449TIP3    H2 7354   5.999   0.325   4.413  0.3952 -0.7678  0.4460
 2450TIP3   OH2 7355   0.885   5.819   3.206 -0.6637 -0.5641  0.0796
 2450TIP3    H1 7356   0.814   5.813   3.142  0.2974 -0.5718 -1.0325
 2450TIP3    H2 7357   0.961   5.782   3.161  0.0657 -0.4924  1.2091
 2451TIP3   OH2 7358   0.480   4.182   3.464 -0.2385 -0.0172  0.7883
 2451TIP3    H1 7359   0.504   4.182   3.557 -0.4962  0.5074  0.8547
 2451TIP3    H2 7360   0.475   4.275   3.440 -1.4117 -0.1270  0.5675
 2452TIP3   OH2 7361   0.673   0.715   0.750  0.7470  0.5894 -0.4305
 2452TIP3    H1 7362   0.633   0.747   0.669 -2.6547 -1.3749  0.2722
 2452TIP3    H2 7363   0.602   0.669   0.795  2.7664  0.6512  3.1976
 2453TIP3   OH2 7364   5.957   2.510   2.402 -0.0445  0.0852 -0.7950
 2453TIP3    H1 7365   6.007   2.591   2.391  0.4207 -0.2073 -0.8443
 2453TIP3    H2 7366   5.865   2.538   2.395  0.0546  0.8090  0.4653
 2454TIP3   OH2 7367   3.916   1.766   4.629 -0.3427 -0.4411 -0.3484
 2454TIP3    H1 7368   3.862   1.770   4.551 -0.1729 -0.6093 -0.4759
 2454TIP3    H2 7369   3.859   1.727   4.696  0.3151 -2.9279 -1.1009
 2455TIP3   OH2 7370   5.367   1.014   2.034 -0.1389 -0.3266 -0.2681
 2455TIP3    H1 7371   5.346   0.975   1.950 -0.3065  0.4283 -0.5872
 2455TIP3    H2 7372   5.310   1.091   2.040 -0.4653 -0.6215  0.7394
 2456TIP3   OH2 7373   2.444   4.013   2.862  0.2273  0.0569 -0.1732
 2456TIP3    H1 7374   2.539   4.027   2.867  0.3824 -1.0256  0.2974
 2456TIP3    H2 7375   2.406   4.095   2.891  1.0485 -0.1826  1.7621
 2457TIP3   OH2 7376   3.181   5.580   1.236 -0.0827 -0.2996 -0.5200
 2457TIP3    H1 7377   3.239   5.550   1.166  0.3833 -0.8810  0.0941
 2457TIP3    H2 7378   3.210   5.670   1.254  1.6634 -1.0462  0.7710
 2458TIP3   OH2 7379   2.245   2.056   4.615 -0.0283 -0.5781 -0.4695
 2458TIP3    H1 7380   2.170   2.064   4.675  0.4783 -0.1146  0.1253
 2458TIP3    H2 7381   2.236   2.131   4.556  0.2059 -0.2542 -0.1052
 2459TIP3   OH2 7382   0.800   0.319   3.804  0.4733  0.0943 -0.1446
 2459TIP3    H1 7383   0.783   0.396   3.750  2.3121  0.6367 -0.0252
 2459TIP3    H2 7384   0.763   0.246   3.754 -1.5964  1.0408 -0.0987
 2460TIP3   OH2 7385   1.403   1.308   4.348 -0.3138  0.0545 -0.1893
 2460TIP3    H1 7386   1.447   1.288   4.265  1.2208 -0.6226  0.7523
 2460TIP3    H2 7387   1.379   1.401   4.340 -1.1106 -0.2447 -1.7656
 2461TIP3   OH2 7388   5.384   2.802   2.738  0.1474  0.1650 -0.4935
 2461TIP3    H1 7389   5.430   2.730   2.781  0.5081  0.8806  0.3718
 2461TIP3    H2 7390   5.389   2.874   2.802 -1.5111  0.4956 -0.7006
 2462TIP3   OH2 7391   1.134   2.609   3.423  0.3523 -0.0019  0.5823
 2462TIP3    H1 7392   1.053   2.559   3.419  1.4627 -1.8116 -0.7617
 2462TIP3    H2 7393   1.118   2.686   3.369 -0.0280 -1.0819 -0.9030
 2463TIP3   OH2 7394   4.075   0.813   3.271  0.3952 -0.7916  0.2601
 2463TIP3    H1 7395   4.113   0.879   3.329 -0.1779 -0.7338  0.5792
 2463TIP3    H2 7396   3.981   0.823   3.282  0.1957  0.3726 -1.9481
 2464TIP3   OH2 7397   0.460   3.720   4.376  0.4382  0.3714  0.4758
 2464TIP3    H1 7398   0.500   3.749   4.458 -1.7473  0.1615  1.6898
 2464TIP3    H2 7399   0.414   3.797   4.343 -0.8740 -0.2132  0.8673
 2465TIP3   OH2 7400   5.322   3.573   1.963  0.6083 -0.5854 -0.3643
 2465TIP3    H1 7401   5.314   3.482   1.934  1.4524 -0.5907 -0.6269
 2465TIP3    H2 7402   5.269   3.578   2.042  1.3389 -1.5799  0.2215
 2466TIP3   OH2 7403   0.837   0.010   0.939  0.5143  0.3481 -0.1841
 2466TIP3    H1 7404   0.926  -0.024   0.941  0.8488  1.1996 -0.1111
 2466TIP3    H2 7405   0.836   0.080   1.005 -0.1029  0.5812 -0.4276
 2467TIP3   OH2 7406   5.116   5.857   0.271 -0.0326 -0.3411  0.3248
 2467TIP3    H1 7407   5.035   5.866   0.321  0.4514 -2.0471  1.5143
 2467TIP3    H2 7408   5.146   5.946   0.257 -1.5589  0.2827  0.7694
 2468TIP3   OH2 7409   2.407   1.213   3.447 -0.2642  0.6876 -0.2607
 2468TIP3    H1 7410   2.327   1.178   3.486 -0.6210  0.1596 -1.4259
 2468TIP3    H2 7411   2.454   1.252   3.521 -1.2430  0.3591  0.5675
 2469TIP3   OH2 7412   2.464   4.137   5.020 -0.3441  0.5005 -0.4872
 2469TIP3    H1 7413   2.552   4.128   5.056 -1.4221  1.0866  2.5132
 2469TIP3    H2 7414   2.442   4.049   4.988 -0.0664 -0.6514  2.2581
 2470TIP3   OH2 7415   0.683   2.578   1.458  0.3139  0.0348  0.1326
 2470TIP3    H1 7416   0.773   2.611   1.448  0.1045  0.4257 -0.5370
 2470TIP3    H2 7417   0.641   2.641   1.515  1.0346 -1.2768  2.2036
 2471TIP3   OH2 7418   1.761   0.818   3.403 -0.1297  0.1520 -0.0938
 2471TIP3    H1 7419   1.760   0.877   3.327  0.9445  0.3290  0.0117
 2471TIP3    H2 7420   1.678   0.771   3.398  0.0365 -0.0312 -1.5349
 2472TIP3   OH2 7421   2.312   4.243   2.944  0.4215 -0.1340  0.5985
 2472TIP3    H1 7422   2.363   4.308   2.992 -0.3704  0.7086  0.3089
 2472TIP3    H2 7423   2.224   4.280   2.938  0.1452 -0.8849 -0.2370
 2473TIP3   OH2 7424   0.467   3.719   1.237  0.0893  0.0411  0.5417
 2473TIP3    H1 7425   0.388   3.772   1.245 -0.8589 -0.4372 -3.4580
 2473TIP3    H2 7426   0.435   3.633   1.208  1.9796 -0.7281  0.5694
 2474TIP3   OH2 7427   5.973   2.248   2.428  0.2402  0.2342  0.1087
 2474TIP3    H1 7428   5.885   2.215   2.410  0.4420 -0.5118  0.4176
 2474TIP3    H2 7429   5.967   2.342   2.417 -0.5027  0.1488 -0.2662
 2475TIP3   OH2 7430   0.807   4.363   2.819  0.0022 -0.1669 -0.1273
 2475TIP3    H1 7431   0.793   4.269   2.828  0.0690 -0.1988 -0.3604
 2475TIP3    H2 7432   0.826   4.376   2.727 -2.0115  0.3418 -0.5294
 2476TIP3   OH2 7433   0.049   3.440   1.254  0.3719  0.3358 -0.5857
 2476TIP3    H1 7434  -0.026   3.500   1.253  0.7956  0.8778 -0.6036
 2476TIP3    H2 7435   0.090   3.451   1.169  1.2091  1.0152 -0.1186
 2477TIP3   OH2 7436   5.924   1.579   1.557  0.2975 -0.0067 -0.2192
 2477TIP3    H1 7437   6.008   1.567   1.603 -0.1756 -3.2899  0.0235
 2477TIP3    H2 7438   5.922   1.508   1.493 -2.1761  0.1662 -0.4146
 2478TIP3   OH2 7439   0.299   3.106   2.510  0.5738 -0.0753 -0.3169
 2478TIP3    H1 7440   0.379   3.155   2.528  1.0134 -0.7756 -0.3550
 2478TIP3    H2 7441   0.312   3.071   2.422  0.3034 -0.3465 -0.2479
 2479TIP3   OH2 7442   6.059   1.724   5.063  0.2973  0.6884 -0.0160
 2479TIP3    H1 7443   6.010   1.755   4.988  0.5073 -1.2739 -1.0226
 2479TIP3    H2 7444   6.148   1.756   5.049  0.4716 -0.1656 -0.9351
 2480TIP3   OH2 7445   3.507   2.788   1.890  0.0092 -0.4067 -0.4125
 2480TIP3    H1 7446   3.416   2.786   1.862  0.5162  0.5775 -2.3404
 2480TIP3    H2 7447   3.531   2.881   1.888  0.8404 -0.5645  0.8797
 2481TIP3   OH2 7448   3.195   0.166   3.737  0.9073  0.3663  0.0080
 2481TIP3    H1 7449   3.135   0.124   3.676 -0.2542 -0.4405  1.6408
 2481TIP3    H2 7450   3.236   0.094   3.784  1.7839  0.9706  0.1975
 2482TIP3   OH2 7451   4.089   4.000   3.836 -0.1396  0.5414  0.4339
 2482TIP3    H1 7452   4.035   3.930   3.798  0.4109  0.7075 -0.6836
 2482TIP3    H2 7453   4.080   4.073   3.774  0.9632  0.7353  0.4967
 2483TIP3   OH2 7454   0.270   0.076   3.381 -0.3841 -0.0888  0.2233
 2483TIP3    H1 7455   0.311   0.008   3.328 -0.2389 -0.1841  0.4534
 2483TIP3    H2 7456   0.336   0.146   3.385 -0.7218  0.2757 -0.4181
 2484TIP3   OH2 7457   2.958   4.920   4.582 -0.2604 -0.1667  0.0317
 2484TIP3    H1 7458   2.990   4.926   4.492  0.3443  2.0436  0.3299
 2484TIP3    H2 7459   2.890   4.987   4.588 -0.7662 -0.7392  1.0559
 2485TIP3   OH2 7460   4.601   0.976   1.327 -0.1302 -0.3125  0.6011
 2485TIP3    H1 7461   4.693   0.962   1.350 -0.6727 -4.0035  1.3113
 2485TIP3    H2 7462   4.558   0.990   1.411 -0.5115 -1.2570  0.5755
 2486TIP3   OH2 7463   2.600   0.925   2.042 -0.5617 -0.0001  0.2683
 2486TIP3    H1 7464   2.563   0.961   1.961 -0.1245  0.8297  0.4181
 2486TIP3    H2 7465   2.653   0.997   2.077  0.4285 -0.8459  0.5438
 2487TIP3   OH2 7466   1.953   2.020   2.383 -0.4677 -0.1188  0.1083
 2487TIP3    H1 7467   1.897   2.097   2.369 -0.1619 -0.0325 -0.7020
 2487TIP3    H2 7468   1.970   1.987   2.295  1.2293  0.2050  0.2838
 2488TIP3   OH2 7469   2.277   3.681   1.385 -0.5034  0.2458 -0.3088
 2488TIP3    H1 7470   2.297   3.606   1.330  0.1712 -1.6975  2.3504
 2488TIP3    H2 7471   2.347   3.743   1.367 -0.3751 -0.2600 -1.6749
 2489TIP3   OH2 7472   2.179   0.011   4.604  0.0307  0.2862 -0.2185
 2489TIP3    H1 7473   2.224   0.095   4.599  1.3863 -0.3911  0.0531
 2489TIP3    H2 7474   2.128   0.015   4.684 -2.0322  1.8088 -1.5040
 2490TIP3   OH2 7475   1.653   0.172   1.515  0.5272 -0.0798 -0.0863
 2490TIP3    H1 7476   1.744   0.171   1.485  0.1426 -0.4663 -1.2716
 2490TIP3    H2 7477   1.642   0.258   1.555  1.2161  0.2216 -0.5384
 2491TIP3   OH2 7478   2.224   5.753   4.171  0.4102 -0.0257  0.7086
 2491TIP3    H1 7479   2.229   5.847   4.149  0.9713 -0.2381 -0.1443
 2491TIP3    H2 7480   2.307   5.734   4.214  0.6421 -0.2998  0.1515
 2492TIP3   OH2 7481   3.858   0.814   4.709  0.5421 -0.0118  0.4501
 2492TIP3    H1 7482   3.879   0.735   4.660 -0.2730 -0.4720  0.8338
 2492TIP3    H2 7483   3.907   0.883   4.664 -0.0303 -0.4448 -0.9031
 2493TIP3   OH2 7484   1.389   1.317   4.782 -0.2065 -0.2575  0.1835
 2493TIP3    H1 7485   1.407   1.235   4.735 -1.4946 -0.5000  0.0875
 2493TIP3    H2 7486   1.442   1.382   4.737  0.3696 -0.9255 -0.1278
 2494TIP3   OH2 7487   0.310   1.710   3.986  0.3462 -0.4327  0.3020
 2494TIP3    H1 7488   0.396   1.739   4.018  0.2590  2.1696 -1.5123
 2494TIP3    H2 7489   0.276   1.654   4.056  3.3251 -1.2728  1.2518
 2495TIP3   OH2 7490   3.047   4.644   0.537 -0.1746  0.3817  0.0736
 2495TIP3    H1 7491   3.101   4.692   0.601 -0.3534  2.1376 -1.0460
 2495TIP3    H2 7492   3.087   4.662   0.453 -2.0430  1.1114 -0.7155
 2496TIP3   OH2 7493   3.577   5.666   4.594  0.0014 -0.2988  0.6954
 2496TIP3    H1 7494   3.514   5.668   4.522  0.7846 -0.1575 -0.0061
 2496TIP3    H2 7495   3.607   5.757   4.602 -1.4230  0.0783  2.4504
 2497TIP3   OH2 7496   2.421   3.850  -0.009 -0.1891  0.1525  0.1875
 2497TIP3    H1 7497   2.409   3.930  -0.061  2.7717  0.0607 -0.8067
 2497TIP3    H2 7498   2.440   3.882   0.079  0.9369  0.5832 -0.1925
 2498TIP3   OH2 7499   1.690   1.030   5.118 -0.2826 -0.4005  0.4436
 2498TIP3    H1 7500   1.705   1.030   5.023  2.9332  3.2323  0.6705
 2498TIP3    H2 7501   1.765   0.982   5.154 -0.5194 -0.2355  1.1682
 2499TIP3   OH2 7502   0.155   5.118   0.424 -0.3346  0.7344 -0.7988
 2499TIP3    H1 7503   0.145   5.211   0.444  0.2836  1.3010 -2.8446
 2499TIP3    H2 7504   0.066   5.084   0.420 -0.5622  1.2129  0.0386
 2500TIP3   OH2 7505   6.093   4.299   2.627 -0.4571  0.1487 -0.0705
 2500TIP3    H1 7506   6.046   4.234   2.679  0.6331 -1.3616 -0.8814
 2500TIP3    H2 7507   6.026   4.344   2.577 -1.0876 -1.8558 -1.1051
 2501TIP3   OH2 7508   5.376   2.969   2.437 -0.1489 -0.2532 -0.1438
 2501TIP3    H1 7509   5.352   2.957   2.529 -1.1949 -0.9905 -0.4975
 2501TIP3    H2 7510   5.354   3.061   2.418 -2.1165 -0.7171 -0.2627
 2502TIP3   OH2 7511   5.657   4.986   3.136  0.3211 -0.1471 -0.2463
 2502TIP3    H1 7512   5.715   4.975   3.211 -0.4758  1.7936  0.7440
 2502TIP3    H2 7513   5.699   5.055   3.084 -0.5582  0.5414 -0.0577
 2503TIP3   OH2 7514   0.746   2.110   0.046 -1.0122 -0.2555 -0.0930
 2503TIP3    H1 7515   0.702   2.121   0.131 -1.0864  0.5693 -0.2315
 2503TIP3    H2 7516   0.699   2.168  -0.013 -1.7176 -1.7062 -1.0094
 2504TIP3   OH2 7517   0.785   4.523   3.368 -0.3250  0.3070  0.3777
 2504TIP3    H1 7518   0.801   4.467   3.292 -1.2873 -1.4965  1.4389
 2504TIP3    H2 7519   0.851   4.592   3.361  0.3971 -0.4975 -1.4189
 2505TIP3   OH2 7520   2.037   3.508   2.815 -0.2347 -0.1696 -0.6936
 2505TIP3    H1 7521   2.050   3.561   2.736  3.3294  0.8568  0.4241
 2505TIP3    H2 7522   2.084   3.427   2.797 -0.1780 -0.3013  0.0271
 2506TIP3   OH2 7523   5.203   2.175   4.364  0.5467  0.4751  0.3066
 2506TIP3    H1 7524   5.171   2.264   4.354 -1.0762 -0.2186 -1.4069
 2506TIP3    H2 7525   5.228   2.148   4.275  1.1650 -0.7157  0.8098
 2507TIP3   OH2 7526   5.810   5.712   1.438 -0.4867  0.6422  0.1675
 2507TIP3    H1 7527   5.813   5.726   1.532  0.7236  1.4146  0.0500
 2507TIP3    H2 7528   5.892   5.751   1.406 -1.1893  1.0136 -1.2740
 2508TIP3   OH2 7529   2.172   3.594   4.730  0.1214  0.0765  0.0064
 2508TIP3    H1 7530   2.108   3.558   4.791  0.5694  1.0132  1.0649
 2508TIP3    H2 7531   2.124   3.663   4.683 -0.5386 -1.3580 -1.5333
 2509TIP3   OH2 7532   2.412   2.623   2.284 -0.0942  0.4322 -0.4187
 2509TIP3    H1 7533   2.354   2.638   2.359 -1.7036 -1.6802 -1.1521
 2509TIP3    H2 7534   2.405   2.530   2.267  2.5423  0.3574 -1.4175
 2510TIP3   OH2 7535   0.179   5.284   3.184  0.4499 -0.3917  0.1458
 2510TIP3    H1 7536   0.268   5.319   3.179 -0.2972  1.5228 -1.0012
 2510TIP3    H2 7537   0.166   5.239   3.101  1.1737 -2.9878  1.3526
 2511TIP3   OH2 7538   2.166   0.209   2.136  0.0585 -0.1860  0.2633
 2511TIP3    H1 7539   2.134   0.283   2.086 -0.2038 -0.0214  0.6653
 2511TIP3    H2 7540   2.191   0.144   2.070  0.9263  0.5080 -0.1108
 2512TIP3   OH2 7541   1.178   3.109   1.504 -0.0232 -0.7018  0.0347
 2512TIP3    H1 7542   1.193   3.156   1.586 -1.3945 -0.5082  0.1895
 2512TIP3    H2 7543   1.213   3.167   1.436 -2.2118  0.8703  0.1664
 2513TIP3   OH2 7544   3.705   1.326   0.270 -0.6972  0.2389 -0.0234
 2513TIP3    H1 7545   3.654   1.363   0.343  2.0722  1.8305  1.2620
 2513TIP3    H2 7546   3.777   1.280   0.312 -1.1545 -2.2505 -1.7787
 2514TIP3   OH2 7547   1.401   3.664   1.794 -0.4091  0.3523  0.1539
 2514TIP3    H1 7548   1.384   3.758   1.788  0.8432  0.5002 -2.1767
 2514TIP3    H2 7549   1.496   3.658   1.804 -0.2103 -0.6455 -1.8466
 2515TIP3   OH2 7550   1.404   3.481   2.609 -0.5907 -0.4539  0.1819
 2515TIP3    H1 7551   1.374   3.432   2.685 -0.4653 -0.5937  0.1418
 2515TIP3    H2 7552   1.499   3.486   2.620 -0.6103 -0.1612  0.2218
 2516TIP3   OH2 7553   3.620   1.230   1.253 -0.2414  0.8166 -0.6481
 2516TIP3    H1 7554   3.570   1.289   1.310  0.3786 -0.3795  1.2510
 2516TIP3    H2 7555   3.711   1.247   1.275 -0.0085 -0.0077 -0.9133
 2517TIP3   OH2 7556   3.704   0.360   1.970  0.8647 -0.1252 -0.6194
 2517TIP3    H1 7557   3.686   0.266   1.961  0.8027 -0.0734 -1.0601
 2517TIP3    H2 7558   3.618   0.401   1.970  0.9260  0.0079 -1.3560
 2518TIP3   OH2 7559   2.790   4.187   4.435 -0.3721 -0.1755 -0.0359
 2518TIP3    H1 7560   2.728   4.119   4.410  0.3958 -0.4491 -1.3094
 2518TIP3    H2 7561   2.736   4.263   4.455 -1.1633 -0.6963 -0.1603
 2519TIP3   OH2 7562   3.660   2.300   1.592  0.2552  0.1548 -0.0821
 2519TIP3    H1 7563   3.702   2.363   1.533  0.9468  0.4211  0.6739
 2519TIP3    H2 7564   3.732   2.250   1.629 -0.2951 -1.2154 -0.7879
 2520TIP3   OH2 7565   4.170   4.861   3.960 -0.2910 -0.1159 -0.2043
 2520TIP3    H1 7566   4.081   4.843   3.929 -0.4013  0.7305 -0.4034
 2520TIP3    H2 7567   4.200   4.777   3.995 -1.9732  0.0670  1.9162
 2521TIP3   OH2 7568   3.407   5.663   4.373 -0.7409 -0.0826  0.1664
 2521TIP3    H1 7569   3.431   5.631   4.286  0.5137  1.7254 -0.2170
 2521TIP3    H2 7570   3.400   5.758   4.362 -0.6229  0.1811  2.0433
 2522TIP3   OH2 7571   2.021   0.913   2.055 -0.8785 -0.1769 -0.6144
 2522TIP3    H1 7572   2.044   0.821   2.069  0.7016  0.1997 -0.4930
 2522TIP3    H2 7573   2.051   0.958   2.134 -0.3235  0.6338 -1.2610
 2523TIP3   OH2 7574   6.249   0.871   5.053 -0.8581 -0.5530 -0.6443
 2523TIP3    H1 7575   6.266   0.952   5.005 -0.3118 -0.6628 -0.6395
 2523TIP3    H2 7576   6.267   0.894   5.145 -0.3251 -0.7811 -0.6885
 2524TIP3   OH2 7577   1.093   5.382   1.454 -0.1283 -0.5087  0.6834
 2524TIP3    H1 7578   1.186   5.379   1.476 -0.2787 -0.9139  1.2687
 2524TIP3    H2 7579   1.060   5.294   1.473 -0.4808 -0.5889 -0.2165
 2525TIP3   OH2 7580   6.031   1.330   1.015  0.0455  0.0508  0.0388
 2525TIP3    H1 7581   5.979   1.285   1.081 -0.8117  0.4277 -0.3656
 2525TIP3    H2 7582   5.969   1.387   0.970 -0.1433 -2.4012 -3.1844
 2526TIP3   OH2 7583   2.835   5.618   4.106  0.5065  0.5614  0.0893
 2526TIP3    H1 7584   2.926   5.588   4.104  0.6439  0.9447 -1.6848
 2526TIP3    H2 7585   2.814   5.633   4.014 -0.4076  3.2992  0.6685
 2527TIP3   OH2 7586   2.385   3.369   0.348  0.0657  0.4362  0.6467
 2527TIP3    H1 7587   2.296   3.351   0.380  0.5546  0.1230  1.8850
 2527TIP3    H2 7588   2.391   3.321   0.266 -0.4284 -0.7828  1.2934
 2528TIP3   OH2 7589   4.409   1.948   2.054 -0.2416 -0.1450  0.4778
 2528TIP3    H1 7590   4.488   1.895   2.065  0.9282  0.9100 -1.9031
 2528TIP3    H2 7591   4.391   1.945   1.960 -2.4353  0.5185  0.8158
 2529TIP3   OH2 7592   3.365   2.694   3.420 -0.4717  0.5034 -0.3189
 2529TIP3    H1 7593   3.419   2.689   3.499  0.3695  0.1885 -0.8949
 2529TIP3    H2 7594   3.380   2.783   3.387  1.3980 -0.2263 -1.6134
 2530TIP3   OH2 7595   3.642   2.197   0.065 -0.2222  0.3900  0.3251
 2530TIP3    H1 7596   3.691   2.121   0.033 -2.1581 -0.2109 -1.4384
 2530TIP3    H2 7597   3.556   2.162   0.088 -0.5971  1.7793  1.1735
 2531TIP3   OH2 7598   1.872   4.222   0.991 -0.0552  0.9820 -0.2881
 2531TIP3    H1 7599   1.785   4.225   1.032  0.4387  1.1592  0.7889
 2531TIP3    H2 7600   1.876   4.301   0.937 -0.8289  0.5991 -0.9219
 2532TIP3   OH2 7601   3.760   1.854   3.916 -0.2031 -0.7699  0.1214
 2532TIP3    H1 7602   3.757   1.944   3.886  1.0610 -0.2481  1.4200
 2532TIP3    H2 7603   3.747   1.801   3.837  0.5877  0.5440 -0.9287
 2533TIP3   OH2 7604   1.465   2.128   2.123  0.6596 -0.3401  0.0909
 2533TIP3    H1 7605   1.429   2.215   2.106 -0.2905  0.1064  3.5845
 2533TIP3    H2 7606   1.415   2.070   2.065 -1.4745  1.0068  0.4681
 2534TIP3   OH2 7607   0.847   4.945   4.610 -0.0323 -0.1996 -0.3142
 2534TIP3    H1 7608   0.907   4.939   4.535 -0.1048 -0.2453 -0.3684
 2534TIP3    H2 7609   0.762   4.919   4.575 -0.8352  3.0391 -1.1082
 2535TIP3   OH2 7610   6.264   5.628   2.077  0.2808  0.1833 -0.2672
 2535TIP3    H1 7611   6.168   5.632   2.087  0.1717 -0.3841 -1.0188
 2535TIP3    H2 7612   6.293   5.719   2.086 -0.2390  0.2648  0.8041
 2536TIP3   OH2 7613   0.704   1.808   3.338  0.5103  0.5734  0.5747
 2536TIP3    H1 7614   0.633   1.858   3.380 -0.3940 -0.0685 -0.1561
 2536TIP3    H2 7615   0.659   1.735   3.295  1.6133  0.2498 -0.0421
 2537TIP3   OH2 7616   5.765   2.758   2.197  0.3493 -0.0713  0.1088
 2537TIP3    H1 7617   5.688   2.705   2.179  0.6400  0.0389 -1.6610
 2537TIP3    H2 7618   5.733   2.832   2.248 -0.2200 -1.4076  1.7776
 2538TIP3   OH2 7619   3.673   1.356   3.277  0.2569 -0.0120  0.9069
 2538TIP3    H1 7620   3.598   1.332   3.331  0.1402 -1.6683  0.0870
 2538TIP3    H2 7621   3.719   1.424   3.327 -1.5666  0.7764  1.5914
 2539TIP3   OH2 7622   4.681   3.719   1.700  0.1636 -0.2874  0.6567
 2539TIP3    H1 7623   4.610   3.778   1.678 -1.3995 -2.0269  0.7482
 2539TIP3    H2 7624   4.761   3.770   1.687 -1.0879  1.7227  0.5364
 2540TIP3   OH2 7625   5.363   4.337   0.617 -0.5711 -0.1371  0.0676
 2540TIP3    H1 7626   5.336   4.251   0.650  0.5248 -0.5505 -0.1023
 2540TIP3    H2 7627   5.450   4.323   0.581 -0.3162  1.0812  0.1776
 2541TIP3   OH2 7628   3.510   4.979   3.364 -0.3289  0.9708 -0.1128
 2541TIP3    H1 7629   3.522   4.927   3.284 -2.5012  1.3965 -0.7765
 2541TIP3    H2 7630   3.527   4.918   3.436 -2.3556 -0.5911 -0.8784
 2542TIP3   OH2 7631   3.287   3.274   4.629 -0.0844 -0.2311  0.0893
 2542TIP3    H1 7632   3.272   3.359   4.589  3.7915  0.4323 -0.3954
 2542TIP3    H2 7633   3.274   3.289   4.723 -1.3391  0.3142 -0.1520
 2543TIP3   OH2 7634   0.295   1.446   0.189  0.0839  0.3400  0.3877
 2543TIP3    H1 7635   0.252   1.448   0.274  0.3374  1.4516  0.4993
 2543TIP3    H2 7636   0.274   1.359   0.154 -3.2470  1.2348 -0.0925
 2544TIP3   OH2 7637   1.563   2.502   2.021 -0.5837 -0.2388 -0.0169
 2544TIP3    H1 7638   1.592   2.593   2.025 -1.1372 -0.0839  0.5048
 2544TIP3    H2 7639   1.592   2.464   2.104  2.7898 -1.5228 -1.5719
 2545TIP3   OH2 7640   0.898   2.973   0.346  0.1724  0.4093 -0.1112
 2545TIP3    H1 7641   0.898   3.006   0.436  2.6485  0.4375 -0.0620
 2545TIP3    H2 7642   0.922   3.049   0.293  0.3978 -0.0035 -0.6060
 2546TIP3   OH2 7643   4.493   0.837   0.512 -1.0417  0.2195 -0.1963
 2546TIP3    H1 7644   4.548   0.809   0.585 -0.8028  1.3001  0.0682
 2546TIP3    H2 7645   4.410   0.862   0.553 -1.1054  0.2855 -0.3657
 2547TIP3   OH2 7646   4.781   2.438   2.930  0.1740 -0.3146  0.3782
 2547TIP3    H1 7647   4.855   2.479   2.975 -0.5804  0.5580  0.8651
 2547TIP3    H2 7648   4.723   2.408   3.001 -0.1971 -0.4829  0.0084
 2548TIP3   OH2 7649   5.333   3.936   4.280  0.1370  0.7699 -0.5326
 2548TIP3    H1 7650   5.359   3.962   4.368  0.3476  0.2160 -0.4261
 2548TIP3    H2 7651   5.237   3.938   4.282  0.1369  0.5680 -0.2327
 2549TIP3   OH2 7652   0.433   0.615   0.875  0.0639  0.6365  0.3323
 2549TIP3    H1 7653   0.470   0.619   0.963  0.5254 -1.7250  0.3230
 2549TIP3    H2 7654   0.382   0.534   0.875  1.5832 -0.4332 -2.0949
 2550TIP3   OH2 7655   3.107   0.176   1.372 -0.0475 -0.6019 -0.0183
 2550TIP3    H1 7656   3.036   0.154   1.433 -0.8382  0.2620 -0.6044
 2550TIP3    H2 7657   3.116   0.097   1.318 -1.2856 -0.3783 -0.6058
 2551TIP3   OH2 7658   3.437   4.658   1.279  0.4037 -0.3037  0.0591
 2551TIP3    H1 7659   3.493   4.610   1.218  1.7717 -1.2159  1.9056
 2551TIP3    H2 7660   3.363   4.686   1.227  1.1871 -1.5739 -1.8653
 2552TIP3   OH2 7661   1.623   2.150   4.505  0.2313 -0.2541 -0.3958
 2552TIP3    H1 7662   1.671   2.226   4.539 -0.1780 -1.4074  3.2094
 2552TIP3    H2 7663   1.536   2.184   4.484  0.1452  0.4085  0.9060
 2553TIP3   OH2 7664   3.598   4.051   0.222  0.7987  0.3382  0.4398
 2553TIP3    H1 7665   3.591   4.128   0.166 -2.0439 -0.5537 -0.6255
 2553TIP3    H2 7666   3.509   4.017   0.226  1.7211 -2.1230  1.9953
 2554TIP3   OH2 7667   3.754   3.507   0.534 -0.2392 -0.4311 -0.1841
 2554TIP3    H1 7668   3.704   3.425   0.529  0.2680 -0.7513 -0.0441
 2554TIP3    H2 7669   3.837   3.483   0.575  0.4637 -0.1067 -1.3667
 2555TIP3   OH2 7670   0.802   3.257   4.039  0.2011  0.4998 -0.0963
 2555TIP3    H1 7671   0.743   3.258   3.964  0.0533 -1.6819 -0.0733
 2555TIP3    H2 7672   0.887   3.230   4.002  0.0265 -0.9997  0.5427
 2556TIP3   OH2 7673   0.704   5.723   4.620  0.0853 -0.4155  0.3254
 2556TIP3    H1 7674   0.738   5.642   4.658 -1.1503 -0.2150  1.9696
 2556TIP3    H2 7675   0.706   5.786   4.692 -1.3905  0.2766 -0.1859
 2557TIP3   OH2 7676   3.520   3.966   3.031  0.1711 -0.3526 -0.0987
 2557TIP3    H1 7677   3.581   3.979   3.104  1.5028  1.5428 -1.4474
 2557TIP3    H2 7678   3.574   3.931   2.960 -1.2085 -2.7034 -0.1045
 2558TIP3   OH2 7679   4.933   5.164   2.525  0.0190  0.2100 -0.6002
 2558TIP3    H1 7680   4.991   5.090   2.507 -0.9800 -0.3871 -1.4523
 2558TIP3    H2 7681   4.968   5.236   2.471  0.3673  0.0521 -0.5858
 2559TIP3   OH2 7682   3.616   3.372   4.630  0.2830 -0.1495  0.3921
 2559TIP3    H1 7683   3.620   3.439   4.562  1.1118 -0.0348  0.5425
 2559TIP3    H2 7684   3.554   3.308   4.597  1.5701 -0.7135 -1.0628
 2560TIP3   OH2 7685   4.508   5.651   1.306 -0.6519  0.1406 -0.3176
 2560TIP3    H1 7686   4.576   5.705   1.267 -0.3592 -0.4312 -0.6054
 2560TIP3    H2 7687   4.535   5.641   1.398 -1.3533  1.5036  0.0512
 2561TIP3   OH2 7688   0.381   1.906   2.008 -0.9839  0.1800 -0.2238
 2561TIP3    H1 7689   0.349   1.866   2.090  0.2611  1.1530  0.7779
 2561TIP3    H2 7690   0.472   1.879   2.003 -0.0686  2.8389  0.5111
 2562TIP3   OH2 7691   3.466   4.363   1.785  0.0299 -0.2108  0.5013
 2562TIP3    H1 7692   3.442   4.405   1.702  1.2468  0.6648  0.5687
 2562TIP3    H2 7693   3.513   4.431   1.833 -1.3500 -0.4581  2.2693
 2563TIP3   OH2 7694   5.620   2.336   2.122  0.4232 -0.0249  0.1311
 2563TIP3    H1 7695   5.649   2.404   2.183  0.2068  1.3271 -1.2105
 2563TIP3    H2 7696   5.665   2.356   2.040  0.8655 -1.9152 -0.1511
 2564TIP3   OH2 7697   4.119   4.541   3.798  0.1148 -0.1465  0.0067
 2564TIP3    H1 7698   4.045   4.485   3.821 -0.2384  0.2635 -0.1294
 2564TIP3    H2 7699   4.137   4.592   3.877  0.0475 -0.0145 -0.0638
 2565TIP3   OH2 7700   2.198   0.778   3.331 -0.0925  0.0551 -0.2484
 2565TIP3    H1 7701   2.169   0.754   3.418 -0.2615  0.6918 -0.1244
 2565TIP3    H2 7702   2.277   0.831   3.346 -1.2683  1.9158 -0.3537
 2566TIP3   OH2 7703   0.183   3.849   5.072 -0.2141  0.4288 -0.3534
 2566TIP3    H1 7704   0.100   3.802   5.061 -0.9197  1.6953 -0.6797
 2566TIP3    H2 7705   0.235   3.793   5.129 -1.4045 -0.2744  0.0833
 2567TIP3   OH2 7706   3.416   0.024   2.080  0.2640 -0.5791 -0.0906
 2567TIP3    H1 7707   3.446  -0.030   2.007 -0.5789  0.5622 -1.3118
 2567TIP3    H2 7708   3.335   0.064   2.049 -0.8168 -1.0539  1.9382
 2568TIP3   OH2 7709   5.440   2.522   1.981 -0.0828  0.0490 -0.4874
 2568TIP3    H1 7710   5.444   2.514   1.886 -0.7002 -0.5221 -0.4739
 2568TIP3    H2 7711   5.418   2.434   2.012 -0.4318  0.3467  0.1396
 2569TIP3   OH2 7712   2.848   2.871   4.348  0.0600  0.2344  0.0823
 2569TIP3    H1 7713   2.756   2.876   4.319  0.8175  0.5423 -2.5784
 2569TIP3    H2 7714   2.852   2.925   4.427 -2.2813 -0.8722  1.0577
 2570TIP3   OH2 7715   2.287   0.304   1.021 -0.2069  0.5697 -0.5047
 2570TIP3    H1 7716   2.295   0.302   0.926 -1.0682  3.0277 -0.6907
 2570TIP3    H2 7717   2.362   0.355   1.050 -1.1063  1.6752 -0.0717
 2571TIP3   OH2 7718   6.184   5.828   2.310 -0.4500 -0.0754  0.3720
 2571TIP3    H1 7719   6.092   5.800   2.307 -0.4892  0.0123  0.6395
 2571TIP3    H2 7720   6.209   5.816   2.402  0.1073 -1.0229  0.0993
 2572TIP3   OH2 7721   4.104   1.443   4.678  0.3674  0.4369 -0.6382
 2572TIP3    H1 7722   4.134   1.530   4.654  1.9050  0.3147  0.7534
 2572TIP3    H2 7723   4.128   1.432   4.770 -0.3306 -1.2278 -0.6068
 2573TIP3   OH2 7724   0.113   3.505   0.984 -0.4482  0.2048  0.3198
 2573TIP3    H1 7725   0.121   3.434   0.921  1.7675  1.8521 -1.4231
 2573TIP3    H2 7726   0.033   3.551   0.958 -0.8038 -0.4805  0.1925
 2574TIP3   OH2 7727   3.669   2.814   2.894 -0.3270  0.0374 -0.3183
 2574TIP3    H1 7728   3.629   2.748   2.951  0.8792 -0.4780 -0.0469
 2574TIP3    H2 7729   3.619   2.808   2.813 -1.3194 -0.0232  0.2738
 2575TIP3   OH2 7730   2.466   3.137   3.289 -0.2749 -0.1355 -0.0200
 2575TIP3    H1 7731   2.470   3.231   3.307  0.3507 -0.2536  0.5229
 2575TIP3    H2 7732   2.507   3.128   3.203  2.5536 -0.2050  1.2121
 2576TIP3   OH2 7733   6.080   1.006   3.628  0.3325  0.2349  0.1109
 2576TIP3    H1 7734   6.126   1.067   3.685  2.3682 -0.8781 -0.2406
 2576TIP3    H2 7735   6.104   1.031   3.539  2.8298 -2.1134 -0.0167
 2577TIP3   OH2 7736   1.598   2.120   0.782 -0.3046 -0.5802 -0.1022
 2577TIP3    H1 7737   1.506   2.099   0.766 -0.2829 -1.0995  0.4180
 2577TIP3    H2 7738   1.598   2.166   0.865 -0.1915  0.2862 -0.5671
 2578TIP3   OH2 7739   3.505   3.172   0.397  0.2379 -0.0763  0.5641
 2578TIP3    H1 7740   3.552   3.135   0.322  0.1986 -0.8987  0.9408
 2578TIP3    H2 7741   3.496   3.266   0.376  1.1006 -0.1151  0.0042
 2579TIP3   OH2 7742   4.558   1.216   4.684  0.2169  0.1317  0.4121
 2579TIP3    H1 7743   4.475   1.236   4.641  0.4882 -0.8119 -0.5942
 2579TIP3    H2 7744   4.539   1.141   4.740 -0.1078  1.2859  1.9202
 2580TIP3   OH2 7745   2.985   0.851   3.257 -0.1516 -0.3579  0.2608
 2580TIP3    H1 7746   3.055   0.807   3.306 -1.4156 -1.8183  0.8648
 2580TIP3    H2 7747   3.012   0.942   3.253  1.7399 -0.8525  0.5293
 2581TIP3   OH2 7748   4.979   5.945  -0.001  0.1405 -0.5910 -0.0466
 2581TIP3    H1 7749   5.008   5.861   0.035  1.1267  0.0158  0.6002
 2581TIP3    H2 7750   5.058   5.997  -0.008 -0.3758  0.0835 -1.0314
 2582TIP3   OH2 7751   3.174   5.636   3.727  0.3251 -0.2169 -0.1604
 2582TIP3    H1 7752   3.255   5.602   3.766 -0.2109 -0.9374  0.3464
 2582TIP3    H2 7753   3.144   5.702   3.789  0.0432 -0.5961  0.1071
 2583TIP3   OH2 7754   0.923   5.251   2.013 -0.8052 -0.9286 -0.5477
 2583TIP3    H1 7755   0.903   5.318   2.078  0.2432  0.2701 -1.4102
 2583TIP3    H2 7756   1.012   5.271   1.984 -1.2708 -1.3421 -2.4226
 2584TIP3   OH2 7757   1.782   1.411   3.391 -0.4526 -0.4956 -0.7714
 2584TIP3    H1 7758   1.711   1.474   3.379  0.6974  0.7551 -1.2165
 2584TIP3    H2 7759   1.862   1.463   3.387  0.4789 -1.6104  1.3036
 2585TIP3   OH2 7760   4.355   4.799   4.991  0.1129 -0.6258  0.6210
 2585TIP3    H1 7761   4.355   4.865   4.922 -0.9498 -0.4154  0.7989
 2585TIP3    H2 7762   4.264   4.796   5.021  0.2743 -1.7143  1.0549
 2586TIP3   OH2 7763   3.091   1.060   0.053  0.4847  0.1150 -0.8101
 2586TIP3    H1 7764   3.157   1.131   0.051  2.5953 -1.4772  2.6174
 2586TIP3    H2 7765   3.142   0.980   0.037 -1.4183 -0.9277 -2.0352
 2587TIP3   OH2 7766   1.229   2.572   0.554  0.0764 -0.0967  0.2978
 2587TIP3    H1 7767   1.155   2.629   0.533 -1.9302 -2.3393  0.8156
 2587TIP3    H2 7768   1.230   2.569   0.650  0.4418 -0.5560  0.2842
 2588TIP3   OH2 7769   0.590   5.291   1.548 -0.3610  0.2677  0.0044
 2588TIP3    H1 7770   0.595   5.218   1.609  1.4263  1.4292  1.3811
 2588TIP3    H2 7771   0.527   5.351   1.588 -1.4955 -0.2916 -0.8991
 2589TIP3   OH2 7772   1.554   4.756   1.216  0.4335  0.1725 -0.2742
 2589TIP3    H1 7773   1.472   4.724   1.179  0.3721 -0.8552  0.7117
 2589TIP3    H2 7774   1.531   4.786   1.304  0.6557  2.2135 -0.8498
 2590TIP3   OH2 7775   0.387   3.098   4.337  0.1320 -0.0207  0.1686
 2590TIP3    H1 7776   0.309   3.151   4.323  0.5582  0.1907 -1.5559
 2590TIP3    H2 7777   0.450   3.129   4.273  0.9846 -1.4813  0.2451
 2591TIP3   OH2 7778   0.835   4.892   3.085  0.0592 -0.3211  0.6117
 2591TIP3    H1 7779   0.836   4.968   3.143  0.0486 -0.2752  0.5521
 2591TIP3    H2 7780   0.759   4.841   3.113  0.8201 -0.9932  1.5255
 2592TIP3   OH2 7781   2.500   5.625   1.697 -0.3017  0.3222  0.0771
 2592TIP3    H1 7782   2.555   5.573   1.756 -1.1912 -0.3642  0.3189
 2592TIP3    H2 7783   2.427   5.654   1.752 -0.4168  0.8568 -0.3476
 2593TIP3   OH2 7784   2.287   4.904   3.246  0.1442 -0.0091 -0.3740
 2593TIP3    H1 7785   2.355   4.966   3.270  0.5757 -0.6947  0.2125
 2593TIP3    H2 7786   2.333   4.838   3.193 -0.3429  0.2488 -1.1398
 2594TIP3   OH2 7787   0.335   2.702   4.433  0.0813  0.0210 -0.0975
 2594TIP3    H1 7788   0.291   2.619   4.414  1.5548 -0.8276  0.0178
 2594TIP3    H2 7789   0.275   2.769   4.402 -1.7615 -1.0361  1.0504
 2595TIP3   OH2 7790   4.762   3.796   2.535  0.1604  0.0501 -0.0489
 2595TIP3    H1 7791   4.740   3.703   2.535 -1.8474  0.4153 -2.6936
 2595TIP3    H2 7792   4.705   3.834   2.602 -0.2568 -0.3939 -0.1496
 2596TIP3   OH2 7793   5.526   5.621   0.550  0.8734 -0.0466 -0.2219
 2596TIP3    H1 7794   5.489   5.615   0.638  0.7580 -0.6815 -0.3111
 2596TIP3    H2 7795   5.618   5.645   0.565  0.2986  2.2841 -0.0246
 2597TIP3   OH2 7796   2.536   5.906   5.016  0.0577 -0.4178  0.0713
 2597TIP3    H1 7797   2.518   5.959   4.938  0.0665  0.3057  0.5473
 2597TIP3    H2 7798   2.594   5.961   5.068 -1.2589 -0.1819  1.3547
 2598TIP3   OH2 7799   0.827   2.130   3.344  0.3738  0.0591  0.4036
 2598TIP3    H1 7800   0.852   2.143   3.436  1.1164  0.9601  0.0997
 2598TIP3    H2 7801   0.735   2.157   3.340  0.8708  1.9425  0.5367
 2599TIP3   OH2 7802   6.209   2.913   0.383 -0.5261  0.0120  0.5192
 2599TIP3    H1 7803   6.117   2.941   0.379 -0.5733 -0.2547 -0.6475
 2599TIP3    H2 7804   6.217   2.849   0.312  0.4888 -0.1920  0.8156
 2600TIP3   OH2 7805   4.348   3.098   1.025 -0.4643  0.7569 -0.1373
 2600TIP3    H1 7806   4.379   3.182   1.060  0.3990  0.7895 -0.9445
 2600TIP3    H2 7807   4.421   3.065   0.973 -0.0709 -1.3720  1.6122
 2601TIP3   OH2 7808   0.513   3.925   3.683  0.2063 -0.2005 -0.3985
 2601TIP3    H1 7809   0.602   3.910   3.652 -0.2203  0.6525 -2.2013
 2601TIP3    H2 7810   0.508   4.019   3.698  0.0946 -0.4668  1.4517
 2602TIP3   OH2 7811   4.036   0.272   0.845 -0.5184  0.5234  0.5847
 2602TIP3    H1 7812   4.015   0.311   0.929 -0.4615 -0.5024  1.0968
 2602TIP3    H2 7813   4.126   0.297   0.827 -0.1816 -0.1019  1.3428
 2603TIP3   OH2 7814   4.359   3.656   0.454 -0.4920 -0.3591 -0.1314
 2603TIP3    H1 7815   4.282   3.647   0.397  0.3665  0.1680 -1.4247
 2603TIP3    H2 7816   4.407   3.574   0.442  0.4347  0.3218 -1.3648
 2604TIP3   OH2 7817   3.483   0.376   4.097 -0.0854  0.8127 -0.3362
 2604TIP3    H1 7818   3.468   0.307   4.032  0.8621  1.7881 -1.6376
 2604TIP3    H2 7819   3.416   0.442   4.078 -0.2186  0.8066  0.1111
 2605TIP3   OH2 7820   3.005   2.979   3.975  0.1420  0.3539  0.2386
 2605TIP3    H1 7821   2.928   2.942   4.018  1.0706 -0.7535  1.0321
 2605TIP3    H2 7822   2.999   2.949   3.885 -0.3790  0.2897  0.2949
 2606TIP3   OH2 7823   2.224   4.022   4.641  0.0432  0.5841  0.5151
 2606TIP3    H1 7824   2.182   3.978   4.567 -0.2839  0.4235  0.7959
 2606TIP3    H2 7825   2.295   4.073   4.601  0.8079 -0.6564  0.2450
 2607TIP3   OH2 7826   0.686   2.161   0.922  0.1875  0.1409  0.9532
 2607TIP3    H1 7827   0.658   2.070   0.928  1.4772 -0.3407  0.1001
 2607TIP3    H2 7828   0.743   2.164   0.845 -0.5587  1.8743  0.4123
 2608TIP3   OH2 7829   2.695   0.570   1.319  0.5003 -0.6486 -0.5790
 2608TIP3    H1 7830   2.731   0.491   1.359  0.5021 -0.7104 -0.7051
 2608TIP3    H2 7831   2.756   0.591   1.249  1.5081  0.4680  0.5673
 2609TIP3   OH2 7832   1.303   1.962   1.756  0.4650  0.2748 -0.2171
 2609TIP3    H1 7833   1.239   2.010   1.705 -0.7939  0.3880  1.3667
 2609TIP3    H2 7834   1.349   1.907   1.693 -0.5094  0.9329 -1.5357
 2610TIP3   OH2 7835   3.014   4.154   0.922 -0.0260 -0.2573 -0.3519
 2610TIP3    H1 7836   2.996   4.177   0.831  0.2294 -0.0652 -0.3557
 2610TIP3    H2 7837   3.026   4.239   0.966 -0.8740 -0.3152  0.0139
 2611TIP3   OH2 7838   1.511   3.790   1.531 -0.4190  0.3032  0.3343
 2611TIP3    H1 7839   1.438   3.761   1.476  0.4374  1.1372 -1.3144
 2611TIP3    H2 7840   1.471   3.844   1.599 -1.4349 -0.1457  0.1037
 2612TIP3   OH2 7841   5.729   0.551   0.495  0.4037 -0.2592  0.2846
 2612TIP3    H1 7842   5.775   0.548   0.579  2.7006 -1.1566 -0.9460
 2612TIP3    H2 7843   5.778   0.613   0.442 -1.1424  0.4581 -0.3862
 2613TIP3   OH2 7844   1.585   5.423   3.820 -0.4836 -0.0856  0.8573
 2613TIP3    H1 7845   1.609   5.478   3.894  1.2984  0.8247 -0.3165
 2613TIP3    H2 7846   1.628   5.464   3.745 -1.3081 -1.5963 -0.5057
 2614TIP3   OH2 7847   6.251   5.635   4.341  0.0273 -0.2895 -0.5877
 2614TIP3    H1 7848   6.234   5.615   4.249 -0.1832 -1.0527 -0.3870
 2614TIP3    H2 7849   6.266   5.730   4.342 -1.8561  0.0691 -1.1431
 2615TIP3   OH2 7850   2.026   3.765   1.394  0.8563 -0.0842  0.6681
 2615TIP3    H1 7851   1.985   3.698   1.339  2.2173  0.5595 -1.2496
 2615TIP3    H2 7852   2.120   3.746   1.389  1.3273  2.0775 -0.1992
 2616TIP3   OH2 7853   1.112   3.713   3.276 -0.3260  0.2261 -0.2915
 2616TIP3    H1 7854   1.182   3.764   3.235 -1.0136  2.1019  0.7906
 2616TIP3    H2 7855   1.040   3.774   3.287 -1.7208 -1.3490 -0.2100
 2617TIP3   OH2 7856   2.765   1.805   1.433  0.2522  0.3105  0.2159
 2617TIP3    H1 7857   2.733   1.894   1.416  0.2509  0.4267  0.8171
 2617TIP3    H2 7858   2.735   1.785   1.521 -1.2469 -0.9687 -0.5386
 2618TIP3   OH2 7859   5.787   1.002   2.624 -0.5615  0.3711 -0.2371
 2618TIP3    H1 7860   5.747   0.943   2.560  1.6423 -0.5472 -0.8851
 2618TIP3    H2 7861   5.789   1.087   2.580  0.4962 -0.1451 -1.2600
 2619TIP3   OH2 7862   5.319   5.345   2.765 -0.5415  0.2610 -0.0691
 2619TIP3    H1 7863   5.299   5.252   2.769 -0.1758  0.1731 -0.2902
 2619TIP3    H2 7864   5.303   5.376   2.854 -1.6258  0.1904 -0.2346
 2620TIP3   OH2 7865   0.159   4.571   2.087 -0.3026  0.1789 -0.2055
 2620TIP3    H1 7866   0.253   4.553   2.090 -0.2666  0.3962  0.0277
 2620TIP3    H2 7867   0.123   4.504   2.029 -0.0383 -0.0646 -0.0893
 2621TIP3   OH2 7868   6.248   5.721   0.348  0.0299 -0.4199 -0.2205
 2621TIP3    H1 7869   6.329   5.746   0.392 -0.3015 -0.6418  0.5445
 2621TIP3    H2 7870   6.254   5.761   0.262 -0.3035  1.9739  0.7908
 2622TIP3   OH2 7871   5.369   5.783   0.145 -0.7333 -0.0513 -0.2110
 2622TIP3    H1 7872   5.383   5.694   0.178  0.4020 -0.1454 -0.8862
 2622TIP3    H2 7873   5.277   5.801   0.164 -0.3133 -0.2834  2.4765
 2623TIP3   OH2 7874   3.130   1.288   1.653  0.8946 -0.1181 -0.3678
 2623TIP3    H1 7875   3.057   1.245   1.609  0.5820 -0.3730  0.3851
 2623TIP3    H2 7876   3.118   1.381   1.636 -0.1223 -0.0678  0.4808
 2624TIP3   OH2 7877   2.621   3.805   4.835  0.1194  0.0065  0.9783
 2624TIP3    H1 7878   2.657   3.893   4.844  0.3689 -0.2840  3.8094
 2624TIP3    H2 7879   2.533   3.811   4.873  0.4384 -1.0829  1.9693
 2625TIP3   OH2 7880   3.399   2.919   0.204  0.2335  0.5291  0.3279
 2625TIP3    H1 7881   3.408   2.951   0.294  0.6838  1.8591 -0.1712
 2625TIP3    H2 7882   3.450   2.980   0.152  0.8484 -0.8541 -0.7200
 2626TIP3   OH2 7883   1.135   1.857   1.111 -0.4303 -0.5234  0.6824
 2626TIP3    H1 7884   1.195   1.785   1.092  1.2539  0.7730  0.9103
 2626TIP3    H2 7885   1.132   1.861   1.207 -0.2673 -0.1082  0.6740
 2627TIP3   OH2 7886   0.214   0.100   2.013  0.2310 -0.5176  0.3857
 2627TIP3    H1 7887   0.160   0.089   2.091 -0.0117  0.3951  0.3552
 2627TIP3    H2 7888   0.156   0.080   1.940  0.3710 -1.0653  0.4236
 2628TIP3   OH2 7889   2.975   2.659   2.155  0.0173 -0.2799  0.0875
 2628TIP3    H1 7890   2.931   2.663   2.069 -0.3283 -1.6807  0.1806
 2628TIP3    H2 7891   3.067   2.677   2.136 -0.2839  0.8830 -0.3619
 2629TIP3   OH2 7892   5.454   3.118   2.715  0.0992 -0.6416 -0.3199
 2629TIP3    H1 7893   5.506   3.082   2.643  0.5426 -1.2102  0.2754
 2629TIP3    H2 7894   5.515   3.121   2.789 -0.6422 -1.0524  0.3134
 2630TIP3   OH2 7895   5.823   2.496   1.379 -0.1959 -0.0009 -0.5643
 2630TIP3    H1 7896   5.807   2.542   1.297  0.8868  0.2203 -0.6612
 2630TIP3    H2 7897   5.843   2.406   1.352 -0.1503 -0.0050 -0.5165
 2631TIP3   OH2 7898   2.538   1.379   2.030 -0.3602 -0.2081 -0.0264
 2631TIP3    H1 7899   2.598   1.373   2.104 -0.9785  0.4278  0.5377
 2631TIP3    H2 7900   2.595   1.377   1.953  0.2081 -2.0184  0.3965
 2632TIP3   OH2 7901   5.233   2.375   2.456 -0.1087 -0.1071  0.9367
 2632TIP3    H1 7902   5.266   2.387   2.545  1.2159  0.6134  0.3840
 2632TIP3    H2 7903   5.306   2.334   2.409 -0.4750  0.3009 -0.0223
 2633TIP3   OH2 7904   4.984   1.264   4.840  0.8919 -0.6570 -0.0277
 2633TIP3    H1 7905   5.060   1.321   4.839  0.2310  0.2693  0.4902
 2633TIP3    H2 7906   4.913   1.319   4.873 -0.2161 -1.2295 -1.3354
 2634TIP3   OH2 7907   6.340   1.624   4.681  0.1978  0.3741 -0.2125
 2634TIP3    H1 7908   6.300   1.542   4.713  0.8530  0.7220  1.6277
 2634TIP3    H2 7909   6.265   1.682   4.665 -0.1745  0.4765  1.6472
 2635TIP3   OH2 7910   2.882   5.768   4.617  0.7188 -0.1783  0.1989
 2635TIP3    H1 7911   2.863   5.860   4.633 -0.5271 -0.5437  0.9428
 2635TIP3    H2 7912   2.919   5.736   4.699  0.6610 -0.4736  0.1110
 2636TIP3   OH2 7913   4.700   0.732   3.434  0.2568 -0.3958 -0.8440
 2636TIP3    H1 7914   4.637   0.664   3.462  1.4157 -0.9710  0.5142
 2636TIP3    H2 7915   4.752   0.690   3.366  0.5137 -0.6386 -0.5016
 2637TIP3   OH2 7916   4.284   1.074   1.273  0.1779  0.3008 -0.2110
 2637TIP3    H1 7917   4.338   1.141   1.233  0.0142  0.1445 -0.7017
 2637TIP3    H2 7918   4.253   1.021   1.200  2.1085 -1.6838  0.3099
 2638TIP3   OH2 7919   5.211   3.444   0.262 -0.5860 -0.6992  0.5650
 2638TIP3    H1 7920   5.291   3.392   0.250 -1.1820 -1.3261 -0.9344
 2638TIP3    H2 7921   5.230   3.526   0.215 -1.0477 -1.1214 -0.3906
 2639TIP3   OH2 7922   0.153   4.582   3.188 -0.3627 -0.4536  0.0550
 2639TIP3    H1 7923   0.185   4.646   3.252 -0.0802  1.6233 -2.0641
 2639TIP3    H2 7924   0.232   4.535   3.161 -0.2628 -0.3331  0.1367
 2640TIP3   OH2 7925   0.166   4.746   4.406 -0.4226 -0.1023 -0.1263
 2640TIP3    H1 7926   0.075   4.715   4.398 -0.2095 -1.4309  2.0113
 2640TIP3    H2 7927   0.218   4.678   4.363 -0.4428  1.0165 -2.0040
 2641TIP3   OH2 7928   1.583   0.417   4.486 -0.1710  0.1667 -0.5392
 2641TIP3    H1 7929   1.640   0.376   4.551 -2.4450 -0.1628  1.3729
 2641TIP3    H2 7930   1.513   0.353   4.471 -1.5429  1.6317 -0.6503
 2642TIP3   OH2 7931   0.340   2.412   2.298 -0.3140 -0.5705 -0.6737
 2642TIP3    H1 7932   0.337   2.342   2.364 -0.6652 -0.2907 -0.3867
 2642TIP3    H2 7933   0.255   2.406   2.254  0.1125 -1.0846 -1.4561
 2643TIP3   OH2 7934   2.390   2.505   1.332 -0.3692 -0.3338 -0.2516
 2643TIP3    H1 7935   2.371   2.588   1.288  1.0136 -0.0218 -0.3026
 2643TIP3    H2 7936   2.408   2.529   1.422  1.6331 -0.3399 -0.6076
 2644TIP3   OH2 7937   6.023   4.467   1.079  0.5322 -0.5796  0.1516
 2644TIP3    H1 7938   6.088   4.482   1.010  0.7687  0.1036  0.5072
 2644TIP3    H2 7939   6.069   4.415   1.145  0.3401 -1.1390 -0.1523
 2645TIP3   OH2 7940   6.288   5.801   2.806  0.1496 -0.0186 -0.3830
 2645TIP3    H1 7941   6.333   5.751   2.875  2.9296  0.6775 -1.5550
 2645TIP3    H2 7942   6.269   5.885   2.847 -1.8231 -0.9090  0.6681
 2646TIP3   OH2 7943   5.663   2.805   1.452  0.0632 -0.6286  0.8833
 2646TIP3    H1 7944   5.609   2.783   1.528 -0.2143 -0.0998  0.8485
 2646TIP3    H2 7945   5.749   2.825   1.488  0.7925 -3.2091  0.7847
 2647TIP3   OH2 7946   6.029   1.989   0.612 -0.2798 -0.2332  0.2994
 2647TIP3    H1 7947   6.044   2.045   0.687 -2.1545  0.5712  0.1120
 2647TIP3    H2 7948   6.022   2.049   0.538  0.9444 -0.9726 -0.4585
 2648TIP3   OH2 7949   3.794   1.737   4.364  0.3494 -0.7270 -0.4956
 2648TIP3    H1 7950   3.710   1.769   4.334 -0.5976 -0.5659  2.0690
 2648TIP3    H2 7951   3.858   1.801   4.333 -0.7997  0.5056 -0.3824
 2649TIP3   OH2 7952   6.318   2.757   3.342 -0.1531 -0.3843 -0.1928
 2649TIP3    H1 7953   6.285   2.669   3.358  0.3295 -0.5352 -0.0150
 2649TIP3    H2 7954   6.381   2.772   3.412  1.1266 -0.5979 -1.2672
 2650TIP3   OH2 7955   0.952   1.188   1.096  0.5002 -0.0502 -0.0713
 2650TIP3    H1 7956   0.858   1.200   1.101  0.2748 -1.8003  0.5188
 2650TIP3    H2 7957   0.976   1.147   1.179  1.6220 -0.4940 -0.5868
 2651TIP3   OH2 7958   5.264   3.064   1.659 -0.1995 -0.5400 -0.6899
 2651TIP3    H1 7959   5.231   3.142   1.615  0.0358 -0.9802 -1.6788
 2651TIP3    H2 7960   5.270   2.998   1.590  0.4010 -1.1862 -0.0404
 2652TIP3   OH2 7961   4.285   3.471   4.966 -0.7297  0.0160  0.2809
 2652TIP3    H1 7962   4.315   3.418   4.892  0.3749  0.5279  0.3364
 2652TIP3    H2 7963   4.206   3.427   4.997 -0.2854 -1.1416 -0.1787
 2653TIP3   OH2 7964   4.890   0.263   0.988 -0.1250 -0.4905 -0.0266
 2653TIP3    H1 7965   4.813   0.214   1.017 -0.5196 -0.2422 -0.6371
 2653TIP3    H2 7966   4.937   0.284   1.069 -0.1753 -1.4918  0.2814
 2654TIP3   OH2 7967   4.434   4.954   1.510 -0.1803  0.1575  0.2112
 2654TIP3    H1 7968   4.481   4.956   1.427 -0.1760  2.5569  0.1996
 2654TIP3    H2 7969   4.378   4.877   1.504  1.4680 -1.0340 -1.0344
 2655TIP3   OH2 7970   1.067   1.942   4.176 -0.1867 -0.6431  0.1483
 2655TIP3    H1 7971   1.120   1.973   4.250 -2.0232 -0.4232  1.4360
 2655TIP3    H2 7972   1.049   2.021   4.126 -2.3122 -0.0083  1.7579
 2656TIP3   OH2 7973   0.401   4.560   3.716  0.0682  0.0827  0.9161
 2656TIP3    H1 7974   0.361   4.512   3.789  0.4448 -1.1318  0.3603
 2656TIP3    H2 7975   0.366   4.518   3.638  2.0123 -0.7034  0.4152
 2657TIP3   OH2 7976   3.272   3.569   3.776  0.1002  0.1171  0.3088
 2657TIP3    H1 7977   3.189   3.584   3.822 -0.6532  0.0717 -0.9851
 2657TIP3    H2 7978   3.252   3.499   3.713  1.1613  0.0105  0.0712
 2658TIP3   OH2 7979   2.510   0.815   3.268  0.3956  0.3413 -0.1937
 2658TIP3    H1 7980   2.483   0.779   3.353 -0.5172  2.2963  0.4152
 2658TIP3    H2 7981   2.591   0.770   3.247  0.4145 -0.5005  1.5251
 2659TIP3   OH2 7982   3.241   4.776   0.352  0.1018 -0.2273  0.6380
 2659TIP3    H1 7983   3.267   4.836   0.282 -0.7238 -1.1352 -0.4933
 2659TIP3    H2 7984   3.217   4.695   0.306 -1.3355 -0.5540  1.8942
 2660TIP3   OH2 7985   4.194   4.049   0.470 -0.3252 -0.6078 -0.2822
 2660TIP3    H1 7986   4.199   3.963   0.428 -0.4715  0.1994 -2.0504
 2660TIP3    H2 7987   4.102   4.075   0.463 -0.1653 -0.0334 -0.3527
 2661TIP3   OH2 7988   4.619   3.127   0.149  0.5772 -0.3396 -0.1553
 2661TIP3    H1 7989   4.668   3.096   0.226  1.8955 -0.2612 -0.9352
 2661TIP3    H2 7990   4.643   3.067   0.079  1.0477  0.8258 -1.0201
 2662TIP3   OH2 7991   5.826   3.088   3.963 -0.0379 -0.3972  0.5532
 2662TIP3    H1 7992   5.830   2.994   3.985 -0.6595  0.1335  3.2584
 2662TIP3    H2 7993   5.733   3.108   3.961  0.1125  0.3312  0.8178
 2663TIP3   OH2 7994   4.595   3.518   3.673 -0.0503  0.2477 -0.2486
 2663TIP3    H1 7995   4.618   3.564   3.592  0.4478 -2.3162 -1.6663
 2663TIP3    H2 7996   4.538   3.579   3.720  1.6029  2.8099 -1.3346
 2664TIP3   OH2 7997   1.253   1.503   4.951  0.1961  0.3870  0.5253
 2664TIP3    H1 7998   1.279   1.447   4.878  0.0597  0.5390  0.3590
 2664TIP3    H2 7999   1.195   1.568   4.911  1.1170  1.2377  0.5316
 2665TIP3   OH2 8000   5.762   3.112   0.169 -0.2492 -0.4675 -0.2323
 2665TIP3    H1 8001   5.679   3.115   0.122 -0.1231  1.8382 -0.4519
 2665TIP3    H2 8002   5.811   3.187   0.135  1.5948 -1.2858  0.4945
 2666TIP3   OH2 8003   1.768   5.210   0.213  0.4104  0.0414  0.0494
 2666TIP3    H1 8004   1.796   5.135   0.160 -0.5384  0.1724 -0.6787
 2666TIP3    H2 8005   1.848   5.256   0.234  0.7255  1.6106 -3.7473
 2667TIP3   OH2 8006   5.250   3.757   0.707  0.2093  0.4024 -0.1153
 2667TIP3    H1 8007   5.163   3.776   0.674 -0.3352 -0.0592  1.0124
 2667TIP3    H2 8008   5.241   3.759   0.802  1.4021  0.2413  0.0168
 2668TIP3   OH2 8009   3.213   0.886   2.977  0.1661 -0.0831  0.7690
 2668TIP3    H1 8010   3.252   0.855   3.058  0.3594 -0.4317  0.5491
 2668TIP3    H2 8011   3.244   0.975   2.967  0.3614 -0.1317  0.9392
 2669TIP3   OH2 8012   4.529   5.819   2.990  0.4006  0.5340 -0.3047
 2669TIP3    H1 8013   4.542   5.914   3.000  0.6147  0.4645  0.0470
 2669TIP3    H2 8014   4.522   5.786   3.079  0.2931  0.2187 -0.4296
 2670TIP3   OH2 8015   1.614   2.732   2.186 -0.2258  0.0452  0.1662
 2670TIP3    H1 8016   1.583   2.810   2.232  1.1567 -0.6038  2.3192
 2670TIP3    H2 8017   1.708   2.731   2.200 -0.3411 -2.7360  1.4676
 2671TIP3   OH2 8018   4.269   4.587   3.477 -0.1283  0.0532  0.9419
 2671TIP3    H1 8019   4.241   4.498   3.454 -2.1962  0.9354 -0.2116
 2671TIP3    H2 8020   4.362   4.588   3.458 -0.3722 -1.4105 -0.5989
 2672TIP3   OH2 8021   1.219   5.717   0.408  0.1636 -0.0992 -0.0768
 2672TIP3    H1 8022   1.262   5.670   0.337  0.6111  1.2701 -0.7542
 2672TIP3    H2 8023   1.273   5.699   0.485  1.1649  0.4346 -0.6245
 2673TIP3   OH2 8024   1.256   5.865   4.765  0.1961  0.4622  0.2746
 2673TIP3    H1 8025   1.265   5.926   4.838 -0.2339  0.2863  0.4763
 2673TIP3    H2 8026   1.214   5.788   4.803  1.5404 -0.3357  0.2361
 2674TIP3   OH2 8027   5.854   4.450   0.028 -0.0935  0.5441 -0.6621
 2674TIP3    H1 8028   5.911   4.422  -0.044 -0.0999  0.6099 -0.6932
 2674TIP3    H2 8029   5.879   4.394   0.102 -1.6914 -1.1359 -1.3276
 2675TIP3   OH2 8030   4.959   0.401   0.541  0.0560 -0.0268  0.0858
 2675TIP3    H1 8031   5.053   0.409   0.522  0.3198  0.0674  1.3731
 2675TIP3    H2 8032   4.953   0.329   0.603 -0.7306  0.0050  0.0584
 2676TIP3   OH2 8033   0.317   4.195   0.479  0.4358 -0.4094  0.3062
 2676TIP3    H1 8034   0.334   4.288   0.461  1.4804 -0.6980 -0.2661
 2676TIP3    H2 8035   0.248   4.196   0.546  0.6317  0.7771  0.5182
 2677TIP3   OH2 8036   0.148   2.716   5.053 -0.0364  0.0968  0.5970
 2677TIP3    H1 8037   0.117   2.670   4.975  0.5097  1.0597 -0.2171
 2677TIP3    H2 8038   0.201   2.651   5.099 -0.2023 -0.4316  0.0646
 2678TIP3   OH2 8039   0.101   0.792   0.650 -0.5852  0.1333  0.1738
 2678TIP3    H1 8040   0.088   0.859   0.583  1.0191 -1.5539 -2.0044
 2678TIP3    H2 8041   0.173   0.826   0.704  1.5350 -0.4691 -2.0595
 2679TIP3   OH2 8042   2.800   0.529   2.753  0.0449  0.2504  0.9951
 2679TIP3    H1 8043   2.830   0.581   2.828  4.1579 -0.8473  0.4099
 2679TIP3    H2 8044   2.849   0.447   2.761 -1.7304 -1.1409 -1.2638
 2680TIP3   OH2 8045   5.369   4.641   3.986 -0.1998  0.3515 -0.0804
 2680TIP3    H1 8046   5.356   4.571   4.050 -1.6742  1.4804  0.9013
 2680TIP3    H2 8047   5.463   4.661   3.991  0.3397 -1.7127 -0.6204
 2681TIP3   OH2 8048   1.350   4.154   0.157  0.1997  0.2648 -0.6461
 2681TIP3    H1 8049   1.428   4.146   0.102  0.5450 -1.8667  0.0770
 2681TIP3    H2 8050   1.318   4.065   0.166 -1.0186  0.8219  0.9783
 2682TIP3   OH2 8051   4.382   0.504   2.534  0.2732  0.5609 -0.0642
 2682TIP3    H1 8052   4.323   0.555   2.478  1.3479 -0.0647 -1.8855
 2682TIP3    H2 8053   4.350   0.414   2.525  0.7264  0.3955 -0.0524
 2683TIP3   OH2 8054   5.695   2.168   2.347  0.7797 -0.0577  0.1596
 2683TIP3    H1 8055   5.699   2.126   2.261  0.8343  1.0093 -0.3749
 2683TIP3    H2 8056   5.605   2.202   2.353  0.3681 -1.2141  1.0763
 2684TIP3   OH2 8057   4.571   4.640   3.923 -0.1581  0.0394  0.2227
 2684TIP3    H1 8058   4.517   4.671   3.851 -0.8806  0.5049  0.9421
 2684TIP3    H2 8059   4.508   4.604   3.986  0.4914 -0.7556  0.4306
 2685TIP3   OH2 8060   3.358   3.927   0.192  0.3234  0.0568 -0.5755
 2685TIP3    H1 8061   3.342   3.864   0.122  0.3729 -2.8393  1.7740
 2685TIP3    H2 8062   3.272   3.938   0.234  0.9738 -1.7580  1.4518
 2686TIP3   OH2 8063   1.639   5.534   1.002 -0.5247  0.2660  0.2291
 2686TIP3    H1 8064   1.718   5.560   0.954 -1.7806  0.1061 -2.0594
 2686TIP3    H2 8065   1.665   5.455   1.049  0.7101  0.2694 -0.3990
 2687TIP3   OH2 8066   3.913   1.872   3.404 -0.7688  0.1056  0.3575
 2687TIP3    H1 8067   3.990   1.839   3.452 -0.4897 -1.3358 -0.9808
 2687TIP3    H2 8068   3.842   1.868   3.468  0.0259  0.3543  1.2845
 2688TIP3   OH2 8069   1.265   5.428   1.082 -0.3131 -0.1113  0.0364
 2688TIP3    H1 8070   1.235   5.365   1.147 -0.2724 -0.9900 -0.7734
 2688TIP3    H2 8071   1.325   5.485   1.130  0.0254 -0.9820  0.6805
 2689TIP3   OH2 8072   0.473   5.682   4.174  0.6482 -0.4739 -1.0412
 2689TIP3    H1 8073   0.553   5.665   4.224 -0.6897 -0.4334  1.2493
 2689TIP3    H2 8074   0.476   5.775   4.155  1.6587 -0.6752 -1.9704
 2690TIP3   OH2 8075   3.039   1.924   1.049 -0.4205  0.2240  0.4715
 2690TIP3    H1 8076   2.965   1.976   1.079 -0.8697  0.2132 -0.5921
 2690TIP3    H2 8077   3.009   1.833   1.057  0.1936  0.1068  1.8739
 2691TIP3   OH2 8078   4.561   2.133   3.160  0.0758  0.2951 -0.1673
 2691TIP3    H1 8079   4.578   2.044   3.191  0.6427 -0.4944 -2.4911
 2691TIP3    H2 8080   4.469   2.133   3.135  0.2787  0.0613 -0.9568
 2692TIP3   OH2 8081   6.261   1.942   4.054 -0.1365 -0.6036  0.4734
 2692TIP3    H1 8082   6.188   1.898   4.097  0.4705 -0.4580  1.6900
 2692TIP3    H2 8083   6.245   1.929   3.960 -3.0913  1.6015  0.5270
 2693TIP3   OH2 8084   0.547   4.451   3.436  0.4999  0.2533  0.6342
 2693TIP3    H1 8085   0.634   4.478   3.407  0.5379  0.6411  1.0983
 2693TIP3    H2 8086   0.488   4.513   3.393  0.4570  0.0396  0.3825
 2694TIP3   OH2 8087   4.449   1.947   1.408 -0.0497 -0.2733  0.3131
 2694TIP3    H1 8088   4.370   1.916   1.365  0.1604  0.7442 -0.8741
 2694TIP3    H2 8089   4.464   2.034   1.371 -0.2392  0.9924  2.9763
 2695TIP3   OH2 8090   1.877   1.635   4.183 -0.0102 -0.0319 -0.0630
 2695TIP3    H1 8091   1.915   1.628   4.271  0.2923 -2.7671 -0.3007
 2695TIP3    H2 8092   1.784   1.650   4.199  0.2754  1.1426  0.6536
 2696TIP3   OH2 8093   6.090   3.023   2.385 -0.1674  0.1722 -0.0581
 2696TIP3    H1 8094   6.171   3.035   2.435  0.0564  1.7074 -0.7390
 2696TIP3    H2 8095   6.023   3.011   2.452  0.4981 -0.3398  0.5374
 2697TIP3   OH2 8096   5.526   2.623   2.213  0.2727  0.6154 -0.0157
 2697TIP3    H1 8097   5.451   2.672   2.245 -0.8672 -1.5625  0.8304
 2697TIP3    H2 8098   5.502   2.597   2.124 -0.0080 -0.0912  0.2591
 2698TIP3   OH2 8099   3.198   4.522   3.725  0.8646 -0.1290 -0.2526
 2698TIP3    H1 8100   3.259   4.535   3.798  1.1649 -0.7410 -0.3903
 2698TIP3    H2 8101   3.148   4.444   3.748 -0.7457  1.0560  0.4364
 2699TIP3   OH2 8102   0.231   3.688   2.156  0.4997 -0.1710  0.0197
 2699TIP3    H1 8103   0.193   3.672   2.242 -0.5357  0.4497 -0.3021
 2699TIP3    H2 8104   0.187   3.767   2.125 -1.1118 -1.7870 -2.1573
 2700TIP3   OH2 8105   4.879   4.973   0.064  0.1156  0.3334  0.4202
 2700TIP3    H1 8106   4.961   5.021   0.052 -0.5498  1.4222  0.1421
 2700TIP3    H2 8107   4.907   4.881   0.072  1.3055  0.5981 -0.3555
 2701TIP3   OH2 8108   2.560   2.990   0.736 -0.7993  0.1318  0.1889
 2701TIP3    H1 8109   2.624   2.922   0.757 -1.5873 -1.1718 -1.4420
 2701TIP3    H2 8110   2.477   2.943   0.727 -1.3363  1.2814 -1.1254
 2702TIP3   OH2 8111   4.877   4.345   0.163 -0.3590  0.3505  0.1415
 2702TIP3    H1 8112   4.807   4.346   0.099 -1.6466  0.1528  1.4947
 2702TIP3    H2 8113   4.956   4.365   0.113 -1.2705 -0.0860 -1.5247
 2703TIP3   OH2 8114   2.792   4.301   3.934 -0.3181 -0.0954  0.3783
 2703TIP3    H1 8115   2.818   4.289   4.025  0.3512 -1.6663  0.0131
 2703TIP3    H2 8116   2.702   4.269   3.930 -0.4989  0.3828  0.5681
 2704TIP3   OH2 8117   0.568   3.544   4.648  0.2704 -0.1911 -0.4348
 2704TIP3    H1 8118   0.603   3.480   4.586 -0.2349  0.2817 -1.2275
 2704TIP3    H2 8119   0.487   3.575   4.607  0.1979  0.5148  0.2214
 2705TIP3   OH2 8120   0.702   0.934   1.526  0.2613  0.0995  0.0262
 2705TIP3    H1 8121   0.708   0.998   1.597  0.0887 -0.3648  0.4627
 2705TIP3    H2 8122   0.789   0.895   1.520 -0.1028 -0.9185  0.9896
 2706TIP3   OH2 8123   3.156   1.787   4.275  0.0341 -0.3505  0.4354
 2706TIP3    H1 8124   3.085   1.723   4.264 -0.6100 -0.2357  3.0413
 2706TIP3    H2 8125   3.124   1.866   4.232  0.3859 -1.4322 -1.9233
 2707TIP3   OH2 8126   0.606   5.928   4.484 -0.2160 -0.1831  0.6253
 2707TIP3    H1 8127   0.643   5.846   4.518  0.0530 -0.0510  0.6581
 2707TIP3    H2 8128   0.673   5.994   4.503  0.5793 -0.3422 -1.3800
 2708TIP3   OH2 8129   1.736   0.827   3.983 -0.0057  0.4324 -0.4357
 2708TIP3    H1 8130   1.726   0.747   4.035  0.0380  0.9712  0.4262
 2708TIP3    H2 8131   1.646   0.858   3.968 -0.0890 -0.4207 -1.8235
 2709TIP3   OH2 8132   1.839   0.420   4.380 -0.5147 -0.0407 -0.7391
 2709TIP3    H1 8133   1.746   0.443   4.379 -0.4935  0.2847  0.8537
 2709TIP3    H2 8134   1.885   0.504   4.377 -0.2952 -0.1578 -0.6875
 2710TIP3   OH2 8135   2.924   3.523   3.551  0.0213  0.3582 -0.5362
 2710TIP3    H1 8136   2.829   3.526   3.535  0.2619  1.5778 -1.9404
 2710TIP3    H2 8137   2.941   3.598   3.608 -0.2491 -1.6860  2.4339
 2711TIP3   OH2 8138   3.130   2.005   1.523 -0.0413 -0.2364 -0.2142
 2711TIP3    H1 8139   3.086   1.923   1.500 -0.1047 -0.0346 -0.8393
 2711TIP3    H2 8140   3.219   1.978   1.546  0.8441 -0.2597 -3.1773
 2712TIP3   OH2 8141   2.823   2.665   2.844 -0.3939 -0.2126 -0.1351
 2712TIP3    H1 8142   2.797   2.582   2.806  0.2743  0.4815 -2.2605
 2712TIP3    H2 8143   2.918   2.658   2.855 -0.4673 -0.0885  0.6313
 2713TIP3   OH2 8144   3.040   2.180   2.467 -0.2946 -0.0387  0.5565
 2713TIP3    H1 8145   3.085   2.228   2.537 -0.0776 -0.3699  0.6431
 2713TIP3    H2 8146   2.978   2.123   2.512  1.3763 -1.8999  0.6379
 2714TIP3   OH2 8147   1.975   4.492   1.291  0.2799 -0.3138  0.3949
 2714TIP3    H1 8148   2.022   4.485   1.208 -1.0399  0.4542 -0.4528
 2714TIP3    H2 8149   1.944   4.582   1.293 -0.2278 -0.4997  1.4358
 2715TIP3   OH2 8150   3.699   4.590   2.266  0.0760  0.3500 -0.1518
 2715TIP3    H1 8151   3.702   4.538   2.346  0.6062 -1.3457 -1.2033
 2715TIP3    H2 8152   3.675   4.678   2.294 -1.4911 -0.5876  1.6548
 2716TIP3   OH2 8153   0.372   5.888   0.270 -0.5285  0.3461  0.8292
 2716TIP3    H1 8154   0.314   5.850   0.336  0.2138 -1.2807  0.5924
 2716TIP3    H2 8155   0.317   5.898   0.193 -0.9665  0.6227  1.1699
 2717TIP3   OH2 8156   3.950   1.635   3.187  0.7002  0.3553 -0.0024
 2717TIP3    H1 8157   4.007   1.711   3.189 -0.9986  1.6905 -0.2160
 2717TIP3    H2 8158   3.898   1.646   3.107  0.3066 -0.9588  0.0438
 2718TIP3   OH2 8159   3.960   3.388   3.517  0.3964  0.3299 -0.2724
 2718TIP3    H1 8160   4.037   3.332   3.527  0.5514  0.4691 -0.6805
 2718TIP3    H2 8161   3.978   3.440   3.439  0.0922  0.6919 -0.1059
 2719TIP3   OH2 8162   3.184   1.621   0.548 -1.4053  0.4161  0.0394
 2719TIP3    H1 8163   3.227   1.707   0.553 -0.7370  0.1840 -1.2857
 2719TIP3    H2 8164   3.139   1.621   0.464 -0.2410 -1.0283 -0.6341
 2720TIP3   OH2 8165   2.223   0.625   1.516  0.1976  0.1164 -0.1861
 2720TIP3    H1 8166   2.280   0.670   1.454  1.4262  0.2105  0.9593
 2720TIP3    H2 8167   2.200   0.543   1.472  0.6574  0.3915 -0.9605
 2721TIP3   OH2 8168   3.095   0.432   0.376 -0.6978 -0.2707  0.4964
 2721TIP3    H1 8169   3.008   0.410   0.412 -1.3083  1.2877  0.0531
 2721TIP3    H2 8170   3.156   0.406   0.445 -1.6823  0.5991  1.7494
 2722TIP3   OH2 8171   3.915   2.188   1.435  0.3389  0.3819  0.3844
 2722TIP3    H1 8172   3.896   2.221   1.348  0.9090  0.1440  0.1631
 2722TIP3    H2 8173   3.962   2.106   1.420  1.4331  0.8820  0.8854
 2723TIP3   OH2 8174   1.690   1.437   3.935  0.2465 -0.0282 -0.3429
 2723TIP3    H1 8175   1.662   1.502   3.871  0.3834 -0.3045 -0.6889
 2723TIP3    H2 8176   1.786   1.440   3.932  0.2530  0.1787  0.0753
 2724TIP3   OH2 8177   0.598   3.955   4.113  0.2298  0.1763 -0.0878
 2724TIP3    H1 8178   0.604   4.007   4.033  0.2802 -0.5409 -0.5550
 2724TIP3    H2 8179   0.524   3.994   4.161  0.9137  1.3248  0.0612
 2725TIP3   OH2 8180   0.459   1.510   0.516 -0.0058  0.2873 -0.0386
 2725TIP3    H1 8181   0.545   1.471   0.500 -0.1890  0.2737 -1.0558
 2725TIP3    H2 8182   0.478   1.600   0.541  0.2938  0.3704 -0.5540
 2726TIP3   OH2 8183   1.949   0.897   4.687 -0.4874  0.0113 -0.6735
 2726TIP3    H1 8184   1.900   0.943   4.755 -0.9548 -1.0161 -0.2831
 2726TIP3    H2 8185   1.883   0.868   4.624  0.1265  2.7511 -2.7694
 2727TIP3   OH2 8186   1.841   0.536   3.409  0.3024  0.5371 -0.0146
 2727TIP3    H1 8187   1.803   0.623   3.405 -0.3212  0.3880  1.8069
 2727TIP3    H2 8188   1.785   0.488   3.470  1.0339 -0.9413 -0.4547
 2728TIP3   OH2 8189   3.135   2.205   4.870 -0.5357 -0.0989 -0.1856
 2728TIP3    H1 8190   3.221   2.199   4.828 -0.9507  0.8178 -1.1930
 2728TIP3    H2 8191   3.104   2.292   4.849 -2.3282 -0.9012 -1.0408
 2729TIP3   OH2 8192   4.774   3.236   0.723  0.3348  0.5085 -0.0412
 2729TIP3    H1 8193   4.781   3.327   0.694  1.6594  0.7836  1.0337
 2729TIP3    H2 8194   4.707   3.238   0.792  1.1060  0.8751  0.7081
 2730TIP3   OH2 8195   0.130   5.306   4.424 -0.1439  0.0533 -0.2412
 2730TIP3    H1 8196   0.079   5.334   4.348 -1.1145  0.5498  0.5611
 2730TIP3    H2 8197   0.064   5.272   4.485  0.3805  1.4071  1.1343
 2731TIP3   OH2 8198   3.369   0.695   0.135  0.0396  0.0665 -0.3540
 2731TIP3    H1 8199   3.332   0.714   0.221 -0.5868  0.4665 -0.7099
 2731TIP3    H2 8200   3.464   0.693   0.150  0.0109  1.3066  0.1188
 2732TIP3   OH2 8201   6.029   1.636   2.915  0.0557 -0.5343  0.0190
 2732TIP3    H1 8202   5.954   1.584   2.943  0.3815 -0.6721  0.6729
 2732TIP3    H2 8203   5.992   1.720   2.889 -0.4371 -0.9734 -0.7051
 2733TIP3   OH2 8204   2.326   1.130   3.827  0.1734  0.0051  0.1844
 2733TIP3    H1 8205   2.317   1.103   3.736  1.0859  1.1521 -0.2688
 2733TIP3    H2 8206   2.286   1.216   3.832  0.0325 -0.0917  0.8997
 2734TIP3   OH2 8207   1.032   2.843   4.733 -0.2282 -0.3316 -0.6260
 2734TIP3    H1 8208   1.064   2.912   4.674 -0.7520  0.2777 -0.2090
 2734TIP3    H2 8209   0.937   2.842   4.719 -0.2154 -1.0129 -0.6716
 2735TIP3   OH2 8210   4.175   0.369   0.139  0.4144  0.0204 -0.1018
 2735TIP3    H1 8211   4.096   0.323   0.110 -0.2095  0.8830  0.1975
 2735TIP3    H2 8212   4.228   0.302   0.182 -0.1959 -0.5487 -0.2338
 2736TIP3   OH2 8213   0.563   5.871   1.833  0.2078 -0.2975 -0.1197
 2736TIP3    H1 8214   0.491   5.836   1.884  1.6169 -2.3463  0.5842
 2736TIP3    H2 8215   0.556   5.966   1.843  0.1062 -0.5575  3.5316
 2737TIP3   OH2 8216   1.279   3.870   0.206  0.5843 -0.0962  0.1328
 2737TIP3    H1 8217   1.267   3.829   0.120 -1.3855  0.0854  0.2748
 2737TIP3    H2 8218   1.197   3.851   0.253  0.1397  2.8086  0.6876
 2738TIP3   OH2 8219   3.980   5.723   0.172  0.1756 -0.1668 -0.5122
 2738TIP3    H1 8220   3.932   5.736   0.090  1.0709  1.9165 -0.7602
 2738TIP3    H2 8221   4.000   5.629   0.174 -0.4681 -0.3728 -2.3196
 2739TIP3   OH2 8222   1.821   4.923   0.416 -0.3122  0.4192 -0.3991
 2739TIP3    H1 8223   1.839   4.894   0.327  1.6391 -0.1745  0.1276
 2739TIP3    H2 8224   1.806   4.842   0.465  0.5838  0.5785  0.1742
 2740TIP3   OH2 8225   0.165   1.542   4.172  0.0128  0.8151 -0.6400
 2740TIP3    H1 8226   0.076   1.563   4.202  0.0179  1.4181 -1.0303
 2740TIP3    H2 8227   0.197   1.478   4.235  1.0826  4.0988  2.5232
 2741TIP3   OH2 8228   6.279   1.563   4.323  0.2357 -0.1801 -0.0681
 2741TIP3    H1 8229   6.218   1.489   4.321 -1.0312  0.8368 -0.7369
 2741TIP3    H2 8230   6.224   1.638   4.344  0.7460  1.1671 -3.0708
 2742TIP3   OH2 8231   5.977   2.320   5.016 -0.2525 -0.3247 -0.3841
 2742TIP3    H1 8232   5.913   2.334   5.086  0.6752  0.7789  0.2903
 2742TIP3    H2 8233   5.929   2.272   4.949 -1.4853 -0.4383  0.5363
 2743TIP3   OH2 8234   2.188   3.384   2.204  0.1338  0.1149  0.3159
 2743TIP3    H1 8235   2.207   3.310   2.260  2.1634  0.0274 -0.4073
 2743TIP3    H2 8236   2.092   3.392   2.206 -0.0003 -1.3867  1.8015
 2744TIP3   OH2 8237   4.362   1.475   0.898  0.2871  0.1161 -0.1446
 2744TIP3    H1 8238   4.456   1.483   0.913  0.5470 -0.7111 -1.1822
 2744TIP3    H2 8239   4.347   1.517   0.813 -0.0357 -0.9753 -0.6483
 2745TIP3   OH2 8240   2.474   5.720   4.343  0.3836 -0.4753 -0.0395
 2745TIP3    H1 8241   2.554   5.725   4.290  1.5849 -0.3258  1.7015
 2745TIP3    H2 8242   2.475   5.800   4.396 -0.9385 -0.4707  0.0150
 2746TIP3   OH2 8243   3.587   0.900   0.331 -0.6766 -0.3743 -0.6188
 2746TIP3    H1 8244   3.614   0.977   0.381 -0.3232 -1.4850  0.9887
 2746TIP3    H2 8245   3.527   0.934   0.265  0.4273  1.4342 -0.7657
 2747TIP3   OH2 8246   1.242   2.979   3.841 -0.5778 -0.3778  0.2505
 2747TIP3    H1 8247   1.206   2.902   3.797  0.1767 -0.7750  0.3248
 2747TIP3    H2 8248   1.313   3.008   3.785  0.3301 -0.8307  1.1429
 2748TIP3   OH2 8249   5.462   5.300   1.875 -0.0186 -0.6240 -0.4394
 2748TIP3    H1 8250   5.462   5.376   1.818 -0.3063 -0.8083 -0.6906
 2748TIP3    H2 8251   5.544   5.254   1.855 -0.2957 -0.8898 -0.9794
 2749TIP3   OH2 8252   4.533   1.775   0.806 -0.0827  0.3979  0.0172
 2749TIP3    H1 8253   4.520   1.742   0.895  1.0224 -0.0175  0.0450
 2749TIP3    H2 8254   4.572   1.701   0.759  0.2918  0.9420 -0.5424
 2750TIP3   OH2 8255   1.415   3.690   3.344  0.4685  0.0703  0.2087
 2750TIP3    H1 8256   1.402   3.783   3.330  1.9482  0.3186  0.2598
 2750TIP3    H2 8257   1.348   3.665   3.408 -2.1634  0.3225 -2.2961
 2751TIP3   OH2 8258   4.646   5.263   3.215 -0.9395 -0.6032  0.6564
 2751TIP3    H1 8259   4.592   5.323   3.268 -0.0182  0.3283  0.5702
 2751TIP3    H2 8260   4.642   5.300   3.127 -0.9409 -1.0920  0.4470
 2752TIP3   OH2 8261   2.451   0.944   1.014  0.0392 -0.8202 -0.7131
 2752TIP3    H1 8262   2.440   1.030   1.055 -0.3965 -1.0735 -0.3023
 2752TIP3    H2 8263   2.546   0.935   1.004  0.0842 -0.2676 -0.8117
 2753TIP3   OH2 8264   4.812   2.506   3.973  0.0259  0.1678 -0.4664
 2753TIP3    H1 8265   4.856   2.453   4.040 -0.0514  0.3364 -0.2811
 2753TIP3    H2 8266   4.878   2.570   3.947  0.2988 -0.3492 -1.0748
 2754TIP3   OH2 8267   0.782   2.116   1.511 -0.4828  0.4590 -0.2858
 2754TIP3    H1 8268   0.769   2.036   1.460 -0.5716  0.7200 -0.6757
 2754TIP3    H2 8269   0.736   2.184   1.462 -0.5516  0.7212  0.1298
 2755TIP3   OH2 8270   4.776   1.590   3.807 -0.0958  0.3410 -0.1746
 2755TIP3    H1 8271   4.870   1.594   3.824 -0.1001 -1.3176  0.4097
 2755TIP3    H2 8272   4.761   1.659   3.742  2.0594 -1.2517 -2.5940
 2756TIP3   OH2 8273   5.250   4.940   3.976 -0.0513 -0.7560  0.3722
 2756TIP3    H1 8274   5.269   4.846   3.977 -0.4538 -0.8486  2.5078
 2756TIP3    H2 8275   5.210   4.958   4.061  1.3532  1.6251  0.6227
 2757TIP3   OH2 8276   1.108   5.589   1.860  0.8610  0.4784  0.0587
 2757TIP3    H1 8277   1.053   5.653   1.907  1.3626  2.5947 -2.0476
 2757TIP3    H2 8278   1.196   5.604   1.895  1.0971  1.5083 -0.8928
 2758TIP3   OH2 8279   0.072   1.392   2.165 -0.2393 -0.0128  0.1897
 2758TIP3    H1 8280   0.110   1.316   2.123 -0.4537 -1.7612  2.9116
 2758TIP3    H2 8281   0.107   1.467   2.116  2.4163 -1.7179 -0.7103
 2759TIP3   OH2 8282   4.085   3.552   3.756 -0.0005  0.7771 -0.1219
 2759TIP3    H1 8283   4.122   3.600   3.682 -0.5030  1.7797  0.2579
 2759TIP3    H2 8284   4.157   3.498   3.788  0.1529  0.1340 -1.4833
 2760TIP3   OH2 8285   3.876   4.490   3.530  0.3146 -0.1668 -0.0554
 2760TIP3    H1 8286   3.940   4.420   3.513  0.7239 -0.1671  1.3212
 2760TIP3    H2 8287   3.890   4.553   3.459  1.9296 -0.1248  0.2452
 2761TIP3   OH2 8288   0.330   5.679   0.827  0.0311 -0.0202  0.6342
 2761TIP3    H1 8289   0.347   5.763   0.871 -0.1355  1.0110 -1.1674
 2761TIP3    H2 8290   0.379   5.684   0.745  0.2448 -1.8362  0.6098
 2762TIP3   OH2 8291   4.594   5.555   2.242 -0.1254 -0.5092 -0.3690
 2762TIP3    H1 8292   4.590   5.498   2.318  0.0506  1.4736  1.2174
 2762TIP3    H2 8293   4.512   5.539   2.195 -1.1410 -0.4107  1.2991
 2763TIP3   OH2 8294   1.139   4.120   3.842 -0.1864  0.0872 -0.1893
 2763TIP3    H1 8295   1.112   4.085   3.927 -2.5030  0.4164 -0.7151
 2763TIP3    H2 8296   1.099   4.207   3.838 -1.3706 -0.4777 -2.1412
 2764TIP3   OH2 8297   4.954   3.666   3.172  0.0299  0.4997  0.5543
 2764TIP3    H1 8298   4.997   3.751   3.172  1.6025 -0.2308 -0.7010
 2764TIP3    H2 8299   5.000   3.616   3.104 -2.4974 -0.5237 -0.5234
 2765TIP3   OH2 8300   6.292   2.955   0.649  0.2979  0.3528 -0.5075
 2765TIP3    H1 8301   6.226   3.007   0.694  0.0250  0.2531 -0.7860
 2765TIP3    H2 8302   6.254   2.939   0.562 -0.2411 -1.4665  0.0220
 2766TIP3   OH2 8303   5.420   5.360   4.749  0.5064 -0.3012  0.6100
 2766TIP3    H1 8304   5.365   5.368   4.827 -0.1614 -0.6691  0.1840
 2766TIP3    H2 8305   5.362   5.326   4.682  0.8283  0.9081 -0.3269
 2767TIP3   OH2 8306   1.765   0.628   3.104 -0.3409 -0.0493  0.2149
 2767TIP3    H1 8307   1.829   0.680   3.153  0.8294 -0.2523 -1.0576
 2767TIP3    H2 8308   1.817   0.563   3.057 -1.4420  0.0121 -1.1464
 2768TIP3   OH2 8309   4.459   4.035   2.501  0.1369 -0.6660 -0.1365
 2768TIP3    H1 8310   4.499   4.057   2.417  0.1669 -0.0390  0.0405
 2768TIP3    H2 8311   4.390   3.972   2.478 -0.9635  0.7193 -0.8623
 2769TIP3   OH2 8312   2.210   0.680   1.945  0.0855  0.7689 -0.2428
 2769TIP3    H1 8313   2.221   0.633   1.863  2.3842  0.3252  0.2602
 2769TIP3    H2 8314   2.257   0.628   2.010 -3.5390 -0.1284  1.9509
 2770TIP3   OH2 8315   6.214   5.704   4.626 -0.2905 -0.5009 -0.2987
 2770TIP3    H1 8316   6.230   5.659   4.543  0.7214 -0.0507 -0.3611
 2770TIP3    H2 8317   6.273   5.779   4.625 -1.2992  0.3354  0.1995
 2771TIP3   OH2 8318   0.051   2.788   1.754 -0.5794 -0.1668 -0.1264
 2771TIP3    H1 8319   0.073   2.871   1.797 -0.3595  1.0373 -2.4238
 2771TIP3    H2 8320   0.004   2.738   1.821  0.9090  1.0115  1.9279
 2772TIP3   OH2 8321   1.260   1.957   0.056  0.2291  0.1999  0.4367
 2772TIP3    H1 8322   1.297   1.889   0.112 -3.3985 -0.3365  2.4510
 2772TIP3    H2 8323   1.227   1.910  -0.020  2.6733  0.5761 -0.9562
 2773TIP3   OH2 8324   4.312   3.515   1.871  0.2583 -0.6335  0.1046
 2773TIP3    H1 8325   4.328   3.528   1.778  1.1676 -1.0732  0.1802
 2773TIP3    H2 8326   4.392   3.471   1.903  0.3202  0.2571  1.2502
 2774TIP3   OH2 8327   2.501   1.647   2.004  0.6005  0.3726  0.3050
 2774TIP3    H1 8328   2.462   1.630   1.918 -1.1438  0.4475  1.0212
 2774TIP3    H2 8329   2.522   1.560   2.038 -1.2488  0.1000  0.8740
 2775TIP3   OH2 8330   2.221   5.535   1.056 -0.1720  0.3390  0.2921
 2775TIP3    H1 8331   2.303   5.538   1.006  0.4971  2.3573  1.3971
 2775TIP3    H2 8332   2.245   5.567   1.143 -0.9041 -4.6104  2.6634
 2776TIP3   OH2 8333   2.736   3.484   2.284 -0.5196  0.3473  0.5478
 2776TIP3    H1 8334   2.734   3.545   2.210  0.9209 -0.0605  0.1369
 2776TIP3    H2 8335   2.683   3.410   2.255  0.1287  0.1410 -0.1410
 2777TIP3   OH2 8336   5.882   5.296   3.818  0.1437  0.0599 -0.4743
 2777TIP3    H1 8337   5.905   5.315   3.727  2.0959  0.9519  0.1466
 2777TIP3    H2 8338   5.953   5.336   3.869  0.1028 -2.0357  1.3496
 2778TIP3   OH2 8339   5.416   3.613   4.893 -1.1739 -0.0992 -0.7407
 2778TIP3    H1 8340   5.345   3.595   4.955  1.9456 -1.5686  2.7235
 2778TIP3    H2 8341   5.432   3.529   4.850 -0.4095 -0.2330 -0.2035
 2779TIP3   OH2 8342   6.206   2.289   1.392 -0.2949  0.4870 -0.7903
 2779TIP3    H1 8343   6.238   2.269   1.303 -1.4955 -1.4590 -0.8242
 2779TIP3    H2 8344   6.113   2.267   1.390 -0.4625  0.9358  0.8233
 2780TIP3   OH2 8345   0.464   0.524   2.607 -0.2358  0.2133 -0.4826
 2780TIP3    H1 8346   0.504   0.470   2.538  2.3389  2.0554 -0.5822
 2780TIP3    H2 8347   0.514   0.502   2.686 -0.9187  0.5507  0.0515
 2781TIP3   OH2 8348   2.461   4.735   2.413  0.5757 -0.4933 -0.0387
 2781TIP3    H1 8349   2.368   4.743   2.432  0.7395 -0.8235  0.9411
 2781TIP3    H2 8350   2.470   4.765   2.323 -0.0032  2.6220  0.8476
 2782TIP3   OH2 8351   1.357   1.586   4.350 -0.1926  0.0519  0.2018
 2782TIP3    H1 8352   1.376   1.613   4.260 -1.2407  0.1133 -0.0141
 2782TIP3    H2 8353   1.441   1.591   4.395  0.2793  0.3428 -0.6915
 2783TIP3   OH2 8354   5.760   4.964   3.436 -0.4657  0.0232 -0.1356
 2783TIP3    H1 8355   5.836   4.960   3.378 -2.3100 -0.9146 -2.6876
 2783TIP3    H2 8356   5.728   5.054   3.427 -0.3266  0.0935  0.0548
 2784TIP3   OH2 8357   4.064   5.443   1.400  0.1317  0.2461  0.0723
 2784TIP3    H1 8358   4.108   5.517   1.441  1.5562 -0.7143  0.3434
 2784TIP3    H2 8359   4.133   5.378   1.386 -0.9171 -0.7041 -0.9387
 2785TIP3   OH2 8360   3.520   3.436   3.513  0.1107  0.6885 -0.1769
 2785TIP3    H1 8361   3.591   3.410   3.571 -0.2901  0.5007  0.2323
 2785TIP3    H2 8362   3.456   3.365   3.520 -0.4950  1.2552  0.1014
 2786TIP3   OH2 8363   4.474   4.062   0.931 -0.3262 -0.5331 -0.2790
 2786TIP3    H1 8364   4.498   4.154   0.920  3.2276 -1.5157 -2.2085
 2786TIP3    H2 8365   4.440   4.036   0.845  0.2558 -1.3854 -0.2638
 2787TIP3   OH2 8366   0.976   4.037   0.457 -0.6028  0.2649  0.3972
 2787TIP3    H1 8367   0.973   4.129   0.432 -0.2629  0.1849  0.0558
 2787TIP3    H2 8368   1.046   4.032   0.522 -0.1532  0.1282 -0.0941
 2788TIP3   OH2 8369   3.080   2.475   4.806  0.3705  0.2118 -0.1548
 2788TIP3    H1 8370   2.990   2.480   4.839  1.2529  1.1427  2.3653
 2788TIP3    H2 8371   3.080   2.529   4.727 -1.4788 -0.6425 -0.7915
 2789TIP3   OH2 8372   1.073   4.876   4.415  0.6356 -0.2506  0.1301
 2789TIP3    H1 8373   1.066   4.791   4.457  2.7253 -0.2706  0.5144
 2789TIP3    H2 8374   1.149   4.918   4.456 -0.3922  1.8643  0.0433
 2790TIP3   OH2 8375   6.324   2.509   3.002 -0.2025  0.7061  0.3053
 2790TIP3    H1 8376   6.334   2.430   2.948  0.0407 -0.8158  2.4518
 2790TIP3    H2 8377   6.230   2.529   2.996 -0.6512 -0.9096  1.1894
 2791TIP3   OH2 8378   2.061   5.232   1.707  0.2031 -0.1038 -0.2270
 2791TIP3    H1 8379   1.973   5.216   1.740  0.2828  0.9296  0.5420
 2791TIP3    H2 8380   2.076   5.325   1.722  0.6288  0.2037 -2.3409
 2792TIP3   OH2 8381   3.512   5.246   0.683  0.2590  0.1667 -0.4481
 2792TIP3    H1 8382   3.583   5.210   0.630 -0.4682  0.9555 -2.0177
 2792TIP3    H2 8383   3.457   5.293   0.620 -0.8202  0.8573  0.9711
 2793TIP3   OH2 8384   3.091   3.414   1.746  0.3714 -0.0230 -0.1395
 2793TIP3    H1 8385   3.036   3.369   1.682 -2.0141  1.8451  0.4177
 2793TIP3    H2 8386   3.176   3.422   1.704  0.6589 -3.9720 -0.6410
 2794TIP3   OH2 8387   5.716   3.987   0.579 -0.5194 -0.0167 -0.1151
 2794TIP3    H1 8388   5.793   3.940   0.612 -0.0869  0.5668 -0.2679
 2794TIP3    H2 8389   5.641   3.938   0.613 -0.0882 -1.3380 -0.9975
 2795TIP3   OH2 8390   3.758   4.323   3.249  0.0832  0.2521 -0.4417
 2795TIP3    H1 8391   3.792   4.412   3.242 -0.4569  0.4461 -0.5781
 2795TIP3    H2 8392   3.784   4.294   3.336  2.0891 -0.2125 -1.1362
 2796TIP3   OH2 8393   3.778   1.290   1.968 -0.5081  0.0329  0.1900
 2796TIP3    H1 8394   3.800   1.299   2.061 -0.2769 -2.1546  0.4012
 2796TIP3    H2 8395   3.857   1.253   1.928 -0.8325  0.3314 -0.7574
 2797TIP3   OH2 8396   3.423   4.808   2.192  0.4614  0.1941 -0.0103
 2797TIP3    H1 8397   3.382   4.820   2.277  0.0788 -1.5917  0.1006
 2797TIP3    H2 8398   3.434   4.713   2.183  2.5724  0.4647 -0.9939
 2798TIP3   OH2 8399   4.276   5.104   2.256 -0.0271 -0.3215  0.8581
 2798TIP3    H1 8400   4.181   5.097   2.243 -0.2157  0.0171  1.9885
 2798TIP3    H2 8401   4.287   5.105   2.351  1.0863  0.0114  0.7326
 2799TIP3   OH2 8402   6.104   3.253   4.944  0.0369 -0.0715 -0.3102
 2799TIP3    H1 8403   6.017   3.218   4.925 -0.2839  0.8309 -0.5371
 2799TIP3    H2 8404   6.163   3.198   4.892 -0.4890 -0.0467 -0.9516
 2800TIP3   OH2 8405   0.462   5.114   3.163 -0.3400 -0.3430  0.2873
 2800TIP3    H1 8406   0.504   5.087   3.082 -1.5142 -0.5821 -0.2598
 2800TIP3    H2 8407   0.459   5.209   3.159 -1.0698 -0.3807 -0.3177
 2801TIP3   OH2 8408   3.942   4.029   1.883 -0.1303  0.3860 -0.3839
 2801TIP3    H1 8409   3.999   4.080   1.941  0.9949 -1.0638 -0.1535
 2801TIP3    H2 8410   3.968   4.056   1.795 -1.3406  2.0571 -0.2779
 2802TIP3   OH2 8411   1.304   0.924   2.103  0.5724  0.5877 -0.3023
 2802TIP3    H1 8412   1.396   0.942   2.084  1.1332 -1.8392 -0.2182
 2802TIP3    H2 8413   1.304   0.835   2.140 -1.4879  1.5861  2.4158
 2803TIP3   OH2 8414   1.657   3.992   4.508  0.1865 -1.0107 -0.1788
 2803TIP3    H1 8415   1.602   3.973   4.584  0.2334  0.3823  0.2186
 2803TIP3    H2 8416   1.595   4.009   4.437  0.1425 -2.0984 -0.4199
 2804TIP3   OH2 8417   1.749   1.099   3.457 -0.2192  0.6438  0.3195
 2804TIP3    H1 8418   1.679   1.122   3.396  0.1614 -0.5836 -0.6244
 2804TIP3    H2 8419   1.762   1.005   3.445  1.7787  0.8822  0.2251
 2805TIP3   OH2 8420   1.334   0.027   0.462 -0.9035 -0.5525 -0.2423
 2805TIP3    H1 8421   1.382  -0.027   0.400  1.1474  0.9311 -0.0306
 2805TIP3    H2 8422   1.279   0.083   0.407 -1.7510 -1.5974 -0.5161
 2806TIP3   OH2 8423   1.939   4.481   1.804 -0.0860  0.0731  0.6140
 2806TIP3    H1 8424   2.029   4.496   1.832  0.0690  0.7004 -0.1802
 2806TIP3    H2 8425   1.947   4.430   1.723 -0.4387  0.1380  0.5358
 2807TIP3   OH2 8426   4.386   2.212   1.909  0.4100  0.3142 -0.0902
 2807TIP3    H1 8427   4.366   2.292   1.958 -0.3769 -0.2583  0.5393
 2807TIP3    H2 8428   4.427   2.154   1.974 -0.8934 -0.5546 -0.0009
 2808TIP3   OH2 8429   4.652   1.742   1.485 -0.2963 -0.5301  0.2641
 2808TIP3    H1 8430   4.713   1.728   1.413  3.2788  3.6717  2.0056
 2808TIP3    H2 8431   4.581   1.794   1.447  0.5400 -0.0052 -0.6177
 2809TIP3   OH2 8432   0.734   0.711   1.987  1.3133 -0.3762  0.0749
 2809TIP3    H1 8433   0.807   0.717   1.926  1.6109  0.9591  0.5439
 2809TIP3    H2 8434   0.770   0.739   2.071  0.3037  0.1795  0.3414
 2810TIP3   OH2 8435   0.616   5.009   0.835 -0.0981  0.0976  0.1450
 2810TIP3    H1 8436   0.580   5.093   0.807  0.6120  0.4197  0.1562
 2810TIP3    H2 8437   0.683   5.033   0.900 -0.2569 -0.5088  0.5347
 2811TIP3   OH2 8438   0.234   4.113   3.294 -0.2689 -0.1674 -0.3862
 2811TIP3    H1 8439   0.303   4.127   3.360  0.8207  0.6741 -1.6576
 2811TIP3    H2 8440   0.267   4.040   3.241 -0.8777 -0.4755 -0.3443
 2812TIP3   OH2 8441   0.436   1.664   4.290  0.8550  0.8425 -0.2468
 2812TIP3    H1 8442   0.365   1.676   4.353  0.2104  0.5165 -0.9057
 2812TIP3    H2 8443   0.439   1.569   4.275  1.6329  0.8162  0.0028
 2813TIP3   OH2 8444   5.473   1.326   1.926 -0.1803 -0.0905 -0.6683
 2813TIP3    H1 8445   5.418   1.315   1.848  0.4648  0.2324 -1.1722
 2813TIP3    H2 8446   5.563   1.324   1.893  0.1099 -0.2605  0.1071
 2814TIP3   OH2 8447   5.070   2.132   0.654 -0.3432 -0.7609 -0.5868
 2814TIP3    H1 8448   5.025   2.145   0.571  0.2380 -0.2420 -0.8209
 2814TIP3    H2 8449   5.157   2.169   0.641 -0.1534 -0.9239  0.1648
 2815TIP3   OH2 8450   3.821   0.589   4.103  0.2083 -0.3428  0.5343
 2815TIP3    H1 8451   3.875   0.592   4.024  0.9090  0.9245  1.0373
 2815TIP3    H2 8452   3.756   0.658   4.091 -0.6687 -1.1693  0.4024
 2816TIP3   OH2 8453   3.390   3.796   5.031 -0.6402 -0.2326 -0.0747
 2816TIP3    H1 8454   3.331   3.860   5.071 -0.8602 -1.9286  2.5681
 2816TIP3    H2 8455   3.333   3.741   4.978 -1.1074 -0.5564  0.7412
 2817TIP3   OH2 8456   4.907   1.118   1.083  0.1271 -0.0239  0.0642
 2817TIP3    H1 8457   4.874   1.107   0.994  1.8864 -1.0344 -0.5015
 2817TIP3    H2 8458   4.909   1.213   1.096 -1.5831  0.1133 -0.3638
 2818TIP3   OH2 8459   5.664   4.008   5.057  0.2767  0.3339  0.3956
 2818TIP3    H1 8460   5.639   4.050   4.975  0.2011  0.2419  0.3711
 2818TIP3    H2 8461   5.662   3.915   5.038  1.4598  0.3474  0.1640
 2819TIP3   OH2 8462   4.221   3.780   1.945  0.3262  0.2001  0.0368
 2819TIP3    H1 8463   4.263   3.711   1.895  0.4961  0.6113 -0.3940
 2819TIP3    H2 8464   4.294   3.834   1.978  0.3337 -1.0186  2.1721
 2820TIP3   OH2 8465   3.672   5.808   0.276 -0.4243 -0.0084 -0.0320
 2820TIP3    H1 8466   3.745   5.869   0.262 -0.3134  0.1548  1.1664
 2820TIP3    H2 8467   3.715   5.724   0.297 -0.5688 -0.6334 -2.0045
 2821TIP3   OH2 8468   3.024   2.375   1.181 -0.8962  0.6823 -0.2266
 2821TIP3    H1 8469   3.086   2.304   1.191 -2.4422 -0.4301  2.5451
 2821TIP3    H2 8470   3.064   2.434   1.116  2.0326 -0.9270 -0.0157
 2822TIP3   OH2 8471   1.417   0.372   1.907 -0.3176  0.0276  0.4994
 2822TIP3    H1 8472   1.409   0.388   2.002  0.5550 -0.8593  0.7426
 2822TIP3    H2 8473   1.503   0.406   1.884  0.1574 -1.2213  0.3637
 2823TIP3   OH2 8474   2.405   2.551   4.382 -0.3718  0.3880  0.1180
 2823TIP3    H1 8475   2.420   2.583   4.293 -1.0505 -1.3994 -0.6942
 2823TIP3    H2 8476   2.415   2.628   4.437  3.2712  0.9969 -1.1264
 2824TIP3   OH2 8477   4.777   2.003   4.458 -0.5856 -0.1237 -0.3372
 2824TIP3    H1 8478   4.858   1.953   4.460 -0.5575 -0.0753 -0.2314
 2824TIP3    H2 8479   4.714   1.946   4.415 -0.5482 -0.2421 -0.2363
 2825TIP3   OH2 8480   2.839   2.518   0.025  0.0834 -0.1602 -0.5302
 2825TIP3    H1 8481   2.873   2.501   0.113  0.5589  1.3712 -0.3921
 2825TIP3    H2 8482   2.915   2.506  -0.032  0.2903  0.8966 -0.4896
 2826TIP3   OH2 8483   6.266   5.129   2.453 -0.3557  0.5344  1.0426
 2826TIP3    H1 8484   6.262   5.140   2.358  0.8690  1.6200  1.0814
 2826TIP3    H2 8485   6.236   5.039   2.468 -2.7823  1.0704 -0.1401
 2827TIP3   OH2 8486   1.524   5.534   3.482  0.4680  0.2326  0.0019
 2827TIP3    H1 8487   1.592   5.577   3.431 -0.0387  2.8827  1.3870
 2827TIP3    H2 8488   1.477   5.605   3.525 -1.6013 -1.6436  1.0750
 2828TIP3   OH2 8489   3.801   2.203   2.786 -0.4921 -0.2235 -0.3599
 2828TIP3    H1 8490   3.741   2.131   2.765  0.3741 -1.5036  1.3055
 2828TIP3    H2 8491   3.875   2.160   2.830  1.6278  1.2821 -2.1964
 2829TIP3   OH2 8492   5.868   1.502   0.873  0.3035  0.0442 -0.0873
 2829TIP3    H1 8493   5.910   1.583   0.843 -1.4579  0.3700 -1.8628
 2829TIP3    H2 8494   5.789   1.531   0.919  0.3512 -0.6416  0.4437
 2830TIP3   OH2 8495   0.210   3.420   2.818 -0.2710 -0.1660 -0.2123
 2830TIP3    H1 8496   0.140   3.397   2.757  0.8314 -1.1664 -1.1454
 2830TIP3    H2 8497   0.220   3.343   2.874 -1.3293  0.7734  1.3512
 2831TIP3   OH2 8498   5.979   1.308   0.138 -0.0761 -0.3374 -0.5180
 2831TIP3    H1 8499   5.949   1.361   0.212  1.2609 -0.3649  0.0717
 2831TIP3    H2 8500   6.017   1.230   0.179  0.0398 -0.6717 -1.2621
 2832TIP3   OH2 8501   4.423   4.331   3.553  0.1088 -0.2167  0.4087
 2832TIP3    H1 8502   4.426   4.346   3.648 -0.3468  0.9788  0.2557
 2832TIP3    H2 8503   4.472   4.405   3.516  0.8269 -1.0094 -0.2706
 2833TIP3   OH2 8504   0.769   0.328   1.404  0.0557  0.5681  0.0093
 2833TIP3    H1 8505   0.860   0.316   1.432  0.8039  1.6573 -1.8127
 2833TIP3    H2 8506   0.757   0.423   1.406 -1.1964  0.4133  0.5946
 2834TIP3   OH2 8507   5.602   5.595   2.343 -0.6906  0.2686  0.6882
 2834TIP3    H1 8508   5.688   5.561   2.367  0.8850  1.2747 -2.8208
 2834TIP3    H2 8509   5.546   5.518   2.337  0.9064 -0.8668 -0.3114
 2835TIP3   OH2 8510   3.226   4.636   1.978 -0.3042 -0.5041  0.0887
 2835TIP3    H1 8511   3.221   4.601   1.889 -1.8972 -0.3984  0.0957
 2835TIP3    H2 8512   3.309   4.682   1.981  1.1413 -2.9040 -0.4193
 2836TIP3   OH2 8513   4.017   1.401   0.820  0.2564  0.1488  0.5762
 2836TIP3    H1 8514   4.021   1.306   0.831 -0.9186 -0.1076 -0.7635
 2836TIP3    H2 8515   4.073   1.419   0.744 -1.7177  0.0786 -1.0090
 2837TIP3   OH2 8516   0.062   3.448   4.582  0.1111 -0.0050  0.5329
 2837TIP3    H1 8517   0.008   3.372   4.604  1.5081 -0.5217  2.3955
 2837TIP3    H2 8518   0.006   3.523   4.604 -0.6013 -0.4832  0.4134
 2838TIP3   OH2 8519   2.333   2.738   1.199 -0.7566 -0.0798 -0.1273
 2838TIP3    H1 8520   2.380   2.799   1.143 -0.6751 -0.3733 -0.3831
 2838TIP3    H2 8521   2.246   2.732   1.160 -1.1112  0.6973  0.5230
 2839TIP3   OH2 8522   5.956   5.022   2.562  0.1299 -0.3824 -0.2927
 2839TIP3    H1 8523   5.953   5.069   2.646 -2.5750 -0.2596 -0.3833
 2839TIP3    H2 8524   5.913   4.939   2.579 -3.8036  1.0234 -2.2425
 2840TIP3   OH2 8525   6.139   2.481   0.377  0.4431  0.3191  0.4020
 2840TIP3    H1 8526   6.085   2.536   0.320  1.0749  1.0479  0.4948
 2840TIP3    H2 8527   6.090   2.475   0.459 -0.4587 -0.7123 -0.1823
 2841TIP3   OH2 8528   0.297   4.043   0.782 -0.5314  0.7311  0.2763
 2841TIP3    H1 8529   0.321   3.970   0.840  3.0768  0.7546 -0.9260
 2841TIP3    H2 8530   0.305   4.121   0.837  1.9112  0.6730  0.1066
 2842TIP3   OH2 8531  -0.021   4.645   3.669  0.0134  0.2027  0.4145
 2842TIP3    H1 8532   0.041   4.715   3.690 -0.9920  1.8586 -1.7152
 2842TIP3    H2 8533   0.018   4.601   3.593 -0.1712 -0.4776  0.7067
 2843TIP3   OH2 8534   6.304   0.300   2.102 -0.8092 -0.4594 -0.1472
 2843TIP3    H1 8535   6.316   0.289   2.008  0.6105  1.3596 -0.2508
 2843TIP3    H2 8536   6.210   0.313   2.114 -0.8996  0.1847 -1.4437
 2844TIP3   OH2 8537   0.524   1.175   4.777 -0.2609  0.1013 -0.3368
 2844TIP3    H1 8538   0.545   1.194   4.685 -0.2245  0.6957 -0.2035
 2844TIP3    H2 8539   0.474   1.251   4.807  0.0674  0.0868  0.2543
 2845TIP3   OH2 8540   0.329   4.084   4.904  0.3380 -0.1504 -0.0822
 2845TIP3    H1 8541   0.309   4.082   4.811 -1.7414  3.0878  0.1414
 2845TIP3    H2 8542   0.268   4.021   4.944  0.1852 -0.4259 -0.7440
 2846TIP3   OH2 8543   3.353   2.486   4.908  0.0127 -0.0053  0.5676
 2846TIP3    H1 8544   3.395   2.526   4.832 -0.8359  1.6674  0.9298
 2846TIP3    H2 8545   3.261   2.480   4.884  0.1125 -1.9427  0.4812
 2847TIP3   OH2 8546   5.445   0.488   0.603 -0.4019  0.4420 -0.3221
 2847TIP3    H1 8547   5.373   0.457   0.657 -0.4923  1.2252  0.0317
 2847TIP3    H2 8548   5.507   0.415   0.600 -0.1927  0.5260  1.2112
 2848TIP3   OH2 8549   2.401   3.814   3.421 -1.1518  0.4685 -0.4400
 2848TIP3    H1 8550   2.435   3.882   3.362  1.5123  0.7379  1.2414
 2848TIP3    H2 8551   2.413   3.733   3.373 -1.9142  0.9328 -1.4499
 2849TIP3   OH2 8552   4.847   2.192   5.015 -0.2925  0.1125 -0.3603
 2849TIP3    H1 8553   4.787   2.152   5.077  1.9103 -1.3929  0.9286
 2849TIP3    H2 8554   4.822   2.156   4.930 -0.9198 -0.8080  0.2003
 2850TIP3   OH2 8555   5.398   1.876   4.616  0.2192  0.0548  0.1268
 2850TIP3    H1 8556   5.462   1.838   4.676  0.9739  0.6022 -0.3130
 2850TIP3    H2 8557   5.335   1.921   4.673 -1.0514 -2.3188  0.6972
 2851TIP3   OH2 8558   5.710   4.027   0.253 -0.1901  0.4608  0.0072
 2851TIP3    H1 8559   5.741   4.033   0.162 -0.1186 -0.5816 -0.0539
 2851TIP3    H2 8560   5.790   4.030   0.305 -0.2144  0.8231  0.0274
 2852TIP3   OH2 8561   3.111   3.467   2.824 -0.0377  0.0678  0.0262
 2852TIP3    H1 8562   3.043   3.527   2.795 -0.0872  0.1926  0.3927
 2852TIP3    H2 8563   3.139   3.501   2.909  0.7207  0.2104 -0.2741
 2853TIP3   OH2 8564   3.523   3.830   1.780  0.3762 -0.2914 -0.4719
 2853TIP3    H1 8565   3.566   3.870   1.856 -0.4547 -0.1394 -0.0710
 2853TIP3    H2 8566   3.521   3.901   1.715  0.4712 -0.2133 -0.3920
 2854TIP3   OH2 8567   0.150   2.355   0.979  0.0412  0.3704  0.3591
 2854TIP3    H1 8568   0.199   2.424   1.025  0.1875  0.7662 -0.3758
 2854TIP3    H2 8569   0.089   2.403   0.923 -1.2272 -0.1166  1.2879
 2855TIP3   OH2 8570   5.756   1.781   1.916 -0.1202  0.0959  0.3287
 2855TIP3    H1 8571   5.786   1.842   1.848 -2.0493  1.3048  0.4600
 2855TIP3    H2 8572   5.664   1.766   1.895 -1.1949  1.5778  3.3687
 2856TIP3   OH2 8573   2.694   3.724   2.401  0.2136 -0.3200  0.5506
 2856TIP3    H1 8574   2.714   3.638   2.364 -0.6016  0.1702 -1.1350
 2856TIP3    H2 8575   2.621   3.709   2.461 -0.8491 -0.6434 -0.7728
 2857TIP3   OH2 8576   4.792   1.682   2.001  0.1726 -0.4577 -0.3355
 2857TIP3    H1 8577   4.855   1.647   1.937  0.5079 -1.3156  0.4496
 2857TIP3    H2 8578   4.840   1.751   2.046  0.1712 -0.3430 -0.5064
 2858TIP3   OH2 8579   0.155   1.273   4.777  0.4593 -0.0033 -0.2047
 2858TIP3    H1 8580   0.221   1.304   4.838 -0.1081  0.3736  0.2270
 2858TIP3    H2 8581   0.201   1.267   4.693  0.9928  0.4202  0.0524
 2859TIP3   OH2 8582   0.250   2.246   3.966 -0.2281  0.4032 -0.2984
 2859TIP3    H1 8583   0.215   2.158   3.951 -1.7950  1.0552 -0.6481
 2859TIP3    H2 8584   0.337   2.231   4.002 -0.0825 -1.2848 -1.2326
 2860TIP3   OH2 8585   0.216   5.411   4.782  0.2467 -0.2289  0.2199
 2860TIP3    H1 8586   0.237   5.503   4.767  2.2948 -0.6494  0.1565
 2860TIP3    H2 8587   0.121   5.406   4.774  0.3016  1.3106 -3.0678
 2861TIP3   OH2 8588   5.298   5.742   2.727 -0.0209 -0.6607 -0.4539
 2861TIP3    H1 8589   5.229   5.739   2.793 -0.4872  0.4397 -0.8587
 2861TIP3    H2 8590   5.376   5.767   2.775 -0.3242 -0.0202 -0.2796
 2862TIP3   OH2 8591   6.076   1.745   4.336  0.2993  0.2875  0.9772
 2862TIP3    H1 8592   5.985   1.720   4.350  0.7024 -0.4096  2.5695
 2862TIP3    H2 8593   6.089   1.738   4.242 -1.0789 -0.3586  0.8158
 2863TIP3   OH2 8594   1.505   3.267   4.795 -0.4125  0.6384  0.5664
 2863TIP3    H1 8595   1.578   3.253   4.735 -0.0890 -0.2112  1.1329
 2863TIP3    H2 8596   1.527   3.213   4.871 -2.5174 -1.1325  0.0032
 2864TIP3   OH2 8597   2.359   5.806   0.717 -0.0192  0.8203 -0.2560
 2864TIP3    H1 8598   2.426   5.867   0.688  0.3883  0.1006 -0.8742
 2864TIP3    H2 8599   2.392   5.720   0.692  0.1445  0.1685  1.9834
 2865TIP3   OH2 8600   2.215   1.090   0.195  0.2082 -0.6118 -0.2051
 2865TIP3    H1 8601   2.257   1.073   0.111  0.6973  0.1341 -0.1248
 2865TIP3    H2 8602   2.137   1.034   0.195  1.4107 -2.3388 -0.1857
 2866TIP3   OH2 8603   3.471   5.320   2.850 -0.2743 -0.3617 -0.2326
 2866TIP3    H1 8604   3.438   5.362   2.770  0.2378  1.1920  0.3414
 2866TIP3    H2 8605   3.466   5.227   2.831 -1.5257 -0.0697 -1.5339
 2867TIP3   OH2 8606   1.280   2.728   3.984 -0.1536  0.1315  0.2174
 2867TIP3    H1 8607   1.348   2.670   3.951 -0.2150 -0.7082  1.4574
 2867TIP3    H2 8608   1.272   2.797   3.918  1.5986  0.0312 -0.1528
 2868TIP3   OH2 8609   4.806   0.991   4.650  0.2218 -0.5711  0.1470
 2868TIP3    H1 8610   4.714   0.973   4.630  0.9336 -2.5885 -1.7352
 2868TIP3    H2 8611   4.832   1.055   4.584  0.6093 -1.4542 -0.5886
 2869TIP3   OH2 8612   4.294   5.389   2.187 -0.2948  0.1551 -0.1424
 2869TIP3    H1 8613   4.376   5.354   2.150 -0.5351  0.6265 -1.1513
 2869TIP3    H2 8614   4.262   5.319   2.243  1.1158  0.1983  0.7642
 2870TIP3   OH2 8615   5.895   4.504   4.206 -0.2607  0.2551 -0.2770
 2870TIP3    H1 8616   5.879   4.591   4.170  2.4429  0.4167 -1.3164
 2870TIP3    H2 8617   5.912   4.449   4.130  0.0726 -0.6896  0.4593
 2871TIP3   OH2 8618   0.503   4.127   4.542  0.1546  0.1755 -0.1913
 2871TIP3    H1 8619   0.429   4.067   4.540  0.2283  0.1008 -0.8193
 2871TIP3    H2 8620   0.580   4.070   4.539  0.2221  0.3073 -1.3198
 2872TIP3   OH2 8621   5.549   4.516   3.327  0.5804  0.7032 -0.5231
 2872TIP3    H1 8622   5.578   4.537   3.239  0.1937  1.1118 -0.5542
 2872TIP3    H2 8623   5.581   4.588   3.381 -0.0327  0.9648 -0.4953
 2873TIP3   OH2 8624   1.522   3.663   2.360  0.2679  0.1242 -0.7196
 2873TIP3    H1 8625   1.580   3.594   2.328  2.1164  1.4484 -0.4136
 2873TIP3    H2 8626   1.575   3.743   2.355 -1.9100  1.6141 -1.4415
 2874TIP3   OH2 8627   2.317   0.825   4.730 -0.1524  0.6656  0.0323
 2874TIP3    H1 8628   2.287   0.835   4.640  0.7177 -3.2659 -0.8603
 2874TIP3    H2 8629   2.291   0.737   4.756  0.6238  1.2248  3.2693
 2875TIP3   OH2 8630   6.155   4.917   2.091  0.2909 -0.0925 -0.2741
 2875TIP3    H1 8631   6.109   4.879   2.165  0.3747  0.0433 -0.1521
 2875TIP3    H2 8632   6.237   4.867   2.086  1.3141  1.3892  1.1342
 2876TIP3   OH2 8633   3.382   0.752   4.992 -0.4105 -0.2618  0.1250
 2876TIP3    H1 8634   3.393   0.670   5.040 -0.4207 -0.0336  0.5312
 2876TIP3    H2 8635   3.379   0.819   5.061 -0.0117  0.1162 -0.2194
 2877TIP3   OH2 8636   2.176   1.416   4.672  0.1462  0.0536 -0.9134
 2877TIP3    H1 8637   2.256   1.411   4.723  0.4870  2.0116 -1.1612
 2877TIP3    H2 8638   2.132   1.333   4.687  2.2984 -1.1521 -0.9317
 2878TIP3   OH2 8639   1.524   2.320   3.401  0.1246 -0.0803 -0.6113
 2878TIP3    H1 8640   1.512   2.266   3.323 -1.2437 -1.6044  0.5974
 2878TIP3    H2 8641   1.555   2.260   3.468  0.3456  1.0117  0.3072
 2879TIP3   OH2 8642   4.713   2.964   0.375  0.5549  0.2764 -0.0974
 2879TIP3    H1 8643   4.676   2.944   0.461 -0.7097 -0.4581 -0.7930
 2879TIP3    H2 8644   4.803   2.932   0.381  0.1239 -0.8991  0.5666
 2880TIP3   OH2 8645   4.417   5.032   3.962 -0.6022 -0.8856 -0.2532
 2880TIP3    H1 8646   4.343   4.982   3.996 -0.5887  0.1236  1.3978
 2880TIP3    H2 8647   4.456   5.072   4.040  2.0450 -1.8301 -0.9887
 2881TIP3   OH2 8648   5.014   1.343   3.195  0.2932  0.3707 -0.3172
 2881TIP3    H1 8649   5.108   1.361   3.188 -0.0287  2.5942  0.0866
 2881TIP3    H2 8650   4.973   1.409   3.138 -1.0664  0.3341  0.5659
 2882TIP3   OH2 8651  -0.020   0.625   0.424 -0.0912 -0.4070 -0.3170
 2882TIP3    H1 8652  -0.001   0.532   0.412  1.9883 -0.0308 -0.3788
 2882TIP3    H2 8653   0.042   0.653   0.491 -1.9018  0.5870  1.0235
 2883TIP3   OH2 8654   2.056   3.027   2.813 -0.0008 -0.3472 -0.1256
 2883TIP3    H1 8655   2.014   3.072   2.740  2.1938  1.5556 -0.3091
 2883TIP3    H2 8656   2.001   3.049   2.889 -0.7560 -0.0393 -0.7449
 2884TIP3   OH2 8657   5.063   2.185   1.797  0.0057 -0.3344 -0.1533
 2884TIP3    H1 8658   5.063   2.179   1.893 -0.5691 -0.8286 -0.1814
 2884TIP3    H2 8659   5.035   2.274   1.778 -0.8656 -0.5419  0.1279
 2885TIP3   OH2 8660   4.932   4.816   1.930  0.3358 -0.0480 -0.1868
 2885TIP3    H1 8661   4.997   4.886   1.920  0.2693  0.0718  0.2110
 2885TIP3    H2 8662   4.947   4.759   1.855  0.7095  0.1342 -0.2538
 2886TIP3   OH2 8663   3.924   1.643   4.015 -0.2850  0.2123  0.1118
 2886TIP3    H1 8664   3.886   1.731   4.012 -1.8683 -0.3951  1.2559
 2886TIP3    H2 8665   3.876   1.593   3.949  0.2139  0.0313 -0.1253
 2887TIP3   OH2 8666   2.901   1.268   4.099  0.1577 -0.8402 -0.3539
 2887TIP3    H1 8667   2.844   1.261   4.175 -1.1340  0.2391 -1.1798
 2887TIP3    H2 8668   2.881   1.189   4.047 -0.7879 -0.3607 -0.7461
 2888TIP3   OH2 8669   5.394   4.614   0.673 -0.0735 -0.0107  0.1333
 2888TIP3    H1 8670   5.354   4.529   0.655  0.6886 -0.3293 -0.1087
 2888TIP3    H2 8671   5.467   4.595   0.732  0.2577  0.4382 -0.1179
 2889TIP3   OH2 8672   0.092   3.167   3.946  0.0346 -0.2974 -0.4811
 2889TIP3    H1 8673   0.004   3.169   3.908 -0.0294  1.2697 -0.3066
 2889TIP3    H2 8674   0.097   3.082   3.990 -0.7613 -1.1344 -1.9292
 2890TIP3   OH2 8675   3.687   0.467   5.104  0.4074  0.1580 -0.3640
 2890TIP3    H1 8676   3.690   0.373   5.082  0.1934 -0.1347  0.7867
 2890TIP3    H2 8677   3.594   0.489   5.101  0.4562  0.3290 -0.6160
 2891TIP3   OH2 8678   1.850   1.100   1.967 -0.5987 -0.2458 -0.3646
 2891TIP3    H1 8679   1.785   1.038   2.001 -0.1281 -1.8496 -2.2651
 2891TIP3    H2 8680   1.928   1.047   1.953  0.4425  1.2113 -0.2131
 2892TIP3   OH2 8681   1.996   5.406   5.185  0.1461  0.3826  0.0097
 2892TIP3    H1 8682   1.956   5.320   5.196 -0.4995  0.6799 -0.0250
 2892TIP3    H2 8683   1.932   5.457   5.137 -1.6687  2.3912  4.1048
 2893TIP3   OH2 8684   0.197   4.165   2.690  0.0281 -0.6038  0.0206
 2893TIP3    H1 8685   0.220   4.080   2.727  0.2784  0.2186  1.8512
 2893TIP3    H2 8686   0.147   4.209   2.759 -1.9273 -0.0404 -1.6437
 2894TIP3   OH2 8687   5.864   3.486   0.183 -0.4858  0.5554 -0.0493
 2894TIP3    H1 8688   5.838   3.470   0.092 -2.1604  0.1845  0.4520
 2894TIP3    H2 8689   5.829   3.573   0.203  0.8994  1.1431 -0.0943
 2895TIP3   OH2 8690   6.319   4.677   4.032 -0.5455 -0.2336  0.1749
 2895TIP3    H1 8691   6.236   4.705   4.072  0.3720  1.4730  1.0143
 2895TIP3    H2 8692   6.319   4.719   3.946 -0.8585 -0.8430 -0.1307
 2896TIP3   OH2 8693   1.647   5.389   2.383  0.1187  0.0614  0.0812
 2896TIP3    H1 8694   1.673   5.480   2.396  1.0201 -0.3521  1.3258
 2896TIP3    H2 8695   1.591   5.370   2.458  2.7861 -1.4185  1.8547
 2897TIP3   OH2 8696   3.634   2.919   3.916 -0.2114 -0.1128  0.1462
 2897TIP3    H1 8697   3.587   2.913   3.833  1.3310  0.2886 -0.8026
 2897TIP3    H2 8698   3.621   2.834   3.958 -4.9105  1.1153  1.7971
 2898TIP3   OH2 8699   5.051   2.786   0.455  0.4741  0.0428  0.6636
 2898TIP3    H1 8700   5.017   2.829   0.533  1.0603  1.9149 -0.0733
 2898TIP3    H2 8701   5.075   2.857   0.396  0.5780 -1.3087 -1.0137
 2899TIP3   OH2 8702   5.414   4.015   1.527 -0.2435  0.3245  0.2027
 2899TIP3    H1 8703   5.364   4.034   1.606 -1.9472  0.4112 -0.8667
 2899TIP3    H2 8704   5.434   3.921   1.533 -0.6502  0.2607  0.5671
 2900TIP3   OH2 8705   6.300   1.319   1.100  0.1970 -0.0700 -0.1748
 2900TIP3    H1 8706   6.208   1.341   1.090  0.4986  0.8256 -1.1951
 2900TIP3    H2 8707   6.310   1.235   1.054  0.2678  0.8425 -1.9212
 2901TIP3   OH2 8708   4.049   4.311   1.411  0.9130  0.4975 -0.7197
 2901TIP3    H1 8709   4.010   4.243   1.355  1.0812  0.7924 -1.2028
 2901TIP3    H2 8710   4.138   4.280   1.427  1.3911  1.1926 -1.9591
 2902TIP3   OH2 8711   5.243   2.492   3.556 -0.2162  0.3585 -0.0966
 2902TIP3    H1 8712   5.266   2.478   3.648 -1.6748 -1.8983 -0.0003
 2902TIP3    H2 8713   5.300   2.432   3.508 -0.0967  0.8646 -0.5967
 2903TIP3   OH2 8714   5.933   1.248   1.753  0.2473  0.4573  0.4595
 2903TIP3    H1 8715   5.873   1.319   1.732  0.7454  1.2384  1.6280
 2903TIP3    H2 8716   5.882   1.188   1.807  0.3013  0.7580  0.8474
 2904TIP3   OH2 8717   4.067   4.083   4.725 -0.2292  0.2135  0.1402
 2904TIP3    H1 8718   4.078   3.992   4.751 -1.8227  0.2635  1.1406
 2904TIP3    H2 8719   3.996   4.115   4.780 -1.0434  1.5029 -1.5435
 2905TIP3   OH2 8720   6.139   0.101   3.425 -0.0549  0.0035 -0.1718
 2905TIP3    H1 8721   6.193   0.096   3.346 -0.3029 -0.9734 -0.2854
 2905TIP3    H2 8722   6.192   0.060   3.493  0.0264  0.5569  0.1053
 2906TIP3   OH2 8723   0.477   2.737   3.561  0.2022 -0.0635  0.2226
 2906TIP3    H1 8724   0.463   2.772   3.473  0.8322 -0.8137 -0.1870
 2906TIP3    H2 8725   0.540   2.797   3.600 -1.8456  1.6685  1.0548
 2907TIP3   OH2 8726   0.351   0.385   4.482 -0.0583 -0.6294  0.2659
 2907TIP3    H1 8727   0.278   0.323   4.484  0.8701 -1.7760 -0.0756
 2907TIP3    H2 8728   0.403   0.358   4.406  2.4545 -1.9456  2.2910
 2908TIP3   OH2 8729   5.186   1.010   4.148 -0.0805  0.0021  0.1706
 2908TIP3    H1 8730   5.107   1.061   4.130  0.7480  1.3953  0.3118
 2908TIP3    H2 8731   5.155   0.932   4.192 -1.2195  1.5797  2.3492
 2909TIP3   OH2 8732   1.240   3.693   2.488 -0.4634  0.0956  0.2161
 2909TIP3    H1 8733   1.294   3.649   2.554 -1.7024 -0.2842  1.0139
 2909TIP3    H2 8734   1.302   3.748   2.440  0.5800 -0.0707  1.3050
 2910TIP3   OH2 8735   5.727   0.755   2.978  0.1207 -0.4576  0.0049
 2910TIP3    H1 8736   5.797   0.744   3.043  0.5430  0.5725 -0.2486
 2910TIP3    H2 8737   5.748   0.691   2.909 -0.2309 -1.4329  0.7774
 2911TIP3   OH2 8738   5.970   2.592   1.633  0.0710  0.0560 -0.0627
 2911TIP3    H1 8739   5.934   2.576   1.546 -1.2010  1.0730  0.2499
 2911TIP3    H2 8740   6.060   2.620   1.617  0.3610 -1.2488 -0.9385
 2912TIP3   OH2 8741   3.633   1.627   0.725  0.4557  0.3107 -0.4477
 2912TIP3    H1 8742   3.595   1.681   0.795  1.6291  0.4857  0.0743
 2912TIP3    H2 8743   3.558   1.584   0.685 -0.4727  1.9075 -0.5167
 2913TIP3   OH2 8744   3.560   3.901   3.496  0.2107 -0.1867 -0.3911
 2913TIP3    H1 8745   3.587   3.822   3.542  0.1978  0.9352  1.6200
 2913TIP3    H2 8746   3.542   3.965   3.564 -2.0743  0.8763 -1.8747
 2914TIP3   OH2 8747   1.707   4.314   1.560  0.1070  0.2076  0.0410
 2914TIP3    H1 8748   1.711   4.347   1.471 -0.3170  1.0388  0.3162
 2914TIP3    H2 8749   1.798   4.290   1.581  0.4283  1.1448 -0.2019
 2915TIP3   OH2 8750   5.726   5.942   3.492  0.0146 -0.2595  0.1230
 2915TIP3    H1 8751   5.646   5.957   3.440 -0.2008  0.9630  0.7647
 2915TIP3    H2 8752   5.797   5.961   3.431 -0.1758 -1.2372 -0.4189
 2916TIP3   OH2 8753   0.003   4.787   2.212  0.3176  0.4918 -0.0935
 2916TIP3    H1 8754  -0.031   4.764   2.298 -2.1896  1.9583 -0.6107
 2916TIP3    H2 8755   0.042   4.705   2.179 -1.1336 -0.8378  1.3119
 2917TIP3   OH2 8756   2.459   2.771   4.537 -0.0298  0.2277  0.1674
 2917TIP3    H1 8757   2.531   2.773   4.600 -0.6735  1.8699  0.8981
 2917TIP3    H2 8758   2.385   2.812   4.583 -0.6913  0.9155 -1.4322
 2918TIP3   OH2 8759   1.341   1.427   2.140  0.0173 -0.0765  0.0013
 2918TIP3    H1 8760   1.324   1.467   2.225  1.3197  1.0943 -0.2604
 2918TIP3    H2 8761   1.305   1.338   2.148  0.5390 -0.1508  1.9283
 2919TIP3   OH2 8762   0.828   0.292   0.421  0.0085 -0.1846  0.4876
 2919TIP3    H1 8763   0.881   0.231   0.370 -0.8037 -0.8156  0.3830
 2919TIP3    H2 8764   0.820   0.253   0.507 -1.3569 -0.7607  0.1326
 2920TIP3   OH2 8765   1.308   4.817   1.747 -0.3858  0.2969 -0.1348
 2920TIP3    H1 8766   1.231   4.816   1.804  0.8003  0.6644  1.5716
 2920TIP3    H2 8767   1.372   4.764   1.794  0.3825 -0.0608 -1.5518
 2921TIP3   OH2 8768   4.677   5.921   5.059 -0.6049 -0.2244 -0.6187
 2921TIP3    H1 8769   4.771   5.914   5.043 -0.4110 -0.6759  0.6228
 2921TIP3    H2 8770   4.668   5.920   5.154 -1.9036 -0.6164 -0.7192
 2922TIP3   OH2 8771   2.613   5.632   0.212  0.0370 -0.1165 -0.0644
 2922TIP3    H1 8772   2.518   5.633   0.219 -0.0171  1.2489 -0.6677
 2922TIP3    H2 8773   2.643   5.658   0.299 -0.1919  0.8077 -0.2509
 2923TIP3   OH2 8774   2.767   1.646   3.909  0.5909 -0.6105  0.0735
 2923TIP3    H1 8775   2.683   1.687   3.889  0.7082  0.0781  0.9628
 2923TIP3    H2 8776   2.831   1.700   3.863  0.6058 -0.7670 -0.0915
 2924TIP3   OH2 8777   2.916   4.802   1.790 -0.4048 -0.4344 -0.4089
 2924TIP3    H1 8778   2.982   4.870   1.805 -2.6440  2.0886 -1.2117
 2924TIP3    H2 8779   2.918   4.786   1.696 -2.1139  1.0987 -0.7704
 2925TIP3   OH2 8780   4.741   2.456   3.383  0.4355  0.0714 -0.1213
 2925TIP3    H1 8781   4.767   2.512   3.456  0.5190 -0.0612 -0.0497
 2925TIP3    H2 8782   4.673   2.506   3.338  1.2894  0.7224 -0.7133
 2926TIP3   OH2 8783   0.204   3.059   1.466 -0.5201 -0.0935  0.3288
 2926TIP3    H1 8784   0.230   3.143   1.428  0.4104 -0.7308 -0.4894
 2926TIP3    H2 8785   0.285   3.023   1.502 -1.2503  0.1972  2.4159
 2927TIP3   OH2 8786   5.768   3.636   1.860 -0.5372 -0.3732  0.1179
 2927TIP3    H1 8787   5.750   3.717   1.908 -1.2062 -1.2123  1.3342
 2927TIP3    H2 8788   5.862   3.622   1.873 -0.8080 -0.8902  1.7292
 2928TIP3   OH2 8789   5.235   0.375   4.197 -0.8082 -0.3245 -0.0013
 2928TIP3    H1 8790   5.212   0.372   4.290 -0.2218  1.2271  0.2303
 2928TIP3    H2 8791   5.308   0.438   4.193  0.2144 -1.5357 -1.3035
 2929TIP3   OH2 8792   5.109   2.934   2.855  0.4804  0.1307  0.1811
 2929TIP3    H1 8793   5.201   2.938   2.880  0.7693  0.7783 -0.9274
 2929TIP3    H2 8794   5.106   2.870   2.784  0.1433  0.4250 -0.0706
 2930TIP3   OH2 8795   4.163   4.037   2.816  0.0503 -0.0252  0.3413
 2930TIP3    H1 8796   4.249   4.057   2.780  0.0533 -0.5589  0.0388
 2930TIP3    H2 8797   4.105   4.105   2.780  0.3853  0.4741  0.7364
 2931TIP3   OH2 8798   5.134   3.556   1.228 -0.4738  0.8439 -0.2924
 2931TIP3    H1 8799   5.068   3.576   1.295  0.3395  1.0562  0.4627
 2931TIP3    H2 8800   5.205   3.618   1.244  0.1908  0.2074 -0.6901
 2932TIP3   OH2 8801   4.202   5.506   3.792 -0.3075  0.3675  0.6225
 2932TIP3    H1 8802   4.266   5.452   3.838  0.9374 -1.0441 -2.5006
 2932TIP3    H2 8803   4.215   5.595   3.826  2.3497 -0.1425  1.0943
 2933TIP3   OH2 8804   5.319   1.709   4.169  0.2645  0.3590  0.2096
 2933TIP3    H1 8805   5.239   1.734   4.214 -0.7104  1.4777 -1.9970
 2933TIP3    H2 8806   5.386   1.706   4.237 -1.2025  1.5005  1.7610
 2934TIP3   OH2 8807   1.363   2.652   3.072 -0.5203 -0.2852 -0.6904
 2934TIP3    H1 8808   1.356   2.745   3.093  0.0604 -0.6058  1.0864
 2934TIP3    H2 8809   1.272   2.621   3.073 -0.5709 -0.3035  1.7952
 2935TIP3   OH2 8810   3.720   5.770   3.147  0.0434 -0.2504 -0.0808
 2935TIP3    H1 8811   3.782   5.828   3.103 -0.3504  0.7168  0.5894
 2935TIP3    H2 8812   3.686   5.823   3.220  1.1246 -1.9856  1.7664
 2936TIP3   OH2 8813   4.630   2.618   4.609  0.6078  0.8508 -0.6354
 2936TIP3    H1 8814   4.711   2.601   4.561  0.1673 -1.1954 -0.7316
 2936TIP3    H2 8815   4.566   2.557   4.571 -0.0617 -0.0405  1.7477
 2937TIP3   OH2 8816   1.776   2.163   4.292  0.1840  0.4896  0.3724
 2937TIP3    H1 8817   1.722   2.133   4.365  0.6261 -2.0191 -0.2465
 2937TIP3    H2 8818   1.717   2.159   4.216  0.6858 -0.4268  0.0154
 2938TIP3   OH2 8819   4.146   0.916   4.741  0.1760 -0.1322  0.3277
 2938TIP3    H1 8820   4.122   0.932   4.650 -1.5116 -0.1175  0.7436
 2938TIP3    H2 8821   4.199   0.837   4.739  0.8564  0.3302 -0.7446
 2939TIP3   OH2 8822   4.021   5.417   4.742  0.1761  0.7089  0.0226
 2939TIP3    H1 8823   3.987   5.507   4.744 -0.4428  0.4810  1.7330
 2939TIP3    H2 8824   3.944   5.364   4.722 -0.3305  0.3036  2.6148
 2940TIP3   OH2 8825   4.917   4.651   0.020  0.8026  0.3352 -0.4061
 2940TIP3    H1 8826   4.912   4.568  -0.027  0.5007  0.5752 -0.8151
 2940TIP3    H2 8827   5.010   4.673   0.022  0.8216  0.3159 -0.8917
 2941TIP3   OH2 8828   0.871   2.447   1.860 -0.5445 -0.0820 -0.2663
 2941TIP3    H1 8829   0.792   2.467   1.912  0.1174  1.7235  0.1159
 2941TIP3    H2 8830   0.918   2.382   1.913 -1.7542 -1.1980 -0.5046
 2942TIP3   OH2 8831   4.056   3.603   2.114 -0.0149  0.5114  0.0865
 2942TIP3    H1 8832   4.025   3.526   2.067  0.8810 -0.3715  0.8845
 2942TIP3    H2 8833   4.115   3.647   2.053 -2.0466  1.7256 -1.1162
 2943TIP3   OH2 8834   6.054   4.141   4.403  0.2760  0.2740 -0.2594
 2943TIP3    H1 8835   5.963   4.146   4.431  0.5266 -0.5818  0.7840
 2943TIP3    H2 8836   6.092   4.224   4.431 -0.5432  1.3551 -2.1900
 2944TIP3   OH2 8837   6.112   2.161   0.037  0.0807  0.0710  0.3363
 2944TIP3    H1 8838   6.137   2.135   0.126  0.0593  0.9221  0.6004
 2944TIP3    H2 8839   6.115   2.080  -0.014  2.0919 -0.1055  0.6414
 2945TIP3   OH2 8840   5.765   5.138   1.821  0.5502  0.2963 -0.5714
 2945TIP3    H1 8841   5.853   5.110   1.849 -0.7067 -0.5990  2.9727
 2945TIP3    H2 8842   5.754   5.225   1.859 -0.3028  0.1283 -0.4077
 2946TIP3   OH2 8843   0.350   1.735   4.959  0.1874  0.2870 -0.1895
 2946TIP3    H1 8844   0.343   1.640   4.974 -0.5128  0.0953 -1.6086
 2946TIP3    H2 8845   0.441   1.747   4.929  0.3400  0.1063  0.1881
 2947TIP3   OH2 8846   2.205   3.821   0.952 -0.3910 -0.0364 -0.0126
 2947TIP3    H1 8847   2.196   3.898   0.896  1.0621  0.0340 -0.1786
 2947TIP3    H2 8848   2.171   3.849   1.037  0.7884  1.0447  0.1296
 2948TIP3   OH2 8849   1.755   4.710   3.368  0.1999  0.6552 -0.3568
 2948TIP3    H1 8850   1.710   4.643   3.420 -0.5625  2.1091  0.9351
 2948TIP3    H2 8851   1.806   4.760   3.431  0.7908  1.2873 -1.3024
 2949TIP3   OH2 8852   0.661   5.586   3.232 -0.1942  0.0782  0.3083
 2949TIP3    H1 8853   0.631   5.637   3.157 -0.3713  0.1327  0.4148
 2949TIP3    H2 8854   0.673   5.651   3.302  1.1967  0.2149 -0.0292
 2950TIP3   OH2 8855   4.558   1.348   2.213  0.4118 -0.4788  0.1586
 2950TIP3    H1 8856   4.647   1.369   2.186  0.3330 -0.8793 -0.4314
 2950TIP3    H2 8857   4.536   1.415   2.278  0.4640  0.7624 -1.0684
 2951TIP3   OH2 8858   0.779   1.164   0.190  0.2134  0.1956  0.1486
 2951TIP3    H1 8859   0.855   1.207   0.230 -0.3649  3.4514 -1.8211
 2951TIP3    H2 8860   0.709   1.229   0.196 -0.8668 -0.5304 -2.7862
 2952TIP3   OH2 8861   5.304   3.378   5.034 -0.3998 -0.2172 -0.0702
 2952TIP3    H1 8862   5.375   3.325   5.070 -0.3873 -0.4856 -0.4793
 2952TIP3    H2 8863   5.267   3.424   5.109 -1.0415 -1.5350  0.4524
 2953TIP3   OH2 8864   2.421   2.212   1.387 -0.2244 -0.1221  0.1356
 2953TIP3    H1 8865   2.498   2.201   1.442 -1.3788 -0.4713  1.7499
 2953TIP3    H2 8866   2.423   2.305   1.361  0.6793 -0.1125  0.2046
 2954TIP3   OH2 8867   4.272   1.828   1.236 -0.0839  0.0887 -0.2105
 2954TIP3    H1 8868   4.282   1.735   1.259  3.3900  0.1135 -1.0256
 2954TIP3    H2 8869   4.241   1.827   1.145 -1.3915 -0.1943  0.2130
 2955TIP3   OH2 8870   2.263   1.472   4.103 -0.3834  0.3116 -0.0580
 2955TIP3    H1 8871   2.293   1.546   4.157 -0.6736 -0.4806  1.2300
 2955TIP3    H2 8872   2.336   1.455   4.044  0.2541  0.7347  0.5889
 2956TIP3   OH2 8873   0.809   2.087   3.877 -0.2065 -0.3791  0.5047
 2956TIP3    H1 8874   0.893   2.057   3.843 -0.6629 -2.6370  1.1708
 2956TIP3    H2 8875   0.831   2.142   3.952  0.6977  1.0012 -0.7367
 2957TIP3   OH2 8876   0.965   2.417   0.631 -0.2353  0.0792  0.1372
 2957TIP3    H1 8877   1.053   2.402   0.597 -1.1604 -1.5179 -1.7713
 2957TIP3    H2 8878   0.920   2.466   0.561 -1.4212 -0.8998  0.1839
 2958TIP3   OH2 8879   0.555   1.322   1.315 -0.2590  0.2283 -0.2558
 2958TIP3    H1 8880   0.598   1.327   1.230  0.2933 -2.4472 -0.2208
 2958TIP3    H2 8881   0.620   1.355   1.377  1.4235 -2.6042 -0.3525
 2959TIP3   OH2 8882   3.491   5.786   5.066  0.4470 -0.0768 -0.3839
 2959TIP3    H1 8883   3.426   5.728   5.025 -1.3027  0.2244  1.7955
 2959TIP3    H2 8884   3.467   5.786   5.159  1.3055  2.9751 -0.0771
 2960TIP3   OH2 8885   1.522   5.289   4.284  0.2271 -0.7903 -0.7307
 2960TIP3    H1 8886   1.496   5.329   4.367  0.6500  0.6722 -1.2651
 2960TIP3    H2 8887   1.559   5.204   4.308  0.8401 -0.1698  0.6313
 2961TIP3   OH2 8888   4.074   0.260   3.250 -0.0871 -0.8132 -0.0630
 2961TIP3    H1 8889   4.047   0.304   3.170  0.7159 -1.7485 -0.8838
 2961TIP3    H2 8890   4.129   0.323   3.295  0.1931 -0.5879 -0.7068
 2962TIP3   OH2 8891   3.093   4.829   0.063 -0.4100 -0.6369 -0.3684
 2962TIP3    H1 8892   3.105   4.735   0.077  1.0284 -0.5667 -0.9054
 2962TIP3    H2 8893   3.043   4.858   0.139  1.0827 -1.4598  0.9979
 2963TIP3   OH2 8894   4.496   5.781   0.476  0.2388  0.2352 -0.3025
 2963TIP3    H1 8895   4.482   5.770   0.570  1.1699  0.7447 -0.0947
 2963TIP3    H2 8896   4.549   5.860   0.468 -1.3804  1.2800 -1.3864
 2964TIP3   OH2 8897   5.764   5.337   1.589 -0.7518 -0.1188 -0.0926
 2964TIP3    H1 8898   5.724   5.373   1.669  0.5163 -0.4889  0.7416
 2964TIP3    H2 8899   5.790   5.249   1.614  0.6982  0.1661 -0.5603
 2965TIP3   OH2 8900   6.030   2.707   0.625 -0.3917  0.6440  0.2105
 2965TIP3    H1 8901   5.956   2.758   0.657 -1.9220 -1.6997  0.6296
 2965TIP3    H2 8902   6.013   2.617   0.655  1.2025 -0.5118 -2.0283
 2966TIP3   OH2 8903   3.732   4.462   1.596 -0.2963  0.1393 -0.2921
 2966TIP3    H1 8904   3.662   4.397   1.590  0.1867 -1.0840  3.9075
 2966TIP3    H2 8905   3.802   4.427   1.540 -1.0381 -1.5321 -0.2405
 2967TIP3   OH2 8906   0.351   2.559   3.786 -0.0877  0.4560 -0.3333
 2967TIP3    H1 8907   0.263   2.596   3.781 -0.8584 -1.2155  0.2827
 2967TIP3    H2 8908   0.404   2.616   3.729 -1.8640  0.6021 -1.9482
 2968TIP3   OH2 8909   4.581   4.165   0.436  0.8329 -0.4230 -0.0447
 2968TIP3    H1 8910   4.499   4.191   0.395  0.8752  2.2109  1.3205
 2968TIP3    H2 8911   4.632   4.246   0.442  2.0946 -1.2807  2.2599
 2969TIP3   OH2 8912   5.193   2.005   4.740 -0.1905 -0.2610  0.4261
 2969TIP3    H1 8913   5.187   1.978   4.832  0.7945 -0.4181  0.4639
 2969TIP3    H2 8914   5.119   1.963   4.697 -0.0385 -1.0779  0.9426
 2970TIP3   OH2 8915   6.249   3.597   2.625  0.1191 -0.1852  0.0155
 2970TIP3    H1 8916   6.159   3.630   2.636 -0.2309 -0.6968 -1.1659
 2970TIP3    H2 8917   6.303   3.675   2.628 -0.5266  0.3158 -0.8477
 2971TIP3   OH2 8918   2.520   3.966   2.580  0.4266  0.6874  0.2945
 2971TIP3    H1 8919   2.478   4.019   2.648 -1.3631  0.0294 -0.2364
 2971TIP3    H2 8920   2.452   3.904   2.552  2.4913 -2.2095  1.1626
 2972TIP3   OH2 8921   0.016   0.998   1.888  0.2933  0.7487 -0.6055
 2972TIP3    H1 8922   0.049   0.928   1.943  0.0693  1.8246  0.9704
 2972TIP3    H2 8923   0.088   1.017   1.827  1.0677  0.4291  0.1925
 2973TIP3   OH2 8924   2.252   5.435   4.923  0.9898 -0.2052 -0.8477
 2973TIP3    H1 8925   2.260   5.471   5.011  0.0083 -1.1147 -0.3515
 2973TIP3    H2 8926   2.320   5.478   4.872  0.0219  2.1612 -0.2690
 2974TIP3   OH2 8927   4.251   1.018   2.278 -0.1237 -0.4160 -0.2233
 2974TIP3    H1 8928   4.230   1.105   2.313 -0.7942 -0.6088 -0.1450
 2974TIP3    H2 8929   4.333   0.995   2.321  1.2608  1.0922 -1.8358
 2975TIP3   OH2 8930   5.333   5.945   3.230 -0.5260 -0.0483  0.2761
 2975TIP3    H1 8931   5.333   5.850   3.241  0.3878 -0.0977 -0.0446
 2975TIP3    H2 8932   5.425   5.968   3.221 -0.8395  0.5889 -1.9323
 2976TIP3   OH2 8933   5.839   4.344   0.788 -0.5347 -0.1845 -0.0101
 2976TIP3    H1 8934   5.778   4.301   0.728 -1.0870  0.0964  0.3431
 2976TIP3    H2 8935   5.891   4.273   0.825 -0.4246 -0.3941 -0.5554
 2977TIP3   OH2 8936   2.443   1.843   0.334  0.2804 -0.3495 -0.2737
 2977TIP3    H1 8937   2.534   1.814   0.342  0.5827  0.4181 -0.8893
 2977TIP3    H2 8938   2.405   1.786   0.268  0.3549 -0.5606 -0.1366
 2978TIP3   OH2 8939   0.523   3.663   3.266 -0.0062 -0.0298 -0.2762
 2978TIP3    H1 8940   0.587   3.695   3.329 -1.1226  0.6591  0.5634
 2978TIP3    H2 8941   0.561   3.682   3.181  0.6428  0.9145  0.2005
 2979TIP3   OH2 8942   2.018   2.839   1.555 -0.0456  0.1268 -0.2476
 2979TIP3    H1 8943   2.039   2.882   1.472 -0.0283  1.5048  0.4319
 2979TIP3    H2 8944   1.931   2.801   1.541 -0.2295  0.7206 -0.7664
 2980TIP3   OH2 8945   2.828   3.758   1.053 -0.3284 -0.0744  0.1897
 2980TIP3    H1 8946   2.797   3.672   1.080  0.5318 -0.7387 -0.8491
 2980TIP3    H2 8947   2.884   3.741   0.977  2.8934  0.9541  2.1083
 2981TIP3   OH2 8948   3.950   3.719   0.552 -0.8969  0.4613  0.0495
 2981TIP3    H1 8949   3.855   3.731   0.553 -0.9369  0.1188  0.5873
 2981TIP3    H2 8950   3.970   3.673   0.634 -0.2337  0.7816  0.0764
 2982TIP3   OH2 8951   2.145   2.116   4.004 -0.0302 -0.1191 -0.0749
 2982TIP3    H1 8952   2.121   2.023   4.010 -0.4661 -0.0054 -0.0238
 2982TIP3    H2 8953   2.062   2.162   4.001  0.1861  0.2385 -0.7184
 2983TIP3   OH2 8954   4.673   5.341   1.573 -0.3986 -0.4327  0.5724
 2983TIP3    H1 8955   4.738   5.276   1.549  1.8740  2.2770 -1.2162
 2983TIP3    H2 8956   4.627   5.302   1.648  0.8499 -3.9471 -0.3008
 2984TIP3   OH2 8957   1.722   0.267   2.164 -0.2499  0.0874  0.6360
 2984TIP3    H1 8958   1.791   0.204   2.182 -0.2562 -0.6172 -1.5384
 2984TIP3    H2 8959   1.765   0.353   2.170  0.8772 -0.3415 -0.7981
 2985TIP3   OH2 8960   0.538   0.771   3.263 -0.4749  0.6186 -0.4976
 2985TIP3    H1 8961   0.592   0.823   3.203  0.5833  0.8706  0.6272
 2985TIP3    H2 8962   0.548   0.681   3.231  0.4379  0.6908 -0.4554
 2986TIP3   OH2 8963   1.675   5.658   2.329  0.0893  0.2080 -0.5546
 2986TIP3    H1 8964   1.641   5.743   2.356 -1.5427 -0.4990 -0.2314
 2986TIP3    H2 8965   1.698   5.669   2.237  0.8428  1.2600 -0.2464
 2987TIP3   OH2 8966   3.118   4.540   0.153  0.2438 -0.4006 -0.0916
 2987TIP3    H1 8967   3.032   4.517   0.188  0.2279 -0.2428 -0.0270
 2987TIP3    H2 8968   3.160   4.456   0.136 -0.5357 -0.5143 -1.6558
 2988TIP3   OH2 8969   3.224   4.349   0.438 -0.1026 -0.5900  0.2225
 2988TIP3    H1 8970   3.294   4.414   0.434  1.3626 -1.9348  2.1738
 2988TIP3    H2 8971   3.211   4.322   0.347  0.6854  0.9267 -0.3749
 2989TIP3   OH2 8972   4.712   5.627   0.685  0.2127  0.3008 -0.2833
 2989TIP3    H1 8973   4.633   5.666   0.723  1.4062  1.8238  0.7239
 2989TIP3    H2 8974   4.679   5.554   0.632 -1.7992  0.3632  0.7843
 2990TIP3   OH2 8975   0.572   1.779   0.504  0.3075 -0.3900 -0.5749
 2990TIP3    H1 8976   0.558   1.810   0.594 -2.7128 -1.7128 -0.4715
 2990TIP3    H2 8977   0.585   1.859   0.453  0.2624  0.5175  0.7760
 2991TIP3   OH2 8978   1.137   2.433   4.467 -0.4088 -0.1856  0.2145
 2991TIP3    H1 8979   1.050   2.469   4.447 -0.3070  0.0743  0.2277
 2991TIP3    H2 8980   1.120   2.351   4.513 -0.6497 -0.4558 -0.3451
 2992TIP3   OH2 8981   5.959   4.099   3.181 -1.1310 -0.0544 -0.2025
 2992TIP3    H1 8982   5.986   4.061   3.098 -1.6768 -0.2177 -0.3071
 2992TIP3    H2 8983   6.001   4.044   3.248  0.3580  0.8270 -0.3529
 2993TIP3   OH2 8984   3.961   3.945   3.390 -0.1515 -0.1258  0.6012
 2993TIP3    H1 8985   4.043   3.914   3.354 -0.3272 -1.0276  0.9338
 2993TIP3    H2 8986   3.904   3.868   3.389 -0.3470 -0.0473  2.2234
 2994TIP3   OH2 8987   2.935   4.670   3.832 -0.0068 -0.3660  0.0727
 2994TIP3    H1 8988   2.880   4.748   3.841 -0.0795 -0.4904  0.7515
 2994TIP3    H2 8989   2.971   4.656   3.919  2.3425  0.5934 -0.6482
 2995TIP3   OH2 8990   3.544   2.853   1.350 -0.0366  0.0213 -0.3117
 2995TIP3    H1 8991   3.456   2.893   1.349  0.0471  0.3800 -3.8888
 2995TIP3    H2 8992   3.594   2.908   1.411 -1.6465  1.3103 -0.0728
 2996TIP3   OH2 8993   3.712   2.477   3.558 -0.5470 -0.3944  0.2288
 2996TIP3    H1 8994   3.773   2.551   3.559  0.3503 -0.9856  3.5172
 2996TIP3    H2 8995   3.752   2.413   3.500 -0.0773  0.7164 -0.7216
 2997TIP3   OH2 8996   3.886   3.362   2.081 -0.3623 -0.0409  0.1393
 2997TIP3    H1 8997   3.880   3.423   2.154 -0.1415 -0.1979  0.2875
 2997TIP3    H2 8998   3.849   3.281   2.115  0.9489 -0.5036  0.5001
 2998TIP3   OH2 8999   0.551   5.186   1.107  0.1273 -0.0887 -0.0613
 2998TIP3    H1 9000   0.574   5.217   1.019 -0.5722 -1.6124 -0.8214
 2998TIP3    H2 9001   0.567   5.261   1.164 -1.0544  1.5168 -1.7276
 2999TIP3   OH2 9002   5.027   3.916   0.380 -0.1475  0.0274 -0.0991
 2999TIP3    H1 9003   5.083   3.987   0.412  1.2180 -0.6043 -0.9832
 2999TIP3    H2 9004   4.998   3.871   0.460  0.1656  0.6964  0.4000
 3000TIP3   OH2 9005   3.573   4.911   2.522 -0.1555  0.4142 -0.5475
 3000TIP3    H1 9006   3.574   4.962   2.603  0.7647  0.1537 -0.3763
 3000TIP3    H2 9007   3.665   4.909   2.494 -0.3125 -0.3519 -1.0462
 3001TIP3   OH2 9008   0.341   1.065   3.322  0.0028  0.5531  0.0668
 3001TIP3    H1 9009   0.311   0.977   3.342 -2.2541  1.2557  0.0868
 3001TIP3    H2 9010   0.307   1.083   3.234  3.3333  0.2618 -1.4391
 3002TIP3   OH2 9011   1.475   4.044   1.249  0.2305  0.1426 -0.4378
 3002TIP3    H1 9012   1.395   4.007   1.212  0.0457  1.4991 -1.4473
 3002TIP3    H2 9013   1.449   4.075   1.336  0.3713 -1.9213  0.4060
 3003TIP3   OH2 9014  -0.000   2.358   1.820  0.0570  0.4121  0.2332
 3003TIP3    H1 9015   0.024   2.288   1.759  1.5974 -1.0946  2.4259
 3003TIP3    H2 9016   0.080   2.409   1.829 -0.4660  1.2451  0.2371
 3004TIP3   OH2 9017   4.188   4.819   2.046  0.3739  0.7586 -0.3990
 3004TIP3    H1 9018   4.156   4.861   1.966  0.6057 -2.6639 -2.4834
 3004TIP3    H2 9019   4.283   4.832   2.043  0.6116 -0.8482 -1.7813
 3005TIP3   OH2 9020   5.840   0.580   1.258 -0.4355  1.1080  0.9831
 3005TIP3    H1 9021   5.932   0.563   1.279 -0.1152  0.2670 -0.8937
 3005TIP3    H2 9022   5.802   0.608   1.341  1.3440  0.7811  1.9759
 3006TIP3   OH2 9023   3.951   5.186   4.965 -0.3285  0.4543  0.0785
 3006TIP3    H1 9024   4.002   5.255   4.922  0.0222 -0.2124 -0.5970
 3006TIP3    H2 9025   3.938   5.218   5.055 -0.1206  1.3631 -0.2052
 3007TIP3   OH2 9026   2.701   5.817   1.238 -1.1011  1.2179 -0.0693
 3007TIP3    H1 9027   2.646   5.798   1.314 -2.1491 -1.3324 -1.3434
 3007TIP3    H2 9028   2.652   5.783   1.164  1.8385 -0.5282 -1.3754
 3008TIP3   OH2 9029   2.706   5.494   2.240 -0.0863 -1.1218 -0.0618
 3008TIP3    H1 9030   2.799   5.502   2.261 -0.1800 -1.9557  0.7392
 3008TIP3    H2 9031   2.692   5.400   2.229 -0.6901 -0.9415 -0.8988
 3009TIP3   OH2 9032   5.751   3.238   4.227  0.4584 -0.0680 -0.4023
 3009TIP3    H1 9033   5.776   3.326   4.253 -0.5306  0.1279 -0.0672
 3009TIP3    H2 9034   5.812   3.215   4.157  0.9178  0.7584 -0.2805
 3010TIP3   OH2 9035   1.497   3.014   0.451 -0.3822 -0.4745  0.2900
 3010TIP3    H1 9036   1.529   2.930   0.484 -1.5493 -0.7461  0.7736
 3010TIP3    H2 9037   1.405   2.999   0.432 -0.0150 -0.0491 -2.1791
 3011TIP3   OH2 9038   4.030   4.173   0.945  0.7132 -0.1370  0.6638
 3011TIP3    H1 9039   4.084   4.125   0.883  0.8661 -0.6527  1.1896
 3011TIP3    H2 9040   3.953   4.199   0.895  0.7363 -0.7313  0.3133
 3012TIP3   OH2 9041   3.541   2.499   1.804 -0.0160 -0.1430 -0.2723
 3012TIP3    H1 9042   3.564   2.461   1.719  1.2802  0.8276 -0.3858
 3012TIP3    H2 9043   3.569   2.590   1.798  1.7792 -0.4718  1.7931
 3013TIP3   OH2 9044   2.695   5.115   3.737  0.3123  0.1200 -0.0157
 3013TIP3    H1 9045   2.712   5.130   3.644  0.7865 -1.1749 -0.1649
 3013TIP3    H2 9046   2.664   5.199   3.770 -0.1334  0.5270 -1.4028
 3014TIP3   OH2 9047   2.339   1.043   4.895 -0.4738 -0.2643 -0.2269
 3014TIP3    H1 9048   2.343   0.953   4.864  1.9493  0.2309 -1.6002
 3014TIP3    H2 9049   2.401   1.047   4.968 -0.2790  0.3672 -0.4189
 3015TIP3   OH2 9050   5.519   1.507   2.143 -0.2140 -0.2966 -0.4758
 3015TIP3    H1 9051   5.463   1.499   2.065  1.4881  0.4542 -1.8550
 3015TIP3    H2 9052   5.552   1.418   2.158 -2.2810 -0.9134  0.8259
 3016TIP3   OH2 9053   6.030   2.090   3.779  0.3844 -0.1040 -0.0842
 3016TIP3    H1 9054   6.038   2.186   3.779  1.4151 -0.1160  2.3306
 3016TIP3    H2 9055   6.108   2.059   3.734  0.5000  0.1948 -0.0909
 3017TIP3   OH2 9056   6.104   2.603   4.561  0.1937  0.7838  0.0845
 3017TIP3    H1 9057   6.120   2.537   4.494  0.9439  2.2436 -1.2356
 3017TIP3    H2 9058   6.150   2.681   4.530  0.7083  1.4816  2.3838
 3018TIP3   OH2 9059   4.111   1.844   0.160  0.0936  0.1449  0.3496
 3018TIP3    H1 9060   4.063   1.767   0.131 -0.2996 -1.2593  4.1887
 3018TIP3    H2 9061   4.182   1.809   0.214  1.1910  2.4163  0.5009
 3019TIP3   OH2 9062   3.902   2.948   2.472  0.0708 -0.0764  0.6844
 3019TIP3    H1 9063   3.916   2.856   2.449  0.3602 -0.6162  2.8778
 3019TIP3    H2 9064   3.921   2.996   2.391  0.4455 -1.8855 -0.3445
 3020TIP3   OH2 9065   1.724   3.140   0.285  0.5349 -0.1658 -0.4447
 3020TIP3    H1 9066   1.639   3.101   0.308  1.3838 -1.5877  0.4788
 3020TIP3    H2 9067   1.762   3.165   0.369  0.8969  0.7692 -0.8775
 3021TIP3   OH2 9068   5.224   1.712   0.902  0.0771 -0.3767  0.7609
 3021TIP3    H1 9069   5.149   1.657   0.925  1.8082 -1.8668  3.2892
 3021TIP3    H2 9070   5.285   1.652   0.858  0.5467  0.3882  0.3493
 3022TIP3   OH2 9071   0.904   2.419   2.230 -0.0708 -0.1688  0.2214
 3022TIP3    H1 9072   0.809   2.407   2.224 -0.3969  2.2463 -0.3176
 3022TIP3    H2 9073   0.940   2.349   2.175 -1.5894 -0.4996 -0.4031
 3023TIP3   OH2 9074   5.816   2.104   3.088 -0.1610 -0.3334  0.0227
 3023TIP3    H1 9075   5.824   2.017   3.050 -0.3574 -0.5346  0.4354
 3023TIP3    H2 9076   5.721   2.121   3.089 -0.1368 -0.2021  0.1386
 3024TIP3   OH2 9077   0.697   4.958   3.699  0.2482 -0.1523 -0.2046
 3024TIP3    H1 9078   0.731   5.047   3.713  4.8985 -1.4021 -1.6704
 3024TIP3    H2 9079   0.742   4.905   3.765 -2.0778 -1.5647  0.3332
 3025TIP3   OH2 9080   5.196   0.084   4.865  0.5412  0.7408  0.5860
 3025TIP3    H1 9081   5.270   0.039   4.826 -0.1401  0.3086 -0.2479
 3025TIP3    H2 9082   5.168   0.027   4.936  0.1504  0.1963  0.0108
 3026TIP3   OH2 9083   5.352   4.995   1.720 -0.0739  0.7569 -0.0536
 3026TIP3    H1 9084   5.357   4.902   1.698  2.4401  0.0884  2.7015
 3026TIP3    H2 9085   5.427   5.034   1.674 -0.8671  1.3855 -0.8472
 3027TIP3   OH2 9086   2.686   1.523   1.415  0.0537  0.5950  0.3581
 3027TIP3    H1 9087   2.700   1.616   1.435  1.4998  0.1560  1.6047
 3027TIP3    H2 9088   2.774   1.486   1.412 -0.5360 -0.8663  0.5326
 3028TIP3   OH2 9089   0.079   5.532   1.869 -0.8020 -0.0441 -0.1430
 3028TIP3    H1 9090   0.168   5.532   1.903 -0.0727  1.2474 -1.8731
 3028TIP3    H2 9091   0.024   5.553   1.944  0.4099 -0.1833  0.8076
 3029TIP3   OH2 9092   5.192   3.452   4.535  0.0757 -0.5503 -0.2082
 3029TIP3    H1 9093   5.246   3.529   4.519 -2.8212  1.5889 -0.4262
 3029TIP3    H2 9094   5.184   3.446   4.630 -2.0910  1.3709 -0.1796
 3030TIP3   OH2 9095   6.068   1.878   1.708 -0.6244  0.3061 -0.0443
 3030TIP3    H1 9096   6.063   1.940   1.780 -0.7729 -1.2634  1.3424
 3030TIP3    H2 9097   6.103   1.798   1.747 -1.1662 -0.7454 -1.6070
 3031TIP3   OH2 9098   4.179   2.936   4.585  0.0184 -0.4979 -0.0700
 3031TIP3    H1 9099   4.135   2.998   4.644  0.0367  1.2892 -1.8103
 3031TIP3    H2 9100   4.119   2.862   4.579 -1.0096  0.2666  0.4558
 3032TIP3   OH2 9101   1.377   0.197   2.827  0.0214  0.2506 -0.1413
 3032TIP3    H1 9102   1.314   0.263   2.798 -1.3163 -0.9062  0.0227
 3032TIP3    H2 9103   1.351   0.176   2.917  0.2807 -0.6436 -0.2586
 3033TIP3   OH2 9104   0.265   0.965   4.241 -0.1310  0.4013 -0.5323
 3033TIP3    H1 9105   0.211   1.009   4.307 -0.0807 -0.6009  0.2060
 3033TIP3    H2 9106   0.301   1.036   4.188  0.1462  1.2641  0.7637
 3034TIP3   OH2 9107   5.194   4.192   2.173  0.4501  0.1144  0.0194
 3034TIP3    H1 9108   5.128   4.148   2.225  0.0970 -1.7036 -1.8233
 3034TIP3    H2 9109   5.175   4.285   2.183 -1.9274 -0.3253  0.1413
 3035TIP3   OH2 9110   5.689   4.415   2.746 -0.0772  0.0630  0.2381
 3035TIP3    H1 9111   5.765   4.469   2.767 -0.3688  0.1735  1.0447
 3035TIP3    H2 9112   5.652   4.392   2.832 -1.0636  0.1777 -0.1509
 3036TIP3   OH2 9113   6.200   2.374   4.463  0.2207  0.3184 -0.0868
 3036TIP3    H1 9114   6.251   2.314   4.408  0.2167  1.2701 -1.1524
 3036TIP3    H2 9115   6.246   2.374   4.547  1.1186  0.0068 -0.5623
 3037TIP3   OH2 9116   2.634   0.143   2.624 -0.2673  0.1516  0.4683
 3037TIP3    H1 9117   2.566   0.078   2.644 -1.2872  0.9983 -0.1326
 3037TIP3    H2 9118   2.716   0.094   2.630 -0.8060 -0.6337  2.4342
 3038TIP3   OH2 9119   1.268   3.362   1.447  0.3427  0.5235  0.1086
 3038TIP3    H1 9120   1.341   3.323   1.494  0.4077  0.0634 -0.3638
 3038TIP3    H2 9121   1.244   3.439   1.499  1.4586  0.9435  0.0183
 3039TIP3   OH2 9122   1.724   2.200   2.593 -0.0832  0.7075 -0.3604
 3039TIP3    H1 9123   1.638   2.183   2.555  0.4393 -1.8697 -0.5853
 3039TIP3    H2 9124   1.769   2.116   2.588  1.7467  1.4857  1.6005
 3040TIP3   OH2 9125   1.877   2.181   1.110 -0.2143 -0.6053 -0.2091
 3040TIP3    H1 9126   1.915   2.256   1.064  0.8995 -0.1424  1.3747
 3040TIP3    H2 9127   1.834   2.219   1.186  1.8810 -1.6311  1.6109
 3041TIP3   OH2 9128   3.373   0.899   3.928 -0.0894  0.3375 -0.1917
 3041TIP3    H1 9129   3.352   0.979   3.977 -0.5378  0.6554 -0.8962
 3041TIP3    H2 9130   3.469   0.901   3.918 -0.0571  0.5679  0.1548
 3042TIP3   OH2 9131   2.760   4.558   2.770  0.0497  0.1828  0.7268
 3042TIP3    H1 9132   2.823   4.573   2.700  1.1144 -0.6122  1.4818
 3042TIP3    H2 9133   2.690   4.621   2.754  2.3293  3.0837  1.4822
 3043TIP3   OH2 9134   2.539   5.513   1.207 -0.0575  0.3504  0.0438
 3043TIP3    H1 9135   2.505   5.482   1.123  0.2848 -1.6066  0.5673
 3043TIP3    H2 9136   2.469   5.569   1.242 -0.4407  0.7362 -1.2666
 3044TIP3   OH2 9137   1.841   3.645   2.452  0.5356  0.1265 -0.0967
 3044TIP3    H1 9138   1.934   3.647   2.475  0.5530 -0.4600 -0.0896
 3044TIP3    H2 9139   1.804   3.576   2.507  0.2298 -0.1009 -0.5802
 3045TIP3   OH2 9140   2.563   0.563   0.691 -0.4895 -0.1096  0.2210
 3045TIP3    H1 9141   2.620   0.494   0.656  0.0870  0.2543  0.4266
 3045TIP3    H2 9142   2.554   0.625   0.618 -0.7784 -0.2639  0.1264
 3046TIP3   OH2 9143   0.235   1.447   2.903  0.0628 -0.5283  0.5558
 3046TIP3    H1 9144   0.160   1.389   2.913  0.4421 -1.1033  0.1416
 3046TIP3    H2 9145   0.258   1.473   2.992 -0.2226 -0.8737  0.7316
 3047TIP3   OH2 9146   3.917   0.728   1.900  0.0052  0.3439  0.5974
 3047TIP3    H1 9147   3.869   0.658   1.856  1.6779 -1.2244  1.1185
 3047TIP3    H2 9148   3.882   0.730   1.988  0.7413 -0.7127  0.9402
 3048TIP3   OH2 9149   2.353   0.816   2.274  0.4705 -0.3846 -0.4616
 3048TIP3    H1 9150   2.381   0.789   2.362 -1.1865 -0.5537  0.0390
 3048TIP3    H2 9151   2.347   0.734   2.225  0.7668 -0.3561 -0.5466
 3049TIP3   OH2 9152   1.746   2.551   1.814  0.2998  0.2338 -0.0165
 3049TIP3    H1 9153   1.678   2.537   1.748  0.9410 -2.8349 -0.1748
 3049TIP3    H2 9154   1.715   2.504   1.891 -0.2201  3.3952  1.8815
 3050TIP3   OH2 9155   2.813   4.135   2.085 -0.3388 -0.5641  0.5376
 3050TIP3    H1 9156   2.753   4.206   2.106 -1.5891 -1.1447 -0.8284
 3050TIP3    H2 9157   2.784   4.061   2.139 -0.4700 -0.6661  0.3302
 3051TIP3   OH2 9158   6.113   1.982   4.789 -0.1371  0.2954  0.0515
 3051TIP3    H1 9159   6.108   1.902   4.738 -0.3853  0.9050 -0.9009
 3051TIP3    H2 9160   6.193   2.025   4.759 -0.8516  1.1896 -0.6619
 3052TIP3   OH2 9161   4.501   2.735   2.340 -0.2328  0.6459 -0.1332
 3052TIP3    H1 9162   4.536   2.721   2.429 -1.3135 -0.5385  0.1471
 3052TIP3    H2 9163   4.569   2.702   2.282  0.3197  1.0569  0.2753
 3053TIP3   OH2 9164   1.846   0.972   1.718 -0.2613 -0.3836  0.3118
 3053TIP3    H1 9165   1.858   1.067   1.724  1.3254 -0.0139 -4.5506
 3053TIP3    H2 9166   1.929   0.936   1.748 -0.9834 -0.3494  2.4861
 3054TIP3   OH2 9167   3.177   3.075   0.846  0.2102  0.0211 -0.0690
 3054TIP3    H1 9168   3.233   3.108   0.776  2.8802 -2.6291  0.5709
 3054TIP3    H2 9169   3.192   3.135   0.919  0.6606  0.4827 -0.5337
 3055TIP3   OH2 9170   0.918   2.909   2.871 -0.5824 -0.3065 -0.4659
 3055TIP3    H1 9171   0.870   2.987   2.897 -0.7606 -0.8474  0.8982
 3055TIP3    H2 9172   0.853   2.839   2.868 -0.3134 -0.5444 -1.0546
 3056TIP3   OH2 9173   6.211   0.697   0.782 -0.0307 -0.8468  0.1497
 3056TIP3    H1 9174   6.165   0.763   0.729 -1.2464 -1.2337  0.6864
 3056TIP3    H2 9175   6.303   0.722   0.776 -0.0841 -0.9469 -2.2521
 3057TIP3   OH2 9176   5.476   3.670   0.225  0.4723 -0.1888 -0.1979
 3057TIP3    H1 9177   5.469   3.739   0.291  0.1180  0.2292 -0.6731
 3057TIP3    H2 9178   5.562   3.683   0.185  0.8529 -0.6778  0.4297
 3058TIP3   OH2 9179   4.254   4.969   3.676 -0.1132  0.0981  0.1107
 3058TIP3    H1 9180   4.268   5.022   3.754  0.1518  0.1996 -0.0041
 3058TIP3    H2 9181   4.212   5.029   3.614 -1.9059 -0.4397  0.7541
 3059TIP3   OH2 9182   1.097   2.205   2.544 -0.5595  0.2327 -0.4838
 3059TIP3    H1 9183   1.009   2.179   2.517 -0.2995 -1.2467 -0.0231
 3059TIP3    H2 9184   1.155   2.163   2.480 -0.1617  0.8207 -0.5190
 3060TIP3   OH2 9185   1.951   1.239   4.520  0.6054  0.0336  0.3883
 3060TIP3    H1 9186   1.949   1.282   4.435  1.3603 -0.6816 -0.0058
 3060TIP3    H2 9187   1.976   1.149   4.501 -1.2936 -0.7066  1.1653
 3061TIP3   OH2 9188   4.941   0.023   4.733  0.2366 -0.8066 -0.2472
 3061TIP3    H1 9189   4.916  -0.021   4.815 -1.6406  0.2743 -0.1718
 3061TIP3    H2 9190   5.015   0.079   4.757 -0.5521 -0.1970  0.8351
 3062TIP3   OH2 9191   4.816   0.261   0.330 -0.4737  0.2534  0.1116
 3062TIP3    H1 9192   4.867   0.312   0.392  1.3808 -1.8184  0.4220
 3062TIP3    H2 9193   4.729   0.256   0.369  0.3106  0.0732  1.9328
 3063TIP3   OH2 9194   1.897   3.945   0.659  0.2210 -0.3978  0.0374
 3063TIP3    H1 9195   1.842   3.915   0.732  0.0174 -1.0891 -0.3879
 3063TIP3    H2 9196   1.851   4.020   0.623  0.4341  0.0818  0.7557
 3064TIP3   OH2 9197   2.259   5.550   3.314  0.1032  0.3048 -0.1299
 3064TIP3    H1 9198   2.251   5.643   3.335  1.2784  0.1837  0.9613
 3064TIP3    H2 9199   2.318   5.515   3.381  0.2842 -1.0752 -0.9683
 3065TIP3   OH2 9200   1.392   5.565   2.995  0.3017 -0.0281 -0.1780
 3065TIP3    H1 9201   1.418   5.473   3.008  1.6479  0.2721 -0.5423
 3065TIP3    H2 9202   1.370   5.596   3.082  1.8226 -0.1562  0.2885
 3066TIP3   OH2 9203   3.148   0.872   0.988 -0.4100 -0.0065  0.4123
 3066TIP3    H1 9204   3.093   0.948   0.968  0.3771 -0.0514 -2.3481
 3066TIP3    H2 9205   3.128   0.810   0.918 -0.2035 -1.9218  1.9794
 3067TIP3   OH2 9206   5.809   1.059   0.389  0.1914  0.0938  0.1073
 3067TIP3    H1 9207   5.896   1.099   0.386 -0.2018  1.0698  1.1219
 3067TIP3    H2 9208   5.790   1.050   0.482 -0.4865 -0.8182 -0.1077
 3068TIP3   OH2 9209   0.864   1.363   2.395  0.1973  0.0715  0.5273
 3068TIP3    H1 9210   0.787   1.308   2.380  0.1823 -0.3130  1.8496
 3068TIP3    H2 9211   0.834   1.452   2.379 -0.6142 -0.0515  1.2978
 3069TIP3   OH2 9212   6.090   1.381   3.209 -0.0098 -0.1497 -0.1451
 3069TIP3    H1 9213   6.150   1.456   3.205 -3.2700  2.7596  0.8578
 3069TIP3    H2 9214   6.115   1.335   3.289  1.4125  0.4300 -0.2158
 3070TIP3   OH2 9215   2.331   3.099   0.057  0.6906  0.2104 -0.0262
 3070TIP3    H1 9216   2.318   3.023   0.001  2.1834  0.2196 -0.4441
 3070TIP3    H2 9217   2.402   3.074   0.115  0.2566  0.7944  0.7774
 3071TIP3   OH2 9218   6.243   3.172   1.178  0.4983 -0.0351  0.5426
 3071TIP3    H1 9219   6.283   3.247   1.221 -0.7514 -0.1070  1.8904
 3071TIP3    H2 9220   6.224   3.202   1.089  0.4366  1.0735  0.9273
 3072TIP3   OH2 9221   4.014   0.584   2.718  0.9286  0.0056 -0.0588
 3072TIP3    H1 9222   3.992   0.592   2.810  0.6267  1.6396 -0.2328
 3072TIP3    H2 9223   4.089   0.525   2.715  0.0330 -1.2346  1.0758
 3073TIP3   OH2 9224   0.492   4.934   1.409 -0.7013  0.7291 -0.2667
 3073TIP3    H1 9225   0.520   4.956   1.497  1.2137 -1.3170 -0.2795
 3073TIP3    H2 9226   0.570   4.946   1.355 -0.8384 -1.3648 -1.0282
 3074TIP3   OH2 9227   3.520   5.908   1.054 -0.4822  0.2074  0.4299
 3074TIP3    H1 9228   3.447   5.899   0.993 -1.1290 -1.5288  1.3601
 3074TIP3    H2 9229   3.575   5.832   1.036  0.9010  1.2907  0.0125
 3075TIP3   OH2 9230   3.781   5.416   2.652  0.0937 -0.0198  0.2770
 3075TIP3    H1 9231   3.724   5.365   2.595  0.4404  0.2740 -0.3490
 3075TIP3    H2 9232   3.851   5.356   2.676 -0.5118 -0.4088  1.1204
 3076TIP3   OH2 9233   0.077   1.471   0.442 -0.4253 -0.2419 -0.1549
 3076TIP3    H1 9234  -0.012   1.495   0.414  0.1420  0.6323 -1.3050
 3076TIP3    H2 9235   0.096   1.530   0.514 -1.6155 -1.9979  1.6958
 3077TIP3   OH2 9236   4.393   1.097   0.655  0.0542  0.6394  0.2914
 3077TIP3    H1 9237   4.474   1.123   0.611 -0.2528  0.5804 -0.3099
 3077TIP3    H2 9238   4.323   1.140   0.605 -0.2861  0.7648  0.8603
 3078TIP3   OH2 9239   4.587   1.103   2.114 -0.1159  0.0870  0.4903
 3078TIP3    H1 9240   4.581   1.193   2.146  0.4915  0.6963 -1.0126
 3078TIP3    H2 9241   4.582   1.050   2.193 -0.8867  1.4096  1.3815
 3079TIP3   OH2 9242   3.336   5.024   4.231 -0.3223  0.0113  0.4073
 3079TIP3    H1 9243   3.425   5.011   4.263 -0.0339  2.8828  1.0345
 3079TIP3    H2 9244   3.327   4.962   4.159  2.3588 -0.0234  0.0055
 3080TIP3   OH2 9245   4.565   0.691   3.754 -0.3861 -0.1737 -0.5542
 3080TIP3    H1 9246   4.478   0.685   3.794 -0.6650 -0.8768 -1.2447
 3080TIP3    H2 9247   4.590   0.600   3.737  0.0509  0.0745 -1.2856
 3081TIP3   OH2 9248   4.985   5.961   3.433  0.5245  0.1845  0.3676
 3081TIP3    H1 9249   5.010   5.869   3.437  0.3098  0.1529  1.1401
 3081TIP3    H2 9250   5.067   6.008   3.422  0.6795 -0.0697  0.4388
 3082TIP3   OH2 9251   3.612   3.562   4.430  0.1693  0.2260  0.5741
 3082TIP3    H1 9252   3.637   3.646   4.468  0.4858 -0.3997  1.7870
 3082TIP3    H2 9253   3.517   3.566   4.422  0.1630  0.6008  0.8449
 3083TIP3   OH2 9254   2.899   0.962   1.548  0.7529  0.2504 -0.1577
 3083TIP3    H1 9255   2.975   0.903   1.555  0.0801 -0.4854  1.6442
 3083TIP3    H2 9256   2.823   0.903   1.549  0.1130  1.0674  0.1823
 3084TIP3   OH2 9257   5.768   3.536   4.007  0.2829 -0.8910  0.0915
 3084TIP3    H1 9258   5.721   3.583   3.939  0.1530 -2.0152 -0.6328
 3084TIP3    H2 9259   5.701   3.510   4.070  0.7837  2.9490  2.4886
 3085TIP3   OH2 9260   5.708   2.012   5.174 -0.2414 -0.4394 -0.0706
 3085TIP3    H1 9261   5.707   1.948   5.245 -2.3581 -0.7580 -0.3232
 3085TIP3    H2 9262   5.700   1.960   5.095  1.2751 -0.0266 -0.5388
 3086TIP3   OH2 9263   1.041   4.239   1.933  0.3692  0.2019 -0.1917
 3086TIP3    H1 9264   0.948   4.220   1.922  0.4151 -0.0935 -0.0940
 3086TIP3    H2 9265   1.062   4.303   1.865  0.2094 -0.1180 -0.5442
 3087TIP3   OH2 9266   2.862   4.108   1.583 -0.2877 -0.0311 -0.7482
 3087TIP3    H1 9267   2.838   4.150   1.666  0.6355  0.0163 -0.4966
 3087TIP3    H2 9268   2.945   4.064   1.602  0.6507  1.1137 -1.9987
 3088TIP3   OH2 9269   0.544   2.385   1.032  0.5145  0.1212 -0.4462
 3088TIP3    H1 9270   0.499   2.349   1.108 -0.1840  0.8362 -0.5095
 3088TIP3    H2 9271   0.618   2.326   1.018  0.7159  0.0378  0.8491
 3089TIP3   OH2 9272   3.290   5.056   2.776  0.0559 -0.2912  0.2464
 3089TIP3    H1 9273   3.221   5.078   2.840 -0.0773  0.8559 -0.2615
 3089TIP3    H2 9274   3.367   5.040   2.830 -0.4323 -0.8868  0.7863
 3090TIP3   OH2 9275   0.768   3.822   4.292 -0.9033  0.3727 -0.3523
 3090TIP3    H1 9276   0.694   3.873   4.259 -1.5350 -1.3118 -1.6304
 3090TIP3    H2 9277   0.825   3.811   4.217  0.1925  0.8088  0.3852
 3091TIP3   OH2 9278   0.431   4.217   1.263 -0.2105  0.3857 -0.1955
 3091TIP3    H1 9279   0.462   4.244   1.350  0.4267  0.7703 -0.5285
 3091TIP3    H2 9280   0.488   4.264   1.202  0.0553 -0.6849 -0.8137
 3092TIP3   OH2 9281   5.236   3.769   1.012 -0.1112  0.4458  0.3152
 3092TIP3    H1 9282   5.288   3.691   1.031 -2.4572 -1.5279 -0.6763
 3092TIP3    H2 9283   5.262   3.833   1.078  1.7757 -1.2378  1.3087
 3093TIP3   OH2 9284   2.887   1.871   4.488 -0.5210  0.0371 -0.2472
 3093TIP3    H1 9285   2.947   1.942   4.468 -1.0964  0.3995 -0.7093
 3093TIP3    H2 9286   2.871   1.828   4.404  0.4832 -1.1800  0.1582
 3094TIP3   OH2 9287   0.304   2.110   0.259 -0.1905  0.3957 -0.7254
 3094TIP3    H1 9288   0.338   2.110   0.349 -0.2483 -0.0617 -0.7032
 3094TIP3    H2 9289   0.210   2.122   0.269 -0.4634 -1.5541 -0.6139
 3095TIP3   OH2 9290   5.976   1.041   1.987  0.1067 -0.1630 -0.0822
 3095TIP3    H1 9291   5.881   1.047   1.976  0.1546 -1.0844 -1.3519
 3095TIP3    H2 9292   5.989   0.972   2.052 -0.1006  0.1815  0.3233
 3096TIP3   OH2 9293   3.144   5.732   1.594  0.4852  0.4538  0.2566
 3096TIP3    H1 9294   3.229   5.716   1.553 -0.4066  0.3138 -1.6220
 3096TIP3    H2 9295   3.095   5.651   1.581 -0.4930  1.0879 -0.1439
 3097TIP3   OH2 9296   5.711   1.528   5.087 -0.1694  0.3880 -0.3647
 3097TIP3    H1 9297   5.660   1.608   5.099  1.6156  1.4671  0.4376
 3097TIP3    H2 9298   5.721   1.493   5.176 -0.0314 -0.1547 -0.5904
 3098TIP3   OH2 9299   3.226   3.508   1.417  0.1159 -0.3895  0.5278
 3098TIP3    H1 9300   3.248   3.599   1.438 -0.1565 -0.1862 -0.0529
 3098TIP3    H2 9301   3.310   3.462   1.417  0.2574 -0.1286  0.7806
 3099TIP3   OH2 9302   3.171   3.727   0.128 -0.1342  0.8173 -0.3544
 3099TIP3    H1 9303   3.096   3.784   0.115 -0.0767  1.3197  1.3327
 3099TIP3    H2 9304   3.160   3.658   0.062 -1.3151  1.6259 -1.0408
 3100TIP3   OH2 9305   1.373   3.517   3.928  0.2273 -0.5639  0.0576
 3100TIP3    H1 9306   1.451   3.507   3.873  0.6914 -0.8429  0.7406
 3100TIP3    H2 9307   1.381   3.447   3.993 -0.0492  0.0413  0.7627
 3101TIP3   OH2 9308   2.154   4.251   4.429 -0.6441 -0.2778  0.1400
 3101TIP3    H1 9309   2.082   4.193   4.450 -1.6814 -0.4798 -3.2740
 3101TIP3    H2 9310   2.114   4.337   4.416  0.1066  0.1365  0.4639
 3102TIP3   OH2 9311   2.981   2.737   4.150  0.4172 -0.2132 -0.3765
 3102TIP3    H1 9312   2.947   2.773   4.232  0.2265 -3.6620  1.2110
 3102TIP3    H2 9313   2.907   2.746   4.089  0.5548  2.3733 -0.2788
 3103TIP3   OH2 9314   4.195   2.745   1.847 -0.0655  0.1264  0.1992
 3103TIP3    H1 9315   4.177   2.689   1.772  0.2538 -2.1437  1.7073
 3103TIP3    H2 9316   4.120   2.805   1.850 -2.8727 -3.1116  0.9895
 3104TIP3   OH2 9317   6.151   3.646   0.602 -0.1190 -0.0850 -0.4568
 3104TIP3    H1 9318   6.126   3.566   0.555  1.1795 -0.7919  0.0245
 3104TIP3    H2 9319   6.229   3.676   0.557  0.1652  0.1691  0.2018
 3105TIP3   OH2 9320   5.491   2.474   3.408  0.0539 -0.2290 -0.1234
 3105TIP3    H1 9321   5.537   2.399   3.444 -0.6433 -1.0903 -0.9800
 3105TIP3    H2 9322   5.556   2.545   3.409  0.5667 -0.7021  1.1340
 3106TIP3   OH2 9323   1.492   3.014   2.425 -0.2284  0.3882 -0.0357
 3106TIP3    H1 9324   1.405   2.975   2.427  0.1160 -0.4994 -1.2216
 3106TIP3    H2 9325   1.477   3.108   2.434 -1.1775  0.1318  1.3596
 3107TIP3   OH2 9326   1.571   2.204   1.044 -0.2918  0.2780 -0.0344
 3107TIP3    H1 9327   1.598   2.227   1.133  1.4022 -1.9872  0.1317
 3107TIP3    H2 9328   1.527   2.119   1.053 -1.4479  0.7172 -1.2109
 3108TIP3   OH2 9329   4.858   0.149   4.411 -0.2218  0.4475  0.4514
 3108TIP3    H1 9330   4.898   0.156   4.324 -0.2048  0.1397  0.4337
 3108TIP3    H2 9331   4.929   0.116   4.467 -0.9107 -1.8979  0.0506
 3109TIP3   OH2 9332   1.908   5.687   0.003 -0.3332  0.3584  0.5965
 3109TIP3    H1 9333   1.884   5.744   0.076  0.7314  0.4045  0.9196
 3109TIP3    H2 9334   1.962   5.618   0.042  0.1527  0.3180 -0.1291
 3110TIP3   OH2 9335   0.229   1.861   3.285 -0.5172 -0.9239  0.3690
 3110TIP3    H1 9336   0.318   1.887   3.308 -0.5738 -0.6554  0.2849
 3110TIP3    H2 9337   0.176   1.887   3.360 -0.5689 -0.8189  0.2969
 3111TIP3   OH2 9338   2.762   2.684   3.552  0.3386  0.2616  0.1676
 3111TIP3    H1 9339   2.722   2.609   3.508  0.1620  0.4542 -0.0011
 3111TIP3    H2 9340   2.846   2.651   3.584 -0.5929 -0.6184  1.8917
 3112TIP3   OH2 9341   4.692   3.056   3.369 -0.3881 -0.5451 -0.0547
 3112TIP3    H1 9342   4.610   3.035   3.326 -1.4019  0.2485  1.4062
 3112TIP3    H2 9343   4.719   2.974   3.411  0.2371 -1.1302 -1.5310
 3113TIP3   OH2 9344   0.455   0.608   1.422  0.1297  0.3781 -0.5837
 3113TIP3    H1 9345   0.442   0.570   1.335 -1.7684  2.5839 -1.3586
 3113TIP3    H2 9346   0.430   0.700   1.412 -0.7584  0.5726  2.4419
 3114TIP3   OH2 9347   1.081   3.843   2.275  0.1244 -0.3811  0.1377
 3114TIP3    H1 9348   1.137   3.839   2.197 -0.7251 -0.3642 -0.4776
 3114TIP3    H2 9349   1.141   3.867   2.345  0.5464  1.8258 -0.8836
 3115TIP3   OH2 9350   5.819   5.735   1.731 -0.6743  0.2256 -0.2974
 3115TIP3    H1 9351   5.743   5.740   1.788 -0.3003 -0.8519  0.3336
 3115TIP3    H2 9352   5.879   5.802   1.765 -0.6271 -0.1201  0.3171
 3116TIP3   OH2 9353   5.375   1.084   5.064 -0.6221 -0.0377  0.2703
 3116TIP3    H1 9354   5.336   1.044   4.986  0.1196  1.6635 -1.0480
 3116TIP3    H2 9355   5.454   1.033   5.081  1.1494  1.6108 -2.3116
 3117TIP3   OH2 9356   0.712   0.279   3.025 -0.2688 -0.7516  0.2879
 3117TIP3    H1 9357   0.697   0.188   3.000 -0.9655 -0.2827 -1.0882
 3117TIP3    H2 9358   0.807   0.290   3.017 -0.1908 -1.3174  0.3428
 3118TIP3   OH2 9359   2.730   3.820   2.713 -0.8168 -0.0045  0.1958
 3118TIP3    H1 9360   2.671   3.865   2.653 -0.5022 -0.0799 -0.1811
 3118TIP3    H2 9361   2.778   3.891   2.757 -0.2425  0.0401 -0.4773
 3119TIP3   OH2 9362   2.353   3.883   3.685  0.1195 -0.4426 -0.4490
 3119TIP3    H1 9363   2.363   3.879   3.590 -0.8869 -1.6073 -0.5255
 3119TIP3    H2 9364   2.299   3.961   3.700  2.4496  1.3091 -0.5865
 3120TIP3   OH2 9365   2.467   3.921   4.169 -0.0305 -0.2416  0.2210
 3120TIP3    H1 9366   2.466   3.838   4.217 -0.5100 -0.6620 -0.4841
 3120TIP3    H2 9367   2.389   3.917   4.113  0.7088  0.0563 -0.8667
 3121TIP3   OH2 9368   3.123   0.426   3.784 -0.0541 -0.5155  0.7413
 3121TIP3    H1 9369   3.178   0.353   3.757  2.2270  0.8849  1.3672
 3121TIP3    H2 9370   3.081   0.455   3.703 -0.3404 -1.9542  0.3498
 3122TIP3   OH2 9371   5.765   3.281   4.560 -0.0310 -0.0605 -0.2409
 3122TIP3    H1 9372   5.763   3.213   4.493  1.9422  1.6464 -2.2336
 3122TIP3    H2 9373   5.695   3.341   4.535 -0.5297 -0.3817  0.3748
 3123TIP3   OH2 9374   4.862   3.073   3.784  0.5131  0.4404 -0.9006
 3123TIP3    H1 9375   4.818   3.140   3.732 -0.1996 -0.0738 -0.9750
 3123TIP3    H2 9376   4.858   3.105   3.874  1.6922  1.3018 -1.1353
 3124TIP3   OH2 9377   3.189   5.515   0.044  0.2634 -0.1612 -0.6043
 3124TIP3    H1 9378   3.175   5.601   0.003 -0.8797 -0.1207 -0.1738
 3124TIP3    H2 9379   3.106   5.496   0.088  0.3640 -1.6855 -1.0323
 3125TIP3   OH2 9380   1.016   4.582   1.956 -0.2110 -0.0467  0.0515
 3125TIP3    H1 9381   0.933   4.566   1.912 -0.3132 -4.1769  1.3241
 3125TIP3    H2 9382   1.083   4.550   1.895  0.2885  0.9586  0.0419
 3126TIP3   OH2 9383   4.583   5.387   0.885  0.5692  0.1129  0.3531
 3126TIP3    H1 9384   4.671   5.425   0.887 -0.0410  1.6088  0.8783
 3126TIP3    H2 9385   4.538   5.435   0.815 -0.0523 -0.0663  0.6246
 3127TIP3   OH2 9386   0.136   3.606   3.032  0.0627  0.0846  0.1047
 3127TIP3    H1 9387   0.161   3.576   2.945 -0.1926 -0.3542  0.1791
 3127TIP3    H2 9388   0.094   3.530   3.073 -1.4368  0.8141 -0.0333
 3128TIP3   OH2 9389   4.747   0.064   3.540 -0.1706 -0.0905 -0.1925
 3128TIP3    H1 9390   4.695  -0.012   3.565 -1.1573  0.7392  0.3096
 3128TIP3    H2 9391   4.688   0.119   3.489  0.5360  0.3475 -0.5696
 3129TIP3   OH2 9392   1.108   0.434   3.679 -0.0432  0.4984 -0.2123
 3129TIP3    H1 9393   1.043   0.456   3.745 -1.4776 -3.7718  0.1394
 3129TIP3    H2 9394   1.180   0.394   3.728  1.4247  2.2323 -0.8764
 3130TIP3   OH2 9395   2.803   0.273   1.171  0.6084 -0.6912 -0.0847
 3130TIP3    H1 9396   2.892   0.290   1.199  0.6628  0.9184 -1.0932
 3130TIP3    H2 9397   2.762   0.227   1.245  1.8929 -0.2902  0.8991
 3131TIP3   OH2 9398   5.937   4.992   3.239  0.2810  0.1169  0.7202
 3131TIP3    H1 9399   6.012   5.050   3.230  0.2263  0.2896  1.2903
 3131TIP3    H2 9400   5.962   4.912   3.193  1.3916 -0.3671  2.1010
 3132TIP3   OH2 9401   5.832   2.073   3.979  0.0542  0.0984  0.3888
 3132TIP3    H1 9402   5.795   1.986   3.973 -1.9873  0.9902 -0.9929
 3132TIP3    H2 9403   5.917   2.067   3.936 -0.7034 -0.9008 -1.0167
 3133TIP3   OH2 9404   5.913   1.060   1.398  0.3130 -0.1985  0.4690
 3133TIP3    H1 9405   5.934   1.014   1.317  0.5699 -1.4399  1.2229
 3133TIP3    H2 9406   5.985   1.039   1.458  0.6275  1.4999  0.7276
 3134TIP3   OH2 9407   1.664   3.438   2.704 -0.4332  0.0817 -0.1511
 3134TIP3    H1 9408   1.692   3.355   2.743 -0.9453 -1.2315 -2.3897
 3134TIP3    H2 9409   1.680   3.503   2.772 -1.7110 -2.0862  2.4158
 3135TIP3   OH2 9410   5.876   5.004   1.224 -0.2034 -0.0692 -0.0713
 3135TIP3    H1 9411   5.816   4.966   1.159  0.2422  0.8940 -1.0849
 3135TIP3    H2 9412   5.844   5.094   1.236 -0.2868 -0.2327  1.0780
 3136TIP3   OH2 9413   4.926   4.817   2.517 -0.2771 -0.2158  0.2234
 3136TIP3    H1 9414   4.919   4.886   2.451 -0.7790  0.2821  0.7810
 3136TIP3    H2 9415   5.010   4.775   2.499  0.7304  1.4688  0.7469
 3137TIP3   OH2 9416   5.167   5.089   4.234  0.1131  0.0974  0.1881
 3137TIP3    H1 9417   5.176   4.998   4.260  2.5880  0.7206  1.8590
 3137TIP3    H2 9418   5.081   5.115   4.265 -1.0367 -1.8687 -1.1659
 3138TIP3   OH2 9419   1.310   0.720   2.461 -0.2528  0.4350 -0.0131
 3138TIP3    H1 9420   1.302   0.815   2.469 -2.3257  0.2053  1.4535
 3138TIP3    H2 9421   1.375   0.695   2.527  1.0604  0.8695 -1.0849
 3139TIP3   OH2 9422   2.788   1.580   0.705  0.3922 -0.2864 -0.0447
 3139TIP3    H1 9423   2.719   1.536   0.755 -0.5503  0.5644 -0.5477
 3139TIP3    H2 9424   2.869   1.556   0.748 -0.1323 -2.1108 -0.0168
 3140TIP3   OH2 9425   3.937   5.681   0.729  0.4934 -0.2714  0.3543
 3140TIP3    H1 9426   3.910   5.772   0.718 -0.3349 -0.6843 -1.2054
 3140TIP3    H2 9427   4.025   5.677   0.692  0.3314 -0.2138 -0.0341
 3141TIP3   OH2 9428   6.019   3.976   4.804 -0.0109 -0.0319  0.2860
 3141TIP3    H1 9429   5.993   4.051   4.857 -0.8724  0.0524 -0.2357
 3141TIP3    H2 9430   6.021   3.903   4.866  0.2076  0.2951  0.6710
 3142TIP3   OH2 9431   6.217   0.128   1.669  0.2725 -0.4203 -0.4522
 3142TIP3    H1 9432   6.193   0.152   1.580  0.6050 -1.1538 -0.7486
 3142TIP3    H2 9433   6.137   0.141   1.720 -0.4128 -1.6116 -1.1831
 3143TIP3   OH2 9434   5.440   0.575   4.104 -0.1928  0.2449  0.1585
 3143TIP3    H1 9435   5.376   0.639   4.074 -0.7372  0.4981  1.7693
 3143TIP3    H2 9436   5.525   0.612   4.077 -0.6094  0.6848 -0.5946
 3144TIP3   OH2 9437   4.202   4.407   4.315  0.4060  0.0840  0.0022
 3144TIP3    H1 9438   4.188   4.326   4.267 -0.2742 -1.0576  1.9774
 3144TIP3    H2 9439   4.207   4.379   4.407  0.1707  2.2844  0.7401
 3145TIP3   OH2 9440   3.640   5.101   5.000  0.2274  0.0331 -0.4474
 3145TIP3    H1 9441   3.636   5.005   4.992  2.1917 -0.2338  1.0008
 3145TIP3    H2 9442   3.686   5.116   5.083 -0.1879  2.2516 -0.5639
 3146TIP3   OH2 9443   0.658   2.625   4.858 -0.0374  0.3538 -0.2619
 3146TIP3    H1 9444   0.577   2.671   4.880 -0.6790 -1.2214  0.9019
 3146TIP3    H2 9445   0.707   2.622   4.941 -1.2585 -3.3370  0.5124
 3147TIP3   OH2 9446   3.276   5.780   2.574  0.3353 -0.4443 -0.1391
 3147TIP3    H1 9447   3.371   5.777   2.564  0.3745 -0.9951  0.3255
 3147TIP3    H2 9448   3.260   5.751   2.664 -0.3245 -1.3984 -0.5366
 3148TIP3   OH2 9449   0.098   1.634   0.639  0.5669  0.2988  0.7366
 3148TIP3    H1 9450   0.116   1.646   0.732  1.2649 -0.6765  0.7447
 3148TIP3    H2 9451   0.025   1.692   0.620  1.2087  1.4190  1.6237
 3149TIP3   OH2 9452   0.630   1.605   0.054  0.3304  0.0623 -0.4472
 3149TIP3    H1 9453   0.573   1.667   0.100  1.2285  0.4450  0.1799
 3149TIP3    H2 9454   0.641   1.643  -0.033  0.8936  0.8183 -0.0594
 3150TIP3   OH2 9455   0.045   2.159   1.603  0.4001  0.0045 -0.3959
 3150TIP3    H1 9456   0.016   2.208   1.525 -1.0263  0.2203  0.2347
 3150TIP3    H2 9457   0.060   2.070   1.571 -1.2153 -0.1738 -0.7418
 3151TIP3   OH2 9458   1.752   1.063   1.082  0.2526 -0.2727  0.3162
 3151TIP3    H1 9459   1.743   1.051   1.176  0.2774  1.7376  0.6188
 3151TIP3    H2 9460   1.738   0.976   1.045  0.9036 -1.2233  2.2054
 3152TIP3   OH2 9461   4.860   0.929   1.362  0.0274  0.3734 -0.1185
 3152TIP3    H1 9462   4.898   0.849   1.400 -1.3095  0.1383  0.8011
 3152TIP3    H2 9463   4.889   0.928   1.271  0.1985 -1.0737 -0.0741
 3153TIP3   OH2 9464   0.437   0.046   0.520 -0.2926  0.5396 -0.0153
 3153TIP3    H1 9465   0.459   0.121   0.464  0.7600  1.3667  1.4657
 3153TIP3    H2 9466   0.372   0.080   0.582  0.5828  0.3913  1.0058
 3154TIP3   OH2 9467   3.788   1.449   4.336 -0.3986  0.1687  0.3674
 3154TIP3    H1 9468   3.877   1.438   4.302 -0.0877 -1.0233  1.5180
 3154TIP3    H2 9469   3.786   1.540   4.366  0.6762  0.0203  0.9686
 3155TIP3   OH2 9470   2.634   3.497   5.085 -0.0515  0.3786  0.7167
 3155TIP3    H1 9471   2.693   3.535   5.020  0.3545  1.5288  1.7213
 3155TIP3    H2 9472   2.652   3.545   5.165 -2.2063  0.6084  1.1288
 3156TIP3   OH2 9473   3.600   3.478   0.092 -0.3532  0.3036 -0.2588
 3156TIP3    H1 9474   3.525   3.484   0.152  0.9081  2.8927  1.2779
 3156TIP3    H2 9475   3.570   3.521   0.012 -0.5893  1.1889  0.2902
 3157TIP3   OH2 9476   2.932   2.948   1.160 -0.3366 -1.2012 -0.1862
 3157TIP3    H1 9477   3.013   2.911   1.127  0.1487 -0.8838  0.6284
 3157TIP3    H2 9478   2.941   2.947   1.255  0.3605  2.3589 -0.0694
 3158TIP3   OH2 9479   5.699   3.054   1.714  0.0646  0.0580  0.2656
 3158TIP3    H1 9480   5.765   3.071   1.647 -1.1098 -0.6025 -1.1329
 3158TIP3    H2 9481   5.636   3.126   1.704 -0.8598 -0.8043 -0.3577
 3159TIP3   OH2 9482   0.244   5.170   2.135 -0.1372  0.3510 -0.0120
 3159TIP3    H1 9483   0.159   5.150   2.174 -0.0664 -0.4228 -0.2240
 3159TIP3    H2 9484   0.298   5.094   2.158  0.5518  0.9269  0.2888
 3160TIP3   OH2 9485   2.251   3.035   0.572  0.0729 -0.2894  0.1124
 3160TIP3    H1 9486   2.179   3.009   0.515 -0.6185  0.2058  0.7375
 3160TIP3    H2 9487   2.247   2.974   0.646  0.0313 -0.0063  0.3471
 3161TIP3   OH2 9488   4.938   4.628   1.666  0.2936 -0.3290 -0.0882
 3161TIP3    H1 9489   4.977   4.705   1.623  0.0825 -0.5352 -0.6549
 3161TIP3    H2 9490   5.011   4.567   1.675  0.1028 -0.7505 -1.2336
 3162TIP3   OH2 9491   6.278   5.821   3.162 -0.1287  0.1493 -0.2520
 3162TIP3    H1 9492   6.262   5.915   3.158 -1.5702  0.0915  2.3649
 3162TIP3    H2 9493   6.373   5.813   3.164  0.0084  1.6963  1.3432
 3163TIP3   OH2 9494   3.163   1.283   2.141  0.5004 -0.1191 -0.0854
 3163TIP3    H1 9495   3.079   1.327   2.148  1.5017  1.9521 -0.2233
 3163TIP3    H2 9496   3.203   1.292   2.227  0.6806 -0.8730 -0.0845
 3164TIP3   OH2 9497   3.745   0.867   1.058 -0.1121  0.2162  0.5453
 3164TIP3    H1 9498   3.666   0.886   1.108  0.2780  0.4541  1.0876
 3164TIP3    H2 9499   3.798   0.946   1.067 -1.0340  1.2780 -2.2850
 3165TIP3   OH2 9500   1.553   2.111   5.205 -0.3952 -0.2582 -0.1379
 3165TIP3    H1 9501   1.610   2.157   5.143 -0.2550 -0.7155 -0.3549
 3165TIP3    H2 9502   1.496   2.057   5.150 -0.1615 -0.7908  0.1346
 3166TIP3   OH2 9503   0.935   5.238   1.231 -0.1392  0.0578  0.0636
 3166TIP3    H1 9504   0.954   5.232   1.324  1.9374  0.5043 -0.2702
 3166TIP3    H2 9505   0.927   5.332   1.213  0.0015  0.0080 -0.2813
 3167TIP3   OH2 9506   2.086   2.878   1.835  0.4010 -0.1317  0.1016
 3167TIP3    H1 9507   2.095   2.866   1.740  1.9666 -0.2477  0.2267
 3167TIP3    H2 9508   1.998   2.849   1.855  0.5854 -1.6601 -1.0922
 3168TIP3   OH2 9509   1.107   3.607   2.042  0.2682 -0.1749  0.1934
 3168TIP3    H1 9510   1.119   3.696   2.008 -0.5115  0.0501  0.4704
 3168TIP3    H2 9511   1.176   3.596   2.107 -0.6643  0.9008  1.4335
 3169TIP3   OH2 9512   5.909   5.911   2.022 -0.5042 -0.1308 -0.5052
 3169TIP3    H1 9513   5.914   5.943   1.932 -1.9474  2.3930  0.2223
 3169TIP3    H2 9514   5.983   5.952   2.066 -0.7758 -0.0220 -0.1523
 3170TIP3   OH2 9515   0.015   2.014   3.404  0.5377  0.2512  0.1355
 3170TIP3    H1 9516  -0.010   2.055   3.321 -3.0489  1.3557  1.5780
 3170TIP3    H2 9517   0.009   2.084   3.468  0.9385 -1.0819  1.6924
 3171TIP3   OH2 9518   5.570   5.734   4.085 -0.0120 -0.2042  0.0076
 3171TIP3    H1 9519   5.509   5.784   4.031  0.3418 -1.1609 -1.3584
 3171TIP3    H2 9520   5.552   5.643   4.062  0.1885 -0.6422  1.5178
 3172TIP3   OH2 9521   0.560   4.291   4.753 -0.4612 -0.6445  0.0838
 3172TIP3    H1 9522   0.477   4.326   4.786 -1.7833 -3.2542 -0.1658
 3172TIP3    H2 9523   0.533   4.229   4.685  1.5319 -3.0149  1.3014
 3173TIP3   OH2 9524   2.836   1.244   1.589 -0.1821  0.5397  0.4112
 3173TIP3    H1 9525   2.745   1.269   1.575  0.0735  2.1170  1.3127
 3173TIP3    H2 9526   2.840   1.151   1.566 -2.2342  0.1808  1.3717
 3174TIP3   OH2 9527   3.880   2.732   1.480  0.6776  0.2521 -0.2959
 3174TIP3    H1 9528   3.871   2.778   1.397 -2.5678 -0.6404 -0.5998
 3174TIP3    H2 9529   3.844   2.793   1.545 -0.7504 -0.5959 -0.2443
 3175TIP3   OH2 9530   2.623   0.110   0.415 -0.1774  0.0113 -0.2189
 3175TIP3    H1 9531   2.537   0.142   0.442 -0.1392  0.4429 -0.5800
 3175TIP3    H2 9532   2.605   0.059   0.336 -0.3370 -1.5644  0.8118
 3176TIP3   OH2 9533   5.613   2.115   4.760 -0.4585 -0.1364  0.2944
 3176TIP3    H1 9534   5.594   2.109   4.666  1.3775  1.6140 -0.2624
 3176TIP3    H2 9535   5.530   2.142   4.800 -1.0953 -0.2475 -0.9089
 3177TIP3   OH2 9536   1.011   0.412   1.058  0.1446 -0.0854 -0.5890
 3177TIP3    H1 9537   0.918   0.433   1.045 -0.7593 -2.1927  1.7051
 3177TIP3    H2 9538   1.038   0.372   0.975 -0.1408  2.8464 -2.2648
 3178TIP3   OH2 9539   4.678   0.762   2.187  0.4690 -0.3813 -0.0221
 3178TIP3    H1 9540   4.585   0.776   2.170  0.7908  2.0683 -0.0715
 3178TIP3    H2 9541   4.681   0.716   2.271 -0.7771 -1.1180 -0.3587
 3179TIP3   OH2 9542   2.551   2.681   3.273 -0.3239  0.1298 -0.4551
 3179TIP3    H1 9543   2.606   2.697   3.196  1.0167 -1.6029  0.0566
 3179TIP3    H2 9544   2.613   2.651   3.340 -1.6569  0.1397  0.8294
 3180TIP3   OH2 9545   1.804   4.320   1.985 -0.0740  0.1605 -0.4616
 3180TIP3    H1 9546   1.855   4.308   2.065  2.2988  1.5659 -1.6567
 3180TIP3    H2 9547   1.850   4.388   1.937 -2.1409  0.2624 -2.4866
 3181TIP3   OH2 9548   0.322   2.206   4.757  0.4537 -0.2439 -0.1508
 3181TIP3    H1 9549   0.349   2.288   4.714  0.1222  0.0177  0.1287
 3181TIP3    H2 9550   0.294   2.234   4.844  0.2616 -0.6493 -0.0841
 3182TIP3   OH2 9551   4.630   3.500   2.233  0.4276 -0.0600  0.2205
 3182TIP3    H1 9552   4.647   3.409   2.210 -1.7598 -0.2579 -0.7722
 3182TIP3    H2 9553   4.536   3.504   2.249  0.7540  1.6422  2.1457
 3183TIP3   OH2 9554   1.016   3.211   2.939  0.5198  0.5559  0.4781
 3183TIP3    H1 9555   0.939   3.204   2.995 -0.8959 -1.1220 -1.5043
 3183TIP3    H2 9556   1.081   3.155   2.980 -0.0552  0.3506  1.1256
 3184TIP3   OH2 9557   6.330   3.067   4.320 -0.2069  0.0880  0.5688
 3184TIP3    H1 9558   6.379   3.149   4.321  1.7256 -0.9936  0.0343
 3184TIP3    H2 9559   6.241   3.092   4.295  0.6827  1.8566 -1.0741
 3185TIP3   OH2 9560   1.693   1.193   4.662 -0.4541 -0.3497  0.1752
 3185TIP3    H1 9561   1.780   1.216   4.630 -0.5455  0.3133  0.3894
 3185TIP3    H2 9562   1.637   1.265   4.633 -1.6277 -2.2832 -2.8328
 3186TIP3   OH2 9563   2.704   1.215   2.711 -0.1878  0.5667 -0.4445
 3186TIP3    H1 9564   2.717   1.284   2.776 -0.4330 -1.0910  1.4458
 3186TIP3    H2 9565   2.615   1.230   2.677  0.0016  1.5361 -0.5457
 3187TIP3   OH2 9566   5.698   2.523   5.162  0.4231 -0.2174 -0.0301
 3187TIP3    H1 9567   5.780   2.547   5.120  1.0563 -1.7431  0.2691
 3187TIP3    H2 9568   5.711   2.433   5.192 -0.8936 -0.0522  1.1824
 3188TIP3   OH2 9569   4.845   0.878   3.583  0.1431 -0.4430 -0.7026
 3188TIP3    H1 9570   4.904   0.904   3.513 -0.9924  2.0752 -0.8097
 3188TIP3    H2 9571   4.774   0.830   3.539  0.7879 -1.2605 -0.8804
 3189TIP3   OH2 9572   2.649   3.231   2.221  0.4332 -0.6848 -0.2086
 3189TIP3    H1 9573   2.560   3.227   2.258 -0.5321 -1.1217 -2.3883
 3189TIP3    H2 9574   2.688   3.147   2.242  0.4892 -0.3584  1.0663
 3190TIP3   OH2 9575   3.706   0.370   3.835 -0.3217  0.0468 -0.2112
 3190TIP3    H1 9576   3.639   0.322   3.786  0.7484 -1.6425 -0.0969
 3190TIP3    H2 9577   3.670   0.458   3.844 -1.3214 -0.0374 -2.5554
 3191TIP3   OH2 9578   5.466   2.218   4.139 -0.2568 -0.4032 -0.2483
 3191TIP3    H1 9579   5.460   2.134   4.184  0.0565 -0.4899 -0.3646
 3191TIP3    H2 9580   5.559   2.237   4.137 -0.2775 -0.3376 -0.7453
 3192TIP3   OH2 9581   2.479   2.105   0.385  0.5575 -0.2305  0.1450
 3192TIP3    H1 9582   2.444   2.020   0.357  0.0597 -0.4367  1.3271
 3192TIP3    H2 9583   2.416   2.168   0.351  0.1736 -0.4449  0.4465
 3193TIP3   OH2 9584   0.181   5.809   3.882 -0.2300 -0.1092 -0.2539
 3193TIP3    H1 9585   0.120   5.746   3.843  1.4602 -0.8149 -1.9174
 3193TIP3    H2 9586   0.173   5.794   3.976 -2.9631  0.2178 -0.3623
 3194TIP3   OH2 9587   3.282   4.118   1.039 -0.1337  0.2039  0.5301
 3194TIP3    H1 9588   3.377   4.108   1.037 -0.1481  0.1800 -0.8829
 3194TIP3    H2 9589   3.265   4.196   0.987 -0.8572  0.6415  1.3806
 3195TIP3   OH2 9590   1.313   4.647   2.522 -0.0329  0.0212 -0.0671
 3195TIP3    H1 9591   1.224   4.633   2.489 -0.1599 -0.2090  0.3650
 3195TIP3    H2 9592   1.303   4.711   2.593  0.4634  1.9227 -1.6214
 3196TIP3   OH2 9593   1.974   1.509   1.727 -0.3274  0.0478  0.1787
 3196TIP3    H1 9594   1.914   1.498   1.800 -0.9545 -1.4264 -0.5105
 3196TIP3    H2 9595   1.922   1.557   1.661 -0.2766  0.0258  0.1229
 3197TIP3   OH2 9596   4.959   4.291   4.273 -0.0730 -0.4785  0.1153
 3197TIP3    H1 9597   4.986   4.315   4.184  1.3207 -0.2068  0.5890
 3197TIP3    H2 9598   4.931   4.374   4.312 -2.6885 -0.8861 -0.6714
 3198TIP3   OH2 9599   3.018   3.617   4.282 -0.1278  0.2901 -0.3408
 3198TIP3    H1 9600   3.037   3.632   4.375  1.1000  0.5984 -0.6297
 3198TIP3    H2 9601   2.956   3.545   4.282  0.5409 -0.3142  0.6834
 3199TIP3   OH2 9602   4.603   4.510   4.456  0.5555 -0.8056 -0.0900
 3199TIP3    H1 9603   4.606   4.539   4.547  1.0559 -3.2111  0.7122
 3199TIP3    H2 9604   4.519   4.544   4.423  0.9921  1.3025  0.7699
 3200TIP3   OH2 9605   3.425   4.466   4.740 -0.3378  0.0418 -0.3978
 3200TIP3    H1 9606   3.493   4.500   4.798  0.3998  0.0827 -1.2668
 3200TIP3    H2 9607   3.458   4.381   4.711 -1.6720 -0.9631  0.8846
 3201TIP3   OH2 9608   4.632   2.826   4.063 -0.1884  0.0457 -0.1446
 3201TIP3    H1 9609   4.664   2.874   4.140 -0.5301 -1.0281  0.6923
 3201TIP3    H2 9610   4.537   2.824   4.075 -0.1585 -1.1165  0.0246
 3202TIP3   OH2 9611   4.851   1.855   0.917  0.1950  0.0163 -0.2075
 3202TIP3    H1 9612   4.807   1.922   0.865  1.7234 -0.8429 -2.8143
 3202TIP3    H2 9613   4.812   1.862   1.004 -1.9502  2.1052 -1.2309
 3203TIP3   OH2 9614   1.171   4.532   0.077  0.3437  0.1436  0.6089
 3203TIP3    H1 9615   1.220   4.610   0.051  0.6852  0.5158  2.2249
 3203TIP3    H2 9616   1.081   4.563   0.092 -0.4355 -0.5112 -2.2157
 3204TIP3   OH2 9617   4.034   3.601   0.784 -0.3742 -0.1677 -0.6043
 3204TIP3    H1 9618   4.125   3.617   0.760 -0.1727 -0.7586 -0.2621
 3204TIP3    H2 9619   4.010   3.522   0.734 -1.3622  1.1464 -2.3289
 3205TIP3   OH2 9620   2.370   5.353   0.413  0.6750  0.0341 -0.0458
 3205TIP3    H1 9621   2.290   5.300   0.418  0.0836  1.0426  1.9039
 3205TIP3    H2 9622   2.392   5.354   0.319 -2.2327  0.6116 -0.8228
 3206TIP3   OH2 9623   0.229   1.655   4.473 -0.1387  0.1605 -0.4934
 3206TIP3    H1 9624   0.258   1.572   4.510 -0.0495 -1.1067 -3.1575
 3206TIP3    H2 9625   0.134   1.654   4.482 -0.0078  1.0159  1.7402
 3207TIP3   OH2 9626   3.534   1.293   3.039  0.0868 -0.1940  0.1436
 3207TIP3    H1 9627   3.571   1.322   3.123 -1.2079  0.4052  0.5281
 3207TIP3    H2 9628   3.594   1.329   2.974  0.1833  0.7900  0.7506
 3208TIP3   OH2 9629   1.562   1.439   2.417 -0.3245 -0.0708  0.0410
 3208TIP3    H1 9630   1.511   1.519   2.431 -1.1071 -0.5468 -0.0092
 3208TIP3    H2 9631   1.508   1.370   2.456 -0.0580 -0.6925 -0.6827
 3209TIP3   OH2 9632   0.455   2.937   1.677 -0.1963  0.3646 -0.7065
 3209TIP3    H1 9633   0.390   2.866   1.674  0.1311  0.0599 -0.5722
 3209TIP3    H2 9634   0.538   2.895   1.655 -0.2561  1.0137 -2.2763
 3210TIP3   OH2 9635   3.330   5.503   4.952 -0.0395 -0.3081 -0.2267
 3210TIP3    H1 9636   3.381   5.425   4.933 -1.6445 -1.4754  0.0092
 3210TIP3    H2 9637   3.275   5.478   5.026 -0.8462  0.9296 -0.3703
 3211TIP3   OH2 9638   0.205   5.576   5.166 -0.3831 -0.5059  0.4120
 3211TIP3    H1 9639   0.160   5.576   5.082  3.1552  0.7739 -1.7026
 3211TIP3    H2 9640   0.168   5.649   5.215  0.3919  1.5375 -1.8994
 3212TIP3   OH2 9641   4.884   5.245   1.094  0.0556 -0.3967 -0.5779
 3212TIP3    H1 9642   4.824   5.205   1.032  0.3334 -1.6320 -0.0882
 3212TIP3    H2 9643   4.912   5.172   1.150 -0.2464  0.6869  1.0409
 3213TIP3   OH2 9644   2.111   4.248   5.039  0.1063 -0.5052 -0.3884
 3213TIP3    H1 9645   2.175   4.318   5.027 -0.2616 -0.2950 -1.1480
 3213TIP3    H2 9646   2.156   4.184   5.095  1.4768 -1.0031 -1.9985
 3214TIP3   OH2 9647   3.768   0.313   0.796  0.3394  0.4289 -0.0748
 3214TIP3    H1 9648   3.862   0.297   0.783  0.0463 -2.2689  0.4198
 3214TIP3    H2 9649   3.763   0.372   0.871  1.6501 -1.0971  1.2877
 3215TIP3   OH2 9650   3.850   0.951   3.395  0.3142  0.3764 -0.3406
 3215TIP3    H1 9651   3.811   0.963   3.482  0.0697  0.5656 -0.4738
 3215TIP3    H2 9652   3.868   1.040   3.365  2.1277  0.2607  0.2818
 3216TIP3   OH2 9653   1.221   4.593   3.119 -0.3638 -0.0261 -0.2026
 3216TIP3    H1 9654   1.170   4.551   3.049 -0.7461 -1.6219  0.9924
 3216TIP3    H2 9655   1.301   4.542   3.125  0.0308  0.6067 -0.0143
 3217TIP3   OH2 9656   2.285   0.716   1.234  0.1173  0.2546  0.4581
 3217TIP3    H1 9657   2.284   0.724   1.139 -0.1397 -0.3376  0.4084
 3217TIP3    H2 9658   2.226   0.643   1.253  1.5076 -0.7687  0.9517
 3218TIP3   OH2 9659   2.427   0.439   3.658  0.3940 -0.1643 -0.2578
 3218TIP3    H1 9660   2.434   0.527   3.692  0.9713  1.1661 -3.4379
 3218TIP3    H2 9661   2.511   0.398   3.678  0.8231  0.6527 -0.3619
 3219TIP3   OH2 9662   0.086   2.224   0.360  0.4528  0.3874  0.2995
 3219TIP3    H1 9663   0.076   2.303   0.413 -2.2283  0.2403  0.1408
 3219TIP3    H2 9664   0.070   2.152   0.422  1.2820  0.0245  0.1026
 3220TIP3   OH2 9665   5.324   4.534   1.028  0.1569  0.4704  0.0116
 3220TIP3    H1 9666   5.398   4.552   0.970 -0.1640  1.5513 -0.0916
 3220TIP3    H2 9667   5.266   4.610   1.017 -0.1271  0.4869  1.4091
 3221TIP3   OH2 9668   4.020   1.519   1.473 -0.5502 -0.2341 -0.8115
 3221TIP3    H1 9669   4.095   1.460   1.475 -0.0665  0.3987  0.3069
 3221TIP3    H2 9670   4.012   1.551   1.563 -1.4473  0.6018 -1.1731
 3222TIP3   OH2 9671   2.202   2.814   2.887 -0.2141 -0.1185  0.2594
 3222TIP3    H1 9672   2.227   2.856   2.969  1.9301  0.3879 -0.5871
 3222TIP3    H2 9673   2.167   2.885   2.833  1.5890  0.2515 -0.4688
 3223TIP3   OH2 9674   0.015   3.690   0.412  0.0520 -0.1002 -0.1825
 3223TIP3    H1 9675   0.044   3.605   0.378  1.1802  0.7781 -1.5518
 3223TIP3    H2 9676   0.093   3.726   0.456 -0.4298  0.2137  0.4327
 3224TIP3   OH2 9677   2.479   1.075   1.398 -0.1008 -0.0087 -0.4476
 3224TIP3    H1 9678   2.518   0.989   1.386  3.1895  1.5134 -2.2249
 3224TIP3    H2 9679   2.481   1.115   1.311  1.4744  2.8930  0.7479
 3225TIP3   OH2 9680   2.357   2.940   2.573 -0.2128 -0.3811  0.7324
 3225TIP3    H1 9681   2.444   2.908   2.594 -0.3854 -0.4527  1.3740
 3225TIP3    H2 9682   2.317   2.870   2.521 -0.2488 -0.8026  1.3127
 3226TIP3   OH2 9683   6.341   0.356   5.122  0.0067 -0.1164  0.0904
 3226TIP3    H1 9684   6.378   0.443   5.108  3.1457 -1.5350 -1.6665
 3226TIP3    H2 9685   6.289   0.339   5.044  0.6131 -0.3269 -0.2776
 3227TIP3   OH2 9686   1.321   0.607   5.041  0.8246  0.3931 -0.3169
 3227TIP3    H1 9687   1.295   0.699   5.039 -0.2621  0.0968 -1.1568
 3227TIP3    H2 9688   1.238   0.559   5.031  1.3614 -0.6753  0.2266
 3228TIP3   OH2 9689   4.375   0.575   1.919  0.4134  0.4755 -0.6090
 3228TIP3    H1 9690   4.298   0.581   1.864  0.0153 -0.1610 -0.1327
 3228TIP3    H2 9691   4.383   0.482   1.940  0.8264  0.6415  0.0176
 3229TIP3   OH2 9692   5.419   3.000   1.256 -0.5830  0.0038  0.4657
 3229TIP3    H1 9693   5.443   3.091   1.271 -0.6856 -0.1256  1.4984
 3229TIP3    H2 9694   5.502   2.952   1.262 -0.8347 -0.2466  2.3762
 3230TIP3   OH2 9695   5.633   2.587   0.476  0.2203  0.3581 -0.1847
 3230TIP3    H1 9696   5.617   2.637   0.396  0.1687  0.5829 -0.0353
 3230TIP3    H2 9697   5.650   2.654   0.542 -1.3550  0.2652  0.3643
 3231TIP3   OH2 9698   0.250   2.138   2.704 -0.0837 -0.0957 -0.4090
 3231TIP3    H1 9699   0.174   2.082   2.719 -0.2455  0.3033  0.2836
 3231TIP3    H2 9700   0.280   2.163   2.791  0.8322 -0.2256 -0.6679
 3232TIP3   OH2 9701   5.883   4.870   5.052  0.1118  0.1241 -0.4308
 3232TIP3    H1 9702   5.858   4.839   5.139  0.6220 -1.1631 -0.7241
 3232TIP3    H2 9703   5.961   4.924   5.067  1.6071 -1.9735 -0.2943
 3233TIP3   OH2 9704   1.698   3.966   1.444  0.1676 -0.0509  0.1111
 3233TIP3    H1 9705   1.685   4.006   1.358 -0.4605  0.8833  0.6264
 3233TIP3    H2 9706   1.643   3.887   1.441 -1.8994  1.3003  0.5164
 3234TIP3   OH2 9707   5.138   5.938   4.297  0.1643 -0.0381  0.1960
 3234TIP3    H1 9708   5.067   6.002   4.282  0.7294  0.9642  1.5878
 3234TIP3    H2 9709   5.174   5.922   4.210 -1.6355 -0.4303 -0.5215
 3235TIP3   OH2 9710   6.065   0.204   4.154 -0.2314  0.1725 -0.1207
 3235TIP3    H1 9711   6.063   0.182   4.247  2.1425 -0.9388 -0.2648
 3235TIP3    H2 9712   6.085   0.121   4.110  2.2017  1.2645 -1.2811
 3236TIP3   OH2 9713   3.650   5.170   1.855  0.6521  0.1826  0.2844
 3236TIP3    H1 9714   3.623   5.124   1.934  0.0670  2.6335  1.5846
 3236TIP3    H2 9715   3.573   5.219   1.828  1.1086  0.0759 -1.3223
 3237TIP3   OH2 9716   5.182   0.402   1.110 -0.3983 -0.1735  0.2333
 3237TIP3    H1 9717   5.226   0.433   1.188  0.1652 -0.4080  0.0122
 3237TIP3    H2 9718   5.249   0.354   1.062 -0.9274 -0.6495 -0.0404
 3238TIP3   OH2 9719   5.527   5.758   1.172  0.0567 -0.7173  0.2967
 3238TIP3    H1 9720   5.547   5.667   1.150 -0.4820 -1.1011  1.3160
 3238TIP3    H2 9721   5.612   5.801   1.178  0.4855 -1.6787  1.8905
 3239TIP3   OH2 9722   5.304   2.850   4.956  0.4129 -0.1517  0.6581
 3239TIP3    H1 9723   5.360   2.774   4.940  0.6393 -0.0694  1.0425
 3239TIP3    H2 9724   5.346   2.896   5.028 -0.2915 -0.2298  1.1320
 3240TIP3   OH2 9725   0.099   1.206   0.880  0.2517 -0.0574  0.8638
 3240TIP3    H1 9726   0.041   1.130   0.879  0.4176 -0.2615  2.5432
 3240TIP3    H2 9727   0.045   1.278   0.850 -0.4788 -0.4958  1.1050
 3241TIP3   OH2 9728   2.073   3.160   4.263  0.4687 -0.4451 -0.1951
 3241TIP3    H1 9729   2.092   3.129   4.352 -1.5773  1.7852  1.1624
 3241TIP3    H2 9730   1.998   3.107   4.235 -1.4620  1.3571  1.1502
 3242TIP3   OH2 9731   1.155   1.204   2.546 -1.0906  0.0559  0.6083
 3242TIP3    H1 9732   1.125   1.203   2.455  3.5964 -0.3907 -1.2213
 3242TIP3    H2 9733   1.120   1.123   2.584  0.9030 -2.5665 -2.5842
 3243TIP3   OH2 9734   1.687   3.140   5.145 -0.0052  0.4626  0.2574
 3243TIP3    H1 9735   1.614   3.111   5.199 -0.3575  1.6548  0.4331
 3243TIP3    H2 9736   1.690   3.076   5.074 -0.3412 -0.3817  0.9817
 3244TIP3   OH2 9737   2.842   5.239   1.154  0.1537  0.2538 -0.3883
 3244TIP3    H1 9738   2.874   5.329   1.149 -2.0507  1.0830 -0.6409
 3244TIP3    H2 9739   2.819   5.217   1.064 -0.3242 -0.1577 -0.1715
 3245TIP3   OH2 9740   0.066   2.646   1.341  1.1584  0.5644  0.6036
 3245TIP3    H1 9741   0.009   2.650   1.264 -1.3047  0.7599  2.3021
 3245TIP3    H2 9742   0.101   2.557   1.340  0.0840  0.1254 -0.0299
 3246TIP3   OH2 9743   3.240   2.947   4.927 -0.1974 -0.4470  0.1898
 3246TIP3    H1 9744   3.203   2.861   4.946 -0.1008 -0.3986  0.6253
 3246TIP3    H2 9745   3.186   3.008   4.978  0.2447 -0.3376  0.5335
 3247TIP3   OH2 9746   5.065   3.524   4.141 -0.5127  0.1396  0.1885
 3247TIP3    H1 9747   4.988   3.581   4.151 -1.2715 -0.7701 -0.2977
 3247TIP3    H2 9748   5.086   3.528   4.048  0.7919  1.3142  0.5021
 3248TIP3   OH2 9749   0.585   5.227   2.759 -0.1336 -0.5746 -0.1383
 3248TIP3    H1 9750   0.656   5.231   2.695 -1.2498 -1.1944 -1.4678
 3248TIP3    H2 9751   0.619   5.275   2.835  0.6399  1.6794 -1.7691
 3249TIP3   OH2 9752   0.950   5.274   2.353 -0.3770 -0.2510 -0.7195
 3249TIP3    H1 9753   0.898   5.202   2.316 -0.8278 -0.9486  1.1896
 3249TIP3    H2 9754   1.038   5.259   2.318 -0.0116 -2.8496  0.9861
 3250TIP3   OH2 9755   2.265   4.483   3.923 -0.9127 -0.0473 -0.1903
 3250TIP3    H1 9756   2.357   4.499   3.942 -0.5458 -0.3075 -1.6488
 3250TIP3    H2 9757   2.244   4.543   3.851 -1.8450 -0.1118  0.0051
 3251TIP3   OH2 9758   4.073   1.898   0.513 -0.2390  0.2699  0.2989
 3251TIP3    H1 9759   4.090   1.864   0.425 -0.5666  3.0522 -0.9775
 3251TIP3    H2 9760   4.002   1.844   0.547 -0.7867 -0.2637 -1.5652
 3252TIP3   OH2 9761   2.293   2.588   2.800 -0.2794  0.0869 -0.6884
 3252TIP3    H1 9762   2.204   2.555   2.787  0.0842 -0.4408 -1.9425
 3252TIP3    H2 9763   2.282   2.665   2.856 -1.0712 -2.6640  3.4112
 3253TIP3   OH2 9764   3.213   0.193   1.654 -0.2851 -0.4940  0.5290
 3253TIP3    H1 9765   3.203   0.120   1.592  0.1242 -1.0223  1.0774
 3253TIP3    H2 9766   3.230   0.151   1.738  4.9438  0.1002  0.1197
 3254TIP3   OH2 9767   0.975   1.936   4.590 -0.1492  0.4580 -0.3491
 3254TIP3    H1 9768   1.044   1.869   4.589  1.9210  2.4869 -0.7475
 3254TIP3    H2 9769   0.972   1.966   4.680  0.9071  1.7184 -0.7121
 3255TIP3   OH2 9770   2.937   0.074   0.165  0.1662  0.1317  0.2643
 3255TIP3    H1 9771   2.859   0.020   0.156  1.2132 -1.2993 -0.6976
 3255TIP3    H2 9772   2.923   0.146   0.103 -0.2411 -0.3131 -0.1734
 3256TIP3   OH2 9773   0.868   2.392   0.080 -0.2699 -0.2578  0.1267
 3256TIP3    H1 9774   0.902   2.325   0.020  0.9503  0.0466  0.4398
 3256TIP3    H2 9775   0.783   2.358   0.109 -0.9027 -0.3880 -1.7761
 3257TIP3   OH2 9776   2.403   0.620   3.095 -0.5220  0.1013  0.2420
 3257TIP3    H1 9777   2.406   0.707   3.136 -1.2526  1.0064 -1.5355
 3257TIP3    H2 9778   2.478   0.619   3.036 -0.3889 -0.5898  0.4115
 3258TIP3   OH2 9779   0.340   0.516   1.695  0.2775  0.3801  0.2688
 3258TIP3    H1 9780   0.412   0.501   1.757  0.5584 -1.1436 -0.3842
 3258TIP3    H2 9781   0.379   0.566   1.624  0.1036  1.5852  0.9847
 3259TIP3   OH2 9782   0.380   5.497   2.631 -0.0205  0.2900 -0.2892
 3259TIP3    H1 9783   0.427   5.534   2.705  2.2201 -2.8269  0.0895
 3259TIP3    H2 9784   0.361   5.571   2.574  0.1781  2.4842  2.3341
 3260TIP3   OH2 9785   0.320   3.103   3.166 -0.0730  0.1470 -0.0839
 3260TIP3    H1 9786   0.330   3.079   3.074  1.5568  0.9638 -0.1527
 3260TIP3    H2 9787   0.344   3.196   3.169 -0.3566  0.1937  1.1190
 3261TIP3   OH2 9788   2.440   4.809   3.552  0.4840  0.1502  0.2283
 3261TIP3    H1 9789   2.516   4.753   3.535 -0.6959 -1.2720 -0.5438
 3261TIP3    H2 9790   2.441   4.873   3.480 -0.0095 -0.9579 -0.7957
 3262TIP3   OH2 9791   4.796   3.099   4.739  0.4409  0.1878 -0.5010
 3262TIP3    H1 9792   4.737   3.173   4.728  0.4058 -0.1209 -2.8282
 3262TIP3    H2 9793   4.741   3.030   4.776 -0.0673  0.6122 -0.4515
 3263TIP3   OH2 9794   0.096   4.253   4.458  0.5088  0.3982 -0.3941
 3263TIP3    H1 9795   0.087   4.232   4.365 -1.3682 -1.2475  0.0917
 3263TIP3    H2 9796   0.010   4.286   4.484  0.8757  0.4383  0.8356
 3264TIP3   OH2 9797   5.787   5.081   4.457 -0.8422  0.2129  0.3349
 3264TIP3    H1 9798   5.818   4.992   4.470  0.7440  0.9737  2.4597
 3264TIP3    H2 9799   5.753   5.107   4.543 -0.9235  1.7481 -0.1233
 3265TIP3   OH2 9800   1.201   5.243   1.933 -0.0344 -0.8184 -0.2181
 3265TIP3    H1 9801   1.233   5.185   2.002  2.9513  1.3674  0.4182
 3265TIP3    H2 9802   1.271   5.242   1.867 -0.2284  1.4426 -0.5213
 3266TIP3   OH2 9803   1.506   5.070   1.122  0.2437 -0.0634 -0.6283
 3266TIP3    H1 9804   1.587   5.023   1.141  0.4308 -0.5243 -2.3851
 3266TIP3    H2 9805   1.526   5.121   1.044 -0.3824  1.9161  0.4367
 3267TIP3   OH2 9806   5.703   0.573   1.521 -0.4295  0.2896  0.0301
 3267TIP3    H1 9807   5.773   0.610   1.574 -0.3148 -1.0288  0.8180
 3267TIP3    H2 9808   5.623   0.593   1.569 -0.1983 -2.6124  1.8357
 3268TIP3   OH2 9809   1.277   0.437   0.393 -0.0465  0.3303 -0.4609
 3268TIP3    H1 9810   1.363   0.460   0.430 -1.0298  0.2938  2.0188
 3268TIP3    H2 9811   1.244   0.520   0.358  0.6404  0.5195 -0.6877
 3269TIP3   OH2 9812   5.095   4.636   0.747 -0.4198  0.0223  0.0411
 3269TIP3    H1 9813   5.116   4.621   0.839 -1.3092  0.0408  0.2569
 3269TIP3    H2 9814   5.084   4.731   0.740 -0.4186  0.0144 -0.0699
 3270TIP3   OH2 9815   0.405   3.843   0.163 -0.1689  0.2959  0.0065
 3270TIP3    H1 9816   0.317   3.843   0.200  0.4865 -0.8521  1.7054
 3270TIP3    H2 9817   0.407   3.768   0.105 -0.8002  1.3275 -1.3932
 3271TIP3   OH2 9818   4.073   3.004   3.690 -0.0458  0.3373  0.4076
 3271TIP3    H1 9819   4.012   2.988   3.618 -1.3373  0.9243  1.3256
 3271TIP3    H2 9820   4.018   3.004   3.768  1.3809 -0.6706  1.4542
 3272TIP3   OH2 9821   3.243   2.727   3.988  0.0008  0.4231  0.1848
 3272TIP3    H1 9822   3.262   2.636   3.966 -0.9466  0.4591 -0.8833
 3272TIP3    H2 9823   3.152   2.725   4.018 -0.3218  1.1414 -0.7194
 3273TIP3   OH2 9824   1.325   1.815   2.579 -0.2390 -0.0578  0.1496
 3273TIP3    H1 9825   1.400   1.855   2.623 -0.3940  0.7678 -0.3095
 3273TIP3    H2 9826   1.287   1.757   2.645  0.3746  0.0631  0.6240
 3274TIP3   OH2 9827   2.091   5.241   2.389 -0.1747 -0.3729  0.1958
 3274TIP3    H1 9828   2.080   5.317   2.333  0.6886  0.0763  0.6112
 3274TIP3    H2 9829   2.010   5.190   2.378 -0.3969  0.1729 -0.7249
 3275TIP3   OH2 9830   6.005   3.421   2.768 -0.2231 -0.1652 -0.2179
 3275TIP3    H1 9831   6.039   3.503   2.804 -2.8367  0.7210  0.4608
 3275TIP3    H2 9832   5.957   3.447   2.690 -0.3048 -1.1801 -0.5206
 3276TIP3   OH2 9833   2.967   5.251   4.733 -0.0926  0.1991 -0.2161
 3276TIP3    H1 9834   2.994   5.284   4.647 -2.0414 -0.2237 -1.0404
 3276TIP3    H2 9835   2.919   5.323   4.773  0.4263  0.2381  0.3524
 3277TIP3   OH2 9836   5.563   4.565   0.879  0.4145 -0.1296 -0.4116
 3277TIP3    H1 9837   5.636   4.609   0.835 -0.1652 -0.0513 -1.3181
 3277TIP3    H2 9838   5.599   4.482   0.910  1.3191  0.6139  0.6248
 3278TIP3   OH2 9839   0.250   5.843   5.048  0.1192  0.7547  0.4039
 3278TIP3    H1 9840   0.158   5.842   5.073  0.3548  2.1581  1.4493
 3278TIP3    H2 9841   0.264   5.929   5.009  1.0055  0.5988  0.3416
 3279TIP3   OH2 9842   0.818   2.160   4.535 -0.0808 -0.0157  0.4421
 3279TIP3    H1 9843   0.837   2.070   4.509 -0.4852  0.4626 -1.6987
 3279TIP3    H2 9844   0.866   2.172   4.617 -0.5565 -2.3653  1.1458
 3280TIP3   OH2 9845   2.085   2.307   2.987  0.0035 -0.0529 -0.4574
 3280TIP3    H1 9846   2.170   2.344   3.008 -0.1317 -0.6102  1.2500
 3280TIP3    H2 9847   2.102   2.216   2.965 -0.2991 -0.7124  1.8205
 3281TIP3   OH2 9848   4.920   5.455   0.134 -0.2793 -0.4084  0.4292
 3281TIP3    H1 9849   4.880   5.514   0.198 -0.0918 -0.4581  0.5969
 3281TIP3    H2 9850   4.935   5.374   0.183 -1.2704 -0.8757 -0.0205
 3282TIP3   OH2 9851   0.276   3.376   2.211 -0.5463  0.2353 -0.2936
 3282TIP3    H1 9852   0.335   3.375   2.286  1.3046 -0.8986 -1.6709
 3282TIP3    H2 9853   0.270   3.285   2.184  1.0324  0.8360 -3.0880
 3283TIP3   OH2 9854   5.110   2.275   1.494 -0.4741 -1.3779  0.0474
 3283TIP3    H1 9855   5.126   2.336   1.566 -0.6280 -0.9211 -0.2968
 3283TIP3    H2 9856   5.015   2.279   1.480 -0.2943 -0.4673 -1.0337
 3284TIP3   OH2 9857   6.287   1.399   0.769 -0.1300  0.4507  0.3555
 3284TIP3    H1 9858   6.212   1.429   0.821 -0.0351  2.0576 -0.3961
 3284TIP3    H2 9859   6.278   1.444   0.685  2.3250  1.6299  0.6410
 3285TIP3   OH2 9860   3.409   4.653   0.536  0.5863  0.3588  0.4772
 3285TIP3    H1 9861   3.480   4.716   0.552  2.0878 -1.1719  0.0764
 3285TIP3    H2 9862   3.342   4.704   0.489  1.1562  1.9782  1.3572
 3286TIP3   OH2 9863   2.512   4.746   3.218 -0.5056  0.1300  0.5171
 3286TIP3    H1 9864   2.536   4.757   3.126 -1.5578  0.0527  0.2194
 3286TIP3    H2 9865   2.586   4.780   3.267 -0.0880  0.5049 -0.3659
 3287TIP3   OH2 9866   4.836   0.644   0.443 -0.2968  0.0211 -0.2356
 3287TIP3    H1 9867   4.814   0.714   0.504  0.1460  0.3637 -0.4674
 3287TIP3    H2 9868   4.886   0.582   0.495 -1.3201 -0.4967  0.1580
 3288TIP3   OH2 9869   1.221   4.897   1.347  0.1844  0.4980  0.1650
 3288TIP3    H1 9870   1.146   4.898   1.407  0.9155 -0.3664  1.1260
 3288TIP3    H2 9871   1.283   4.836   1.387  0.8681  0.1985 -1.2841
 3289TIP3   OH2 9872   0.499   1.952   3.105 -0.5181  0.2457  0.4646
 3289TIP3    H1 9873   0.566   1.913   3.049 -0.2518 -1.5302  1.9375
 3289TIP3    H2 9874   0.430   1.979   3.045  0.7912  0.6672 -0.9292
 3290TIP3   OH2 9875   5.690   0.269   0.425  0.6224 -0.6951 -0.1788
 3290TIP3    H1 9876   5.625   0.306   0.365  0.5513 -3.0507 -1.6994
 3290TIP3    H2 9877   5.737   0.345   0.460 -1.5369  0.9471 -0.6548
 3291TIP3   OH2 9878   6.039   4.894   3.546 -0.1250 -0.3999 -0.1594
 3291TIP3    H1 9879   6.036   4.989   3.542  0.4003 -0.2179  2.2891
 3291TIP3    H2 9880   6.113   4.869   3.491  1.2413  0.8096  1.0748
 3292TIP3   OH2 9881   3.228   0.729   3.760  0.0403 -0.0600 -0.0383
 3292TIP3    H1 9882   3.294   0.781   3.806 -0.8732  1.2683 -0.1373
 3292TIP3    H2 9883   3.277   0.665   3.710  1.1013 -1.0819  2.1969
 3293TIP3   OH2 9884   0.688   0.962   4.653 -0.5444 -0.4399  0.2628
 3293TIP3    H1 9885   0.686   1.035   4.590  1.4847 -1.6036 -1.2471
 3293TIP3    H2 9886   0.701   1.005   4.737 -0.5691  1.0197 -0.4294
 3294TIP3   OH2 9887   4.566   1.271   2.566  0.0171  0.1356 -0.8947
 3294TIP3    H1 9888   4.509   1.346   2.584 -0.9119 -0.9001  0.7268
 3294TIP3    H2 9889   4.652   1.299   2.599 -0.1140  0.7935 -1.0875
 3295TIP3   OH2 9890   1.054   0.498   3.417  1.1635  0.9310  0.4401
 3295TIP3    H1 9891   0.979   0.557   3.410 -0.8883 -1.5056  0.7182
 3295TIP3    H2 9892   1.066   0.484   3.511 -0.7716 -1.8483  0.3717
 3296TIP3   OH2 9893   2.246   1.622   1.204  0.5041 -0.2423  0.1246
 3296TIP3    H1 9894   2.176   1.685   1.186  0.5851 -0.6632 -1.8273
 3296TIP3    H2 9895   2.282   1.600   1.118  0.8194 -2.5597  0.7737
 3297TIP3   OH2 9896   5.696   1.354   1.056  0.2856  0.4833  0.3500
 3297TIP3    H1 9897   5.640   1.394   0.990  0.9110  1.7633  0.5715
 3297TIP3    H2 9898   5.737   1.428   1.101  2.9220 -0.4025 -0.4527
 3298TIP3   OH2 9899   0.600   5.444   0.487 -0.4292 -0.2375 -0.2657
 3298TIP3    H1 9900   0.659   5.369   0.492 -0.6746 -0.3708  1.0796
 3298TIP3    H2 9901   0.620   5.485   0.404  2.9555  0.8470  0.9239
 3299TIP3   OH2 9902   2.765   0.859   0.659 -0.0977 -0.7461 -0.2554
 3299TIP3    H1 9903   2.845   0.807   0.660  0.4067  0.0121 -0.3276
 3299TIP3    H2 9904   2.703   0.808   0.607  0.9836 -0.4055 -1.9403
 3300TIP3   OH2 9905   4.570   3.718   0.837  0.1563  0.3589 -1.0384
 3300TIP3    H1 9906   4.624   3.772   0.895 -1.5331  1.4623 -0.4311
 3300TIP3    H2 9907   4.627   3.700   0.762  1.3332  1.5604 -0.4786
 3301TIP3   OH2 9908   2.183   1.317   0.509 -0.0304 -0.3385  0.3429
 3301TIP3    H1 9909   2.212   1.331   0.419 -3.7653 -1.4086 -1.2270
 3301TIP3    H2 9910   2.160   1.404   0.540  0.3171 -0.0838 -0.0989
 3302TIP3   OH2 9911   0.445   3.576   2.838  0.2498  0.0165  0.1997
 3302TIP3    H1 9912   0.496   3.501   2.869  2.3255  2.5561  3.5804
 3302TIP3    H2 9913   0.361   3.538   2.812  1.3404 -3.5122  1.2547
 3303TIP3   OH2 9914   3.258   5.567   2.774  0.2696 -0.3070  0.7336
 3303TIP3    H1 9915   3.266   5.505   2.702 -1.6749  0.5491 -0.2997
 3303TIP3    H2 9916   3.164   5.577   2.787  0.5592  0.9507  2.1780
 3304TIP3   OH2 9917   3.806   5.320   1.715 -0.3855 -0.4104 -0.0436
 3304TIP3    H1 9918   3.778   5.237   1.754 -0.0034 -1.4864 -1.9255
 3304TIP3    H2 9919   3.726   5.355   1.675 -0.9961  1.1629  2.3650
 3305TIP3   OH2 9920   5.068   5.560   3.739 -0.0831  0.1221  0.0255
 3305TIP3    H1 9921   5.008   5.485   3.730 -0.1256 -0.1479  2.1254
 3305TIP3    H2 9922   5.150   5.530   3.698 -0.7161 -0.2866 -0.9826
 3306TIP3   OH2 9923   0.139   4.672   0.390 -0.3391 -0.0175  0.3695
 3306TIP3    H1 9924   0.208   4.616   0.425  0.9210  1.6649  0.7028
 3306TIP3    H2 9925   0.082   4.690   0.465 -1.5616 -1.8818 -0.0301
 3307TIP3   OH2 9926   5.073   1.537   1.556  0.6196  0.0637 -0.0621
 3307TIP3    H1 9927   5.133   1.584   1.498  1.2210  0.0159  0.5131
 3307TIP3    H2 9928   5.088   1.444   1.536  0.6886  0.0548  0.0284
 3308TIP3   OH2 9929   3.626   4.093   3.680 -0.1243 -0.5879 -0.1375
 3308TIP3    H1 9930   3.579   4.175   3.664 -0.8300 -1.0575 -0.5097
 3308TIP3    H2 9931   3.661   4.103   3.769 -1.4187 -0.4511  0.3854
 3309TIP3   OH2 9932   4.842   5.926   4.447 -0.2500  0.4244  0.4495
 3309TIP3    H1 9933   4.896   5.992   4.405  0.0679 -0.0192  0.1478
 3309TIP3    H2 9934   4.754   5.962   4.446  0.1444  1.4769  1.5985
 3310TIP3   OH2 9935   5.271   4.776   4.632  0.0119 -0.2821  0.1981
 3310TIP3    H1 9936   5.358   4.771   4.671 -0.3031  0.5343  1.0203
 3310TIP3    H2 9937   5.224   4.842   4.683 -0.8677 -0.1921 -0.6780
 3311TIP3   OH2 9938   4.420   4.140   3.968  0.2316  0.0040 -0.5670
 3311TIP3    H1 9939   4.332   4.165   3.995  0.3984  2.9715 -2.2816
 3311TIP3    H2 9940   4.474   4.152   4.046 -0.6691 -0.5817  0.1555
 3312TIP3   OH2 9941   4.815   4.393   2.385  0.5847  0.7067 -0.5345
 3312TIP3    H1 9942   4.745   4.348   2.433  0.4850  0.7222 -0.6664
 3312TIP3    H2 9943   4.773   4.422   2.304  0.6500  1.0241 -0.4562
 3313TIP3   OH2 9944   5.734   0.543   0.886  0.2744 -0.2883  0.3526
 3313TIP3    H1 9945   5.645   0.571   0.909  1.1340  1.0401  2.3436
 3313TIP3    H2 9946   5.745   0.458   0.930  0.1853 -0.1661  0.6135
 3314TIP3   OH2 9947   4.708   3.355   4.414 -0.4698 -0.1759 -0.2096
 3314TIP3    H1 9948   4.800   3.379   4.428  0.1461 -1.5744 -1.5898
 3314TIP3    H2 9949   4.663   3.439   4.406  1.0100  0.5639 -1.2997
 3315TIP3   OH2 9950   5.551   2.730   0.212 -0.1992  0.6050  0.0001
 3315TIP3    H1 9951   5.578   2.813   0.250  0.6264  0.7074 -0.7649
 3315TIP3    H2 9952   5.460   2.720   0.237 -0.4494  1.9807 -0.3085
 3316TIP3   OH2 9953   0.922   0.335   4.270  0.7022  0.4119  0.2943
 3316TIP3    H1 9954   0.955   0.351   4.182 -0.1637  0.7989  0.0281
 3316TIP3    H2 9955   0.893   0.421   4.301  1.5564  0.3971  1.2054
 3317TIP3   OH2 9956   2.202   0.679   4.357  0.2161 -0.1077 -0.3818
 3317TIP3    H1 9957   2.202   0.617   4.284  0.1122 -1.7845  0.9887
 3317TIP3    H2 9958   2.295   0.695   4.376  0.2512  0.8107 -1.2289
 3318TIP3   OH2 9959   6.239   3.914   2.649 -0.1443  0.1548  0.1247
 3318TIP3    H1 9960   6.221   3.967   2.572 -1.5239 -0.4860 -0.0252
 3318TIP3    H2 9961   6.330   3.884   2.638 -0.6558 -0.8533 -1.8279
 3319TIP3   OH2 9962   6.048   2.592   3.497  0.3974  0.3482  0.3272
 3319TIP3    H1 9963   6.109   2.532   3.455  1.0824  0.9789  0.3918
 3319TIP3    H2 9964   6.001   2.634   3.425  1.6105  1.4716  0.1495
 3320TIP3   OH2 9965   2.734   4.061   5.080 -0.0374  0.0741  0.6020
 3320TIP3    H1 9966   2.804   4.014   5.034  1.5152  2.1898  0.6630
 3320TIP3    H2 9967   2.775   4.090   5.162 -0.9414  1.4541  0.5893
 3321TIP3   OH2 9968   0.618   4.000   0.119 -0.2813 -0.6192  0.1836
 3321TIP3    H1 9969   0.611   4.026   0.027  0.3981 -0.6009  0.1330
 3321TIP3    H2 9970   0.534   3.957   0.138 -0.7266  0.0451 -0.2241
 3322TIP3   OH2 9971   4.826   3.868   4.012  0.6050 -0.6503  0.4492
 3322TIP3    H1 9972   4.854   3.943   4.063 -0.2293 -0.7644  1.1140
 3322TIP3    H2 9973   4.759   3.902   3.953 -1.0259 -1.1274  1.9305
 3323TIP3   OH2 9974   6.198   0.254   4.880  0.2508 -0.0692 -0.2579
 3323TIP3    H1 9975   6.269   0.192   4.894 -0.6815 -0.9633  0.7820
 3323TIP3    H2 9976   6.122   0.199   4.861 -0.5626  0.7657  0.4904
 3324TIP3   OH2 9977   4.861   3.676   3.786 -0.2711  0.0553  0.1176
 3324TIP3    H1 9978   4.924   3.686   3.857 -1.7623 -0.8631  1.6202
 3324TIP3    H2 9979   4.776   3.667   3.829 -1.2405 -0.4631 -1.7830
 3325TIP3   OH2 9980   0.149   5.537   2.349 -0.1212 -0.6180 -0.2712
 3325TIP3    H1 9981   0.181   5.627   2.352 -0.6074 -0.4444 -0.1745
 3325TIP3    H2 9982   0.106   5.529   2.264 -1.1744 -0.3692  0.2226
 3326TIP3   OH2 9983   0.985   0.374   2.942 -0.1987 -0.4534 -0.4131
 3326TIP3    H1 9984   1.055   0.395   2.881  0.6151 -1.7830  0.0113
 3326TIP3    H2 9985   0.981   0.448   3.001  0.2121  0.0564 -1.0116
 3327TIP3   OH2 9986   5.163   0.186   0.276  0.3455 -0.2533  0.7634
 3327TIP3    H1 9987   5.202   0.273   0.287 -1.4825  0.5493  1.1279
 3327TIP3    H2 9988   5.129   0.186   0.186 -0.4604 -0.2447  1.0634
 3328TIP3   OH2 9989   5.864   5.298   4.263  0.1259 -0.2713 -0.4342
 3328TIP3    H1 9990   5.833   5.259   4.345  0.7882 -1.3826 -0.6866
 3328TIP3    H2 9991   5.958   5.281   4.262  0.2487  0.4073 -1.0675
 3329TIP3   OH2 9992   3.610   4.945   1.052  0.4612  0.3554 -0.7974
 3329TIP3    H1 9993   3.529   4.955   1.002 -0.4109 -0.6294  0.3675
 3329TIP3    H2 9994   3.608   5.016   1.116  0.6690  0.5052 -0.9552
 3330TIP3   OH2 9995   6.330   0.464   4.455  0.1161 -0.1568  0.0608
 3330TIP3    H1 9996   6.330   0.437   4.547 -0.1713  1.8005  0.6790
 3330TIP3    H2 9997   6.240   0.450   4.427  0.6875 -3.0524 -0.7305
 3331TIP3   OH2 9998   1.686   0.430   4.906 -0.6866 -0.5600  0.4223
 3331TIP3    H1 9999   1.743   0.369   4.861  0.2825  0.3671  0.3614
 3331TIP3    H210000   1.723   0.516   4.888 -2.2730  0.1019  0.1406
 3332TIP3   OH210001   1.766   1.281   2.580  0.1920  0.7541  0.1690
 3332TIP3    H110002   1.848   1.310   2.621  1.3174 -0.8873 -0.8214
 3332TIP3    H210003   1.741   1.354   2.524  2.1657  0.4840 -1.1605
 3333TIP3   OH210004   4.896   2.629   1.605  0.1394 -0.2720  0.2493
 3333TIP3    H110005   4.858   2.689   1.541 -1.2475  0.1954  1.4406
 3333TIP3    H210006   4.873   2.668   1.690  2.4004 -0.5563  1.0574
 3334TIP3   OH210007   0.865   3.315   3.638 -0.5161  0.7747 -0.1420
 3334TIP3    H110008   0.827   3.395   3.675 -0.2301  1.1310 -0.6050
 3334TIP3    H210009   0.822   3.244   3.685 -0.7000  1.2025  0.3483
 3335TIP3   OH210010   2.319   3.516   3.020 -0.3568 -0.2057  0.0135
 3335TIP3    H110011   2.395   3.548   3.069 -1.1191  1.1768  0.3696
 3335TIP3    H210012   2.355   3.489   2.935  0.3663  2.0848 -0.5068
 3336TIP3   OH210013   4.094   2.947   1.593 -0.3443  0.1537 -1.1107
 3336TIP3    H110014   4.047   2.923   1.512  0.2390 -1.9886 -0.8774
 3336TIP3    H210015   4.167   3.000   1.563 -1.4713  1.4357 -1.7198
 3337TIP3   OH210016   6.070   4.797   4.354  0.1710  0.0606  0.0668
 3337TIP3    H110017   6.148   4.741   4.348  1.0322  1.3325 -1.5090
 3337TIP3    H210018   6.105   4.884   4.375 -0.6515  0.9359 -1.9452
 3338TIP3   OH210019   4.964   2.928   0.668 -0.2058  0.4572  0.1977
 3338TIP3    H110020   4.873   2.943   0.694 -0.7263 -2.3183  0.2106
 3338TIP3    H210021   4.999   2.870   0.736  1.0618  0.0775 -0.7418
 3339TIP3   OH210022   1.921   2.841   0.793  0.4718  0.3325 -0.4860
 3339TIP3    H110023   1.918   2.750   0.823  3.5678  0.6943  1.2364
 3339TIP3    H210024   1.870   2.889   0.858 -0.9342 -0.0656 -1.2470
 3340TIP3   OH210025   2.808   1.022   4.407 -0.6666 -0.2384 -0.1810
 3340TIP3    H110026   2.780   0.948   4.460  0.1980  0.4146  1.2257
 3340TIP3    H210027   2.894   0.998   4.374 -1.4779 -0.9383 -1.9480
 3341TIP3   OH210028   5.977   2.126   3.324  0.2276  0.6243  0.1059
 3341TIP3    H110029   5.925   2.097   3.399  1.6691  0.3924  1.0735
 3341TIP3    H210030   5.919   2.116   3.249 -0.2216 -2.3696  0.7242
 3342TIP3   OH210031   6.193   1.833   0.959  0.1927  0.5522  0.2774
 3342TIP3    H110032   6.269   1.775   0.963 -1.6065 -1.9115  1.5413
 3342TIP3    H210033   6.182   1.864   1.048  0.9159  2.6857 -0.3155
 3343TIP3   OH210034   1.566   2.649   0.785  0.2731 -0.0020  0.4520
 3343TIP3    H110035   1.599   2.560   0.801  1.4523  0.2462 -0.4468
 3343TIP3    H210036   1.574   2.660   0.690 -3.1583 -0.1787  0.0039
 3344TIP3   OH210037   3.080   4.889   4.825 -0.1719 -0.0890 -0.4257
 3344TIP3    H110038   3.036   4.906   4.742 -0.7770  1.4894  0.1769
 3344TIP3    H210039   3.023   4.930   4.891  0.5683 -0.8324  0.7072
 3345TIP3   OH210040   5.217   5.309   0.910 -0.1434 -0.4343  0.6297
 3345TIP3    H110041   5.140   5.307   0.853  1.1231 -1.3544 -1.1440
 3345TIP3    H210042   5.243   5.401   0.911  0.5072 -0.5331 -1.3675
 3346TIP3   OH210043   3.339   2.831   0.644 -0.0124  0.1783  0.2165
 3346TIP3    H110044   3.296   2.914   0.664 -0.8101 -0.4512  1.2315
 3346TIP3    H210045   3.295   2.799   0.565 -1.6515 -0.5663  1.3655
 3347TIP3   OH210046   3.773  -0.010   4.501 -0.0313 -0.5163 -0.3695
 3347TIP3    H110047   3.735   0.043   4.431  0.6290  1.2468  0.5455
 3347TIP3    H210048   3.867  -0.013   4.481  0.0699 -0.5526  0.0971
 3348TIP3   OH210049   3.739   0.313   4.585  0.0028 -1.0117  0.0149
 3348TIP3    H110050   3.754   0.407   4.586 -0.9001 -0.8583 -0.1642
 3348TIP3    H210051   3.666   0.300   4.524  1.1322 -1.9931 -1.1777
 3349TIP3   OH210052   3.044   1.734   1.409 -0.1115  0.0529  0.4846
 3349TIP3    H110053   3.061   1.660   1.467 -0.4358  1.1947  2.1063
 3349TIP3    H210054   2.950   1.749   1.415 -0.4345 -0.7365 -1.5832
 3350TIP3   OH210055   4.139   2.135   2.827  0.1633  0.6614  0.3116
 3350TIP3    H110056   4.204   2.178   2.883 -0.3399 -0.0510  1.4807
 3350TIP3    H210057   4.110   2.203   2.767  1.4131  1.1957  0.2945
 3351TIP3   OH210058   2.178   3.264   0.723 -0.0194 -0.0770  0.1336
 3351TIP3    H110059   2.103   3.205   0.720  1.4616 -2.2623  2.1827
 3351TIP3    H210060   2.245   3.221   0.671  1.1948 -0.4542  1.9161
 3352TIP3   OH210061   1.459   1.885   4.385 -0.4521 -0.4089  0.1905
 3352TIP3    H110062   1.377   1.933   4.369 -0.5200 -0.6513 -0.1958
 3352TIP3    H210063   1.460   1.870   4.479 -0.6267  0.0055  0.2597
 3353TIP3   OH210064   3.658   2.326   3.879  0.2797 -0.0301  0.1129
 3353TIP3    H110065   3.623   2.363   3.960  1.7792  2.0996 -0.1081
 3353TIP3    H210066   3.753   2.327   3.892  0.5354  0.0465 -1.5386
 3354TIP3   OH210067   1.253   4.282   2.478 -0.3619 -0.3058 -0.1981
 3354TIP3    H110068   1.198   4.276   2.556 -0.3671 -1.9629 -0.2753
 3354TIP3    H210069   1.191   4.272   2.405 -0.2636  0.4368 -0.3876
 3355TIP3   OH210070   3.998   2.845   0.846 -0.1693 -0.3084  0.2102
 3355TIP3    H110071   3.962   2.794   0.918 -0.0593  0.5842  0.9240
 3355TIP3    H210072   4.047   2.915   0.889 -0.1447  0.2734 -0.7375
 3356TIP3   OH210073   5.411   0.977   0.556 -0.0263 -0.2690  0.2436
 3356TIP3    H110074   5.364   0.977   0.472  1.3974 -0.5642 -0.5708
 3356TIP3    H210075   5.456   0.893   0.559  1.7954  0.6762  0.2292
 3357TIP3   OH210076   2.771   2.659   1.380 -0.2862  0.5966 -0.4219
 3357TIP3    H110077   2.696   2.608   1.350  1.5036 -0.3590 -3.6811
 3357TIP3    H210078   2.758   2.745   1.342 -0.8214  1.1727  0.9809
 3358TIP3   OH210079   2.891   4.272   4.179  0.4500 -0.1021 -0.4445
 3358TIP3    H110080   2.832   4.240   4.247  0.8845  0.9739  0.4798
 3358TIP3    H210081   2.927   4.193   4.140 -0.2996 -0.7548  0.1430
 3359TIP3   OH210082   4.510   2.783   0.283 -0.3433 -0.2094  0.0134
 3359TIP3    H110083   4.573   2.832   0.336 -0.8956 -0.5416  0.9889
 3359TIP3    H210084   4.435   2.842   0.273 -0.3617 -0.2601 -0.1607
 3360TIP3   OH210085   2.755   5.033   4.145  0.2375  0.3240 -0.1181
 3360TIP3    H110086   2.748   4.984   4.227 -0.0741 -1.2506 -1.0462
 3360TIP3    H210087   2.674   5.084   4.141 -0.0777 -0.1385  0.2072
 3361TIP3   OH210088   2.077   3.178   0.147  0.1467 -0.1265  0.0281
 3361TIP3    H110089   2.157   3.136   0.115  3.2846  2.5049  3.5146
 3361TIP3    H210090   2.074   3.262   0.102 -0.5483 -0.1254  0.0666
 3362TIP3   OH210091   4.823   1.608   3.130 -0.2525  0.1841 -0.1428
 3362TIP3    H110092   4.880   1.670   3.085 -0.3427  0.9232  0.7300
 3362TIP3    H210093   4.782   1.558   3.060  2.0466 -0.9429 -0.7975
 3363TIP3   OH210094   4.490   0.652   0.069 -0.3405 -0.1033  0.0042
 3363TIP3    H110095   4.568   0.616   0.112 -0.6767 -0.6867  0.1480
 3363TIP3    H210096   4.466   0.586   0.005  0.0097  0.6562 -0.9287
 3364TIP3   OH210097   5.832   4.365   4.923 -0.0977 -1.0117 -0.0471
 3364TIP3    H110098   5.862   4.276   4.938 -0.7834 -1.2018  0.2443
 3364TIP3    H210099   5.822   4.403   5.011 -1.4796 -1.2308 -0.0816
 3365TIP3   OH210100   1.806   5.622   3.667 -0.0216  0.1201 -0.0133
 3365TIP3    H110101   1.795   5.595   3.576  1.4080  0.4262 -0.3075
 3365TIP3    H210102   1.801   5.717   3.665 -2.4305  0.0580  0.6296
 3366TIP3   OH210103   2.358   0.749   0.338 -0.3223  0.1855 -0.6073
 3366TIP3    H110104   2.362   0.762   0.244 -1.1992  0.2174 -0.6413
 3366TIP3    H210105   2.267   0.767   0.362  0.4991  3.2548  0.7161
 3367TIP3   OH210106   5.593   3.365   0.881 -0.3001  0.4036  0.2261
 3367TIP3    H110107   5.627   3.276   0.873  0.0649  0.5467  0.1821
 3367TIP3    H210108   5.662   3.421   0.845 -1.2214  0.5762 -1.3618
 3368TIP3   OH210109   5.663   2.749   2.962 -0.2074 -0.2891 -0.3220
 3368TIP3    H110110   5.661   2.794   3.046 -0.1035  0.2573 -0.6101
 3368TIP3    H210111   5.750   2.766   2.926 -0.2748 -0.4586 -0.5731
 3369TIP3   OH210112   4.567   4.941   2.431 -0.1666 -0.1891 -0.2510
 3369TIP3    H110113   4.593   5.007   2.367 -0.3781  0.0511 -0.0900
 3369TIP3    H210114   4.573   4.986   2.516 -0.3311 -0.3708 -0.1430
 3370TIP3   OH210115   5.825   4.688   3.826  0.0207  0.2341  0.3861
 3370TIP3    H110116   5.752   4.697   3.887 -0.1463  0.2088  0.1886
 3370TIP3    H210117   5.899   4.662   3.881 -0.4044 -0.9640  0.4103
 3371TIP3   OH210118   1.113   2.573   2.972  0.1722  0.4642 -0.0347
 3371TIP3    H110119   1.093   2.536   2.886  1.1663  1.1783 -0.5869
 3371TIP3    H210120   1.117   2.497   3.030  0.9089 -0.1793 -0.9004
 3372TIP3   OH210121   3.295   3.643   2.141 -0.0543 -0.4507 -0.1674
 3372TIP3    H110122   3.379   3.673   2.178  0.1653 -0.0553 -0.9594
 3372TIP3    H210123   3.320   3.574   2.079 -0.2605  0.0381 -0.8004
 3373TIP3   OH210124   4.796   0.449   1.450 -0.0367  0.1427 -0.3130
 3373TIP3    H110125   4.810   0.497   1.369  0.9142 -1.2918 -1.0431
 3373TIP3    H210126   4.882   0.412   1.472 -0.7274 -1.3162  0.1157
 3374TIP3   OH210127   2.510   3.386   2.835  0.7476 -0.2685  0.1186
 3374TIP3    H110128   2.485   3.325   2.765  2.8373 -0.1024 -0.8520
 3374TIP3    H210129   2.533   3.467   2.789 -0.7940  0.8892  1.2894
 3375TIP3   OH210130   0.370   3.811   0.939  0.4621 -0.0462  0.1463
 3375TIP3    H110131   0.352   3.719   0.959 -0.4621  0.0079 -0.3794
 3375TIP3    H210132   0.379   3.853   1.024  1.2223 -0.6736  0.3947
 3376TIP3   OH210133   0.416   4.953   4.332 -0.1921 -0.2930 -0.3150
 3376TIP3    H110134   0.337   4.948   4.278  0.9161 -0.1802 -2.0390
 3376TIP3    H210135   0.406   5.035   4.381 -0.3363  0.7215 -1.9356
 3377TIP3   OH210136   0.826   1.172   3.503 -0.6251  0.0620  0.3628
 3377TIP3    H110137   0.858   1.152   3.415 -0.8873  1.3843 -0.0522
 3377TIP3    H210138   0.738   1.135   3.505 -1.2865  1.5035 -0.5605
 3378TIP3   OH210139   5.673   0.930   4.180  0.5034  0.3103  1.1017
 3378TIP3    H110140   5.699   0.839   4.169 -1.2495 -0.1669  0.6332
 3378TIP3    H210141   5.735   0.979   4.126 -0.5192 -0.9243 -1.3591
 3379TIP3   OH210142   2.927   0.182   2.485  0.1364 -0.3608 -0.2153
 3379TIP3    H110143   2.922   0.096   2.526 -0.8914  0.0600  0.5873
 3379TIP3    H210144   2.868   0.178   2.410  1.3743 -0.8652 -1.1920
 3380TIP3   OH210145   6.002   2.990   3.744  0.0109  0.5459  0.1666
 3380TIP3    H110146   5.938   3.021   3.809 -0.4544  1.2419 -0.5923
 3380TIP3    H210147   5.973   2.902   3.722  0.7054 -0.0651  1.5521
 3381TIP3   OH210148   3.443   1.431   1.337  0.5980  0.2840  0.1186
 3381TIP3    H110149   3.390   1.511   1.338 -1.6464 -1.0415 -1.5833
 3381TIP3    H210150   3.378   1.361   1.339  2.3685 -1.4594 -1.0167
 3382TIP3   OH210151   3.293   1.959   1.115  0.5459 -0.0780  0.0363
 3382TIP3    H110152   3.331   1.882   1.157  1.4635  0.3092 -0.0601
 3382TIP3    H210153   3.204   1.933   1.093  1.1516 -1.4552 -0.9004
 3383TIP3   OH210154   0.895   4.741   3.733 -0.5048  0.0051 -0.1889
 3383TIP3    H110155   0.968   4.725   3.673  0.1504 -0.7169  0.7628
 3383TIP3    H210156   0.850   4.657   3.739  1.3116 -0.9252  2.7089
 3384TIP3   OH210157   1.800   2.537   1.057  0.0479  0.1818 -0.2444
 3384TIP3    H110158   1.717   2.584   1.061 -1.1625 -1.7238 -1.3152
 3384TIP3    H210159   1.815   2.507   1.146  0.8772  2.5238  0.4763
 3385TIP3   OH210160   3.018   4.346   3.451  0.4736  0.5037 -0.0492
 3385TIP3    H110161   2.970   4.263   3.445 -0.4073  1.0748 -1.1968
 3385TIP3    H210162   3.016   4.382   3.363  0.9390  1.7047  0.4059
 3386TIP3   OH210163   3.865   1.763   1.159 -0.2566  0.4662 -0.2583
 3386TIP3    H110164   3.926   1.837   1.158 -0.8630  0.9757 -0.6309
 3386TIP3    H210165   3.887   1.712   1.081 -0.6493  0.9463 -0.6921
 3387TIP3   OH210166   1.467   5.300   4.605 -0.1325 -0.5482 -0.0623
 3387TIP3    H110167   1.400   5.275   4.669  0.2337  0.7881  0.8840
 3387TIP3    H210168   1.533   5.230   4.612  0.2514 -0.0703  1.5818
 3388TIP3   OH210169   2.118   3.326   0.990 -0.9870  0.1309 -0.3527
 3388TIP3    H110170   2.091   3.417   1.003  1.7626  1.0198 -0.3342
 3388TIP3    H210171   2.150   3.323   0.900  2.8434  0.3691  0.8503
 3389TIP3   OH210172   0.972   1.670   3.741  0.3173 -0.0977 -0.2162
 3389TIP3    H110173   0.892   1.719   3.758  0.0021 -0.1649 -1.4583
 3389TIP3    H210174   0.942   1.580   3.726  0.8979 -0.7880  2.2292
 3390TIP3   OH210175   2.169   5.664   0.449  0.5722 -0.5085  0.1625
 3390TIP3    H110176   2.121   5.746   0.454  1.4977  0.0092  0.9019
 3390TIP3    H210177   2.118   5.610   0.388  0.4939  0.9715 -1.1518
 3391TIP3   OH210178   4.402   2.827   3.009 -0.3872 -0.5028  0.2489
 3391TIP3    H110179   4.375   2.740   2.981 -1.3365  0.2504 -1.3433
 3391TIP3    H210180   4.484   2.843   2.963 -0.7752 -0.1546 -0.3416
 3392TIP3   OH210181   2.234   2.409   2.385  0.4021 -0.6451  0.3845
 3392TIP3    H110182   2.303   2.389   2.321  1.0978  0.6559  0.6853
 3392TIP3    H210183   2.248   2.346   2.455  0.7288 -0.9630  0.0407
 3393TIP3   OH210184   6.035   5.682   1.120  0.1674 -0.2162 -0.1201
 3393TIP3    H110185   5.962   5.675   1.058  0.2962 -0.1543 -0.2801
 3393TIP3    H210186   6.024   5.767   1.161  0.6197  0.1506 -0.7440
 3394TIP3   OH210187   1.636   0.257   4.015  0.2458 -0.3591 -0.4698
 3394TIP3    H110188   1.675   0.244   4.102  0.3023 -1.9640 -0.6974
 3394TIP3    H210189   1.631   0.352   4.005 -0.9303 -0.1029  1.8090
 3395TIP3   OH210190   0.980   2.343   1.631  0.0182  0.9294  0.0783
 3395TIP3    H110191   0.914   2.323   1.565  0.5652  1.4316 -0.6372
 3395TIP3    H210192   0.940   2.412   1.685 -0.1180  1.0897 -0.2273
 3396TIP3   OH210193   4.674   1.148   3.075 -0.0581 -0.3137 -0.3778
 3396TIP3    H110194   4.687   1.215   3.143 -0.6862 -0.5696 -0.0008
 3396TIP3    H210195   4.761   1.111   3.062 -0.0257 -0.6586  0.7137
 3397TIP3   OH210196   0.045   3.875   0.919  0.4821 -0.3340  0.1493
 3397TIP3    H110197   0.129   3.854   0.959  0.0369  2.0430  2.5530
 3397TIP3    H210198  -0.016   3.885   0.992 -0.9975  1.6927 -1.2305
 3398TIP3   OH210199   1.081   0.908   3.337 -0.5101  0.4965  0.2270
 3398TIP3    H110200   1.162   0.957   3.319  0.5441 -1.9186 -2.4879
 3398TIP3    H210201   1.033   0.912   3.254 -0.5511 -2.5398 -0.0130
 3399TIP3   OH210202   4.833   0.145   5.016 -0.9049 -0.1589 -0.7410
 3399TIP3    H110203   4.769   0.163   4.947  0.7067 -0.0213 -2.2590
 3399TIP3    H210204   4.870   0.230   5.039  1.2020 -0.5387 -2.4195
 3400TIP3   OH210205   1.536   1.215   4.095 -0.2743 -0.0285 -0.4044
 3400TIP3    H110206   1.615   1.161   4.098  1.2539  2.0888  0.1555
 3400TIP3    H210207   1.555   1.282   4.029 -1.3237  0.9182  0.2132
 3401TIP3   OH210208   0.641   4.076   0.965 -0.4132 -0.1755 -0.4392
 3401TIP3    H110209   0.695   3.997   0.975 -0.2856 -0.3454 -2.1565
 3401TIP3    H210210   0.632   4.087   0.870 -1.5828  1.1045 -0.2101
 3402TIP3   OH210211   4.303   4.595   3.048 -0.1641 -0.6255  0.0818
 3402TIP3    H110212   4.214   4.625   3.064  0.6839  0.5497  3.3211
 3402TIP3    H210213   4.308   4.509   3.089  0.2427 -0.5951  0.1039
 3403TIP3   OH210214   1.239   3.956   4.138 -0.3735  0.1836 -0.0136
 3403TIP3    H110215   1.227   3.938   4.045 -0.6613 -0.8747  0.2137
 3403TIP3    H210216   1.201   3.880   4.182 -0.3691  0.7391  0.9743
 3404TIP3   OH210217   0.914   0.747   3.482 -0.5991 -0.6503  0.1256
 3404TIP3    H110218   0.980   0.802   3.440 -2.0957  0.3398 -1.0315
 3404TIP3    H210219   0.890   0.794   3.562  0.4271 -1.2705  0.8204
 3405TIP3   OH210220   3.807   4.981   0.278  0.3880  0.3402  0.3619
 3405TIP3    H110221   3.780   5.034   0.202 -1.4150  0.0618  0.7516
 3405TIP3    H210222   3.902   4.985   0.278  0.3477  2.4553 -0.4214
 3406TIP3   OH210223   1.607   5.111   0.412 -0.0754 -0.3222  0.0257
 3406TIP3    H110224   1.651   5.158   0.341  0.0592 -2.6019 -1.5002
 3406TIP3    H210225   1.641   5.022   0.407 -2.8785 -1.5359  0.4392
 3407TIP3   OH210226   0.494   5.858   1.321  0.2871 -0.2237 -0.5622
 3407TIP3    H110227   0.497   5.777   1.271  0.7444  0.1209 -1.1133
 3407TIP3    H210228   0.556   5.916   1.276 -2.6180  1.7348 -2.4218
 3408TIP3   OH210229   2.380   4.697   1.716 -0.3310 -0.2966  0.5450
 3408TIP3    H110230   2.443   4.740   1.774 -1.1823  0.6025  0.8338
 3408TIP3    H210231   2.434   4.647   1.654  0.6621  0.5589  0.6974
 3409TIP3   OH210232   3.562   5.441   0.451  0.2529 -0.6935  0.1636
 3409TIP3    H110233   3.654   5.418   0.451 -0.4007 -3.6053  0.6749
 3409TIP3    H210234   3.532   5.420   0.362  0.2444  1.3082 -0.3678
 3410TIP3   OH210235   0.415   4.365   0.773 -0.1562  0.3106 -0.3455
 3410TIP3    H110236   0.461   4.282   0.786 -0.3957  0.5346  2.6252
 3410TIP3    H210237   0.323   4.341   0.766 -0.3653  0.3130  1.7253
 3411TIP3   OH210238   0.322   3.515   4.540  0.5238 -0.2564  0.2650
 3411TIP3    H110239   0.228   3.496   4.545  0.7058 -0.9130  1.9382
 3411TIP3    H210240   0.329   3.585   4.476 -1.0807 -0.3632 -0.0755
 3412TIP3   OH210241   0.948   1.433   0.646  0.2510  0.1817  0.1005
 3412TIP3    H110242   1.010   1.363   0.667 -1.4413 -1.3436  0.2744
 3412TIP3    H210243   0.969   1.458   0.556  0.7689 -0.6865 -0.0250
 3413TIP3   OH210244   5.580   4.779   4.409  0.2448  0.0738 -0.1690
 3413TIP3    H110245   5.662   4.790   4.361 -0.2739 -0.7540 -1.2803
 3413TIP3    H210246   5.527   4.854   4.384 -0.1802 -0.5663 -1.2519
 3414TIP3   OH210247   5.437   5.015   4.380  0.0855  0.2185  0.1432
 3414TIP3    H110248   5.392   5.036   4.462  0.7130  1.1248  0.2749
 3414TIP3    H210249   5.369   5.023   4.313 -0.6530 -1.4577  0.6534
 3415TIP3   OH210250   4.097   2.239   3.671 -0.4359 -0.8066 -0.0459
 3415TIP3    H110251   4.083   2.333   3.660 -0.3917 -0.8202 -0.2093
 3415TIP3    H210252   4.149   2.213   3.596 -1.1477 -1.1194 -0.4401
 3416TIP3   OH210253   2.219   1.055   3.554  0.5402  0.2073 -0.0942
 3416TIP3    H110254   2.201   0.972   3.510  0.8263 -0.8648  1.7284
 3416TIP3    H210255   2.134   1.097   3.562 -0.3400 -1.8363  2.6127
 3417TIP3   OH210256   0.813   1.395   4.277 -0.3599  0.3593  0.1158
 3417TIP3    H110257   0.755   1.369   4.348  0.2265 -0.2761  0.3721
 3417TIP3    H210258   0.900   1.398   4.316  0.2468 -1.6438 -0.9094
 3418TIP3   OH210259   0.463   3.890   2.333 -0.0313  0.0033 -0.2770
 3418TIP3    H110260   0.495   3.943   2.260  1.1717 -1.3871 -0.7962
 3418TIP3    H210261   0.401   3.829   2.293  1.3255 -1.3869 -0.3497
 3419TIP3   OH210262   4.911   0.803   1.886  0.2302 -0.1064  0.6675
 3419TIP3    H110263   4.819   0.830   1.881  0.0216 -0.3777  2.3253
 3419TIP3    H210264   4.916   0.753   1.967  1.5877 -1.1821 -0.0446
 3420TIP3   OH210265   5.151   4.456   1.672  0.2326  0.2201  0.2058
 3420TIP3    H110266   5.210   4.464   1.597  1.1786  1.2944  1.0139
 3420TIP3    H210267   5.204   4.412   1.739  0.5431  2.1340  1.3029
 3421TIP3   OH210268   3.457   2.599   4.666 -0.8057  0.4606  0.3976
 3421TIP3    H110269   3.553   2.603   4.660 -0.5174 -3.2954 -0.3246
 3421TIP3    H210270   3.428   2.688   4.651  2.5786  1.8343  1.0873
 3422TIP3   OH210271   3.257   4.039   5.036 -0.0884  0.0851 -0.5194
 3422TIP3    H110272   3.260   4.037   5.132  1.0348  1.6025 -0.4869
 3422TIP3    H210273   3.167   4.064   5.015 -0.6968 -1.4561  0.0652
 3423TIP3   OH210274   3.455   1.061   0.153  0.1394  0.1754  0.4760
 3423TIP3    H110275   3.468   1.155   0.146 -1.1642  0.2621 -1.6810
 3423TIP3    H210276   3.472   1.028   0.065  0.8930 -1.6706  1.2606
 3424TIP3   OH210277   5.857   2.820   3.987 -0.1055 -0.1444  0.4072
 3424TIP3    H110278   5.796   2.758   4.027  0.2960 -0.8908 -0.0965
 3424TIP3    H210279   5.862   2.792   3.895 -1.4711  1.8988 -0.3375
 3425TIP3   OH210280   5.823   3.357   0.434  0.1979  0.2068 -0.2588
 3425TIP3    H110281   5.728   3.348   0.428  0.3194 -0.5013 -2.1313
 3425TIP3    H210282   5.847   3.407   0.356  1.4282 -0.4733 -0.3524
 3426TIP3   OH210283   0.821   5.656   1.433  0.0191  0.4008  0.1238
 3426TIP3    H110284   0.906   5.681   1.469 -0.2153  0.8667  0.3638
 3426TIP3    H210285   0.757   5.691   1.495 -0.3238 -2.4131  1.5445
 3427TIP3   OH210286   1.734   5.904   1.763 -0.0500 -0.4787  0.3611
 3427TIP3    H110287   1.688   5.984   1.788  1.1264  0.1593  0.5459
 3427TIP3    H210288   1.689   5.874   1.685  0.0838  0.9185 -0.2839
 3428TIP3   OH210289   4.524   2.409   5.169 -0.3810 -0.1603  0.1345
 3428TIP3    H110290   4.564   2.496   5.174  0.3981 -0.4840 -0.3636
 3428TIP3    H210291   4.532   2.383   5.077 -2.3546  0.0326 -0.1398
 3429TIP3   OH210292   4.585   5.837   3.258 -0.2613  0.3137  0.4566
 3429TIP3    H110293   4.603   5.743   3.248 -1.1138  0.3714 -2.4277
 3429TIP3    H210294   4.671   5.879   3.247  0.1642 -0.0860  2.0014
 3430TIP3   OH210295   5.304   5.934   0.631  0.2814 -0.2568  0.1609
 3430TIP3    H110296   5.340   5.957   0.546  2.3839  1.0384  1.3053
 3430TIP3    H210297   5.362   5.977   0.694 -2.1061  0.2046  2.2234
 3431TIP3   OH210298   4.745   1.386   4.847  0.1335  0.7953 -0.0314
 3431TIP3    H110299   4.692   1.339   4.783  0.6597 -1.3807  1.0457
 3431TIP3    H210300   4.691   1.387   4.926  1.0319 -0.0622  0.6174
 3432TIP3   OH210301   0.074   0.306   1.426  0.4690  0.2214 -0.2946
 3432TIP3    H110302   0.094   0.340   1.338 -0.4753  2.5113  0.3229
 3432TIP3    H210303  -0.020   0.290   1.425  0.8804 -2.7933 -0.6198
 3433TIP3   OH210304   0.903   2.868   0.729  0.6061  0.0263  0.1059
 3433TIP3    H110305   0.894   2.861   0.824  1.4510 -0.8980  0.1408
 3433TIP3    H210306   0.850   2.796   0.695 -1.5790  1.7245 -0.2698
 3434TIP3   OH210307   4.469   0.838   4.774  0.1441 -0.4678 -0.3953
 3434TIP3    H110308   4.453   0.855   4.681 -0.7900 -0.7398 -0.2914
 3434TIP3    H210309   4.558   0.802   4.777 -0.0342 -0.9944 -1.2523
 3435TIP3   OH210310   0.132   4.172   4.708  0.0744 -0.7010 -0.6139
 3435TIP3    H110311   0.116   4.185   4.615 -1.7638 -0.5351 -0.3127
 3435TIP3    H210312   0.087   4.090   4.729  1.4557 -1.3636 -0.0753
 3436TIP3   OH210313   4.959   2.541   0.746  0.8218  0.2685 -0.2496
 3436TIP3    H110314   4.986   2.457   0.783 -1.7407 -0.6868 -0.4064
 3436TIP3    H210315   4.885   2.569   0.800 -0.0060  1.1439 -1.7728
 3437TIP3   OH210316   6.213   3.956   1.100 -0.2977 -0.1609  0.0494
 3437TIP3    H110317   6.129   3.915   1.121  0.3170 -0.9957  0.9378
 3437TIP3    H210318   6.244   3.993   1.182  1.2709 -1.8637  0.2910
 3438TIP3   OH210319   3.677   1.037   3.137  0.1641  0.0362  0.2863
 3438TIP3    H110320   3.736   1.070   3.205 -0.5714 -1.0699  1.5158
 3438TIP3    H210321   3.644   1.115   3.094  2.3564  0.7002 -0.3401
 3439TIP3   OH210322   3.721   0.759   4.965  0.1950  0.0134  0.4733
 3439TIP3    H110323   3.756   0.769   4.876 -0.0357 -1.0491  0.2471
 3439TIP3    H210324   3.631   0.790   4.959  0.3122  0.3533  0.4462
 3440TIP3   OH210325   1.403   1.098   0.840  0.4520 -0.7232  0.2567
 3440TIP3    H110326   1.321   1.112   0.792  0.1868 -2.6613  0.0270
 3440TIP3    H210327   1.383   1.121   0.930  0.2385  0.6370 -0.1124
 3441TIP3   OH210328   2.860   4.876   0.227 -0.2800 -0.4710  0.3202
 3441TIP3    H110329   2.791   4.940   0.211  0.1687  0.5290  2.0736
 3441TIP3    H210330   2.828   4.795   0.186 -0.8915  0.8003 -1.8888
 3442TIP3   OH210331   6.105   3.177   0.057  0.0549 -0.1258 -0.4116
 3442TIP3    H110332   6.200   3.183   0.063  0.1127 -1.4390  0.3335
 3442TIP3    H210333   6.073   3.223   0.135  0.1181 -0.2771 -0.2941
 3443TIP3   OH210334   1.774   2.479   2.502  0.5894  0.3096  0.2105
 3443TIP3    H110335   1.802   2.569   2.491 -0.6922  0.6516 -0.5036
 3443TIP3    H210336   1.835   2.442   2.566 -0.1502  2.2918  2.1834
 3444TIP3   OH210337   5.997   5.124   0.955 -0.5093 -0.1585  0.3313
 3444TIP3    H110338   6.076   5.177   0.949  0.2155 -1.2924 -0.9002
 3444TIP3    H210339   5.928   5.184   0.983  0.9426  0.6812  2.2267
 3445TIP3   OH210340   2.558   1.359   5.172  0.1104 -0.0104 -0.3834
 3445TIP3    H110341   2.526   1.436   5.124  0.9502  1.2089  0.9259
 3445TIP3    H210342   2.480   1.308   5.192 -0.5971  1.0532 -0.3675
 3446TIP3   OH210343   3.099   4.685   4.588  0.0290  0.1475 -0.2886
 3446TIP3    H110344   3.193   4.703   4.584 -0.0961  0.7561 -0.5886
 3446TIP3    H210345   3.059   4.772   4.593 -0.5201 -0.1110 -0.1806
 3447TIP3   OH210346   0.211   2.882   3.995  0.1867  0.4117 -0.5980
 3447TIP3    H110347   0.168   2.809   3.952 -1.3404  1.4456 -0.9227
 3447TIP3    H210348   0.190   2.870   4.088 -0.2342  0.5376 -0.6744
 3448TIP3   OH210349   4.139   3.058   5.052  0.2415  0.3931 -0.1786
 3448TIP3    H110350   4.176   3.144   5.073 -0.0295  0.5259 -0.2475
 3448TIP3    H210351   4.216   3.002   5.039  0.4123  0.4506  0.5647
 3449TIP3   OH210352   5.943   0.581   0.699  0.4050 -0.1522  0.1247
 3449TIP3    H110353   6.022   0.598   0.751  0.2135  0.4142  0.2366
 3449TIP3    H210354   5.871   0.598   0.759  0.1411  2.0846 -0.7500
 3450TIP3   OH210355   2.524   4.907   3.801 -0.0847  0.4307 -0.0345
 3450TIP3    H110356   2.493   4.868   3.720 -2.7059  2.6578 -0.2731
 3450TIP3    H210357   2.578   4.981   3.773 -0.7317  1.0077  0.1857
 3451TIP3   OH210358   4.183   0.870   0.474  0.0824 -0.2896 -0.2031
 3451TIP3    H110359   4.221   0.886   0.387 -0.7901 -1.0804 -0.7492
 3451TIP3    H210360   4.088   0.874   0.460 -0.0751  0.7344  0.9576
 3452TIP3   OH210361   0.053   3.433   2.021 -0.3317 -0.2209 -0.5012
 3452TIP3    H110362   0.121   3.377   2.058 -0.0134 -1.6376 -2.9503
 3452TIP3    H210363  -0.029   3.389   2.045 -0.1528 -0.8412 -0.9757
 3453TIP3   OH210364   3.961   1.400   1.237 -0.0764 -0.6123 -0.2975
 3453TIP3    H110365   4.039   1.421   1.186 -1.0850  2.1098 -0.8973
 3453TIP3    H210366   3.972   1.448   1.319 -0.2281 -1.8891  0.5116
 3454TIP3   OH210367   4.733   2.078   1.747  0.2344  0.0118  0.1344
 3454TIP3    H110368   4.660   2.140   1.744  1.7821  1.8894 -1.2671
 3454TIP3    H210369   4.708   2.016   1.816 -2.9084  0.1917 -0.6568
 3455TIP3   OH210370   3.987   4.247   2.092  0.2751 -0.2674  0.2444
 3455TIP3    H110371   3.914   4.266   2.151 -0.1526  1.9933 -0.9252
 3455TIP3    H210372   4.042   4.186   2.142  0.0934  1.7416  3.1794
 3456TIP3   OH210373   4.217   0.022   3.156 -0.3262  0.0764 -1.0618
 3456TIP3    H110374   4.165   0.091   3.197 -0.2962  0.0948 -1.0547
 3456TIP3    H210375   4.307   0.040   3.183 -0.3776 -0.2416 -0.6796
 3457TIP3   OH210376   2.556   4.174   4.112 -0.0174  0.1297 -0.2603
 3457TIP3    H110377   2.482   4.216   4.157  0.2264 -0.2158  0.4900
 3457TIP3    H210378   2.535   4.080   4.115  1.0789 -0.1103  1.2094
 3458TIP3   OH210379   5.091   4.621   0.468  0.7125 -0.0151  0.1349
 3458TIP3    H110380   5.136   4.644   0.550  1.3688 -2.3045  0.4949
 3458TIP3    H210381   4.998   4.627   0.490  0.8737  0.2496  0.7885
 3459TIP3   OH210382   4.724   0.968   3.848 -0.0099 -0.3700  0.0286
 3459TIP3    H110383   4.766   0.901   3.793  0.1383  1.4880 -2.2963
 3459TIP3    H210384   4.632   0.965   3.822 -0.3136 -0.7376  1.1105
 3460TIP3   OH210385   1.283   3.554   2.242  0.6029  0.1498  0.3939
 3460TIP3    H110386   1.365   3.526   2.281 -0.3755 -0.4202  2.2007
 3460TIP3    H210387   1.245   3.614   2.307 -1.2791 -1.1215  0.5681
 3461TIP3   OH210388   3.562   5.385   0.915 -0.5143 -1.2112 -0.0351
 3461TIP3    H110389   3.566   5.316   0.849  0.9387  0.6202 -2.0303
 3461TIP3    H210390   3.525   5.460   0.867  1.0719  0.3369  1.0574
 3462TIP3   OH210391   4.256   4.255   1.819 -0.2852  0.7514 -0.3485
 3462TIP3    H110392   4.286   4.167   1.841  0.8094  1.2996  0.4631
 3462TIP3    H210393   4.275   4.264   1.726 -0.2621  0.1948 -0.4043
 3463TIP3   OH210394   3.018   0.634   0.853  0.0450 -0.9678  0.0435
 3463TIP3    H110395   3.090   0.577   0.880 -0.0667 -1.0510  0.1695
 3463TIP3    H210396   2.939   0.582   0.868 -0.0846 -0.6303  0.5553
 3464TIP3   OH210397   4.389   1.184   3.532  0.2555  0.2938 -0.2141
 3464TIP3    H110398   4.347   1.243   3.594 -0.2929 -1.0676  0.7421
 3464TIP3    H210399   4.478   1.172   3.566 -0.4595 -1.5538  1.1667
 3465TIP3   OH210400   0.979   1.478   0.349  0.2441 -0.5459  0.0802
 3465TIP3    H110401   0.934   1.541   0.405 -1.0576 -1.8935  0.6041
 3465TIP3    H210402   0.937   1.489   0.263  0.3225 -0.4085  0.0584
 3466TIP3   OH210403   0.376   3.442   2.462 -0.4325  0.0735  0.0668
 3466TIP3    H110404   0.388   3.373   2.527  0.1491 -0.5403 -0.6800
 3466TIP3    H210405   0.465   3.477   2.448 -0.4850 -0.1065 -0.7298
 3467TIP3   OH210406   3.097   5.761   3.999 -0.1885 -0.3023 -0.0661
 3467TIP3    H110407   3.141   5.786   4.080 -0.4333 -1.1343  0.3344
 3467TIP3    H210408   3.089   5.843   3.950 -0.7226  0.3526  1.0797
 3468TIP3   OH210409   4.222   4.847   1.691 -0.4310  0.1537  0.0093
 3468TIP3    H110410   4.176   4.771   1.727 -0.5519  0.3630  0.2984
 3468TIP3    H210411   4.223   4.832   1.597  1.6115 -1.3881  0.2133
 3469TIP3   OH210412   1.111   3.899   0.971  0.0978  0.0847 -0.0175
 3469TIP3    H110413   1.201   3.895   0.938  0.2394 -2.6066  0.4717
 3469TIP3    H210414   1.060   3.930   0.896  0.8073 -3.0533 -2.0020
 3470TIP3   OH210415   5.449   2.197   1.783 -0.2461  0.1677  0.1334
 3470TIP3    H110416   5.381   2.164   1.724 -1.5272  2.2001  0.3832
 3470TIP3    H210417   5.469   2.284   1.750  1.0240  0.2721  1.1018
 3471TIP3   OH210418   4.287   3.205   1.710 -0.2385  0.6300  0.1901
 3471TIP3    H110419   4.314   3.114   1.713  0.3566  0.7605 -0.8405
 3471TIP3    H210420   4.218   3.211   1.776 -0.1871 -0.5243  0.3754
 3472TIP3   OH210421   1.747   1.191   3.745 -0.7143  0.1638 -0.2244
 3472TIP3    H110422   1.747   1.286   3.739  1.0405  0.2106  0.0522
 3472TIP3    H210423   1.755   1.161   3.655 -0.2744  0.3143 -0.2397
 3473TIP3   OH210424   1.603   1.502   4.715  0.6773 -0.2478 -0.9468
 3473TIP3    H110425   1.596   1.589   4.755 -2.0434  0.4226 -2.6291
 3473TIP3    H210426   1.651   1.516   4.634 -1.2434  0.1221 -2.0898
 3474TIP3   OH210427   6.187   4.320   0.230 -0.1115  0.0732  0.6142
 3474TIP3    H110428   6.188   4.280   0.317 -1.8228  0.8171  1.0246
 3474TIP3    H210429   6.101   4.361   0.224 -0.7817 -1.5171 -2.1650
 3475TIP3   OH210430   0.151   5.495   1.405 -0.0517 -0.0797  0.6061
 3475TIP3    H110431   0.059   5.495   1.432  0.5387 -1.0464  2.7915
 3475TIP3    H210432   0.163   5.411   1.361 -0.5885  0.7950 -1.3615
 3476TIP3   OH210433   2.704   3.220   3.523  0.1181 -0.5563  0.0181
 3476TIP3    H110434   2.699   3.222   3.618  0.3951  1.0616  0.0423
 3476TIP3    H210435   2.696   3.128   3.499 -1.6614 -0.8324  1.5002
 3477TIP3   OH210436   0.684   3.581   5.083 -0.1874  0.2138  0.3652
 3477TIP3    H110437   0.774   3.592   5.113  0.3674  0.4049 -1.2193
 3477TIP3    H210438   0.672   3.487   5.076  0.4782  0.1988 -0.9455
 3478TIP3   OH210439   0.314   4.726   3.381  0.0626 -0.0402  0.4876
 3478TIP3    H110440   0.306   4.814   3.345 -0.0048 -0.3209 -0.2057
 3478TIP3    H210441   0.368   4.737   3.460 -1.1916  0.8336  1.2556
 3479TIP3   OH210442   3.682   3.191   1.698 -0.6117 -0.3546 -0.0930
 3479TIP3    H110443   3.672   3.141   1.779  0.4819 -1.1147 -0.4148
 3479TIP3    H210444   3.776   3.200   1.686 -0.7708  0.4847 -0.8456
 3480TIP3   OH210445   2.337   1.592   3.726  0.0560 -0.3647 -0.2993
 3480TIP3    H110446   2.402   1.523   3.711  2.6982  2.0435 -0.8457
 3480TIP3    H210447   2.317   1.626   3.639  1.9384  2.1225  0.1389
 3481TIP3   OH210448   5.557   1.689   4.712  0.3320 -0.7026  0.1563
 3481TIP3    H110449   5.544   1.598   4.683  1.2592 -1.4870  2.0019
 3481TIP3    H210450   5.513   1.693   4.797 -0.3059  0.8125 -0.2184
 3482TIP3   OH210451   6.195   4.308   4.606 -0.4440 -0.1194  0.1943
 3482TIP3    H110452   6.208   4.393   4.646 -1.3571  0.8050 -1.3706
 3482TIP3    H210453   6.203   4.246   4.678  0.0927  1.2858  1.3900
 3483TIP3   OH210454   3.275   0.493   0.858 -0.4245 -0.4269  0.7270
 3483TIP3    H110455   3.272   0.526   0.948 -1.1235  0.2112  0.4808
 3483TIP3    H210456   3.282   0.398   0.867 -0.5891 -0.3728  1.4490
 3484TIP3   OH210457   1.466   5.555   4.459  0.7715 -0.0756 -0.1773
 3484TIP3    H110458   1.461   5.479   4.517  0.8774 -1.7595 -2.2653
 3484TIP3    H210459   1.487   5.628   4.517  2.4362 -1.9111  1.6921
 3485TIP3   OH210460   1.526   2.156   2.798 -0.4634 -0.8026  0.3556
 3485TIP3    H110461   1.496   2.168   2.708 -1.2721  0.0263  0.7196
 3485TIP3    H210462   1.446   2.150   2.850 -0.1994  3.2326  1.6012
 3486TIP3   OH210463   5.929   2.887   1.502 -0.0823 -0.0294  0.2041
 3486TIP3    H110464   6.022   2.866   1.507  0.0825  0.6666  0.1433
 3486TIP3    H210465   5.924   2.982   1.517 -0.3045  0.8885 -4.2355
 3487TIP3   OH210466   6.239   2.453   3.348 -0.3201 -0.5136  0.2468
 3487TIP3    H110467   6.244   2.410   3.263  1.1380  1.1306 -0.5532
 3487TIP3    H210468   6.330   2.466   3.374 -0.6991  1.4552  0.7527
 3488TIP3   OH210469   4.814   2.116   2.054  0.1756 -0.4707  0.2487
 3488TIP3    H110470   4.743   2.176   2.030 -0.5519 -1.9359 -1.5774
 3488TIP3    H210471   4.894   2.161   2.026 -0.2509  0.1218 -0.0437
 3489TIP3   OH210472   2.572   1.904   1.003 -0.0163 -0.0496 -0.2283
 3489TIP3    H110473   2.593   1.812   1.019 -1.3825 -0.5809 -1.2485
 3489TIP3    H210474   2.517   1.929   1.077 -1.8249 -0.8761 -1.2297
 3490TIP3   OH210475   4.819   4.523   4.785  0.2669  0.3183 -0.4933
 3490TIP3    H110476   4.903   4.537   4.740  0.1508 -1.3499 -1.3313
 3490TIP3    H210477   4.842   4.472   4.862  0.0556  0.0348 -0.6159
 3491TIP3   OH210478   2.967   5.195   3.593  0.4284  0.2339 -0.0509
 3491TIP3    H110479   2.890   5.251   3.580  0.7586  0.6629 -0.2115
 3491TIP3    H210480   2.977   5.190   3.688  0.9142  1.1867 -0.0419
 3492TIP3   OH210481   3.697   3.579   1.490  0.1387  0.3258 -0.2100
 3492TIP3    H110482   3.617   3.563   1.440  0.5073 -0.9475 -0.4465
 3492TIP3    H210483   3.760   3.516   1.454  0.9324  0.5951  0.6676
 3493TIP3   OH210484   4.960   3.602   1.451  0.2313 -0.2434 -0.4246
 3493TIP3    H110485   4.965   3.693   1.482 -1.4601 -0.9778  2.3458
 3493TIP3    H210486   4.998   3.550   1.523  0.3000 -1.8028 -1.5465
 3494TIP3   OH210487   2.644   3.256   0.083  0.4208  0.0220 -0.3304
 3494TIP3    H110488   2.632   3.162   0.070  0.1092  0.1085 -0.6787
 3494TIP3    H210489   2.672   3.289  -0.002  0.0394  0.3227 -0.3418
 3495TIP3   OH210490   4.024   0.889   3.651  0.0600 -0.0930  0.3385
 3495TIP3    H110491   4.045   0.921   3.563 -0.1282 -0.9793 -0.0429
 3495TIP3    H210492   4.085   0.934   3.708 -0.1760  0.9116 -0.1791
 3496TIP3   OH210493   5.779   2.646   4.613 -0.0396  0.3987 -0.0413
 3496TIP3    H110494   5.729   2.600   4.680 -0.1816  1.4774  0.6105
 3496TIP3    H210495   5.843   2.698   4.661  1.8143 -1.0187 -0.8678
 3497TIP3   OH210496   1.993   3.646   0.220 -0.1376  0.1524  0.0342
 3497TIP3    H110497   1.954   3.560   0.234 -1.0566  0.4923 -0.4157
 3497TIP3    H210498   2.006   3.680   0.309 -2.0720  0.5622  0.1981
 3498TIP3   OH210499   0.422   5.466   3.549  0.2753  0.3892 -0.5727
 3498TIP3    H110500   0.507   5.510   3.544  0.8037 -0.3913  1.0231
 3498TIP3    H210501   0.358   5.537   3.538  1.1029  1.0406 -1.4304
 3499TIP3   OH210502   5.130   2.365   0.889 -0.3680 -0.4291  0.5609
 3499TIP3    H110503   5.180   2.428   0.941  0.8666 -1.9267  1.2639
 3499TIP3    H210504   5.183   2.352   0.811 -0.4236 -0.8807  0.5984
 3500TIP3   OH210505   4.006   0.484   3.041 -0.1737  0.1666 -0.1486
 3500TIP3    H110506   3.987   0.537   3.119 -0.1984 -0.8089  0.5234
 3500TIP3    H210507   4.101   0.492   3.030 -0.0743 -0.2144  0.3772
 3501TIP3   OH210508   1.665   4.495   2.255  0.2680 -0.2193  0.4183
 3501TIP3    H110509   1.703   4.408   2.243 -1.6304 -0.8035 -2.6721
 3501TIP3    H210510   1.585   4.479   2.305 -1.2906 -0.8020 -2.0238
 3502TIP3   OH210511   6.025   4.394   3.987  0.3068  0.3150 -0.5381
 3502TIP3    H110512   6.008   4.303   3.963 -1.5112  0.9525 -1.9581
 3502TIP3    H210513   6.043   4.438   3.903  2.7631  0.9955  0.2858
 3503TIP3   OH210514   0.158   2.293   0.028 -0.2800  0.5996 -0.0827
 3503TIP3    H110515   0.126   2.337   0.107 -0.1246  1.0141 -0.2499
 3503TIP3    H210516   0.078   2.272  -0.021 -0.6694 -2.2549  1.4795
 3504TIP3   OH210517   3.186   3.874   1.987 -0.1475 -0.4802 -0.3148
 3504TIP3    H110518   3.222   3.794   2.027 -0.5058 -1.5398 -2.0214
 3504TIP3    H210519   3.256   3.939   1.998 -0.2789 -0.6503  2.0958
 3505TIP3   OH210520   4.735   0.253   4.730 -0.6288  0.9341 -0.7908
 3505TIP3    H110521   4.769   0.171   4.694 -1.5680 -0.3861  1.1365
 3505TIP3    H210522   4.643   0.236   4.747 -0.5140  1.8397  1.0748
 3506TIP3   OH210523   3.025   4.951   3.684 -0.2221  0.1502  0.5329
 3506TIP3    H110524   2.996   5.026   3.632 -0.1940  0.1816  0.5621
 3506TIP3    H210525   3.036   4.987   3.772  3.2006  0.9706 -0.0963
 3507TIP3   OH210526   1.387   1.134   4.574  0.0227 -0.1686 -0.0048
 3507TIP3    H110527   1.370   1.174   4.488 -1.2454 -1.1641 -0.2583
 3507TIP3    H210528   1.470   1.088   4.562  0.2059  0.2651 -0.4831
 3508TIP3   OH210529   1.421   4.988   2.486 -0.0809  0.3689  0.4798
 3508TIP3    H110530   1.337   4.950   2.459  0.1906  1.4002 -2.0796
 3508TIP3    H210531   1.399   5.074   2.522 -0.1640  0.4164  0.3147
 3509TIP3   OH210532   0.796   1.807   1.126 -0.0650 -0.0940 -0.2023
 3509TIP3    H110533   0.836   1.728   1.163  0.2790  0.2217  0.0997
 3509TIP3    H210534   0.779   1.784   1.034 -0.1269 -0.5800 -0.0694
 3510TIP3   OH210535   4.370   3.902   1.669 -0.1528 -0.1744 -0.2816
 3510TIP3    H110536   4.277   3.884   1.681 -0.0178 -0.0533  1.1531
 3510TIP3    H210537   4.385   3.889   1.575 -1.8328  0.8624 -0.7503
 3511TIP3   OH210538   1.340   5.565   2.105  0.3459 -0.0408  0.7284
 3511TIP3    H110539   1.414   5.587   2.048 -1.2817  1.8647 -0.7719
 3511TIP3    H210540   1.339   5.469   2.106  0.4236 -0.1991 -2.5726
 3512TIP3   OH210541   0.789   4.392   1.839  0.4079 -0.0588 -0.3372
 3512TIP3    H110542   0.699   4.408   1.811  0.2137  4.3142  1.9220
 3512TIP3    H210543   0.781   4.339   1.918 -0.2726  0.7892  0.1744
 3513TIP3   OH210544   1.899   2.465   3.139 -0.2691 -0.0661  0.1540
 3513TIP3    H110545   1.846   2.388   3.160  0.4605 -0.8870 -0.8897
 3513TIP3    H210546   1.972   2.430   3.087  0.2665  1.2897 -0.0404
 3514TIP3   OH210547   3.527   0.319   1.694  0.0458 -0.2272  0.1365
 3514TIP3    H110548   3.449   0.311   1.640 -0.0540 -1.4622  0.4341
 3514TIP3    H210549   3.594   0.269   1.646  0.3281 -0.1660  0.4652
 3515TIP3   OH210550   3.602   1.208   3.782  0.8821  0.5736 -0.3519
 3515TIP3    H110551   3.598   1.300   3.809  2.0691  0.5590 -0.0609
 3515TIP3    H210552   3.616   1.160   3.863  1.0225  0.2100 -0.5913
 3516TIP3   OH210553   2.476   3.540   3.296  0.6417 -0.6278 -0.5855
 3516TIP3    H110554   2.522   3.479   3.237 -0.2456 -1.0965 -0.8046
 3516TIP3    H210555   2.452   3.486   3.371 -0.7894 -0.7512 -1.0975
 3517TIP3   OH210556   2.515   5.245   1.988 -0.5000 -0.1458 -0.5416
 3517TIP3    H110557   2.520   5.165   2.040 -0.7991 -0.7292 -1.3827
 3517TIP3    H210558   2.423   5.273   1.995 -0.1894  0.6796  0.5311
 3518TIP3   OH210559   3.378   2.395   5.167  0.1645 -0.5050  0.4790
 3518TIP3    H110560   3.291   2.430   5.185 -1.0120 -1.4052 -2.7433
 3518TIP3    H210561   3.398   2.424   5.078  2.7656 -1.1663  0.7549
 3519TIP3   OH210562   3.938   5.315   3.409  0.4603 -0.7394 -0.3914
 3519TIP3    H110563   3.874   5.278   3.470  1.3963 -0.6026  0.7260
 3519TIP3    H210564   3.887   5.369   3.350 -0.8259 -2.9524 -1.4131
 3520TIP3   OH210565   2.436   4.956   4.375 -0.0375 -0.4983  0.2485
 3520TIP3    H110566   2.391   5.040   4.360 -0.9496 -1.2654 -1.5667
 3520TIP3    H210567   2.430   4.943   4.470  0.2483  1.5302  0.5975
 3521TIP3   OH210568   1.607   2.921   4.419  0.0124  0.2216 -0.0125
 3521TIP3    H110569   1.553   2.932   4.497  1.2390  0.8082  0.7994
 3521TIP3    H210570   1.697   2.928   4.452  0.5662 -0.1574 -1.3911
 3522TIP3   OH210571   5.074   1.846   3.379  0.6765  0.1459 -0.0130
 3522TIP3    H110572   5.111   1.806   3.300  0.4391  0.2951 -0.2018
 3522TIP3    H210573   5.145   1.842   3.443  0.4798 -1.0890  0.1533
 3523TIP3   OH210574   0.962   0.968   5.041  0.0128 -0.0493  0.1315
 3523TIP3    H110575   0.886   0.922   5.076 -0.0037 -0.0462  0.1002
 3523TIP3    H210576   0.926   1.029   4.977  0.1172 -0.7665 -0.6376
 3524TIP3   OH210577   3.821   4.892   1.931  0.3593  0.3425 -1.0340
 3524TIP3    H110578   3.816   4.864   1.839  2.2222 -0.0785 -1.0501
 3524TIP3    H210579   3.837   4.811   1.979 -1.9751  0.3452 -0.1175
 3525TIP3   OH210580   0.681   0.184   4.247 -0.3250 -0.0419 -0.0629
 3525TIP3    H110581   0.746   0.253   4.236  0.3873 -0.8991 -1.5904
 3525TIP3    H210582   0.599   0.230   4.261  0.1808  1.1134 -0.7689
 3526TIP3   OH210583   3.179   2.356   2.672  0.0598  0.0843 -0.2259
 3526TIP3    H110584   3.181   2.313   2.758  1.2246  1.3045  0.3896
 3526TIP3    H210585   3.269   2.353   2.641 -0.4715 -1.0227 -1.8083
 3527TIP3   OH210586   2.368   2.254   0.083 -0.3643 -0.2197 -0.3761
 3527TIP3    H110587   2.319   2.304   0.149 -0.7156  0.6682 -1.2828
 3527TIP3    H210588   2.334   2.285  -0.001  0.0005 -1.4070 -0.9860
 3528TIP3   OH210589   6.019   0.827   2.670  0.3796  0.1751  0.8753
 3528TIP3    H110590   6.031   0.788   2.756  0.0207  0.9774  1.3058
 3528TIP3    H210591   5.941   0.882   2.680  2.0125  2.6647  0.9213
 3529TIP3   OH210592   5.304   4.427   4.211 -0.3960  0.1729  0.2848
 3529TIP3    H110593   5.325   4.457   4.299 -1.3800  0.7710  0.3269
 3529TIP3    H210594   5.210   4.410   4.212 -0.1081 -1.6785 -0.1199
 3530TIP3   OH210595   0.454   0.439   2.060  0.0572  0.2115 -0.3259
 3530TIP3    H110596   0.481   0.374   1.996 -2.4493 -1.6106  0.3109
 3530TIP3    H210597   0.508   0.422   2.137 -0.4628 -1.0475 -0.2249
 3531TIP3   OH210598   0.772   3.524   2.890  0.1354  0.2256  0.4995
 3531TIP3    H110599   0.823   3.558   2.964  0.2258  0.6300  0.2523
 3531TIP3    H210600   0.716   3.457   2.929  1.2092 -0.5817  0.6849
 3532TIP3   OH210601   0.987   2.850   0.103 -0.2903  0.1648  0.3529
 3532TIP3    H110602   0.913   2.827   0.160 -1.2653  1.4673 -0.3351
 3532TIP3    H210603   0.968   2.939   0.074  1.0862  0.1725 -0.5979
 3533TIP3   OH210604   1.279   4.926   4.881  0.0008 -0.4667 -0.0582
 3533TIP3    H110605   1.207   4.952   4.938  0.6635 -0.4376  0.7645
 3533TIP3    H210606   1.356   4.970   4.916  1.0479 -2.9686  1.0248
 3534TIP3   OH210607   4.660   4.058   1.451  0.5706  0.0757  0.4800
 3534TIP3    H110608   4.584   4.080   1.397  0.9424 -0.6735 -0.3650
 3534TIP3    H210609   4.666   4.130   1.514 -1.5477 -0.4449  1.3443
 3535TIP3   OH210610   1.460   5.305   2.103  0.4011  0.2532 -0.2799
 3535TIP3    H110611   1.529   5.371   2.113  1.4614 -0.2342 -3.2604
 3535TIP3    H210612   1.507   5.221   2.107 -0.8450 -0.4131  2.8790
 3536TIP3   OH210613   6.087   1.698   4.063  0.3442 -0.5330 -0.3583
 3536TIP3    H110614   6.122   1.613   4.037 -0.9863 -1.3853  0.5361
 3536TIP3    H210615   6.013   1.712   4.004 -0.5458 -0.8595  0.6490
 3537TIP3   OH210616   0.366   3.128   3.652 -0.4896 -0.6295 -0.5493
 3537TIP3    H110617   0.383   3.079   3.733 -2.1011 -0.2635  0.0431
 3537TIP3    H210618   0.325   3.209   3.682 -2.0758 -0.9409 -1.7789
 3538TIP3   OH210619   0.410   5.500   4.418 -0.0046 -1.0458 -0.1984
 3538TIP3    H110620   0.319   5.514   4.443  0.5431  2.5376  0.3968
 3538TIP3    H210621   0.421   5.549   4.336  1.7953  0.4874  0.8650
 3539TIP3   OH210622   3.566   3.867   0.626  0.1157 -0.1527 -0.0590
 3539TIP3    H110623   3.566   3.858   0.531 -0.3484  1.3939 -0.2307
 3539TIP3    H210624   3.490   3.818   0.655 -1.1289  1.2777 -0.7353
 3540TIP3   OH210625   4.872   3.588   0.667 -0.0675  0.5692 -0.1117
 3540TIP3    H110626   4.945   3.578   0.607  0.2577 -1.2926  0.5160
 3540TIP3    H210627   4.795   3.598   0.611  0.5164  1.2866 -0.7934
 3541TIP3   OH210628   1.760   5.614   3.383  0.0409  0.9094 -0.1233
 3541TIP3    H110629   1.833   5.568   3.342  1.4719  0.6235  2.5153
 3541TIP3    H210630   1.773   5.705   3.359  1.5483  0.9182  0.5539
 3542TIP3   OH210631   1.487   5.273   3.428 -0.3258  0.4851  0.0639
 3542TIP3    H110632   1.412   5.268   3.487  0.8723  0.4472  1.6640
 3542TIP3    H210633   1.522   5.362   3.442 -0.6459  0.8756 -1.4316
 3543TIP3   OH210634   5.147   2.130   0.310  0.0892 -0.0508  0.2027
 3543TIP3    H110635   5.065   2.161   0.349 -0.2201 -0.2433 -0.2809
 3543TIP3    H210636   5.206   2.206   0.314 -0.3436  0.3054 -0.0890
 3544TIP3   OH210637   2.333   5.069   3.996 -0.6409  0.0546 -0.5752
 3544TIP3    H110638   2.286   4.988   3.979 -1.0536 -0.1568  1.3624
 3544TIP3    H210639   2.266   5.131   4.025 -0.0408  0.3964  0.1334
 3545TIP3   OH210640   3.871   2.561   3.121  0.4347  0.1090 -0.0233
 3545TIP3    H110641   3.800   2.503   3.149 -0.3902  0.6882 -0.8525
 3545TIP3    H210642   3.948   2.504   3.115 -0.1487 -0.7062  0.0722
 3546TIP3   OH210643   2.893   2.656   4.672 -0.4900  0.1665 -0.3055
 3546TIP3    H110644   2.831   2.599   4.626  0.8310 -2.7490  1.2117
 3546TIP3    H210645   2.970   2.659   4.615 -0.2450 -0.3402 -0.0143
 3547TIP3   OH210646   2.699   2.935   1.368  0.1485  0.1812  0.0915
 3547TIP3    H110647   2.789   2.958   1.393  0.3448 -0.2556 -0.2023
 3547TIP3    H210648   2.700   2.935   1.272 -0.1826  0.2392  0.0863
 3548TIP3   OH210649   5.767   5.664   3.506  0.0340  0.1554  0.8710
 3548TIP3    H110650   5.731   5.617   3.581 -1.6453  0.9602  0.6179
 3548TIP3    H210651   5.734   5.753   3.516  0.9152  0.6079 -0.1096
 3549TIP3   OH210652   1.133   4.966   2.403 -0.5039  0.0492  0.2613
 3549TIP3    H110653   1.061   4.975   2.466 -0.2211 -1.6628  0.8805
 3549TIP3    H210654   1.089   4.950   2.319 -0.9495 -2.6904  0.9016
 3550TIP3   OH210655   5.960   3.818   5.002 -0.3040 -0.3395 -0.9776
 3550TIP3    H110656   5.947   3.807   5.096  1.3406  0.2005 -0.6644
 3550TIP3    H210657   5.874   3.847   4.970 -0.7510 -0.0043  0.4409
 3551TIP3   OH210658   4.647   3.614   3.070 -0.5722 -0.1245 -0.8303
 3551TIP3    H110659   4.704   3.647   3.001  2.0536 -0.2869  1.0805
 3551TIP3    H210660   4.701   3.619   3.149 -3.2320 -0.4450  1.1274
 3552TIP3   OH210661   0.848   4.924   0.176 -0.4953 -0.4282  0.1469
 3552TIP3    H110662   0.825   5.015   0.196  1.4631  0.3571 -0.8537
 3552TIP3    H210663   0.771   4.873   0.202 -1.0195  1.3047  2.3067
 3553TIP3   OH210664   3.312   1.147   4.082 -0.1972 -0.1419  0.3076
 3553TIP3    H110665   3.318   1.204   4.158 -1.4417 -0.6351  0.7920
 3553TIP3    H210666   3.284   1.205   4.010 -0.2771  0.0815  0.5181
 3554TIP3   OH210667   5.883   5.493   3.314 -1.3481 -0.4900  0.2775
 3554TIP3    H110668   5.830   5.510   3.236  0.8818  1.3755 -0.9134
 3554TIP3    H210669   5.836   5.538   3.385 -1.3125  1.2604 -0.7690
 3555TIP3   OH210670   0.983   2.723   1.643 -0.4320  0.3149  0.0054
 3555TIP3    H110671   1.043   2.715   1.718 -0.7811 -1.1722  0.1628
 3555TIP3    H210672   1.028   2.678   1.572 -0.5959  0.7548 -0.3814
 3556TIP3   OH210673   5.726   4.801   0.420 -0.3143 -0.2014 -0.3188
 3556TIP3    H110674   5.656   4.746   0.384  1.1890 -1.1589 -1.9446
 3556TIP3    H210675   5.761   4.848   0.344 -0.4071  1.7057  0.7698
 3557TIP3   OH210676   4.442   0.684   4.164 -0.1217  0.0445  0.0145
 3557TIP3    H110677   4.530   0.699   4.200  0.3357 -0.4274 -0.8717
 3557TIP3    H210678   4.409   0.771   4.144  0.0066  0.2476  0.6565
 3558TIP3   OH210679   2.674   5.714   0.488  0.1234  0.6769 -0.1371
 3558TIP3    H110680   2.618   5.787   0.514  1.6399  1.2760  1.5881
 3558TIP3    H210681   2.631   5.637   0.525 -0.1512  1.0021  0.2335
 3559TIP3   OH210682   1.331   4.586   5.111  0.3181  0.3432 -0.4589
 3559TIP3    H110683   1.423   4.564   5.096  0.3225 -0.9303  1.1297
 3559TIP3    H210684   1.332   4.672   5.151  0.7672  0.5797 -0.9706
 3560TIP3   OH210685   4.571   1.505   4.335 -0.0260  0.8459 -0.1244
 3560TIP3    H110686   4.629   1.535   4.404  0.1133 -0.1193  0.1889
 3560TIP3    H210687   4.514   1.441   4.377  1.9507 -1.9813 -1.4751
 3561TIP3   OH210688   0.285   0.702   2.502 -0.3115  0.1553 -0.1859
 3561TIP3    H110689   0.337   0.630   2.537 -0.6911 -0.7527 -1.4521
 3561TIP3    H210690   0.289   0.769   2.571 -0.3496 -1.2260  1.2184
 3562TIP3   OH210691   4.287   5.361   4.424  0.8549 -0.2145 -0.0375
 3562TIP3    H110692   4.346   5.287   4.442  0.7205 -0.7055 -1.5233
 3562TIP3    H210693   4.221   5.355   4.493  1.8365 -0.3973  0.9178
 3563TIP3   OH210694   0.312   0.517   0.225 -0.4268 -0.0539  0.3640
 3563TIP3    H110695   0.287   0.557   0.142 -0.5392 -1.7475 -0.4459
 3563TIP3    H210696   0.372   0.580   0.265  0.1393  0.4981 -1.2941
 3564TIP3   OH210697   6.223   0.872   0.051 -0.1125 -0.9857  0.3285
 3564TIP3    H110698   6.169   0.795   0.068 -1.1918 -0.4383 -0.4635
 3564TIP3    H210699   6.172   0.945   0.086 -0.5983 -0.2926 -1.6868
 3565TIP3   OH210700   2.983   5.433   1.039  0.5403 -0.2204 -0.3653
 3565TIP3    H110701   3.018   5.375   0.971  1.1366 -0.7757  0.3994
 3565TIP3    H210702   3.061   5.463   1.086  0.2918  1.5500 -0.9985
 3566TIP3   OH210703   2.666   2.144   4.865  0.5348 -0.3567  0.1243
 3566TIP3    H110704   2.592   2.169   4.809 -0.4181 -0.0280  1.4975
 3566TIP3    H210705   2.647   2.183   4.950  1.9235 -0.8993  0.7186
 3567TIP3   OH210706   5.530   4.881   4.716 -0.2700 -0.0143  0.0646
 3567TIP3    H110707   5.611   4.836   4.741  1.1141  2.8883  1.3842
 3567TIP3    H210708   5.549   4.917   4.629 -0.7843 -0.6577 -0.3220
 3568TIP3   OH210709   2.093   3.015   4.820  0.4201 -0.1315 -0.1282
 3568TIP3    H110710   2.005   3.007   4.857 -0.1127 -1.1215 -1.5260
 3568TIP3    H210711   2.143   3.061   4.888 -1.2698  0.8699  0.5078
 3569TIP3   OH210712   2.314   0.915   3.992  0.6255 -0.1220  0.7233
 3569TIP3    H110713   2.388   0.943   4.045  0.9052  0.7804 -0.0996
 3569TIP3    H210714   2.309   0.980   3.922  0.8659 -1.7650 -0.8985
 3570TIP3   OH210715   5.972   0.683   3.145  0.1323  0.5634  0.5568
 3570TIP3    H110716   5.946   0.591   3.146  0.3875  0.4159 -1.6057
 3570TIP3    H210717   6.065   0.681   3.125 -0.2078  1.2944 -1.2767
 3571TIP3   OH210718   2.564   5.498   2.953 -0.4776 -0.1948 -0.3014
 3571TIP3    H110719   2.616   5.548   3.016  0.2593 -1.8977  0.5231
 3571TIP3    H210720   2.486   5.471   3.001 -1.2436  0.7481 -0.9674
 3572TIP3   OH210721   2.842   0.556   1.809 -0.0145  0.0444 -0.6449
 3572TIP3    H110722   2.824   0.636   1.859 -2.2893 -1.8639  1.9070
 3572TIP3    H210723   2.911   0.512   1.859 -0.4530 -0.6522 -0.6368
 3573TIP3   OH210724   0.244   2.036   2.302 -0.3631 -0.0547 -0.7966
 3573TIP3    H110725   0.200   2.081   2.230 -0.1895 -2.1358 -2.3110
 3573TIP3    H210726   0.237   1.943   2.279  0.6339 -0.7190  1.3655
 3574TIP3   OH210727   5.365   0.044   0.066  0.0253 -0.1044  0.6222
 3574TIP3    H110728   5.304   0.101   0.020 -0.0463 -0.9289 -0.3538
 3574TIP3    H210729   5.325   0.028   0.152  0.1718  1.4833  1.0034
 3575TIP3   OH210730   4.956   3.437   0.161 -0.1141 -0.1267 -0.1996
 3575TIP3    H110731   5.043   3.419   0.196  0.0703  0.7981 -0.1549
 3575TIP3    H210732   4.949   3.533   0.162  0.5703  0.1506 -4.1902
 3576TIP3   OH210733   0.551   3.177   1.492  0.4058  0.1377  0.8211
 3576TIP3    H110734   0.542   3.108   1.426  2.6992 -0.1034  0.6678
 3576TIP3    H210735   0.526   3.136   1.574 -1.5944  0.1780  0.2822
 3577TIP3   OH210736   1.401   5.779  -0.001 -0.4944 -0.3771 -0.2202
 3577TIP3    H110737   1.483   5.819   0.030 -0.5073 -0.6674  0.1925
 3577TIP3    H210738   1.420   5.685  -0.006 -0.1744 -0.2548 -2.0859
 3578TIP3   OH210739   5.221   3.524   3.375  0.3890  0.0322  0.1620
 3578TIP3    H110740   5.175   3.508   3.457  0.4342  2.4449  0.7138
 3578TIP3    H210741   5.152   3.540   3.311  0.4066  0.2102  0.1893
 3579TIP3   OH210742   0.899   5.452   3.885 -0.0299 -0.0848 -0.2849
 3579TIP3    H110743   0.837   5.490   3.947  1.3090  0.0208  1.0538
 3579TIP3    H210744   0.907   5.361   3.911  0.6194 -0.0180 -0.2422
 3580TIP3   OH210745   1.427   4.753   1.487 -0.7948 -0.4190  0.9443
 3580TIP3    H110746   1.373   4.745   1.566  0.0655 -0.6494  1.5323
 3580TIP3    H210747   1.464   4.666   1.474 -0.7518 -0.3244  0.4207
 3581TIP3   OH210748   0.226   3.780   4.789 -0.0055  0.0327  0.1827
 3581TIP3    H110749   0.149   3.781   4.733 -1.0142 -1.1952  1.4649
 3581TIP3    H210750   0.191   3.785   4.878  1.4907  0.9415  0.7525
 3582TIP3   OH210751   2.621   4.889   0.718 -0.0819 -0.3132 -0.1359
 3582TIP3    H110752   2.694   4.896   0.656 -0.3624 -0.9890 -0.5547
 3582TIP3    H210753   2.641   4.812   0.771  0.6077  0.7787  1.2446
 3583TIP3   OH210754   0.740   3.691   3.462 -0.0463  0.1138 -0.0278
 3583TIP3    H110755   0.745   3.633   3.539 -2.0456  1.3088  1.1142
 3583TIP3    H210756   0.717   3.777   3.498 -0.8465  0.7684 -1.9500
 3584TIP3   OH210757   1.924   2.973   3.206 -0.7015 -0.4559 -0.1742
 3584TIP3    H110758   1.942   2.946   3.296  0.6966 -2.3121 -0.9366
 3584TIP3    H210759   1.834   2.942   3.190 -0.9211 -0.2018  0.5416
 3585TIP3   OH210760   4.812   0.852   4.088  0.0335 -0.1308 -0.0330
 3585TIP3    H110761   4.817   0.891   4.001 -0.6549  0.6082  0.2450
 3585TIP3    H210762   4.783   0.763   4.073  2.8728 -1.0347 -0.7864
 3586TIP3   OH210763   5.453   3.360   0.187 -0.4792 -0.1984 -0.4060
 3586TIP3    H110764   5.428   3.270   0.163 -0.5377 -0.6028  1.0756
 3586TIP3    H210765   5.533   3.350   0.239 -1.1014  0.4955  0.7294
 3587TIP3   OH210766   1.142   4.309   0.227  0.1926 -0.0370  0.1742
 3587TIP3    H110767   1.149   4.386   0.171 -0.2719 -1.2020 -1.6031
 3587TIP3    H210768   1.227   4.266   0.219  0.5194  0.3671  1.3195
 3588TIP3   OH210769   1.598   0.214   5.094  0.2022  0.6208 -0.1707
 3588TIP3    H110770   1.559   0.294   5.127 -1.2596  0.7723 -2.0954
 3588TIP3    H210771   1.649   0.242   5.018 -1.2537 -0.3674 -1.5676
 3589TIP3   OH210772   5.669   5.148   4.680  0.2774 -0.2212 -0.0706
 3589TIP3    H110773   5.584   5.124   4.718  0.0450  0.6570 -0.0165
 3589TIP3    H210774   5.718   5.187   4.752  0.4575 -0.0762 -0.2704
 3590TIP3   OH210775   4.269   3.105   2.685 -0.5992 -0.3705  0.6128
 3590TIP3    H110776   4.350   3.127   2.640 -0.3136  0.3009  1.4420
 3590TIP3    H210777   4.248   3.017   2.654  0.4566 -0.5595  0.4048
 3591TIP3   OH210778   5.647   2.837   1.181  0.6123 -0.2196  0.2316
 3591TIP3    H110779   5.644   2.812   1.273  1.7882 -2.9989 -0.3645
 3591TIP3    H210780   5.688   2.762   1.138  2.7498  2.1511 -2.1923
 3592TIP3   OH210781   5.971   2.891   0.220 -0.1807  0.1268  0.2079
 3592TIP3    H110782   5.997   2.870   0.131  1.2877 -0.4375  0.7321
 3592TIP3    H210783   5.917   2.970   0.212 -0.3549 -0.1192 -1.1932
 3593TIP3   OH210784   4.368   2.572   2.933  0.0904  0.0617 -0.0800
 3593TIP3    H110785   4.447   2.530   2.899 -1.9189 -3.6246 -0.8484
 3593TIP3    H210786   4.313   2.587   2.856 -0.5538  1.1769  0.5688
 3594TIP3   OH210787   2.435   4.831   5.043 -0.0406 -0.4785 -0.1000
 3594TIP3    H110788   2.355   4.874   5.012 -0.1652  0.8790  1.9478
 3594TIP3    H210789   2.410   4.739   5.053 -1.7835  0.1195  1.7312
 3595TIP3   OH210790   2.408   1.141   3.187 -0.9565 -0.9262  0.6606
 3595TIP3    H110791   2.410   1.151   3.282  0.2007 -2.4562  0.8359
 3595TIP3    H210792   2.435   1.050   3.172  1.0677 -0.0892 -1.2361
 3596TIP3   OH210793   1.119   0.829   4.019  0.1085 -0.3284  0.0423
 3596TIP3    H110794   1.100   0.747   3.974  1.9739 -0.4546 -0.6256
 3596TIP3    H210795   1.178   0.876   3.959 -0.2765  1.1324  0.7707
 3597TIP3   OH210796   4.644   4.671   1.747 -0.2147 -0.4894  0.2701
 3597TIP3    H110797   4.732   4.690   1.713 -1.2874 -0.6959 -2.9762
 3597TIP3    H210798   4.603   4.757   1.757  0.2187 -0.4095  1.4755
 3598TIP3   OH210799   5.697   1.852   3.895 -0.3198 -0.0604 -0.0819
 3598TIP3    H110800   5.774   1.803   3.867  0.5531  0.1441  1.7970
 3598TIP3    H210801   5.632   1.785   3.918  0.0663 -0.3028  0.3231
 3599TIP3   OH210802   0.075   4.002   0.641 -0.7558  0.6707 -0.8643
 3599TIP3    H110803   0.160   4.021   0.681 -0.3532 -1.4030 -0.6227
 3599TIP3    H210804   0.014   3.997   0.714 -0.8320  0.8906 -0.9123
 3600TIP3   OH210805   1.448   5.686   0.620 -0.0363  0.3155 -0.0476
 3600TIP3    H110806   1.487   5.599   0.609  1.1845  0.7994  0.2993
 3600TIP3    H210807   1.390   5.676   0.696 -1.8632 -0.8094 -1.5024
 3601TIP3   OH210808   0.055   3.162   3.093 -0.1679  0.1992 -0.2263
 3601TIP3    H110809   0.038   3.235   3.153  0.3697  2.3474 -2.5365
 3601TIP3    H210810   0.148   3.143   3.105 -0.1902  0.2446  0.0259
 3602TIP3   OH210811   4.575   4.644   1.354  0.5138 -0.4287 -0.4040
 3602TIP3    H110812   4.520   4.602   1.420 -0.9639  1.2149 -0.5289
 3602TIP3    H210813   4.516   4.662   1.281  1.8978 -1.2632 -1.7855
 3603TIP3   OH210814   1.204   0.687   1.946  0.1375 -0.0121  0.2830
 3603TIP3    H110815   1.109   0.696   1.938  0.3581  1.9170 -0.8588
 3603TIP3    H210816   1.217   0.636   2.026 -1.8433 -0.1541  0.5650
 3604TIP3   OH210817   6.269   3.692   1.266 -0.4160 -0.1388 -0.2452
 3604TIP3    H110818   6.301   3.664   1.352 -1.3742 -0.6216 -0.0286
 3604TIP3    H210819   6.302   3.781   1.256  0.3598 -0.3584  0.2819
 3605TIP3   OH210820   3.377   2.403   0.369  0.2251  0.3014  0.3267
 3605TIP3    H110821   3.446   2.456   0.411  1.7305 -1.0933 -0.2709
 3605TIP3    H210822   3.298   2.455   0.379  0.8469  0.8515  3.3015
 3606TIP3   OH210823   2.498   0.445   1.158 -0.4785 -0.6134  0.0082
 3606TIP3    H110824   2.585   0.409   1.176 -1.2684 -2.0712  1.0498
 3606TIP3    H210825   2.513   0.509   1.088  1.4344 -0.7589  0.2346
 3607TIP3   OH210826   4.184   2.150   5.060  0.0091 -0.3710  0.3390
 3607TIP3    H110827   4.262   2.109   5.022 -0.2305 -0.6344  0.1234
 3607TIP3    H210828   4.158   2.091   5.131 -1.2071 -1.4073 -0.9238
 3608TIP3   OH210829   0.454   0.698   1.133 -0.2554  0.1391 -0.2780
 3608TIP3    H110830   0.489   0.784   1.158  0.2439 -0.2817  0.5076
 3608TIP3    H210831   0.363   0.715   1.111  0.1959  1.1131 -1.5179
 3609TIP3   OH210832   5.639   3.947   0.934  0.1524 -0.0388  0.5007
 3609TIP3    H110833   5.558   3.997   0.928 -1.2185 -2.0258  1.3885
 3609TIP3    H210834   5.661   3.949   1.027  1.1661  0.5204  0.2583
 3610TIP3   OH210835   1.290   3.214   3.428  0.3443  0.1579 -0.2005
 3610TIP3    H110836   1.242   3.266   3.493 -0.9625 -0.0854 -0.9512
 3610TIP3    H210837   1.282   3.124   3.459  0.8104  0.1660 -0.0386
 3611TIP3   OH210838   4.666   5.088   3.614  0.3068 -0.0276 -0.4648
 3611TIP3    H110839   4.673   5.053   3.525 -0.5610  0.4089 -0.7234
 3611TIP3    H210840   4.689   5.015   3.671 -0.0194 -0.5754 -1.0272
 3612TIP3   OH210841   0.095   2.484   3.552 -0.4383  0.1304 -0.6062
 3612TIP3    H110842   0.006   2.474   3.587  0.4617  1.4075  2.3892
 3612TIP3    H210843   0.145   2.413   3.591  0.0208 -0.2673 -1.8544
 3613TIP3   OH210844   4.737   1.165   4.043  0.2527  0.0989 -0.2318
 3613TIP3    H110845   4.784   1.230   3.991  0.2293  0.8622  0.6702
 3613TIP3    H210846   4.711   1.098   3.980  0.3893  0.8965 -1.1624
 3614TIP3   OH210847   5.082   3.357   3.801  0.6747 -0.0798 -0.2737
 3614TIP3    H110848   4.996   3.326   3.774  1.1802 -1.5730 -0.2803
 3614TIP3    H210849   5.099   3.434   3.746 -1.0549  0.8665  0.4416
 3615TIP3   OH210850   2.968   5.468   3.791  0.2255 -0.5333 -0.0499
 3615TIP3    H110851   3.042   5.500   3.739  0.1821  2.6575  1.6629
 3615TIP3    H210852   2.896   5.528   3.771 -0.8052 -1.3116  1.1338
 3616TIP3   OH210853   6.356   3.389   4.865  0.0409 -0.0063  0.3606
 3616TIP3    H110854   6.285   3.448   4.890  1.1620  0.3624  3.0957
 3616TIP3    H210855   6.328   3.303   4.897  0.0946 -0.1821 -0.0660
 3617TIP3   OH210856   5.294   4.199   0.128 -0.7605  0.0306  0.3202
 3617TIP3    H110857   5.259   4.243   0.205  1.0208  1.1099  0.5649
 3617TIP3    H210858   5.353   4.131   0.163  1.4520  1.6680  0.0083
 3618TIP3   OH210859   4.951   5.264   2.819 -0.1254  0.2883  0.3001
 3618TIP3    H110860   4.976   5.226   2.736  0.8739 -0.1037  0.7662
 3618TIP3    H210861   4.883   5.206   2.853  0.4638 -0.3468  0.4020
 3619TIP3   OH210862   4.415   3.174   4.981 -0.1571  0.3068 -0.0432
 3619TIP3    H110863   4.414   3.078   4.976  0.6808  0.2065  1.1288
 3619TIP3    H210864   4.430   3.203   4.891 -0.1331 -0.6735 -0.3652
 3620TIP3   OH210865   3.362   5.270   4.069 -0.0787  0.0830 -0.1470
 3620TIP3    H110866   3.300   5.293   4.000  0.2283 -0.7532 -0.7100
 3620TIP3    H210867   3.320   5.197   4.116 -0.0735  0.3360  0.2624
 3621TIP3   OH210868   4.015   2.997   4.278 -0.2063  0.2404 -0.1759
 3621TIP3    H110869   4.013   3.086   4.313 -0.4761  0.4382 -0.6921
 3621TIP3    H210870   4.108   2.973   4.279  0.1911  1.4089 -2.2353
 3622TIP3   OH210871   6.041   3.945   1.883 -0.4454  0.0697 -0.3289
 3622TIP3    H110872   6.108   4.010   1.861 -1.3638  1.5572  1.0404
 3622TIP3    H210873   6.090   3.865   1.902  0.7972  0.6570 -0.9445
 3623TIP3   OH210874   4.926   5.392   3.441 -0.0870 -0.0777  0.3481
 3623TIP3    H110875   4.914   5.380   3.535 -1.3022  0.1161  0.2397
 3623TIP3    H210876   4.964   5.310   3.410  1.2215  0.2135  1.1433
 3624TIP3   OH210877   5.372   3.184   0.796  0.2020 -0.0797 -0.4320
 3624TIP3    H110878   5.445   3.243   0.815  0.4281 -0.7691  1.0196
 3624TIP3    H210879   5.294   3.240   0.801  0.3991  0.1038  1.0555
 3625TIP3   OH210880   5.758   2.360   2.694  0.1079 -0.3133 -0.2484
 3625TIP3    H110881   5.706   2.382   2.617 -0.3640 -1.8946 -0.3954
 3625TIP3    H210882   5.798   2.444   2.719 -1.1756  0.6066 -1.1048
 3626TIP3   OH210883   3.303   0.585   1.746  0.6032  0.6344  0.0429
 3626TIP3    H110884   3.252   0.647   1.693  0.1718  0.1902 -0.0654
 3626TIP3    H210885   3.394   0.602   1.721  0.6041  2.0903  0.9325
 3627TIP3   OH210886   1.435   0.058   3.193  0.1076 -0.7659 -0.4592
 3627TIP3    H110887   1.517   0.075   3.148  0.3774 -1.0220 -0.0704
 3627TIP3    H210888   1.434  -0.036   3.207 -0.1045 -0.7270 -0.1919
 3628TIP3   OH210889   4.764   5.877   1.843 -0.7001  0.5231  0.3829
 3628TIP3    H110890   4.834   5.887   1.777 -0.8883  0.1412  0.1213
 3628TIP3    H210891   4.688   5.920   1.804 -0.6258  0.9162  0.6580
 3629TIP3   OH210892   4.373   2.357   3.800  0.3557  0.3721 -0.4204
 3629TIP3    H110893   4.388   2.265   3.780  1.1831  0.5570 -0.6680
 3629TIP3    H210894   4.408   2.368   3.888 -0.7406  0.2099  0.0579
 3630TIP3   OH210895   0.517   3.216   4.858 -0.0721 -0.2116  0.2987
 3630TIP3    H110896   0.441   3.267   4.885 -0.3654 -1.5722  2.2258
 3630TIP3    H210897   0.507   3.207   4.763 -1.3227  1.1634  0.2718
 3631TIP3   OH210898   2.680   1.212   4.259  0.2635 -0.7067 -0.6803
 3631TIP3    H110899   2.601   1.178   4.217 -1.3167  0.9443  0.7974
 3631TIP3    H210900   2.702   1.147   4.326 -1.0197 -0.2779  0.1946
 3632TIP3   OH210901   5.562   3.308   3.231 -0.0241  0.2463 -0.5298
 3632TIP3    H110902   5.474   3.344   3.222  0.1040  1.5000  2.1403
 3632TIP3    H210903   5.549   3.219   3.263 -0.3213  0.0491 -1.1946
 3633TIP3   OH210904   5.197   1.243   4.379 -0.2238  0.3109  0.1313
 3633TIP3    H110905   5.266   1.196   4.427  1.1159  0.1649 -1.8102
 3633TIP3    H210906   5.127   1.179   4.369 -0.0149 -0.0347  0.8056
 3634TIP3   OH210907   3.602   2.953   3.235  0.4859 -0.7242 -0.1984
 3634TIP3    H110908   3.632   2.872   3.277 -0.2040 -1.5795 -1.2838
 3634TIP3    H210909   3.514   2.932   3.204  1.3366 -0.5305 -3.0126
 3635TIP3   OH210910   4.019   4.904   0.926  0.0199 -0.4153  0.0343
 3635TIP3    H110911   4.032   4.819   0.885  0.5113 -0.2261 -0.2098
 3635TIP3    H210912   3.949   4.945   0.875  1.1084  0.1076 -1.0978
 3636TIP3   OH210913   4.648   2.888   2.883 -0.2014 -0.5219  0.2308
 3636TIP3    H110914   4.677   2.821   2.821 -1.7871  1.3386 -2.6952
 3636TIP3    H210915   4.718   2.954   2.881 -0.3883 -0.3249  0.1920
 3637TIP3   OH210916   1.590   4.930   1.734  0.5232 -0.0555  0.0680
 3637TIP3    H110917   1.648   4.855   1.721  1.6468  1.2393 -3.4108
 3637TIP3    H210918   1.508   4.891   1.764  1.5844 -2.4914  0.0902
 3638TIP3   OH210919   4.027   1.544   1.749  0.6722 -0.2086  0.3730
 3638TIP3    H110920   3.987   1.480   1.807  0.9699 -0.6296  0.1196
 3638TIP3    H210921   4.119   1.547   1.775  0.7101 -0.0583  0.2271
 3639TIP3   OH210922   2.705   0.262   3.495 -0.8853 -0.0486 -0.4912
 3639TIP3    H110923   2.689   0.185   3.440 -0.3115 -1.3978  1.1566
 3639TIP3    H210924   2.652   0.247   3.573 -0.0554  0.8016  0.2443
 3640TIP3   OH210925   0.885   4.310   0.757 -0.0246 -0.1585  0.3654
 3640TIP3    H110926   0.822   4.381   0.768  0.7845  0.5680  0.4320
 3640TIP3    H210927   0.837   4.244   0.707 -1.1563 -0.0621  1.2643
 3641TIP3   OH210928   0.854   3.348   2.482 -0.0227 -0.3995  0.3007
 3641TIP3    H110929   0.923   3.393   2.433 -1.5677  2.7009  0.6892
 3641TIP3    H210930   0.898   3.313   2.560  1.8014 -2.2855 -1.4839
 3642TIP3   OH210931   0.115   5.397   0.456 -0.1062  0.0097 -0.2802
 3642TIP3    H110932   0.188   5.449   0.424  0.0681 -0.3761 -0.5142
 3642TIP3    H210933   0.138   5.377   0.547 -0.0529  0.1223 -0.2688
 3643TIP3   OH210934   1.249   4.170   2.080  0.1756 -0.0063 -0.4017
 3643TIP3    H110935   1.309   4.196   2.010  0.7965  1.1665  0.5226
 3643TIP3    H210936   1.162   4.191   2.046  0.1755 -2.1408 -1.9417
 3644TIP3   OH210937   5.549   3.633   2.231 -0.1505  0.0365  0.3417
 3644TIP3    H110938   5.536   3.569   2.161 -0.8790 -0.4842  0.9380
 3644TIP3    H210939   5.551   3.718   2.186 -2.8935 -0.0550 -0.1346
 3645TIP3   OH210940   3.148   5.483   4.008 -0.5031  0.5686 -0.2434
 3645TIP3    H110941   3.183   5.571   4.000  2.2614 -0.4340 -0.3368
 3645TIP3    H210942   3.086   5.474   3.936 -0.8841  2.4033 -0.1888
 3646TIP3   OH210943   2.804   4.001   4.727 -0.2070  0.6038  0.5529
 3646TIP3    H110944   2.871   3.933   4.737  1.2774  1.9998  0.5789
 3646TIP3    H210945   2.783   4.001   4.634  0.3279  0.5875  0.4310
 3647TIP3   OH210946   3.373   1.988   3.623  0.3469  0.4261 -0.6626
 3647TIP3    H110947   3.455   2.002   3.671  0.1599  0.0092 -0.2117
 3647TIP3    H210948   3.363   1.892   3.622 -0.0607  0.4704 -0.8448
 3648TIP3   OH210949   3.484   2.417   0.812 -0.1227  0.1951 -0.4791
 3648TIP3    H110950   3.448   2.328   0.812  0.2865  0.0297 -1.2222
 3648TIP3    H210951   3.407   2.473   0.801 -0.4680 -0.0151  0.6589
 3649TIP3   OH210952   5.981   1.442   5.135  0.5717  0.6918 -0.3148
 3649TIP3    H110953   5.901   1.495   5.130  1.0074  1.3630 -0.3400
 3649TIP3    H210954   6.052   1.506   5.131  1.1133  0.0967 -0.3515
 3650TIP3   OH210955   4.661   5.642   1.567  0.2882  0.6673  0.0677
 3650TIP3    H110956   4.683   5.549   1.560  0.1985  0.6896 -0.5663
 3650TIP3    H210957   4.661   5.660   1.661  0.2359  0.0079  0.1961
 3651TIP3   OH210958   0.681   1.889   1.376  0.4490  0.2132  0.6394
 3651TIP3    H110959   0.702   1.862   1.286  0.9369  2.0630  0.1640
 3651TIP3    H210960   0.678   1.807   1.425  1.0558 -0.7676 -0.8852
 3652TIP3   OH210961   2.032   0.452   2.030 -0.3976  0.1260  0.1346
 3652TIP3    H110962   2.016   0.473   2.122 -0.7187  1.3369 -0.1802
 3652TIP3    H210963   2.003   0.530   1.983 -1.8692 -1.1427 -1.1370
 3653TIP3   OH210964   0.798   0.825   2.837 -0.0889  0.6670  0.3827
 3653TIP3    H110965   0.817   0.733   2.821 -0.7643  0.4355  0.8606
 3653TIP3    H210966   0.724   0.845   2.780 -1.3200  0.3254  1.7992
 3654TIP3   OH210967   3.775   0.782   0.085 -0.3247 -0.4066  0.2332
 3654TIP3    H110968   3.744   0.824   0.165  0.5477 -0.0914  0.4255
 3654TIP3    H210969   3.720   0.705   0.075  0.0620 -0.8913  1.5845
 3655TIP3   OH210970   3.517   5.196   3.527 -0.0226  0.4127  0.2314
 3655TIP3    H110971   3.542   5.278   3.483 -0.5770  1.3198  1.5265
 3655TIP3    H210972   3.504   5.134   3.456 -0.7382  1.7724 -0.8779
 3656TIP3   OH210973   3.379   5.479   2.334 -0.7185 -0.4185  0.7426
 3656TIP3    H110974   3.426   5.559   2.311 -0.5512 -0.4652  0.9181
 3656TIP3    H210975   3.400   5.418   2.263 -1.6249 -0.0049  0.0935
 3657TIP3   OH210976   0.692   0.051   1.437  0.0456 -0.2530 -0.1404
 3657TIP3    H110977   0.617   0.031   1.381 -0.2472 -0.7293  0.4096
 3657TIP3    H210978   0.717   0.140   1.413 -0.6474 -0.1183 -0.3832
 3658TIP3   OH210979   4.638   5.824   2.104 -0.1279 -0.7094  0.9576
 3658TIP3    H110980   4.571   5.785   2.160 -0.3748 -1.6855  0.0165
 3658TIP3    H210981   4.592   5.894   2.057 -0.0476 -0.2390  1.5644
 3659TIP3   OH210982   3.986   2.677   0.092 -0.0284  0.7962 -0.2219
 3659TIP3    H110983   3.960   2.593   0.054 -0.2944  0.7220  0.1213
 3659TIP3    H210984   4.020   2.655   0.179  0.5219  0.9730 -0.3868
 3660TIP3   OH210985   5.590   5.992   0.115 -0.1484  0.0199  0.4419
 3660TIP3    H110986   5.667   5.936   0.122 -0.3988 -0.9025 -2.6919
 3660TIP3    H210987   5.517   5.936   0.141 -0.0634 -0.0460  0.5392
 3661TIP3   OH210988   3.792   4.451   4.757 -0.0596 -0.3470  0.8227
 3661TIP3    H110989   3.751   4.366   4.771 -2.0310  0.5113  0.5869
 3661TIP3    H210990   3.726   4.515   4.785  0.8662  1.1308 -0.2125
 3662TIP3   OH210991   0.925   2.083   2.373  0.2309  0.0745  0.0129
 3662TIP3    H110992   0.838   2.043   2.372  0.5017 -0.5332  0.3086
 3662TIP3    H210993   0.932   2.127   2.288 -0.2012 -0.2236 -0.1798
 3663TIP3   OH210994   5.884   0.486   4.145  0.1636  0.2446 -0.4340
 3663TIP3    H110995   5.890   0.390   4.145 -0.3911  0.2040  0.2730
 3663TIP3    H210996   5.973   0.516   4.127 -0.1728 -0.4119 -4.0674
 3664TIP3   OH210997   6.211   4.532   1.871 -0.3655  0.1100 -0.1796
 3664TIP3    H110998   6.213   4.510   1.964  2.2476 -0.4800 -0.2775
 3664TIP3    H210999   6.142   4.476   1.835  0.5992 -1.9629  0.9470
 3665TIP3   OH211000   3.686   4.860   4.747  0.0861  0.0959 -0.0108
 3665TIP3    H111001   3.642   4.808   4.680 -1.5495 -0.5348  1.5124
 3665TIP3    H211002   3.651   4.948   4.735 -2.3250 -0.5398  1.6704
 3666TIP3   OH211003   4.177   0.802   1.624  0.1083 -0.5961 -0.2785
 3666TIP3    H111004   4.214   0.725   1.580  1.1704  0.3800 -1.1628
 3666TIP3    H211005   4.226   0.809   1.706 -0.2339 -1.0671 -0.0354
 3667TIP3   OH211006   1.621   2.636   4.183  0.3506 -0.1564  0.9671
 3667TIP3    H111007   1.659   2.576   4.118  1.0775 -0.5710  1.7470
 3667TIP3    H211008   1.697   2.683   4.218 -0.1475  0.7526  0.8387
 3668TIP3   OH211009   3.018   3.951   2.797  0.2796 -0.3398 -0.0122
 3668TIP3    H111010   2.985   3.945   2.886 -0.1456 -3.3179 -0.2743
 3668TIP3    H211011   2.979   4.032   2.762 -2.9884 -1.2463  1.1986
 3669TIP3   OH211012   4.011   5.092   2.230 -0.1389  0.1839 -0.4189
 3669TIP3    H111013   3.993   4.998   2.231  0.4771  0.0595  0.0414
 3669TIP3    H211014   4.004   5.117   2.138  2.1958 -0.8438 -0.9663
 3670TIP3   OH211015   2.377   2.588   3.887 -0.2015 -0.1811  0.1287
 3670TIP3    H111016   2.464   2.607   3.854 -0.3558  0.7744  0.2390
 3670TIP3    H211017   2.321   2.588   3.810 -0.3610  0.8387  0.2280
 3671TIP3   OH211018   1.708   3.873   2.374 -0.1583 -0.1769 -0.0383
 3671TIP3    H111019   1.751   3.788   2.382  2.2645  0.9364 -0.2985
 3671TIP3    H211020   1.728   3.901   2.284 -1.1986  0.5249 -0.0624
 3672TIP3   OH211021   2.742   5.370   0.251 -0.5072  0.3748 -0.6280
 3672TIP3    H111022   2.699   5.452   0.226 -1.3391 -0.2806 -1.3910
 3672TIP3    H211023   2.691   5.301   0.209 -0.0368 -0.5744  0.2923
 3673TIP3   OH211024   0.591   2.508   3.426  0.5606 -0.4874  0.9785
 3673TIP3    H111025   0.520   2.444   3.426 -1.0053  0.9728 -3.1319
 3673TIP3    H211026   0.557   2.582   3.477 -0.6494 -0.0856 -0.3606
 3674TIP3   OH211027   3.690   1.515  -0.016 -0.1053 -0.1093  0.1453
 3674TIP3    H111028   3.668   1.456   0.056  1.2961 -1.3668 -0.3881
 3674TIP3    H211029   3.715   1.597   0.026 -0.8002 -0.3136  0.9856
 3675TIP3   OH211030   4.553   4.046   1.847 -0.0042 -0.2697  0.1720
 3675TIP3    H111031   4.604   4.099   1.786 -1.1812  0.2936 -0.3746
 3675TIP3    H211032   4.481   4.012   1.794 -0.7543 -0.2137  1.1263
 3676TIP3   OH211033   1.237   3.381   0.762  0.2521 -0.0340  0.2558
 3676TIP3    H111034   1.269   3.408   0.848 -1.4235 -2.5778  1.7779
 3676TIP3    H211035   1.295   3.308   0.737 -0.0358 -0.1036 -0.2165
 3677TIP3   OH211036   3.177   3.845   0.997 -0.0679 -0.2551  0.4052
 3677TIP3    H111037   3.142   3.825   0.910  0.1010  0.7041  0.0946
 3677TIP3    H211038   3.204   3.937   0.991  0.4192 -0.3227  1.3214
 3678TIP3   OH211039   3.586   4.286   1.398 -0.0633 -0.0964  0.0468
 3678TIP3    H111040   3.496   4.308   1.374  0.5551 -0.0460 -2.4929
 3678TIP3    H211041   3.640   4.333   1.335  1.8316  0.5638  2.0441
 3679TIP3   OH211042   1.252   2.100   1.136 -0.3414 -0.2716 -0.7617
 3679TIP3    H111043   1.332   2.080   1.185 -0.8936  0.3164  0.4066
 3679TIP3    H211044   1.219   2.014   1.110 -0.6549 -0.6918  0.9174
 3680TIP3   OH211045   3.070   4.929   3.312 -0.0606 -0.0977 -0.8052
 3680TIP3    H111046   2.990   4.884   3.286 -1.1951  0.5914  1.2132
 3680TIP3    H211047   3.124   4.862   3.353 -0.5637 -0.1592 -0.2358
 3681TIP3   OH211048   1.028   4.769   2.925  0.0932  0.1066 -0.2351
 3681TIP3    H111049   1.075   4.704   2.977  0.3058  0.5203  0.0922
 3681TIP3    H211050   0.972   4.815   2.987  0.1004  0.3808 -0.4268
 3682TIP3   OH211051   5.771   4.128   4.429 -0.5844 -0.0125  0.0371
 3682TIP3    H111052   5.780   4.135   4.334 -2.1022  0.9140 -0.0607
 3682TIP3    H211053   5.683   4.161   4.448 -0.3517 -0.2807  1.7603
 3683TIP3   OH211054   6.171   1.111   0.761 -0.3473 -0.1751 -0.1060
 3683TIP3    H111055   6.130   1.051   0.699 -0.7109 -0.3883  0.3356
 3683TIP3    H211056   6.111   1.184   0.768  0.3062  0.4681 -0.9827
 3684TIP3   OH211057   3.427   3.827   4.392  0.0156 -0.3972 -0.4367
 3684TIP3    H111058   3.522   3.829   4.403 -0.0537 -0.0745  0.1664
 3684TIP3    H211059   3.403   3.918   4.375 -0.2485 -0.3868 -0.0096
 3685TIP3   OH211060   0.108   1.911   1.529  0.3534 -0.4247 -0.8968
 3685TIP3    H111061   0.067   1.825   1.541  0.1332 -0.1610  0.3744
 3685TIP3    H211062   0.184   1.894   1.473 -0.7946 -1.1097 -2.3276
 3686TIP3   OH211063   0.234   5.886   0.035 -0.0557 -0.2470 -0.5321
 3686TIP3    H111064   0.150   5.885   0.080  0.6337  0.3701  0.8520
 3686TIP3    H211065   0.212   5.881  -0.058 -1.5555 -1.1763 -0.1597
 3687TIP3   OH211066   5.805   1.059   4.446 -0.3474 -0.1870 -0.5048
 3687TIP3    H111067   5.771   1.028   4.362  1.3781 -3.2226 -0.2366
 3687TIP3    H211068   5.899   1.064   4.434 -0.1112 -0.0973  1.0892
 3688TIP3   OH211069   3.625   1.990   1.751 -0.0746 -0.0572 -0.0511
 3688TIP3    H111070   3.680   1.912   1.742  0.0575  0.2600 -2.5892
 3688TIP3    H211071   3.536   1.958   1.739 -0.1158  0.0320  0.0165
 3689TIP3   OH211072   2.434   5.023   2.914 -0.0807  0.4464 -0.1097
 3689TIP3    H111073   2.354   4.979   2.884 -0.2299  2.1201 -2.3790
 3689TIP3    H211074   2.406   5.074   2.990 -0.5694 -0.9150  0.6615
 3690TIP3   OH211075   0.366   2.199   2.476  0.5440 -0.3994 -0.5145
 3690TIP3    H111076   0.334   2.153   2.554  1.2697 -2.8271 -1.5618
 3690TIP3    H211077   0.329   2.151   2.403 -0.8479  2.3702 -1.7753
 3691TIP3   OH211078   6.332   0.856   2.634 -0.5042 -0.3000  0.0787
 3691TIP3    H111079   6.356   0.784   2.576 -0.8642 -0.9948  0.7682
 3691TIP3    H211080   6.260   0.900   2.588  1.1433  1.0048 -1.3841
 3692TIP3   OH211081   4.464   0.319   2.293 -0.5266  1.0482  0.0471
 3692TIP3    H111082   4.371   0.326   2.312 -0.1873  1.6069  1.6700
 3692TIP3    H211083   4.494   0.245   2.346 -0.1531  0.5101 -0.9023
 3693TIP3   OH211084   2.100   3.052   3.586 -0.5946  0.0737  0.0130
 3693TIP3    H111085   2.092   2.960   3.561  4.0786 -0.3899 -0.7594
 3693TIP3    H211086   2.083   3.100   3.505  2.2341 -0.6037 -1.0828
 3694TIP3   OH211087   2.676   4.625   1.665  0.5226  0.5612 -0.1639
 3694TIP3    H111088   2.637   4.707   1.695  1.5120  1.8155 -2.1421
 3694TIP3    H211089   2.690   4.575   1.746  0.4519  2.5636  1.1606
 3695TIP3   OH211090   0.273   3.340   3.844  0.5275 -0.0823  0.1255
 3695TIP3    H111091   0.212   3.274   3.878 -0.0111  0.6736  0.6689
 3695TIP3    H211092   0.218   3.400   3.793  0.5527  1.3532  1.6914
 3696TIP3   OH211093   1.474   4.652   1.900  0.1925  0.0918 -0.7832
 3696TIP3    H111094   1.517   4.695   1.974  1.1004 -0.9068 -0.6933
 3696TIP3    H211095   1.546   4.626   1.843 -0.1442 -2.5697 -0.1273
 3697TIP3   OH211096   2.085   5.258   0.966 -0.1261  0.6500 -0.1375
 3697TIP3    H111097   2.150   5.188   0.969 -1.4397 -0.6441 -0.7946
 3697TIP3    H211098   2.118   5.319   0.899  0.4689  0.0710 -0.3753
 3698TIP3   OH211099   5.175   4.665   2.492  0.1359  0.0879  0.1792
 3698TIP3    H111100   5.166   4.747   2.444 -0.1713  0.6928  1.2635
 3698TIP3    H211101   5.263   4.634   2.468  1.1174  1.7870  1.3546
 3699TIP3   OH211102   1.010   2.273   4.701  0.1904  0.3592 -0.2115
 3699TIP3    H111103   0.933   2.281   4.758 -0.2550 -1.7807 -0.3976
 3699TIP3    H211104   1.085   2.276   4.761 -0.2508 -1.3434  0.4988
 3700TIP3   OH211105   5.341   5.475   4.114  0.5286 -0.1618  0.5616
 3700TIP3    H111106   5.421   5.455   4.163  0.1361 -0.0904  1.2462
 3700TIP3    H211107   5.344   5.418   4.037  0.4127 -1.3972  1.4431
 3701TIP3   OH211108   3.354   2.940   3.113 -0.0944 -0.5227  0.5819
 3701TIP3    H111109   3.311   2.992   3.046 -1.1907  0.5688  2.0524
 3701TIP3    H211110   3.308   2.856   3.111 -0.8644 -0.1149  0.6778
 3702TIP3   OH211111   1.072   3.388   2.260  0.0238 -0.1513  0.1759
 3702TIP3    H111112   1.151   3.426   2.220  0.1697 -1.1549 -0.5294
 3702TIP3    H211113   1.004   3.397   2.193  0.2143 -1.6496 -0.2620
 3703TIP3   OH211114   4.966   5.030   1.211  0.4364 -0.3968 -0.5358
 3703TIP3    H111115   4.880   5.016   1.251 -0.0324  1.3957 -0.8409
 3703TIP3    H211116   5.028   5.004   1.279 -0.3398  2.1243  1.2616
 3704TIP3   OH211117   4.450   4.632   0.032 -0.0152 -0.2758  0.2196
 3704TIP3    H111118   4.370   4.583   0.016 -0.5739  1.3633 -2.8901
 3704TIP3    H211119   4.426   4.723   0.013  2.1456  0.5174  0.9844
 3705TIP3   OH211120   6.012   5.406   1.461 -0.0917  0.1674  0.4585
 3705TIP3    H111121   5.922   5.397   1.491  0.0983 -0.3229  0.9018
 3705TIP3    H211122   6.005   5.412   1.366 -0.5413 -0.7750  0.4187
 3706TIP3   OH211123   1.492   2.848   3.394 -0.6005  0.2645  0.2652
 3706TIP3    H111124   1.532   2.818   3.313 -0.5920  2.0001 -0.4165
 3706TIP3    H211125   1.565   2.884   3.445 -0.5835 -0.9317  1.1291
 3707TIP3   OH211126   2.659   2.955   3.483 -0.4364 -0.8035  0.3186
 3707TIP3    H111127   2.684   2.863   3.483  1.8364 -0.2883  2.1610
 3707TIP3    H211128   2.600   2.964   3.558 -1.7068 -0.9362 -0.6227
 3708TIP3   OH211129   4.509   4.329   0.899 -0.1608 -0.4515  0.0380
 3708TIP3    H111130   4.458   4.403   0.869 -0.3644 -0.4848  0.2990
 3708TIP3    H211131   4.573   4.366   0.959 -0.5673 -0.5439  0.5354
 3709TIP3   OH211132   4.823   3.672   4.205  0.0431  0.5136 -0.6576
 3709TIP3    H111133   4.777   3.707   4.281 -0.6757 -1.0743 -0.3074
 3709TIP3    H211134   4.818   3.741   4.139 -2.8385  0.4877 -0.6081
 3710TIP3   OH211135   3.300   0.499   2.576 -0.0370 -0.4370 -0.3948
 3710TIP3    H111136   3.314   0.548   2.495 -0.1910 -1.5284 -1.1039
 3710TIP3    H211137   3.267   0.564   2.638  0.5490  0.5156 -1.0581
 3711TIP3   OH211138   2.085   2.424   4.773  0.2668  1.0540 -0.1322
 3711TIP3    H111139   2.013   2.452   4.830  0.6965  1.0231  0.4434
 3711TIP3    H211140   2.078   2.329   4.771 -0.3756  1.1088 -0.9868
 3712TIP3   OH211141   2.739   5.831   0.065  0.0145  0.8933 -0.3185
 3712TIP3    H111142   2.740   5.902   0.128 -0.1057 -0.6328  1.4786
 3712TIP3    H211143   2.706   5.756   0.114  1.3926 -0.7424 -1.7729
 3713TIP3   OH211144   3.356   5.371   3.105  0.7022  0.4413  0.7732
 3713TIP3    H111145   3.322   5.460   3.118 -2.1304 -0.5792  0.9199
 3713TIP3    H211146   3.371   5.365   3.010 -0.3310  0.6913  0.5832
 3714TIP3   OH211147   3.562   2.875   4.692 -0.4113 -0.0279  0.5536
 3714TIP3    H111148   3.647   2.868   4.736  0.2495  0.4416 -0.5925
 3714TIP3    H211149   3.498   2.873   4.763  0.5169 -0.9496  1.4101
 3715TIP3   OH211150   3.492   4.197   2.489  0.0091 -0.0038  0.3284
 3715TIP3    H111151   3.501   4.130   2.422  1.3242  0.9947 -0.5627
 3715TIP3    H211152   3.556   4.174   2.556  1.2948  0.9406 -0.5325
 3716TIP3   OH211153   3.447   1.127   4.675 -0.0060 -0.4347  0.0434
 3716TIP3    H111154   3.392   1.155   4.601 -0.4544 -0.0661  0.5100
 3716TIP3    H211155   3.392   1.066   4.723 -0.9597  1.6818  1.8369
 3717TIP3   OH211156   0.695   3.749   1.377  0.3520  0.0408  0.6171
 3717TIP3    H111157   0.614   3.751   1.326  1.1030  2.3902 -0.6801
 3717TIP3    H211158   0.669   3.720   1.464 -1.6613 -0.3633 -0.0727
 3718TIP3   OH211159   4.252   5.612   4.279  0.4394 -0.3037 -0.0158
 3718TIP3    H111160   4.165   5.628   4.316 -0.2391  0.4131 -1.8127
 3718TIP3    H211161   4.279   5.529   4.317  0.3278  0.8875  2.9747
 3719TIP3   OH211162   3.388   0.198   1.203 -0.3685 -0.1322 -0.1694
 3719TIP3    H111163   3.402   0.159   1.116 -3.1198 -1.8603  0.0419
 3719TIP3    H211164   3.366   0.124   1.259 -0.9904  1.2125  1.4365
 3720TIP3   OH211165   0.216   2.464   4.371  0.4227  0.1761 -0.0959
 3720TIP3    H111166   0.182   2.393   4.426 -0.2142  1.2468  0.9454
 3720TIP3    H211167   0.179   2.448   4.285 -0.6329 -0.1313  0.3982
 3721TIP3   OH211168   1.012   0.746   0.126  0.4413 -0.4340 -0.5569
 3721TIP3    H111169   1.028   0.791   0.209  2.9312 -0.6144 -0.8782
 3721TIP3    H211170   1.099   0.724   0.093 -0.4163  0.3059 -3.6254
 3722TIP3   OH211171   4.687   2.114   1.086 -0.1131  0.0214  0.5584
 3722TIP3    H111172   4.594   2.132   1.098 -0.0229  1.8429 -0.9696
 3722TIP3    H211173   4.731   2.193   1.117  0.7589  0.1327 -0.8622
 3723TIP3   OH211174   5.305   4.882   0.992 -0.2197 -0.4456 -0.4516
 3723TIP3    H111175   5.381   4.901   0.938 -0.3902 -2.6008 -1.5672
 3723TIP3    H211176   5.230   4.911   0.940 -0.3804 -2.4764 -1.4754
 3724TIP3   OH211177   5.959   1.701   0.493 -0.1038  0.4109 -0.4387
 3724TIP3    H111178   5.887   1.643   0.468 -1.3456  1.8303 -0.2875
 3724TIP3    H211179   5.984   1.746   0.412 -1.4505  2.0963  0.0155
 3725TIP3   OH211180   3.107   1.176   0.549  0.7202  0.1192  0.2603
 3725TIP3    H111181   3.136   1.239   0.483 -2.0657 -0.3032 -1.5294
 3725TIP3    H211182   3.132   1.091   0.514  0.8019 -0.0151  0.6382
 3726TIP3   OH211183   6.319   2.996   2.189  0.0207  0.3782 -0.4181
 3726TIP3    H111184   6.368   3.068   2.228 -0.4820  0.6421 -0.2662
 3726TIP3    H211185   6.229   3.008   2.220  0.1243 -0.9198  0.4996
 3727TIP3   OH211186   5.067   5.687   3.481  0.2802  0.0049 -0.2309
 3727TIP3    H111187   5.058   5.625   3.553 -0.3241  0.2276 -0.1087
 3727TIP3    H211188   5.052   5.634   3.402 -2.2185  0.3383 -0.0427
 3728TIP3   OH211189   5.587   5.045   1.609  0.0891 -0.0024  0.6954
 3728TIP3    H111190   5.640   5.067   1.686  1.6862 -1.8354  0.2082
 3728TIP3    H211191   5.646   4.993   1.554 -2.1169 -1.9075 -0.0294
 3729TIP3   OH211192   2.074   4.494   4.391  0.3363 -0.0694 -0.4583
 3729TIP3    H111193   2.043   4.514   4.302  1.1634 -1.5888 -1.1303
 3729TIP3    H211194   2.077   4.579   4.435 -2.7406  0.4366 -0.9642
 3730TIP3   OH211195   1.847   2.052   0.311 -0.0217 -0.2137  0.1247
 3730TIP3    H111196   1.942   2.040   0.321  0.0701  0.5155  0.1825
 3730TIP3    H211197   1.819   2.089   0.394 -0.4045 -0.6745  0.2015
 3731TIP3   OH211198   1.322   0.981   3.561 -0.3643  0.2724 -0.2771
 3731TIP3    H111199   1.333   0.976   3.467  0.0391 -1.9667 -0.1522
 3731TIP3    H211200   1.229   1.000   3.573 -0.9709 -1.9338 -1.1285
 3732TIP3   OH211201   5.391   4.026   2.686 -0.4740  0.1159 -0.5548
 3732TIP3    H111202   5.451   4.092   2.651 -0.8480  0.7638 -0.0031
 3732TIP3    H211203   5.304   4.055   2.657 -0.5026 -1.0331 -1.6860
 3733TIP3   OH211204   0.801   5.427   5.037 -0.5886 -0.1607  0.5215
 3733TIP3    H111205   0.777   5.507   5.083 -0.6817  0.1323 -0.0264
 3733TIP3    H211206   0.718   5.388   5.009 -0.6420 -1.2328  2.0452
 3734TIP3   OH211207   5.390   0.051   1.406  0.6078  0.2021  0.3131
 3734TIP3    H111208   5.412   0.082   1.494 -1.0396  1.4334  0.3441
 3734TIP3    H211209   5.300   0.018   1.414  0.4400  0.3121 -0.8926
 3735TIP3   OH211210   5.731   0.269   1.978  0.1291  0.3056  0.2629
 3735TIP3    H111211   5.675   0.337   1.941 -0.1325 -0.5427 -0.9758
 3735TIP3    H211212   5.685   0.239   2.056 -0.2270  0.8815  0.2747
 3736TIP3   OH211213   6.131   4.711   0.182  0.2041 -0.5078 -0.3880
 3736TIP3    H111214   6.045   4.726   0.142 -0.0865 -2.8294 -0.8073
 3736TIP3    H211215   6.187   4.686   0.109  0.4125 -1.9996  0.2439
 3737TIP3   OH211216   5.555   2.802   4.685  0.6508 -0.0985  0.1610
 3737TIP3    H111217   5.536   2.881   4.634 -0.8779 -1.1864 -1.0456
 3737TIP3    H211218   5.631   2.763   4.641  0.0179 -0.4575 -0.6357
 3738TIP3   OH211219   1.338   3.792   3.926  0.0341  0.7671 -0.1397
 3738TIP3    H111220   1.340   3.696   3.931 -0.5735  0.7539  0.0065
 3738TIP3    H211221   1.388   3.813   3.848 -0.6427  0.2719 -0.7250
 3739TIP3   OH211222   2.508   0.104   3.416 -0.1887 -0.4990  0.0984
 3739TIP3    H111223   2.451   0.177   3.392 -0.4404 -0.4608  0.7838
 3739TIP3    H211224   2.461   0.060   3.487  0.9157 -0.0978  1.1096
 3740TIP3   OH211225   1.066   2.984   1.162  0.3275 -0.3494  0.3735
 3740TIP3    H111226   1.069   3.052   1.230 -1.3246 -0.5086  0.6575
 3740TIP3    H211227   1.112   3.023   1.087  1.3463  0.1974  1.2550
 3741TIP3   OH211228   5.043   2.109   3.235 -0.5861  0.2023 -0.6182
 3741TIP3    H111229   4.964   2.148   3.271  0.1067  2.1355 -1.0790
 3741TIP3    H211230   5.044   2.020   3.270 -1.7010  0.8927  1.3309
 3742TIP3   OH211231   3.827   1.327   4.945 -0.0448  0.0656 -0.1703
 3742TIP3    H111232   3.812   1.234   4.958  1.1551 -0.4217 -1.8948
 3742TIP3    H211233   3.756   1.355   4.888  0.1185 -0.0047 -0.4078
 3743TIP3   OH211234   0.909   2.531   0.358  0.1367  0.1798  0.2334
 3743TIP3    H111235   0.901   2.626   0.370  1.5860  0.1386  1.9817
 3743TIP3    H211236   0.899   2.518   0.264 -3.7670  1.6176  0.2701
 3744TIP3   OH211237   3.963   4.884   4.909 -0.2973 -0.3573  0.1209
 3744TIP3    H111238   3.886   4.864   4.856  0.1829 -0.1262 -0.6947
 3744TIP3    H211239   3.961   4.979   4.919  0.0566 -0.3130 -0.1965
 3745TIP3   OH211240   3.608   4.887   3.822 -0.3255  0.3025 -0.2364
 3745TIP3    H111241   3.636   4.807   3.866  0.6494  0.9176  0.2934
 3745TIP3    H211242   3.591   4.860   3.731  0.6867 -0.3706 -0.2415
 3746TIP3   OH211243   1.107   5.240   3.004 -0.2396 -0.1747  0.0087
 3746TIP3    H111244   1.053   5.198   3.070 -0.5804 -2.6333 -1.7044
 3746TIP3    H211245   1.194   5.244   3.043 -0.9171  0.8077  1.5311
 3747TIP3   OH211246   5.213   1.437   4.726  0.6254  0.0395 -0.6997
 3747TIP3    H111247   5.245   1.521   4.760  2.0376 -1.2775  1.4682
 3747TIP3    H211248   5.292   1.390   4.699 -0.1487 -0.5964 -1.9543
 3748TIP3   OH211249   5.981   1.368   2.151 -0.0996 -0.0772 -0.2808
 3748TIP3    H111250   5.944   1.319   2.224 -0.0501 -0.9756 -0.8439
 3748TIP3    H211251   5.905   1.397   2.101 -0.1110 -0.1701 -0.3182
 3749TIP3   OH211252   1.897   5.561   2.548  0.2688  0.0543  0.2747
 3749TIP3    H111253   1.886   5.482   2.600  1.4207  0.7027  1.5730
 3749TIP3    H211254   1.831   5.622   2.584 -0.9610 -0.4365 -1.0554
 3750TIP3   OH211255   1.130   5.546   0.635 -0.3900 -0.1393 -0.2470
 3750TIP3    H111256   1.206   5.488   0.645  1.1609  1.3301 -2.6679
 3750TIP3    H211257   1.055   5.487   0.633  0.9059 -1.8512 -0.3458
 3751TIP3   OH211258   5.209   0.564   0.496  0.5202 -0.3475  0.0619
 3751TIP3    H111259   5.302   0.552   0.513  0.6608 -2.9799 -1.9155
 3751TIP3    H211260   5.203   0.576   0.401 -1.0106  2.6503  0.4161
 3752TIP3   OH211261   4.748   1.852   1.187 -0.5241 -0.2869  0.3358
 3752TIP3    H111262   4.805   1.882   1.258  0.2334 -0.9167  0.0098
 3752TIP3    H211263   4.718   1.932   1.144  0.4683  0.0442  0.2456
 3753TIP3   OH211264   3.289   0.223   0.887 -0.3385  0.0269 -0.2480
 3753TIP3    H111265   3.236   0.143   0.882 -0.6584  0.2112  0.1520
 3753TIP3    H211266   3.365   0.204   0.833 -0.6748 -0.3509 -0.6011
 3754TIP3   OH211267   1.719   4.421   3.001 -0.1641  0.3369 -0.5694
 3754TIP3    H111268   1.689   4.332   3.022  2.3502  0.0646  2.7073
 3754TIP3    H211269   1.788   4.407   2.936  0.9889 -0.3060  0.7429
 3755TIP3   OH211270   2.373   4.358   2.661 -0.0514  0.3194 -0.5323
 3755TIP3    H111271   2.314   4.420   2.619 -1.7879 -0.1083  1.1440
 3755TIP3    H211272   2.329   4.334   2.742  1.7892 -1.1329  0.1133
 3756TIP3   OH211273   1.405   3.396   3.248  0.2007  0.4066 -0.4357
 3756TIP3    H111274   1.410   3.482   3.289  2.3101  0.5841 -0.9508
 3756TIP3    H211275   1.358   3.342   3.311  1.3826  1.2399  1.2384
 3757TIP3   OH211276   3.433   1.314   3.396 -0.3503 -0.0569  0.2397
 3757TIP3    H111277   3.458   1.397   3.437 -1.3784  0.9387 -1.0450
 3757TIP3    H211278   3.412   1.256   3.469 -1.1934  1.3407  1.1517
 3758TIP3   OH211279   2.319   3.602   5.137  0.2170 -0.1281  0.1467
 3758TIP3    H111280   2.290   3.669   5.075  0.2060 -1.6895 -1.6472
 3758TIP3    H211281   2.414   3.612   5.142  0.1801  0.2235  0.1443
 3759TIP3   OH211282   0.107   0.515   4.152 -0.3956  0.0670 -0.0013
 3759TIP3    H111283   0.034   0.518   4.214  0.7078 -0.8125  1.4297
 3759TIP3    H211284   0.155   0.596   4.168 -0.6258  0.2753 -0.3708
 3760TIP3   OH211285   1.501   0.449   0.088  0.7832  0.1274 -0.0316
 3760TIP3    H111286   1.479   0.393   0.014  1.0548 -1.3370  0.9504
 3760TIP3    H211287   1.535   0.529   0.048  1.3210 -0.7799 -1.4925
 3761TIP3   OH211288   1.270   2.557   1.807 -0.1230 -0.0409  0.1498
 3761TIP3    H111289   1.284   2.651   1.822  0.1315  0.0894 -0.8165
 3761TIP3    H211290   1.337   2.533   1.743  0.0930 -0.9863  0.7200
 3762TIP3   OH211291   4.964   2.613   2.526 -0.3029  0.3507  0.0754
 3762TIP3    H111292   5.014   2.658   2.594 -0.8144  1.7636 -0.4283
 3762TIP3    H211293   5.014   2.534   2.506 -0.5750 -0.5586  2.6710
 3763TIP3   OH211294   0.730   2.699   0.106  0.3682 -0.0980 -0.6047
 3763TIP3    H111295   0.656   2.639   0.107  0.6868 -0.5220 -1.3885
 3763TIP3    H211296   0.691   2.786   0.105 -0.1029 -0.2931  0.1674
 3764TIP3   OH211297   5.831   5.722   4.024 -0.0982  0.4228  0.9327
 3764TIP3    H111298   5.832   5.818   4.024 -0.2561  0.4337 -0.2285
 3764TIP3    H211299   5.764   5.700   4.088 -1.5865  1.1321 -0.3307
 3765TIP3   OH211300   3.431   2.024   3.319  0.1077 -0.0866  0.1865
 3765TIP3    H111301   3.491   2.008   3.393  0.0953 -1.3991 -0.0660
 3765TIP3    H211302   3.407   2.117   3.328  3.3739  0.9651 -0.5922
 3766TIP3   OH211303   1.010   4.677   3.269 -0.0054  0.4526 -0.0628
 3766TIP3    H111304   1.093   4.638   3.244  0.0064 -0.6915  1.5815
 3766TIP3    H211305   0.975   4.715   3.188  1.7889  0.3894 -0.9124
 3767TIP3   OH211306   3.933   5.888   2.797  0.5519 -0.4065 -0.1828
 3767TIP3    H111307   3.921   5.808   2.746 -0.3411  0.0379 -0.7012
 3767TIP3    H211308   3.846   5.907   2.832  1.2406 -1.0414  2.0836
 3768TIP3   OH211309   2.239   4.438   2.221  0.2698 -0.0801 -0.1519
 3768TIP3    H111310   2.270   4.520   2.183  1.1084 -0.4715 -0.3261
 3768TIP3    H211311   2.317   4.396   2.256 -0.0983 -0.9450 -0.3253
 3769TIP3   OH211312   1.368   3.971   3.356  0.6026 -0.0124 -0.2908
 3769TIP3    H111313   1.419   3.954   3.277  0.2916  1.0799 -0.7385
 3769TIP3    H211314   1.358   4.066   3.359 -1.6871 -0.1827 -0.4035
 3770TIP3   OH211315   4.147   3.590   3.134 -0.0805 -0.1101 -0.3135
 3770TIP3    H111316   4.236   3.625   3.129  0.6597 -1.9354 -0.5725
 3770TIP3    H211317   4.106   3.619   3.053  1.2257 -1.5833 -1.5824
 3771TIP3   OH211318   4.740   5.754   3.675 -0.2619  0.6253  0.0415
 3771TIP3    H111319   4.832   5.731   3.667 -0.2025  0.0054  2.1148
 3771TIP3    H211320   4.693   5.675   3.650 -0.1645  0.1045  1.4548
 3772TIP3   OH211321   2.043   1.013   5.062 -0.5893 -0.4233 -0.4407
 3772TIP3    H111322   2.006   0.973   4.983 -1.0531 -0.0467 -0.4235
 3772TIP3    H211323   2.117   0.958   5.085 -1.6210 -1.6820 -0.0166
 3773TIP3   OH211324   5.251   0.920   0.335 -0.7969  0.4841 -0.1183
 3773TIP3    H111325   5.160   0.908   0.307 -0.8513  1.0789 -0.2195
 3773TIP3    H211326   5.299   0.849   0.292 -1.5922 -1.4044  1.9393
 3774TIP3   OH211327   2.621   5.878   4.569 -0.2721 -0.0340 -0.2868
 3774TIP3    H111328   2.673   5.952   4.539  0.9331 -1.4841 -2.0194
 3774TIP3    H211329   2.686   5.810   4.590 -1.2955 -0.4398  1.8989
 3775TIP3   OH211330   1.108   4.348   0.902  0.6157 -0.2524  0.1404
 3775TIP3    H111331   1.033   4.329   0.846 -0.8954  1.8996  1.2981
 3775TIP3    H211332   1.102   4.284   0.973 -0.8879  0.6327  0.8544
 3776TIP3   OH211333   1.805   3.154   2.622  0.2260 -0.3516 -0.5403
 3776TIP3    H111334   1.809   3.200   2.706  2.1283  0.7008 -1.1629
 3776TIP3    H211335   1.714   3.125   2.616 -0.5210  1.4495  0.8917
 3777TIP3   OH211336   5.110   0.146   1.854  0.1542 -0.1974 -0.3803
 3777TIP3    H111337   5.103   0.109   1.766 -2.0422  2.2341 -1.3746
 3777TIP3    H211338   5.183   0.099   1.895 -0.8271 -3.7433 -2.2775
 3778TIP3   OH211339   4.337   0.504   5.080 -0.0929 -0.1010  0.3593
 3778TIP3    H111340   4.381   0.588   5.063  0.7258 -0.6240 -0.1924
 3778TIP3    H211341   4.407   0.440   5.077 -0.7921 -0.8736  0.2814
 3779TIP3   OH211342   4.269   0.619   3.168 -0.1643 -0.4811 -0.0134
 3779TIP3    H111343   4.212   0.693   3.190  1.4570  0.4580  1.3326
 3779TIP3    H211344   4.274   0.568   3.248  1.1677 -0.3032  0.0469
 3780TIP3   OH211345   1.826   4.696   3.087 -0.1513  0.2873 -0.0886
 3780TIP3    H111346   1.833   4.714   3.181 -1.9100  0.1333  0.1026
 3780TIP3    H211347   1.771   4.619   3.081  0.9209 -0.4286 -1.2322
 3781TIP3   OH211348   0.487   4.400   1.046  0.8372 -0.1598  0.1224
 3781TIP3    H111349   0.450   4.396   0.958 -1.4256  1.3014  0.9126
 3781TIP3    H211350   0.567   4.452   1.036  1.3377 -1.1517 -1.2493
 3782TIP3   OH211351   5.655   5.872   4.784 -0.0505  0.3949  0.2343
 3782TIP3    H111352   5.599   5.832   4.717 -0.3991  0.8212  0.2693
 3782TIP3    H211353   5.608   5.858   4.866  0.6108 -0.5675  0.4698
 3783TIP3   OH211354   3.539   4.044   4.966  0.3448  0.1967 -0.3830
 3783TIP3    H111355   3.562   3.952   4.978 -0.0943 -0.0435 -1.2904
 3783TIP3    H211356   3.446   4.050   4.990  0.2364  0.2953 -0.8179
 3784TIP3   OH211357   0.066   3.675   3.837 -0.3031 -0.1385 -0.0421
 3784TIP3    H111358   0.030   3.594   3.872  0.8225 -0.9661 -0.7121
 3784TIP3    H211359   0.100   3.651   3.751 -3.1431  1.8586 -1.8783
 3785TIP3   OH211360   1.559   5.254   0.032 -0.5930 -0.7544  0.1903
 3785TIP3    H111361   1.616   5.251   0.109  2.3405 -0.6285 -1.8472
 3785TIP3    H211362   1.550   5.162   0.005 -1.6674 -0.8036  0.6436
 3786TIP3   OH211363   1.673   1.513   3.648 -0.2365 -0.1445  0.0264
 3786TIP3    H111364   1.749   1.570   3.638 -0.1246 -0.2423  0.2996
 3786TIP3    H211365   1.642   1.497   3.559  1.3957 -1.9050 -0.2800
 3787TIP3   OH211366   5.587   4.095   4.814  0.3386  0.1318 -0.1146
 3787TIP3    H111367   5.512   4.060   4.765  0.7032  0.9457 -1.2967
 3787TIP3    H211368   5.585   4.189   4.795  0.5197  0.4699  1.4266
 3788TIP3   OH211369   1.682   4.583   4.794  0.4210 -0.1652 -0.4207
 3788TIP3    H111370   1.632   4.588   4.713 -0.9612 -0.1394  0.4128
 3788TIP3    H211371   1.770   4.611   4.769  0.3528 -1.3489 -2.1636
 3789TIP3   OH211372   3.482   2.220   2.225 -0.1223 -0.2455  0.0058
 3789TIP3    H111373   3.482   2.293   2.162 -2.0717 -0.3568 -0.1723
 3789TIP3    H211374   3.487   2.142   2.171  1.9397 -0.3024  0.1976
 3790TIP3   OH211375   5.460   3.849   3.254 -0.7290 -0.0637 -0.0043
 3790TIP3    H111376   5.449   3.843   3.159 -2.4742  0.9260  0.0982
 3790TIP3    H211377   5.500   3.765   3.279 -0.3901 -0.4029 -1.5753
 3791TIP3   OH211378   2.030   5.664   4.329 -0.2200  0.2999  0.0223
 3791TIP3    H111379   2.074   5.721   4.393 -0.9843  1.1131 -0.1635
 3791TIP3    H211380   2.088   5.665   4.253 -0.6517  1.5750 -0.3195
 3792TIP3   OH211381   0.855   3.150   1.564 -0.2393 -0.1218 -0.8947
 3792TIP3    H111382   0.916   3.103   1.507 -0.4232 -0.1730 -1.0501
 3792TIP3    H211383   0.782   3.173   1.507 -0.2306  0.2024 -0.7773
 3793TIP3   OH211384   4.685   2.354   2.007 -0.0676  0.1811  0.1658
 3793TIP3    H111385   4.638   2.356   1.924  0.9575  0.5388 -0.4322
 3793TIP3    H211386   4.764   2.406   1.991  0.7445 -0.7473  0.9765
 3794TIP3   OH211387   6.250   3.690   4.615  0.4078  0.3109 -0.2520
 3794TIP3    H111388   6.253   3.785   4.598 -0.3829  0.8034  1.9849
 3794TIP3    H211389   6.162   3.664   4.589  0.2947  0.4148  0.0143
 3795TIP3   OH211390   4.517   3.382   1.992  0.5173 -0.1266  0.0544
 3795TIP3    H111391   4.579   3.315   2.019 -1.0832 -1.0029  1.8733
 3795TIP3    H211392   4.460   3.393   2.068 -2.1219 -0.0681 -1.7874
 3796TIP3   OH211393   2.276   0.607   2.550 -0.1356 -0.0448  0.3574
 3796TIP3    H111394   2.199   0.602   2.607  0.1126 -0.9993  0.6202
 3796TIP3    H211395   2.276   0.524   2.502 -0.1600  0.6092 -0.8087
 3797TIP3   OH211396   3.632   5.497   1.953  0.2331 -0.1287  0.1100
 3797TIP3    H111397   3.711   5.447   1.969  1.1485  1.3312  0.3413
 3797TIP3    H211398   3.618   5.546   2.034 -1.0509 -0.5417  0.1586
 3798TIP3   OH211399   3.007   5.603   4.805  0.5806 -0.3006 -0.3119
 3798TIP3    H111400   3.093   5.594   4.765  0.5241  4.0452 -1.9116
 3798TIP3    H211401   3.025   5.625   4.896  1.1695  0.2249 -0.5483
 3799TIP3   OH211402   4.601   2.861   1.313 -0.3386 -0.7497 -0.8843
 3799TIP3    H111403   4.553   2.912   1.378  0.5741 -2.3345  1.1653
 3799TIP3    H211404   4.620   2.924   1.243 -0.6639  1.2888  0.7407
 3800TIP3   OH211405   5.018   2.110   3.887  0.3150  0.2635 -0.6865
 3800TIP3    H111406   4.983   2.168   3.819  0.6826 -0.2849 -1.3604
 3800TIP3    H211407   4.964   2.031   3.881  0.9557 -0.1601 -0.9970
 3801TIP3   OH211408   0.277   5.295   4.114  0.5717  0.0713 -0.4073
 3801TIP3    H111409   0.205   5.334   4.164  0.4271 -0.7772  0.0674
 3801TIP3    H211410   0.277   5.342   4.031  0.4113  1.0856  0.1481
 3802TIP3   OH211411   1.436   3.111   2.965  0.5629  0.3824 -0.2518
 3802TIP3    H111412   1.494   3.178   3.002  0.1224  0.3140  0.5890
 3802TIP3    H211413   1.491   3.033   2.957  0.6094  0.3312  0.4957
 3803TIP3   OH211414   1.300   1.505   0.680  0.3470 -0.0914  0.3654
 3803TIP3    H111415   1.238   1.436   0.653 -0.8597  1.4651 -1.0700
 3803TIP3    H211416   1.246   1.583   0.689  2.2541  1.7425 -2.5950
 3804TIP3   OH211417   2.252   2.593   0.665 -0.4905 -0.2773  0.4194
 3804TIP3    H111418   2.204   2.510   0.664  0.0663 -0.6144  0.8695
 3804TIP3    H211419   2.212   2.645   0.596 -1.7254 -0.4175  1.0187
 3805TIP3   OH211420   0.674   5.685   2.316  0.1625 -0.0982  0.0574
 3805TIP3    H111421   0.729   5.618   2.276  1.7950  0.3281  1.4865
 3805TIP3    H211422   0.647   5.647   2.400 -0.3007  0.3899  0.1362
 3806TIP3   OH211423   1.408   4.401   1.094  0.2555  0.8277  0.4964
 3806TIP3    H111424   1.492   4.377   1.054 -1.1151 -2.0561 -0.9883
 3806TIP3    H211425   1.343   4.382   1.027 -1.6835  2.4536  1.7884
 3807TIP3   OH211426   2.412   4.369   4.922 -0.2000 -0.3725  0.1453
 3807TIP3    H111427   2.437   4.295   4.978  0.4585 -0.2722 -0.0126
 3807TIP3    H211428   2.405   4.443   4.982  0.1351 -0.3461  0.1534
 3808TIP3   OH211429   5.230   3.993   1.958 -0.2468  0.9025  0.2972
 3808TIP3    H111430   5.140   3.976   1.929  0.1858  0.1445 -0.6681
 3808TIP3    H211431   5.220   4.036   2.043 -1.5213 -1.0309  1.2115
 3809TIP3   OH211432   1.397   1.513   3.771  0.1848  0.0815 -0.1197
 3809TIP3    H111433   1.342   1.569   3.716  1.3704  0.6102 -0.8275
 3809TIP3    H211434   1.476   1.499   3.718 -0.2770 -2.7375 -0.1879
 3810TIP3   OH211435   2.021   0.412   4.791  0.2465 -0.0467  0.1023
 3810TIP3    H111436   2.074   0.456   4.724 -0.7207 -0.9462 -1.3168
 3810TIP3    H211437   1.956   0.364   4.741  0.2751 -1.7960  1.6662
 3811TIP3   OH211438   0.307   3.947   4.488  0.6936 -0.2083 -0.4722
 3811TIP3    H111439   0.228   4.002   4.492  0.6484 -0.3120  0.3698
 3811TIP3    H211440   0.275   3.861   4.461  0.7798  0.1942 -1.9096
 3812TIP3   OH211441   5.328   1.929   1.912 -0.2925 -0.3141  0.3647
 3812TIP3    H111442   5.406   1.876   1.893  0.6445  1.3891 -0.8339
 3812TIP3    H211443   5.340   2.009   1.860 -2.3662  0.4402  0.9442
 3813TIP3   OH211444   2.062   0.400   2.893 -0.6506 -0.3256  0.0001
 3813TIP3    H111445   2.092   0.326   2.840 -1.3959  0.4246 -1.5291
 3813TIP3    H211446   1.968   0.386   2.903 -0.6768  0.0604  0.2864
 3814TIP3   OH211447   5.054   0.879   1.143 -0.4350 -0.3735  0.5504
 3814TIP3    H111448   5.041   0.962   1.096  1.4692 -0.5269 -0.3374
 3814TIP3    H211449   5.098   0.822   1.080  0.8823 -1.0862  2.0386
 3815TIP3   OH211450   0.048   2.506   0.214  0.5092 -0.3006  0.1597
 3815TIP3    H111451  -0.018   2.484   0.148 -0.0360  1.6712  0.0007
 3815TIP3    H211452  -0.000   2.509   0.296  0.5243  0.4947  0.1423
 3816TIP3   OH211453   2.537   1.385   2.489  0.1622  0.5708  0.9280
 3816TIP3    H111454   2.559   1.352   2.402 -1.7953  1.5311  0.0271
 3816TIP3    H211455   2.508   1.308   2.538 -0.4381  0.3096  0.1647
 3817TIP3   OH211456   5.072   4.073   4.904  0.6177  0.1696 -0.3495
 3817TIP3    H111457   5.167   4.072   4.916  0.7237  0.8649 -1.0544
 3817TIP3    H211458   5.057   4.144   4.842 -0.1053 -1.5172 -2.2382
 3818TIP3   OH211459   3.290   4.100   4.367 -0.0771  0.6213 -0.2545
 3818TIP3    H111460   3.222   4.144   4.418  1.7236  1.9108  1.1731
 3818TIP3    H211461   3.243   4.031   4.319 -2.2606  0.9900  1.1818
 3819TIP3   OH211462   5.619   0.680   3.392  0.2873  0.0905  0.0226
 3819TIP3    H111463   5.579   0.767   3.405  0.2285  0.1025 -0.2483
 3819TIP3    H211464   5.696   0.681   3.450 -1.0735 -0.5918  1.9594
 3820TIP3   OH211465   0.835   5.645   2.920 -0.4835 -0.0291 -0.0543
 3820TIP3    H111466   0.903   5.592   2.878 -0.3613 -0.9746  1.2749
 3820TIP3    H211467   0.754   5.598   2.905 -0.1730 -1.6136  2.5495
 3821TIP3   OH211468   3.577   0.086   3.843 -0.1487 -0.0265 -0.0263
 3821TIP3    H111469   3.617   0.035   3.913 -1.5539  0.0150  0.8489
 3821TIP3    H211470   3.638   0.078   3.770  0.6754 -1.2356  0.7476
 3822TIP3   OH211471   3.640   2.004   1.447 -0.1159 -0.1144 -1.0212
 3822TIP3    H111472   3.671   1.947   1.518 -2.4282  0.1098  0.2774
 3822TIP3    H211473   3.636   2.091   1.486 -1.3849  0.0212 -1.4094
 3823TIP3   OH211474   3.194   5.212   0.662  0.4554  0.1357 -0.7030
 3823TIP3    H111475   3.134   5.282   0.687  1.0863  0.0960  1.0798
 3823TIP3    H211476   3.164   5.185   0.575 -1.7428  0.4986 -0.1282
 3824TIP3   OH211477   1.445   4.465   0.182  0.2150  0.3334  0.1458
 3824TIP3    H111478   1.442   4.444   0.275  1.7144  0.8205  0.3427
 3824TIP3    H211479   1.360   4.438   0.148 -0.5259  0.5262  1.7333
 3825TIP3   OH211480   1.203   0.628   4.287  0.3824  0.1980  0.7207
 3825TIP3    H111481   1.172   0.702   4.234 -4.3736 -0.6686  1.7687
 3825TIP3    H211482   1.220   0.559   4.224  1.5829  1.1724 -0.0557
 3826TIP3   OH211483   1.574   4.206   3.001 -0.2706  0.0641 -0.3124
 3826TIP3    H111484   1.603   4.169   3.084  0.4715 -0.3878 -0.7546
 3826TIP3    H211485   1.479   4.207   3.007 -0.2239  0.0348  0.5377
 3827TIP3   OH211486   3.805   1.659   0.383 -0.8919  0.2074 -0.5381
 3827TIP3    H111487   3.803   1.716   0.460 -0.7179  0.0837 -0.4432
 3827TIP3    H211488   3.721   1.613   0.386 -1.3165  0.9373 -0.9755
 3828TIP3   OH211489   4.480   4.440   1.666  0.3140 -0.4919  0.3398
 3828TIP3    H111490   4.411   4.466   1.605  0.0815 -0.9773  0.3912
 3828TIP3    H211491   4.518   4.523   1.695  0.6428 -0.2634 -0.6994
 3829TIP3   OH211492   2.116   3.366   0.398  0.1904 -0.5453 -0.2435
 3829TIP3    H111493   2.029   3.375   0.437  0.4254 -1.3284  0.4933
 3829TIP3    H211494   2.102   3.313   0.320 -0.1876  0.5068 -0.9257
 3830TIP3   OH211495   5.318   5.512   2.553  0.5963 -0.5041  0.1900
 3830TIP3    H111496   5.304   5.441   2.615  0.7691  0.0911  0.9284
 3830TIP3    H211497   5.313   5.592   2.607  1.4559 -0.0173 -0.4339
 3831TIP3   OH211498   3.035   3.263   4.031 -0.4429 -0.2771 -0.0194
 3831TIP3    H111499   3.008   3.172   4.040 -1.6016  0.0214 -0.2595
 3831TIP3    H211500   3.085   3.266   3.949  0.6206 -0.8999  0.5838
 3832TIP3   OH211501   2.563   4.364   1.311  0.3147  0.6765  0.4082
 3832TIP3    H111502   2.484   4.338   1.359  1.3036  0.2012  1.8591
 3832TIP3    H211503   2.622   4.289   1.321  0.8646  0.9099 -0.8992
 3833TIP3   OH211504   6.214   3.718   2.295 -0.2613 -0.2628  0.7085
 3833TIP3    H111505   6.223   3.625   2.317 -0.5803 -0.2645  0.8372
 3833TIP3    H211506   6.264   3.764   2.362  1.6833 -0.4383 -0.5482
 3834TIP3   OH211507   6.299   5.695   3.763  0.2730 -0.3942 -0.1954
 3834TIP3    H111508   6.277   5.610   3.726  0.4361 -0.2741 -0.5735
 3834TIP3    H211509   6.236   5.756   3.724  1.0763 -0.0962 -1.0674
 3835TIP3   OH211510   4.334   5.746   3.785 -0.2307 -0.1184 -0.2400
 3835TIP3    H111511   4.338   5.729   3.691  1.1199 -0.2794 -0.1809
 3835TIP3    H211512   4.419   5.786   3.805 -0.7908  0.5981  0.7812
 3836TIP3   OH211513   2.953   5.973   1.016 -0.1137  0.3738  0.3571
 3836TIP3    H111514   2.901   6.049   1.044 -0.6446 -0.0827  0.6337
 3836TIP3    H211515   2.889   5.903   1.005  0.1671  0.3456 -1.3850
 3837TIP3   OH211516   4.145   5.123   3.475 -0.7459  0.4875 -0.0055
 3837TIP3    H111517   4.075   5.188   3.462 -1.5263 -0.6821 -2.0350
 3837TIP3    H211518   4.177   5.104   3.387 -0.1460 -1.4839  0.5938
 3838TIP3   OH211519   3.062   1.623   0.808  0.2449 -0.0176  0.2118
 3838TIP3    H111520   3.087   1.583   0.725 -1.2247  1.1637 -0.8688
 3838TIP3    H211521   3.114   1.703   0.813 -0.2132  0.2947  0.0447
 3839TIP3   OH211522   0.390   1.396   4.300 -0.0526 -0.4150 -0.2595
 3839TIP3    H111523   0.327   1.357   4.361  0.2158 -0.4170  0.0169
 3839TIP3    H211524   0.475   1.364   4.328 -0.0152 -1.2800 -1.3016
 3840TIP3   OH211525   3.317   0.322   4.877 -0.1671  0.1131 -0.0045
 3840TIP3    H111526   3.234   0.275   4.872  0.1598 -0.7133  1.5702
 3840TIP3    H211527   3.296   0.412   4.852 -1.9253  0.3319  2.0297
 3841TIP3   OH211528   0.606   1.765   4.855 -0.3424 -0.2479 -0.1615
 3841TIP3    H111529   0.691   1.787   4.893  0.7892  0.5030 -2.8608
 3841TIP3    H211530   0.627   1.734   4.767 -2.7311 -2.2362 -0.1439
 3842TIP3   OH211531   2.836   5.649   1.574 -0.2589 -0.3778  0.9277
 3842TIP3    H111532   2.864   5.558   1.575  3.0228  0.5084  0.2602
 3842TIP3    H211533   2.866   5.683   1.490 -0.7722  1.5227  1.4522
 3843TIP3   OH211534   3.118   4.077   1.260  0.4151  0.0445 -0.0168
 3843TIP3    H111535   3.162   4.107   1.180  0.5024 -1.1229 -0.4236
 3843TIP3    H211536   3.073   3.997   1.233  0.1657 -0.1727  1.0303
 3844TIP3   OH211537   3.319   5.025   1.994  0.5234 -0.4452  0.1779
 3844TIP3    H111538   3.330   4.947   2.048 -1.1268 -2.0974 -1.6880
 3844TIP3    H211539   3.224   5.037   1.989  0.6888  0.4993 -1.1436
 3845TIP3   OH211540   3.164   1.033   1.979 -0.1498 -0.6646  0.2657
 3845TIP3    H111541   3.167   1.106   2.041 -1.4752 -0.3535 -0.0180
 3845TIP3    H211542   3.080   1.042   1.935 -0.0041 -1.9379 -0.3094
 3846TIP3   OH211543   3.068   3.974   0.301 -0.0864  0.6872  0.3342
 3846TIP3    H111544   3.013   3.919   0.245  0.5422  0.9219 -0.5485
 3846TIP3    H211545   3.018   4.055   0.312 -0.3746  0.4991  0.4126
 3847TIP3   OH211546   2.896   1.038   3.942 -0.2740 -0.3911  0.5210
 3847TIP3    H111547   2.948   1.075   3.871 -0.7547 -0.3358  0.1959
 3847TIP3    H211548   2.960   0.997   4.000  0.0427 -1.3199 -0.4618
 3848TIP3   OH211549   0.856   3.293   2.091 -0.3547 -0.7314 -0.0390
 3848TIP3    H111550   0.855   3.256   2.179 -1.8785 -1.0331 -0.1610
 3848TIP3    H211551   0.884   3.220   2.034 -2.3604 -1.4725 -0.1535
 3849TIP3   OH211552   4.757   1.161   0.713 -0.2177 -0.6149 -0.3294
 3849TIP3    H111553   4.827   1.099   0.734  0.4939 -0.0108 -0.8639
 3849TIP3    H211554   4.706   1.118   0.645  0.2271 -0.6532 -0.6425
 3850TIP3   OH211555   1.075   5.401   3.622 -0.3740 -0.0497  0.1760
 3850TIP3    H111556   0.993   5.352   3.628 -0.1629 -0.4309 -0.0407
 3850TIP3    H211557   1.071   5.463   3.695  0.0575 -1.4616  1.4527
 3851TIP3   OH211558   2.135   5.872   0.857 -0.0977  0.4794 -0.3984
 3851TIP3    H111559   2.153   5.959   0.895  0.0468  0.0465  0.5507
 3851TIP3    H211560   2.218   5.847   0.816  0.5160 -0.0870  1.1215
 3852TIP3   OH211561   5.876   3.896   4.587  0.2722 -0.7561  0.3371
 3852TIP3    H111562   5.802   3.953   4.567  0.2159 -1.1566 -0.6452
 3852TIP3    H211563   5.925   3.943   4.654 -1.7435 -1.2199  2.2410
 3853TIP3   OH211564   3.028   5.442   0.693  0.5564  0.1666 -0.0699
 3853TIP3    H111565   2.935   5.430   0.676  0.5603  0.5162 -0.3607
 3853TIP3    H211566   3.032   5.513   0.757  0.5680 -0.7910  1.0247
 3854TIP3   OH211567   2.831   0.504   3.502  0.2874 -0.3044  0.2186
 3854TIP3    H111568   2.801   0.540   3.585  1.0423  0.2679  0.2469
 3854TIP3    H211569   2.802   0.413   3.504 -0.0026 -0.2023  0.9556
 3855TIP3   OH211570   2.035   3.588   0.884  0.0998  0.7745  0.2602
 3855TIP3    H111571   2.077   3.594   0.798  0.4703 -0.7146  0.3265
 3855TIP3    H211572   2.068   3.665   0.931  2.0170  0.1911 -0.0251
 3856TIP3   OH211573   5.836   3.268   1.990 -0.4388  0.2585  0.1848
 3856TIP3    H111574   5.869   3.284   1.902 -1.7182 -0.1456 -0.3818
 3856TIP3    H211575   5.805   3.178   1.989 -0.2938  0.1844  1.1151
 3857TIP3   OH211576   5.946   3.826   0.663  0.1618 -0.2767 -0.1347
 3857TIP3    H111577   5.895   3.792   0.737 -0.5787  1.7804  0.3715
 3857TIP3    H211578   6.005   3.755   0.640 -0.2193 -1.3111  1.8584
 3858TIP3   OH211579   4.484   0.393   2.986 -0.2646  0.4290 -0.0515
 3858TIP3    H111580   4.516   0.471   2.940  0.5387  0.0309 -0.1752
 3858TIP3    H211581   4.554   0.329   2.975 -0.8748 -0.2734  0.1493
 3859TIP3   OH211582   5.827   1.559   1.231  0.6678 -1.0888  0.1670
 3859TIP3    H111583   5.764   1.591   1.295 -0.4491  0.7044 -1.7208
 3859TIP3    H211584   5.895   1.626   1.228  1.3409 -1.7482  0.3071
 3860TIP3   OH211585   0.828   2.389   2.510  0.0766  0.2270  0.4528
 3860TIP3    H111586   0.850   2.387   2.416 -1.0829  0.4312  0.1684
 3860TIP3    H211587   0.764   2.320   2.521 -1.4645  1.6222  0.6420
 3861TIP3   OH211588   1.321   4.456   1.606 -0.4803  0.6413  0.0026
 3861TIP3    H111589   1.397   4.454   1.665  0.2875  1.7064 -0.9150
 3861TIP3    H211590   1.358   4.467   1.519 -1.6004 -1.0342 -0.7424
 3862TIP3   OH211591   6.122   1.007   4.042  0.0888 -0.2561 -0.0857
 3862TIP3    H111592   6.129   1.039   3.952  0.0365 -0.8807 -0.3188
 3862TIP3    H211593   6.129   0.912   4.034  0.4186 -0.2967  0.6050
 3863TIP3   OH211594   5.031   5.875   0.684 -0.1395 -0.0443  0.4039
 3863TIP3    H111595   5.116   5.901   0.649  0.6643 -1.4364  1.2011
 3863TIP3    H211596   5.016   5.935   0.757  0.3588 -0.0444  0.5109
 3864TIP3   OH211597   2.441   1.206   2.681 -0.6762 -0.6624 -0.1557
 3864TIP3    H111598   2.408   1.212   2.771  0.0230 -0.0457  0.0754
 3864TIP3    H211599   2.363   1.194   2.627 -1.1148 -0.9101  0.5227
 3865TIP3   OH211600   3.644   4.785   3.082 -0.3206  0.1748 -0.4578
 3865TIP3    H111601   3.694   4.729   3.022  2.3580  0.0072  1.7180
 3865TIP3    H211602   3.664   4.874   3.054  0.9224  0.0993  0.1489
 3866TIP3   OH211603   1.362   1.010   4.168  0.1962 -0.1194  0.4003
 3866TIP3    H111604   1.418   1.075   4.126 -1.5025 -0.6174 -3.0241
 3866TIP3    H211605   1.278   1.055   4.179 -0.6800 -1.3182 -0.9999
 3867TIP3   OH211606   2.042   3.740   0.481  0.4104 -0.2512 -0.7039
 3867TIP3    H111607   1.991   3.812   0.520 -0.2233 -0.2212 -1.5520
 3867TIP3    H211608   2.016   3.663   0.530 -0.5118 -0.2418 -1.1558
 3868TIP3   OH211609   5.500  -0.031   4.363 -0.3409 -0.2522  0.1686
 3868TIP3    H111610   5.571   0.019   4.321 -0.6003  0.1062  0.1523
 3868TIP3    H211611   5.470   0.026   4.433 -2.2271  0.6729 -1.3056
 3869TIP3   OH211612   6.087   4.516   3.748 -0.5360 -0.4022 -0.1254
 3869TIP3    H111613   6.159   4.453   3.738 -0.3459 -1.0445  3.8118
 3869TIP3    H211614   6.129   4.601   3.750  0.1024 -0.7258  1.4283
 3870TIP3   OH211615   0.946   4.804   2.590 -0.6303 -0.4138  0.0224
 3870TIP3    H111616   0.987   4.728   2.549  0.4037  2.3446 -4.7710
 3870TIP3    H211617   1.005   4.828   2.662  1.6577 -1.4145 -1.4114
 3871TIP3   OH211618   2.521   4.554   0.202  0.0311 -0.2494 -0.1447
 3871TIP3    H111619   2.488   4.637   0.237  0.6491 -0.2754  0.5320
 3871TIP3    H211620   2.600   4.578   0.154  0.5086 -0.5033  0.5048
 3872TIP3   OH211621   4.161   5.950   2.106 -0.3681 -0.5164  0.4492
 3872TIP3    H111622   4.184   5.953   2.014  1.5760  0.5569  0.9220
 3872TIP3    H211623   4.084   5.894   2.110 -0.4183 -0.6694 -1.7959
 3873TIP3   OH211624   3.669   5.305   3.045  0.0409  0.1220  0.1544
 3873TIP3    H111625   3.607   5.328   2.975  1.1153 -0.1339 -0.9196
 3873TIP3    H211626   3.733   5.376   3.044  0.2254 -0.0358  0.6852
 3874TIP3   OH211627   6.145   5.346   0.136  0.3273  0.2432 -0.1171
 3874TIP3    H111628   6.176   5.390   0.215  1.8552  0.5018 -0.8159
 3874TIP3    H211629   6.211   5.366   0.070 -0.4427 -0.7128 -1.2283
 3875TIP3   OH211630   3.983   3.185   2.772  0.2110  0.1158 -0.4292
 3875TIP3    H111631   4.060   3.234   2.744  0.7263  0.0057  0.7211
 3875TIP3    H211632   3.940   3.159   2.691  0.8760  0.9766 -1.0767
 3876TIP3   OH211633   2.031   5.379   0.562 -0.3037 -0.3233  0.6465
 3876TIP3    H111634   2.035   5.284   0.564  1.2028 -0.3262 -0.5295
 3876TIP3    H211635   2.090   5.408   0.631 -2.0031 -0.1900  2.1161
 3877TIP3   OH211636   4.875   5.378   4.583  0.3584  0.6127  0.1696
 3877TIP3    H111637   4.857   5.448   4.520  0.2108  2.1574  1.8198
 3877TIP3    H211638   4.820   5.305   4.554  1.1145  0.8573 -2.0790
 3878TIP3   OH211639   0.332   0.877   1.406 -0.1203  0.4207 -0.3792
 3878TIP3    H111640   0.346   0.912   1.494  2.7785  3.1521 -1.7208
 3878TIP3    H211641   0.238   0.889   1.390 -0.8979 -0.9718  2.5758
 3879TIP3   OH211642   4.740   1.974   0.343 -0.5825  0.5378 -0.3078
 3879TIP3    H111643   4.737   2.068   0.361  0.6684  0.3542  1.0693
 3879TIP3    H211644   4.714   1.933   0.426 -0.0941 -0.3328 -0.5757
 3880TIP3   OH211645   3.151   2.429   0.965 -0.0530  0.4220 -0.0574
 3880TIP3    H111646   3.076   2.409   0.910 -0.2882 -0.8763  0.7070
 3880TIP3    H211647   3.212   2.475   0.907 -1.6237  1.9678 -0.5494
 3881TIP3   OH211648   2.387   0.285   2.898  0.5446 -0.0626  0.2183
 3881TIP3    H111649   2.443   0.362   2.887  0.1015  0.2479  0.0675
 3881TIP3    H211650   2.381   0.273   2.992  0.7542 -0.0149  0.2383
 3882TIP3   OH211651   5.066   4.418   2.523  0.0928 -0.0596 -0.4818
 3882TIP3    H111652   5.094   4.507   2.504 -1.4310  0.4484 -0.5145
 3882TIP3    H211653   4.981   4.410   2.479  0.1202 -1.4605 -0.3165
 3883TIP3   OH211654   0.811   5.283   2.615  0.5279  0.0232  0.3488
 3883TIP3    H111655   0.784   5.374   2.602  1.3033  0.4295  1.3883
 3883TIP3    H211656   0.854   5.259   2.532  1.7214  1.1541  0.5981
 3884TIP3   OH211657   1.859   1.793   1.173 -0.0334 -0.8290  0.4378
 3884TIP3    H111658   1.880   1.843   1.094 -3.6345  1.1167  0.5343
 3884TIP3    H211659   1.860   1.701   1.144  0.2788 -0.2766 -1.4373
 3885TIP3   OH211660   6.183   4.718   0.801 -0.4071  0.3605  0.6759
 3885TIP3    H111661   6.188   4.626   0.826 -0.6234  0.2040  0.1563
 3885TIP3    H211662   6.090   4.737   0.796 -0.5192 -0.4002 -2.7399
 3886TIP3   OH211663   2.845   2.304   1.365  0.1475 -0.2718 -0.7033
 3886TIP3    H111664   2.897   2.346   1.298 -0.8291  0.1447 -1.2236
 3886TIP3    H211665   2.893   2.319   1.447  1.6906 -1.3551 -1.3593
 3887TIP3   OH211666   2.388   2.896   3.380 -0.0417  0.4513  0.2970
 3887TIP3    H111667   2.422   2.985   3.378  2.4671 -0.4171 -1.4567
 3887TIP3    H211668   2.454   2.844   3.332 -2.6253 -1.9250 -0.9733
 3888TIP3   OH211669   3.047   1.977   0.411 -0.9187  0.1975  0.2015
 3888TIP3    H111670   3.000   1.926   0.476 -0.8800  0.3031  0.3138
 3888TIP3    H211671   2.980   2.030   0.368 -1.7443 -2.9149 -2.8600
 3889TIP3   OH211672   2.904   5.679   1.000  0.0722 -0.1597 -0.4911
 3889TIP3    H111673   2.900   5.584   1.010 -2.6140 -0.3475 -2.3177
 3889TIP3    H211674   2.986   5.695   0.953  0.5656 -1.5684 -0.1574
 3890TIP3   OH211675   0.593   5.882   3.595  0.6831  0.4302  0.3237
 3890TIP3    H111676   0.523   5.902   3.532 -0.2683 -2.1961  0.4460
 3890TIP3    H211677   0.555   5.901   3.680 -0.0013 -1.1886  0.4030
 3891TIP3   OH211678   4.430   2.299   3.464  0.1117  0.3680  0.6635
 3891TIP3    H111679   4.443   2.366   3.532  2.4672 -1.0871  1.7780
 3891TIP3    H211680   4.493   2.321   3.396  1.5767 -1.1468  1.4607
 3892TIP3   OH211681   3.902   1.146   4.264 -0.0975  0.2435 -0.1713
 3892TIP3    H111682   3.819   1.131   4.310 -0.4179  1.2778 -0.3776
 3892TIP3    H211683   3.925   1.236   4.287  0.3766  0.3518 -1.0514
 3893TIP3   OH211684   1.454   3.029   1.817 -0.2550 -0.0150 -0.6372
 3893TIP3    H111685   1.542   3.057   1.843 -0.2197 -1.2485  0.6955
 3893TIP3    H211686   1.469   2.954   1.760 -0.4004 -1.4826  1.1369
 3894TIP3   OH211687   5.630   5.519   4.622  0.2852  0.0214  0.5090
 3894TIP3    H111688   5.562   5.451   4.625 -0.4457  0.7551  1.0939
 3894TIP3    H211689   5.581   5.601   4.614  1.1055  0.5755  1.0305
 3895TIP3   OH211690   1.638   0.663   4.671 -0.1903  0.5267 -0.3254
 3895TIP3    H111691   1.572   0.610   4.626 -0.2194 -0.4064  0.7641
 3895TIP3    H211692   1.589   0.710   4.738  0.1500  0.3259  0.0699
 3896TIP3   OH211693   3.877   1.970   2.362 -0.3940  0.0205 -0.4629
 3896TIP3    H111694   3.851   2.017   2.283 -0.3044 -1.0149 -1.1109
 3896TIP3    H211695   3.836   1.884   2.354  1.6618 -0.9865 -0.6104
 3897TIP3   OH211696   3.962   4.100   0.322 -0.3005  0.4918  0.3472
 3897TIP3    H111697   3.965   4.130   0.231 -1.9811  1.2750  0.5097
 3897TIP3    H211698   3.902   4.162   0.365  0.2179 -0.0577  1.9133
 3898TIP3   OH211699   2.143   3.781   4.989  0.3225  0.3422  0.2726
 3898TIP3    H111700   2.087   3.710   4.958  0.3616  0.4146  0.0349
 3898TIP3    H211701   2.097   3.816   5.065  0.9339 -0.7888  1.2009
 3899TIP3   OH211702   6.198   1.381   4.750 -0.1737 -0.3278 -0.1104
 3899TIP3    H111703   6.278   1.364   4.801 -1.2167 -0.4704  1.5533
 3899TIP3    H211704   6.127   1.365   4.812 -1.4641  1.5830 -1.0129
 3900TIP3   OH211705   2.372   0.461   0.408  0.7410 -0.5345  0.4343
 3900TIP3    H111706   2.405   0.421   0.328  1.5580 -2.4062  1.6058
 3900TIP3    H211707   2.367   0.554   0.389  1.4450 -0.8602 -1.5881
 3901TIP3   OH211708   1.392   4.929   4.366  0.2867 -0.0556 -0.1790
 3901TIP3    H111709   1.487   4.934   4.365  0.2311  1.6616 -1.7505
 3901TIP3    H211710   1.365   4.978   4.444  0.6652  1.5944 -1.0339
 3902TIP3   OH211711   5.317   1.558   0.594  0.1158  0.4319  0.7868
 3902TIP3    H111712   5.313   1.627   0.528  0.3944  0.6800  1.0238
 3902TIP3    H211713   5.410   1.547   0.612  0.0229  0.7006  1.4765
 3903TIP3   OH211714   1.275   5.414   1.690  0.4051 -0.3742 -0.0426
 3903TIP3    H111715   1.252   5.329   1.652 -1.6861  0.8825 -1.8233
 3903TIP3    H211716   1.197   5.442   1.737  1.0422  0.6110  0.4729
 3904TIP3   OH211717   1.891   2.117   3.817 -0.3192 -0.5157  0.2188
 3904TIP3    H111718   1.882   2.036   3.867 -2.0936 -1.1875 -1.1021
 3904TIP3    H211719   1.884   2.186   3.883  2.1466 -1.3737  1.4928
 3905TIP3   OH211720   1.023   5.666   4.740 -0.4388  0.1423 -0.1303
 3905TIP3    H111721   1.091   5.624   4.688 -1.0254 -0.1827 -0.6417
 3905TIP3    H211722   0.943   5.619   4.718 -0.9694  1.0168 -0.1160
 3906TIP3   OH211723   4.356   5.464   3.545 -0.1438 -0.0676  0.0955
 3906TIP3    H111724   4.297   5.496   3.614  1.4202  0.9162  1.0455
 3906TIP3    H211725   4.374   5.373   3.570 -0.2818  0.0125  0.5038
 3907TIP3   OH211726   5.488   1.714   1.844  0.2312  0.2244  0.0269
 3907TIP3    H111727   5.405   1.666   1.842  0.2228  0.2256  0.2455
 3907TIP3    H211728   5.550   1.657   1.800 -0.2820  1.0077 -1.7913
 3908TIP3   OH211729   5.875   5.880   2.580 -0.4141  0.8131  0.3151
 3908TIP3    H111730   5.793   5.897   2.626  0.1355  0.4359  1.4635
 3908TIP3    H211731   5.936   5.851   2.648 -0.4035 -2.7886 -1.0068
 3909TIP3   OH211732   6.241   0.410   0.873 -0.0376  0.5023 -0.1029
 3909TIP3    H111733   6.334   0.393   0.860  0.3339  0.6672  2.0829
 3909TIP3    H211734   6.226   0.495   0.831  0.5766  0.0701 -1.2365
 3910TIP3   OH211735   6.290   2.745   0.880  0.4993  0.4669 -0.1443
 3910TIP3    H111736   6.353   2.788   0.938  0.8709  0.1081 -0.2702
 3910TIP3    H211737   6.273   2.810   0.811  1.4604  0.2397 -0.6187
 3911TIP3   OH211738   1.336   4.380   3.688 -0.0368  0.4251  0.5050
 3911TIP3    H111739   1.253   4.412   3.724 -0.3845  0.3233 -0.1786
 3911TIP3    H211740   1.389   4.459   3.677 -0.3351  0.5903  0.2248
 3912TIP3   OH211741   3.838   0.485   1.747 -0.1017  0.1792  0.1902
 3912TIP3    H111742   3.883   0.413   1.702  0.2425  0.1760  0.5345
 3912TIP3    H211743   3.802   0.444   1.826 -1.1561  0.0642 -0.3276
 3913TIP3   OH211744   2.151   2.350   1.577 -0.5416 -0.0284  0.0666
 3913TIP3    H111745   2.234   2.338   1.623  0.0452  0.4248 -0.8392
 3913TIP3    H211746   2.096   2.399   1.638  0.0561  0.1539  0.4655
 3914TIP3   OH211747   3.686   2.968   1.533 -0.0945  0.7698  0.3228
 3914TIP3    H111748   3.691   3.060   1.556  1.9516  0.9867 -0.7744
 3914TIP3    H211749   3.694   2.922   1.616  1.5650  1.5801  0.6522
 3915TIP3   OH211750   4.997   0.352   2.010  0.9196  0.0423  0.1885
 3915TIP3    H111751   5.039   0.269   1.988 -1.8245 -1.8835  1.5759
 3915TIP3    H211752   4.965   0.385   1.926  1.4550 -0.6812 -0.3120
 3916TIP3   OH211753   4.778   2.419   1.077 -0.2062  0.3428 -0.2203
 3916TIP3    H111754   4.733   2.450   1.155  1.7260  1.2479  0.6034
 3916TIP3    H211755   4.745   2.474   1.006 -2.3506 -0.8148 -0.2200
 3917TIP3   OH211756   2.034   3.736   4.511  0.4659 -0.0494  0.2148
 3917TIP3    H111757   1.943   3.708   4.500  0.7618 -1.6700  1.4300
 3917TIP3    H211758   2.042   3.814   4.456 -1.5064 -0.1611 -0.3200
 3918TIP3   OH211759   2.554   5.499   2.484 -0.2616 -0.4244 -0.4558
 3918TIP3    H111760   2.589   5.517   2.397  3.3310 -2.7380  0.2406
 3918TIP3    H211761   2.556   5.583   2.529  1.1637  0.2363 -1.6477
 3919TIP3   OH211762   4.032   5.750   1.898 -0.3864 -0.1382  0.1673
 3919TIP3    H111763   4.051   5.661   1.928 -1.4352  0.0895  1.6074
 3919TIP3    H211764   4.067   5.753   1.809 -0.2260 -1.9515  0.1302
 3920TIP3   OH211765   4.715   1.078   0.177  0.2029  0.2697  0.4270
 3920TIP3    H111766   4.796   1.129   0.175  0.3701  0.0169  0.5647
 3920TIP3    H211767   4.656   1.122   0.116  0.7342 -0.0233 -0.3190
 3921TIP3   OH211768   2.948   0.704   2.241 -0.3021  0.0046 -0.3850
 3921TIP3    H111769   2.955   0.629   2.300 -0.6385  0.3390  0.0756
 3921TIP3    H211770   2.856   0.705   2.214 -0.9677  1.8396  1.7157
 3922TIP3   OH211771   4.823   5.502   0.939  0.0658 -0.1074  0.1520
 3922TIP3    H111772   4.831   5.598   0.932 -0.8465 -0.0658 -0.3811
 3922TIP3    H211773   4.876   5.480   1.016  0.2353  0.8358  0.3225
 3923TIP3   OH211774   3.381   2.293   3.687 -0.3888 -0.4658  0.3825
 3923TIP3    H111775   3.446   2.359   3.711 -0.1996 -0.4627 -0.1221
 3923TIP3    H211776   3.407   2.215   3.737 -1.0787  0.0505  1.5995
 3924TIP3   OH211777   0.157   4.639   0.116  0.0997  0.3494  0.1320
 3924TIP3    H111778   0.174   4.545   0.109 -0.7149  0.2693 -1.3534
 3924TIP3    H211779   0.161   4.658   0.209  0.7414 -1.0690  0.4179
 3925TIP3   OH211780   0.678   1.313   1.033  0.5871  0.0448  0.1663
 3925TIP3    H111781   0.630   1.386   0.994 -0.9210 -1.0991 -0.1819
 3925TIP3    H211782   0.711   1.262   0.959  1.2333  0.0865  0.4092
 3926TIP3   OH211783   4.741   0.047   1.506  0.4189  0.2957  0.1171
 3926TIP3    H111784   4.687   0.106   1.453 -0.4216  0.2350  0.8883
 3926TIP3    H211785   4.727  -0.040   1.467 -0.7328  0.1421  0.8175
 3927TIP3   OH211786   1.585   4.178   1.923  0.6529 -0.5821  0.2233
 3927TIP3    H111787   1.625   4.115   1.864  3.9944  0.5049  1.0930
 3927TIP3    H211788   1.651   4.247   1.933 -1.5921  1.5331  1.6978
 3928TIP3   OH211789   3.311   3.158   2.015  0.3837  0.2389 -0.3264
 3928TIP3    H111790   3.263   3.125   2.091 -0.3449  1.0504 -0.4168
 3928TIP3    H211791   3.402   3.132   2.031  0.4625  1.4301  1.4305
 3929TIP3   OH211792   4.997   3.821   0.668 -0.0574  0.0846  0.3478
 3929TIP3    H111793   4.980   3.894   0.727 -0.7556  2.2805 -2.3758
 3929TIP3    H211794   4.934   3.754   0.694  1.2047 -0.0167  3.5043
 3930TIP3   OH211795   3.061   3.724   3.360 -0.8087 -0.1209  0.3183
 3930TIP3    H111796   3.153   3.737   3.383 -1.4757  1.4155  2.4238
 3930TIP3    H211797   3.039   3.638   3.396 -0.2341 -0.4367 -0.0798
 3931TIP3   OH211798   2.758   3.581   3.814 -0.1502 -0.2898  0.8343
 3931TIP3    H111799   2.727   3.613   3.729 -0.5286  0.0954  1.1114
 3931TIP3    H211800   2.679   3.576   3.868  0.3157  1.1149  1.6902
 3932TIP3   OH211801   5.662   2.773   3.694  0.0868 -0.7275  0.3015
 3932TIP3    H111802   5.729   2.796   3.629  1.0776 -2.3817  0.6640
 3932TIP3    H211803   5.647   2.679   3.681 -1.6372 -0.5354  0.7290
 3933TIP3   OH211804   1.219   1.130   2.262 -0.2299  0.0250  0.5731
 3933TIP3    H111805   1.244   1.074   2.336  3.4801  1.1547  0.3288
 3933TIP3    H211806   1.252   1.083   2.185  0.3316  1.1737  0.1045
 3934TIP3   OH211807   2.047   2.460   2.013  0.2877  0.4875 -0.3439
 3934TIP3    H111808   1.990   2.496   2.081 -1.2619  1.3540 -1.9976
 3934TIP3    H211809   2.130   2.505   2.024 -0.0795  0.9494  0.6620
 3935TIP3   OH211810   5.625   5.393   0.434  0.1024 -0.3234 -0.4431
 3935TIP3    H111811   5.706   5.428   0.473  0.9244 -1.1514 -1.3502
 3935TIP3    H211812   5.556   5.451   0.466  1.0586  0.4323  0.3206
 3936TIP3   OH211813   1.880   4.987   0.118  0.5832 -0.2196 -0.3736
 3936TIP3    H111814   1.894   5.022   0.030 -0.6590  0.8596 -0.1712
 3936TIP3    H211815   1.884   4.892   0.107 -0.6521 -0.1387 -1.8264
 3937TIP3   OH211816   0.746   1.086   1.755  0.5749  0.0304 -0.9694
 3937TIP3    H111817   0.721   1.178   1.766  0.2209 -0.3123  2.0543
 3937TIP3    H211818   0.834   1.081   1.792  0.6990 -0.8138 -1.3574
 3938TIP3   OH211819   2.442   2.135   0.892 -0.2913  0.3302  0.1296
 3938TIP3    H111820   2.512   2.079   0.925 -0.8148  0.0922  0.8433
 3938TIP3    H211821   2.377   2.074   0.857 -0.6111  0.5115  0.4061
 3939TIP3   OH211822   5.330   4.934   0.286  0.5333  0.3387  0.1591
 3939TIP3    H111823   5.248   4.979   0.303 -0.2394 -0.6195 -0.9105
 3939TIP3    H211824   5.398   5.001   0.302 -0.5906  2.2432 -2.3429
 3940TIP3   OH211825   0.305   4.623   4.610 -0.6591  1.2417  0.2661
 3940TIP3    H111826   0.286   4.650   4.700 -3.1862  0.1841  0.1480
 3940TIP3    H211827   0.233   4.661   4.558  0.3038  1.1570 -1.1851
 3941TIP3   OH211828   0.751   0.624   1.369 -0.0979 -0.3010  0.2558
 3941TIP3    H111829   0.658   0.636   1.389 -0.6859 -0.2556 -2.2070
 3941TIP3    H211830   0.774   0.698   1.313  0.7898 -1.4819 -1.0241
 3942TIP3   OH211831   6.283   3.101   4.789 -0.0091 -0.3754  0.5959
 3942TIP3    H111832   6.269   3.148   4.707 -2.0950 -1.2350  0.3908
 3942TIP3    H211833   6.378   3.098   4.799  0.2853  0.3565 -1.4299
 3943TIP3   OH211834   4.242   1.174   2.032 -0.0107 -0.0773 -0.0505
 3943TIP3    H111835   4.334   1.178   2.008  0.3250  1.6628  1.2993
 3943TIP3    H211836   4.238   1.113   2.106  0.1134  0.0152  0.0332
 3944TIP3   OH211837   2.409   1.724   3.044  0.1679  0.1584 -0.1660
 3944TIP3    H111838   2.420   1.815   3.017  2.7610 -0.0663 -0.1851
 3944TIP3    H211839   2.405   1.675   2.962 -1.1878  0.2172 -0.1551
 3945TIP3   OH211840   5.468   1.895   2.503  0.2471  0.1942  0.2943
 3945TIP3    H111841   5.506   1.849   2.428 -1.9464 -0.5904 -0.4311
 3945TIP3    H211842   5.473   1.988   2.480 -2.3408 -0.0988 -1.9619
 3946TIP3   OH211843   3.253   3.776   4.613 -0.2870 -0.2518  0.3810
 3946TIP3    H111844   3.239   3.854   4.667  0.7749 -0.5598  1.1130
 3946TIP3    H211845   3.322   3.801   4.552 -2.9140  0.8536 -2.4304
 3947TIP3   OH211846   6.115   0.532   1.298  0.4065 -0.1668  0.2146
 3947TIP3    H111847   6.178   0.552   1.228  0.1853  1.0565  0.3386
 3947TIP3    H211848   6.139   0.590   1.369 -1.5058  1.1508 -0.1260
 3948TIP3   OH211849   2.387   1.610   2.519  0.2549  0.0595  0.0129
 3948TIP3    H111850   2.434   1.530   2.496  2.8878  1.4014  0.2352
 3948TIP3    H211851   2.295   1.587   2.514  0.8750 -3.5404  2.0348
 3949TIP3   OH211852   5.661   3.726   2.500 -0.0923  0.1049 -1.1830
 3949TIP3    H111853   5.663   3.822   2.497 -0.7874  0.1654 -0.3250
 3949TIP3    H211854   5.645   3.699   2.410  0.7364  0.7693 -1.5416
 3950TIP3   OH211855   0.886   0.143   5.135  0.1483 -0.4949 -0.2010
 3950TIP3    H111856   0.848   0.177   5.054 -0.0752 -1.7288 -0.6361
 3950TIP3    H211857   0.949   0.077   5.106  0.7710 -0.2704  0.6069
 3951TIP3   OH211858   2.157   1.512   5.026 -0.4061  0.0594  0.5023
 3951TIP3    H111859   2.064   1.517   5.001 -0.6512  0.9478  1.5357
 3951TIP3    H211860   2.197   1.587   4.981 -0.7199  1.2545  2.1078
 3952TIP3   OH211861   1.053   0.108   2.428  1.1883 -0.1770 -0.4071
 3952TIP3    H111862   1.103   0.086   2.507  0.1119  0.6704  0.5366
 3952TIP3    H211863   1.098   0.061   2.358  2.5019 -0.5093  0.6165
 3953TIP3   OH211864   3.871   0.796   2.611  0.5281 -0.2483 -0.2116
 3953TIP3    H111865   3.911   0.726   2.663  0.9802  0.9628  1.1289
 3953TIP3    H211866   3.795   0.823   2.661 -0.8740 -1.1516 -1.7600
 3954TIP3   OH211867   3.737   1.028   3.631 -0.1770 -1.0626 -0.1115
 3954TIP3    H111868   3.692   1.112   3.644  0.3431 -0.9456  0.9977
 3954TIP3    H211869   3.739   0.988   3.717  2.0412 -0.9544 -0.0505
 3955TIP3   OH211870   2.123   0.418   2.297  0.4457  0.2003 -0.1428
 3955TIP3    H111871   2.126   0.328   2.266  1.2417 -0.0974  0.7408
 3955TIP3    H211872   2.136   0.411   2.392  1.3257  1.2980 -0.1653
 3956TIP3   OH211873   4.631   0.820   2.709 -0.8157 -0.7921 -0.0672
 3956TIP3    H111874   4.600   0.907   2.733  0.7477  0.3150 -1.7994
 3956TIP3    H211875   4.578   0.797   2.632 -0.6781 -1.0490 -0.0859
 3957TIP3   OH211876   3.828   2.153   3.728 -0.3663  0.7023  0.1416
 3957TIP3    H111877   3.920   2.178   3.717 -0.2922  0.1099 -0.6946
 3957TIP3    H211878   3.819   2.136   3.822  0.2485  1.2448  0.3041
 3958TIP3   OH211879   1.551   5.437   0.598  0.3928 -0.5121  0.3166
 3958TIP3    H111880   1.570   5.463   0.508  0.5260  0.6453  0.6697
 3958TIP3    H211881   1.637   5.412   0.635  0.4497 -0.2562  0.3554
 3959TIP3   OH211882   0.893   2.147   0.740 -0.0528  0.4066  0.2094
 3959TIP3    H111883   0.956   2.116   0.804  0.5864  2.8721  0.8592
 3959TIP3    H211884   0.929   2.230   0.708 -0.4607 -0.5636 -3.2092
 3960TIP3   OH211885   4.693   0.244   0.778  0.5731 -0.4964 -0.6633
 3960TIP3    H111886   4.788   0.229   0.770  1.0672  2.1614 -0.5643
 3960TIP3    H211887   4.685   0.335   0.804 -1.9966 -1.1359  1.2122
 3961TIP3   OH211888   2.728   1.714   2.368 -0.4069  0.1116  0.5363
 3961TIP3    H111889   2.730   1.767   2.288  0.0831 -0.0111  0.4655
 3961TIP3    H211890   2.641   1.730   2.404 -0.2153  1.0816  0.6004
 3962TIP3   OH211891   0.419   5.403   3.144  1.0483  0.2863 -0.4133
 3962TIP3    H111892   0.454   5.461   3.211  1.4852 -1.6361  1.1032
 3962TIP3    H211893   0.435   5.449   3.062 -0.4005  3.1885  0.7876
 3963TIP3   OH211894   3.274   1.372   4.286  0.2347  0.2613 -0.1232
 3963TIP3    H111895   3.183   1.388   4.313  1.1102  1.0057  2.7308
 3963TIP3    H211896   3.302   1.454   4.245 -0.8416 -0.5767 -2.7407
 3964TIP3   OH211897   3.963   0.709   2.361  0.3294 -0.3560  0.2962
 3964TIP3    H111898   3.954   0.790   2.310  0.4388 -1.5810 -1.7849
 3964TIP3    H211899   3.921   0.729   2.444 -0.8030  1.4499 -0.6241
 3965TIP3   OH211900   4.858   0.582   3.708 -0.1745 -0.7970 -0.6391
 3965TIP3    H111901   4.953   0.571   3.702  0.0999  1.2745 -1.0355
 3965TIP3    H211902   4.841   0.662   3.658 -1.9185 -0.2299  0.7836
 3966TIP3   OH211903   0.931   1.068   3.892 -0.0287  0.0002 -0.1681
 3966TIP3    H111904   0.889   0.982   3.896  2.3854 -1.2390  0.5179
 3966TIP3    H211905   0.975   1.069   3.807  0.3400  0.3672  0.0288
 3967TIP3   OH211906   5.047   3.949   0.899 -0.1052  0.8999  0.0300
 3967TIP3    H111907   5.113   3.892   0.939  0.2225  0.7505 -0.6919
 3967TIP3    H211908   4.979   3.958   0.965 -0.5203 -0.9302 -0.0838
 3968TIP3   OH211909   1.579   3.376   3.035  0.5089 -0.4401 -0.5708
 3968TIP3    H111910   1.634   3.455   3.041  2.0208 -1.5030  0.3766
 3968TIP3    H211911   1.516   3.386   3.106 -0.8857  0.9826 -1.9135
 3969TIP3   OH211912   0.618   5.382   1.290  0.3025 -0.0039 -0.1595
 3969TIP3    H111913   0.650   5.352   1.375  0.3769  0.9049  0.1445
 3969TIP3    H211914   0.601   5.475   1.302  0.8683  0.2695 -1.3039
 3970TIP3   OH211915   3.343   3.218   3.573  0.5068  0.1350  0.1687
 3970TIP3    H111916   3.298   3.219   3.657 -0.5674  1.8603 -0.3619
 3970TIP3    H211917   3.314   3.138   3.530 -0.8610  0.4502  0.4758
 3971TIP3   OH211918   0.856   1.245   5.192  0.3624  0.1664  0.5943
 3971TIP3    H111919   0.905   1.173   5.153 -2.1113 -1.4457  0.2229
 3971TIP3    H211920   0.781   1.258   5.134 -1.1754  0.5563  2.5349
 3972TIP3   OH211921   1.200   0.882   1.287 -0.4789  0.1040 -0.3576
 3972TIP3    H111922   1.291   0.912   1.279  0.0209 -1.3641 -0.4677
 3972TIP3    H211923   1.195   0.805   1.230 -2.0057  0.5846 -0.9341
 3973TIP3   OH211924   3.525   3.433   4.900  0.4305  0.2688  0.1717
 3973TIP3    H111925   3.439   3.397   4.919 -0.1118  1.8533  0.9162
 3973TIP3    H211926   3.557   3.382   4.826 -1.4016  0.0534 -0.5181
 3974TIP3   OH211927   1.256   1.592   1.421  0.0373  0.0510  0.1897
 3974TIP3    H111928   1.253   1.686   1.404 -1.1262 -0.0754 -0.4146
 3974TIP3    H211929   1.319   1.582   1.493  1.0276  1.1612 -0.4969
 3975TIP3   OH211930   3.989   3.618   3.350 -0.0351  0.3296  0.0987
 3975TIP3    H111931   4.033   3.596   3.268 -1.6465 -1.3136 -0.3994
 3975TIP3    H211932   3.901   3.644   3.325  0.3127  2.8299  1.1287
 3976TIP3   OH211933   3.009   0.703   4.568  0.2523 -0.0795  0.0709
 3976TIP3    H111934   2.919   0.709   4.536 -0.1318 -1.3294  0.8576
 3976TIP3    H211935   3.057   0.768   4.517 -0.7118 -0.6712 -1.6646
 3977TIP3   OH211936   6.132   3.184   3.980 -0.0558 -0.4183  0.0550
 3977TIP3    H111937   6.121   3.115   4.046 -1.5005  1.5443  1.9734
 3977TIP3    H211938   6.051   3.181   3.929 -0.9769  1.0549  1.3762
 3978TIP3   OH211939   1.787   5.670   3.036  0.3719  0.2739  0.3578
 3978TIP3    H111940   1.716   5.703   2.981  0.4348  0.5760  0.4571
 3978TIP3    H211941   1.755   5.682   3.126  0.6024  0.5305  0.4060
 3979TIP3   OH211942   1.573   4.740   5.131 -0.6339  0.6536  0.3155
 3979TIP3    H111943   1.552   4.783   5.214  0.4462  1.4466  0.2020
 3979TIP3    H211944   1.573   4.811   5.066  1.9632  0.7022  0.2647
 3980TIP3   OH211945   5.807   2.187   0.701  0.1266  0.1078  0.7278
 3980TIP3    H111946   5.843   2.144   0.778 -2.6274 -0.8474  1.6177
 3980TIP3    H211947   5.790   2.116   0.639 -0.1501  0.5130  0.3338
 3981TIP3   OH211948   4.946   1.882   1.373 -0.1681  0.2420 -0.0196
 3981TIP3    H111949   4.938   1.896   1.468  1.5776 -0.1629  0.2231
 3981TIP3    H211950   5.016   1.942   1.346 -0.1397 -0.1860 -0.9229
 3982TIP3   OH211951   4.025   0.013   4.386  0.4156 -0.1547  0.1463
 3982TIP3    H111952   4.103  -0.032   4.417  0.0973  0.2230  1.5382
 3982TIP3    H211953   4.056   0.100   4.360  0.5760 -0.2574 -0.0108
 3983TIP3   OH211954   2.035   2.981   0.422 -0.0993  0.4577 -0.0050
 3983TIP3    H111955   1.983   2.906   0.394 -1.4554  0.3352  2.5914
 3983TIP3    H211956   2.025   3.045   0.352 -1.4514 -0.6284 -0.8365
 3984TIP3   OH211957   2.818   4.821   0.529 -0.0184 -0.0088  0.3385
 3984TIP3    H111958   2.810   4.852   0.439 -2.2262  0.8131  0.7431
 3984TIP3    H211959   2.886   4.754   0.526  0.9171  0.9663 -1.6625
 3985TIP3   OH211960   1.595   5.870   0.828 -0.2266  0.7644 -0.2199
 3985TIP3    H111961   1.686   5.841   0.822  0.1280  1.9231 -0.8411
 3985TIP3    H211962   1.547   5.811   0.770 -0.1668 -0.8554  1.3042
 3986TIP3   OH211963   4.438   1.022   3.847 -0.1223 -0.3733 -0.8545
 3986TIP3    H111964   4.342   1.025   3.845 -0.1146  1.0872 -0.1819
 3986TIP3    H211965   4.459   0.977   3.928 -0.2635  0.8299 -0.1199
 3987TIP3   OH211966   3.228   1.291   3.217 -0.2034 -0.0090  0.0581
 3987TIP3    H111967   3.308   1.319   3.261 -0.0854 -0.9751  0.4938
 3987TIP3    H211968   3.259   1.240   3.141 -0.4083  0.7655 -0.5589
 3988TIP3   OH211969   1.145   1.343   3.565 -0.1387 -0.2543 -0.0633
 3988TIP3    H111970   1.146   1.366   3.473  0.2058 -1.1517 -0.2961
 3988TIP3    H211971   1.199   1.410   3.608 -1.0515  0.6886 -0.3714
 3989TIP3   OH211972   4.679   4.877   4.028  0.1407 -0.0932 -0.1280
 3989TIP3    H111973   4.608   4.937   4.005 -1.2981 -0.9394  1.8527
 3989TIP3    H211974   4.653   4.794   3.990  0.3582 -0.2863  0.1425
 3990TIP3   OH211975   6.142   4.553   0.451 -0.0770 -0.4714 -0.0600
 3990TIP3    H111976   6.151   4.592   0.364 -0.3118  1.3298  0.6798
 3990TIP3    H211977   6.123   4.627   0.509  0.9807 -1.4858  1.6826
 3991TIP3   OH211978   3.980   0.979   2.264  0.3587 -0.2009 -0.1347
 3991TIP3    H111979   3.950   1.068   2.244 -0.1589  0.0965  1.8269
 3991TIP3    H211980   4.070   0.990   2.296  0.7880 -0.5607 -1.1566
 3992TIP3   OH211981   2.469   0.701   3.502 -0.2667 -0.6959 -0.1487
 3992TIP3    H111982   2.557   0.729   3.527 -0.1595  0.4580 -1.6796
 3992TIP3    H211983   2.480   0.611   3.472  0.7023 -0.1057 -1.6789
 3993TIP3   OH211984   4.855   1.220   3.509  0.6704  0.0188 -0.2581
 3993TIP3    H111985   4.861   1.225   3.605  2.0078 -0.6059 -0.2832
 3993TIP3    H211986   4.901   1.140   3.487  0.4147  0.1846 -1.4405
 3994TIP3   OH211987   6.045   5.398   2.224  0.2592 -0.4117  0.0174
 3994TIP3    H111988   6.030   5.460   2.152  3.3201  0.1509 -0.2989
 3994TIP3    H211989   6.071   5.317   2.180  0.9022 -0.4424  0.4352
 3995TIP3   OH211990   4.665   3.336   4.698 -0.1414  0.6683  0.2050
 3995TIP3    H111991   4.671   3.334   4.603  0.1888  0.3490  0.2310
 3995TIP3    H211992   4.735   3.395   4.726  0.0874  0.3682  0.2745
 3996TIP3   OH211993   3.231   3.172   3.830  0.4199 -0.2584 -0.0296
 3996TIP3    H111994   3.142   3.191   3.799  0.2153  0.1665  0.7979
 3996TIP3    H211995   3.237   3.076   3.828  0.7072 -0.2540 -2.1404
 3997TIP3   OH211996   0.514   0.722   3.561 -0.0405 -0.7728  0.1534
 3997TIP3    H111997   0.550   0.739   3.474 -0.4121  1.3662  0.3785
 3997TIP3    H211998   0.510   0.808   3.603 -1.4413 -1.5300  1.6791
 3998TIP3   OH211999   2.747   5.364   0.750 -0.0127  0.1527  0.1617
 3998TIP3    H112000   2.670   5.363   0.692 -0.8582 -0.2913  1.2667
 3998TIP3    H212001   2.711   5.375   0.838  1.0397 -1.9159  0.9119
 3999TIP3   OH212002   6.257   5.395   4.766  0.1844 -0.7055  0.9814
 3999TIP3    H112003   6.187   5.341   4.802  0.7981 -1.1362  1.5694
 3999TIP3    H212004   6.229   5.415   4.677 -0.3349 -1.5085  0.9525
 4000TIP3   OH212005   2.802   1.902   4.857  0.0120 -0.3518  0.0703
 4000TIP3    H112006   2.773   1.993   4.847 -1.7443 -1.0370 -1.7570
 4000TIP3    H212007   2.739   1.864   4.918 -0.4149 -0.7824 -0.6192
 4001TIP3   OH212008   4.027   4.448   4.938  0.5273 -0.4801  0.0251
 4001TIP3    H112009   4.020   4.355   4.955 -1.7556 -0.5103 -0.7157
 4001TIP3    H212010   3.957   4.466   4.875  0.8995  1.7355  0.1604
 4002TIP3   OH212011   1.108   5.032   3.767  0.4092  0.4219  0.6385
 4002TIP3    H112012   1.052   5.046   3.843  0.8749 -0.8540  1.2608
 4002TIP3    H212013   1.098   4.938   3.748  1.0753  0.5205 -0.2531
 4003TIP3   OH212014   4.451   2.627   1.967  0.1355  0.2375 -0.1579
 4003TIP3    H112015   4.412   2.599   1.885  0.5749 -0.6732 -0.0609
 4003TIP3    H212016   4.403   2.578   2.034  0.9140 -0.3174  0.0111
 4004TIP3   OH212017   4.654   2.759   2.578  0.0979  0.5643 -0.6766
 4004TIP3    H112018   4.705   2.804   2.512 -1.1537  4.3770  0.7086
 4004TIP3    H212019   4.714   2.749   2.653  0.0303  1.1204 -0.5462
 4005TIP3   OH212020   3.986   2.741   4.117 -0.0504  0.5391 -0.0654
 4005TIP3    H112021   4.060   2.757   4.059 -0.3364  2.4379  0.0413
 4005TIP3    H212022   3.964   2.827   4.153 -2.0969 -0.0106  0.1445
 4006TIP3   OH212023   4.916   1.797   4.325  0.2383  0.3607 -0.0287
 4006TIP3    H112024   4.999   1.776   4.369  0.3022 -0.4671 -0.5169
 4006TIP3    H212025   4.933   1.779   4.232 -0.1912  1.1519 -0.2695
 4007TIP3   OH212026   3.581   3.844   2.793  0.1244 -0.0325  0.1071
 4007TIP3    H112027   3.595   3.824   2.700  0.2780 -1.4108  0.4067
 4007TIP3    H212028   3.519   3.778   2.823  1.0148 -0.3681  1.2756
 4008TIP3   OH212029   1.983   5.513   4.904 -0.2666 -0.4535 -0.1941
 4008TIP3    H112030   1.911   5.469   4.859 -0.8909 -1.3907  1.6334
 4008TIP3    H212031   2.062   5.476   4.864 -0.7709 -0.1710 -1.5085
 4009TIP3   OH212032   3.508   4.354   5.056 -0.1625 -0.4909 -0.2923
 4009TIP3    H112033   3.520   4.345   4.962 -1.4059  4.9752 -1.3261
 4009TIP3    H212034   3.415   4.375   5.067  0.0671 -0.4107  2.0593
 4010TIP3   OH212035   3.937   2.146   3.031 -0.2729 -0.0720  0.3490
 4010TIP3    H112036   3.986   2.093   2.968 -0.5878  0.7270 -0.5932
 4010TIP3    H212037   4.005   2.192   3.081  0.0099 -1.4662  1.3075
 4011TIP3   OH212038   0.738   2.850   3.165  0.4412  0.1760  0.8813
 4011TIP3    H112039   0.734   2.938   3.127  0.3233  0.2791  1.1258
 4011TIP3    H212040   0.726   2.791   3.091  1.4304  0.3402  0.5730
 4012TIP3   OH212041   1.616   0.364   2.767 -0.4980  0.7186  0.2354
 4012TIP3    H112042   1.555   0.289   2.762  0.2256  0.1857 -3.2201
 4012TIP3    H212043   1.560   0.439   2.786 -1.6956 -0.2583  0.7110
 4013TIP3   OH212044   5.629   3.978   3.762  0.0303  0.1358 -0.3989
 4013TIP3    H112045   5.696   4.045   3.780 -0.3806  0.6694 -0.8248
 4013TIP3    H212046   5.546   4.022   3.782 -0.1426 -1.3354  2.8539
 4014TIP3   OH212047   2.253   0.051   3.178  0.2014 -0.2514  0.8439
 4014TIP3    H112048   2.211   0.022   3.259 -1.0063 -0.6703  0.1041
 4014TIP3    H212049   2.262   0.146   3.188 -1.2846 -0.0866  0.9080
 4015TIP3   OH212050   0.607   5.886   0.109  0.2903 -0.0834  0.1768
 4015TIP3    H112051   0.664   5.812   0.087  0.0741  0.0700 -0.9518
 4015TIP3    H212052   0.535   5.846   0.157  1.4117 -0.2537  1.8273
 4016TIP3   OH212053   3.389   1.145   3.629  0.5005  0.5426  0.3053
 4016TIP3    H112054   3.298   1.155   3.658 -0.7971  0.3562 -3.1317
 4016TIP3    H212055   3.442   1.171   3.704 -2.3883  1.8158  2.0671
 4017TIP3   OH212056   0.972   4.659   0.695  0.1919  0.0145  0.2743
 4017TIP3    H112057   0.953   4.701   0.611  0.6570  0.5707  0.4380
 4017TIP3    H212058   0.960   4.566   0.679 -0.5260  0.1771 -0.1897
 4018TIP3   OH212059   0.458   4.862   4.602  0.0965 -0.0487 -0.1176
 4018TIP3    H112060   0.407   4.781   4.600 -1.3745  0.8625 -0.2584
 4018TIP3    H212061   0.451   4.897   4.513 -0.3922  0.9064  0.2941
 4019TIP3   OH212062   1.676   1.803   5.152  0.0632  0.2352 -0.0703
 4019TIP3    H112063   1.729   1.750   5.092 -0.0554  0.5179 -0.4300
 4019TIP3    H212064   1.737   1.867   5.189  0.2308 -0.2201  0.4505
 4020TIP3   OH212065   2.707   1.397   1.815 -0.2494 -0.3085  0.3619
 4020TIP3    H112066   2.649   1.389   1.739 -0.0743 -1.7761  0.3529
 4020TIP3    H212067   2.776   1.332   1.799  1.6360  1.6044  0.1892
 4021TIP3   OH212068   3.756   0.065   2.894  0.3137 -0.2120  0.6943
 4021TIP3    H112069   3.720   0.134   2.950 -0.0227  1.0065 -0.9621
 4021TIP3    H212070   3.847   0.055   2.923  0.7720  1.8948  0.1121
 4022TIP3   OH212071   0.696   5.911   4.844  0.4276  0.3179  0.8838
 4022TIP3    H112072   0.636   5.841   4.866  3.2504 -1.7441  2.8042
 4022TIP3    H212073   0.671   5.984   4.901 -1.0457  0.0394  0.6207
 4023TIP3   OH212074   4.352   4.558   2.109 -0.1537 -0.2262 -0.2109
 4023TIP3    H112075   4.305   4.640   2.127 -0.0704  0.0211 -1.0939
 4023TIP3    H212076   4.297   4.512   2.045  1.2589  0.5176 -2.0271
 4024TIP3   OH212077   4.624   4.940   1.760  0.0703 -0.3790  0.6704
 4024TIP3    H112078   4.650   5.028   1.789  0.4484 -0.5893  0.9733
 4024TIP3    H212079   4.564   4.956   1.687  0.8802  0.1062  0.1042
 4025TIP3   OH212080   5.060   2.660   3.958  0.2393  0.3361  0.1990
 4025TIP3    H112081   5.009   2.730   3.918  1.6159  1.1650 -0.1667
 4025TIP3    H212082   5.148   2.696   3.968  0.4361 -0.5553  2.1513
 4026TIP3   OH212083   1.879   5.208   3.238  0.2040 -0.0700  0.6586
 4026TIP3    H112084   1.830   5.171   3.164 -1.1696  0.9346  1.0227
 4026TIP3    H212085   1.902   5.296   3.209  3.0500 -0.9252 -0.0260
 4027TIP3   OH212086   2.378   2.320   2.782 -0.4356  0.2611 -0.0835
 4027TIP3    H112087   2.364   2.413   2.762 -0.5834  0.7071  1.8564
 4027TIP3    H212088   2.412   2.320   2.872  0.0736 -1.5466 -0.2324
 4028TIP3   OH212089   1.325   1.939   0.548  0.3507  0.1978  0.5885
 4028TIP3    H112090   1.260   1.946   0.479  0.8358  1.8676  0.2570
 4028TIP3    H212091   1.408   1.928   0.502  0.5394  0.1030  0.9444
 4029TIP3   OH212092   5.003   1.788   0.351  0.4170  0.5699 -0.3167
 4029TIP3    H112093   4.913   1.754   0.350  0.5166  0.3083 -0.4684
 4029TIP3    H212094   4.997   1.871   0.399  0.5626 -0.7654  2.1754
 4030TIP3   OH212095   4.999   3.882   2.765  0.1798 -0.9325 -0.1984
 4030TIP3    H112096   5.012   3.846   2.677  1.5734 -0.6923 -0.1080
 4030TIP3    H212097   5.037   3.970   2.760 -0.6286 -0.5327  0.3804
 4031TIP3   OH212098   5.169   3.099   0.558 -0.0863 -0.3725  0.0452
 4031TIP3    H112099   5.198   3.172   0.613 -0.6674  0.1874 -0.3736
 4031TIP3    H212100   5.091   3.065   0.601 -0.2330 -0.2757 -0.1387
 4032TIP3   OH212101   0.747   0.226   1.134 -0.4625 -0.3708  0.6601
 4032TIP3    H112102   0.765   0.284   1.208  0.5883 -3.4858  3.0679
 4032TIP3    H212103   0.655   0.201   1.144 -1.2831  1.6515 -1.0922
 4033TIP3   OH212104   0.747   5.181   0.247 -0.0325  0.4138  0.0492
 4033TIP3    H112105   0.668   5.208   0.201  0.1988  0.8783 -0.0767
 4033TIP3    H212106   0.717   5.152   0.333 -0.6148 -1.4842 -0.7366
 4034TIP3   OH212107   5.275   5.732   1.494  0.4030 -0.0051 -0.6286
 4034TIP3    H112108   5.219   5.779   1.432 -0.7584 -0.7704 -0.1789
 4034TIP3    H212109   5.281   5.643   1.459 -0.2685 -0.4481  0.3412
 4035TIP3   OH212110   4.210   5.713   1.411  0.4019  0.7052 -0.2137
 4035TIP3    H112111   4.202   5.801   1.373 -0.4196  0.2206 -1.2162
 4035TIP3    H212112   4.285   5.674   1.367  0.0713  0.5028 -0.5980
 4036TIP3   OH212113   5.324   0.591   2.877  0.0678  0.3047 -0.6375
 4036TIP3    H112114   5.269   0.650   2.927  1.0397  2.1552 -1.6206
 4036TIP3    H212115   5.280   0.507   2.882 -1.5100  1.1457  0.6410
 4037TIP3   OH212116   3.436   5.910   3.852  0.2773  0.0603  0.5861
 4037TIP3    H112117   3.515   5.857   3.845  0.6493  0.8307 -2.7186
 4037TIP3    H212118   3.458   5.979   3.914  2.3385  0.4582 -0.5124
 4038TIP3   OH212119   4.941   2.246   0.431  0.0716  0.2027  0.0108
 4038TIP3    H112120   4.856   2.226   0.393 -0.5941  1.0466  0.9833
 4038TIP3    H212121   4.955   2.339   0.412  0.3334  0.3035  0.6671
 4039TIP3   OH212122   3.015   0.516   2.446  0.4423  0.2002 -0.4427
 4039TIP3    H112123   3.013   0.455   2.373  1.7806  1.0518 -1.2517
 4039TIP3    H212124   3.002   0.462   2.524  1.2009 -1.0571 -1.1562
 4040TIP3   OH212125   0.296   1.048   1.757 -0.4271 -0.4876 -0.2966
 4040TIP3    H112126   0.347   0.974   1.726 -2.9242 -1.2331 -3.0410
 4040TIP3    H212127   0.330   1.123   1.707 -0.2763 -0.4743 -0.1741
 4041TIP3   OH212128   3.569   4.725   0.132  0.5206 -0.6177 -0.3564
 4041TIP3    H112129   3.641   4.752   0.077  0.7155 -1.7788 -0.7046
 4041TIP3    H212130   3.512   4.802   0.138  1.1735 -0.0714 -1.0576
 4042TIP3   OH212131   2.485   2.502   1.960 -0.5246  0.1903  0.4521
 4042TIP3    H112132   2.457   2.593   1.952 -2.0766 -0.3832 -1.2677
 4042TIP3    H212133   2.580   2.505   1.949 -0.0775  1.8836  3.6104
 4043TIP3   OH212134   0.420   0.372   4.187  0.1464  0.0196 -0.2792
 4043TIP3    H112135   0.329   0.342   4.177  0.9003 -3.0563  0.7760
 4043TIP3    H212136   0.465   0.338   4.110  0.4478  1.5887 -0.8289
 4044TIP3   OH212137   1.704   5.688   3.959 -0.1044 -0.0571 -0.0079
 4044TIP3    H112138   1.778   5.697   3.899  1.0805  0.6418  1.4915
 4044TIP3    H212139   1.670   5.776   3.969 -1.0864 -0.3581 -0.5864
 4045TIP3   OH212140   1.929   4.123   2.725 -0.7455  0.4211 -0.6919
 4045TIP3    H112141   1.878   4.045   2.705 -1.3214  0.3673  0.8794
 4045TIP3    H212142   1.963   4.107   2.813  2.2576  0.3252 -1.7630
 4046TIP3   OH212143   0.935   3.098   3.357 -0.2226  0.3558 -0.4941
 4046TIP3    H112144   0.885   3.111   3.276  0.4096 -1.5511 -1.2382
 4046TIP3    H212145   0.891   3.026   3.402 -0.1769  0.9688  0.5829
 4047TIP3   OH212146   0.447   1.956   3.445  0.5698 -0.4770 -0.5738
 4047TIP3    H112147   0.506   2.030   3.430  0.2297 -0.4234 -1.7664
 4047TIP3    H212148   0.415   1.969   3.534  3.4498 -1.3318  0.6736
 4048TIP3   OH212149   1.850   0.387   1.626  0.8083 -0.0699  0.1472
 4048TIP3    H112150   1.872   0.396   1.719  0.6984 -2.0092  0.4070
 4048TIP3    H212151   1.816   0.473   1.601 -0.8661 -0.0067  2.3781
 4049TIP3   OH212152   2.244   4.711   3.737 -0.0442  0.2881  0.3041
 4049TIP3    H112153   2.310   4.738   3.672 -0.9116  1.1761 -0.2308
 4049TIP3    H212154   2.198   4.792   3.759 -1.1214 -0.3599  0.4883
 4050TIP3   OH212155   4.811   1.295   0.406  0.3851 -0.0254  0.3068
 4050TIP3    H112156   4.894   1.254   0.434  0.0087 -0.6028  0.5941
 4050TIP3    H212157   4.747   1.224   0.410 -0.1224  0.4125  0.0470
 4051TIP3   OH212158   3.238   4.783   1.088 -0.3270 -0.4045  0.2248
 4051TIP3    H112159   3.266   4.760   0.999  0.0972  1.2759 -0.1112
 4051TIP3    H212160   3.210   4.874   1.081 -0.0362 -0.1617  1.8750
 4052TIP3   OH212161   0.919   0.043   3.972  0.0676  0.6507 -0.5850
 4052TIP3    H112162   0.848   0.000   3.923 -1.8722  0.9536  1.7817
 4052TIP3    H212163   0.959  -0.027   4.023  0.0794  0.8306 -0.3439
 4053TIP3   OH212164   3.865   3.546   4.683  0.4649  0.1153 -0.1467
 4053TIP3    H112165   3.843   3.628   4.638 -0.3237 -0.5876 -1.0676
 4053TIP3    H212166   3.791   3.489   4.666  0.6898 -0.5722  1.0786
 4054TIP3   OH212167   0.131   3.637   1.490 -0.1758 -0.5222 -0.2134
 4054TIP3    H112168   0.156   3.557   1.445  1.4758  0.2709 -0.8144
 4054TIP3    H212169   0.184   3.638   1.569 -0.7895 -0.4135  0.2022
 4055TIP3   OH212170   4.079   1.952   3.963 -0.4784  0.1626 -0.0555
 4055TIP3    H112171   4.080   1.895   3.886  1.2158 -1.3118  0.9953
 4055TIP3    H212172   4.114   2.035   3.932 -0.5640 -0.1580 -1.0516
 4056TIP3   OH212173   0.255   5.750   4.547  0.3314  0.1256 -0.3777
 4056TIP3    H112174   0.305   5.782   4.472 -0.2762  0.3574 -0.6902
 4056TIP3    H212175   0.185   5.815   4.558 -0.3874 -0.6221 -0.4571
 4057TIP3   OH212176   2.645   5.418   3.253 -0.6986 -0.2961  0.0004
 4057TIP3    H112177   2.643   5.353   3.184 -2.8235  1.5617 -1.8339
 4057TIP3    H212178   2.681   5.496   3.212 -2.0469  0.8761  0.9509
 4058TIP3   OH212179   2.587   4.855   1.782  0.2570 -0.0335  0.3589
 4058TIP3    H112180   2.528   4.928   1.765 -2.9921 -2.5340 -0.1716
 4058TIP3    H212181   2.674   4.894   1.783 -1.1961  3.6690 -0.5989
 4059TIP3   OH212182   6.244   5.330   3.930  0.4344  0.2433  0.2843
 4059TIP3    H112183   6.161   5.374   3.946  0.3826  0.0244  0.6363
 4059TIP3    H212184   6.243   5.309   3.837  0.5928  1.2405  0.0453
 4060TIP3   OH212185   1.129   2.123   1.588  0.2511 -0.1442 -0.1724
 4060TIP3    H112186   1.205   2.175   1.559 -0.5828  1.2428  0.0506
 4060TIP3    H212187   1.080   2.182   1.645 -0.2566 -1.5032  0.8481
 4061TIP3   OH212188   4.742   3.544   1.952 -0.2038  0.2184 -0.6228
 4061TIP3    H112189   4.665   3.491   1.973 -1.2435  1.5720 -0.8628
 4061TIP3    H212190   4.715   3.597   1.876  1.6615 -0.7432 -2.0485
 4062TIP3   OH212191   0.404   4.369   2.387 -0.5977  0.4989 -0.0318
 4062TIP3    H112192   0.495   4.346   2.405 -0.9149 -0.2585  0.6256
 4062TIP3    H212193   0.355   4.289   2.405 -1.3775  0.8505 -0.5516
 4063TIP3   OH212194   5.948   0.881   3.326 -0.3778  0.4622  0.4984
 4063TIP3    H112195   5.939   0.812   3.261  0.7409  0.2123  0.5799
 4063TIP3    H212196   5.974   0.835   3.406 -0.4800  0.8939  0.7839
 4064TIP3   OH212197   1.346   4.002   4.942 -0.1654  0.3124  0.0968
 4064TIP3    H112198   1.297   3.953   5.007  0.2889 -0.0997  0.1341
 4064TIP3    H212199   1.317   4.093   4.952 -1.1971  0.0163 -0.1431
 4065TIP3   OH212200   5.685   2.483   0.162  0.1393  0.0109 -0.4260
 4065TIP3    H112201   5.645   2.568   0.178  0.8794  0.3655 -0.4503
 4065TIP3    H212202   5.611   2.426   0.139 -0.3205  0.7152 -0.7198
 4066TIP3   OH212203   1.557   0.908   0.720 -0.1351 -0.1771 -0.3030
 4066TIP3    H112204   1.482   0.948   0.763 -1.9126 -0.0469 -3.2515
 4066TIP3    H212205   1.580   0.969   0.649  1.5347 -1.1275 -0.6402
 4067TIP3   OH212206   2.011   5.095   0.535 -0.3147 -0.3998  0.0761
 4067TIP3    H112207   2.055   5.028   0.588 -0.5360  0.0816  0.8837
 4067TIP3    H212208   1.940   5.048   0.492  0.1561 -0.8996 -0.1805
 4068TIP3   OH212209   0.993   1.941   2.021 -0.2167 -0.3286 -0.2201
 4068TIP3    H112210   0.946   1.879   2.076  0.5119  0.1014  0.9333
 4068TIP3    H212211   0.978   1.911   1.932 -1.3697 -1.0954  0.2071
 4069TIP3   OH212212   1.006   5.296   0.786 -0.1658  0.0701 -0.6475
 4069TIP3    H112213   1.015   5.375   0.840 -1.2453 -1.6167  2.2276
 4069TIP3    H212214   1.092   5.254   0.790 -0.2502 -0.0661 -0.1585
 4070TIP3   OH212215   5.877   2.944   0.514  0.5345  0.1973  0.0563
 4070TIP3    H112216   5.932   2.872   0.484 -1.1443 -1.1471  0.0266
 4070TIP3    H212217   5.928   3.022   0.495  1.2723 -0.7879 -2.5693
 4071TIP3   OH212218   3.297   1.600   3.236  0.2074 -0.0306  0.4557
 4071TIP3    H112219   3.239   1.636   3.169 -0.7460  0.6231  1.5922
 4071TIP3    H212220   3.256   1.517   3.261 -0.4443  0.5961  1.5057
 4072TIP3   OH212221   1.269   5.189   2.592  0.7115 -0.3058  0.0987
 4072TIP3    H112222   1.321   5.159   2.666  1.5287  1.3154  0.2142
 4072TIP3    H212223   1.179   5.182   2.621  1.0446  2.0129  1.9967
 4073TIP3   OH212224   3.372   0.914   3.486 -0.1343 -0.5805  0.2198
 4073TIP3    H112225   3.449   0.861   3.509  1.3093  0.7192 -1.3282
 4073TIP3    H212226   3.379   0.991   3.542  0.5945  0.2553 -0.9761
 4074TIP3   OH212227   4.400   4.735   3.709 -0.8548 -0.3693 -0.2222
 4074TIP3    H112228   4.345   4.812   3.698 -2.2698 -1.0656  1.4406
 4074TIP3    H212229   4.352   4.664   3.666 -1.1679 -0.9414  1.0293
 4075TIP3   OH212230   3.132   3.156   3.166 -0.7212  0.2989 -0.2033
 4075TIP3    H112231   3.143   3.249   3.145 -0.0150 -0.3746 -3.3967
 4075TIP3    H212232   3.111   3.115   3.082  3.3670 -3.0607  0.0906
 4076TIP3   OH212233   3.781   5.871   1.863 -0.0351 -0.4350  0.4218
 4076TIP3    H112234   3.856   5.816   1.884  0.3598 -0.9037 -2.0054
 4076TIP3    H212235   3.817   5.959   1.857  0.8645 -0.9151 -2.8408
 4077TIP3   OH212236   2.020   1.819   3.606  0.0922 -0.5822 -0.4276
 4077TIP3    H112237   2.059   1.745   3.558  0.4277  1.2178 -3.1981
 4077TIP3    H212238   2.095   1.870   3.637 -0.0755  0.0538 -1.0353
 4078TIP3   OH212239   5.197   5.720   4.942 -0.3553  0.1630 -0.6796
 4078TIP3    H112240   5.195   5.707   4.847  1.2691 -1.0986 -0.5829
 4078TIP3    H212241   5.202   5.632   4.978 -2.3756  0.5340  0.7002
 4079TIP3   OH212242   4.379   5.034   4.827  0.2318  0.2856  0.3148
 4079TIP3    H112243   4.351   5.113   4.782 -1.5920  1.0954  2.6405
 4079TIP3    H212244   4.456   5.061   4.878  0.3659  0.2238  0.1452
 4080TIP3   OH212245   2.554   0.413   2.024 -0.2670 -0.6289  0.2399
 4080TIP3    H112246   2.493   0.389   2.094 -0.9034  0.0457 -0.0728
 4080TIP3    H212247   2.503   0.468   1.965  0.0084 -1.8894 -1.2351
 4081TIP3   OH212248   2.457   2.728   0.162  0.2206  0.3998  0.5381
 4081TIP3    H112249   2.452   2.709   0.256  0.6754  0.7089  0.6311
 4081TIP3    H212250   2.511   2.807   0.157  0.7288  0.0245 -0.0222
 4082TIP3   OH212251   5.586   4.868   0.118 -0.1857 -0.5299  0.2239
 4082TIP3    H112252   5.531   4.938   0.084  0.6335 -0.1779 -0.3921
 4082TIP3    H212253   5.662   4.913   0.156  1.6890 -1.1296 -2.5545
 4083TIP3   OH212254   6.074   2.880   4.134  0.0549  0.3623  0.5920
 4083TIP3    H112255   6.044   2.947   4.196 -0.5734  2.5949 -1.9629
 4083TIP3    H212256   6.002   2.871   4.072  1.7181  0.3629 -1.4411
 4084TIP3   OH212257   3.863   4.621   0.648  0.9163 -0.0824  0.1971
 4084TIP3    H112258   3.806   4.552   0.683  0.3204  0.4460  0.3008
 4084TIP3    H212259   3.824   4.644   0.564  0.1052  1.2767  0.8999
 4085TIP3   OH212260   1.956   3.345   1.470  0.3769 -0.1065 -0.3018
 4085TIP3    H112261   1.875   3.347   1.521 -0.4950  0.9374 -1.6710
 4085TIP3    H212262   1.931   3.306   1.386  1.2204  0.4922 -0.8485
 4086TIP3   OH212263   1.387   3.350   4.183 -0.5007 -0.3199 -0.9996
 4086TIP3    H112264   1.459   3.336   4.243 -0.1632  1.7029 -0.8672
 4086TIP3    H212265   1.395   3.279   4.118  0.9056 -0.7678 -0.3644
 4087TIP3   OH212266   1.777  -0.026   1.755 -0.5422  0.2780 -0.6168
 4087TIP3    H112267   1.762   0.067   1.773 -1.1948  0.1595 -0.5351
 4087TIP3    H212268   1.780  -0.031   1.659  0.6255  0.5496 -0.6112
 4088TIP3   OH212269   5.308   2.851   1.455  0.3318  0.3873 -0.0413
 4088TIP3    H112270   5.342   2.914   1.391  1.2878  1.0720  1.1179
 4088TIP3    H212271   5.242   2.802   1.406 -0.3123  2.1372 -1.0552
 4089TIP3   OH212272   5.296   3.969   1.209  0.0724  0.5180 -0.4113
 4089TIP3    H112273   5.292   4.048   1.263 -0.8038 -0.1323  0.5116
 4089TIP3    H212274   5.321   3.900   1.270  0.7889  0.0571 -1.2028
 4090TIP3   OH212275   0.495   2.033   4.895  0.4800  0.5559  0.1746
 4090TIP3    H112276   0.429   2.083   4.849  0.5331 -0.4378 -1.0350
 4090TIP3    H212277   0.497   1.949   4.850  0.9637 -0.2512  1.6274
 4091TIP3   OH212278   5.257   2.674   1.681  0.5331  0.7135 -0.3059
 4091TIP3    H112279   5.268   2.735   1.608 -0.5386  1.8740  0.4567
 4091TIP3    H212280   5.274   2.727   1.759  0.6699 -0.2545  0.3403
 4092TIP3   OH212281   3.184   3.931   4.179 -0.3171  0.2014  0.6193
 4092TIP3    H112282   3.108   3.971   4.137  2.0343  1.6564 -2.7253
 4092TIP3    H212283   3.200   3.852   4.128 -0.0140 -0.4935  1.7748
 4093TIP3   OH212284   1.485   4.470   3.147  0.8119 -0.8474  0.1041
 4093TIP3    H112285   1.559   4.438   3.096  0.8302 -0.1355 -0.3181
 4093TIP3    H212286   1.510   4.558   3.175  0.0531 -0.5259 -0.2042
 4094TIP3   OH212287   5.501   5.167   2.909  0.0093  0.3053 -0.2886
 4094TIP3    H112288   5.419   5.117   2.901  0.3596 -0.3198 -0.0639
 4094TIP3    H212289   5.481   5.234   2.974 -0.0469 -0.4572  0.5082
 4095TIP3   OH212290   1.929   1.510   4.769 -0.3122 -0.6784 -0.4362
 4095TIP3    H112291   1.856   1.537   4.714  0.6409 -0.3805 -1.5994
 4095TIP3    H212292   2.007   1.535   4.720  0.6025  0.3912  1.4152
 4096TIP3   OH212293   4.444   3.734   3.484  0.4446 -0.6391 -0.2885
 4096TIP3    H112294   4.519   3.791   3.503  0.9913 -1.0653 -1.0978
 4096TIP3    H212295   4.379   3.756   3.551  0.0878  1.9140 -1.3751
 4097TIP3   OH212296   5.382   3.278   1.348 -0.0593  0.4193 -0.1610
 4097TIP3    H112297   5.363   3.352   1.290 -3.0005 -0.8207 -0.9473
 4097TIP3    H212298   5.306   3.275   1.407  1.8246  0.3185  2.4283
 4098TIP3   OH212299   2.487   2.945   1.061 -0.2814  0.4575  0.3525
 4098TIP3    H112300   2.449   3.017   1.112  1.4942  1.0335  0.9524
 4098TIP3    H212301   2.534   2.988   0.990  0.1290 -0.1544  0.2442
 4099TIP3   OH212302   1.690   0.125   3.370  0.2506 -0.1696  0.5839
 4099TIP3    H112303   1.665   0.205   3.324 -2.5011 -1.2187  0.0634
 4099TIP3    H212304   1.760   0.153   3.430  0.9816  2.0966 -1.1826
 4100TIP3   OH212305   5.417   5.149   1.420  0.0635 -0.0082  0.7447
 4100TIP3    H112306   5.478   5.101   1.476  0.3846  0.2114  0.5810
 4100TIP3    H212307   5.356   5.190   1.481  1.0575  1.1285  1.0022
 4101TIP3   OH212308   0.994   3.772   3.631  0.2538  0.0530 -0.1875
 4101TIP3    H112309   1.058   3.706   3.603  0.6604  1.0507 -1.7585
 4101TIP3    H212310   1.032   3.855   3.603  0.4583  1.1810  3.0209
 4102TIP3   OH212311   5.319   3.656   2.407 -0.5084  0.1555 -0.0058
 4102TIP3    H112312   5.383   3.662   2.336  0.5792 -1.2627  0.8152
 4102TIP3    H212313   5.342   3.727   2.467  1.7843 -1.5985  1.3826
 4103TIP3   OH212314   4.074   3.781   1.269 -0.2025  0.2114 -0.5892
 4103TIP3    H112315   4.024   3.771   1.350  0.5480  2.4918  0.2462
 4103TIP3    H212316   4.013   3.822   1.208  0.1061  1.4518 -0.1027
 4104TIP3   OH212317   1.083   5.646   1.596  0.6908  0.5035  0.3790
 4104TIP3    H112318   1.076   5.557   1.559  0.7344  0.5375  0.2873
 4104TIP3    H212319   1.083   5.633   1.691  1.2325  0.3597  0.3641
 4105TIP3   OH212320   1.154   3.130   3.171 -0.0691  0.3087  0.0492
 4105TIP3    H112321   1.204   3.193   3.223 -3.0099  2.4168  0.5957
 4105TIP3    H212322   1.101   3.083   3.236  0.9619 -1.7297 -0.5209
 4106TIP3   OH212323   3.690   5.626   1.719 -0.2768  0.2717 -0.6501
 4106TIP3    H112324   3.680   5.559   1.787  1.8221  0.9475  0.4028
 4106TIP3    H212325   3.646   5.703   1.754 -1.4131 -0.0880 -1.2238
 4107TIP3   OH212326   2.509   2.202   3.603  0.1530  0.2106  0.5501
 4107TIP3    H112327   2.538   2.139   3.537  0.2882  0.9988 -0.1579
 4107TIP3    H212328   2.590   2.232   3.644  0.0267 -0.8384  1.6286
 4108TIP3   OH212329   4.302   4.805   0.758  0.6444 -0.5301 -0.5789
 4108TIP3    H112330   4.296   4.900   0.766  0.7340 -0.6461  1.1074
 4108TIP3    H212331   4.216   4.772   0.784  1.3172 -1.0008  1.1899
 4109TIP3   OH212332   2.654   1.600   2.644  0.0520 -0.1608 -0.1723
 4109TIP3    H112333   2.604   1.535   2.595  1.2003 -1.6654  0.5737
 4109TIP3    H212334   2.701   1.649   2.577 -0.9127 -0.0069 -0.7562
 4110TIP3   OH212335   3.982   4.113   1.628 -0.0680 -0.0801 -0.0602
 4110TIP3    H112336   4.035   4.177   1.580  0.5858 -1.1996 -0.8847
 4110TIP3    H212337   3.956   4.049   1.562 -0.3511 -0.8991  0.8272
 4111TIP3   OH212338   6.054   5.164   3.452 -0.3396 -0.1840 -0.2427
 4111TIP3    H112339   6.122   5.164   3.385 -0.4710 -0.9825 -0.3792
 4111TIP3    H212340   5.977   5.200   3.407 -0.0977  0.4402 -0.1700
 4112TIP3   OH212341   5.926   2.052   0.926 -0.2460 -0.1638  0.1846
 4112TIP3    H112342   5.926   1.957   0.913  2.7590 -0.4096  1.2684
 4112TIP3    H212343   5.878   2.064   1.009  0.5365 -0.9164  0.7707
 4113TIP3   OH212344   3.806   1.485   3.814 -0.3461  0.0004  0.6058
 4113TIP3    H112345   3.841   1.426   3.747  0.8793  1.0424  0.2924
 4113TIP3    H212346   3.758   1.428   3.874  0.4619 -1.2508  0.0901
 4114TIP3   OH212347   5.949   2.384   3.759  0.3725 -0.3164  0.4903
 4114TIP3    H112348   5.857   2.359   3.764 -0.0260  0.7093 -0.9568
 4114TIP3    H212349   5.973   2.369   3.668  1.3606  0.3010  0.6350
 4115TIP3   OH212350   6.240   2.387   5.024  0.0081  0.3938  0.5230
 4115TIP3    H112351   6.270   2.463   4.973  0.7292  1.1015  1.9310
 4115TIP3    H212352   6.153   2.368   4.989 -0.1380  1.8059  0.0416
 4116TIP3   OH212353   0.277   3.142   2.875  0.2028 -0.1570 -0.1096
 4116TIP3    H112354   0.368   3.116   2.865  0.2382 -0.5025  0.9971
 4116TIP3    H212355   0.227   3.067   2.843  0.3112 -0.6868  0.9364
 4117TIP3   OH212356   3.508   1.782   0.902  0.1007  0.1873  0.1254
 4117TIP3    H112357   3.532   1.874   0.910  1.6122 -0.1913  0.3420
 4117TIP3    H212358   3.478   1.757   0.990  0.7360  0.2107  0.3547
 4118TIP3   OH212359   5.628   2.132   4.467 -0.7143 -0.1357 -0.0424
 4118TIP3    H112360   5.650   2.222   4.444 -0.7574  0.1997  1.1794
 4118TIP3    H212361   5.692   2.079   4.420  0.8266  0.6597  1.0744
 4119TIP3   OH212362   4.396   0.905   4.518  0.4912 -0.0316  0.0517
 4119TIP3    H112363   4.334   0.891   4.446 -0.2789  1.7864  0.3110
 4119TIP3    H212364   4.482   0.905   4.477 -0.0054  2.1028 -1.1058
 4120TIP3   OH212365   0.561   0.303   2.478 -0.1740  0.0342 -0.3012
 4120TIP3    H112366   0.656   0.295   2.483 -0.1115  0.9276  0.1559
 4120TIP3    H212367   0.537   0.256   2.398  0.7875  0.7800 -1.0497
 4121TIP3   OH212368   1.901   5.542   0.370  0.1480  0.0104  0.2287
 4121TIP3    H112369   1.913   5.503   0.457 -0.8520 -0.5852  0.1263
 4121TIP3    H212370   1.942   5.480   0.310  2.5510  1.3619  0.3912
 4122TIP3   OH212371   3.848   1.718   3.657 -0.3786  0.1158 -0.1956
 4122TIP3    H112372   3.930   1.738   3.702 -0.6359 -1.4663  1.0751
 4122TIP3    H212373   3.815   1.640   3.701 -2.2308  0.3073 -1.1417
 4123TIP3   OH212374   3.630   4.261   3.017  0.5133  0.6070  0.3480
 4123TIP3    H112375   3.685   4.288   3.090  0.2015  0.9241  0.4685
 4123TIP3    H212376   3.544   4.297   3.037  0.6153  1.3865 -0.5688
 4124TIP3   OH212377   5.191   3.165   2.580 -0.0895 -0.4120 -0.1683
 4124TIP3    H112378   5.219   3.174   2.672  1.7957 -1.1308 -0.6315
 4124TIP3    H212379   5.255   3.215   2.530  0.4778 -2.1863 -1.2993
 4125TIP3   OH212380   2.865   2.280   1.980 -0.0914 -0.3927  0.0976
 4125TIP3    H112381   2.958   2.296   1.967  0.2083 -2.2531 -0.3024
 4125TIP3    H212382   2.822   2.356   1.943  1.2211 -0.1079 -0.9103
 4126TIP3   OH212383   3.241   2.839   2.404 -0.0464 -0.4648  0.4052
 4126TIP3    H112384   3.321   2.823   2.354 -0.9531  0.3354 -1.3996
 4126TIP3    H212385   3.195   2.755   2.404 -0.2340 -0.3717 -0.5197
 4127TIP3   OH212386   1.115   3.253   1.742  0.3027  0.1084  0.2539
 4127TIP3    H112387   1.174   3.267   1.816  1.2691  0.0574 -0.4830
 4127TIP3    H212388   1.062   3.333   1.738 -0.8649 -0.5135  1.9312
 4128TIP3   OH212389   1.768   1.923   0.084  0.0723 -0.3563  0.2925
 4128TIP3    H112390   1.780   1.958   0.172  0.7244  1.4478 -0.4597
 4128TIP3    H212391   1.857   1.920   0.048 -0.0739 -1.9505 -0.0337
 4129TIP3   OH212392   2.378   1.338   4.860 -0.0774  0.0933 -0.3201
 4129TIP3    H112393   2.413   1.249   4.847  2.7633  1.0044  0.3244
 4129TIP3    H212394   2.329   1.332   4.942  2.0427 -0.4609  0.9998
 4130TIP3   OH212395   2.484   4.819   2.092  0.1037  0.6258 -0.1191
 4130TIP3    H112396   2.573   4.844   2.069  0.4216  1.1745  1.5675
 4130TIP3    H212397   2.484   4.724   2.091  0.5304  0.6302 -0.7562
 4131TIP3   OH212398   2.964   3.429   1.992 -0.2571 -0.1175  0.2556
 4131TIP3    H112399   3.008   3.423   1.908 -0.7978  0.4184 -0.0765
 4131TIP3    H212400   2.949   3.523   2.005 -0.3000 -0.2015  0.8841
 4132TIP3   OH212401   2.640   5.360   4.539  0.1390 -0.0628  0.0976
 4132TIP3    H112402   2.676   5.407   4.464 -0.2290  1.1321  0.6443
 4132TIP3    H212403   2.692   5.389   4.614  0.9807 -1.7802  0.2432
 4133TIP3   OH212404   1.247   4.428   4.756 -0.1845 -0.2371 -0.2378
 4133TIP3    H112405   1.329   4.379   4.756  0.2807  0.4890 -1.7321
 4133TIP3    H212406   1.183   4.368   4.720 -0.0192 -0.3695 -0.3144
 4134TIP3   OH212407   1.840   0.101   2.469  0.0826 -0.3249 -0.0656
 4134TIP3    H112408   1.809   0.024   2.517 -1.2058  0.7216  0.8616
 4134TIP3    H212409   1.924   0.075   2.432 -0.7899 -2.5286 -0.6582
 4135TIP3   OH212410   1.564   1.817   0.389  1.0790 -0.1179 -0.3999
 4135TIP3    H112411   1.633   1.867   0.431  0.4844  1.4754 -1.2212
 4135TIP3    H212412   1.542   1.748   0.451  2.8303 -0.1529  0.2100
 4136TIP3   OH212413   2.141   4.154   1.457 -0.3911  0.4658  0.1770
 4136TIP3    H112414   2.172   4.066   1.479 -2.1122 -0.0520  0.7069
 4136TIP3    H212415   2.115   4.147   1.365 -0.1918  0.5218  0.1164
 4137TIP3   OH212416   5.807   1.544   4.083 -0.4608 -0.0731  0.4242
 4137TIP3    H112417   5.784   1.534   4.175 -0.4971  0.7262  0.5112
 4137TIP3    H212418   5.728   1.579   4.041 -0.2207  0.2595  0.2384
 4138TIP3   OH212419   0.359   1.190   4.108  0.2084 -0.2927 -0.1126
 4138TIP3    H112420   0.370   1.246   4.031  2.6214  0.1464  0.4683
 4138TIP3    H212421   0.348   1.251   4.181 -0.7921 -0.6798  0.0750
 4139TIP3   OH212422   4.581   5.366   4.750 -0.3951 -0.1355  0.4171
 4139TIP3    H112423   4.627   5.419   4.685 -2.1665 -0.0088 -0.8073
 4139TIP3    H212424   4.557   5.428   4.820  0.7483 -0.0980  0.7922
 4140TIP3   OH212425   2.904   3.816   0.154 -0.1133  0.2570 -0.3233
 4140TIP3    H112426   2.878   3.852   0.070  0.1444  0.7747 -0.1807
 4140TIP3    H212427   2.821   3.792   0.196 -0.1985 -0.9438 -1.1275
 4141TIP3   OH212428   4.665   3.049   1.612 -0.0507  0.4827  1.2795
 4141TIP3    H112429   4.675   2.957   1.638  1.5448 -0.1209 -1.1584
 4141TIP3    H212430   4.744   3.092   1.642  0.7908  0.2504 -0.4596
 4142TIP3   OH212431   0.353   3.909   1.736 -0.4312  0.0368  0.4354
 4142TIP3    H112432   0.373   4.000   1.758 -1.1276  0.1966  0.4277
 4142TIP3    H212433   0.385   3.898   1.646  2.1176 -0.5186  1.3339
 4143TIP3   OH212434   1.294   0.715   0.164 -0.0036 -0.1872 -0.5559
 4143TIP3    H112435   1.300   0.725   0.259  0.3051  0.3579 -0.6261
 4143TIP3    H212436   1.379   0.747   0.132 -1.1277  2.4166 -1.2169
 4144TIP3   OH212437   5.601   4.888   1.976 -1.2927  0.0989 -0.7051
 4144TIP3    H112438   5.647   4.808   2.003 -1.9982  0.4874  1.9268
 4144TIP3    H212439   5.630   4.903   1.885 -0.3688 -2.5507 -0.9351
 4145TIP3   OH212440   5.165   4.959   2.429  0.3072  0.7953  0.0201
 4145TIP3    H112441   5.204   5.023   2.368  1.5192 -0.0192 -0.0861
 4145TIP3    H212442   5.225   4.957   2.503 -0.4478  0.7695  0.6337
 4146TIP3   OH212443   4.382   0.857   1.815  0.4161 -0.1239  0.1747
 4146TIP3    H112444   4.406   0.795   1.885 -0.5925 -0.9812 -0.2083
 4146TIP3    H212445   4.299   0.893   1.844 -0.7810 -1.5902 -1.2280
 4147TIP3   OH212446   3.281   2.819   1.762 -0.4904 -0.1688  0.2407
 4147TIP3    H112447   3.261   2.912   1.776 -1.3829 -0.6820  3.1385
 4147TIP3    H212448   3.296   2.811   1.668  2.3622  3.3969  0.1789
 4148TIP3   OH212449   3.230   3.210   2.406 -0.2402 -0.0673 -0.5626
 4148TIP3    H112450   3.208   3.288   2.356  0.7740  1.0480  0.6462
 4148TIP3    H212451   3.196   3.137   2.354 -2.8352  1.2452 -0.8692
 4149TIP3   OH212452   5.878   0.619   3.497  0.4652 -0.2015 -0.2461
 4149TIP3    H112453   5.886   0.606   3.592  0.5307 -0.2666 -0.2600
 4149TIP3    H212454   5.969   0.624   3.466  0.4916  1.9937 -0.0157
 4150TIP3   OH212455   0.753   3.112   2.679 -0.0281 -0.0204  0.0347
 4150TIP3    H112456   0.750   3.148   2.767  1.2237 -1.1429  0.5712
 4150TIP3    H212457   0.843   3.127   2.649 -0.7884  1.5675 -1.6165
 4151TIP3   OH212458   3.667   5.672   0.607 -0.2781 -0.1270 -0.1480
 4151TIP3    H112459   3.755   5.687   0.643 -1.3640  3.0443  1.5719
 4151TIP3    H212460   3.680   5.604   0.540  3.2618 -0.5468  0.7451
 4152TIP3   OH212461   0.376   0.964   4.568  0.2854 -0.4794  0.0870
 4152TIP3    H112462   0.404   0.899   4.503 -0.6324  1.8685 -2.8987
 4152TIP3    H212463   0.457   1.010   4.592  0.4251 -0.1842 -0.8805
 4153TIP3   OH212464   3.697   1.081   4.506 -0.6981  0.9808  0.4321
 4153TIP3    H112465   3.757   1.070   4.580 -0.5699  0.5304  0.2673
 4153TIP3    H212466   3.615   1.109   4.545 -0.5450  1.0302  0.7175
 4154TIP3   OH212467   4.928   3.398   5.203 -0.1628  0.3514 -0.0624
 4154TIP3    H112468   4.853   3.384   5.145 -0.8561 -0.2119  0.9386
 4154TIP3    H212469   5.004   3.382   5.148 -0.7949 -0.0207 -0.8514
 4155TIP3   OH212470   1.089   4.757   3.529  0.4536 -0.7344  0.1907
 4155TIP3    H112471   1.066   4.748   3.437 -1.2882  1.4394  0.3228
 4155TIP3    H212472   1.182   4.781   3.528  0.5496 -1.0889 -0.9525
 4156TIP3   OH212473   0.424   3.392   3.160  0.7279  0.0238 -0.7976
 4156TIP3    H112474   0.485   3.392   3.234 -0.0959 -1.4973 -0.0675
 4156TIP3    H212475   0.400   3.484   3.149  1.2341  0.3394  0.5397
 4157TIP3   OH212476   4.867   1.678   1.694  0.4543 -0.0801 -0.2965
 4157TIP3    H112477   4.944   1.631   1.659  0.0524 -0.2870 -0.9225
 4157TIP3    H212478   4.872   1.765   1.654  0.0873 -0.2624 -0.7572
 4158TIP3   OH212479   5.173   4.166   0.815 -0.2358  0.2381 -0.1633
 4158TIP3    H112480   5.108   4.113   0.860 -1.2352  0.3127 -1.4639
 4158TIP3    H212481   5.123   4.239   0.777  0.9092  1.4118  0.4832
 4159TIP3   OH212482   4.195   1.258   0.494 -0.3465 -0.6175  0.2658
 4159TIP3    H112483   4.154   1.199   0.431 -1.5210  1.0984 -0.6687
 4159TIP3    H212484   4.281   1.278   0.456 -0.9067  0.1258 -0.6480
 4160TIP3   OH212485   5.388   4.122   1.003 -0.4463 -0.0380  0.4752
 4160TIP3    H112486   5.346   4.077   1.076  1.0571 -0.1663  1.2884
 4160TIP3    H212487   5.317   4.137   0.941 -1.3713 -1.7041  1.0699
 4161TIP3   OH212488   5.532   1.193   2.318 -0.2563 -0.1614  0.0814
 4161TIP3    H112489   5.460   1.230   2.369 -1.0173 -1.5103  0.0401
 4161TIP3    H212490   5.500   1.107   2.291  0.4966  0.1259 -1.8795
 4162TIP3   OH212491   0.905   1.467   0.062 -0.6080  0.1964 -0.0234
 4162TIP3    H112492   0.817   1.502   0.046  0.2361  1.6288 -1.9182
 4162TIP3    H212493   0.905   1.380   0.022 -1.0178  0.4054 -0.4854
 4163TIP3   OH212494   3.556   5.916   0.589 -0.1808  0.3085  0.1987
 4163TIP3    H112495   3.571   5.822   0.602 -1.4904 -0.1616 -1.4544
 4163TIP3    H212496   3.525   5.924   0.499 -2.6233  2.0001  1.0864
 4164TIP3   OH212497   2.256   4.867   0.463  0.0553  0.0655  0.4097
 4164TIP3    H112498   2.296   4.802   0.521 -0.0905 -1.2211 -0.8508
 4164TIP3    H212499   2.207   4.815   0.399 -0.2010  1.4362 -0.5616
 4165TIP3   OH212500   2.473   0.271   1.587  0.2075  0.0679 -0.6474
 4165TIP3    H112501   2.429   0.306   1.509  0.3962 -1.0114 -1.2636
 4165TIP3    H212502   2.407   0.274   1.656  0.2630  1.7304 -0.6384
 4166TIP3   OH212503   3.925   0.304   1.137 -0.3167  0.3123  0.2457
 4166TIP3    H112504   3.892   0.393   1.121 -1.6464 -0.4829 -1.8677
 4166TIP3    H212505   3.888   0.279   1.221  0.3618  1.8477  1.0412
 4167TIP3   OH212506   3.824   5.145   3.587 -0.6440 -0.5423 -0.6856
 4167TIP3    H112507   3.729   5.154   3.596 -0.3469  1.3017  1.1757
 4167TIP3    H212508   3.846   5.072   3.645 -0.9074 -1.1082 -1.2756
 4168TIP3   OH212509   1.837   3.887   4.249 -0.0785 -0.6521  0.1671
 4168TIP3    H112510   1.898   3.955   4.222 -1.3787 -0.2119 -1.9103
 4168TIP3    H212511   1.752   3.933   4.255 -0.7138 -1.7913  0.1285
 4169TIP3   OH212512   4.801   4.221   0.902 -0.1537 -0.0658 -0.1495
 4169TIP3    H112513   4.781   4.147   0.845  0.5043  0.4191 -1.0390
 4169TIP3    H212514   4.841   4.181   0.979  0.5761 -0.6257 -0.7986
 4170TIP3   OH212515   0.616   3.957   3.302 -0.5365  0.3743  0.0036
 4170TIP3    H112516   0.614   4.048   3.329 -0.6662  0.4213 -0.1609
 4170TIP3    H212517   0.526   3.937   3.278 -0.5150  0.1923  0.0766
 4171TIP3   OH212518   2.849   4.544   4.437 -0.1376  0.2248  0.0129
 4171TIP3    H112519   2.897   4.548   4.520 -0.0444  0.9923 -0.0712
 4171TIP3    H212520   2.804   4.460   4.439  0.5259 -0.1264  0.4790
 4172TIP3   OH212521   5.546   4.357   4.901  0.3107 -0.4539 -0.1763
 4172TIP3    H112522   5.635   4.393   4.904  0.5357 -1.0010 -0.1275
 4172TIP3    H212523   5.491   4.430   4.872  0.7570 -0.0765 -0.0836
 4173TIP3   OH212524   2.846   2.155   0.062  0.0898 -0.4211 -0.2963
 4173TIP3    H112525   2.779   2.209   0.105  0.3757 -0.6645  0.4734
 4173TIP3    H212526   2.835   2.068   0.101  0.2209 -0.6988 -0.8724
 4174TIP3   OH212527   0.824   5.704   0.622  0.1893  0.1844 -0.0029
 4174TIP3    H112528   0.837   5.648   0.546  0.0227 -1.4476  1.1099
 4174TIP3    H212529   0.900   5.763   0.622  0.1969  0.1922 -1.3955
 4175TIP3   OH212530   2.436   1.984   2.951 -0.0822  0.2447  0.2224
 4175TIP3    H112531   2.484   1.999   2.869 -0.0283 -0.9091  0.0192
 4175TIP3    H212532   2.490   2.025   3.018  1.4755 -1.3763  0.0588
 4176TIP3   OH212533   4.316   2.462   1.748 -0.5210  0.1735  0.2227
 4176TIP3    H112534   4.291   2.372   1.770 -1.7056  0.6430  0.9308
 4176TIP3    H212535   4.268   2.481   1.668 -1.0381  0.4804  0.5985
 4177TIP3   OH212536   2.736   2.013   1.923 -0.2204 -0.0452  0.3237
 4177TIP3    H112537   2.771   2.062   1.849  0.1567 -2.5805 -1.3155
 4177TIP3    H212538   2.644   2.039   1.928 -0.7096 -1.0180 -2.2149
 4178TIP3   OH212539   2.481   3.759   1.181  0.7561 -0.2958  0.9201
 4178TIP3    H112540   2.505   3.718   1.098  0.8662 -1.4191  1.4702
 4178TIP3    H212541   2.455   3.848   1.159  2.5206  0.0060 -0.0936
 4179TIP3   OH212542   4.188   0.585   3.704  0.1410 -0.4661 -0.1431
 4179TIP3    H112543   4.236   0.632   3.635 -0.6220  1.4205  0.5270
 4179TIP3    H212544   4.237   0.605   3.784 -0.5210 -0.3298  0.2347
 4180TIP3   OH212545   2.346   1.882   2.032 -0.3214  0.0050 -0.0376
 4180TIP3    H112546   2.369   1.927   2.114  0.1887  2.2122 -1.2931
 4180TIP3    H212547   2.398   1.802   2.033  0.6444  0.6084  1.2240
 4181TIP3   OH212548   1.990   3.153   4.526 -0.2317  0.1522  0.1482
 4181TIP3    H112549   1.950   3.230   4.566 -0.4814  0.6316 -0.9718
 4181TIP3    H212550   2.027   3.103   4.599 -1.0806  0.7441  1.0000
 4182TIP3   OH212551   6.105   5.094   4.997  0.3983 -0.2982 -0.0452
 4182TIP3    H112552   6.081   5.178   4.957  0.5218 -0.6212 -0.8200
 4182TIP3    H212553   6.198   5.103   5.018  0.8472 -0.8178 -1.6780
 4183TIP3   OH212554   4.664   5.908   2.686  0.0497 -0.3245 -0.2219
 4183TIP3    H112555   4.630   5.902   2.597 -1.2357 -0.8633  0.2678
 4183TIP3    H212556   4.689   6.000   2.696 -0.6180 -0.0642 -0.8650
 4184TIP3   OH212557   1.514   0.026   3.896  0.2413 -0.3062  0.3340
 4184TIP3    H112558   1.546   0.109   3.931 -1.3408 -0.1672  1.5696
 4184TIP3    H212559   1.521   0.036   3.801  1.3824  0.6883  0.4997
 4185TIP3   OH212560   0.467   0.703   2.004  0.3481  0.7061  0.6219
 4185TIP3    H112561   0.562   0.704   2.005  0.4005  0.8479  3.3166
 4185TIP3    H212562   0.443   0.611   2.016  0.1972  0.8387  1.4010
 4186TIP3   OH212563   5.291   0.803   4.499  0.2420  0.0143 -0.2232
 4186TIP3    H112564   5.205   0.845   4.510 -0.0137 -0.5783  0.0895
 4186TIP3    H212565   5.302   0.750   4.578  0.7439 -0.1887 -0.4264
 4187TIP3   OH212566   2.325   2.333   1.765 -0.2829 -0.4371 -0.0824
 4187TIP3    H112567   2.334   2.406   1.827 -0.2905  0.1544 -0.7672
 4187TIP3    H212568   2.376   2.262   1.805  1.3534  0.5359 -0.3188
 4188TIP3   OH212569   3.438   0.759   1.983  0.1591 -0.3406 -0.2840
 4188TIP3    H112570   3.350   0.729   2.007  0.3955 -1.2725 -0.5223
 4188TIP3    H212571   3.424   0.835   1.927 -0.5132 -0.7700 -0.7033
 4189TIP3   OH212572   2.580   3.116   4.648 -0.2922  0.1570  0.1852
 4189TIP3    H112573   2.574   3.024   4.675  0.6091 -0.1303 -0.5411
 4189TIP3    H212574   2.594   3.164   4.729 -1.3065 -0.2859  0.6302
 4190TIP3   OH212575   3.092   2.556   2.875  0.4003 -0.4080 -0.4083
 4190TIP3    H112576   3.042   2.474   2.877  1.0540 -0.8077  1.5679
 4190TIP3    H212577   3.165   2.538   2.815 -0.3588 -0.6993 -1.2612
 4191TIP3   OH212578   0.201   0.398   3.308  0.0089 -0.1027  0.3198
 4191TIP3    H112579   0.115   0.425   3.277 -0.2286  0.5337  1.4841
 4191TIP3    H212580   0.252   0.383   3.228 -1.3155 -0.9849 -0.3893
 4192TIP3   OH212581   3.898   3.182   0.901  0.4657 -0.1014  0.1154
 4192TIP3    H112582   3.968   3.133   0.944  1.4591 -2.7921 -4.0157
 4192TIP3    H212583   3.906   3.159   0.809 -3.6159  2.4485 -1.1204
 4193TIP3   OH212584   1.291   5.897   1.019  0.4558 -0.2224 -0.2126
 4193TIP3    H112585   1.299   5.809   0.982 -0.5411 -0.0593 -0.8410
 4193TIP3    H212586   1.201   5.923   1.001  1.2281  1.6532 -1.6552
 4194TIP3   OH212587   3.876   4.629   2.958  0.7859  0.0866  0.7705
 4194TIP3    H112588   3.891   4.578   2.879  2.2895 -2.0435  2.3131
 4194TIP3    H212589   3.956   4.680   2.969  1.4014 -1.0744  1.8851
 4195TIP3   OH212590   5.278   0.969   1.333  0.4162  0.6731 -0.1326
 4195TIP3    H112591   5.204   0.943   1.278  0.1852  0.0703  0.4507
 4195TIP3    H212592   5.265   0.922   1.415  1.1555  0.9894  0.1772
 4196TIP3   OH212593   1.566   0.182   3.636 -0.2006  0.4721  0.5185
 4196TIP3    H112594   1.513   0.110   3.602 -0.1700  0.0351  1.3726
 4196TIP3    H212595   1.513   0.260   3.622 -1.2294 -0.0012  1.6671
 4197TIP3   OH212596   1.928   4.906   5.068  0.6229  0.6122  0.4448
 4197TIP3    H112597   1.936   4.819   5.106  0.0868  0.6924  0.7394
 4197TIP3    H212598   1.852   4.901   5.010  0.1877  1.0623  0.9678
 4198TIP3   OH212599   5.324   2.201   4.597  0.0082 -0.2808 -0.2109
 4198TIP3    H112600   5.276   2.143   4.656  2.0441 -0.7360  1.0967
 4198TIP3    H212601   5.282   2.189   4.512 -2.3376 -0.4141  0.9012
 4199TIP3   OH212602   3.710   3.226   0.567 -0.2993 -0.3191 -0.4791
 4199TIP3    H112603   3.628   3.205   0.524 -0.2186  0.6368 -1.1333
 4199TIP3    H212604   3.777   3.181   0.515 -0.3475 -0.5353 -0.3542
 4200TIP3   OH212605   2.545   1.412   3.237 -0.1556 -0.3930 -0.4465
 4200TIP3    H112606   2.582   1.356   3.168  0.9330 -0.0671 -0.1424
 4200TIP3    H212607   2.485   1.355   3.285 -1.6858 -0.3886 -2.2287
 4201TIP3   OH212608   0.355   5.530   0.403  0.2237 -0.5123  0.6411
 4201TIP3    H112609   0.401   5.608   0.371  1.2676 -0.6962  1.6757
 4201TIP3    H212610   0.420   5.480   0.451 -0.7972 -1.3076  1.2541
 4202TIP3   OH212611   6.271   4.408   4.111  0.3531  0.5062 -0.0719
 4202TIP3    H112612   6.187   4.398   4.067  0.4092  1.7943 -0.5270
 4202TIP3    H212613   6.292   4.501   4.101  2.0846  0.1054 -0.4362
 4203TIP3   OH212614   2.993   3.830   4.827  0.1578 -0.0714 -0.1278
 4203TIP3    H112615   3.085   3.828   4.854  0.5465  1.5550 -1.1706
 4203TIP3    H212616   2.958   3.746   4.855  1.7893 -0.4611  0.8956
 4204TIP3   OH212617   0.101   1.416   2.507  0.4951 -0.0130  0.2026
 4204TIP3    H112618   0.154   1.346   2.544 -0.2699 -0.9293 -0.3733
 4204TIP3    H212619   0.093   1.393   2.414  1.8925  1.9157 -0.4640
 4205TIP3   OH212620   0.638   4.769   4.290  0.1421  0.1229 -0.3065
 4205TIP3    H112621   0.588   4.695   4.257  0.4343  0.0814 -0.6591
 4205TIP3    H212622   0.572   4.830   4.322 -0.1261 -0.0089 -0.6077
 4206TIP3   OH212623   1.964   4.013   2.983  0.2945 -0.1045  0.6205
 4206TIP3    H112624   2.000   3.924   2.975 -0.7180 -0.4229 -0.9133
 4206TIP3    H212625   1.976   4.035   3.075  2.3883 -1.0301  0.6314
 4207TIP3   OH212626   1.223   4.656   0.360  0.2305  0.4524  0.0669
 4207TIP3    H112627   1.145   4.645   0.415  0.6455 -1.5369  0.3518
 4207TIP3    H212628   1.189   4.672   0.272 -0.4883  0.5365  0.3563
 4208TIP3   OH212629   6.210   0.922   1.319 -0.4990 -0.3082  0.0374
 4208TIP3    H112630   6.230   0.842   1.367 -0.5015 -1.2372 -1.4449
 4208TIP3    H212631   6.295   0.966   1.311 -0.3140 -0.6658 -0.0145
 4209TIP3   OH212632   0.018   1.721   0.008 -0.1647  0.5059 -0.3492
 4209TIP3    H112633  -0.046   1.666   0.054 -1.1145  2.0579  0.2593
 4209TIP3    H212634   0.071   1.758   0.078 -0.7083  1.7783 -0.5914
 4210TIP3   OH212635   0.782   4.979   2.803  0.0959  0.1577 -0.0323
 4210TIP3    H112636   0.803   4.961   2.894  0.4012  2.3623  0.3737
 4210TIP3    H212637   0.686   4.970   2.798 -0.1643  1.9130  1.0104
 4211TIP3   OH212638   0.798   0.601   2.388  1.1498  0.4177  0.0312
 4211TIP3    H112639   0.858   0.618   2.315  2.1622 -1.6686  0.2892
 4211TIP3    H212640   0.712   0.595   2.347  1.9732 -3.3366 -1.6075
 4212TIP3   OH212641   6.054   2.506   4.800 -0.5321  0.0671 -0.4006
 4212TIP3    H112642   6.079   2.556   4.722 -0.4084 -0.8127 -0.9447
 4212TIP3    H212643   6.013   2.427   4.765 -0.6027 -0.2770  0.4395
 4213TIP3   OH212644   4.921   4.032   3.397  0.3374  0.1967 -0.2473
 4213TIP3    H112645   4.846   3.991   3.353  0.4450 -0.5753  0.2560
 4213TIP3    H212646   4.911   4.007   3.489  0.3547  1.4161  0.0986
 4214TIP3   OH212647   3.073   5.619   5.078 -0.5038  0.1009 -0.0091
 4214TIP3    H112648   3.007   5.589   5.140 -0.1282 -1.8347 -0.4651
 4214TIP3    H212649   3.128   5.680   5.128 -2.6041  1.8180  0.3522
 4215TIP3   OH212650   3.284   4.437   3.976  0.0936 -0.2807 -0.0016
 4215TIP3    H112651   3.188   4.436   3.976  0.0463 -1.0317  1.9288
 4215TIP3    H212652   3.308   4.345   3.964  0.5422 -0.2278  0.4866
 4216TIP3   OH212653   1.476   5.291   0.955  0.0911 -0.0596 -0.1355
 4216TIP3    H112654   1.541   5.359   0.936  0.2800  0.3631  1.8579
 4216TIP3    H212655   1.402   5.338   0.992  0.0744 -0.8942  0.9305
 4217TIP3   OH212656   0.350   2.482   4.696  0.1521  0.3756 -0.8703
 4217TIP3    H112657   0.317   2.569   4.674 -0.4283  0.4049  0.0890
 4217TIP3    H212658   0.294   2.452   4.767  0.5681 -0.6463 -0.9549
 4218TIP3   OH212659   0.127   1.207   3.894  0.4785 -0.4075 -0.1540
 4218TIP3    H112660   0.165   1.294   3.881  0.9022 -0.5681 -0.0366
 4218TIP3    H212661   0.143   1.188   3.987  0.5470 -0.6814 -0.2198
 4219TIP3   OH212662   0.944   0.606   2.132 -0.3525  0.4417 -0.8135
 4219TIP3    H112663   0.887   0.564   2.067 -1.7549 -1.3517  1.4232
 4219TIP3    H212664   1.005   0.537   2.158  1.2667  1.6202 -1.3606
 4220TIP3   OH212665   2.137   2.590   5.093  0.4143  0.3775 -0.1193
 4220TIP3    H112666   2.134   2.684   5.111  0.5351  0.6999 -1.6247
 4220TIP3    H212667   2.213   2.579   5.036  0.0482 -0.5268 -0.4499
 4221TIP3   OH212668   1.000   5.657   3.726 -0.0496 -0.0801  0.1063
 4221TIP3    H112669   0.979   5.599   3.800 -1.0682 -0.7217 -0.6586
 4221TIP3    H212670   0.928   5.721   3.725  0.4951  0.5404  0.2763
 4222TIP3   OH212671   3.986   0.746   1.296 -0.0048 -0.4590 -0.1478
 4222TIP3    H112672   3.947   0.762   1.382 -0.2649 -0.8450 -0.1868
 4222TIP3    H212673   3.961   0.655   1.276 -0.0667 -0.3263 -0.6871
 4223TIP3   OH212674   2.485   5.212   4.152 -0.1733 -0.2540 -0.7913
 4223TIP3    H112675   2.421   5.155   4.109 -0.5041  0.9271 -1.9234
 4223TIP3    H212676   2.438   5.250   4.226  0.3939 -2.2865  0.7296
 4224TIP3   OH212677   5.901   0.090   0.369 -0.0052  0.0049 -0.0887
 4224TIP3    H112678   5.943   0.124   0.448 -1.6139 -2.0987  1.7977
 4224TIP3    H212679   5.810   0.119   0.376 -0.6684 -1.9482 -0.0171
 4225TIP3   OH212680   4.869   2.115   3.600 -0.4288 -0.4599 -0.5826
 4225TIP3    H112681   4.838   2.134   3.511 -0.7053 -0.1251 -0.4165
 4225TIP3    H212682   4.790   2.120   3.654 -0.2682 -0.7067 -0.3222
 4226TIP3   OH212683   6.282   3.785   3.306 -0.3916  0.5141 -0.3606
 4226TIP3    H112684   6.246   3.746   3.385 -1.1813 -0.1087 -1.0096
 4226TIP3    H212685   6.369   3.745   3.298 -1.3990 -1.6971 -1.3350
 4227TIP3   OH212686   3.678   2.082   2.557  0.3600  0.4696  0.3203
 4227TIP3    H112687   3.654   2.165   2.516 -0.7165 -0.5907 -1.2684
 4227TIP3    H212688   3.737   2.040   2.494 -3.4213 -2.4222 -1.7401
 4228TIP3   OH212689   5.055   0.855   3.766 -0.4204 -0.7179 -0.3730
 4228TIP3    H112690   5.062   0.951   3.768 -0.7607 -0.6841 -0.6268
 4228TIP3    H212691   4.987   0.838   3.701 -1.5170 -1.0645  0.8306
 4229TIP3   OH212692   2.969   5.544   2.347  0.1467  0.1327 -0.0617
 4229TIP3    H112693   3.024   5.491   2.404 -0.8709  0.2326  1.0564
 4229TIP3    H212694   2.984   5.634   2.377 -0.4313  0.1809  0.0880
 4230TIP3   OH212695   1.255   2.948   3.494 -0.4539 -0.3223  0.1992
 4230TIP3    H112696   1.254   2.890   3.570  0.3308 -0.8804 -0.2081
 4230TIP3    H212697   1.321   2.911   3.436 -2.4572 -1.1567 -1.7258
 4231TIP3   OH212698   2.557   4.548   4.675 -0.0793 -0.0373 -0.3790
 4231TIP3    H112699   2.560   4.633   4.631  0.0602 -0.9388 -2.2270
 4231TIP3    H212700   2.464   4.523   4.674 -0.2496  0.4438  0.9533
 4232TIP3   OH212701   2.904   1.434   3.634 -0.4265 -0.0245  0.1102
 4232TIP3    H112702   2.976   1.468   3.580 -1.5054 -0.9482 -2.0565
 4232TIP3    H212703   2.835   1.415   3.571 -1.6644 -1.5266  1.8294
 4233TIP3   OH212704   3.494   3.365   1.603  0.6260 -0.3749 -0.0214
 4233TIP3    H112705   3.544   3.447   1.608 -0.4982  0.2780  1.0211
 4233TIP3    H212706   3.549   3.300   1.647  1.3331 -0.0974 -0.4673
 4234TIP3   OH212707   0.266   2.405   1.841 -0.3757  0.2322  0.1276
 4234TIP3    H112708   0.313   2.330   1.877  0.8557  1.5910  1.5514
 4234TIP3    H212709   0.329   2.446   1.782  0.6671  2.4402  2.5442
 4235TIP3   OH212710   3.684   3.689   3.625 -0.2240 -0.2430 -0.1246
 4235TIP3    H112711   3.765   3.727   3.659 -0.3730 -0.6554  0.7408
 4235TIP3    H212712   3.696   3.687   3.530  0.5741  0.1577 -0.0420
 4236TIP3   OH212713   0.321   2.371   3.003  0.3950 -0.6009 -0.5413
 4236TIP3    H112714   0.393   2.361   3.064 -0.0384  0.5667  0.2091
 4236TIP3    H212715   0.363   2.382   2.917  1.1083 -0.1052 -0.1366
 4237TIP3   OH212716   5.734   2.286   1.572 -0.2401  0.3795 -0.6811
 4237TIP3    H112717   5.807   2.329   1.617  0.8866 -0.3797 -1.6938
 4237TIP3    H212718   5.708   2.214   1.629  1.1865 -0.5881 -1.1866
 4238TIP3   OH212719   4.558   1.821   3.817  0.2360 -0.4747 -0.3130
 4238TIP3    H112720   4.653   1.830   3.819  0.1217  1.0731 -0.8427
 4238TIP3    H212721   4.534   1.802   3.908  1.0017 -0.3303 -0.0752
 4239TIP3   OH212722   2.753   5.173   1.538 -0.5166 -0.1193  0.1498
 4239TIP3    H112723   2.676   5.211   1.495  0.3209 -0.3189 -1.6326
 4239TIP3    H212724   2.718   5.127   1.614 -2.1446 -0.0428 -0.5079
 4240TIP3   OH212725   3.368   3.629   0.967 -0.0140 -0.0654  0.2615
 4240TIP3    H112726   3.391   3.704   1.022 -2.8435  0.9104  0.3053
 4240TIP3    H212727   3.450   3.582   0.954  1.7918  2.6947  0.7613
 4241TIP3   OH212728   0.893   1.647   1.694 -0.3060  0.5192  0.0887
 4241TIP3    H112729   0.842   1.569   1.716 -1.3771  1.3691  0.6448
 4241TIP3    H212730   0.977   1.612   1.663 -0.4812 -0.8361  1.0559
 4242TIP3   OH212731   4.751   3.735   4.468  0.9990 -0.2307 -0.0758
 4242TIP3    H112732   4.703   3.812   4.498 -0.7887 -2.0715  2.1072
 4242TIP3    H212733   4.805   3.710   4.543  1.5898 -1.0774 -0.7699
 4243TIP3   OH212734   3.329   5.544   0.571 -0.6948 -0.2497 -0.3024
 4243TIP3    H112735   3.274   5.470   0.545 -0.4182 -0.8588  0.7821
 4243TIP3    H212736   3.415   5.523   0.536 -0.6907 -0.2751 -0.2770
 4244TIP3   OH212737   3.680   0.949   3.919  0.2666  0.2002 -0.3480
 4244TIP3    H112738   3.767   0.919   3.945 -1.3354 -2.3117  2.8757
 4244TIP3    H212739   3.660   1.021   3.978  0.1897  0.9745 -1.2803
 4245TIP3   OH212740   2.118   5.867   4.521  0.1845 -0.5566 -0.1384
 4245TIP3    H112741   2.209   5.896   4.528  0.0479  0.5634 -2.2493
 4245TIP3    H212742   2.080   5.886   4.607  0.7341  3.5357 -0.6058
 4246TIP3   OH212743   4.778   5.637   0.325 -0.4061  0.0089  0.2791
 4246TIP3    H112744   4.727   5.591   0.393 -1.2354  0.9272  0.2984
 4246TIP3    H212745   4.828   5.702   0.373  0.8839 -0.9389  0.2645
 4247TIP3   OH212746   2.035   5.757   2.693 -0.5324  0.3024  0.0255
 4247TIP3    H112747   1.984   5.832   2.662  0.4472  0.0135 -2.4847
 4247TIP3    H212748   2.004   5.684   2.639 -0.3084 -0.7588  1.3048
 4248TIP3   OH212749   3.993   4.498   2.313  0.4432 -0.3406 -0.7373
 4248TIP3    H112750   3.929   4.430   2.297 -0.6005  0.8083 -1.6616
 4248TIP3    H212751   4.076   4.461   2.284  0.1363 -1.6533 -0.0120
 4249TIP3   OH212752   5.534   1.390   3.835  0.4197  0.5239  0.0444
 4249TIP3    H112753   5.474   1.317   3.822  0.1284  0.7385  0.1522
 4249TIP3    H212754   5.619   1.350   3.849  0.5930  0.2535 -1.5867
 4250TIP3   OH212755   2.026   0.673   3.155 -0.2627  0.1221  0.0364
 4250TIP3    H112756   2.080   0.597   3.131 -1.3091 -0.2251 -1.3809
 4250TIP3    H212757   2.082   0.725   3.212  2.3171  0.7265 -2.7867
 4251TIP3   OH212758   6.200   5.453   0.396 -0.1225 -0.3644  0.6949
 4251TIP3    H112759   6.287   5.418   0.417 -0.5354 -0.6259  2.0458
 4251TIP3    H212760   6.215   5.546   0.382  0.7745 -0.7771 -1.6562
 4252TIP3   OH212761   3.929   0.548   4.637 -0.2686  0.0194 -0.6000
 4252TIP3    H112762   4.012   0.593   4.619 -1.2123  1.0270 -2.8138
 4252TIP3    H212763   3.955   0.466   4.680  1.6509  1.5360  1.3267
 4253TIP3   OH212764   0.501   3.603   0.746 -0.2590 -0.5472 -0.1439
 4253TIP3    H112765   0.425   3.658   0.767 -0.6399 -0.3598 -1.8717
 4253TIP3    H212766   0.489   3.525   0.799 -1.4600 -0.3486 -0.0907
 4254TIP3   OH212767   4.906   0.144   1.259 -0.0949 -0.6677 -0.0157
 4254TIP3    H112768   4.954   0.180   1.333 -1.0458 -0.3596  0.4555
 4254TIP3    H212769   4.878   0.057   1.288 -1.5407 -0.0679  0.4801
 4255TIP3   OH212770   0.237   3.773   0.537  0.2822 -0.1936  0.1393
 4255TIP3    H112771   0.193   3.841   0.588  1.2384 -0.9582  2.1012
 4255TIP3    H212772   0.307   3.818   0.491  0.1451  0.3324  0.4395
 4256TIP3   OH212773   3.843   2.177   4.020 -0.6522 -0.2495  0.7544
 4256TIP3    H112774   3.933   2.155   3.994 -0.5130  0.1534  0.8965
 4256TIP3    H212775   3.828   2.125   4.099 -0.7878 -0.8420  0.3523
 4257TIP3   OH212776   4.009   1.214   2.618 -0.0796  0.1165  0.1260
 4257TIP3    H112777   4.030   1.142   2.679  1.4092  0.2138 -0.2171
 4257TIP3    H212778   4.091   1.229   2.571 -1.2565 -0.1146 -2.0957
 4258TIP3   OH212779   2.872   3.456   1.125  0.1332 -0.1899 -0.3219
 4258TIP3    H112780   2.838   3.460   1.035 -0.7425  0.7311  0.0327
 4258TIP3    H212781   2.803   3.412   1.175  1.6790 -3.0977 -0.5256
 4259TIP3   OH212782   1.434   1.807   2.346  0.5028  0.0520 -0.1983
 4259TIP3    H112783   1.374   1.782   2.277  2.3313 -4.4517 -0.4668
 4259TIP3    H212784   1.380   1.808   2.425 -0.9811  2.2185 -1.1346
 4260TIP3   OH212785   6.268   0.996   0.999  0.0856  0.0016 -0.3914
 4260TIP3    H112786   6.235   1.022   0.913  1.7510 -0.0706 -1.0829
 4260TIP3    H212787   6.228   0.911   1.016  0.6142 -0.5106 -1.6153
 4261TIP3   OH212788   0.651   0.368   0.209  0.2588 -0.2079  0.3305
 4261TIP3    H112789   0.713   0.362   0.282 -1.0401 -0.3820  1.4529
 4261TIP3    H212790   0.664   0.456   0.174  2.0649 -0.6847 -0.3456
 4262TIP3   OH212791   5.691   1.705   0.419  0.1352  0.0204  0.3611
 4262TIP3    H112792   5.643   1.667   0.492  0.4487  0.9293  1.0556
 4262TIP3    H212793   5.730   1.785   0.454  0.0005  0.6735 -0.8921
 4263TIP3   OH212794   5.185   0.595   1.978  0.2181  0.4538 -0.5878
 4263TIP3    H112795   5.205   0.502   1.990  0.2491  0.4797 -0.4360
 4263TIP3    H212796   5.110   0.611   2.036 -1.3755 -0.0420 -2.4054
 4264TIP3   OH212797   4.132   2.439   4.037 -0.0905 -0.7003  0.3991
 4264TIP3    H112798   4.143   2.532   4.022 -0.4386 -0.7312 -0.0505
 4264TIP3    H212799   4.112   2.432   4.131 -3.4002 -0.0054 -0.1339
 4265TIP3   OH212800   5.150   1.732   2.000 -0.5751  0.2124 -0.6303
 4265TIP3    H112801   5.175   1.657   1.946 -0.6700  1.3143 -2.3100
 4265TIP3    H212802   5.184   1.808   1.952 -0.5498  1.2561  0.9669
 4266TIP3   OH212803   3.478   5.642   0.813 -0.1885  0.8955 -0.3457
 4266TIP3    H112804   3.426   5.622   0.735  1.5855  0.0114 -1.3630
 4266TIP3    H212805   3.567   5.654   0.780  0.3549  1.9980  1.3824
 4267TIP3   OH212806   2.986   5.254   1.689  0.3296  0.2461  0.1893
 4267TIP3    H112807   2.944   5.338   1.706 -2.7724 -1.4389  1.5447
 4267TIP3    H212808   2.925   5.207   1.632  2.2920 -0.9472 -1.1045
 4268TIP3   OH212809   1.309   4.757   0.080  0.3273  0.3110  0.0833
 4268TIP3    H112810   1.395   4.760   0.124 -0.8227 -1.5481  2.6983
 4268TIP3    H212811   1.263   4.834   0.114 -0.0309 -0.3082  1.0533
 4269TIP3   OH212812   4.352   0.310   2.035 -0.1983 -0.2402  0.2965
 4269TIP3    H112813   4.408   0.253   1.981 -1.1784 -0.2588 -0.7156
 4269TIP3    H212814   4.386   0.297   2.124  0.0048 -1.9538  0.0153
 4270TIP3   OH212815   2.998   0.731   4.854  0.4098 -0.1154 -0.3124
 4270TIP3    H112816   2.978   0.725   4.760  0.9229 -0.8867 -0.3811
 4270TIP3    H212817   3.007   0.825   4.870  0.0026  0.0466 -0.9669
 4271TIP3   OH212818   1.185   1.055   0.145 -0.2492 -0.1942 -0.0656
 4271TIP3    H112819   1.125   1.005   0.201  1.0011 -0.8440  0.7526
 4271TIP3    H212820   1.223   1.121   0.203  1.0507 -0.8657 -0.1117
 4272TIP3   OH212821   1.290   4.818   3.896  0.1022 -0.4266  0.5089
 4272TIP3    H112822   1.268   4.876   3.969 -0.7632  1.2721 -1.0012
 4272TIP3    H212823   1.371   4.854   3.860 -0.1748 -0.4319 -0.1454
 4273TIP3   OH212824   1.011   1.919   0.879  0.2146  0.2265 -0.0183
 4273TIP3    H112825   1.019   1.891   0.970  2.0397  0.3564 -0.1101
 4273TIP3    H212826   1.076   1.867   0.831 -1.3347 -0.5035 -1.4348
 4274TIP3   OH212827   0.339   2.932   2.292 -0.0607 -0.3427  0.9191
 4274TIP3    H112828   0.418   2.941   2.239  0.4134 -0.4399  1.5898
 4274TIP3    H212829   0.272   2.901   2.231  0.7031 -1.3366  0.5666
 4275TIP3   OH212830   3.437   5.937   2.391  0.4169 -0.3466  0.6659
 4275TIP3    H112831   3.510   5.948   2.451  0.7344 -0.6325  0.3361
 4275TIP3    H212832   3.367   5.902   2.445 -0.1890  1.9010  1.4561
 4276TIP3   OH212833   1.852   3.889   2.118  0.0403 -0.1322 -0.1742
 4276TIP3    H112834   1.914   3.823   2.147  0.0805  0.0621  0.1930
 4276TIP3    H212835   1.907   3.961   2.086 -0.0056 -0.4389 -0.9504
 4277TIP3   OH212836   1.970   5.545   0.939  0.2473 -0.1885  0.0795
 4277TIP3    H112837   1.964   5.450   0.938 -1.4642 -0.1117 -1.1002
 4277TIP3    H212838   2.050   5.563   0.988 -0.0437 -2.1802  1.4267
 4278TIP3   OH212839   3.294   0.579   1.120 -0.2235 -0.3941 -0.0294
 4278TIP3    H112840   3.389   0.583   1.122 -0.2581  1.2057 -0.3077
 4278TIP3    H212841   3.266   0.642   1.186 -1.0843  1.1846 -1.8172
 4279TIP3   OH212842   1.358   2.445   2.462  0.0812  0.4821  0.2326
 4279TIP3    H112843   1.416   2.495   2.520  2.6801 -0.9332 -0.9704
 4279TIP3    H212844   1.362   2.493   2.379  2.4796 -1.4102 -0.8884
 4280TIP3   OH212845   0.102   2.749   0.562 -0.0490 -0.7102 -0.6742
 4280TIP3    H112846   0.188   2.764   0.599  0.2416 -1.2686 -1.1080
 4280TIP3    H212847   0.046   2.814   0.603  0.6248 -0.2041 -0.5527
 4281TIP3   OH212848   3.077   5.895   2.956  0.0757 -0.6781  0.1994
 4281TIP3    H112849   2.992   5.939   2.952 -1.2794 -3.2502 -1.5806
 4281TIP3    H212850   3.130   5.937   2.888  0.2015  0.7452  1.1322
 4282TIP3   OH212851   1.243   5.024   4.605 -0.1378 -0.2108  0.4352
 4282TIP3    H112852   1.198   5.105   4.630  1.7736  1.1088 -0.2006
 4282TIP3    H212853   1.286   4.996   4.686  1.1264  0.7541  0.1324
 4283TIP3   OH212854   0.124   5.271   1.722  0.3485  0.6263 -0.0604
 4283TIP3    H112855   0.074   5.319   1.788  1.6033  0.0002  1.4319
 4283TIP3    H212856   0.128   5.181   1.756  1.1570  0.3228 -0.9074
 4284TIP3   OH212857   6.154   0.986   2.475 -0.7778 -0.1346  0.1925
 4284TIP3    H112858   6.140   0.932   2.398 -0.8528  0.7850 -0.4509
 4284TIP3    H212859   6.126   1.073   2.449 -0.2297  0.3203  1.0670
 4285TIP3   OH212860   6.076   0.279   3.636  0.3503 -0.0859  0.3362
 4285TIP3    H112861   6.099   0.224   3.561  3.3271  0.9259  0.3748
 4285TIP3    H212862   6.160   0.299   3.678 -1.0005  1.3101  2.5897
 4286TIP3   OH212863   3.621   5.978   1.290  0.3115 -0.0547 -0.2772
 4286TIP3    H112864   3.567   5.952   1.215  0.0510  0.4404 -0.2623
 4286TIP3    H212865   3.694   5.916   1.289 -0.3955 -0.9212 -0.1303
 4287TIP3   OH212866   2.848   0.578   1.082 -0.5113 -0.6760  0.2102
 4287TIP3    H112867   2.906   0.504   1.065  0.7523  0.2935  0.1943
 4287TIP3    H212868   2.772   0.563   1.025  1.3064 -0.1433 -2.5101
 4288TIP3   OH212869   4.258   2.544   2.675 -0.2318 -0.1612 -0.2558
 4288TIP3    H112870   4.344   2.515   2.643 -0.4379 -2.4534  1.0895
 4288TIP3    H212871   4.196   2.512   2.611 -0.1476  1.5488 -1.2603
 4289TIP3   OH212872  -0.008   2.497   0.803 -0.1400 -0.7822 -0.3256
 4289TIP3    H112873   0.026   2.515   0.715  0.4675 -0.1372  0.0330
 4289TIP3    H212874  -0.015   2.584   0.843 -0.9601 -1.0234  0.0693
 4290TIP3   OH212875   3.570   2.486   4.103 -0.3494  0.1498  0.1864
 4290TIP3    H112876   3.550   2.516   4.192  2.8859  0.8983  0.7934
 4290TIP3    H212877   3.611   2.561   4.061 -0.3149 -0.7116 -1.4027
 4291TIP3   OH212878   2.433   5.589   0.543 -0.3263 -0.3577 -0.7154
 4291TIP3    H112879   2.343   5.612   0.521 -0.8642 -1.0172  0.6833
 4291TIP3    H212880   2.444   5.500   0.507  0.7291  0.7103 -3.3401
 4292TIP3   OH212881   2.249   2.954   3.145  0.3687 -0.4664 -0.2256
 4292TIP3    H112882   2.158   2.979   3.159  0.5762  0.0990  0.1492
 4292TIP3    H212883   2.289   2.958   3.233  1.0818  0.6365 -0.5780
 4293TIP3   OH212884   2.589   4.274   3.308 -0.2944 -0.6383 -0.4039
 4293TIP3    H112885   2.614   4.224   3.386 -1.0819 -1.5337 -0.7077
 4293TIP3    H212886   2.526   4.338   3.339  0.6598  0.1521 -0.0267
 4294TIP3   OH212887   4.214   4.335   2.275 -0.0639 -0.9207  0.1206
 4294TIP3    H112888   4.279   4.288   2.222  0.2039 -1.0964  0.6003
 4294TIP3    H212889   4.255   4.419   2.293  0.0401 -1.0384  0.4389
 4295TIP3   OH212890   5.763   4.483   1.125 -0.2021  0.0030  0.6333
 4295TIP3    H112891   5.857   4.477   1.104 -0.2038 -3.0759  1.0180
 4295TIP3    H212892   5.721   4.427   1.060 -1.9349  1.8709  0.0483
 4296TIP3   OH212893   3.557   3.436   3.154 -0.1378  0.0668 -0.1846
 4296TIP3    H112894   3.545   3.379   3.230  1.5168  1.0050  0.8313
 4296TIP3    H212895   3.539   3.380   3.079 -0.8528 -1.1431  0.8438
 4297TIP3   OH212896   1.293   3.523   2.974 -0.2970 -0.1425 -0.5105
 4297TIP3    H112897   1.331   3.437   2.995 -0.6610  0.4791  3.7111
 4297TIP3    H212898   1.367   3.574   2.940  0.4542 -1.4547 -0.9450
 4298TIP3   OH212899   4.822   1.966   4.134 -0.1918  1.2369 -0.1350
 4298TIP3    H112900   4.815   1.945   4.227  0.0373 -1.1485 -0.6116
 4298TIP3    H212901   4.912   1.945   4.111 -1.2053 -2.0450 -1.6832
 4299TIP3   OH212902   5.616   5.774   3.260  0.2767 -0.1464 -0.1967
 4299TIP3    H112903   5.670   5.706   3.301 -0.2499 -0.4641 -0.0217
 4299TIP3    H212904   5.527   5.740   3.264 -0.0210  0.6299  0.0588
 4300TIP3   OH212905   1.733   1.706   2.063  0.0281 -0.6380 -0.0817
 4300TIP3    H112906   1.727   1.719   2.158  0.6318 -1.9852  0.1719
 4300TIP3    H212907   1.650   1.664   2.040 -0.5599  0.6342 -0.3455
 4301TIP3   OH212908   3.275   0.383   0.571 -0.5115  0.0552  0.5484
 4301TIP3    H112909   3.361   0.340   0.572  0.1855  1.4059  0.5153
 4301TIP3    H212910   3.282   0.451   0.639 -0.6075  1.9550 -1.2607
 4302TIP3   OH212911   3.515   4.808   1.562  0.5699  0.7895  0.3204
 4302TIP3    H112912   3.531   4.903   1.554  0.0512  1.0353  1.8565
 4302TIP3    H212913   3.470   4.784   1.481 -0.2009  2.0701  0.3425
 4303TIP3   OH212914   5.609   4.306   0.961  0.5675 -0.7433 -0.2753
 4303TIP3    H112915   5.533   4.255   0.933  0.0980 -1.2961  1.8556
 4303TIP3    H212916   5.683   4.268   0.913 -0.2746 -1.1333 -1.2978
 4304TIP3   OH212917   4.173   3.626   4.073 -0.3288 -0.4112 -0.0374
 4304TIP3    H112918   4.265   3.611   4.090 -0.6777  0.2841  3.0754
 4304TIP3    H212919   4.169   3.714   4.034  0.3227 -0.5386 -0.3920
 4305TIP3   OH212920   5.489   1.701   4.394 -0.7128  0.5291  0.0159
 4305TIP3    H112921   5.437   1.626   4.420 -0.3521  0.2792  0.0302
 4305TIP3    H212922   5.469   1.768   4.459  0.8144 -0.3597  1.4815
 4306TIP3   OH212923   5.496   5.848   3.624 -0.1847 -0.2634 -0.5549
 4306TIP3    H112924   5.451   5.933   3.628 -0.4661 -0.4232 -0.1397
 4306TIP3    H212925   5.589   5.870   3.626 -0.2248  0.0980 -1.9783
 4307TIP3   OH212926   0.777   1.496   4.642  0.0557  0.2934  0.0211
 4307TIP3    H112927   0.720   1.426   4.609  0.2180 -0.0807  0.5108
 4307TIP3    H212928   0.747   1.575   4.598  0.5502 -0.2521 -1.3628
 4308TIP3   OH212929   4.474   3.543   4.228 -0.4976  0.0723  0.6778
 4308TIP3    H112930   4.507   3.551   4.318 -0.3685  1.4121  0.5327
 4308TIP3    H212931   4.432   3.456   4.225  2.3554 -1.4291  1.0661
 4309TIP3   OH212932   2.807   4.782   1.262 -0.1759  0.3999  0.2839
 4309TIP3    H112933   2.755   4.861   1.273  2.4561  2.4903 -0.9900
 4309TIP3    H212934   2.829   4.755   1.351 -1.2886  0.9475  0.7477
 4310TIP3   OH212935   4.806   0.325   0.045  0.0256  0.4587  0.2818
 4310TIP3    H112936   4.814   0.259   0.114  0.6256  0.0774 -0.1475
 4310TIP3    H212937   4.810   0.408   0.091  1.6548  0.2257  0.5928
 4311TIP3   OH212938   3.073   3.690   1.186 -0.2083 -0.3660  0.1933
 4311TIP3    H112939   3.011   3.761   1.207 -1.2546 -0.6061 -1.8459
 4311TIP3    H212940   3.127   3.725   1.116  2.3510 -0.0314  2.1710
 4312TIP3   OH212941   4.520   1.703   5.046 -0.1548  0.3758 -0.2310
 4312TIP3    H112942   4.463   1.717   5.122  0.3398 -1.6938  0.5924
 4312TIP3    H212943   4.489   1.766   4.981 -1.2110  1.5690  1.3382
 4313TIP3   OH212944   5.833   2.455   0.859 -0.4475 -0.0349 -1.0310
 4313TIP3    H112945   5.919   2.414   0.870 -1.0923 -0.9318  1.2447
 4313TIP3    H212946   5.771   2.387   0.886 -1.6727  1.7468  0.9218
 4314TIP3   OH212947   1.074   2.088   3.714 -0.0635  0.7082  0.0875
 4314TIP3    H112948   1.159   2.119   3.745 -0.4842  1.3278  0.6488
 4314TIP3    H212949   1.035   2.164   3.672 -0.7538  0.7136  0.7232
 4315TIP3   OH212950   4.250   4.893   1.080 -0.4308 -0.4368  0.7876
 4315TIP3    H112951   4.204   4.878   0.997 -1.2233 -2.7556  1.5938
 4315TIP3    H212952   4.216   4.977   1.111 -0.1299  0.4680 -1.1875
 4316TIP3   OH212953   3.028   1.580   2.513  0.0547 -0.3710  0.2894
 4316TIP3    H112954   2.980   1.598   2.594  1.6405  1.6174  0.9005
 4316TIP3    H212955   3.030   1.665   2.468  1.7939 -0.7105 -0.3434
 4317TIP3   OH212956   1.781   1.616   0.151  0.1645 -0.3752 -0.5516
 4317TIP3    H112957   1.690   1.609   0.121 -0.0261  1.8472 -0.6172
 4317TIP3    H212958   1.830   1.642   0.073  0.8024 -1.0849 -0.4009
 4318TIP3   OH212959   0.896   5.736   1.088 -0.2536  0.1785  0.7703
 4318TIP3    H112960   0.841   5.718   1.012  1.4271  0.5328 -0.6048
 4318TIP3    H212961   0.898   5.654   1.136 -0.4781 -0.4078 -0.1857
 4319TIP3   OH212962   2.640   2.246   4.467  0.4450  0.0151  0.0422
 4319TIP3    H112963   2.639   2.152   4.451  3.0402  0.0180 -0.7161
 4319TIP3    H212964   2.591   2.283   4.393 -0.8410 -0.7313  0.5008
 4320TIP3   OH212965   5.525   5.498   1.065 -0.1878 -0.1122 -0.1235
 4320TIP3    H112966   5.604   5.475   1.114  2.3963 -0.8617 -4.1700
 4320TIP3    H212967   5.472   5.418   1.065 -0.7156  0.1634  1.9637
 4321TIP3   OH212968   2.511   5.208   0.141  0.1064  0.3269  0.2392
 4321TIP3    H112969   2.538   5.261   0.066  2.4795 -2.1719 -0.8602
 4321TIP3    H212970   2.440   5.153   0.107 -1.6032  1.9193  1.0691
 4322TIP3   OH212971   0.379   5.173   4.728  0.1403 -0.2974 -0.7772
 4322TIP3    H112972   0.312   5.240   4.739  0.1819 -0.4116  0.1868
 4322TIP3    H212973   0.370   5.146   4.636 -1.5064 -0.7180 -0.5256
 4323TIP3   OH212974   6.216   1.133   2.196  0.1831  0.0484 -0.0950
 4323TIP3    H112975   6.216   1.047   2.155  1.6888  1.2379 -2.9001
 4323TIP3    H212976   6.134   1.137   2.244 -1.1557 -2.0109 -2.0027
 4324TIP3   OH212977   5.125   2.410   3.944 -0.0391 -0.2749  0.3330
 4324TIP3    H112978   5.093   2.500   3.950 -2.4072 -1.1327  1.9402
 4324TIP3    H212979   5.064   2.367   3.885 -0.1220 -1.2723  1.1272
 4325TIP3   OH212980   3.750   2.488   1.424 -0.2349 -0.6616  0.1510
 4325TIP3    H112981   3.814   2.559   1.416  0.1326 -1.0055  0.0185
 4325TIP3    H212982   3.744   2.452   1.335 -0.5254 -0.7079  0.1892
 4326TIP3   OH212983   3.742   1.374   2.845 -0.2640  0.0604 -0.3084
 4326TIP3    H112984   3.836   1.385   2.858 -0.4724  0.5354  0.9379
 4326TIP3    H212985   3.723   1.420   2.763  0.7778 -1.1489 -1.2755
 4327TIP3   OH212986   5.447   4.008   0.252 -0.4303  0.7167 -0.7448
 4327TIP3    H112987   5.533   3.964   0.255 -1.1499 -0.8868 -1.8590
 4327TIP3    H212988   5.407   3.987   0.336  1.3675  4.0826  1.1570
 4328TIP3   OH212989   2.453   0.108   2.353 -0.0664 -0.0950 -0.4182
 4328TIP3    H112990   2.520   0.126   2.419  0.2904 -1.2599 -0.4489
 4328TIP3    H212991   2.502   0.089   2.274 -0.4295 -0.9717 -0.4356
 4329TIP3   OH212992   0.407   3.058   3.924  0.1478  0.1525 -0.1142
 4329TIP3    H112993   0.335   2.997   3.935 -1.0630  1.3428 -1.1072
 4329TIP3    H212994   0.486   3.006   3.939 -0.8163 -1.7489 -1.3180
 4330TIP3   OH212995   4.380   2.665   4.205  0.6888 -0.2043  0.3119
 4330TIP3    H112996   4.462   2.620   4.223  0.1379 -1.4435 -0.1554
 4330TIP3    H212997   4.336   2.670   4.290  1.7138  1.5088  0.7909
 4331TIP3   OH212998   4.100   4.438   1.943 -0.4698  0.0733 -0.1603
 4331TIP3    H112999   4.165   4.388   1.894  0.8485 -0.4258  1.9852
 4331TIP3    H213000   4.059   4.373   2.001 -1.6328  0.7358 -0.2165
 4332TIP3   OH213001   2.680   4.770   4.607  0.4354  0.7476  0.4553
 4332TIP3    H113002   2.698   4.750   4.515  0.3636  0.2225  0.5552
 4332TIP3    H213003   2.765   4.796   4.644 -0.0021  4.0177 -0.4982
 4333TIP3   OH213004   2.182   3.390   4.185  0.0846  0.4764  0.6191
 4333TIP3    H113005   2.182   3.457   4.254 -2.5348  1.5439 -0.2911
 4333TIP3    H213006   2.158   3.309   4.230  1.3941  0.4827  1.4024
 4334TIP3   OH213007   3.048   2.697   1.107  0.0642  0.1871  0.0050
 4334TIP3    H113008   3.081   2.648   1.182  0.2474  1.0163  0.4705
 4334TIP3    H213009   3.126   2.712   1.053  0.1650  0.7201  0.2948
 4335TIP3   OH213010   1.695   3.977   2.665  0.4290  0.6597 -0.2315
 4335TIP3    H113011   1.723   3.967   2.574  0.4456  1.3952 -0.3174
 4335TIP3    H213012   1.599   3.972   2.661  0.4429  0.4457 -0.2603
 4336TIP3   OH213013   6.123   2.290   0.792  0.1447  0.7884 -0.3711
 4336TIP3    H113014   6.169   2.368   0.824  1.6911  0.0426 -0.7131
 4336TIP3    H213015   6.176   2.217   0.822 -0.2339 -0.0678 -1.7150
 4337TIP3   OH213016   1.798   2.109   2.056 -0.5962 -0.5126 -1.0262
 4337TIP3    H113017   1.765   2.104   2.146  1.3592 -2.5115 -0.3026
 4337TIP3    H213018   1.723   2.087   2.001 -2.5499  3.2507 -0.2167
 4338TIP3   OH213019   0.796   0.626   4.111  0.1414  0.4522  1.0812
 4338TIP3    H113020   0.806   0.605   4.204  0.2096 -0.4706  0.8665
 4338TIP3    H213021   0.701   0.625   4.097  0.1127  0.9331  1.2107
 4339TIP3   OH213022   4.851   1.129   2.029 -0.0546  0.3500 -0.4274
 4339TIP3    H113023   4.759   1.101   2.033 -0.2023  0.5120 -2.0421
 4339TIP3    H213024   4.855   1.187   1.954  1.5664 -0.3764 -0.9500
 4340TIP3   OH213025   3.702   3.951   0.853  0.7568  0.4232  0.4143
 4340TIP3    H113026   3.752   4.022   0.814  2.4237 -0.4189  0.9428
 4340TIP3    H213027   3.649   3.917   0.780  0.7266  1.5042 -0.0856
 4341TIP3   OH213028   3.070   0.517   3.169  0.2559  0.0900  0.3366
 4341TIP3    H113029   3.098   0.545   3.257  1.6913  2.1361 -0.6697
 4341TIP3    H213030   3.146   0.470   3.135  0.2920  0.6263 -0.3357
 4342TIP3   OH213031   6.271   0.656   3.784 -0.0419 -0.0892 -0.2285
 4342TIP3    H113032   6.323   0.702   3.717 -0.6476 -0.4055 -0.9304
 4342TIP3    H213033   6.336   0.608   3.835  0.6155  1.5650  0.5650
 4343TIP3   OH213034   0.404   2.868   0.449  0.6597 -0.3355  0.6345
 4343TIP3    H113035   0.356   2.826   0.378  0.1903 -0.1991  0.8659
 4343TIP3    H213036   0.369   2.827   0.529  0.6608  0.0240  0.8243
 4344TIP3   OH213037   2.712   2.518   4.532 -0.7000 -0.4656  0.0895
 4344TIP3    H113038   2.659   2.553   4.461 -1.2040 -0.2453  0.5609
 4344TIP3    H213039   2.729   2.427   4.507  0.7281  0.1184 -1.2025
 4345TIP3   OH213040   3.302   4.830   3.031 -0.3535  0.5481  0.6652
 4345TIP3    H113041   3.385   4.876   3.034  0.2506 -0.3851 -0.7685
 4345TIP3    H213042   3.241   4.888   3.076  0.9850  1.4119  1.4254
 4346TIP3   OH213043   4.909   4.672   3.832  0.8612 -0.3202 -0.0792
 4346TIP3    H113044   4.978   4.655   3.768  1.0774 -0.2139  0.1260
 4346TIP3    H213045   4.838   4.613   3.807  1.1852 -0.7307 -0.0371
 4347TIP3   OH213046   6.079   2.289   3.497  0.0279 -0.2424 -0.7943
 4347TIP3    H113047   6.038   2.232   3.431 -0.0592 -0.2649 -0.7207
 4347TIP3    H213048   6.144   2.339   3.448 -0.5603  0.2904 -1.0568
 4348TIP3   OH213049   4.107   1.398   2.294  0.0892 -0.2921 -0.1393
 4348TIP3    H113050   4.070   1.484   2.313  1.9107 -0.1370  3.6238
 4348TIP3    H213051   4.182   1.416   2.237 -0.1822  0.5059 -0.2570
 4349TIP3   OH213052   4.952   3.975   5.133  0.4277  0.0879 -0.1639
 4349TIP3    H113053   4.926   3.885   5.112  0.6041  0.0995 -0.4310
 4349TIP3    H213054   5.005   4.002   5.058  0.2134  0.4803 -0.1733
 4350TIP3   OH213055   4.339   3.826   4.416  0.4113  0.8065 -0.0949
 4350TIP3    H113056   4.358   3.812   4.509  2.9094 -2.5603 -0.8824
 4350TIP3    H213057   4.269   3.764   4.397  2.3284 -1.2524 -1.0011
 4351TIP3   OH213058   5.850   3.684   4.765  0.4411 -0.1060  0.2618
 4351TIP3    H113059   5.873   3.749   4.698 -0.4187  0.4703  0.5062
 4351TIP3    H213060   5.887   3.602   4.732 -1.3701 -0.1994 -1.8096
 4352TIP3   OH213061   5.126   0.459   1.725 -0.2471 -0.3694  0.5996
 4352TIP3    H113062   5.033   0.469   1.745 -0.2543 -0.2542  0.5076
 4352TIP3    H213063   5.170   0.521   1.784 -0.2715 -0.0026  0.2362
 4353TIP3   OH213064   4.024   4.065   4.243 -0.1603 -0.4589  0.3070
 4353TIP3    H113065   4.113   4.055   4.275 -0.8198 -0.3364  2.3636
 4353TIP3    H213066   3.974   4.094   4.320 -2.1267 -1.3203 -0.5632
 4354TIP3   OH213067   2.091   0.991   2.325  0.4166 -0.4478  0.0482
 4354TIP3    H113068   2.150   0.922   2.294  2.1411  0.4718  1.1182
 4354TIP3    H213069   2.057   0.957   2.408  0.4686 -0.4229  0.0794
 4355TIP3   OH213070   0.372   5.927   0.928  0.0087  0.6622 -0.1984
 4355TIP3    H113071   0.323   5.955   1.006 -0.3595  1.5425 -0.7307
 4355TIP3    H213072   0.434   5.998   0.913 -0.0331  0.5733 -0.8043
 4356TIP3   OH213073   2.117   4.521   3.433  0.0302 -0.0309  0.2257
 4356TIP3    H113074   2.107   4.611   3.403 -1.2879 -0.1875  0.1322
 4356TIP3    H213075   2.210   4.500   3.417  0.0104  0.8010 -1.1854
 4357TIP3   OH213076   2.160   2.603   3.665 -0.5440 -0.9060  0.0697
 4357TIP3    H113077   2.172   2.514   3.633  1.0154 -1.4151  1.8867
 4357TIP3    H213078   2.108   2.593   3.745 -0.1007 -0.2256  0.4502
 4358TIP3   OH213079  -0.007   1.770   5.079 -0.4012  0.6319  0.0534
 4358TIP3    H113080   0.016   1.802   4.991 -0.5029  0.1106 -0.1680
 4358TIP3    H213081   0.009   1.676   5.075  1.9622  0.9148  1.3423
 4359TIP3   OH213082   1.758   5.384   2.718 -0.2948  0.0945  0.4417
 4359TIP3    H113083   1.698   5.436   2.665  1.0833  1.7091  0.4026
 4359TIP3    H213084   1.707   5.306   2.742 -1.4864  0.0682 -1.8887
 4360TIP3   OH213085   6.035   5.519   3.660 -0.1393 -0.1250  0.1011
 4360TIP3    H113086   6.108   5.467   3.625 -0.1634 -0.8981  1.1342
 4360TIP3    H213087   5.984   5.544   3.583  0.0632 -1.3746 -0.4660
 4361TIP3   OH213088   1.533   0.746   2.980  0.2276 -0.0683 -0.1390
 4361TIP3    H113089   1.619   0.748   3.024 -0.2161 -0.9939  0.8410
 4361TIP3    H213090   1.548   0.789   2.896  1.8102 -0.7631 -0.2570
 4362TIP3   OH213091   2.404   0.203   0.514  0.3923 -0.1787  0.5681
 4362TIP3    H113092   2.355   0.285   0.506 -0.2834 -0.6035  0.2612
 4362TIP3    H213093   2.339   0.140   0.545  0.6842 -0.8178 -0.1040
 4363TIP3   OH213094   5.856   0.761   4.884  0.2345  0.5249  0.4820
 4363TIP3    H113095   5.892   0.749   4.796  1.4000  1.0968  0.8452
 4363TIP3    H213096   5.762   0.751   4.874 -0.0885  4.0105 -1.5116
 4364TIP3   OH213097   0.106   1.691   1.194 -0.4244  0.1184  0.0767
 4364TIP3    H113098   0.126   1.607   1.234  0.7957 -0.3223 -1.3648
 4364TIP3    H213099   0.095   1.752   1.267 -1.7073 -1.3407  1.1557
 4365TIP3   OH213100   3.366   0.094   3.437 -0.5452 -0.2014  0.0030
 4365TIP3    H113101   3.324   0.015   3.474  0.5909 -1.5231 -1.3884
 4365TIP3    H213102   3.446   0.061   3.397 -0.0900  1.6845 -0.6985
 4366TIP3   OH213103   3.795   5.578   1.464 -0.3236 -0.2074  0.0644
 4366TIP3    H113104   3.754   5.592   1.550 -0.4087 -1.3373  0.2250
 4366TIP3    H213105   3.856   5.505   1.479  0.5365  0.3709 -0.5617
 4367TIP3   OH213106   1.058   4.598   2.403  0.0350  0.4306  0.1005
 4367TIP3    H113107   1.035   4.661   2.335  1.5907  1.7093  0.7028
 4367TIP3    H213108   1.092   4.522   2.356 -1.0165  0.3826 -0.6008
 4368TIP3   OH213109   3.029   5.167   4.132  0.2242  0.0368  0.1779
 4368TIP3    H113110   3.045   5.116   4.212  0.9588 -1.8835 -1.1181
 4368TIP3    H213111   2.935   5.157   4.116  0.2143 -0.2202  0.3849
 4369TIP3   OH213112   5.854   0.701   1.783 -0.2549  0.0643  0.0261
 4369TIP3    H113113   5.948   0.685   1.788  0.3311  3.1033  0.2582
 4369TIP3    H213114   5.820   0.676   1.869  0.9773  2.1889  1.2099
 4370TIP3   OH213115   1.458   2.160   1.311  0.4926  0.4453  0.3621
 4370TIP3    H113116   1.440   2.141   1.403  2.4916 -0.8480  0.5493
 4370TIP3    H213117   1.491   2.250   1.312  1.6648  0.0334  1.1276
 4371TIP3   OH213118   0.463   1.670   3.683  0.0937 -0.1677 -0.1505
 4371TIP3    H113119   0.513   1.635   3.757  0.3566 -0.6922 -0.5712
 4371TIP3    H213120   0.523   1.731   3.640  0.8582 -1.7518 -1.4113
 4372TIP3   OH213121   3.213   1.342   0.365  0.5504 -0.0151 -0.3899
 4372TIP3    H113122   3.159   1.416   0.339  1.2674  0.6033 -0.1812
 4372TIP3    H213123   3.297   1.358   0.322  0.3210 -1.3945 -1.3824
 4373TIP3   OH213124   4.949   0.637   5.015 -0.3369 -0.1790 -0.4332
 4373TIP3    H113125   4.952   0.722   4.971  0.4961 -0.0767 -0.1835
 4373TIP3    H213126   5.031   0.594   4.991  0.4220  0.1212  1.4929
 4374TIP3   OH213127   2.793   3.774   4.281  0.5600  0.3371  0.8714
 4374TIP3    H113128   2.872   3.720   4.286  0.1496 -0.3626  0.1372
 4374TIP3    H213129   2.753   3.766   4.367  1.6800  1.3430  1.5181
 4375TIP3   OH213130   3.998   5.056   4.640 -0.3125 -0.2317  0.3611
 4375TIP3    H113131   3.997   5.118   4.713  0.7024 -0.1815  0.3507
 4375TIP3    H213132   4.032   5.106   4.566 -0.0262 -0.6460  0.2081
 4376TIP3   OH213133   3.304   4.554   3.038 -0.7584 -0.6594 -0.1782
 4376TIP3    H113134   3.306   4.650   3.041 -0.1525 -0.6199 -1.3766
 4376TIP3    H213135   3.235   4.534   2.975 -0.6261 -1.0029 -0.2150
 4377TIP3   OH213136   2.704   4.205   3.572  0.7553 -0.5437  0.3808
 4377TIP3    H113137   2.739   4.283   3.614  0.5576 -1.7007  2.8618
 4377TIP3    H213138   2.611   4.205   3.594  0.9627 -2.0374  1.4494
 4378TIP3   OH213139   2.296   3.811   0.638  0.0568  0.2432  1.0708
 4378TIP3    H113140   2.233   3.740   0.644 -1.2698  1.0431 -1.7763
 4378TIP3    H213141   2.251   3.886   0.678  0.5693  0.0432  2.0502
 4379TIP3   OH213142   3.462   2.280   1.157 -0.1437  0.2768 -0.1067
 4379TIP3    H113143   3.505   2.198   1.183  1.4865  0.9378 -0.5877
 4379TIP3    H213144   3.368   2.262   1.167  0.2093 -1.3381  0.6822
 4380TIP3   OH213145   3.856   4.086   3.046  0.2211 -0.1870  0.9978
 4380TIP3    H113146   3.799   4.144   2.995  1.5241  0.1434 -0.1452
 4380TIP3    H213147   3.810   4.075   3.129 -1.7617 -0.3650 -0.0506
 4381TIP3   OH213148   5.174   0.554   0.766 -0.1311 -0.2727 -0.1639
 4381TIP3    H113149   5.165   0.602   0.684  1.1078 -1.3851 -0.9940
 4381TIP3    H213150   5.183   0.462   0.739  1.8417 -0.5046  1.1054
 4382TIP3   OH213151   2.920   3.027   2.343  0.6184  0.0660  0.2599
 4382TIP3    H113152   2.864   2.950   2.336 -0.0650  0.4687  1.1468
 4382TIP3    H213153   2.911   3.055   2.434  1.2787  0.8840  0.0851
 4383TIP3   OH213154   2.186   1.383   3.836  0.0161  0.0068  0.3564
 4383TIP3    H113155   2.240   1.450   3.794 -0.0786  1.1699  2.0060
 4383TIP3    H213156   2.107   1.380   3.783  1.5334 -1.6124 -2.0117
 4384TIP3   OH213157   3.321   4.101   3.346  0.7804 -0.0812  0.1058
 4384TIP3    H113158   3.255   4.137   3.405  0.5084  0.9328 -0.7710
 4384TIP3    H213159   3.333   4.170   3.279  2.5227 -0.3506  0.0946
 4385TIP3   OH213160   2.117   3.405   5.102  0.2952  0.1086  0.4679
 4385TIP3    H113161   2.071   3.401   5.186  1.4265  1.1726  1.1836
 4385TIP3    H213162   2.197   3.454   5.121  0.7020  0.1600 -1.1878
 4386TIP3   OH213163   1.235   1.800   0.789 -0.2882  0.1067  0.5188
 4386TIP3    H113164   1.313   1.790   0.844 -0.1333 -2.2668 -0.0120
 4386TIP3    H213165   1.266   1.845   0.711  1.1764 -2.7743 -0.6930
 4387TIP3   OH213166   2.158   4.472   2.502 -0.1647 -0.5400 -0.2491
 4387TIP3    H113167   2.184   4.435   2.418 -1.1725 -1.0477 -0.3539
 4387TIP3    H213168   2.170   4.567   2.492 -0.1428 -0.6106 -0.9164
 4388TIP3   OH213169   0.572   3.330   2.935  0.7073 -0.0209 -0.2924
 4388TIP3    H113170   0.646   3.277   2.964  0.8681 -0.3014 -1.2047
 4388TIP3    H213171   0.513   3.331   3.011  1.8762  0.6758  0.6560
 4389TIP3   OH213172   3.468   5.047   3.066  0.2846 -0.1879  0.2034
 4389TIP3    H113173   3.475   5.096   3.148 -0.3321 -1.1762  0.8773
 4389TIP3    H213174   3.547   5.069   3.018 -0.6065  2.5403 -0.1676
 4390TIP3   OH213175   2.588   4.015   4.426 -0.5094  0.4271  0.6702
 4390TIP3    H113176   2.579   3.928   4.465 -0.6141  0.6446  1.1428
 4390TIP3    H213177   2.529   4.014   4.351  0.3700 -0.3047 -0.0378
 4391TIP3   OH213178   3.960   0.649   0.623  0.1231 -0.1840 -0.0650
 4391TIP3    H113179   3.886   0.623   0.568  0.0256 -1.4748  0.6531
 4391TIP3    H213180   3.919   0.680   0.704  0.3651 -2.8170  1.1501
 4392TIP3   OH213181   2.425   3.463   4.718 -0.1072  0.0699  0.2013
 4392TIP3    H113182   2.351   3.523   4.723 -0.7398 -0.5923 -0.6252
 4392TIP3    H213183   2.387   3.383   4.681  0.7797 -0.7057  0.9325
 4393TIP3   OH213184   0.295   1.181   2.055 -0.2610 -0.4238 -0.0277
 4393TIP3    H113185   0.359   1.122   2.014  0.2754  1.2941 -1.8345
 4393TIP3    H213186   0.247   1.219   1.982 -1.7924  0.0775  1.1795
 4394TIP3   OH213187   2.135   1.873   1.113 -0.0151  0.2731 -0.0896
 4394TIP3    H113188   2.064   1.923   1.152  0.6047 -1.0619  3.0610
 4394TIP3    H213189   2.184   1.937   1.062 -3.5938  1.1432 -2.7873
 4395TIP3   OH213190   2.454   5.207   1.121 -0.2192 -0.3427  0.2050
 4395TIP3    H113191   2.493   5.275   1.067  1.1702 -1.3228 -0.0751
 4395TIP3    H213192   2.427   5.139   1.059 -1.4881 -0.1384  0.4913
 4396TIP3   OH213193   4.682   2.273   0.351 -0.1604  0.4249 -0.3648
 4396TIP3    H113194   4.672   2.364   0.324  1.3841  0.7590  0.0376
 4396TIP3    H213195   4.596   2.247   0.383 -0.7921  1.5251 -1.1281
 4397TIP3   OH213196   5.887   3.560   3.441  1.0672  0.1334 -0.1485
 4397TIP3    H113197   5.965   3.523   3.399  1.2615  1.6138 -1.1548
 4397TIP3    H213198   5.876   3.646   3.400 -0.4752  0.3982  0.7524
 4398TIP3   OH213199   5.143   3.431   4.808 -0.3541 -0.0979  0.2028
 4398TIP3    H113200   5.213   3.423   4.872 -1.6994  0.4031  1.7921
 4398TIP3    H213201   5.117   3.340   4.790  0.9601 -0.3168 -0.7580
 4399TIP3   OH213202   1.528   1.777   3.452 -0.1523 -0.1833 -0.4178
 4399TIP3    H113203   1.589   1.820   3.511 -0.0877  0.2474 -0.7937
 4399TIP3    H213204   1.450   1.832   3.453 -0.2084 -0.2583 -0.6181
 4400TIP3   OH213205   4.799   4.642   0.563 -0.4033 -0.0004  0.2739
 4400TIP3    H113206   4.788   4.576   0.631  1.9372 -1.7718 -0.9266
 4400TIP3    H213207   4.709   4.668   0.539 -1.3552 -2.0380  1.4595
 4401TIP3   OH213208   5.203   1.921   2.968  0.0343  0.0789 -0.4329
 4401TIP3    H113209   5.274   1.895   2.910 -0.1870 -0.4165 -0.4901
 4401TIP3    H213210   5.246   1.949   3.049  0.3304  0.5575 -0.7516
 4402TIP3   OH213211   3.711   1.527   1.089 -0.0666 -0.4754 -0.5379
 4402TIP3    H113212   3.750   1.615   1.084  1.4082 -0.7820  2.9577
 4402TIP3    H213213   3.783   1.470   1.116 -1.9647 -1.8479  2.0040
 4403TIP3   OH213214   0.095   1.520   5.019  0.0035  0.1078  0.0144
 4403TIP3    H113215   0.101   1.451   5.085  1.9341  0.0140 -0.1830
 4403TIP3    H213216   0.179   1.515   4.973  0.1874  2.5928 -0.0176
 4404TIP3   OH213217   3.429   0.646   0.629 -0.0163 -0.1862 -0.1927
 4404TIP3    H113218   3.462   0.717   0.683 -0.0952 -0.7655  0.6270
 4404TIP3    H213219   3.504   0.588   0.616  1.1817  1.8899 -4.0968
 4405TIP3   OH213220   4.066   3.887   3.044 -0.1315 -0.2037 -0.0200
 4405TIP3    H113221   4.103   3.941   2.974  0.2796 -0.7113 -0.2091
 4405TIP3    H213222   3.982   3.928   3.065  0.5349  0.9838  0.4163
 4406TIP3   OH213223   1.469   4.221   3.891 -0.0048 -0.1547 -0.0205
 4406TIP3    H113224   1.420   4.206   3.972  0.0616  3.1009  0.7893
 4406TIP3    H213225   1.402   4.224   3.823 -0.3834 -0.4260  0.3345
 4407TIP3   OH213226   1.647   0.327   1.239  0.4765 -0.3500 -0.1303
 4407TIP3    H113227   1.580   0.308   1.305  0.3031 -0.3333 -0.3006
 4407TIP3    H213228   1.598   0.341   1.158  0.5886  0.8064 -0.0202
 4408TIP3   OH213229   4.953   3.723   0.125 -0.4401 -0.0561 -0.6439
 4408TIP3    H113230   4.909   3.807   0.115  0.0858  0.3292  0.2333
 4408TIP3    H213231   5.046   3.743   0.121 -0.2504 -0.3201  1.2880
 4409TIP3   OH213232   5.334   2.949   0.114 -0.3822 -0.2226 -0.0119
 4409TIP3    H113233   5.254   2.975   0.068  0.9083  1.3475 -1.5048
 4409TIP3    H213234   5.319   2.976   0.205 -1.9137 -0.8903 -0.0286
 4410TIP3   OH213235   1.037   3.758   2.887 -0.5817 -0.6484  0.0772
 4410TIP3    H113236   1.034   3.774   2.792  2.5695 -1.7278 -0.3421
 4410TIP3    H213237   1.072   3.669   2.895  2.4175  0.5664  2.1564
 4411TIP3   OH213238   2.618   4.303   2.786  0.1360  0.9687  0.3226
 4411TIP3    H113239   2.543   4.282   2.731 -0.0530 -0.0166  0.9387
 4411TIP3    H213240   2.595   4.387   2.826 -0.6445  0.6650  0.5192
 4412TIP3   OH213241   0.080   5.778   0.764 -0.0624 -0.4455  0.1348
 4412TIP3    H113242   0.156   5.724   0.785 -1.6143 -3.0452 -0.4950
 4412TIP3    H213243   0.044   5.803   0.849  1.4143  0.7815  0.4391
 4413TIP3   OH213244   2.985   4.142   4.987 -0.6384  0.1934  0.0716
 4413TIP3    H113245   2.939   4.224   5.006 -0.6465  0.1889  0.0701
 4413TIP3    H213246   2.924   4.091   4.934 -0.2384  0.6067 -0.8068
 4414TIP3   OH213247   4.904   3.300   1.526 -0.4150  0.5207 -0.0529
 4414TIP3    H113248   4.904   3.236   1.597  0.0982 -0.5819 -1.0117
 4414TIP3    H213249   4.848   3.370   1.557 -0.8663 -0.3145  1.0994
 4415TIP3   OH213250   4.520   2.365   4.449  0.9028  0.1404 -0.8113
 4415TIP3    H113251   4.530   2.427   4.377 -2.4801  1.4490 -0.3254
 4415TIP3    H213252   4.475   2.290   4.410  0.1436  0.3387 -0.3355
 4416TIP3   OH213253   5.088   3.572   3.645  0.2859  0.6636  0.2163
 4416TIP3    H113254   5.161   3.633   3.653  0.3756  0.5077  0.6538
 4416TIP3    H213255   5.013   3.619   3.680 -0.0747  1.2300 -1.2706
 4417TIP3   OH213256   1.273   3.400   5.140  0.3931 -0.0327  0.3818
 4417TIP3    H113257   1.273   3.490   5.107  0.1945  0.1377  0.8298
 4417TIP3    H213258   1.347   3.397   5.201 -0.2481  0.1455  1.1867
 4418TIP3   OH213259   5.016   3.142   1.971 -0.2465 -0.2547  0.3286
 4418TIP3    H113260   5.052   3.120   2.057 -1.5736 -0.4232  0.8602
 4418TIP3    H213261   5.005   3.237   1.974  0.3874 -0.1671  0.0609
 4419TIP3   OH213262   0.334   5.672   1.506 -0.3906 -0.0152  0.5135
 4419TIP3    H113263   0.373   5.735   1.445  0.0187  0.4908  1.2944
 4419TIP3    H213264   0.268   5.627   1.454  0.4091 -0.0579 -0.5085
 4420TIP3   OH213265   0.539   0.280   1.594  0.0737 -0.1278 -0.5152
 4420TIP3    H113266   0.515   0.372   1.597 -0.7318 -0.3159 -0.6739
 4420TIP3    H213267   0.618   0.277   1.540 -2.2831  0.0754 -4.4259
 4421TIP3   OH213268   5.719   0.441   0.151  0.1682  0.0188  0.2148
 4421TIP3    H113269   5.749   0.518   0.103  0.0535 -0.2291 -0.2596
 4421TIP3    H213270   5.799   0.400   0.184  0.1543  1.2114  1.8503
 4422TIP3   OH213271   0.570   5.301   4.165  0.0523  0.1792  0.3149
 4422TIP3    H113272   0.477   5.319   4.180 -0.6942 -0.6566 -2.7346
 4422TIP3    H213273   0.571   5.212   4.129  1.9061  0.6474 -0.8734
 4423TIP3   OH213274   5.327   3.494   0.646  0.1400  0.0389  0.3021
 4423TIP3    H113275   5.248   3.451   0.676  1.6539 -1.6379  2.1443
 4423TIP3    H213276   5.308   3.588   0.652 -2.4875 -0.2540 -1.7422
 4424TIP3   OH213277   2.695   1.633   1.108  0.1033 -0.7002 -0.5692
 4424TIP3    H113278   2.674   1.620   1.201  0.3831 -1.0083 -0.5474
 4424TIP3    H213279   2.786   1.665   1.109 -0.5862  1.4239 -0.6078
 4425TIP3   OH213280   5.179   0.042   3.517 -0.0565 -0.8307 -0.2562
 4425TIP3    H113281   5.191  -0.021   3.446  0.1644 -0.4818 -0.5319
 4425TIP3    H213282   5.257   0.098   3.513 -0.3484 -0.4071 -0.1478
 4426TIP3   OH213283   0.044   5.965   3.436  0.4600  0.3862  0.0175
 4426TIP3    H113284   0.057   5.979   3.530 -1.7423  0.8752  0.3149
 4426TIP3    H213285  -0.030   5.905   3.431  0.6933  0.1861 -1.4175
 4427TIP3   OH213286   1.580   3.507   0.299  0.6275 -0.3056 -0.0942
 4427TIP3    H113287   1.498   3.487   0.253  0.5496  1.8833 -1.0268
 4427TIP3    H213288   1.562   3.484   0.390 -0.8040 -0.4600 -0.3852
 4428TIP3   OH213289   2.579  -0.022   4.086 -0.1438 -0.3446  0.4553
 4428TIP3    H113290   2.667  -0.005   4.054 -0.2568 -1.4067 -0.4637
 4428TIP3    H213291   2.524   0.043   4.041 -0.0327 -0.6346 -0.1103
 4429TIP3   OH213292   5.256   4.336   2.831  0.1135  0.4794 -0.0025
 4429TIP3    H113293   5.320   4.354   2.762 -0.7006  2.8145 -0.2503
 4429TIP3    H213294   5.308   4.311   2.907  1.0993 -0.9167 -1.1059
 4430TIP3   OH213295   2.443   3.403   2.535  0.3472  0.3108 -0.2164
 4430TIP3    H113296   2.509   3.454   2.582 -0.9235  0.8309  1.1078
 4430TIP3    H213297   2.422   3.456   2.458  0.9623  0.4679 -0.2842
 4431TIP3   OH213298   5.191   1.119   2.908  0.3118 -0.0692 -0.6150
 4431TIP3    H113299   5.284   1.140   2.910  0.4697 -0.5837  1.9579
 4431TIP3    H213300   5.186   1.033   2.866  1.2535 -0.8183  0.7178
 4432TIP3   OH213301   1.079   3.763   0.347  0.2319  0.0420  0.3426
 4432TIP3    H113302   1.011   3.822   0.379  1.3771  0.9826  1.1123
 4432TIP3    H213303   1.033   3.680   0.332 -0.5801 -0.2570  3.6771
 4433TIP3   OH213304   3.844   5.038   3.829 -0.7734 -0.5291  0.2459
 4433TIP3    H113305   3.899   4.975   3.876  0.3701  0.6898  0.6069
 4433TIP3    H213306   3.755   5.003   3.837  0.0485 -3.3450 -1.5998
 4434TIP3   OH213307   4.933   5.485   1.276  0.5230 -0.0546  0.0477
 4434TIP3    H113308   5.011   5.530   1.243  0.6312 -1.7980 -2.3483
 4434TIP3    H213309   4.950   5.392   1.257 -2.4388 -0.4287 -1.3022
 4435TIP3   OH213310   6.216   3.954   5.073 -0.1114  0.4813 -0.5253
 4435TIP3    H113311   6.160   3.888   5.033  2.5389 -1.3629 -1.4202
 4435TIP3    H213312   6.232   3.921   5.162  1.7983 -0.5481 -1.2068
 4436TIP3   OH213313   2.843   4.920   3.912  0.1923  0.4485  0.6714
 4436TIP3    H113314   2.834   4.956   4.000  0.1423  1.1934  0.3656
 4436TIP3    H213315   2.803   4.985   3.855 -1.2722 -0.7752  0.2362
 4437TIP3   OH213316   0.338   2.581   0.955  0.0844  0.0964 -0.4168
 4437TIP3    H113317   0.393   2.645   0.999 -0.7346 -0.3645  1.3811
 4437TIP3    H213318   0.391   2.501   0.952  0.8805  0.6310 -2.1291
 4438TIP3   OH213319   5.278   3.311   2.815  0.5021  0.1224  0.1141
 4438TIP3    H113320   5.338   3.347   2.750  1.8105 -1.1598  0.5576
 4438TIP3    H213321   5.335   3.266   2.878 -0.9322 -1.1249  0.5772
 4439TIP3   OH213322   6.284   4.514   2.373 -0.0206  0.0985  0.1588
 4439TIP3    H113323   6.330   4.431   2.365 -0.4008 -0.4322  2.6573
 4439TIP3    H213324   6.335   4.564   2.436 -2.0101  0.0487  1.9082
 4440TIP3   OH213325   6.071   2.364   1.805  0.0010 -0.5074 -0.3072
 4440TIP3    H113326   6.041   2.450   1.775  0.3855  0.6687  2.4069
 4440TIP3    H213327   6.166   2.370   1.803  0.0369 -0.4757  0.8231
 4441TIP3   OH213328   5.098   2.787   0.886 -0.4794  0.3163 -0.4099
 4441TIP3    H113329   5.183   2.807   0.925 -0.4789  0.6470 -0.5747
 4441TIP3    H213330   5.106   2.697   0.855 -0.0092  0.5218 -0.8960
 4442TIP3   OH213331   6.209   1.189   3.793  0.1867 -0.3746  0.1286
 4442TIP3    H113332   6.300   1.200   3.822  0.2013 -0.8277  0.2706
 4442TIP3    H213333   6.183   1.275   3.760  0.1246  0.2068  1.6133
 4443TIP3   OH213334   2.661   5.512   1.963 -0.9288 -0.2818  0.0362
 4443TIP3    H113335   2.635   5.420   1.968 -1.9884  0.0523  1.2059
 4443TIP3    H213336   2.642   5.547   2.050 -1.3077  1.2378 -0.6283
 4444TIP3   OH213337   5.211   1.319   1.209 -0.2115 -0.2072  0.1391
 4444TIP3    H113338   5.240   1.286   1.124 -0.3620 -0.2720  0.1116
 4444TIP3    H213339   5.280   1.379   1.237  0.3493 -0.9922  0.4618
 4445TIP3   OH213340   2.345   0.379   1.365 -0.1195 -0.4783 -0.0175
 4445TIP3    H113341   2.390   0.419   1.290 -1.5519  0.8162 -0.2183
 4445TIP3    H213342   2.314   0.295   1.332  0.4162 -0.5067 -0.4654
 4446TIP3   OH213343   2.614   2.473   1.166 -0.2649  0.0987 -0.7653
 4446TIP3    H113344   2.654   2.560   1.153  0.2507 -0.2575 -1.6540
 4446TIP3    H213345   2.525   2.492   1.198 -0.3147  0.9722 -1.3868
 4447TIP3   OH213346   1.371   3.797   0.459  0.5414 -0.3597 -0.4800
 4447TIP3    H113347   1.321   3.836   0.388 -2.0337  0.7137  1.7473
 4447TIP3    H213348   1.427   3.868   0.491  0.4474 -0.3293 -0.3807
 4448TIP3   OH213349   5.908   2.952   5.035 -0.0909  0.1067  0.3727
 4448TIP3    H113350   5.920   2.870   5.083  2.0623 -0.0464 -0.3464
 4448TIP3    H213351   5.882   3.016   5.101 -1.7423 -1.1006  0.9555
 4449TIP3   OH213352   2.153   4.787   4.369  0.5042 -0.3307 -0.0465
 4449TIP3    H113353   2.140   4.856   4.304 -0.7587 -0.9014 -0.4140
 4449TIP3    H213354   2.102   4.817   4.445 -0.4628 -1.0862 -0.3852
 4450TIP3   OH213355   5.025   0.637   2.948 -0.0543  0.1235  0.0423
 4450TIP3    H113356   5.061   0.550   2.961  1.6060  0.4076 -2.1655
 4450TIP3    H213357   4.931   0.627   2.967 -0.2052 -2.5277 -1.5846
 4451TIP3   OH213358   2.155   2.237   2.672  0.0215  0.8883  0.3542
 4451TIP3    H113359   2.080   2.294   2.688  0.4171  1.6537 -0.4494
 4451TIP3    H213360   2.222   2.267   2.734 -0.4779 -0.1350  1.4404
 4452TIP3   OH213361   5.510   3.200   5.104 -0.5795  0.0982  0.3731
 4452TIP3    H113362   5.464   3.136   5.159  0.2111  0.1149  1.0631
 4452TIP3    H213363   5.555   3.147   5.038  0.8714 -0.1643  1.5258
 4453TIP3   OH213364   3.963   0.411   2.095  0.8630 -0.2166 -0.1577
 4453TIP3    H113365   3.879   0.411   2.047 -0.8521 -2.9009  2.4550
 4453TIP3    H213366   4.003   0.327   2.071  0.4716 -1.1121  2.0700
 4454TIP3   OH213367   4.032   5.748   5.043 -0.3204  0.0201 -0.1398
 4454TIP3    H113368   3.941   5.778   5.041 -0.4596 -0.2806  0.9832
 4454TIP3    H213369   4.026   5.656   5.068  0.3006 -0.0193 -0.1283
 4455TIP3   OH213370   2.317   5.765   2.750  0.4163  0.1971 -0.3031
 4455TIP3    H113371   2.343   5.673   2.748  0.4090  0.1985 -0.4798
 4455TIP3    H213372   2.221   5.762   2.744  0.3976  0.2039  0.0199
 4456TIP3   OH213373   3.199   0.049   0.005 -0.1017 -0.1558  0.4288
 4456TIP3    H113374   3.174   0.121  -0.052 -0.1928 -0.5215  0.0035
 4456TIP3    H213375   3.156   0.068   0.088  0.6573  0.7830  0.6264
 4457TIP3   OH213376   4.815   1.087   5.020  0.3299  0.3653  0.1385
 4457TIP3    H113377   4.727   1.096   4.985  0.0938 -0.0710  0.6065
 4457TIP3    H213378   4.862   1.164   4.989 -0.0230  0.2539 -0.6770
 4458TIP3   OH213379   2.429   1.997   1.219 -0.0635  0.7059 -0.2891
 4458TIP3    H113380   2.389   1.930   1.274  0.6042  0.6892  0.1774
 4458TIP3    H213381   2.433   2.075   1.275  0.8978  0.6034 -0.2145
 4459TIP3   OH213382   4.835   5.094   1.529 -0.2047 -0.6483 -0.3511
 4459TIP3    H113383   4.907   5.134   1.481 -2.4571  0.7961 -2.8319
 4459TIP3    H213384   4.819   5.011   1.484  0.1929 -1.1967  0.4991
 4460TIP3   OH213385   4.162   1.053   3.449 -0.2324  0.0197  0.2631
 4460TIP3    H113386   4.136   1.144   3.438 -2.3359 -0.4757  0.7213
 4460TIP3    H213387   4.256   1.057   3.466 -0.3677  2.1245  0.7996
 4461TIP3   OH213388   1.548   0.660   1.684 -0.6008 -0.2536  0.4251
 4461TIP3    H113389   1.530   0.675   1.777 -0.8289  2.1612  0.0700
 4461TIP3    H213390   1.597   0.738   1.656 -1.9196 -0.1396 -1.8260
 4462TIP3   OH213391   4.135   5.359   3.009 -0.4153 -0.1931 -0.1737
 4462TIP3    H113392   4.165   5.268   3.014  1.8711  0.4135 -1.1801
 4462TIP3    H213393   4.174   5.402   3.085  1.6053  0.6351 -1.5575
 4463TIP3   OH213394   1.693   0.367   0.450 -0.3620  0.8904  0.2406
 4463TIP3    H113395   1.634   0.442   0.457 -1.3082  0.0513  2.0612
 4463TIP3    H213396   1.648   0.308   0.389 -0.1257  1.3408 -0.3784
 4464TIP3   OH213397   3.511   1.678   1.478 -0.0422 -0.0595 -0.2605
 4464TIP3    H113398   3.522   1.590   1.514  2.2576  0.4362  0.4260
 4464TIP3    H213399   3.590   1.692   1.426 -0.5741  1.4553 -0.7032
 4465TIP3   OH213400   5.530   1.405   4.687 -0.2350 -0.0376 -1.0077
 4465TIP3    H113401   5.564   1.336   4.630 -0.9048 -0.4618 -0.9072
 4465TIP3    H213402   5.520   1.362   4.772 -0.8879  0.1211 -1.0024
 4466TIP3   OH213403   0.766   4.090   2.863  0.5223 -0.4292 -0.0712
 4466TIP3    H113404   0.753   4.022   2.796  0.8177 -1.1807  0.6073
 4466TIP3    H213405   0.844   4.061   2.912 -0.1435 -0.3370  1.0963
 4467TIP3   OH213406   1.377   5.660   3.251  1.0740  0.1021  0.1003
 4467TIP3    H113407   1.361   5.580   3.302 -0.8207  0.4690  0.1626
 4467TIP3    H213408   1.391   5.728   3.316 -0.9507  0.4922  0.1912
 4468TIP3   OH213409   5.320   2.198   3.359  0.1058  0.5603  0.1880
 4468TIP3    H113410   5.235   2.202   3.402  0.0573 -0.6522  0.2278
 4468TIP3    H213411   5.378   2.157   3.422  0.7992  1.5832  0.2467
 4469TIP3   OH213412   1.589   2.523   4.438 -0.3283  0.3180  0.1699
 4469TIP3    H113413   1.568   2.566   4.355 -0.4823  1.6571  0.8857
 4469TIP3    H213414   1.597   2.594   4.501 -0.9727 -0.7224  1.4833
 4470TIP3   OH213415   3.489   1.060   1.051 -0.0755  0.3828 -0.3259
 4470TIP3    H113416   3.500   1.154   1.040  0.8034  0.4328  0.8509
 4470TIP3    H213417   3.513   1.042   1.142  1.5362 -1.2092 -0.9937
 4471TIP3   OH213418   4.968   1.853   4.669  0.0602 -0.3411  0.0653
 4471TIP3    H113419   4.913   1.820   4.741  0.2989  0.5063  0.6468
 4471TIP3    H213420   4.998   1.774   4.624 -1.2695 -0.8357  0.0083
 4472TIP3   OH213421   5.476   1.056   4.290 -0.0269 -0.0730 -0.2306
 4472TIP3    H113422   5.552   1.026   4.240  1.2510  1.2965  0.8029
 4472TIP3    H213423   5.405   0.998   4.263  0.8846 -0.1234 -2.7328
 4473TIP3   OH213424   1.236   0.080   0.844  0.4577  0.4831 -0.3951
 4473TIP3    H113425   1.215   0.025   0.919  0.3399  0.5029 -0.4129
 4473TIP3    H213426   1.331   0.094   0.850  0.5559 -0.0754 -0.6375
 4474TIP3   OH213427   5.778   1.938   2.861 -0.1366 -0.6485 -0.7271
 4474TIP3    H113428   5.772   1.851   2.822 -0.2769  0.1091 -2.4499
 4474TIP3    H213429   5.751   1.998   2.792  2.3348  0.9730 -0.4036
 4475TIP3   OH213430   1.944   3.046   3.821 -0.8877  0.0322 -0.8779
 4475TIP3    H113431   1.904   2.964   3.794 -2.6193  0.5547 -0.0625
 4475TIP3    H213432   2.011   3.064   3.754 -1.4637 -1.3041 -1.8458
 4476TIP3   OH213433   1.868   0.374   3.848  0.4785 -0.1038 -0.2169
 4476TIP3    H113434   1.913   0.356   3.930 -2.3248  0.3737  1.5483
 4476TIP3    H213435   1.911   0.452   3.814  0.8550  0.4790  1.4971
 4477TIP3   OH213436   5.048   0.691   4.687 -0.2955 -0.1089 -0.0825
 4477TIP3    H113437   4.998   0.743   4.750 -2.6576 -2.1565 -0.1000
 4477TIP3    H213438   4.992   0.615   4.669  1.2808 -0.7191 -2.9802
 4478TIP3   OH213439   5.511   2.086   3.659  0.0895 -0.5333  0.4175
 4478TIP3    H113440   5.536   1.998   3.633 -1.1744 -0.5609 -0.7986
 4478TIP3    H213441   5.562   2.143   3.601  0.5636 -0.4574  0.8964
 4479TIP3   OH213442   4.937   3.101   4.312  0.5692 -0.1250 -0.7256
 4479TIP3    H113443   5.020   3.070   4.347 -0.6219 -1.6614  0.9876
 4479TIP3    H213444   4.921   3.184   4.358  0.5338 -0.5224  0.0038
 4480TIP3   OH213445   1.434   5.584   1.303  0.0205 -0.8002 -0.0498
 4480TIP3    H113446   1.432   5.491   1.328 -1.1648 -0.2517  2.0747
 4480TIP3    H213447   1.525   5.610   1.313  0.4227 -1.7905 -0.9683
 4481TIP3   OH213448   0.821   3.113   2.311 -0.0709 -0.0724 -0.0084
 4481TIP3    H113449   0.876   3.073   2.378  0.0900 -0.5836 -0.4297
 4481TIP3    H213450   0.786   3.191   2.352  0.4052 -0.1186  0.5090
 4482TIP3   OH213451   5.399   4.934   3.049  0.1581 -0.0399  0.5036
 4482TIP3    H113452   5.410   4.839   3.047  3.4562  0.1379  2.2591
 4482TIP3    H213453   5.486   4.967   3.072 -0.9391  3.4134  0.2477
 4483TIP3   OH213454   5.402   4.576   2.029  0.3648  0.3098  0.0922
 4483TIP3    H113455   5.456   4.586   1.950  0.0618  0.1813 -0.1314
 4483TIP3    H213456   5.360   4.661   2.040 -0.7120 -0.1041 -0.7094
 4484TIP3   OH213457   1.983   1.969   4.310  0.5900  0.1475 -0.6069
 4484TIP3    H113458   2.076   1.993   4.302  0.2115  1.5948 -1.0703
 4484TIP3    H213459   1.937   2.053   4.311 -0.7193 -0.5461 -0.3368
 4485TIP3   OH213460   5.648   2.477   2.400  0.1095  0.0144 -0.5183
 4485TIP3    H113461   5.645   2.532   2.478 -1.4251 -1.1554  0.3155
 4485TIP3    H213462   5.585   2.517   2.339  0.6814  0.4544 -0.8208
 4486TIP3   OH213463   2.291   5.627   1.291 -0.1075 -0.2277 -0.1505
 4486TIP3    H113464   2.245   5.571   1.353  0.5034 -0.6840 -0.1032
 4486TIP3    H213465   2.279   5.716   1.326 -0.4665 -0.3981  0.1635
 4487TIP3   OH213466   2.650   0.201   1.799 -0.1280 -0.3766  0.5231
 4487TIP3    H113467   2.610   0.184   1.714 -0.9590 -0.7215  0.9788
 4487TIP3    H213468   2.622   0.290   1.821 -1.0126 -0.7605  1.0243
 4488TIP3   OH213469   5.064   3.646   4.954 -0.5000 -0.1547  0.3158
 4488TIP3    H113470   5.111   3.705   4.895 -3.0093  0.8482 -0.7816
 4488TIP3    H213471   5.062   3.562   4.908  2.3732 -1.0219  1.5312
 4489TIP3   OH213472   1.473   4.442   2.432 -0.2108 -0.2120 -0.5380
 4489TIP3    H113473   1.443   4.528   2.459  1.0715  0.0259  0.1950
 4489TIP3    H213474   1.395   4.386   2.437 -0.9572  0.8021 -0.6351
 4490TIP3   OH213475   0.412   2.088   0.514  0.4764 -0.3213 -0.0482
 4490TIP3    H113476   0.418   2.131   0.599 -0.3194 -0.0990 -0.0920
 4490TIP3    H213477   0.354   2.013   0.529 -0.5338  0.3214 -0.6132
 4491TIP3   OH213478   0.370   1.060   0.347  0.0347  0.2545 -0.1450
 4491TIP3    H113479   0.464   1.048   0.353  0.2922  1.6617 -1.1758
 4491TIP3    H213480   0.351   1.134   0.404 -0.6027 -0.5706  0.7663
 4492TIP3   OH213481   6.208   2.827   4.760 -0.0307  0.0857  0.8368
 4492TIP3    H113482   6.209   2.919   4.788  0.8555  0.0443  0.9508
 4492TIP3    H213483   6.240   2.830   4.669  0.2575 -0.1373  0.9297
 4493TIP3   OH213484   0.063   4.510   3.445 -0.4197 -0.2046  0.6369
 4493TIP3    H113485   0.109   4.436   3.485 -3.0598 -1.5254  1.4714
 4493TIP3    H213486   0.111   4.527   3.364  0.4887 -2.6039  0.5950
 4494TIP3   OH213487   1.791   1.040   4.873  0.4064 -0.3923  0.8857
 4494TIP3    H113488   1.827   1.122   4.908 -2.4386  0.5798  1.8023
 4494TIP3    H213489   1.740   1.067   4.796  1.1153 -1.6286 -0.0583
 4495TIP3   OH213490   0.379   4.417   2.650 -0.5465  0.4330 -0.4016
 4495TIP3    H113491   0.306   4.355   2.654 -1.3024  0.9610 -3.4585
 4495TIP3    H213492   0.456   4.362   2.634 -0.7398  0.1064 -0.2358
 4496TIP3   OH213493   3.955   5.652   3.949  0.1058 -0.1412 -0.4201
 4496TIP3    H113494   3.908   5.712   3.892 -1.0361 -1.6129 -1.0885
 4496TIP3    H213495   3.976   5.577   3.894  0.6941 -0.7725  0.6162
 4497TIP3   OH213496   1.296   3.429   1.934 -0.0743 -0.0709  0.0867
 4497TIP3    H113497   1.249   3.512   1.938  0.8535  0.4422  0.7953
 4497TIP3    H213498   1.381   3.452   1.895 -0.3630 -0.9603 -1.1115
 4498TIP3   OH213499   3.303   4.719   4.413 -0.1657  0.1612 -0.3172
 4498TIP3    H113500   3.259   4.728   4.328  1.6281  1.4935 -1.1834
 4498TIP3    H213501   3.323   4.625   4.419 -0.0403  0.0894 -1.5359
 4499TIP3   OH213502   5.354   5.648   3.288  0.0691  0.3096  0.1178
 4499TIP3    H113503   5.374   5.587   3.217 -0.4510 -0.0650  0.2926
 4499TIP3    H213504   5.258   5.649   3.293  0.0997  0.4344  0.7330
 4500TIP3   OH213505   0.516   0.617   4.097  0.3379 -0.5751  0.0426
 4500TIP3    H113506   0.474   0.547   4.146  0.0509 -1.0963 -0.9226
 4500TIP3    H213507   0.445   0.679   4.077  0.6263  0.1216  1.0695
 4501TIP3   OH213508   6.196   4.458   0.846 -0.1400 -0.5062 -0.2301
 4501TIP3    H113509   6.158   4.405   0.777  1.5479 -0.6181 -1.1313
 4501TIP3    H213510   6.259   4.400   0.890 -0.0300  0.0375  0.3580
 4502TIP3   OH213511   3.563   0.409   4.374  0.3026  0.0695  0.8030
 4502TIP3    H113512   3.477   0.438   4.405 -0.2881 -0.8594  0.0730
 4502TIP3    H213513   3.555   0.407   4.279  0.9230 -0.6755  0.7618
 4503TIP3   OH213514   6.143   3.025   2.756  0.5222  0.5445  0.2277
 4503TIP3    H113515   6.126   2.936   2.725  1.7188  0.0920  0.8330
 4503TIP3    H213516   6.231   3.045   2.725  1.4407  0.3881  2.5436
 4504TIP3   OH213517   2.007   4.368   1.573  0.4762  0.0629  0.1988
 4504TIP3    H113518   2.041   4.284   1.540  0.6246 -0.1505  0.8683
 4504TIP3    H213519   1.988   4.419   1.494  0.1818 -0.6803 -0.2264
 4505TIP3   OH213520   4.398   3.652   4.707 -0.5043  0.1984  0.7150
 4505TIP3    H113521   4.397   3.743   4.738 -1.7169  0.6908 -0.6714
 4505TIP3    H213522   4.318   3.614   4.744 -1.0389  0.2864 -0.3215
 4506TIP3   OH213523   5.424   2.628   1.135  0.6264  0.4401 -0.2629
 4506TIP3    H113524   5.342   2.605   1.179  0.7339  0.7520  0.1097
 4506TIP3    H213525   5.453   2.547   1.095 -0.2203  0.4770 -0.9976
 4507TIP3   OH213526   0.484   5.181   2.509 -0.4445  0.2720 -0.0021
 4507TIP3    H113527   0.389   5.194   2.515 -0.3343  1.3096 -0.3875
 4507TIP3    H213528   0.519   5.224   2.587 -0.2618  0.1647 -0.0253
 4508TIP3   OH213529   4.137   4.213   5.118 -0.1868 -0.0823  0.2675
 4508TIP3    H113530   4.083   4.263   5.179 -0.2047 -1.3686  1.3672
 4508TIP3    H213531   4.161   4.134   5.167  3.5618  0.8355  0.2381
 4509TIP3   OH213532   4.987   0.672   2.652  0.2045  0.1974 -0.1026
 4509TIP3    H113533   4.945   0.685   2.737  2.0698 -2.1597  1.3020
 4509TIP3    H213534   4.947   0.592   2.617  1.6494 -0.6480  0.0941
 4510TIP3   OH213535   1.206   5.712   1.316 -0.1836  0.2905  0.2620
 4510TIP3    H113536   1.272   5.646   1.296 -0.4890  0.4933 -1.6049
 4510TIP3    H213537   1.133   5.663   1.356  0.7277 -0.0399  1.5956
 4511TIP3   OH213538   4.181   1.543   3.878  0.1355  0.2515 -0.2644
 4511TIP3    H113539   4.097   1.560   3.920 -0.1312 -0.7369 -0.3711
 4511TIP3    H213540   4.243   1.541   3.951 -0.2969 -1.2659  0.1011
 4512TIP3   OH213541   4.421   1.621   3.475  0.5769  0.0390  0.3814
 4512TIP3    H113542   4.383   1.544   3.433  0.7500  0.4613 -0.5839
 4512TIP3    H213543   4.515   1.615   3.458  0.8374 -0.4696  1.8788
 4513TIP3   OH213544   4.971   2.004   2.537 -0.7750 -0.0755 -0.8775
 4513TIP3    H113545   4.936   1.927   2.492 -1.4798 -0.0241 -0.4192
 4513TIP3    H213546   5.046   1.970   2.586 -1.2958 -0.5483 -0.3932
 4514TIP3   OH213547   4.513   1.144   4.221  0.4204 -0.3249 -0.2004
 4514TIP3    H113548   4.576   1.185   4.161  0.2546 -0.0970 -0.2168
 4514TIP3    H213549   4.537   1.178   4.307  1.1530 -1.2400 -0.0146
 4515TIP3   OH213550   0.248   5.780   1.738  0.0959  0.2359  0.1650
 4515TIP3    H113551   0.219   5.856   1.687  1.4605  0.5876 -0.1243
 4515TIP3    H213552   0.294   5.726   1.674  1.3452  0.4077  0.8997
 4516TIP3   OH213553   4.688   1.612   3.380  0.0793  0.6763  0.1544
 4516TIP3    H113554   4.738   1.586   3.303  1.3081 -0.5867  1.3181
 4516TIP3    H213555   4.750   1.662   3.433 -0.8424  1.8081  0.2026
 4517TIP3   OH213556   5.670   0.381   3.791 -0.0064  0.3143 -0.0103
 4517TIP3    H113557   5.691   0.334   3.711 -2.3828  0.1206 -0.6135
 4517TIP3    H213558   5.696   0.472   3.774  3.2443 -0.3981  0.6099
 4518TIP3   OH213559   2.608   3.382   3.093 -1.0855  0.3129  0.2552
 4518TIP3    H113560   2.692   3.336   3.103 -0.5532  1.2214  0.1228
 4518TIP3    H213561   2.581   3.363   3.003 -1.4018 -0.5863  0.5307
 4519TIP3   OH213562   5.016   2.239   1.080  0.2138 -0.5757  0.0609
 4519TIP3    H113563   5.059   2.279   1.005 -1.9418  1.4749 -0.2105
 4519TIP3    H213564   4.933   2.286   1.088  0.4598 -0.4402  3.9156
 4520TIP3   OH213565   2.503   2.956   3.747 -0.0871  0.3008  0.2415
 4520TIP3    H113566   2.468   2.877   3.707  0.7571 -0.2222  0.5065
 4520TIP3    H213567   2.458   2.962   3.831 -0.4558  0.3388  0.0455
 4521TIP3   OH213568   0.375   3.837   2.745 -0.4238 -0.0228 -0.2441
 4521TIP3    H113569   0.422   3.855   2.664 -0.7318  0.1431 -0.3857
 4521TIP3    H213570   0.409   3.752   2.774  1.5874  1.0839  0.8299
 4522TIP3   OH213571   1.811   5.401   4.707 -0.1002 -0.4955 -0.1816
 4522TIP3    H113572   1.817   5.473   4.644  1.4313  0.7630  1.3268
 4522TIP3    H213573   1.846   5.325   4.660  0.8116  0.3665 -0.9293
 4523TIP3   OH213574   0.390   5.167   1.894  0.1191  0.4318 -0.6095
 4523TIP3    H113575   0.325   5.172   1.964  0.2264 -0.5333 -0.4243
 4523TIP3    H213576   0.342   5.137   1.817  0.1876  0.5355 -0.6932
 4524TIP3   OH213577   5.007   3.797   1.760 -0.5581 -0.7556 -0.3998
 4524TIP3    H113578   4.978   3.866   1.819  0.8031 -1.0576  0.6705
 4524TIP3    H213579   5.045   3.843   1.685 -1.2584 -0.3686 -0.5212
 4525TIP3   OH213580   0.418   4.638   2.806  0.1942  0.3471  0.0048
 4525TIP3    H113581   0.483   4.693   2.761 -0.2893  0.9387  0.0310
 4525TIP3    H213582   0.388   4.577   2.738 -1.2112  1.8251 -0.7712
 4526TIP3   OH213583   1.975   5.835   0.527  0.3822 -0.1511 -0.0812
 4526TIP3    H113584   1.905   5.787   0.573 -0.5066  0.9413 -0.2512
 4526TIP3    H213585   1.948   5.926   0.532  0.5845  0.0669 -2.2244
 4527TIP3   OH213586   6.218   1.321   3.439 -0.1339  0.4539 -0.2394
 4527TIP3    H113587   6.244   1.231   3.457  1.2045  0.7860 -0.4243
 4527TIP3    H213588   6.182   1.352   3.522 -0.5317 -0.2184 -0.1507
 4528TIP3   OH213589   5.232   0.671   0.189 -0.0890  0.0805 -0.4448
 4528TIP3    H113590   5.219   0.690   0.096 -1.9819 -1.5106 -0.5799
 4528TIP3    H213591   5.256   0.578   0.191  0.7246  0.2950  0.6224
 4529TIP3   OH213592   3.774   5.283   4.743 -0.1672  0.4248 -0.0239
 4529TIP3    H113593   3.747   5.249   4.828 -0.1253  0.6870  0.0963
 4529TIP3    H213594   3.742   5.219   4.680 -0.6803  0.5106  0.1475
 4530TIP3   OH213595   3.388   2.687   0.046 -0.0269  0.1501  0.4349
 4530TIP3    H113596   3.443   2.731  -0.020  0.5323 -1.5375 -0.2847
 4530TIP3    H213597   3.383   2.749   0.118  2.4225  0.5962  0.3069
 4531TIP3   OH213598   2.967   0.047   3.598 -0.3502  0.3022  0.5340
 4531TIP3    H113599   2.909  -0.029   3.587 -2.1960  1.7468 -0.4527
 4531TIP3    H213600   2.965   0.090   3.512 -1.2976  2.7049  1.6621
 4532TIP3   OH213601   3.197   5.861   4.607  0.4295  0.3815  0.3500
 4532TIP3    H113602   3.120   5.872   4.551  1.0768  0.9523 -0.4557
 4532TIP3    H213603   3.209   5.766   4.613 -0.2482  0.2955  0.3625
 4533TIP3   OH213604   3.003   0.502   1.423  0.2386  0.1878 -0.0111
 4533TIP3    H113605   3.004   0.432   1.487 -0.2458 -0.2556 -0.4738
 4533TIP3    H213606   3.026   0.460   1.340  3.6143  1.2202  0.2629
 4534TIP3   OH213607   2.066   1.061   1.472 -0.4792  0.3701  0.0807
 4534TIP3    H113608   2.061   0.974   1.512 -0.3918 -0.7522 -2.1931
 4534TIP3    H213609   1.990   1.108   1.505 -1.3669 -1.1085  0.1985
 4535TIP3   OH213610   0.287   5.135   1.048 -0.3621  0.4527  0.0905
 4535TIP3    H113611   0.237   5.151   1.129  0.6638  3.8612  0.2156
 4535TIP3    H213612   0.378   5.153   1.073  0.1726  0.0220 -1.4700
 4536TIP3   OH213613   0.423   3.543   3.534 -0.2346  0.3984  0.3242
 4536TIP3    H113614   0.345   3.574   3.487 -0.4711 -1.8427 -0.9014
 4536TIP3    H213615   0.405   3.565   3.626 -2.1689  0.3063  0.0254
 4537TIP3   OH213616   3.970   5.914   4.078 -0.3988  0.3801  0.4402
 4537TIP3    H113617   3.907   5.844   4.064 -0.2947  0.3208  0.2656
 4537TIP3    H213618   4.055   5.870   4.079 -0.2867  0.5710 -0.2436
 4538TIP3   OH213619   3.710   1.831   3.206 -0.0570  0.4479  0.3462
 4538TIP3    H113620   3.794   1.845   3.249 -0.8530  0.7145  1.8994
 4538TIP3    H213621   3.647   1.826   3.278 -1.3220 -0.1415 -0.7540
 4539TIP3   OH213622   4.667   5.408   0.500  0.2717  0.5815 -0.0970
 4539TIP3    H113623   4.652   5.378   0.410 -3.9609 -0.1846  0.6734
 4539TIP3    H213624   4.719   5.338   0.540  0.6225  0.0452 -1.4216
 4540TIP3   OH213625   5.347   4.851   0.590 -0.2673 -0.0551 -0.7626
 4540TIP3    H113626   5.375   4.770   0.632 -0.2669 -0.0844 -0.8185
 4540TIP3    H213627   5.393   4.851   0.505 -0.0232  0.1546 -0.6318
 4541TIP3   OH213628   0.033   0.086   2.648 -0.0580 -0.5058  0.2012
 4541TIP3    H113629   0.075   0.004   2.674  1.5817  0.6691  1.4735
 4541TIP3    H213630   0.030   0.081   2.552  0.4175 -1.8470  0.2302
 4542TIP3   OH213631   1.390   2.230   1.604  0.2851  0.1161  0.1347
 4542TIP3    H113632   1.425   2.177   1.676  0.5757 -1.0675 -0.8601
 4542TIP3    H213633   1.444   2.309   1.605  0.2401  0.1612  1.2549
 4543TIP3   OH213634   3.547   0.439   1.145 -0.4568 -0.4268  0.2475
 4543TIP3    H113635   3.500   0.359   1.171 -1.5955  0.2512  0.3794
 4543TIP3    H213636   3.590   0.468   1.226 -3.2426  1.1738  1.3084
 4544TIP3   OH213637   3.263   5.080   1.473 -0.4747 -0.0636  0.2920
 4544TIP3    H113638   3.196   5.114   1.413  0.7286  1.0591 -0.4925
 4544TIP3    H213639   3.329   5.042   1.415  0.3588  0.3668  0.9383
 4545TIP3   OH213640   2.417   4.232   3.575 -0.1353 -0.8750 -0.1650
 4545TIP3    H113641   2.357   4.211   3.646 -0.8130 -1.3600 -0.8575
 4545TIP3    H213642   2.433   4.326   3.583 -0.4261 -0.8753  0.4556
 4546TIP3   OH213643   5.590   4.250   2.559 -0.1128 -0.3002 -0.3986
 4546TIP3    H113644   5.506   4.288   2.535  0.4504  0.7301 -0.8438
 4546TIP3    H213645   5.629   4.315   2.619  1.2046  0.2646 -1.7768
 4547TIP3   OH213646   0.117   4.992   1.843 -0.9603 -0.4055 -0.3683
 4547TIP3    H113647   0.073   4.925   1.791 -0.3443 -1.2594  0.1773
 4547TIP3    H213648   0.177   4.943   1.899 -0.0874  0.6499 -0.3474
 4548TIP3   OH213649   6.264   0.731   3.114 -0.0061 -0.7199  0.2523
 4548TIP3    H113650   6.287   0.821   3.089  0.4833 -0.7729  0.5014
 4548TIP3    H213651   6.346   0.682   3.107 -0.4107 -1.3003 -0.5349
 4549TIP3   OH213652   0.643   5.051   2.064 -0.3698 -0.3567  0.6443
 4549TIP3    H113653   0.612   5.111   2.132  1.6453  0.1303  1.1987
 4549TIP3    H213654   0.631   5.098   1.982 -1.1973 -0.2522  0.8194
 4550TIP3   OH213655   5.946   3.973   3.556  0.4523  0.0617  0.0748
 4550TIP3    H113656   5.867   3.953   3.507 -0.4077  1.2425  0.9324
 4550TIP3    H213657   5.967   3.892   3.602 -0.1128 -0.3337 -0.3566
 4551TIP3   OH213658   1.740   3.509   4.678 -0.7641 -0.3737  0.3253
 4551TIP3    H113659   1.765   3.563   4.603  1.0202 -1.8526 -0.2222
 4551TIP3    H213660   1.702   3.570   4.740 -0.5019  1.2056 -1.0058
 4552TIP3   OH213661   2.279   1.149   2.446  0.4281  0.0459 -0.1889
 4552TIP3    H113662   2.213   1.114   2.386 -2.1629  4.2307 -0.1441
 4552TIP3    H213663   2.358   1.155   2.393 -0.6251 -0.2903 -1.8951
 4553TIP3   OH213664   3.466   4.308   3.646  0.0577 -0.4049 -0.0936
 4553TIP3    H113665   3.376   4.295   3.618 -0.4942  2.3603  0.1378
 4553TIP3    H213666   3.502   4.372   3.585  1.3090 -0.1426  0.8633
 4554TIP3   OH213667   1.120   3.009   0.601  0.4072 -0.4112 -0.0475
 4554TIP3    H113668   1.137   3.072   0.671 -0.1292  0.1306 -0.3982
 4554TIP3    H213669   1.064   2.943   0.641 -0.5084  0.2857 -0.1507
 4555TIP3   OH213670   3.162   0.512   0.109  0.2719  0.0132  0.1830
 4555TIP3    H113671   3.217   0.590   0.119  0.4806 -0.2538  1.2439
 4555TIP3    H213672   3.122   0.500   0.196 -0.9025 -0.2165 -0.3731
 4556TIP3   OH213673   6.058   1.792   1.451 -0.8723  0.0337 -0.3974
 4556TIP3    H113674   5.984   1.738   1.477 -0.6396  0.1304  0.5009
 4556TIP3    H213675   6.087   1.834   1.532  1.0279 -1.0658 -0.4524
 4557TIP3   OH213676   1.611   0.526   2.425 -0.2050 -0.0006  0.2632
 4557TIP3    H113677   1.605   0.431   2.438  0.2605 -0.3722 -1.8475
 4557TIP3    H213678   1.573   0.563   2.504 -2.4107 -1.9676  0.2580
 4558TIP3   OH213679   4.023   0.042   2.937 -0.0119  0.1279 -0.1066
 4558TIP3    H113680   4.075   0.020   3.015 -0.4052  2.0038  0.7260
 4558TIP3    H213681   4.070   0.115   2.897 -1.6759  1.5334  0.3799
 4559TIP3   OH213682   2.637   1.286   0.473  0.0933 -0.0198  0.1055
 4559TIP3    H113683   2.686   1.249   0.547 -0.4467  1.3909  1.1996
 4559TIP3    H213684   2.579   1.215   0.446  0.0849 -0.4739  1.2379
 4560TIP3   OH213685   5.671   4.759   2.400  0.3872  0.1331  0.1859
 4560TIP3    H113686   5.633   4.841   2.369 -0.8440  0.0090  1.2743
 4560TIP3    H213687   5.724   4.784   2.476 -0.2049 -0.1024  0.6814
 4561TIP3   OH213688   0.260   0.914   2.683  0.1444 -0.0939  0.0520
 4561TIP3    H113689   0.166   0.897   2.679  0.2430 -1.1752  1.4656
 4561TIP3    H213690   0.267   1.009   2.678 -0.9648 -0.0333 -0.7809
 4562TIP3   OH213691   4.915   5.416   2.305 -0.1058  0.2263  0.0699
 4562TIP3    H113692   4.841   5.473   2.328 -0.2598 -0.2134  0.6947
 4562TIP3    H213693   4.992   5.463   2.337 -0.2936 -0.2475  1.2740
 4563TIP3   OH213694   4.996   5.078   3.559  0.7738 -0.4635 -0.1091
 4563TIP3    H113695   4.975   5.097   3.468  2.3682 -1.1178 -0.6453
 4563TIP3    H213696   4.939   5.004   3.582  2.0752 -1.9351 -1.3903
 4564TIP3   OH213697   1.540   0.601   0.461  0.1352 -0.5834  0.5431
 4564TIP3    H113698   1.464   0.658   0.475 -1.2334 -2.0224 -0.6394
 4564TIP3    H213699   1.598   0.619   0.535 -1.1505  0.8852  1.2449
 4565TIP3   OH213700   2.255   2.768   4.238 -0.2198 -0.1003 -0.5699
 4565TIP3    H113701   2.178   2.774   4.182 -0.4801  0.1523 -0.1851
 4565TIP3    H213702   2.223   2.786   4.326  0.4854  1.2849 -0.5664
 4566TIP3   OH213703   5.011   2.127   2.900  0.3494  0.1105 -0.2397
 4566TIP3    H113704   5.025   2.147   2.993 -1.8487 -1.5365  0.5192
 4566TIP3    H213705   5.085   2.070   2.877  1.6000  1.5123  0.0726
 4567TIP3   OH213706   3.967   3.835   0.095  0.3764  0.1416  0.4350
 4567TIP3    H113707   3.924   3.842   0.180 -0.1125  1.4650  0.1020
 4567TIP3    H213708   4.049   3.883   0.106  1.1971 -1.2588  0.6786
 4568TIP3   OH213709   1.915   3.442   3.648  0.1823 -0.4704  0.0471
 4568TIP3    H113710   1.940   3.352   3.627 -1.7239 -1.1133  0.3427
 4568TIP3    H213711   1.824   3.449   3.619  0.2797  1.3621  0.0595
 4569TIP3   OH213712   2.926   3.065   0.779  0.8665  0.2659  1.0938
 4569TIP3    H113713   3.019   3.064   0.801  0.7704  1.3042  1.6321
 4569TIP3    H213714   2.885   3.116   0.850  0.0829  0.9038  0.2102
 4570TIP3   OH213715   5.393   0.326   4.951 -0.1223 -0.2399  0.4939
 4570TIP3    H113716   5.381   0.335   5.045 -0.9702 -2.1858  0.6216
 4570TIP3    H213717   5.358   0.239   4.930 -0.2791  0.2751 -1.6723
 4571TIP3   OH213718   4.369   0.533   4.407 -0.0123 -0.4940 -0.4918
 4571TIP3    H113719   4.377   0.438   4.400 -1.8283 -0.7518  0.2680
 4571TIP3    H213720   4.388   0.565   4.318  1.0356 -1.5212 -0.6491
 4572TIP3   OH213721   5.770   0.450   4.840 -0.7840  0.1750  0.7294
 4572TIP3    H113722   5.761   0.365   4.884 -1.9008 -0.5554 -0.8139
 4572TIP3    H213723   5.865   0.464   4.836 -0.5618 -1.1158  0.8051
 4573TIP3   OH213724   5.870   4.758   2.576 -0.0367  0.0665  0.1632
 4573TIP3    H113725   5.940   4.694   2.566  0.1468  0.2775  0.1073
 4573TIP3    H213726   5.823   4.730   2.655 -0.1083 -0.2802  0.0025
 4574TIP3   OH213727   2.761   2.120   0.375  0.0020 -0.1033  0.5356
 4574TIP3    H113728   2.771   2.058   0.302 -1.3530  0.4997 -0.2102
 4574TIP3    H213729   2.668   2.115   0.398 -0.0016  1.1842  0.8745
 4575TIP3   OH213730   2.280   3.965   1.592  0.4635 -0.7953  0.1809
 4575TIP3    H113731   2.370   3.937   1.573  0.9050  1.6414 -1.8438
 4575TIP3    H213732   2.286   4.008   1.677  1.4693  0.2709 -0.4054
 4576TIP3   OH213733   5.337   2.464   4.264 -0.0044 -0.2490  0.1425
 4576TIP3    H113734   5.394   2.395   4.230  1.9954  1.5199 -0.2758
 4576TIP3    H213735   5.327   2.525   4.192 -1.3189  0.1867  0.6619
 4577TIP3   OH213736   0.893   4.436   2.568 -0.4373  0.5237 -0.1126
 4577TIP3    H113737   0.963   4.465   2.510 -0.0271 -0.3317 -0.0655
 4577TIP3    H213738   0.854   4.362   2.522  0.8421 -1.1223  1.3138
 4578TIP3   OH213739   4.205   2.586   2.358 -0.1238 -0.0814 -0.1520
 4578TIP3    H113740   4.285   2.568   2.308  0.9823  3.4386  0.0879
 4578TIP3    H213741   4.148   2.630   2.295 -0.6272  0.1649  0.4700
 4579TIP3   OH213742   0.972   1.840   3.135 -0.1768  0.0749 -0.0828
 4579TIP3    H113743   1.042   1.776   3.141 -0.7244 -0.8623 -2.5277
 4579TIP3    H213744   0.982   1.878   3.047 -1.0456  1.9657  0.5810
 4580TIP3   OH213745   4.710   5.160   2.276 -0.2454  0.3277  0.5414
 4580TIP3    H113746   4.780   5.103   2.307  0.1615  1.3305  1.5215
 4580TIP3    H213747   4.731   5.246   2.313 -0.3656  1.3389 -1.6021
 4581TIP3   OH213748   2.560   0.093   0.005 -0.2626  0.4994  0.0648
 4581TIP3    H113749   2.631   0.055   0.057  0.1660  2.7731  1.2733
 4581TIP3    H213750   2.484   0.038   0.025  0.5241 -0.3273  0.9146
 4582TIP3   OH213751   5.285   3.298   1.828  0.2777  0.0154 -0.8033
 4582TIP3    H113752   5.331   3.251   1.759  1.2184 -1.3357  0.6506
 4582TIP3    H213753   5.196   3.263   1.826  0.8270 -1.5256 -0.0906
 4583TIP3   OH213754   2.209   1.804   0.481 -0.4014 -0.0637  0.2766
 4583TIP3    H113755   2.178   1.795   0.391  0.5896 -2.5949  0.1207
 4583TIP3    H213756   2.304   1.814   0.473 -0.2303 -0.9377  1.0340
 4584TIP3   OH213757   3.048   1.016   4.871  0.2661  0.6437 -0.9322
 4584TIP3    H113758   3.031   1.055   4.785 -1.1180 -0.8105 -1.3400
 4584TIP3    H213759   3.032   1.088   4.933 -0.7741  1.1544 -1.7588
 4585TIP3   OH213760   0.442   4.219   2.073 -0.3322  0.0238  0.1830
 4585TIP3    H113761   0.422   4.312   2.081 -0.5741 -0.0907  0.9861
 4585TIP3    H213762   0.526   4.208   2.117  0.8890  0.2521 -1.9466
 4586TIP3   OH213763   6.085   3.082   0.762  0.3935 -0.1947 -0.2957
 4586TIP3    H113764   6.010   3.117   0.714  0.3053 -1.5547 -1.1931
 4586TIP3    H213765   6.047   3.036   0.837  0.3838 -0.1060 -0.2465
 4587TIP3   OH213766   4.166   0.912   1.945  0.3646 -0.0430 -0.0710
 4587TIP3    H113767   4.167   1.006   1.965 -1.8922 -0.1502  0.8750
 4587TIP3    H213768   4.079   0.883   1.972  0.7744 -2.2990 -0.9609
 4588TIP3   OH213769   5.575   0.387   2.333 -0.9137  0.0110  0.2882
 4588TIP3    H113770   5.585   0.310   2.277 -0.0196 -0.6692  1.3375
 4588TIP3    H213771   5.528   0.354   2.410 -0.3129  0.4438  0.8490
 4589TIP3   OH213772   0.224   5.342   5.051  0.4904  0.0877 -0.0616
 4589TIP3    H113773   0.247   5.356   4.958  0.5529  0.3724 -0.0058
 4589TIP3    H213774   0.237   5.428   5.091 -0.7537  0.2849 -0.0420
 4590TIP3   OH213775   4.256   5.474   0.925 -0.1634 -0.0800  0.3991
 4590TIP3    H113776   4.212   5.559   0.930  0.2903  0.2585 -0.8774
 4590TIP3    H213777   4.307   5.469   1.005  0.8343  1.4610 -0.0936
 4591TIP3   OH213778   4.052   5.094   0.406 -0.2538  0.1672 -0.1892
 4591TIP3    H113779   4.120   5.076   0.341  0.4255 -0.8448  0.7421
 4591TIP3    H213780   4.099   5.096   0.489 -1.4396 -1.4891  0.6004
 4592TIP3   OH213781   0.392   4.013   3.076 -0.1412 -0.1476 -0.4748
 4592TIP3    H113782   0.322   3.999   3.012  1.2706  0.5380 -2.2630
 4592TIP3    H213783   0.448   4.079   3.036  0.7778  0.3735  1.5449
 4593TIP3   OH213784   4.069   3.051   3.335  0.1543  0.2637 -0.0433
 4593TIP3    H113785   4.076   3.146   3.344  1.4612  0.5462 -2.9355
 4593TIP3    H213786   3.995   3.027   3.390 -1.7214  3.2922 -0.9863
 4594TIP3   OH213787   1.915   5.802   0.255 -0.5876 -1.0938  0.2637
 4594TIP3    H113788   1.967   5.867   0.302 -1.9417  0.2438 -0.0133
 4594TIP3    H213789   1.884   5.743   0.324  1.4306 -2.0701  0.4047
 4595TIP3   OH213790   5.439   1.735   4.968  0.2860 -0.1468 -0.0530
 4595TIP3    H113791   5.462   1.755   5.059  1.3496 -0.8754 -0.1472
 4595TIP3    H213792   5.351   1.699   4.973  0.9316 -1.6719  0.8866
 4596TIP3   OH213793   0.021   1.085   3.180 -0.1067 -0.7003 -0.2398
 4596TIP3    H113794   0.020   1.167   3.131 -0.2832 -0.4740  0.1407
 4596TIP3    H213795   0.100   1.041   3.150  0.1122 -0.2885 -0.2765
 4597TIP3   OH213796   3.023   5.175   1.368  0.9729  0.1883  0.0757
 4597TIP3    H113797   2.986   5.182   1.280  1.6460  0.4792 -0.1919
 4597TIP3    H213798   2.949   5.154   1.424  0.7762 -1.6421 -0.7910
 4598TIP3   OH213799   1.663   4.008   1.711  0.0653  0.4414 -0.1531
 4598TIP3    H113800   1.656   4.015   1.616 -1.4838 -1.7816 -0.2706
 4598TIP3    H213801   1.748   3.967   1.726  1.0586  2.2839 -0.4177
 4599TIP3   OH213802   1.427   2.194   2.538  0.2597  0.1790 -0.1331
 4599TIP3    H113803   1.360   2.260   2.524 -0.7749 -0.8941 -0.3848
 4599TIP3    H213804   1.407   2.126   2.474  0.6216 -0.8981  0.8669
 4600TIP3   OH213805   2.116   1.046   2.667 -0.4311 -0.2828  0.2984
 4600TIP3    H113806   2.096   0.954   2.654  1.9016 -0.6731 -1.0994
 4600TIP3    H213807   2.130   1.081   2.579 -0.7727  1.2877  0.8308
 4601TIP3   OH213808   2.256   1.924   2.634 -0.1594 -0.3728 -0.1668
 4601TIP3    H113809   2.203   1.976   2.694 -2.0250 -2.4678  0.1324
 4601TIP3    H213810   2.230   1.953   2.546  0.5107  0.7496 -0.0064
 4602TIP3   OH213811   6.143   5.424   3.020 -0.3138  0.0768 -0.1519
 4602TIP3    H113812   6.126   5.509   3.060  2.2924 -0.1853  1.7443
 4602TIP3    H213813   6.153   5.443   2.927 -0.7107  1.6668  0.1005
 4603TIP3   OH213814   2.864   5.875   0.747  0.0242 -0.4170  0.2751
 4603TIP3    H113815   2.949   5.868   0.791 -0.8047  0.3122  2.1008
 4603TIP3    H213816   2.813   5.802   0.782  0.4437 -2.0505 -2.2771
 4604TIP3   OH213817   0.569   0.236   3.988  0.0676  0.5727 -0.1684
 4604TIP3    H113818   0.629   0.293   3.940 -0.0464  1.2869  0.5101
 4604TIP3    H213819   0.623   0.163   4.018  0.5538  1.0703  0.1976
 4605TIP3   OH213820   3.956   0.579   3.875 -1.1736 -0.4310 -0.6429
 4605TIP3    H113821   3.897   0.574   3.799 -0.0376  1.0453 -1.6787
 4605TIP3    H213822   4.043   0.588   3.837 -0.7137  1.9627  0.7873
 4606TIP3   OH213823   3.967   0.671   5.099  0.3419  0.4622  0.0390
 4606TIP3    H113824   3.877   0.688   5.070  0.6758  0.0865 -1.2833
 4606TIP3    H213825   4.004   0.757   5.117 -0.0208  0.6728 -0.2259
 4607TIP3   OH213826   1.981   0.936   0.043 -0.1948 -0.4895 -0.5665
 4607TIP3    H113827   2.028   0.888  -0.025 -0.4646  1.9021 -2.6158
 4607TIP3    H213828   1.890   0.937   0.013 -0.1387  1.5020 -0.8045
 4608TIP3   OH213829   5.738   1.859   0.208 -0.2409  0.5208 -0.5344
 4608TIP3    H113830   5.691   1.807   0.273 -0.2033 -0.5499 -1.3344
 4608TIP3    H213831   5.670   1.907   0.162 -0.3468  0.6022 -0.2949
 4609TIP3   OH213832   1.969   5.505   3.254 -0.0031  0.4045 -0.4297
 4609TIP3    H113833   1.936   5.521   3.165  0.8197 -0.5651 -0.9249
 4609TIP3    H213834   2.061   5.532   3.251  0.5613 -1.4141 -0.4247
 4610TIP3   OH213835   5.230   0.818   0.909  0.3212  0.0719  0.1051
 4610TIP3    H113836   5.206   0.727   0.889  4.0761 -0.8164 -1.2752
 4610TIP3    H213837   5.294   0.811   0.980 -0.5732  1.8499  1.1495
 4611TIP3   OH213838   5.047   1.132   3.756  0.3846  0.5655  0.7464
 4611TIP3    H113839   4.976   1.186   3.790  0.0414  1.0142 -0.5957
 4611TIP3    H213840   5.108   1.195   3.718 -0.6880  0.0344 -2.0893
 4612TIP3   OH213841   0.871   0.697   0.943 -0.9155  0.0680 -0.5533
 4612TIP3    H113842   0.849   0.605   0.959 -1.3848  0.2160 -0.3624
 4612TIP3    H213843   0.797   0.731   0.893 -0.6557  0.2965 -0.7851
 4613TIP3   OH213844   5.809   0.253   2.575 -0.0667  0.9187  0.3189
 4613TIP3    H113845   5.834   0.335   2.618 -0.1988  1.2829 -0.2946
 4613TIP3    H213846   5.739   0.277   2.515  0.2021  0.4394 -0.1987
 4614TIP3   OH213847   5.495   5.122   3.350  0.0246 -0.1368  0.6672
 4614TIP3    H113848   5.554   5.193   3.376 -1.0979  2.1280 -2.3976
 4614TIP3    H213849   5.528   5.093   3.265 -2.1301 -0.1659 -0.2047
 4615TIP3   OH213850   3.691   0.410   1.366  0.2172 -0.6135 -0.3769
 4615TIP3    H113851   3.699   0.315   1.356  0.6509 -0.5335 -0.7971
 4615TIP3    H213852   3.774   0.437   1.405 -0.2468 -0.5131  0.5839
 4616TIP3   OH213853   2.514   1.572   4.999  0.2460 -0.0132  0.8101
 4616TIP3    H113854   2.470   1.528   4.926 -0.3780 -2.0098  2.3004
 4616TIP3    H213855   2.445   1.620   5.044  0.4262  0.3440  0.7100
 4617TIP3   OH213856   1.913   2.272   4.027 -0.0554  0.4420  0.5472
 4617TIP3    H113857   1.962   2.337   4.078 -1.9557  0.5373  2.3278
 4617TIP3    H213858   1.831   2.316   4.004 -0.4552 -0.6094 -0.1110
 4618TIP3   OH213859   0.646   2.947   0.146  0.0330  0.3180  0.1796
 4618TIP3    H113860   0.555   2.961   0.172 -0.1019  3.9088 -1.6696
 4618TIP3    H213861   0.696   3.012   0.197  1.1287  0.4161 -0.9748
 4619TIP3   OH213862   4.648   0.460   3.570 -0.3203  0.7116  0.6007
 4619TIP3    H113863   4.664   0.374   3.532 -1.1109  0.4620  0.8259
 4619TIP3    H213864   4.728   0.480   3.619 -0.5490 -0.3827  1.4521
 4620TIP3   OH213865   3.922   1.261   0.029  0.3167 -0.6034  0.0523
 4620TIP3    H113866   3.934   1.350   0.061  2.0851 -1.2049  1.2625
 4620TIP3    H213867   3.966   1.206   0.094  1.4860 -2.1539 -1.9188
 4621TIP3   OH213868   2.083   1.681   2.183  0.0427  0.5223 -0.0228
 4621TIP3    H113869   2.107   1.625   2.110 -0.9963  1.3187 -1.0101
 4621TIP3    H213870   2.120   1.766   2.162 -1.0272  0.9905 -0.1035
 4622TIP3   OH213871   4.847   3.587   0.957  0.3707 -0.1583  0.0039
 4622TIP3    H113872   4.852   3.585   0.862  1.4238  0.3533  0.0421
 4622TIP3    H213873   4.918   3.530   0.986 -0.9363 -1.6240  0.4867
 4623TIP3   OH213874   1.671   2.159   3.587  0.7875 -0.5871 -0.2110
 4623TIP3    H113875   1.710   2.084   3.541 -1.4078 -2.1941  0.4009
 4623TIP3    H213876   1.708   2.154   3.675  2.1111  0.2376 -0.6970
 4624TIP3   OH213877   4.517   5.178   4.531  0.1246 -0.6896  0.1703
 4624TIP3    H113878   4.589   5.115   4.524  0.9033  0.1481  0.4602
 4624TIP3    H213879   4.527   5.216   4.618 -0.1209  0.0792 -0.1329
 4625TIP3   OH213880   3.934   4.950   2.667  0.0734 -0.2112  0.4317
 4625TIP3    H113881   3.858   4.904   2.632 -0.7235  0.3624  1.3532
 4625TIP3    H213882   4.009   4.894   2.644 -0.5454 -0.4847 -1.0110
 4626TIP3   OH213883   0.152   0.226   2.291  0.6965 -0.3698 -0.2649
 4626TIP3    H113884   0.096   0.251   2.218 -0.1173  0.9131  0.7373
 4626TIP3    H213885   0.114   0.144   2.324  0.0968 -0.1160 -0.3098
 4627TIP3   OH213886   2.256   5.030   2.439 -0.0070 -0.4872  0.0098
 4627TIP3    H113887   2.225   5.119   2.456 -0.4313 -0.3835 -1.2016
 4627TIP3    H213888   2.180   4.985   2.401  0.3059 -1.2677  0.2803
 4628TIP3   OH213889   5.376   1.303   4.164  0.1196  0.1067 -0.6446
 4628TIP3    H113890   5.398   1.375   4.223  2.3208  1.0674 -2.4711
 4628TIP3    H213891   5.420   1.226   4.202  0.1904  0.3580 -0.2101
 4629TIP3   OH213892   3.755   3.890   0.367  0.3515 -0.1323 -0.2067
 4629TIP3    H113893   3.843   3.924   0.352 -0.0653  0.8034 -0.6247
 4629TIP3    H213894   3.697   3.960   0.337 -0.5431 -1.1048 -0.8240
 4630TIP3   OH213895   2.136   1.165   4.738 -0.0949 -0.1002 -0.4488
 4630TIP3    H113896   2.095   1.096   4.686  0.3672 -0.3612 -0.4759
 4630TIP3    H213897   2.201   1.118   4.792 -0.3680  0.2021  0.1466
 4631TIP3   OH213898   3.555   2.654   2.415  0.2092 -0.0214 -0.1811
 4631TIP3    H113899   3.604   2.584   2.370 -1.0215 -0.8547 -0.2610
 4631TIP3    H213900   3.556   2.727   2.353 -0.6050 -0.8197 -1.1607
 4632TIP3   OH213901   1.275   0.341   3.063  0.3882 -0.0623  0.1265
 4632TIP3    H113902   1.259   0.429   3.098 -2.6986  0.1877 -1.6057
 4632TIP3    H213903   1.227   0.283   3.121  1.1854 -0.4688  0.3945
 4633TIP3   OH213904   3.905   0.272   3.633  0.5684  0.0157  0.0138
 4633TIP3    H113905   3.906   0.275   3.729  1.3803  1.4830  0.0032
 4633TIP3    H213906   3.846   0.343   3.608 -0.8197 -1.3091 -0.5939
 4634TIP3   OH213907   2.038   4.941   1.711  0.1774  0.0094 -0.7014
 4634TIP3    H113908   2.104   5.010   1.713 -0.4397  0.7336 -2.7751
 4634TIP3    H213909   2.072   4.875   1.651 -1.3125  0.8444 -2.5742
 4635TIP3   OH213910   3.642   2.838   1.092  0.2397 -0.2081 -0.3997
 4635TIP3    H113911   3.607   2.831   1.181  0.8397  1.1344 -0.0452
 4635TIP3    H213912   3.635   2.931   1.071 -0.1481 -0.5550 -1.8749
 4636TIP3   OH213913   3.558   5.085   4.668  0.2216 -0.5580  0.4481
 4636TIP3    H113914   3.505   5.118   4.740 -0.6400 -1.7733  0.3967
 4636TIP3    H213915   3.508   5.012   4.632  1.4567 -1.1010 -0.2535
 4637TIP3   OH213916   5.463   4.084   2.270  0.5424 -0.6478  0.1550
 4637TIP3    H113917   5.378   4.056   2.235 -0.1666  0.8541  0.5733
 4637TIP3    H213918   5.460   4.180   2.264  1.6592 -0.5109  1.4500
 4638TIP3   OH213919   3.051   4.219   2.023 -0.0299 -0.5107  0.6641
 4638TIP3    H113920   3.048   4.314   2.036 -0.3673 -0.4155 -0.1185
 4638TIP3    H213921   2.960   4.191   2.027 -0.0760 -0.5945 -0.5758
 4639TIP3   OH213922   5.547   0.330   4.162  0.0321 -0.3637  0.0985
 4639TIP3    H113923   5.532   0.325   4.256  0.7740 -0.1221  0.2352
 4639TIP3    H213924   5.534   0.422   4.141  1.5912 -0.0892  0.2759
 4640TIP3   OH213925   4.118   2.615   2.077 -0.2692 -0.6075 -0.9237
 4640TIP3    H113926   4.153   2.661   2.001  1.6957 -1.4311 -0.5813
 4640TIP3    H213927   4.058   2.549   2.041  2.4650 -2.6447 -2.0495
 4641TIP3   OH213928   1.557   0.872   4.303 -0.2398 -0.0032  0.3811
 4641TIP3    H113929   1.536   0.780   4.287 -1.5927  0.1894  0.9051
 4641TIP3    H213930   1.484   0.920   4.263 -0.3235  0.7649  1.4343
 4642TIP3   OH213931   4.446   2.176   0.461 -0.5497 -0.1389  0.6314
 4642TIP3    H113932   4.472   2.097   0.509  0.7061  0.3555  0.8192
 4642TIP3    H213933   4.419   2.237   0.529 -1.7387 -0.4641  0.4705
 4643TIP3   OH213934   2.641   3.952   2.227  0.3343 -0.0316 -0.2204
 4643TIP3    H113935   2.671   3.900   2.301  0.0611  0.2592  0.0970
 4643TIP3    H213936   2.548   3.932   2.219  0.3341  0.0367 -0.4059
 4644TIP3   OH213937   5.252   1.329   3.712  0.0373  0.1682  0.4403
 4644TIP3    H113938   5.320   1.292   3.655  0.0578  0.5118  0.2387
 4644TIP3    H213939   5.254   1.423   3.694  0.6998  0.4209  1.7143
 4645TIP3   OH213940   3.633   2.836   4.423  0.6501 -0.2520  0.4017
 4645TIP3    H113941   3.601   2.819   4.511  1.0264 -1.3800  0.3346
 4645TIP3    H213942   3.573   2.787   4.366  0.0832  0.8899 -0.0288
 4646TIP3   OH213943   1.434   0.386   4.912  0.5422 -0.0408 -0.1627
 4646TIP3    H113944   1.527   0.406   4.897  1.0795 -0.8966  1.6951
 4646TIP3    H213945   1.400   0.465   4.955  1.7926 -1.4865  3.9368
 4647TIP3   OH213946   0.630   2.309   0.636  0.3668  0.7216 -0.4400
 4647TIP3    H113947   0.697   2.276   0.695 -0.2710 -1.3859 -0.7862
 4647TIP3    H213948   0.675   2.321   0.552  0.8860  1.9842  0.0150
 4648TIP3   OH213949   4.785   4.696   3.055  0.0017 -0.5216 -0.1083
 4648TIP3    H113950   4.833   4.759   3.108  0.2083 -1.0642  0.3685
 4648TIP3    H213951   4.824   4.703   2.968 -1.2293  1.3168 -0.5616
 4649TIP3   OH213952   2.643   5.748   0.945 -0.0388 -0.0081 -0.3225
 4649TIP3    H113953   2.717   5.706   0.988  0.1123  0.1633 -0.4156
 4649TIP3    H213954   2.586   5.676   0.920 -1.7846 -0.0486  3.1146
 4650TIP3   OH213955   6.271   2.228   2.867 -0.1317  0.2734  0.4483
 4650TIP3    H113956   6.302   2.140   2.842 -1.4410 -0.9216  2.7237
 4650TIP3    H213957   6.205   2.250   2.802 -1.4562 -1.5061  1.1093
 4651TIP3   OH213958   1.696   3.437   4.188 -0.1408 -0.0241 -0.0474
 4651TIP3    H113959   1.715   3.362   4.244 -0.4037  0.5972  0.8806
 4651TIP3    H213960   1.759   3.429   4.116  0.6290 -0.4739  0.6583
 4652TIP3   OH213961   4.461   0.867   0.245  0.0597 -0.1259 -0.1118
 4652TIP3    H113962   4.466   0.785   0.195 -0.3749  0.7919 -1.7219
 4652TIP3    H213963   4.512   0.849   0.324  0.8659 -1.6097 -0.9168
 4653TIP3   OH213964   1.364   2.843   0.810  0.1153  0.4041 -0.1712
 4653TIP3    H113965   1.435   2.781   0.825  0.9755  0.4140 -3.4218
 4653TIP3    H213966   1.286   2.789   0.801  0.0887  0.2030  1.0549
 4654TIP3   OH213967   4.777   3.068   2.337  0.0331 -0.2251  0.0343
 4654TIP3    H113968   4.794   2.975   2.353 -0.0137 -0.0867  0.9409
 4654TIP3    H213969   4.860   3.111   2.358 -0.1617  0.0093  0.3302
 4655TIP3   OH213970   5.711   4.726   0.703  0.5825  0.4775  0.1390
 4655TIP3    H113971   5.693   4.751   0.612  0.6560 -0.2300 -0.0740
 4655TIP3    H213972   5.791   4.774   0.726  1.6211 -0.7543 -0.7819
 4656TIP3   OH213973   1.545   5.630   1.930 -0.1728 -0.3332 -0.2316
 4656TIP3    H113974   1.591   5.560   1.883 -1.7659 -1.3806 -0.3022
 4656TIP3    H213975   1.465   5.645   1.879  0.3822  1.9849 -0.5480
 4657TIP3   OH213976   0.675   0.072   2.150  0.4687  0.3831  0.7456
 4657TIP3    H113977   0.694   0.143   2.088 -0.1781  0.7599  0.9718
 4657TIP3    H213978   0.685   0.113   2.236 -0.6304  0.4049  0.8739
 4658TIP3   OH213979   2.472   0.305   3.160 -0.0511 -0.0739 -0.7322
 4658TIP3    H113980   2.484   0.346   3.245  0.4687 -0.4515 -0.6198
 4658TIP3    H213981   2.526   0.357   3.100  1.4535 -1.1887 -0.4024
 4659TIP3   OH213982   3.756   2.810   4.888 -0.1693 -0.1318 -0.1805
 4659TIP3    H113983   3.805   2.728   4.895  0.4266  0.3487  2.8993
 4659TIP3    H213984   3.706   2.815   4.969 -1.4652  1.7904 -1.0278
 4660TIP3   OH213985   0.745   2.243   5.166 -0.7941  0.1183  0.2074
 4660TIP3    H113986   0.782   2.187   5.098 -0.3360  0.4907  0.1470
 4660TIP3    H213987   0.816   2.254   5.230 -1.4151 -0.7597  1.0831
 4661TIP3   OH213988   0.898   3.543   0.149 -0.2310  0.0486 -0.0978
 4661TIP3    H113989   0.871   3.524   0.239  0.8725 -0.2583  0.1836
 4661TIP3    H213990   0.909   3.638   0.147  1.2487 -0.0899  0.5445
 4662TIP3   OH213991   5.483   1.157   0.066  0.1948  0.1974 -0.5291
 4662TIP3    H113992   5.491   1.220  -0.006  0.8083  1.2194  0.4115
 4662TIP3    H213993   5.395   1.173   0.101  0.5231  0.9069  0.0157
 4663TIP3   OH213994   0.192   1.222   4.419  0.6252  0.0465  0.3701
 4663TIP3    H113995   0.247   1.164   4.472  0.7667 -0.7637 -0.6382
 4663TIP3    H213996   0.114   1.236   4.472 -0.0388 -2.2070  0.0896
 4664TIP3   OH213997   5.291   4.921   1.289  0.3843 -0.2557 -0.3834
 4664TIP3    H113998   5.296   4.903   1.195  0.9721  0.8938 -0.5814
 4664TIP3    H213999   5.311   5.014   1.297 -2.6950  0.4489  0.5977
 4665TIP3   OH214000   1.985   2.161   4.729  0.4004  0.2595 -0.3823
 4665TIP3    H114001   1.931   2.191   4.656  0.6123  1.4434 -0.0649
 4665TIP3    H214002   1.928   2.102   4.779 -0.4038  1.0235 -0.3815
 4666TIP3   OH214003   0.428   1.196   2.311  0.2131 -0.0031  0.3951
 4666TIP3    H114004   0.365   1.191   2.239 -0.1043 -1.1098  0.7208
 4666TIP3    H214005   0.507   1.154   2.276  0.5793  0.8376  0.1910
 4667TIP3   OH214006   3.026   1.787   2.328 -0.1927  0.4724 -0.1150
 4667TIP3    H114007   3.005   1.822   2.242  1.7949  1.5113 -0.2238
 4667TIP3    H214008   2.996   1.853   2.390  0.7981  0.9968 -0.1723
 4668TIP3   OH214009   0.897   2.741   2.005 -0.4772  0.1611  0.3608
 4668TIP3    H114010   0.991   2.755   1.995 -0.5201  0.6993  0.6750
 4668TIP3    H214011   0.880   2.659   1.958  0.1453  0.0609  0.2975
 4669TIP3   OH214012   0.764   4.008   1.577  0.6251 -0.6604  0.1692
 4669TIP3    H114013   0.732   4.030   1.489  2.3234 -0.1244 -0.3598
 4669TIP3    H214014   0.793   4.092   1.614 -0.9812 -0.7113  1.6752
 4670TIP3   OH214015   5.040   4.293   3.610 -0.4695 -0.5974  0.3099
 4670TIP3    H114016   5.109   4.341   3.564 -1.7120  0.4975 -0.4918
 4670TIP3    H214017   5.059   4.201   3.593  0.4970 -0.2959 -0.3281
 4671TIP3   OH214018   5.360   2.301   3.766  0.2925 -0.5361 -0.0028
 4671TIP3    H114019   5.343   2.258   3.849  1.5928  0.6643  0.9288
 4671TIP3    H214020   5.414   2.239   3.717  1.0398 -0.5205  0.7871
 4672TIP3   OH214021   1.555   3.151   1.039  0.6152  0.1560  0.8300
 4672TIP3    H114022   1.514   3.180   1.121 -0.0590 -0.7596  0.8254
 4672TIP3    H214023   1.600   3.070   1.062 -1.2774 -1.2219 -0.1266
 4673TIP3   OH214024   0.678   3.016   1.108 -0.3087  0.0490  0.0079
 4673TIP3    H114025   0.620   3.020   1.184 -0.2141 -1.4681  0.1964
 4673TIP3    H214026   0.679   3.105   1.073 -1.6912  0.3895  0.7791
 4674TIP3   OH214027   5.533   3.063   4.606  0.2759 -0.1304 -0.4046
 4674TIP3    H114028   5.460   3.118   4.576 -0.1898 -0.6670 -0.2761
 4674TIP3    H214029   5.588   3.052   4.528  0.8803  1.2801 -0.2083
 4675TIP3   OH214030   3.624   4.245   0.026 -0.0234  0.1150 -0.3141
 4675TIP3    H114031   3.704   4.211  -0.015 -0.4132  0.4252 -1.3460
 4675TIP3    H214032   3.634   4.340   0.025  0.2828  0.1195  0.9913
 4676TIP3   OH214033   3.034   5.928   1.338 -0.2925  0.1070  0.3460
 4676TIP3    H114034   3.024   5.833   1.334  1.3475 -0.0796 -0.1521
 4676TIP3    H214035   3.025   5.956   1.247 -1.0926  0.4730  0.5353
 4677TIP3   OH214036   2.356   5.834   4.654 -0.4794 -0.1772 -0.3429
 4677TIP3    H114037   2.428   5.863   4.599  0.4473 -2.0939 -0.2057
 4677TIP3    H214038   2.362   5.888   4.733  0.8587 -0.3471 -0.3129
 4678TIP3   OH214039   5.194   1.336   3.979 -0.2842 -0.3223  0.2917
 4678TIP3    H114040   5.226   1.300   3.896 -0.5331  0.9338 -0.3847
 4678TIP3    H214041   5.265   1.320   4.041  0.3529 -0.3510 -0.4232
 4679TIP3   OH214042   6.299   1.237   0.348 -0.1290 -0.8125 -0.4638
 4679TIP3    H114043   6.362   1.309   0.355 -0.1470 -0.6130 -2.0120
 4679TIP3    H214044   6.220   1.270   0.391  0.1871 -0.3031 -0.2625
 4680TIP3   OH214045   3.217   0.575   4.838  0.6018 -0.2669 -0.2195
 4680TIP3    H114046   3.127   0.606   4.832  0.4248 -0.6467  0.3567
 4680TIP3    H214047   3.267   0.649   4.873  0.6263  0.1305 -1.0740
 4681TIP3   OH214048   5.302   1.413   0.822  0.2423 -0.3458 -0.0631
 4681TIP3    H114049   5.298   1.433   0.728  1.0086  0.3400  0.0395
 4681TIP3    H214050   5.369   1.472   0.856 -0.8640  0.2509  1.1477
 4682TIP3   OH214051   0.571   5.106   5.006  0.3879  0.0157 -0.7099
 4682TIP3    H114052   0.506   5.108   5.077  0.4264  1.4395 -0.6910
 4682TIP3    H214053   0.654   5.092   5.051  0.5521  1.9352 -0.3039
 4683TIP3   OH214054   0.030   1.262   4.175  0.4521 -0.5974  0.0791
 4683TIP3    H114055  -0.054   1.218   4.191  0.0383 -0.4287 -1.5051
 4683TIP3    H214056   0.078   1.252   4.258 -1.6590  0.5531  1.5511
 4684TIP3   OH214057   2.148   4.423   2.826 -0.3580  0.2636  0.3103
 4684TIP3    H114058   2.058   4.401   2.802 -1.3436 -0.4055  3.9766
 4684TIP3    H214059   2.147   4.518   2.836  0.1744  0.6080 -2.2378
 4685TIP3   OH214060   1.295   4.829   0.780  0.3255  0.3596  0.1766
 4685TIP3    H114061   1.240   4.757   0.811 -0.9423  1.2731  0.0994
 4685TIP3    H214062   1.349   4.852   0.856  1.4497 -1.2687 -0.0680
 4686TIP3   OH214063   1.555   1.894   2.697  0.2664  0.1134 -0.0690
 4686TIP3    H114064   1.631   1.889   2.639 -0.8654  1.3840 -1.7714
 4686TIP3    H214065   1.564   1.979   2.740  0.8566 -0.6279  1.3262
 4687TIP3   OH214066   6.074   4.812   4.040  0.2977 -0.4784  0.1914
 4687TIP3    H114067   6.078   4.838   3.948  0.7160  0.5053  0.4776
 4687TIP3    H214068   5.992   4.851   4.072  1.1290  0.9062  0.7267
 4688TIP3   OH214069   2.826   0.399   3.202 -0.3773  0.2200 -0.6519
 4688TIP3    H114070   2.917   0.419   3.180 -0.5926  3.1115  0.6872
 4688TIP3    H214071   2.833   0.339   3.276  0.4591  0.5725 -0.4260
 4689TIP3   OH214072   1.767   2.659   2.934 -0.4902 -0.3175 -0.3801
 4689TIP3    H114073   1.837   2.676   2.871 -0.8010  2.5652 -0.0749
 4689TIP3    H214074   1.807   2.601   2.999  0.8160 -0.7179 -1.4925
 4690TIP3   OH214075   5.327   1.064   3.901  0.6809  0.2307 -0.1591
 4690TIP3    H114076   5.274   1.089   3.977  1.4102 -0.7231  0.6947
 4690TIP3    H214077   5.388   0.998   3.935 -1.1328 -2.7907 -2.2441
 4691TIP3   OH214078   1.717   2.587   3.741 -0.1828 -0.0405 -0.7450
 4691TIP3    H114079   1.766   2.669   3.752  0.7149 -0.9303  4.0081
 4691TIP3    H214080   1.775   2.531   3.690  0.4703  1.2763 -1.5022
 4692TIP3   OH214081   4.205   0.392   1.372  0.3036 -0.0495  0.0980
 4692TIP3    H114082   4.240   0.363   1.456  0.5433 -0.2980 -0.0869
 4692TIP3    H214083   4.231   0.484   1.366 -1.2348  0.4803  1.0966
 4693TIP3   OH214084   5.516   3.084   3.387 -0.1866  0.0821 -0.0759
 4693TIP3    H114085   5.424   3.093   3.413  0.1570 -0.8035  1.6043
 4693TIP3    H214086   5.565   3.119   3.462  0.8761  2.1984 -1.6541
 4694TIP3   OH214087   3.178   3.021   4.258  0.4715 -0.0980  0.5193
 4694TIP3    H114088   3.136   2.984   4.181 -0.0673  0.8041  0.3615
 4694TIP3    H214089   3.110   3.074   4.300  0.5305 -1.1391  2.0294
 4695TIP3   OH214090   0.214   0.606   4.551 -0.2828  0.1146 -0.0531
 4695TIP3    H114091   0.290   0.559   4.517 -0.1736 -0.9468  1.5375
 4695TIP3    H214092   0.139   0.553   4.526 -0.2340 -0.4456  0.9305
 4696TIP3   OH214093   3.307   0.805   2.710 -0.4608  0.8068  0.1582
 4696TIP3    H114094   3.226   0.768   2.673 -0.7251  0.2781  1.2325
 4696TIP3    H214095   3.279   0.886   2.752 -0.3577  0.8340  0.1741
 4697TIP3   OH214096   0.587   4.784   3.516  0.2831 -0.0856 -0.2421
 4697TIP3    H114097   0.620   4.854   3.572  0.3111  0.8171 -1.3361
 4697TIP3    H214098   0.624   4.704   3.552 -0.3469  0.3671  1.4928
 4698TIP3   OH214099   4.087   0.301   3.995 -0.1359  0.4847 -0.2109
 4698TIP3    H114100   4.057   0.386   3.963 -0.8296  0.8623  1.3606
 4698TIP3    H214101   4.015   0.241   3.973 -0.2976  0.5983  0.0089
 4699TIP3   OH214102   4.822   4.423   3.543 -0.0557 -0.4405  0.0649
 4699TIP3    H114103   4.773   4.446   3.621 -1.4663  1.2411 -1.2279
 4699TIP3    H214104   4.900   4.378   3.576 -0.5346  0.3047  2.4094
 4700TIP3   OH214105   2.585   0.827   4.644  0.2474  0.0265  0.5826
 4700TIP3    H114106   2.632   0.887   4.702  1.0830 -1.2002  1.2023
 4700TIP3    H214107   2.503   0.810   4.688 -1.9661  3.8735 -1.4728
 4701TIP3   OH214108   3.356   4.935   0.104 -0.4932 -0.2677  0.2939
 4701TIP3    H114109   3.371   5.026   0.076 -1.3049  0.0369  0.8103
 4701TIP3    H214110   3.265   4.918   0.080 -0.3972 -0.8868  0.3662
 4702TIP3   OH214111   3.518   4.255   4.356 -0.1598 -0.7703  0.1205
 4702TIP3    H114112   3.437   4.211   4.381 -1.2258 -0.4018 -2.4274
 4702TIP3    H214113   3.491   4.320   4.291  1.9213  0.8354  0.7363
 4703TIP3   OH214114   3.610   3.113   3.579  0.3413  0.2511 -0.0844
 4703TIP3    H114115   3.524   3.146   3.553  0.2539  0.7767  0.8074
 4703TIP3    H214116   3.646   3.182   3.634  0.8510 -0.4499  0.4834
 4704TIP3   OH214117   2.647   0.304   3.756 -0.5997  0.8751  0.0039
 4704TIP3    H114118   2.701   0.226   3.770 -1.2455  0.8888  3.3175
 4704TIP3    H214119   2.694   0.374   3.801 -2.4922  1.2076  1.6084
 4705TIP3   OH214120   4.933   1.875   2.130  0.2491 -0.2323  0.1223
 4705TIP3    H114121   5.008   1.870   2.069  0.9345  1.1082  0.8060
 4705TIP3    H214122   4.891   1.958   2.108  1.1505  0.8251  2.1412
 4706TIP3   OH214123   5.911   4.106   5.014 -0.0679  0.2812  0.7459
 4706TIP3    H114124   5.953   4.165   5.078  0.6705  0.5984 -0.0076
 4706TIP3    H214125   5.837   4.069   5.061  0.2953  0.7234  1.7023
 4707TIP3   OH214126   0.956   1.188   1.936 -0.7465 -0.5175  0.3551
 4707TIP3    H114127   0.991   1.213   2.022 -1.1700 -0.9411  0.6564
 4707TIP3    H214128   0.922   1.270   1.899 -0.2901 -0.2765  0.4572
 4708TIP3   OH214129   2.305   5.800   3.898  0.3227  0.4459  0.0975
 4708TIP3    H114130   2.260   5.822   3.817 -0.0328  1.1259  0.4717
 4708TIP3    H214131   2.235   5.790   3.962  0.5027 -1.2273  0.0907
 4709TIP3   OH214132   6.075   1.049   1.641 -0.1597  0.0619  0.0019
 4709TIP3    H114133   6.028   1.128   1.669 -0.0185  0.9490 -2.0905
 4709TIP3    H214134   6.065   0.989   1.715 -2.3260  1.1517  0.7169
 4710TIP3   OH214135   1.600   2.033   4.122 -0.8790 -0.1632 -0.5982
 4710TIP3    H114136   1.517   1.997   4.092 -0.0030 -2.4118 -0.5146
 4710TIP3    H214137   1.660   1.959   4.121  0.8765  1.1682  0.3340
 4711TIP3   OH214138   4.867   3.511   4.707  0.1452 -0.2551  0.3056
 4711TIP3    H114139   4.884   3.604   4.691  1.1578 -0.5153 -0.2640
 4711TIP3    H214140   4.952   3.476   4.734 -0.3323 -0.9320  0.9712
 4712TIP3   OH214141   4.458   4.879   2.030 -0.5909  0.2819 -0.0324
 4712TIP3    H114142   4.491   4.878   1.940 -1.3450 -0.6086 -0.3244
 4712TIP3    H214143   4.535   4.865   2.084  0.0183  1.7718 -0.4699
 4713TIP3   OH214144   0.584   4.812   3.948  0.1002  0.1662  0.6378
 4713TIP3    H114145   0.631   4.737   3.984 -0.9665  0.0620  1.8821
 4713TIP3    H214146   0.500   4.777   3.918  0.6094  0.4159 -1.2427
 4714TIP3   OH214147   2.309   0.666   0.931  0.1362 -0.0476  0.0770
 4714TIP3    H114148   2.404   0.666   0.923  0.1225  0.9345 -0.1351
 4714TIP3    H214149   2.277   0.644   0.844  0.1581  0.8136 -0.1577
 4715TIP3   OH214150   4.299   4.479   2.653  0.0534  0.2945 -0.4220
 4715TIP3    H114151   4.271   4.400   2.606 -0.2395  0.4600 -0.5265
 4715TIP3    H214152   4.382   4.454   2.693 -0.5344 -0.4038  0.3981
 4716TIP3   OH214153   1.393   2.321   4.446 -0.3165 -0.0209  0.4895
 4716TIP3    H114154   1.316   2.377   4.453  0.1401  0.6422  0.2110
 4716TIP3    H214155   1.468   2.381   4.449  0.1486 -0.4941 -0.9043
 4717TIP3   OH214156   5.375   5.937   2.196  0.2903 -0.5550 -0.1260
 4717TIP3    H114157   5.420   5.876   2.256  0.5006  0.6276  0.9563
 4717TIP3    H214158   5.445   5.973   2.142  0.6275  0.8084  1.1357
 4718TIP3   OH214159   0.673   4.462   0.754  0.6964  0.5944  0.0081
 4718TIP3    H114160   0.584   4.427   0.762  0.1264  2.2732  1.7264
 4718TIP3    H214161   0.664   4.540   0.700  1.2338  0.4681 -0.2773
 4719TIP3   OH214162   2.188   4.535   1.911 -0.0227  0.6415 -0.1879
 4719TIP3    H114163   2.258   4.543   1.846 -0.1726 -0.1663 -0.4646
 4719TIP3    H214164   2.206   4.604   1.975  0.4236  1.1107 -0.8127
 4720TIP3   OH214165   5.272   5.136   5.090  0.0344  0.2346 -0.0803
 4720TIP3    H114166   5.361   5.102   5.076 -0.5736 -2.3310  1.6390
 4720TIP3    H214167   5.240   5.154   5.002  2.2698  1.4004 -0.7408
 4721TIP3   OH214168   4.452   5.243   3.700 -0.6709  0.6635 -0.0256
 4721TIP3    H114169   4.516   5.173   3.689 -0.4354  0.8408  0.2217
 4721TIP3    H214170   4.432   5.243   3.794  0.8705  2.2678  0.3597
 4722TIP3   OH214171   0.451   0.834   1.701 -0.0934 -0.2269 -0.4374
 4722TIP3    H114172   0.473   0.775   1.773 -1.9208 -2.0458 -1.2633
 4722TIP3    H214173   0.530   0.835   1.647  0.9160  0.2915  0.9749
 4723TIP3   OH214174   5.072   1.269   0.747 -0.0244  0.5441 -0.5846
 4723TIP3    H114175   5.016   1.345   0.727  1.4425  1.6182 -0.7844
 4723TIP3    H214176   5.154   1.308   0.777  0.4710 -0.9970  0.1330
 4724TIP3   OH214177   5.006   0.963   3.392 -0.6675  0.1980  0.0743
 4724TIP3    H114178   5.102   0.968   3.398 -0.7426  0.8892  0.9173
 4724TIP3    H214179   4.990   0.904   3.319  0.4199 -2.6101  1.9022
 4725TIP3   OH214180   4.650   2.780   1.643  0.1150 -0.3277  0.2627
 4725TIP3    H114181   4.661   2.713   1.710 -0.5182 -1.8136 -1.0537
 4725TIP3    H214182   4.557   2.804   1.648  0.1458 -0.1858  0.1617
 4726TIP3   OH214183   5.687   0.606   4.320 -0.7161  0.1393  0.0144
 4726TIP3    H114184   5.706   0.623   4.412 -1.4238 -1.0304  0.3932
 4726TIP3    H214185   5.762   0.554   4.290 -0.3707  0.7205 -0.1406
 4727TIP3   OH214186   5.797   5.204   3.004 -0.5069  0.1694 -0.2688
 4727TIP3    H114187   5.835   5.281   3.045  0.5876  0.4123 -1.6855
 4727TIP3    H214188   5.714   5.235   2.967  0.3158  0.8966 -1.5554
 4728TIP3   OH214189   2.631   5.917   1.998 -0.1926 -0.6083  0.0270
 4728TIP3    H114190   2.648   5.921   1.904  0.7042  1.5377  0.2048
 4728TIP3    H214191   2.686   5.845   2.029 -0.4425 -1.2899 -1.0850
 4729TIP3   OH214192   1.604   5.054   4.556  0.0210 -0.2084  0.0003
 4729TIP3    H114193   1.692   5.058   4.595 -0.7793  0.1907  1.8663
 4729TIP3    H214194   1.575   4.964   4.569  0.3854 -0.5167 -1.2109
 4730TIP3   OH214195   0.828   4.367   2.142  0.3562  0.4146 -0.2336
 4730TIP3    H114196   0.800   4.351   2.232 -1.6346 -0.6228 -0.9640
 4730TIP3    H214197   0.800   4.456   2.123 -0.7774  0.0555 -0.3279
 4731TIP3   OH214198   5.754   3.717   0.087 -0.2555  0.2460 -0.3351
 4731TIP3    H114199   5.779   3.810   0.082  0.4273  0.0808 -0.0846
 4731TIP3    H214200   5.769   3.684  -0.002 -0.2860  0.3258 -0.3700
 4732TIP3   OH214201   6.296   5.849   2.556  0.5320 -0.3344 -0.0868
 4732TIP3    H114202   6.372   5.906   2.546  1.1890 -1.3064 -0.8827
 4732TIP3    H214203   6.292   5.828   2.649  0.5867  0.5859  0.1274
 4733TIP3   OH214204   3.778   5.532   4.457 -0.0828  0.5214 -0.3607
 4733TIP3    H114205   3.727   5.451   4.443 -0.5034  0.8190 -0.5926
 4733TIP3    H214206   3.724   5.584   4.516  0.0515  0.7528 -0.4412
 4734TIP3   OH214207   5.981   2.679   3.744 -0.4879 -0.0240  0.0458
 4734TIP3    H114208   6.017   2.671   3.655 -0.5283  0.0605  0.0212
 4734TIP3    H214209   5.938   2.596   3.760  0.2091 -0.3435  0.2949
 4735TIP3   OH214210   3.655   1.993   4.644 -0.1419  0.3973 -0.8637
 4735TIP3    H114211   3.575   1.994   4.696  0.1514 -0.5498 -0.3733
 4735TIP3    H214212   3.725   1.995   4.709  0.2262 -0.1429 -1.2333
 4736TIP3   OH214213   2.515   1.848   4.134 -0.0201  0.1817 -0.0225
 4736TIP3    H114214   2.494   1.941   4.137  1.4197  0.5646 -0.7923
 4736TIP3    H214215   2.508   1.825   4.041 -0.3944 -0.5046  0.1653
 4737TIP3   OH214216   2.938   3.165   2.093 -0.6758 -0.1363 -0.1870
 4737TIP3    H114217   2.958   3.258   2.092  1.5177 -0.4101  3.0093
 4737TIP3    H214218   2.935   3.142   2.186  0.3958 -3.5353 -0.8651
 4738TIP3   OH214219   3.144   5.420   2.509 -0.3067  0.3505 -0.0200
 4738TIP3    H114220   3.178   5.338   2.545 -0.0784  0.6452  0.4397
 4738TIP3    H214221   3.206   5.444   2.440  0.6679  1.0995  1.0838
 4739TIP3   OH214222   5.129   5.568   2.364  0.3858 -0.0447  0.4957
 4739TIP3    H114223   5.141   5.662   2.379  0.2725 -0.0334  0.5174
 4739TIP3    H214224   5.198   5.526   2.417  2.5214  0.1368 -1.9489
 4740TIP3   OH214225   0.123   2.536   2.056  0.1272 -0.1312  0.0630
 4740TIP3    H114226   0.178   2.478   2.004 -2.4231 -0.7574 -2.1347
 4740TIP3    H214227   0.045   2.485   2.076  0.7808  0.1743  4.4448
 4741TIP3   OH214228   3.404   5.482   3.855 -0.0456  0.0640  0.7124
 4741TIP3    H114229   3.392   5.410   3.793 -0.2401  0.3873  0.3666
 4741TIP3    H214230   3.498   5.489   3.865  0.1294  1.4325 -1.2807
 4742TIP3   OH214231   4.410   1.975   4.226  0.5076  0.7416  0.0931
 4742TIP3    H114232   4.460   1.964   4.307 -1.8928 -0.9699  1.4783
 4742TIP3    H214233   4.353   2.049   4.242 -0.2467  0.1611  0.1400
 4743TIP3   OH214234   2.178   3.635   1.639  0.1256 -0.0165  0.1335
 4743TIP3    H114235   2.161   3.720   1.679  0.3383 -0.0824  0.3711
 4743TIP3    H214236   2.223   3.654   1.557 -1.2310  0.1729 -0.6069
 4744TIP3   OH214237   0.725   3.034   5.049 -0.4257 -0.1863 -0.2677
 4744TIP3    H114238   0.635   3.050   5.020  0.0076  0.6787 -1.1834
 4744TIP3    H214239   0.750   2.953   5.004 -1.3097 -1.3914  1.3392
 4745TIP3   OH214240   3.100   5.803   2.321  0.4450 -0.0242 -0.6506
 4745TIP3    H114241   3.164   5.760   2.265  0.6351 -0.3839 -0.1625
 4745TIP3    H214242   3.152   5.849   2.387  0.2638  1.3190 -1.4046
 4746TIP3   OH214243   1.677   2.096   2.323 -0.1150 -0.0995  0.6173
 4746TIP3    H114244   1.593   2.068   2.287  1.1331 -1.1400 -1.7055
 4746TIP3    H214245   1.678   2.191   2.311  0.0011 -0.3353 -1.7816
 4747TIP3   OH214246   2.070   1.960   2.135  0.2412  0.1622 -0.8626
 4747TIP3    H114247   2.007   1.994   2.072  0.7165 -0.7994 -1.8826
 4747TIP3    H214248   2.140   2.026   2.137 -0.1792  0.6117 -0.6731
 4748TIP3   OH214249   2.048   1.524   4.431 -0.1975  0.1201 -1.1671
 4748TIP3    H114250   2.055   1.483   4.345  0.2064 -0.8103 -0.6964
 4748TIP3    H214251   2.075   1.457   4.493 -2.8596 -0.0816 -0.0842
 4749TIP3   OH214252   1.210   1.897   1.431 -0.1936  0.6784  0.0940
 4749TIP3    H114253   1.296   1.917   1.467  0.1725  1.5779 -1.2179
 4749TIP3    H214254   1.152   1.962   1.470 -0.2846  0.1107  0.9306
 4750TIP3   OH214255   5.508   0.607   2.171  0.0773 -0.1120  0.3283
 4750TIP3    H114256   5.427   0.625   2.217  0.5713  0.6673  0.9283
 4750TIP3    H214257   5.547   0.533   2.217 -0.0817 -0.2128  0.3025
 4751TIP3   OH214258   5.824   1.773   4.712  0.1846  0.1171  0.2760
 4751TIP3    H114259   5.800   1.803   4.800 -0.4897 -2.0253  0.8908
 4751TIP3    H214260   5.742   1.746   4.672  0.5655  0.5125 -0.8198
 4752TIP3   OH214261   2.355   5.167   3.149  0.3022  0.2826 -0.3808
 4752TIP3    H114262   2.346   5.241   3.089 -0.4707  0.4272 -0.0957
 4752TIP3    H214263   2.294   5.186   3.219  1.3028  0.1869  0.5402
 4753TIP3   OH214264   1.631   1.139   2.172 -0.4759 -0.5515 -0.1004
 4753TIP3    H114265   1.671   1.226   2.170  0.8711 -1.1386 -0.8241
 4753TIP3    H214266   1.641   1.110   2.263 -0.5554 -0.1090  0.0513
 4754TIP3   OH214267   1.811   2.409   3.542  0.6674  0.0078 -0.0795
 4754TIP3    H114268   1.868   2.338   3.571  0.5195  0.0262  0.2669
 4754TIP3    H214269   1.733   2.366   3.509 -0.5232  0.0295  2.4554
 4755TIP3   OH214270   3.554   0.817   1.236  0.5978  0.1342 -0.0238
 4755TIP3    H114271   3.548   0.736   1.287  0.0633 -0.3720 -0.8696
 4755TIP3    H214272   3.474   0.865   1.258 -0.6699 -1.0116 -1.8966
 4756TIP3   OH214273   2.463   1.883   3.584  0.4300  0.0899 -0.0632
 4756TIP3    H114274   2.434   1.804   3.539  0.4618 -0.2185  0.4453
 4756TIP3    H214275   2.538   1.914   3.534  0.0661  0.1187 -0.5920
 4757TIP3   OH214276   0.641   5.144   0.509  0.4735 -1.1046  0.1159
 4757TIP3    H114277   0.564   5.161   0.562  1.3679  2.1334  0.6241
 4757TIP3    H214278   0.702   5.100   0.568  0.9339  1.2156  1.5337
 4758TIP3   OH214279   4.085   5.156   4.398  0.7395 -0.0511  0.2370
 4758TIP3    H114280   4.168   5.192   4.366  1.0916  0.0718  1.2410
 4758TIP3    H214281   4.020   5.183   4.333  1.2021  1.3385  0.3152
 4759TIP3   OH214282   4.221   3.891   3.276  0.5644 -0.4023 -0.3731
 4759TIP3    H114283   4.307   3.910   3.238  0.3584 -1.2778 -1.3329
 4759TIP3    H214284   4.160   3.902   3.203 -0.0842 -0.2787  0.1758
 4760TIP3   OH214285   4.518   0.082   2.131 -0.3337 -0.4076 -0.1433
 4760TIP3    H114286   4.573   0.158   2.149 -1.0422 -0.2074  1.3032
 4760TIP3    H214287   4.580   0.013   2.104  0.5352  0.0540  0.6148
 4761TIP3   OH214288   1.067   1.323   1.668  0.0307 -0.4321 -0.4635
 4761TIP3    H114289   1.120   1.295   1.742 -0.0152 -2.4631 -1.1399
 4761TIP3    H214290   0.990   1.364   1.709  1.8924  2.3761  0.5234
 4762TIP3   OH214291   1.152   5.631   5.089  0.3832  0.0877 -0.0933
 4762TIP3    H114292   1.215   5.632   5.017  0.4961 -0.3216 -0.0040
 4762TIP3    H214293   1.104   5.713   5.081  1.8317  1.0362  0.6440
 4763TIP3   OH214294   5.262   4.140   1.718  0.1110  0.5171  0.0598
 4763TIP3    H114295   5.258   4.079   1.791  1.2776 -0.0180 -0.2924
 4763TIP3    H214296   5.260   4.226   1.759  2.2023  0.2394  0.8771
 4764TIP3   OH214297   3.245   5.535   0.948  0.2810  1.0092 -0.3912
 4764TIP3    H114298   3.323   5.590   0.950  0.5296  0.6835 -1.1505
 4764TIP3    H214299   3.276   5.447   0.928  0.0206  0.3077  2.0152
 4765TIP3   OH214300   0.158   0.207   3.607 -0.1367  0.2355 -0.4757
 4765TIP3    H114301   0.215   0.185   3.533  1.7341 -0.9185  1.2149
 4765TIP3    H214302   0.107   0.127   3.622  2.1311 -0.9390  1.6895
 4766TIP3   OH214303   2.640   1.596   2.922  0.1142  0.2520  0.5013
 4766TIP3    H114304   2.619   1.587   2.829 -0.9089  0.6148  0.6882
 4766TIP3    H214305   2.718   1.541   2.935  0.3751  0.3521 -0.6025
 4767TIP3   OH214306   0.191   3.115   0.813  0.1377  0.1392 -0.1305
 4767TIP3    H114307   0.282   3.130   0.788  0.8789  0.4648  2.5013
 4767TIP3    H214308   0.160   3.049   0.751  2.4288 -0.6143 -0.5752
 4768TIP3   OH214309   2.738   2.836   4.053 -0.1512  0.2184 -0.0581
 4768TIP3    H114310   2.662   2.892   4.064 -0.3997 -0.3887  1.5865
 4768TIP3    H214311   2.714   2.753   4.094  1.7129  0.3387  1.4600
 4769TIP3   OH214312   3.586   3.874   4.731 -0.1683  0.6848  0.0208
 4769TIP3    H114313   3.501   3.861   4.773 -1.3006 -1.0825 -2.5294
 4769TIP3    H214314   3.570   3.942   4.665  0.5353  0.7430 -0.0991
 4770TIP3   OH214315   5.890   1.658   3.577 -1.3122  0.0347  0.1083
 4770TIP3    H114316   5.862   1.568   3.562  0.3876 -0.3638 -0.9679
 4770TIP3    H214317   5.876   1.701   3.493 -1.6566  0.6549  0.4796
 4771TIP3   OH214318   4.263   1.150   4.692  1.0490  0.0596  0.3593
 4771TIP3    H114319   4.258   1.204   4.771  1.1761 -0.3579  0.6618
 4771TIP3    H214320   4.246   1.061   4.724  0.9776 -0.0950 -0.1061
 4772TIP3   OH214321   0.371   0.022   4.406 -0.3192 -0.1057  0.6338
 4772TIP3    H114322   0.388   0.082   4.333  0.2280 -0.1586  0.7087
 4772TIP3    H214323   0.281  -0.008   4.392  0.6630 -2.3875 -1.6961
 4773TIP3   OH214324   0.599   3.357   3.426 -0.0262 -0.2282  0.4874
 4773TIP3    H114325   0.548   3.417   3.481  1.6569 -0.5503  2.5532
 4773TIP3    H214326   0.587   3.272   3.468  0.8478 -0.6026 -0.0032
 4774TIP3   OH214327   5.819   0.780   0.375 -0.1419  0.5321  0.2855
 4774TIP3    H114328   5.808   0.760   0.282  1.3276 -1.4508  0.4657
 4774TIP3    H214329   5.791   0.871   0.384 -0.6471  0.6601 -2.0155
 4775TIP3   OH214330   1.354   4.344   0.743 -0.1593  0.3779  0.5226
 4775TIP3    H114331   1.389   4.430   0.720 -0.4005  0.4754  0.5158
 4775TIP3    H214332   1.266   4.362   0.776 -1.3366 -0.0917 -2.0783
 4776TIP3   OH214333   0.208   5.353   3.664  0.0204  0.5422  0.1276
 4776TIP3    H114334   0.240   5.301   3.737  1.2510  1.5590  0.3443
 4776TIP3    H214335   0.282   5.408   3.639 -1.7029  3.6452  1.2217
 4777TIP3   OH214336   6.115   5.217   4.254  0.3664  0.7220 -0.2720
 4777TIP3    H114337   6.158   5.149   4.305  0.5224 -0.4016 -1.8186
 4777TIP3    H214338   6.187   5.264   4.211  0.1807 -0.2583 -1.7491
 4778TIP3   OH214339   5.337   4.034   4.932  0.4504 -0.1862 -0.9478
 4778TIP3    H114340   5.409   4.094   4.949 -0.0426  0.1901 -0.1699
 4778TIP3    H214341   5.356   3.957   4.986 -0.2466  0.3251  0.0399
 4779TIP3   OH214342   5.473   2.435   1.664  0.0261 -0.4747  0.1336
 4779TIP3    H114343   5.416   2.507   1.639  0.4320  0.3037  1.3699
 4779TIP3    H214344   5.529   2.421   1.587 -1.5783 -1.0585 -0.9895
 4780TIP3   OH214345   0.107   0.964   0.458 -0.2010  0.7987  0.0526
 4780TIP3    H114346   0.181   0.977   0.400 -0.1452  0.5519  0.0664
 4780TIP3    H214347   0.045   1.033   0.435 -0.4049  0.3947 -0.6574
 4781TIP3   OH214348   0.106   3.352   1.608  0.3882 -0.3601 -0.0448
 4781TIP3    H114349   0.181   3.347   1.549  1.3055  2.6336  0.6488
 4781TIP3    H214350   0.052   3.276   1.586  1.6922 -0.5109 -3.2700
 4782TIP3   OH214351   0.441   3.704   1.892  0.3075 -0.3398  0.0999
 4782TIP3    H114352   0.404   3.782   1.850  1.1162  0.7930  1.3890
 4782TIP3    H214353   0.443   3.638   1.823 -0.4695  0.7566 -1.0187
 4783TIP3   OH214354   2.651   3.580   3.515  0.6384 -0.0074  0.4179
 4783TIP3    H114355   2.580   3.547   3.570 -0.1853  1.6055  0.3570
 4783TIP3    H214356   2.608   3.608   3.434  1.4699  0.1730  0.0235
 4784TIP3   OH214357   2.680   4.532   1.949 -0.3240 -0.0783 -0.1553
 4784TIP3    H114358   2.718   4.616   1.975 -1.2129 -0.0481  1.1541
 4784TIP3    H214359   2.713   4.470   2.015 -0.0362 -0.6733 -0.8497
 4785TIP3   OH214360   4.515   4.594   2.871 -0.1585  0.0458  0.0652
 4785TIP3    H114361   4.446   4.597   2.938  0.3635 -0.8928  0.6653
 4785TIP3    H214362   4.583   4.540   2.910 -0.4253 -1.7103 -1.7856
 4786TIP3   OH214363   5.657   4.416   1.575  0.1341  0.2880 -0.3979
 4786TIP3    H114364   5.660   4.504   1.538 -2.7395  0.3182 -0.8023
 4786TIP3    H214365   5.606   4.366   1.512 -0.4330 -1.0017  1.0360
 4787TIP3   OH214366   0.747   3.322   4.990  0.3616  0.1799  0.5682
 4787TIP3    H114367   0.687   3.301   4.918  0.4290  0.9955  0.2560
 4787TIP3    H214368   0.698   3.302   5.069 -0.7039  1.7118  0.3431
 4788TIP3   OH214369   1.558   5.774   2.906 -0.0668 -0.6092 -0.4315
 4788TIP3    H114370   1.498   5.708   2.939  0.7337 -0.5432  1.2575
 4788TIP3    H214371   1.525   5.857   2.941  2.1724 -0.8043  2.4678
 4789TIP3   OH214372   2.253   3.184   4.943 -0.5412 -0.1408  0.2942
 4789TIP3    H114373   2.211   3.249   4.999  1.4631  1.8584 -0.3761
 4789TIP3    H214374   2.334   3.161   4.989  0.0886 -0.0828 -0.7486
 4790TIP3   OH214375   4.698   4.692   5.008  0.6838 -0.2989  0.2277
 4790TIP3    H114376   4.741   4.633   4.946 -0.6525 -1.0281 -0.0427
 4790TIP3    H214377   4.719   4.780   4.976 -0.8311 -0.6432 -1.9309
 4791TIP3   OH214378   1.925   0.215   3.508 -0.0727 -0.0373 -0.0455
 4791TIP3    H114379   1.964   0.139   3.466 -0.6603  0.5290 -1.6655
 4791TIP3    H214380   1.987   0.286   3.491  0.0859  0.0439  0.7845
 4792TIP3   OH214381   1.972   3.577   4.938  0.5394  0.6488  0.2077
 4792TIP3    H114382   1.999   3.516   5.006  0.2328  0.8367  0.5018
 4792TIP3    H214383   1.881   3.554   4.921  1.1969 -0.8221 -1.6736
 4793TIP3   OH214384   5.699   2.095   1.781 -0.1700 -0.3689 -0.1838
 4793TIP3    H114385   5.606   2.119   1.789  0.3998  2.4811 -1.1115
 4793TIP3    H214386   5.744   2.151   1.844  1.1725  0.3168 -1.6789
 4794TIP3   OH214387   0.962   5.814   4.965  0.0469  0.3157 -0.0691
 4794TIP3    H114388   0.871   5.842   4.957  0.0901  1.4784  2.4393
 4794TIP3    H214389   0.983   5.774   4.880 -2.5212  0.7394 -0.9868
 4795TIP3   OH214390   4.440   0.183   0.722  0.2422 -0.3493 -0.3725
 4795TIP3    H114391   4.532   0.178   0.750  0.0380 -0.1789  0.3286
 4795TIP3    H214392   4.392   0.211   0.800 -0.5784 -1.6331 -0.3865
 4796TIP3   OH214393   5.966   4.805   2.268  0.9667 -0.1669 -0.1870
 4796TIP3    H114394   5.979   4.734   2.330 -2.0662 -0.7156 -0.0136
 4796TIP3    H214395   5.908   4.866   2.314 -0.7386 -0.2120 -2.1339
 4797TIP3   OH214396   1.273   0.177   4.210  0.2722 -0.6424  0.3490
 4797TIP3    H114397   1.201   0.193   4.272  1.4754  2.1618  1.1771
 4797TIP3    H214398   1.351   0.170   4.265  0.9431 -1.6357 -0.6718
 4798TIP3   OH214399   2.874   3.143   4.905  0.4265 -0.2074 -0.1111
 4798TIP3    H114400   2.787   3.162   4.940 -0.5352  0.7555 -2.8535
 4798TIP3    H214401   2.864   3.058   4.861  0.8407 -0.0166 -0.5763
 4799TIP3   OH214402   4.659   4.685   2.479 -0.3170 -0.3405  0.2318
 4799TIP3    H114403   4.613   4.769   2.484  0.3976  0.0145  0.9482
 4799TIP3    H214404   4.752   4.708   2.475  0.0540 -1.1010  2.8145
 4800TIP3   OH214405   0.048   4.779   1.667  0.1451  0.1182  0.0119
 4800TIP3    H114406  -0.042   4.749   1.657 -0.0196  0.4616  0.3861
 4800TIP3    H214407   0.102   4.706   1.639 -0.2527  0.2433 -1.1215
 4801TIP3   OH214408   2.767   1.464   4.318 -0.0080  0.2739 -0.7270
 4801TIP3    H114409   2.687   1.500   4.357  0.8532 -0.6774  2.1685
 4801TIP3    H214410   2.737   1.388   4.268 -0.9452 -0.0097  0.2339
 4802TIP3   OH214411   6.002   5.886   1.307 -0.2192  0.3614  0.4383
 4802TIP3    H114412   6.029   5.974   1.282 -0.2015  0.4897  0.9137
 4802TIP3    H214413   6.074   5.852   1.359 -0.2393  0.0743  0.2813
 4803TIP3   OH214414   4.621   5.480   3.617  0.1970 -0.3518 -0.5970
 4803TIP3    H114415   4.614   5.385   3.604  0.3719 -0.5017  0.2829
 4803TIP3    H214416   4.531   5.510   3.619  0.0980 -0.6559  0.0570
 4804TIP3   OH214417   4.087   2.500   4.790 -0.4008 -0.0691 -0.5535
 4804TIP3    H114418   4.025   2.562   4.751  0.4195 -0.0352 -1.8430
 4804TIP3    H214419   4.073   2.418   4.743 -1.0821 -0.7374  0.7587
 4805TIP3   OH214420   5.055   3.180   4.741  0.0733 -0.5305 -0.6102
 4805TIP3    H114421   4.964   3.151   4.737 -0.1606  0.0308  0.2130
 4805TIP3    H214422   5.107   3.101   4.728 -0.5320 -1.4807  2.0493
 4806TIP3   OH214423   0.965   4.890   1.093  0.0141  0.3391  0.1605
 4806TIP3    H114424   0.972   4.841   1.010 -1.1578 -0.6777  0.6197
 4806TIP3    H214425   1.051   4.929   1.105  0.2619  0.3905 -1.4643
 4807TIP3   OH214426   4.943   4.411   4.995 -0.7895  0.3605  0.4318
 4807TIP3    H114427   4.892   4.332   5.014 -1.9004  1.3761  1.9501
 4807TIP3    H214428   5.017   4.408   5.056 -0.5864  0.2688  0.1807
 4808TIP3   OH214429   6.278   4.022   0.183  0.5471  0.4709  0.1426
 4808TIP3    H114430   6.207   3.962   0.159  1.3664 -0.2778 -0.5380
 4808TIP3    H214431   6.250   4.062   0.264 -0.6473  0.1838 -0.1091
 4809TIP3   OH214432   0.785   3.954   3.613  0.0907  0.6384  0.3784
 4809TIP3    H114433   0.836   3.875   3.630  0.4388 -0.7710 -5.3625
 4809TIP3    H214434   0.847   4.014   3.573 -1.0408  2.3718  1.1219
 4810TIP3   OH214435   3.616   3.797   2.538  0.1950  0.0099 -0.5839
 4810TIP3    H114436   3.592   3.704   2.530  2.3440 -0.7123  0.5284
 4810TIP3    H214437   3.561   3.841   2.474  0.2941 -2.2558 -2.3748
 4811TIP3   OH214438   4.636   2.574   4.261  0.0627 -0.2122  0.1275
 4811TIP3    H114439   4.710   2.541   4.312  1.1971  1.5888 -0.2257
 4811TIP3    H214440   4.663   2.662   4.235 -0.7862 -0.7566 -2.9357
 4812TIP3   OH214441   4.963   2.881   1.109 -0.1606 -0.3837 -0.1157
 4812TIP3    H114442   4.975   2.812   1.175  0.8155 -1.2798 -1.1942
 4812TIP3    H214443   5.002   2.845   1.029 -2.0424  0.3399 -1.4281
 4813TIP3   OH214444   4.087   3.222   0.151 -0.1590  0.3672  0.0944
 4813TIP3    H114445   4.126   3.160   0.088 -0.5486  0.4918 -0.2790
 4813TIP3    H214446   4.045   3.288   0.096 -0.8395  0.2704  0.4803
 4814TIP3   OH214447   4.729   2.307   0.640 -0.3098  0.0698 -0.3786
 4814TIP3    H114448   4.751   2.286   0.549  0.6698 -2.3197  0.3344
 4814TIP3    H214449   4.764   2.234   0.691 -0.6167  1.4555  1.9742
 4815TIP3   OH214450   6.184   5.897   1.539 -0.3818  0.4951 -0.1144
 4815TIP3    H114451   6.253   5.963   1.536 -0.7205  0.8416 -0.4116
 4815TIP3    H214452   6.224   5.823   1.584  0.8931 -0.1496 -2.1584
 4816TIP3   OH214453   0.230   0.083   0.698  0.5012 -0.4479 -0.1887
 4816TIP3    H114454   0.215   0.158   0.756 -0.2838 -0.2319 -0.6564
 4816TIP3    H214455   0.175   0.100   0.622  1.8633 -0.4877 -1.2344
 4817TIP3   OH214456   6.204   2.646   1.114 -0.0136  0.1473  0.2869
 4817TIP3    H114457   6.220   2.696   1.034 -0.4766  0.5407  0.4328
 4817TIP3    H214458   6.124   2.684   1.150 -1.3880 -1.8800 -0.4980
 4818TIP3   OH214459   4.121   0.535   3.366 -0.1257  0.0354  0.6535
 4818TIP3    H114460   4.175   0.570   3.437  0.0997  0.3044  0.3517
 4818TIP3    H214461   4.033   0.566   3.385  0.0792  0.8140  0.3639
 4819TIP3   OH214462   3.781   5.542   3.292 -0.0671 -0.4975  0.2741
 4819TIP3    H114463   3.776   5.623   3.240 -0.7546 -1.2945 -0.9563
 4819TIP3    H214464   3.812   5.571   3.378  1.3328  0.8344 -0.6301
 4820TIP3   OH214465   4.051   1.253   1.868 -0.5525 -0.1707  0.0768
 4820TIP3    H114466   4.116   1.237   1.937  1.1473  1.1118 -1.1364
 4820TIP3    H214467   4.007   1.170   1.857 -0.6287 -0.5091  2.4509
 4821TIP3   OH214468   1.805   5.789   5.136  0.1349  0.0323 -0.3277
 4821TIP3    H114469   1.747   5.863   5.115 -1.0813 -0.2114  1.8264
 4821TIP3    H214470   1.748   5.712   5.131  0.1266 -0.1980  2.0110
 4822TIP3   OH214471   0.400   2.871   3.320  0.0073  0.2219  0.3620
 4822TIP3    H114472   0.356   2.939   3.269  0.1805  0.6178  0.7324
 4822TIP3    H214473   0.401   2.794   3.263  4.7705  1.9508 -2.4814
 4823TIP3   OH214474   0.977   5.950   2.826 -0.4369  0.1487 -0.4792
 4823TIP3    H114475   0.940   5.880   2.880 -1.4003 -1.0203 -2.5656
 4823TIP3    H214476   0.921   5.953   2.748  0.0319  2.7569 -0.8100
 4824TIP3   OH214477   3.904   1.109   1.559  0.2442  0.2618 -0.2708
 4824TIP3    H114478   3.879   1.028   1.516 -0.1981  0.2782 -0.0467
 4824TIP3    H214479   3.998   1.118   1.542  0.5012 -0.7955  0.5252
 4825TIP3   OH214480   2.260   2.888   5.098  0.1482 -0.2662 -0.3069
 4825TIP3    H114481   2.318   2.963   5.088  1.1677 -1.2548 -2.3634
 4825TIP3    H214482   2.291   2.845   5.178  0.9636  0.2801 -0.3148
 4826TIP3   OH214483   5.598   4.430   0.349  0.3158 -0.3610 -0.6126
 4826TIP3    H114484   5.563   4.508   0.307  1.7299 -0.2465 -1.6352
 4826TIP3    H214485   5.685   4.457   0.380  0.4299 -1.2577 -0.1292
 4827TIP3   OH214486   3.391   1.283   2.675 -0.5914 -0.0116 -0.0806
 4827TIP3    H114487   3.344   1.233   2.608 -1.5088  2.7611 -1.6383
 4827TIP3    H214488   3.323   1.314   2.734 -0.0357 -0.5161  0.8529
 4828TIP3   OH214489   5.889   2.199   2.115 -0.3503 -0.0731  0.4407
 4828TIP3    H114490   5.808   2.227   2.074 -0.6246 -1.6993 -0.2374
 4828TIP3    H214491   5.906   2.263   2.183 -2.0956  0.4057  0.4580
 4829TIP3   OH214492   2.083   1.857   1.559  0.0835 -0.0438 -0.4801
 4829TIP3    H114493   2.127   1.882   1.640 -0.5077 -1.2456  0.2360
 4829TIP3    H214494   2.002   1.909   1.559  0.2783  0.2617 -0.5122
 4830TIP3   OH214495   5.365   2.955   2.978  0.0726 -0.4028  0.1507
 4830TIP3    H114496   5.318   3.009   3.041 -1.3942  1.3091 -2.2198
 4830TIP3    H214497   5.453   2.992   2.975 -0.9386  2.1807 -1.5458
 4831TIP3   OH214498   6.185   1.608   0.333 -0.0158  0.1973  0.6251
 4831TIP3    H114499   6.230   1.667   0.393 -0.8394  0.3202  1.1471
 4831TIP3    H214500   6.128   1.665   0.281 -0.0242 -0.0157  0.3970
 4832TIP3   OH214501   0.122   4.401   1.840 -0.3860 -0.0008 -0.1568
 4832TIP3    H114502   0.185   4.472   1.829 -1.4407  1.0573  0.5024
 4832TIP3    H214503   0.037   4.444   1.846 -1.1997 -1.3923 -0.9906
 4833TIP3   OH214504   4.730   5.603   3.224  0.1759 -0.2581  0.3038
 4833TIP3    H114505   4.725   5.508   3.215  0.7579 -0.1814 -1.1536
 4833TIP3    H214506   4.778   5.617   3.305  0.2335 -1.2099  0.4510
 4834TIP3   OH214507   5.469   1.979   4.268 -0.1783 -0.6133  0.3146
 4834TIP3    H114508   5.386   1.947   4.304  0.3554 -2.0464  0.3606
 4834TIP3    H214509   5.518   2.010   4.345 -0.4425 -0.3172  0.3628
 4835TIP3   OH214510   1.140   2.976   4.090  0.2797 -0.1354 -0.1281
 4835TIP3    H114511   1.197   2.902   4.112 -0.4413 -0.5296  0.4653
 4835TIP3    H214512   1.162   2.997   3.999  0.4680 -1.1146 -0.3194
 4836TIP3   OH214513   0.524   3.078   3.445  0.0040  0.2024 -0.0249
 4836TIP3    H114514   0.488   3.026   3.373  1.4933 -1.3899  0.3241
 4836TIP3    H214515   0.451   3.087   3.507 -1.0066  0.7497 -1.2462
 4837TIP3   OH214516   0.868   2.207   0.437  0.2601  0.8049  0.4468
 4837TIP3    H114517   0.840   2.253   0.358 -0.2630 -0.3329 -0.0603
 4837TIP3    H214518   0.956   2.239   0.454  0.2106  1.3872 -0.3559
 4838TIP3   OH214519   0.611   4.496   0.151 -0.2824 -0.3348  0.4285
 4838TIP3    H114520   0.690   4.448   0.178 -1.0034 -1.7850  0.0497
 4838TIP3    H214521   0.552   4.490   0.226 -0.2336  0.3173  0.5242
 4839TIP3   OH214522   2.225   2.126   3.369 -0.7686 -0.1517 -0.5712
 4839TIP3    H114523   2.157   2.110   3.305 -1.7213 -1.3344  0.6874
 4839TIP3    H214524   2.181   2.173   3.440 -0.3227 -1.0331  0.3110
 4840TIP3   OH214525   4.658   5.594   2.910  0.4475 -0.6047 -0.2691
 4840TIP3    H114526   4.625   5.684   2.920 -1.3422 -1.3491  1.0843
 4840TIP3    H214527   4.749   5.605   2.882  0.1653  1.6187 -0.5120
 4841TIP3   OH214528   0.083   2.112   1.265 -1.0599 -0.3496  0.1412
 4841TIP3    H114529   0.101   2.042   1.328 -0.6853 -1.3506 -1.0390
 4841TIP3    H214530   0.016   2.076   1.207  0.1734 -0.3194 -1.3753
 4842TIP3   OH214531   0.180   0.278   0.164  0.1584 -0.4034  0.1816
 4842TIP3    H114532   0.123   0.252   0.236  1.0462 -2.0392  0.3392
 4842TIP3    H214533   0.226   0.355   0.197 -0.7404 -0.0666  0.6790
 4843TIP3   OH214534   5.374   3.309   2.119 -0.2386  0.0921 -0.4085
 4843TIP3    H114535   5.369   3.286   2.026  0.7816 -0.1141 -0.4195
 4843TIP3    H214536   5.448   3.369   2.126 -0.6966  0.6066  0.1834
 4844TIP3   OH214537   6.228   3.775   4.251  0.0225  0.0092  0.4156
 4844TIP3    H114538   6.292   3.808   4.187  1.1214  0.7940  1.8662
 4844TIP3    H214539   6.159   3.840   4.252 -0.2999 -0.3081 -0.3937
 4845TIP3   OH214540   5.577   0.873   5.071  0.3598  0.2515  0.2842
 4845TIP3    H114541   5.665   0.891   5.105  0.8419 -0.4993 -0.5132
 4845TIP3    H214542   5.591   0.854   4.978 -0.8847  2.0064 -0.3001
 4846TIP3   OH214543   3.450   5.661   2.961  0.1699 -0.5802 -0.4933
 4846TIP3    H114544   3.532   5.612   2.953  0.0950 -0.4671 -2.3494
 4846TIP3    H214545   3.402   5.640   2.881 -1.2431  0.0487  0.1660
 4847TIP3   OH214546   0.928   4.928   3.938  0.0397 -0.0190  0.2508
 4847TIP3    H114547   0.896   4.852   3.890  3.3012 -1.5933  0.2919
 4847TIP3    H214548   0.945   4.895   4.026  1.0113  0.8820  0.4192
 4848TIP3   OH214549   5.079   1.177   0.489  0.0116  0.7886 -0.0830
 4848TIP3    H114550   5.157   1.220   0.454  0.6301 -0.7056 -0.5857
 4848TIP3    H214551   5.072   1.210   0.579  1.7769  0.2460  0.2833
 4849TIP3   OH214552   2.191   1.782   3.968 -0.9734  0.0608 -0.0291
 4849TIP3    H114553   2.189   1.693   3.933  0.5674 -0.6582  1.5564
 4849TIP3    H214554   2.233   1.834   3.901  0.7103 -1.0127  0.1288
 4850TIP3   OH214555   4.510   5.652   2.587  0.5387  0.3877  0.2474
 4850TIP3    H114556   4.593   5.676   2.628  1.7077 -1.2425 -1.0514
 4850TIP3    H214557   4.504   5.708   2.510 -0.3743  1.5866  1.1405
 4851TIP3   OH214558   1.474   2.538   0.146  0.1264 -0.7435  0.2421
 4851TIP3    H114559   1.384   2.532   0.116  0.3217 -0.4015 -0.4397
 4851TIP3    H214560   1.472   2.605   0.215 -0.1690 -0.8654  0.3514
 4852TIP3   OH214561   0.520   3.239   2.623  0.4913  0.2753 -0.4360
 4852TIP3    H114562   0.608   3.214   2.596  0.3980 -1.0568  0.3967
 4852TIP3    H214563   0.533   3.292   2.702  0.5396 -0.3137 -0.0420
 4853TIP3   OH214564   3.301   4.024   4.745  0.0719 -0.1622  0.1082
 4853TIP3    H114565   3.291   4.062   4.832 -0.1867 -0.8427  0.3879
 4853TIP3    H214566   3.285   4.096   4.684 -0.1176  0.2343  0.6220
 4854TIP3   OH214567   5.251   4.474   1.420 -0.3947  0.8744 -0.7619
 4854TIP3    H114568   5.180   4.528   1.387 -1.2139  0.1512 -0.2276
 4854TIP3    H214569   5.293   4.438   1.342  0.1742  2.2691 -1.1248
 4855TIP3   OH214570   3.713   0.702   2.069  0.1475 -0.0114 -0.2990
 4855TIP3    H114571   3.625   0.677   2.043  0.0205  0.0738  0.0469
 4855TIP3    H214572   3.716   0.686   2.163 -0.1474  1.8932  0.0643
 4856TIP3   OH214573   3.538   1.061   2.440 -0.4844 -0.4825  0.0739
 4856TIP3    H114574   3.622   1.101   2.462 -0.9640  1.4025 -1.3381
 4856TIP3    H214575   3.553   0.967   2.452  0.9852 -0.0313  2.4810
 4857TIP3   OH214576   6.305   4.310   3.767  0.5392 -0.5731 -0.2480
 4857TIP3    H114577   6.253   4.252   3.712 -1.7486 -0.7887  1.9645
 4857TIP3    H214578   6.309   4.267   3.852 -0.1248  1.8420  1.1152
 4858TIP3   OH214579   4.729   1.762   2.652 -0.2102 -0.5784  0.4189
 4858TIP3    H114580   4.637   1.784   2.666 -0.0431 -0.3786  1.2633
 4858TIP3    H214581   4.769   1.844   2.621  0.0545 -0.1220  1.8783
 4859TIP3   OH214582   5.526   0.874   3.947  0.0366  0.1064 -0.1338
 4859TIP3    H114583   5.584   0.838   4.015  1.0736  0.7951 -0.6328
 4859TIP3    H214584   5.515   0.801   3.885 -2.2358 -1.0780  1.5264
 4860TIP3   OH214585   2.590   2.947   4.331  0.0601  0.3295  0.0366
 4860TIP3    H114586   2.519   3.003   4.297 -1.2002 -0.9484  0.4456
 4860TIP3    H214587   2.547   2.892   4.396  1.5709 -0.1361  0.6826
 4861TIP3   OH214588   5.520   5.272   4.444 -0.5900  0.2209 -0.0664
 4861TIP3    H114589   5.491   5.184   4.421  0.7588  0.0795 -1.3044
 4861TIP3    H214590   5.575   5.260   4.522  1.1497 -0.3035 -1.3376
 4862TIP3   OH214591   1.377   5.329   3.148 -0.0943  0.4532  0.6455
 4862TIP3    H114592   1.329   5.389   3.206 -1.3326 -0.2703  0.4098
 4862TIP3    H214593   1.435   5.281   3.207 -0.6085  0.4274  1.1432
 4863TIP3   OH214594   2.230   0.039   1.569  0.3964  0.0472 -0.1174
 4863TIP3    H114595   2.215   0.127   1.605 -1.0951  0.1551 -0.9538
 4863TIP3    H214596   2.263   0.055   1.481 -0.5382 -0.2159 -0.5251
 4864TIP3   OH214597   5.842   1.920   2.519  0.7089  1.1228  0.5801
 4864TIP3    H114598   5.880   1.942   2.433 -0.7716 -0.6201 -0.6010
 4864TIP3    H214599   5.752   1.953   2.514  0.3286  0.1838  1.0891
 4865TIP3   OH214600   5.783   1.076   3.454 -0.4216  0.0481  0.2191
 4865TIP3    H114601   5.841   1.023   3.400 -0.4785  0.2702 -0.0624
 4865TIP3    H214602   5.790   1.038   3.542  0.0700  0.0068  0.1670
 4866TIP3   OH214603   3.952   4.134   1.248  0.1137  0.6123 -0.4135
 4866TIP3    H114604   3.870   4.089   1.270 -0.3234  1.5222 -0.1203
 4866TIP3    H214605   3.975   4.099   1.162  0.2642 -0.8059  0.1776
 4867TIP3   OH214606   4.394   5.268   1.450  0.3754 -0.1158  0.0457
 4867TIP3    H114607   4.402   5.173   1.453  1.6022 -0.0849  4.1058
 4867TIP3    H214608   4.473   5.298   1.406  0.4284 -0.9618 -0.4439
 4868TIP3   OH214609   2.011   2.543   1.714 -0.0466 -0.0639 -0.5609
 4868TIP3    H114610   1.957   2.552   1.635 -0.2075 -0.7122 -0.5255
 4868TIP3    H214611   1.950   2.514   1.782  0.0227  0.8047 -0.1042
 4869TIP3   OH214612   2.827   2.470   3.217 -0.2610  0.2538  0.2899
 4869TIP3    H114613   2.836   2.562   3.191  0.9629  0.2751  0.7342
 4869TIP3    H214614   2.738   2.464   3.252 -0.4963  1.1743 -0.1171
 4870TIP3   OH214615   1.358   0.638   4.581 -0.1813  0.4709  0.2024
 4870TIP3    H114616   1.365   0.716   4.636 -1.5596 -0.7503  2.2329
 4870TIP3    H214617   1.291   0.659   4.517 -0.8136  0.8589  0.9706
 4871TIP3   OH214618   4.399   4.418   0.613  0.2770 -0.4051  0.5666
 4871TIP3    H114619   4.318   4.412   0.662 -1.1991  1.7679 -1.3930
 4871TIP3    H214620   4.386   4.360   0.538 -0.4360  1.5294 -0.8801
 4872TIP3   OH214621   3.495   1.352   1.016  0.5116  0.0971  0.5598
 4872TIP3    H114622   3.570   1.373   0.960 -0.8397  2.2179 -0.6025
 4872TIP3    H214623   3.508   1.404   1.095 -0.2992  1.4933 -0.1809
 4873TIP3   OH214624   0.816   5.722   0.025  0.5488 -0.2181 -0.0205
 4873TIP3    H114625   0.897   5.771   0.039  0.4192 -0.3970  1.4446
 4873TIP3    H214626   0.842   5.648  -0.030  0.7343  1.4664 -2.3742
 4874TIP3   OH214627   5.798   5.297   1.028  0.0067  0.1137 -0.1225
 4874TIP3    H114628   5.732   5.295   1.098 -0.8548  1.9744 -0.7888
 4874TIP3    H214629   5.747   5.293   0.947  0.6396  1.9230 -0.6594
 4875TIP3   OH214630   4.212   1.207   2.987 -0.2585 -0.0311  0.0809
 4875TIP3    H114631   4.278   1.158   2.938 -0.0839 -0.3023  0.5774
 4875TIP3    H214632   4.145   1.141   3.009 -0.2361  0.0438  0.3769
 4876TIP3   OH214633   1.581   4.771   4.580 -0.0938  0.5408 -0.3301
 4876TIP3    H114634   1.613   4.689   4.542  1.5527  0.5649  0.9227
 4876TIP3    H214635   1.493   4.749   4.612 -0.7618  0.0205 -2.3258
 4877TIP3   OH214636   3.578   2.668   3.240 -0.0028  0.0211 -0.3882
 4877TIP3    H114637   3.585   2.579   3.207 -0.4558 -0.0854 -0.1970
 4877TIP3    H214638   3.510   2.664   3.307 -0.8274  0.7385 -1.1496
 4878TIP3   OH214639   5.039   3.814   2.488  0.4654  0.2708  0.0103
 4878TIP3    H114640   5.052   3.889   2.430 -1.4507  1.2947  0.7886
 4878TIP3    H214641   4.944   3.811   2.502  0.4924 -2.2378  0.1333
 4879TIP3   OH214642   3.717   3.133   2.586  0.0746  0.1009 -0.8918
 4879TIP3    H114643   3.763   3.052   2.564 -1.1003 -1.7340  2.5905
 4879TIP3    H214644   3.626   3.106   2.601 -0.1391  1.7361  1.4832
 4880TIP3   OH214645   3.664   5.906   4.610  0.0740 -0.5979  0.4161
 4880TIP3    H114646   3.717   5.950   4.677 -0.8388  1.9539 -0.4110
 4880TIP3    H214647   3.697   5.941   4.527  0.6940 -3.1460 -0.5026
 4881TIP3   OH214648   5.525   5.225   1.122 -0.3770  0.1426  0.3424
 4881TIP3    H114649   5.529   5.216   1.217 -1.1046 -0.5400  0.3159
 4881TIP3    H214650   5.555   5.141   1.088 -0.1717  0.3621 -0.0376
 4882TIP3   OH214651   3.535   4.661   1.004  0.1745 -0.6201  0.1302
 4882TIP3    H114652   3.459   4.673   0.948  0.1432 -1.6243 -0.0688
 4882TIP3    H214653   3.566   4.749   1.023  0.7641 -0.2609 -2.2283
 4883TIP3   OH214654   5.321   3.335   4.269  0.9662 -0.6421  0.2090
 4883TIP3    H114655   5.241   3.384   4.251  1.9000  0.7633 -0.3857
 4883TIP3    H214656   5.296   3.243   4.261 -0.2355 -0.2096 -1.5768
 4884TIP3   OH214657   0.770   2.783   4.678 -0.3374 -0.0830  0.3676
 4884TIP3    H114658   0.759   2.716   4.745  0.1484  0.4630  1.0127
 4884TIP3    H214659   0.682   2.820   4.667 -0.0598  1.3771  2.3977
 4885TIP3   OH214660   5.229   1.596   3.606  0.3890  0.2368 -0.6715
 4885TIP3    H114661   5.178   1.551   3.539 -0.3256  0.6280 -0.4076
 4885TIP3    H214662   5.177   1.673   3.627  0.1576 -0.3456  0.9928
 4886TIP3   OH214663   2.469   3.355   3.489  0.1895  0.2635  0.0811
 4886TIP3    H114664   2.559   3.323   3.480 -0.1091 -0.3493 -0.8616
 4886TIP3    H214665   2.426   3.290   3.546  0.5240  0.9483  1.1337
 4887TIP3   OH214666   1.499   5.409   2.603  0.4577  0.4948  0.3086
 4887TIP3    H114667   1.415   5.365   2.617  0.7420 -0.7053 -1.3750
 4887TIP3    H214668   1.476   5.500   2.583 -0.4745  0.1429 -0.2964
 4888TIP3   OH214669   3.271   5.618   4.691 -0.5819 -0.3696  0.6133
 4888TIP3    H114670   3.292   5.628   4.784  1.5480  1.9047  0.0074
 4888TIP3    H214671   3.341   5.563   4.657  0.0475  0.7647 -0.0098
 4889TIP3   OH214672   5.829   0.615   2.059  0.2540  0.1694 -0.4019
 4889TIP3    H114673   5.844   0.617   2.154 -0.8436  2.5051 -0.2161
 4889TIP3    H214674   5.852   0.525   2.034  1.5182 -0.2416  1.8945
 4890TIP3   OH214675   2.644   0.405   2.562 -0.5451 -0.4395 -0.4403
 4890TIP3    H114676   2.647   0.311   2.580  0.6611 -0.4359 -0.5410
 4890TIP3    H214677   2.685   0.445   2.639 -0.5159 -0.0414 -0.6618
 4891TIP3   OH214678   4.890   1.709   3.536  0.0739 -0.6473 -0.5380
 4891TIP3    H114679   4.921   1.620   3.523  1.5458 -0.4054  1.0383
 4891TIP3    H214680   4.950   1.763   3.484 -0.0821 -0.4829 -0.5485
 4892TIP3   OH214681   6.117   4.969   3.825  0.5450 -0.1000 -0.0660
 4892TIP3    H114682   6.077   4.910   3.761  2.2921 -1.2549 -0.1652
 4892TIP3    H214683   6.137   5.049   3.776 -0.7070  0.1214 -0.2371
 4893TIP3   OH214684   4.215   4.143   3.441 -0.3691 -0.1515  0.1676
 4893TIP3    H114685   4.306   4.173   3.442 -0.1243 -0.7700  2.5095
 4893TIP3    H214686   4.221   4.051   3.414 -0.6417  0.5022 -2.3635
 4894TIP3   OH214687   4.767   2.616   3.605  0.1354 -0.0287  0.0807
 4894TIP3    H114688   4.701   2.566   3.653 -0.1287  0.5995  0.3909
 4894TIP3    H214689   4.805   2.674   3.671  1.7586 -1.1150  0.1441
 4895TIP3   OH214690   3.133   4.051   3.825  0.0521 -0.5239  0.5183
 4895TIP3    H114691   3.052   4.002   3.839 -1.2872  0.9250 -1.4193
 4895TIP3    H214692   3.203   3.989   3.843 -1.5343 -2.7819 -0.6543
 4896TIP3   OH214693   4.335   5.672   4.794  0.3768 -0.4943 -0.0615
 4896TIP3    H114694   4.418   5.641   4.832  1.5922  0.0204 -2.1218
 4896TIP3    H214695   4.268   5.618   4.836  1.6595 -0.4020  2.2443
 4897TIP3   OH214696   3.910   0.912   0.425 -0.2000 -0.2460  0.3002
 4897TIP3    H114697   3.871   0.829   0.399 -0.6374  0.0460 -0.0074
 4897TIP3    H214698   3.873   0.931   0.511  0.8097 -0.9365  0.9067
 4898TIP3   OH214699   0.974   0.135   0.246 -0.2309  0.1308  0.6742
 4898TIP3    H114700   0.952   0.195   0.175 -0.5379 -1.5920 -0.7372
 4898TIP3    H214701   1.064   0.157   0.269 -0.4140  1.2783  0.3430
 4899TIP3   OH214702   0.433   3.610   0.008  0.1859 -0.2813 -0.2956
 4899TIP3    H114703   0.423   3.523   0.048  2.5840 -0.4386  0.1211
 4899TIP3    H214704   0.516   3.604  -0.040  0.5174  1.8417 -0.0679
 4900TIP3   OH214705   4.907   1.035   4.272 -0.1952 -0.0870 -0.9166
 4900TIP3    H114706   4.886   0.955   4.225 -2.9531 -0.9456  1.5003
 4900TIP3    H214707   4.838   1.096   4.246 -0.4768  0.1358  0.3262
 4901TIP3   OH214708   2.860   3.068   0.192 -0.2939  0.3920 -0.1586
 4901TIP3    H114709   2.869   3.092   0.100  0.8654 -0.5478 -0.3036
 4901TIP3    H214710   2.932   3.007   0.209 -1.8453 -1.2912  0.7582
 4902TIP3   OH214711   4.910   2.253   4.457 -0.4887 -0.6101 -0.0322
 4902TIP3    H114712   4.856   2.175   4.474 -0.3180 -1.2222 -1.9637
 4902TIP3    H214713   4.999   2.223   4.473 -0.5649 -0.1156  1.4339
 4903TIP3   OH214714   2.274   2.382   4.049 -0.0737  0.4075  0.0812
 4903TIP3    H114715   2.337   2.434   3.998  2.2219 -2.2683 -0.0339
 4903TIP3    H214716   2.228   2.329   3.984 -0.0758 -0.0326  0.4368
 4904TIP3   OH214717   3.522   3.280   2.876 -0.0511 -0.1438  0.6952
 4904TIP3    H114718   3.431   3.261   2.854 -0.6200  0.4902  2.3416
 4904TIP3    H214719   3.567   3.196   2.870 -1.0388 -0.7216  1.1573
 4905TIP3   OH214720   1.628   5.144   0.685  0.0312  0.2815 -0.3281
 4905TIP3    H114721   1.546   5.160   0.732 -0.4584  0.4455 -1.2141
 4905TIP3    H214722   1.603   5.141   0.593  0.9247 -0.3486 -0.5662
 4906TIP3   OH214723   5.480   0.148   1.151  0.8118  0.0250 -0.5006
 4906TIP3    H114724   5.496   0.153   1.245  2.2376  1.3383 -0.7663
 4906TIP3    H214725   5.525   0.068   1.123 -2.0113 -2.0047  0.2779
 4907TIP3   OH214726   4.562   4.555   3.456 -0.4545 -0.3232  0.2205
 4907TIP3    H114727   4.573   4.570   3.362  0.0415  0.8297  0.4528
 4907TIP3    H214728   4.644   4.515   3.483 -0.8586 -1.3088  0.0566
 4908TIP3   OH214729   4.450   4.014   3.177  0.4337 -0.3969 -0.2169
 4908TIP3    H114730   4.476   4.079   3.112 -1.8518 -0.4449 -1.2842
 4908TIP3    H214731   4.501   4.037   3.255  0.3778  2.1470 -0.8172
 4909TIP3   OH214732   3.018   3.509   3.909 -0.2516 -0.2935 -0.0642
 4909TIP3    H114733   2.928   3.531   3.885 -0.6508  1.3395  2.5667
 4909TIP3    H214734   3.010   3.431   3.964  0.0279 -0.5408 -0.3667
 4910TIP3   OH214735   3.418   2.014   0.027  0.0637  0.5813 -0.0877
 4910TIP3    H114736   3.430   1.944   0.091  1.6114  0.7138 -0.1942
 4910TIP3    H214737   3.382   2.087   0.078  1.0684  0.6131  0.6129
 4911TIP3   OH214738   1.682   0.441   0.743 -0.1680 -0.5700  0.5622
 4911TIP3    H114739   1.651   0.384   0.673 -1.0761  0.4799  0.0733
 4911TIP3    H214740   1.766   0.475   0.711  0.3608 -1.5870  0.8445
 4912TIP3   OH214741   4.077   4.334   3.128 -0.2142 -0.1896 -0.1937
 4912TIP3    H114742   4.012   4.264   3.133 -0.1619 -0.1336  1.7713
 4912TIP3    H214743   4.072   4.364   3.037 -1.9597 -1.1068 -0.4514
 4913TIP3   OH214744   4.236   5.922   5.099 -0.1778 -0.0788 -0.6037
 4913TIP3    H114745   4.152   5.881   5.080 -0.4741  0.1098  0.2465
 4913TIP3    H214746   4.250   5.984   5.027  0.3119 -1.6864 -1.9371
 4914TIP3   OH214747   4.059   0.984   3.027 -0.1386 -0.1978 -0.1258
 4914TIP3    H114748   4.117   0.937   3.087  0.5251  0.6150 -0.1067
 4914TIP3    H214749   3.972   0.973   3.065  0.0474 -1.1277  0.0475
 4915TIP3   OH214750   6.231   5.875   1.885 -0.0010 -0.2028  0.5221
 4915TIP3    H114751   6.252   5.788   1.853  0.8870 -0.3361  1.4104
 4915TIP3    H214752   6.157   5.903   1.831  2.0133  0.0281 -2.3980
 4916TIP3   OH214753   1.585   4.481   1.719  0.4300  0.1686  0.0182
 4916TIP3    H114754   1.622   4.411   1.665  0.6919  0.1397  0.2287
 4916TIP3    H214755   1.612   4.561   1.675 -1.0540  0.1435 -1.0047
 4917TIP3   OH214756   3.352   0.573   4.451 -0.4743 -0.0534  0.2680
 4917TIP3    H114757   3.299   0.585   4.372  0.5365 -0.6498 -0.5209
 4917TIP3    H214758   3.354   0.660   4.491 -2.6232 -0.1611  0.7184
 4918TIP3   OH214759   2.428   3.113   5.136 -0.3530 -0.2489  0.0706
 4918TIP3    H114760   2.522   3.120   5.152  0.0978 -1.5334 -1.7409
 4918TIP3    H214761   2.388   3.149   5.215  1.6227  2.3696  0.0052
 4919TIP3   OH214762   5.179   3.789   2.990  0.0360  0.2649  0.6062
 4919TIP3    H114763   5.126   3.833   2.924 -1.1935 -0.4558  1.0669
 4919TIP3    H214764   5.177   3.848   3.065 -1.2470 -0.3253  1.0727
 4920TIP3   OH214765   4.957   3.974   1.945  0.5203 -0.3923  0.2864
 4920TIP3    H114766   4.891   4.041   1.965  0.0820 -0.8486  0.4146
 4920TIP3    H214767   4.959   3.918   2.023  2.4414  0.6860  1.0716
 4921TIP3   OH214768   1.005   5.538   3.253  0.7403 -0.3065  0.6596
 4921TIP3    H114769   1.084   5.576   3.214  1.7205 -0.9407  1.9550
 4921TIP3    H214770   0.938   5.548   3.185  1.6761  1.1289 -0.0972
 4922TIP3   OH214771   2.911   5.747   0.357  0.5381  0.3227  0.0131
 4922TIP3    H114772   2.882   5.836   0.337  0.7292  0.9066  2.1324
 4922TIP3    H214773   2.841   5.710   0.410  0.4002 -0.8739 -0.9525
 4923TIP3   OH214774   2.413   3.151   4.250 -0.0392  0.1203  0.2988
 4923TIP3    H114775   2.354   3.105   4.310  0.0290  0.4573  0.6279
 4923TIP3    H214776   2.359   3.171   4.173 -0.6619  1.3804  1.0376
 4924TIP3   OH214777   5.344   3.712   1.345  0.0576  0.3365 -0.2450
 4924TIP3    H114778   5.360   3.688   1.436 -0.0493 -2.0681 -0.8069
 4924TIP3    H214779   5.426   3.690   1.300 -0.2857  0.4283 -0.9213
 4925TIP3   OH214780   1.022   0.283   0.829  0.3272  0.3322 -0.0414
 4925TIP3    H114781   1.083   0.211   0.842 -0.0657 -0.2585 -1.2853
 4925TIP3    H214782   1.068   0.342   0.768 -0.3569 -0.1819 -1.0898
 4926TIP3   OH214783   2.158   4.955   3.821  0.2864  0.4147 -0.4142
 4926TIP3    H114784   2.224   5.025   3.829 -1.2477  1.7032  2.5288
 4926TIP3    H214785   2.082   4.999   3.781  0.2435 -0.3274 -1.1661
 4927TIP3   OH214786   6.146   1.118   4.309  0.5202 -0.4714  0.3604
 4927TIP3    H114787   6.111   1.082   4.228  1.0221 -0.0904 -0.0347
 4927TIP3    H214788   6.165   1.042   4.363  0.7618 -0.7639 -0.1256
 4928TIP3   OH214789   1.071   1.095   3.635  0.3202 -0.0216 -0.0245
 4928TIP3    H114790   1.013   1.101   3.558 -0.6496  0.9115  0.7419
 4928TIP3    H214791   1.131   1.169   3.625  0.9530 -0.5849 -0.4658
 4929TIP3   OH214792   3.371   5.608   1.889  0.5409  0.4263 -0.0981
 4929TIP3    H114793   3.361   5.645   1.801  1.1590  0.5707 -0.1074
 4929TIP3    H214794   3.459   5.570   1.889  0.1602 -0.4794  0.1249
 4930TIP3   OH214795   0.761   2.674   2.916 -0.3878  0.3424 -0.3143
 4930TIP3    H114796   0.743   2.655   2.824  1.2228 -1.7046 -0.2643
 4930TIP3    H214797   0.780   2.589   2.955 -0.9852  1.1619  1.9369
 4931TIP3   OH214798   2.513   4.518   3.655 -0.2906 -0.2405  0.3830
 4931TIP3    H114799   2.490   4.569   3.733  1.4051  0.9234  0.1643
 4931TIP3    H214800   2.603   4.544   3.634 -0.4645 -1.0314 -1.5799
 4932TIP3   OH214801   0.750   2.613   2.651 -0.2966 -0.1976  0.2055
 4932TIP3    H114802   0.698   2.649   2.579 -0.5728 -0.9997 -0.0058
 4932TIP3    H214803   0.771   2.524   2.623  0.8348 -0.0327  0.4781
 4933TIP3   OH214804   1.750   2.974   1.401 -0.1454  0.3736 -0.1651
 4933TIP3    H114805   1.822   2.931   1.356 -0.5974  2.4050 -3.1195
 4933TIP3    H214806   1.791   3.017   1.476  0.7452 -2.6140  1.2110
 4934TIP3   OH214807   2.010   1.281   2.714 -0.0255 -0.0904  0.2392
 4934TIP3    H114808   2.022   1.192   2.682  0.6197  0.1346 -0.1644
 4934TIP3    H214809   2.087   1.298   2.768  0.1459  0.4281 -0.1598
 4935TIP3   OH214810   2.399   1.730   3.367 -0.0765 -0.4144 -0.7080
 4935TIP3    H114811   2.333   1.687   3.422 -0.3474  1.8341  0.8913
 4935TIP3    H214812   2.350   1.798   3.320  0.8775  0.5432 -0.3708
 4936TIP3   OH214813   0.767   1.602   4.092 -0.2482  0.4582 -0.3656
 4936TIP3    H114814   0.760   1.524   4.147 -0.7513  1.0669  0.4632
 4936TIP3    H214815   0.859   1.626   4.096 -0.1860  0.2021 -0.2158
 4937TIP3   OH214816   1.315   3.287   2.790  0.2740  0.6045 -0.0526
 4937TIP3    H114817   1.335   3.241   2.872 -3.7235  2.0466  1.9608
 4937TIP3    H214818   1.262   3.225   2.740 -0.7321  1.1290  0.3386
 4938TIP3   OH214819   2.841   1.450   2.996  0.1035  0.6958  0.5025
 4938TIP3    H114820   2.776   1.388   3.030 -1.0235  1.6215  0.1105
 4938TIP3    H214821   2.908   1.454   3.064 -1.8938  2.2068  2.5274
 4939TIP3   OH214822   5.218   4.122   3.336 -0.1926  0.1300  0.4518
 4939TIP3    H114823   5.238   4.098   3.426  3.4379  2.3223  0.4035
 4939TIP3    H214824   5.201   4.038   3.292 -0.9583 -1.0607  2.8812
 4940TIP3   OH214825   3.179   3.235   2.681 -0.0545  0.1454  0.1909
 4940TIP3    H114826   3.193   3.260   2.590  0.3123 -2.9797 -0.7443
 4940TIP3    H214827   3.156   3.316   2.725 -1.4125  1.6186 -2.9138
 4941TIP3   OH214828   4.381   4.649   1.151  0.6160  0.1667  0.2985
 4941TIP3    H114829   4.358   4.739   1.130  1.4402 -0.0466 -1.8277
 4941TIP3    H214830   4.297   4.605   1.165  0.0938  0.8837 -0.4671
 4942TIP3   OH214831   4.865   0.482   1.807  0.0394  0.9561  0.4140
 4942TIP3    H114832   4.804   0.546   1.844 -1.1936  0.2042 -0.2628
 4942TIP3    H214833   4.812   0.405   1.790  0.8677  0.7568 -1.5227
 4943TIP3   OH214834   2.392   3.594   0.935  0.1114  0.0862  0.0300
 4943TIP3    H114835   2.442   3.589   0.853  0.0126  0.2808 -0.0444
 4943TIP3    H214836   2.343   3.676   0.927 -0.0019  0.0365  0.2260
 4944TIP3   OH214837   5.228   1.181   0.212 -0.3118  0.1481  0.0454
 4944TIP3    H114838   5.226   1.253   0.275  0.1700  1.3499 -1.2567
 4944TIP3    H214839   5.216   1.102   0.265  0.0637  1.1108  1.6309
 4945TIP3   OH214840   2.409   0.687   4.993 -0.6636  0.1235  0.2535
 4945TIP3    H114841   2.456   0.656   5.070  0.6168  0.1072 -0.5053
 4945TIP3    H214842   2.330   0.729   5.028 -0.0532  0.2245  1.5615
 4946TIP3   OH214843   4.077   4.399   2.848  0.3605 -0.6746 -0.7696
 4946TIP3    H114844   4.149   4.435   2.796 -0.2618  1.3428 -0.3073
 4946TIP3    H214845   4.006   4.387   2.785  0.4081 -0.6178 -0.8344
 4947TIP3   OH214846   2.248   2.311   0.319 -0.6012  0.1442 -0.1732
 4947TIP3    H114847   2.251   2.396   0.363 -0.9434 -0.6434  1.4282
 4947TIP3    H214848   2.200   2.254   0.379 -3.7888 -0.2913 -2.8291
 4948TIP3   OH214849   6.320   5.454   5.037 -0.0305  0.7066  0.7235
 4948TIP3    H114850   6.286   5.446   4.948 -0.0369  0.4632  0.7462
 4948TIP3    H214851   6.365   5.371   5.053 -0.7984  0.3717  1.2656
 4949TIP3   OH214852   4.149   1.656   5.116  0.0168 -0.1217 -0.1379
 4949TIP3    H114853   4.210   1.596   5.160  0.0175  0.9915  1.4539
 4949TIP3    H214854   4.089   1.598   5.069  1.9363 -1.2740 -1.3220
 4950TIP3   OH214855   3.407   0.490   5.091 -0.0141  0.3247  0.2566
 4950TIP3    H114856   3.355   0.454   5.162  1.6267 -0.9831  0.8655
 4950TIP3    H214857   3.369   0.452   5.012 -0.4681  0.0091  0.6224
 4951TIP3   OH214858   3.221   4.268   4.714 -0.4691 -0.3238  0.2147
 4951TIP3    H114859   3.131   4.274   4.682 -0.3894  0.0762  0.0649
 4951TIP3    H214860   3.245   4.357   4.738 -0.1646 -0.4523  0.4016
 4952TIP3   OH214861   5.055   3.931   3.184  0.0426  0.6253 -0.0563
 4952TIP3    H114862   4.996   3.951   3.257 -1.5191 -1.7070 -0.5803
 4952TIP3    H214863   5.025   3.986   3.112 -1.4906 -0.4459 -0.2780
 4953TIP3   OH214864   2.034   4.131   3.200  0.3439  0.0217 -0.6423
 4953TIP3    H114865   2.099   4.133   3.270 -0.5790 -0.7290  0.2688
 4953TIP3    H214866   2.052   4.210   3.149 -0.3963  1.8944  1.7742
 4954TIP3   OH214867   0.262   3.916   1.177  0.4568  0.2234  0.6848
 4954TIP3    H114868   0.212   3.908   1.258  1.4384  0.4259  1.3281
 4954TIP3    H214869   0.259   4.009   1.155 -1.8807 -0.1253 -0.9057
 4955TIP3   OH214870   3.052   1.568   1.618  0.3197 -0.3199  0.0149
 4955TIP3    H114871   3.097   1.582   1.701  0.9450  1.3481 -0.5610
 4955TIP3    H214872   2.961   1.595   1.635  0.7553  1.3759 -0.1690
 4956TIP3   OH214873   2.808   1.621   1.681  0.7855 -0.8442 -0.0548
 4956TIP3    H114874   2.790   1.540   1.729  0.2087 -1.2298 -0.8934
 4956TIP3    H214875   2.754   1.687   1.724  1.2082 -0.9075  0.5914
 4957TIP3   OH214876   2.463   4.386   2.386 -0.6706 -0.3383 -0.3833
 4957TIP3    H114877   2.451   4.393   2.481  0.9181  2.1067 -0.2798
 4957TIP3    H214878   2.498   4.298   2.373  2.3478  0.3870  1.7858
 4958TIP3   OH214879   0.068   2.675   2.632 -0.1099 -0.6835 -0.0627
 4958TIP3    H114880   0.102   2.596   2.673  0.3650  0.7686  2.5979
 4958TIP3    H214881   0.140   2.708   2.579  1.6628  0.6025  2.9054
 4959TIP3   OH214882   0.497   3.684   4.871 -0.4155 -0.3602  0.1774
 4959TIP3    H114883   0.417   3.722   4.833 -0.6451 -1.1912 -0.2116
 4959TIP3    H214884   0.540   3.642   4.796 -0.3146 -1.0842  0.6357
 4960TIP3   OH214885   1.897   4.659   4.601  0.1725 -0.3032  0.3367
 4960TIP3    H114886   1.867   4.749   4.589 -1.7267 -0.6503  2.0508
 4960TIP3    H214887   1.844   4.608   4.539  0.6989 -0.3646 -0.0750
 4961TIP3   OH214888   2.131   5.134   3.364 -0.1572 -0.2180  0.4345
 4961TIP3    H114889   2.069   5.115   3.293 -0.4557  1.8932  0.0654
 4961TIP3    H214890   2.091   5.206   3.412  3.2981  3.6499 -1.7937
 4962TIP3   OH214891   3.905   0.549   1.481 -0.5207  0.1053  0.5660
 4962TIP3    H114892   3.987   0.500   1.485 -0.9644 -0.6760  0.4808
 4962TIP3    H214893   3.897   0.591   1.567 -0.6919 -0.9290  1.0699
 4963TIP3   OH214894   0.537   0.631   2.304 -0.6030  0.1125 -0.6520
 4963TIP3    H114895   0.525   0.713   2.352  0.2250  0.7020 -1.4305
 4963TIP3    H214896   0.455   0.619   2.256 -1.7550 -0.8754  1.4176
 4964TIP3   OH214897   4.826   1.314   3.794  0.4433  0.0880 -0.4016
 4964TIP3    H114898   4.836   1.409   3.801  0.6364  0.3790 -3.3297
 4964TIP3    H214899   4.731   1.300   3.794  0.4122  0.0959  1.2830
 4965TIP3   OH214900   5.512   0.187   0.639  0.2505  0.1400 -0.8237
 4965TIP3    H114901   5.441   0.148   0.588  0.3866 -0.4473 -0.5736
 4965TIP3    H214902   5.592   0.158   0.596  0.3479  0.6495 -0.9954
 4966TIP3   OH214903   5.615   3.020   4.904 -0.1909  0.1743  0.0050
 4966TIP3    H114904   5.647   2.934   4.930 -0.2536  0.5425  1.3589
 4966TIP3    H214905   5.588   3.009   4.812 -1.5852 -1.6174  0.5758
 4967TIP3   OH214906   5.309   4.872   2.032 -0.0251  0.0241 -0.1653
 4967TIP3    H114907   5.403   4.888   2.019  0.0385  1.0014  1.3244
 4967TIP3    H214908   5.266   4.925   1.964  0.4855 -0.7003 -1.0814
 4968TIP3   OH214909   2.451   4.530   3.385  0.0774 -0.4942 -0.1906
 4968TIP3    H114910   2.489   4.554   3.469  0.4483 -0.2140 -0.4324
 4968TIP3    H214911   2.457   4.609   3.332 -0.1071 -0.6815 -0.4977
 4969TIP3   OH214912   5.909   4.329   0.277 -1.0969  0.2131 -0.0375
 4969TIP3    H114913   5.894   4.386   0.353 -1.2121  0.1705 -0.0283
 4969TIP3    H214914   5.911   4.241   0.313  2.6142  0.3639  0.5297
 4970TIP3   OH214915   2.836   2.336   3.572  0.1070 -0.0244 -0.1686
 4970TIP3    H114916   2.851   2.243   3.592  1.3107  0.1471 -0.2116
 4970TIP3    H214917   2.923   2.371   3.552 -0.4431  0.9217 -1.0081
 4971TIP3   OH214918   4.311   0.401   1.642  0.0651  0.0985  0.1287
 4971TIP3    H114919   4.223   0.403   1.680 -1.1319  0.0335 -2.4032
 4971TIP3    H214920   4.324   0.489   1.606  0.7106 -0.1179 -0.1923
 4972TIP3   OH214921   0.394   2.757   2.777  0.6557  0.9680  0.4501
 4972TIP3    H114922   0.328   2.822   2.798 -0.7501 -0.5367  0.9446
 4972TIP3    H214923   0.447   2.796   2.708 -1.9457  1.5240 -1.3535
 4973TIP3   OH214924   4.540   0.310   0.465 -0.0547 -0.0082 -0.0339
 4973TIP3    H114925   4.522   0.259   0.543  0.3390  0.5885  0.4564
 4973TIP3    H214926   4.467   0.292   0.407 -1.6564  1.4430  1.4344
 4974TIP3   OH214927   2.072   4.229  -0.002 -0.1512 -0.0185 -0.5187
 4974TIP3    H114928   2.108   4.315   0.020  0.6143 -0.2948 -0.6383
 4974TIP3    H214929   2.123   4.167   0.051  1.4718 -0.6581 -2.6772
 4975TIP3   OH214930   1.134   3.537   2.758 -0.5206  0.0046 -0.4289
 4975TIP3    H114931   1.175   3.513   2.840 -1.0929  1.0074  0.1743
 4975TIP3    H214932   1.199   3.516   2.691 -0.0843 -0.9114  0.2512
 4976TIP3   OH214933   0.191   4.522   3.906  0.9209  0.3906 -0.1409
 4976TIP3    H114934   0.179   4.617   3.898  1.9240  0.4125 -2.0189
 4976TIP3    H214935   0.106   4.485   3.882  1.5212  0.7727 -3.2926
 4977TIP3   OH214936   1.831   3.942   1.061 -0.4307 -0.1290 -0.4268
 4977TIP3    H114937   1.802   3.933   0.970  0.4394 -0.7461 -0.6690
 4977TIP3    H214938   1.870   4.029   1.066 -0.5203 -0.0771 -0.6402
 4978TIP3   OH214939   3.390   5.588   1.571 -0.4660 -0.2972  0.0491
 4978TIP3    H114940   3.343   5.510   1.600 -3.8064  1.4181 -0.2473
 4978TIP3    H214941   3.430   5.563   1.488 -2.1643 -1.5094 -0.4581
 4979TIP3   OH214942   5.895   0.169   4.682  0.4967 -0.4096 -0.2241
 4979TIP3    H114943   5.882   0.256   4.645 -1.1606  0.7258  2.6825
 4979TIP3    H214944   5.990   0.160   4.688  0.7279  0.6083 -1.7784
 4980TIP3   OH214945   1.901   3.284   2.154  0.0652 -0.2958  0.6066
 4980TIP3    H114946   1.837   3.291   2.224  0.5091  3.0822  0.8468
 4980TIP3    H214947   1.851   3.253   2.078 -1.4356  0.4236  1.2689
 4981TIP3   OH214948   0.306   2.760   1.404  0.3694 -0.3549 -0.4387
 4981TIP3    H114949   0.218   2.740   1.371  1.0254 -1.4802 -1.6264
 4981TIP3    H214950   0.296   2.760   1.499 -1.0071  0.0188 -0.5586
 4982TIP3   OH214951   3.906   1.027   1.846  0.5661  0.6461  0.4791
 4982TIP3    H114952   3.825   0.975   1.846  0.3700  0.9409 -0.0703
 4982TIP3    H214953   3.957   0.992   1.773  1.1367  0.1700  1.0885
 4983TIP3   OH214954   1.410   4.228   3.329 -0.0378  0.0793  0.1546
 4983TIP3    H114955   1.420   4.321   3.305  1.2032 -0.0706  0.0429
 4983TIP3    H214956   1.456   4.220   3.413  0.2450 -0.5274 -0.0551
 4984TIP3   OH214957   2.662   3.231   4.413  0.2372 -0.4023  1.1351
 4984TIP3    H114958   2.654   3.190   4.499  0.3542 -1.9832  0.4121
 4984TIP3    H214959   2.598   3.185   4.358  2.1635 -1.4351 -0.3537
 4985TIP3   OH214960   4.561   3.301   0.884 -0.1387 -0.1148 -0.0754
 4985TIP3    H114961   4.478   3.343   0.861 -0.7598 -1.7581 -0.9597
 4985TIP3    H214962   4.556   3.289   0.979 -0.1081  1.3931  0.1511
 4986TIP3   OH214963   1.984   0.855   1.233 -0.0239  0.2915  0.1242
 4986TIP3    H114964   2.016   0.938   1.196 -2.1716  0.8495 -0.6547
 4986TIP3    H214965   2.021   0.852   1.321 -0.4789  2.4853  0.4643
 4987TIP3   OH214966   0.311   2.359   4.985 -0.1226 -0.3960 -0.0576
 4987TIP3    H114967   0.390   2.390   5.029  0.5303 -0.7507 -0.9478
 4987TIP3    H214968   0.248   2.344   5.055  0.3308  0.6648  0.5932
 4988TIP3   OH214969   5.342   2.218   1.209 -0.7437  0.0854  0.1014
 4988TIP3    H114970   5.418   2.209   1.267 -0.9611  0.9542  0.5393
 4988TIP3    H214971   5.285   2.145   1.234 -0.0817 -0.5433 -0.1983
 4989TIP3   OH214972   2.063   0.540   0.345 -0.0183 -0.4223 -0.4587
 4989TIP3    H114973   2.139   0.484   0.333 -0.4887 -1.2291  0.2042
 4989TIP3    H214974   2.036   0.563   0.256  0.7943 -0.3987 -0.7053
 4990TIP3   OH214975   6.360   0.104   0.502  0.0900 -0.2570 -0.3202
 4990TIP3    H114976   6.270   0.119   0.530 -0.3666  0.8396 -2.2431
 4990TIP3    H214977   6.354   0.031   0.441  0.4417  0.0488 -0.7255
 4991TIP3   OH214978   1.185   4.615   4.099 -0.3149  0.3246 -0.2846
 4991TIP3    H114979   1.144   4.701   4.094  0.6142  0.8270  0.4467
 4991TIP3    H214980   1.274   4.629   4.066 -0.6856 -0.7398 -1.8588
 4992TIP3   OH214981   4.433   3.928   2.056 -0.1224 -0.1712  0.1896
 4992TIP3    H114982   4.493   3.950   1.985  0.0709  0.6583  0.5949
 4992TIP3    H214983   4.486   3.878   2.118 -0.1704 -0.4886 -0.0236
 4993TIP3   OH214984   3.977   0.384   2.385 -0.0388 -0.5687 -0.0585
 4993TIP3    H114985   3.960   0.315   2.321 -1.2595 -0.8051  0.4895
 4993TIP3    H214986   3.948   0.464   2.342 -0.7435 -0.7108  0.1455
 4994TIP3   OH214987   1.780   3.094   4.222 -0.1916  0.1915  0.3088
 4994TIP3    H114988   1.778   3.154   4.148  1.0350 -0.8413 -0.6157
 4994TIP3    H214989   1.724   3.135   4.289 -1.1575  1.2462 -1.0985
 4995TIP3   OH214990   4.495   4.171   4.729 -0.4081 -0.2168 -0.4828
 4995TIP3    H114991   4.445   4.246   4.760  1.4957 -0.0023  2.4727
 4995TIP3    H214992   4.450   4.095   4.767 -1.3144 -0.4836 -2.0135
 4996TIP3   OH214993   6.091   3.362   0.268 -0.2287  0.5095 -0.1555
 4996TIP3    H114994   6.163   3.420   0.242 -0.3251  1.5477  1.7518
 4996TIP3    H214995   6.012   3.409   0.241 -0.2590  0.3075 -0.4256
 4997TIP3   OH214996   5.129   1.914   4.981 -0.7465  0.1406 -0.2713
 4997TIP3    H114997   5.129   2.007   5.003  2.4530 -0.1597  1.6811
 4997TIP3    H214998   5.058   1.876   5.032 -1.7569  1.3936 -0.6957
 4998TIP3   OH214999   1.858   4.374   3.797 -0.0565 -0.9407  1.1152
 4998TIP3    H115000   1.864   4.301   3.735 -1.4899  0.2339 -0.4778
 4998TIP3    H215001   1.908   4.445   3.756  0.3620 -0.6371  2.1109
 4999TIP3   OH215002   2.884   4.155   0.261 -0.1450  0.5573  0.1813
 4999TIP3    H115003   2.877   4.180   0.169 -2.4408  0.4128  0.2590
 4999TIP3    H215004   2.842   4.227   0.309  0.8619  0.5501  1.1257
 5000TIP3   OH215005   4.696   4.303   1.283  0.3069  0.3803 -0.6110
 5000TIP3    H115006   4.741   4.320   1.366 -0.2030 -1.3829  0.0636
 5000TIP3    H215007   4.756   4.247   1.234 -0.3365 -0.4662 -0.4633
 5001TIP3   OH215008   3.825   4.799   2.439  0.6286 -0.2190  0.8454
 5001TIP3    H115009   3.809   4.709   2.468  1.9696 -0.2162  1.6800
 5001TIP3    H215010   3.911   4.795   2.397  1.4512  0.9596  2.3153
 5002TIP3   OH215011   1.333   5.802   1.879 -0.1787  0.2262 -0.2355
 5002TIP3    H115012   1.248   5.842   1.862 -0.0276  0.4958 -0.3586
 5002TIP3    H215013   1.390   5.833   1.809  0.0833  0.2330 -0.0228
 5003TIP3   OH215014   0.219   1.781   2.182  0.1125  0.8691 -0.1885
 5003TIP3    H115015   0.141   1.781   2.126 -0.7766 -1.1933  0.9421
 5003TIP3    H215016   0.259   1.695   2.169 -0.4649  0.0609  2.6728
 5004TIP3   OH215017   2.743   0.692   4.478 -0.1360 -0.9841  0.1302
 5004TIP3    H115018   2.701   0.733   4.554 -0.4906 -2.0878  0.5421
 5004TIP3    H215019   2.750   0.600   4.501  2.1425 -0.9195 -0.1151
 5005TIP3   OH215020   0.270   4.625   1.795 -0.1686  0.2571 -0.8502
 5005TIP3    H115021   0.276   4.690   1.865 -2.2064  0.9751 -1.2759
 5005TIP3    H215022   0.267   4.677   1.715 -2.3271 -0.2483 -1.1694
 5006TIP3   OH215023   4.191   2.488   0.826  0.2755  0.2400  0.5550
 5006TIP3    H115024   4.206   2.398   0.856  2.2483  0.5969  0.7804
 5006TIP3    H215025   4.133   2.526   0.891 -1.2768 -1.0824  0.0195
 5007TIP3   OH215026   5.390   3.897   4.546  0.1730 -0.3413 -0.1160
 5007TIP3    H115027   5.460   3.851   4.593  0.6983  1.0895  0.5478
 5007TIP3    H215028   5.310   3.848   4.567  0.7370 -1.0438  0.4195
 5008TIP3   OH215029   3.725   1.743   1.699 -0.5101  0.2106 -0.0252
 5008TIP3    H115030   3.740   1.707   1.611  0.7307 -1.6741  0.8758
 5008TIP3    H215031   3.655   1.689   1.735  0.1985 -0.2347  0.7413
 5009TIP3   OH215032   0.294   2.076   2.988 -0.4447  0.3465 -0.0208
 5009TIP3    H115033   0.213   2.047   3.029  0.4103 -0.2487  1.3257
 5009TIP3    H215034   0.286   2.171   2.980 -0.5177  0.5266  1.8611
 5010TIP3   OH215035   2.547   0.341   4.563 -0.3378 -0.5928 -0.0470
 5010TIP3    H115036   2.637   0.370   4.579 -0.5032 -0.5709  0.8878
 5010TIP3    H215037   2.537   0.346   4.468  0.0913  1.0679 -0.0325
 5011TIP3   OH215038   5.067   4.330   4.003  0.0780  0.2236 -0.3291
 5011TIP3    H115039   5.023   4.376   3.931 -0.3304 -0.3899 -0.4761
 5011TIP3    H215040   5.146   4.293   3.963 -0.0653  0.0197 -0.4233
 5012TIP3   OH215041   2.606   1.970   4.491 -0.0736 -0.2752 -0.3368
 5012TIP3    H115042   2.697   1.941   4.488  0.1199  0.3185 -2.8282
 5012TIP3    H215043   2.555   1.892   4.470 -0.0708 -0.3562 -0.0494
 5013TIP3   OH215044   2.390   1.719   2.758  0.0057  0.3508  0.4492
 5013TIP3    H115045   2.432   1.664   2.692  0.4373  0.1877  0.8621
 5013TIP3    H215046   2.340   1.783   2.706  0.2949  0.1889 -0.0395
 5014TIP3   OH215047   2.095   4.991   3.037  0.0729  0.3519 -0.2721
 5014TIP3    H115048   2.160   4.966   3.102  1.0566 -0.0310 -1.3632
 5014TIP3    H215049   2.119   5.080   3.012  0.8695 -0.1613 -1.4444
 5015TIP3   OH215050   0.443   2.077   3.686  0.0204  0.6024 -0.2829
 5015TIP3    H115051   0.448   2.029   3.769 -0.0945  1.3519  0.1641
 5015TIP3    H215052   0.529   2.117   3.676 -0.0407  0.7026 -0.4123
 5016TIP3   OH215053   2.979   2.872   3.264 -0.2222 -0.0006  0.1609
 5016TIP3    H115054   3.015   2.938   3.324  1.3302  0.6818 -1.4059
 5016TIP3    H215055   3.055   2.845   3.212 -1.3276 -1.2496 -0.8433
 5017TIP3   OH215056   1.089   3.366   0.028 -0.2277  0.0320  0.2989
 5017TIP3    H115057   1.039   3.443   0.056 -0.4776 -0.3217  0.8262
 5017TIP3    H215058   1.168   3.368   0.082 -0.0422  0.1379  0.0287
 5018TIP3   OH215059   2.765   0.661   3.264 -0.1324 -0.7739 -0.1258
 5018TIP3    H115060   2.802   0.575   3.242  1.3259 -0.3247  0.4392
 5018TIP3    H215061   2.840   0.721   3.260 -1.0981  0.4544 -0.3512
 5019TIP3   OH215062   3.032   3.200   4.455 -0.2151  0.2488 -0.2749
 5019TIP3    H115063   3.115   3.211   4.500 -0.9653  0.0435  1.2088
 5019TIP3    H215064   2.992   3.124   4.497 -2.1580  1.7043  0.6324
 5020TIP3   OH215065   2.735   5.233   2.214  0.5250  0.2381  0.2161
 5020TIP3    H115066   2.787   5.155   2.232 -0.4177  0.1572  3.0729
 5020TIP3    H215067   2.644   5.200   2.211  0.3043  0.9023 -1.0075
 5021TIP3   OH215068   4.621   4.972   2.697  0.2791 -0.6922  0.7648
 5021TIP3    H115069   4.674   5.042   2.735  0.0304 -0.2677  0.3501
 5021TIP3    H215070   4.637   4.896   2.753  1.1925 -0.5273  0.7446
 5022TIP3   OH215071   6.017   4.751   1.856  0.8811 -0.3524  0.3373
 5022TIP3    H115072   6.058   4.821   1.907 -0.2108 -0.3532  1.2329
 5022TIP3    H215073   6.082   4.680   1.856  0.5968 -0.6796  2.4741
 5023TIP3   OH215074   4.224   5.234   4.052 -0.0561 -0.4557 -0.5543
 5023TIP3    H115075   4.132   5.248   4.032 -0.2914 -1.3898 -0.1869
 5023TIP3    H215076   4.226   5.152   4.102  0.7947  0.3925  0.8920
 5024TIP3   OH215077   5.975   3.462   3.828  0.1311 -0.0687  0.0060
 5024TIP3    H115078   5.900   3.495   3.879  0.1984  0.1846 -0.0583
 5024TIP3    H215079   5.935   3.415   3.755  0.0290 -0.8672  0.5590
 5025TIP3   OH215080   2.585   3.940   1.636 -0.0894  0.4014 -0.0949
 5025TIP3    H115081   2.653   3.954   1.701 -0.6522 -1.0593  0.8763
 5025TIP3    H215082   2.631   3.936   1.552  0.9299  0.1712  0.4643
 5026TIP3   OH215083   2.356   0.816   0.076  0.3849  0.0186 -0.0968
 5026TIP3    H115084   2.365   0.894   0.021  0.0582 -0.4359 -0.8228
 5026TIP3    H215085   2.365   0.743   0.014 -0.9947 -0.5036  0.2840
 5027TIP3   OH215086   1.393   5.930   1.327 -0.2072 -0.4763  0.6457
 5027TIP3    H115087   1.333   5.856   1.343  0.2833 -0.8180  0.9227
 5027TIP3    H215088   1.443   5.904   1.250  0.1618 -0.5624  0.9100
 5028TIP3   OH215089   3.472   4.215   0.665  0.1450  0.0874  0.1231
 5028TIP3    H115090   3.484   4.236   0.572  0.6225 -0.3240  0.0874
 5028TIP3    H215091   3.436   4.126   0.665 -0.9876  0.5412  0.2983
 5029TIP3   OH215092   1.609   0.256   2.482  0.2143 -0.6330  0.0207
 5029TIP3    H115093   1.559   0.183   2.444  0.4990  0.0369 -1.7575
 5029TIP3    H215094   1.700   0.226   2.480  0.1317 -1.0226  1.2711
 5030TIP3   OH215095   3.318   2.797   4.451 -0.1519  0.2115  0.1808
 5030TIP3    H115096   3.266   2.842   4.384  0.0088  1.0577  0.6170
 5030TIP3    H215097   3.319   2.856   4.525 -0.0891 -0.6025  0.8465
 5031TIP3   OH215098   4.961   0.389   5.150  0.0527  0.2944  0.1474
 5031TIP3    H115099   5.037   0.438   5.183  1.4509 -0.5069 -1.6694
 5031TIP3    H215100   4.931   0.441   5.074 -0.9255  0.3369  0.5466
 5032TIP3   OH215101   2.215   2.742   2.104 -0.0827 -0.1112  0.1046
 5032TIP3    H115102   2.292   2.723   2.157 -0.3995 -2.1913 -0.0859
 5032TIP3    H215103   2.217   2.837   2.091  3.7161 -0.2730 -1.8277
 5033TIP3   OH215104   1.227   2.614   0.832  0.6787 -0.2927  0.7013
 5033TIP3    H115105   1.265   2.535   0.870  1.5901 -0.0645  0.3034
 5033TIP3    H215106   1.152   2.634   0.888 -0.3224 -2.1129  0.1171
 5034TIP3   OH215107   4.015   1.522   0.100  0.1627 -0.2182  0.0567
 5034TIP3    H115108   4.016   1.525   0.196 -0.1436  2.4626  0.0632
 5034TIP3    H215109   4.106   1.506   0.075  0.4390  0.1400  0.7957
 5035TIP3   OH215110   1.947   2.499   0.016 -0.5721  0.0875  0.4630
 5035TIP3    H115111   1.864   2.533   0.049 -1.8124 -0.3385 -1.9987
 5035TIP3    H215112   1.946   2.406   0.039 -0.7142  0.1132  0.5582
 5036TIP3   OH215113   4.621   0.627   1.597  0.5746 -0.2613 -0.2911
 5036TIP3    H115114   4.655   0.556   1.542  0.3753 -0.0887 -0.6442
 5036TIP3    H215115   4.641   0.600   1.686 -1.8516 -2.0534 -0.1816
 5037TIP3   OH215116   5.350   3.651   3.785 -0.0243  0.2759  0.3638
 5037TIP3    H115117   5.401   3.634   3.865 -0.0085  0.1190  0.3199
 5037TIP3    H215118   5.387   3.591   3.720 -0.4019  0.0182  0.3877
 5038TIP3   OH215119   5.625   5.409   3.581 -0.1449  0.0667 -0.9228
 5038TIP3    H115120   5.602   5.387   3.672  1.1591  0.3699 -0.5042
 5038TIP3    H215121   5.559   5.474   3.555 -0.9798 -0.5737 -0.4635
 5039TIP3   OH215122   0.319   1.232   1.249 -0.1869  0.2829 -0.1030
 5039TIP3    H115123   0.334   1.243   1.155 -0.0634  2.3010  0.0989
 5039TIP3    H215124   0.399   1.265   1.290 -0.5018  0.0373  0.7319
 5040TIP3   OH215125   0.928   2.792   3.663  0.4847 -0.0105 -0.4178
 5040TIP3    H115126   0.879   2.747   3.732 -1.2116  1.8436 -0.3313
 5040TIP3    H215127   0.866   2.800   3.590  1.7235 -0.4596 -1.5616
 5041TIP3   OH215128   4.217   5.769   4.061 -0.2635 -0.0800 -0.6517
 5041TIP3    H115129   4.233   5.715   3.983 -0.0866 -0.0556 -0.6335
 5041TIP3    H215130   4.232   5.709   4.134  1.4140  0.3650 -0.5960
 5042TIP3   OH215131   3.015   2.243   1.588 -0.0984  0.4737  0.2452
 5042TIP3    H115132   3.050   2.157   1.566 -0.3051  1.0107 -2.4664
 5042TIP3    H215133   3.086   2.287   1.635  0.1571 -0.9699  1.2852
 5043TIP3   OH215134   4.265   0.604   0.264  0.0369  0.9387  0.5669
 5043TIP3    H115135   4.217   0.521   0.256 -1.3132  1.5090  2.0852
 5043TIP3    H215136   4.320   0.607   0.186 -0.3160 -1.0958  0.1650
 5044TIP3   OH215137   5.425   2.586   4.919 -0.3188 -0.3152  0.2304
 5044TIP3    H115138   5.518   2.604   4.906 -1.1207  3.1672 -2.2512
 5044TIP3    H215139   5.398   2.541   4.839 -1.1213  0.8191 -0.1781
 5045TIP3   OH215140   3.976   5.250   3.976  0.2121 -0.0688 -0.0768
 5045TIP3    H115141   3.933   5.182   3.925 -3.6033  1.2778  0.9970
 5045TIP3    H215142   3.945   5.332   3.938  0.4765  1.0081  1.8671
 5046TIP3   OH215143   0.289   4.623   2.398  0.0577  0.2678  0.7574
 5046TIP3    H115144   0.344   4.546   2.413  0.5578  0.4403 -0.1313
 5046TIP3    H215145   0.238   4.632   2.479  0.4820 -0.5915  1.1329
 5047TIP3   OH215146   1.025   1.304   2.181  0.3021  0.4028  0.5179
 5047TIP3    H115147   0.987   1.330   2.265  0.5178 -0.2280  0.8164
 5047TIP3    H215148   1.085   1.233   2.203 -0.4762 -0.5220 -0.3153
 5048TIP3   OH215149   1.115   4.591   4.501  0.0644  0.5246  0.0365
 5048TIP3    H115150   1.066   4.519   4.460  0.9521  0.7484 -1.4696
 5048TIP3    H215151   1.206   4.563   4.497  0.2353  0.8397  1.3404
 5049TIP3   OH215152   4.599   2.801   3.488  0.0132 -0.4811  0.1329
 5049TIP3    H115153   4.644   2.718   3.506 -0.3536 -0.5471  0.7629
 5049TIP3    H215154   4.511   2.789   3.523 -0.5048 -0.3456 -1.0822
 5050TIP3   OH215155   6.112   2.724   2.354  0.3118 -0.6838 -0.2337
 5050TIP3    H115156   6.196   2.679   2.347  1.5645  1.4409  0.1332
 5050TIP3    H215157   6.118   2.796   2.291 -1.0299 -0.2068  0.1438
 5051TIP3   OH215158   6.020   2.312   4.256 -0.2135  0.2308  0.1836
 5051TIP3    H115159   6.076   2.333   4.331  2.5891 -0.4739 -1.5327
 5051TIP3    H215160   6.030   2.217   4.246  0.3709  0.4471 -1.6725
 5052TIP3   OH215161   4.374   2.915   4.954  0.5434  0.2260 -0.4307
 5052TIP3    H115162   4.455   2.875   4.925  0.3853 -0.1902 -0.3011
 5052TIP3    H215163   4.310   2.845   4.952  0.0863  0.6456 -0.9325
 5053TIP3   OH215164   1.705   0.794   2.332 -0.2080  0.4407 -0.0843
 5053TIP3    H115165   1.714   0.841   2.414 -0.0632  0.0628  0.1191
 5053TIP3    H215166   1.654   0.715   2.354 -0.3819  0.4583 -0.4026
 5054TIP3   OH215167   5.134   5.222   4.868  0.3134  0.2526  0.0952
 5054TIP3    H115168   5.055   5.240   4.918  1.6749  1.4148  1.9257
 5054TIP3    H215169   5.123   5.272   4.787 -0.8926  0.2334  0.2334
 5055TIP3   OH215170   5.075   0.878   2.385  0.0954  0.2357  0.1717
 5055TIP3    H115171   5.011   0.939   2.347 -0.3415 -1.3107 -1.7218
 5055TIP3    H215172   5.042   0.862   2.474 -1.4148  0.5104 -0.2996
 5056TIP3   OH215173   4.423   1.515   4.722 -0.2428 -0.1038  0.3451
 5056TIP3    H115174   4.393   1.460   4.650  2.2576 -1.6867  0.3984
 5056TIP3    H215175   4.435   1.454   4.795 -0.4354  1.0600  1.3772
 5057TIP3   OH215176   4.545   1.700   0.471  0.0119  0.0733  0.3076
 5057TIP3    H115177   4.568   1.653   0.551  0.5481  1.3691  0.9469
 5057TIP3    H215178   4.608   1.668   0.406 -1.0661 -1.7346  0.0870
 5058TIP3   OH215179   3.512   3.154   2.268  0.4096 -0.2757 -0.1460
 5058TIP3    H115180   3.447   3.165   2.337  0.6486 -3.0353  0.6380
 5058TIP3    H215181   3.578   3.221   2.285 -1.1656  1.2354  0.2656
 5059TIP3   OH215182   5.699   0.803   2.454 -0.2832 -0.0298 -0.4690
 5059TIP3    H115183   5.719   0.721   2.499  1.1298 -0.0335 -1.0501
 5059TIP3    H215184   5.778   0.822   2.403 -0.8241  1.3723 -0.8248
 5060TIP3   OH215185   5.028   2.815   3.185  0.3953 -0.1967  0.2633
 5060TIP3    H115186   4.992   2.898   3.152  2.0452  0.4955  0.1106
 5060TIP3    H215187   4.983   2.801   3.268  0.6957  1.3368  0.7294
 5061TIP3   OH215188   1.546   0.337   0.968  0.3577 -0.0497 -0.4287
 5061TIP3    H115189   1.464   0.370   0.932  0.6565  0.4679 -0.6327
 5061TIP3    H215190   1.614   0.365   0.907  0.8290  0.5483  0.3458
 5062TIP3   OH215191   3.969   0.508   4.335  0.3183  0.8053 -0.3293
 5062TIP3    H115192   3.913   0.531   4.408 -0.8377 -0.0715 -0.9126
 5062TIP3    H215193   3.923   0.542   4.258  1.2118  1.1781 -0.7113
 5063TIP3   OH215194   3.113   1.733   4.879  0.4900 -0.5974  0.1328
 5063TIP3    H115195   3.182   1.800   4.887 -1.5865  1.9335 -1.5144
 5063TIP3    H215196   3.075   1.728   4.967  1.1429 -0.1626  0.4530
 5064TIP3   OH215197   6.326   4.451   2.681  0.0596  0.0301  0.2797
 5064TIP3    H115198   6.355   4.413   2.764  0.1853 -0.5946 -0.0397
 5064TIP3    H215199   6.246   4.404   2.659  1.5725 -1.9555 -1.4047
 5065TIP3   OH215200   3.985   5.422   2.437  0.0168 -0.3680  0.1644
 5065TIP3    H115201   4.065   5.468   2.461 -1.0143  0.1205  3.1082
 5065TIP3    H215202   3.973   5.358   2.507 -2.1655 -0.4366 -0.2106
 5066TIP3   OH215203   2.033   1.086   1.108  0.3965  0.3542  0.0811
 5066TIP3    H115204   2.052   1.157   1.169  1.0276  1.3070 -1.1908
 5066TIP3    H215205   1.941   1.098   1.086  0.7012  1.2733 -0.7351
 5067TIP3   OH215206   5.579   1.080   3.789 -0.1903 -0.0906 -0.1663
 5067TIP3    H115207   5.495   1.069   3.744 -0.8887  1.3653  0.7228
 5067TIP3    H215208   5.572   1.025   3.867 -1.0260  1.2806  0.7802
 5068TIP3   OH215209   2.741   4.395   2.192  0.4597  0.0050  0.4429
 5068TIP3    H115210   2.836   4.399   2.181  0.4007  1.8175  0.2405
 5068TIP3    H215211   2.728   4.402   2.287  0.5209  0.3026  0.4308
 5069TIP3   OH215212   6.003   1.789   0.211  0.2328  0.2349 -0.3243
 5069TIP3    H115213   5.911   1.814   0.206 -0.0237 -0.6560 -0.1398
 5069TIP3    H215214   6.022   1.747   0.127  0.0221 -1.0433  0.2467
 5070TIP3   OH215215   0.254   2.729   0.222  0.2219  0.5787  0.2836
 5070TIP3    H115216   0.176   2.674   0.222 -0.1450  1.0895 -0.2735
 5070TIP3    H215217   0.244   2.785   0.145  1.6074 -0.0144 -0.3480
 5071TIP3   OH215218   4.340   1.938   2.858 -0.1066 -0.3721  0.1140
 5071TIP3    H115219   4.403   2.000   2.895 -0.3298 -0.5716  0.8307
 5071TIP3    H215220   4.260   1.989   2.846  0.1414 -0.1542 -0.6679
 5072TIP3   OH215221   1.761   2.092   2.891  0.7161  0.1970  0.4941
 5072TIP3    H115222   1.779   2.016   2.836  0.3542  0.4037  0.0839
 5072TIP3    H215223   1.676   2.124   2.862  1.0484  1.0086  0.3635
 5073TIP3   OH215224   4.452   3.834   1.112 -0.3001 -0.3293  0.1635
 5073TIP3    H115225   4.414   3.910   1.069 -1.6763 -1.8104 -1.4314
 5073TIP3    H215226   4.547   3.845   1.103 -0.5056  0.6272 -1.0769
 5074TIP3   OH215227   5.242   1.887   3.949 -0.2583 -0.1394 -0.3756
 5074TIP3    H115228   5.298   1.840   4.011 -0.3625  0.2155 -0.0046
 5074TIP3    H215229   5.230   1.974   3.989  0.3142  0.3688 -1.2776
 5075TIP3   OH215230   2.316   0.109   1.294  0.8042  0.2688  0.0511
 5075TIP3    H115231   2.273   0.070   1.219 -1.3533  1.1155  0.7607
 5075TIP3    H215232   2.405   0.074   1.292  0.3116 -1.0269 -1.9054
 5076TIP3   OH215233   2.772   3.286   0.383 -0.0779 -0.0486  0.0979
 5076TIP3    H115234   2.826   3.319   0.311  0.7191  1.4238  1.3224
 5076TIP3    H215235   2.727   3.210   0.346 -0.2718  1.0896 -2.1790
 5077TIP3   OH215236   3.225   3.073   1.771 -0.0254 -0.0639  0.1951
 5077TIP3    H115237   3.130   3.082   1.768  0.2141  3.0102 -2.3134
 5077TIP3    H215238   3.251   3.124   1.848 -0.2555  1.6829 -0.8517
 5078TIP3   OH215239   5.308   2.904   3.657  0.2506  0.3006  0.2266
 5078TIP3    H115240   5.321   2.845   3.583 -0.8115  2.0908 -1.4825
 5078TIP3    H215241   5.396   2.926   3.687  0.7022 -0.2760 -0.6542
 5079TIP3   OH215242   4.873   1.887   3.756  0.2119  0.2612  0.2545
 5079TIP3    H115243   4.887   1.966   3.704  1.9847 -0.7841 -0.9417
 5079TIP3    H215244   4.889   1.815   3.695  0.8783 -1.0120  1.8662
 5080TIP3   OH215245   2.128   5.889   3.692 -0.0862 -0.0225 -0.3493
 5080TIP3    H115246   2.161   5.849   3.612 -0.5786  0.1385 -0.6372
 5080TIP3    H215247   2.122   5.982   3.673  0.1659  0.0718  0.0092
 5081TIP3   OH215248   5.512   0.702   1.288  0.2904 -0.5361  0.3424
 5081TIP3    H115249   5.484   0.741   1.206  0.4773 -1.2916 -0.0963
 5081TIP3    H215250   5.585   0.756   1.317 -0.2165  0.1434  0.3730
 5082TIP3   OH215251   4.432   3.122   3.959 -0.4319  0.2544  1.3679
 5082TIP3    H115252   4.440   3.038   4.003  0.6153 -1.0438 -1.0905
 5082TIP3    H215253   4.505   3.175   3.991  0.3455 -0.6824  1.1695
 5083TIP3   OH215254   3.083   5.193   3.328 -0.2020 -0.0819 -0.2092
 5083TIP3    H115255   3.063   5.214   3.419  1.1143  1.8575 -0.3119
 5083TIP3    H215256   3.087   5.097   3.326 -2.4464 -0.2749  1.2361
 5084TIP3   OH215257   1.960   3.119   0.757  0.3522  0.2392 -0.3210
 5084TIP3    H115258   1.927   3.119   0.846  2.1738  0.8096  0.3920
 5084TIP3    H215259   1.946   3.029   0.726 -1.9992  0.5021 -0.1812
 5085TIP3   OH215260   2.958   4.428   4.677  0.2009 -0.5559  0.1359
 5085TIP3    H115261   2.979   4.490   4.746  0.6200 -1.5976  0.9582
 5085TIP3    H215262   2.868   4.400   4.695 -0.1931  0.2003 -0.5568
 5086TIP3   OH215263   2.084   4.597   4.125 -0.1330 -0.0417 -0.0177
 5086TIP3    H115264   2.160   4.628   4.174 -0.8212  1.1644  0.3219
 5086TIP3    H215265   2.119   4.577   4.038  0.5913  0.4146  0.1555
 5087TIP3   OH215266   4.615   4.506   1.086 -0.2451  0.1236 -0.0175
 5087TIP3    H115267   4.538   4.552   1.119 -0.8128 -0.7549 -0.0730
 5087TIP3    H215268   4.664   4.482   1.165  0.6767  1.8211 -0.0323
 5088TIP3   OH215269   4.048   5.759   4.729  0.4815 -0.2109 -0.3898
 5088TIP3    H115270   4.142   5.774   4.737  0.3425 -0.1675  1.4516
 5088TIP3    H215271   4.012   5.789   4.812 -1.3660  1.2486 -1.6414
 5089TIP3   OH215272   3.345   2.237   0.162 -0.3305 -0.7016  0.1001
 5089TIP3    H115273   3.251   2.224   0.171 -0.6479  0.4859 -1.1579
 5089TIP3    H215274   3.369   2.294   0.236 -0.9072  0.2544 -0.4295
 5090TIP3   OH215275   1.867   1.780   0.587  0.1198 -0.1729 -0.8710
 5090TIP3    H115276   1.801   1.748   0.649 -0.1947 -0.3393 -1.2847
 5090TIP3    H215277   1.904   1.857   0.629 -0.7597  0.2680 -0.8854
 5091TIP3   OH215278   5.124   2.083   1.288 -0.4237  0.0479  0.8594
 5091TIP3    H115279   5.070   2.113   1.215 -1.4014 -1.5895  0.8629
 5091TIP3    H215280   5.137   2.162   1.341 -0.8873  0.9640 -0.3156
 5092TIP3   OH215281   5.433   0.678   1.915  0.0691  0.1495 -0.1416
 5092TIP3    H115282   5.338   0.667   1.916  0.0729  0.1546  0.1230
 5092TIP3    H215283   5.461   0.663   2.005  0.1324  1.7572  0.1384
 5093TIP3   OH215284   3.682   2.068   0.369 -0.3375  0.3984 -0.0404
 5093TIP3    H115285   3.751   2.079   0.303 -0.0635 -0.7266  0.0449
 5093TIP3    H215286   3.676   2.154   0.411  2.2890  0.1019  1.1821
 5094TIP3   OH215287   2.426   1.473   0.458  0.5027 -0.0092 -0.2997
 5094TIP3    H115288   2.371   1.443   0.385  0.2131  0.6048 -0.3372
 5094TIP3    H215289   2.494   1.407   0.465  0.4902 -0.1125 -1.0843
 5095TIP3   OH215290   5.464   0.583   0.979 -0.3074 -0.0568 -0.4377
 5095TIP3    H115291   5.431   0.533   0.905 -1.8091  1.5322 -0.9086
 5095TIP3    H215292   5.487   0.516   1.045 -0.2821 -1.4186 -1.7731
 5096TIP3   OH215293   0.423   2.301   0.056  0.3642  0.3056  0.1774
 5096TIP3    H115294   0.411   2.241   0.130  1.0740  0.9567  0.8444
 5096TIP3    H215295   0.345   2.288   0.002 -0.4043  0.1490  1.2747
 5097TIP3   OH215296   3.196   2.325   0.631  0.0094  0.3736 -0.3340
 5097TIP3    H115297   3.269   2.266   0.612  0.0333  0.2438  0.1709
 5097TIP3    H215298   3.122   2.268   0.650  0.0133  0.5057  0.0815
 5098TIP3   OH215299   2.044   3.672   3.825  0.3937  0.2972 -0.6576
 5098TIP3    H115300   2.099   3.645   3.898 -1.2649  0.3166  0.6503
 5098TIP3    H215301   2.003   3.591   3.795 -1.2338  0.6809  0.4253
 5099TIP3   OH215302   4.397   4.376   3.825 -0.1117 -0.8404  0.3335
 5099TIP3    H115303   4.308   4.412   3.816  0.2425 -0.1367 -0.4905
 5099TIP3    H215304   4.384   4.291   3.867 -1.1436 -0.5815  0.5696
 5100TIP3   OH215305   2.329   0.523   4.771 -0.4233  0.2613 -0.8095
 5100TIP3    H115306   2.313   0.554   4.860  1.6816 -0.7793 -0.0123
 5100TIP3    H215307   2.423   0.506   4.767 -0.5288 -0.1960 -3.0931
 5101TIP3   OH215308   5.010   1.448   3.490  0.5311 -0.0777 -0.1033
 5101TIP3    H115309   4.954   1.380   3.528 -0.5834  1.7445  1.6867
 5101TIP3    H215310   5.038   1.411   3.407 -3.0456 -1.3090 -0.9692
 5102TIP3   OH215311   2.251   1.260   5.131 -0.0804 -0.6608 -0.1466
 5102TIP3    H115312   2.177   1.223   5.178  0.8066 -0.9358  1.0919
 5102TIP3    H215313   2.239   1.355   5.137  0.0393 -0.6951  0.6734
 5103TIP3   OH215314   5.019   4.369   0.645 -0.1879 -0.4294  0.5208
 5103TIP3    H115315   5.050   4.457   0.666 -0.7448  0.5709 -2.3408
 5103TIP3    H215316   4.925   4.381   0.627  0.1775 -1.0111 -2.2739
 5104TIP3   OH215317   3.148   0.378   5.110 -0.1843  0.3425 -0.2719
 5104TIP3    H115318   3.150   0.380   5.014 -1.7751 -1.3473 -0.3836
 5104TIP3    H215319   3.149   0.471   5.135  2.0131  0.8281 -1.8031
 5105TIP3   OH215320   1.811   5.619   4.515 -0.0053  0.1749 -0.1821
 5105TIP3    H115321   1.867   5.614   4.437 -1.2256 -2.4037 -1.0353
 5105TIP3    H215322   1.732   5.570   4.490 -1.7281  1.8234  1.6966
 5106TIP3   OH215323   0.458   3.169   1.853 -0.4143 -0.0455  0.5898
 5106TIP3    H115324   0.547   3.199   1.835 -0.2189 -1.1904 -0.5649
 5106TIP3    H215325   0.452   3.085   1.806 -2.4541  0.5242 -0.2774
 5107TIP3   OH215326   4.551   0.300   1.044 -0.6751 -0.2202 -0.1702
 5107TIP3    H115327   4.513   0.380   1.081 -0.0874 -0.2535  0.5256
 5107TIP3    H215328   4.632   0.329   1.001 -1.3116 -0.1938 -1.3941
 5108TIP3   OH215329   2.965   3.853   1.384 -0.0611  0.4580 -0.4216
 5108TIP3    H115330   2.982   3.850   1.478 -0.2612 -0.5662 -0.4040
 5108TIP3    H215331   2.876   3.817   1.375 -1.1987  3.0788 -0.7658
 5109TIP3   OH215332   0.258   1.053   3.033  0.4796 -0.0562 -0.5046
 5109TIP3    H115333   0.295   0.968   3.007 -0.1647  0.1215 -2.0736
 5109TIP3    H215334   0.312   1.118   2.989  0.0854  0.3065 -0.4553
 5110TIP3   OH215335   6.014   3.811   3.274 -0.1514 -0.0450 -0.3063
 5110TIP3    H115336   5.977   3.798   3.186  0.0672 -1.4853 -0.2165
 5110TIP3    H215337   6.108   3.820   3.259 -0.1086 -0.3382 -0.2190
 5111TIP3   OH215338   2.730   5.818   4.255 -0.2116  0.3419 -0.2421
 5111TIP3    H115339   2.685   5.893   4.218 -0.0775  0.1662 -0.7799
 5111TIP3    H215340   2.755   5.765   4.179  1.7288  0.8982 -0.0406
 5112TIP3   OH215341   4.124   1.789   3.744  0.0490  0.5017  0.1531
 5112TIP3    H115342   4.198   1.823   3.693 -0.8643  0.9212 -0.9247
 5112TIP3    H215343   4.163   1.721   3.800  1.2268  0.6568 -0.4404
 5113TIP3   OH215344   1.456   0.169   4.393 -0.1875 -0.3766 -0.1452
 5113TIP3    H115345   1.531   0.109   4.389 -1.1390 -1.6591  0.4847
 5113TIP3    H215346   1.410   0.144   4.473 -1.8319 -0.2943 -1.0267
 5114TIP3   OH215347   6.288   5.042   4.055 -0.3207  0.3111  0.2458
 5114TIP3    H115348   6.221   4.975   4.046 -0.6923  0.7498 -0.3105
 5114TIP3    H215349   6.267   5.107   3.987  1.4844 -0.2397 -0.9208
 5115TIP3   OH215350   1.896   2.521   4.968 -0.8854  0.4040 -0.1456
 5115TIP3    H115351   1.980   2.559   4.992 -0.4155 -0.4638 -0.3993
 5115TIP3    H215352   1.840   2.597   4.949 -0.7203  1.0500  1.7700
 5116TIP3   OH215353   1.037   1.890   2.582 -0.8865  0.3808  0.0140
 5116TIP3    H115354   1.018   1.962   2.521 -2.6167 -0.8276 -0.9581
 5116TIP3    H215355   1.132   1.888   2.587 -0.7764  2.7799  0.1414
 5117TIP3   OH215356   0.604   2.740   2.452 -0.0040 -0.3025  0.0970
 5117TIP3    H115357   0.692   2.761   2.421  0.5487 -1.9771  0.4370
 5117TIP3    H215358   0.571   2.823   2.488  0.7631  0.7493 -1.5320
 5118TIP3   OH215359   5.064   2.506   0.490 -0.4461  0.4171  0.4215
 5118TIP3    H115360   5.068   2.599   0.469 -2.8554  0.9533  1.9331
 5118TIP3    H215361   5.056   2.503   0.586 -1.8252 -1.2246  0.3188
 5119TIP3   OH215362   0.776   2.664   5.105 -0.2104 -0.0002 -0.2817
 5119TIP3    H115363   0.871   2.674   5.102 -0.1263 -0.6869 -0.2241
 5119TIP3    H215364   0.745   2.741   5.152  0.6767 -1.6959  3.4074
 5120TIP3   OH215365   3.154   5.943   2.028 -0.4174 -0.0914 -0.1373
 5120TIP3    H115366   3.061   5.933   2.051 -0.1144 -0.1690  1.1377
 5120TIP3    H215367   3.190   5.855   2.039 -0.1031  0.0340 -0.1757
 5121TIP3   OH215368   0.807   5.476   4.745 -0.2347 -0.4486 -0.2040
 5121TIP3    H115369   0.809   5.442   4.834 -0.4217 -2.8043 -1.0350
 5121TIP3    H215370   0.759   5.410   4.694  0.3289  0.5495 -2.1630
 5122TIP3   OH215371   1.852   1.584   1.484  0.8373  0.5259  0.0749
 5122TIP3    H115372   1.887   1.528   1.415  1.3438 -0.0337  0.7765
 5122TIP3    H215373   1.857   1.673   1.448  1.7238  0.3096 -0.3481
 5123TIP3   OH215374   4.325   0.663   0.898 -0.3899  0.2916 -0.8861
 5123TIP3    H115375   4.272   0.742   0.882 -0.7067  0.0192 -1.1871
 5123TIP3    H215376   4.362   0.641   0.813  0.1056  0.4004 -0.7033
 5124TIP3   OH215377   1.301   0.432   0.856 -0.8867 -0.9027 -0.1670
 5124TIP3    H115378   1.318   0.527   0.854 -1.2904 -0.8376 -0.7158
 5124TIP3    H215379   1.232   0.419   0.791 -0.0083 -1.7398 -0.9611
 5125TIP3   OH215380   5.388   2.105   4.948  0.1675 -0.5804 -0.4224
 5125TIP3    H115381   5.434   2.118   5.032  0.7617 -0.5464 -0.7494
 5125TIP3    H215382   5.309   2.158   4.956 -0.5619 -1.7724  0.7252
 5126TIP3   OH215383   3.945   0.869   3.924 -0.0870  0.2624 -0.1743
 5126TIP3    H115384   3.954   0.777   3.948  1.4654  0.5271  0.4002
 5126TIP3    H215385   3.960   0.871   3.830 -1.7075 -0.2386 -0.4711
 5127TIP3   OH215386   3.255   2.775   1.492 -0.2810  0.3836  0.0950
 5127TIP3    H115387   3.184   2.723   1.454  0.9375 -0.0289 -1.7411
 5127TIP3    H215388   3.260   2.853   1.436  1.3334 -0.0709 -0.4592
 5128TIP3   OH215389   3.869   3.797   2.807 -0.3694 -0.3041  0.0813
 5128TIP3    H115390   3.778   3.828   2.811 -0.2147  0.0946  0.6951
 5128TIP3    H215391   3.891   3.779   2.899  0.2988 -0.0097 -0.0202
 5129TIP3   OH215392   0.866   4.053   2.570  0.6594  0.1392  0.2724
 5129TIP3    H115393   0.875   3.983   2.506  0.0491 -0.8715  1.2524
 5129TIP3    H215394   0.803   4.114   2.531  0.6572 -0.2181 -0.2851
 5130TIP3   OH215395   1.311   0.609   2.224 -0.4035 -0.0727 -0.4628
 5130TIP3    H115396   1.387   0.551   2.236 -0.7527 -0.6230 -0.8305
 5130TIP3    H215397   1.307   0.661   2.304 -0.1073 -0.6025 -0.0950
 5131TIP3   OH215398   0.701   5.596   0.253 -0.6948 -0.5145  0.0641
 5131TIP3    H115399   0.780   5.589   0.305 -1.3089 -0.3391  1.0500
 5131TIP3    H215400   0.732   5.614   0.164  0.3424  0.1014  0.5353
 5132TIP3   OH215401   5.654   1.893   4.926  0.0542  0.0376  0.4051
 5132TIP3    H115402   5.615   1.968   4.883  0.5080  0.2204  0.3038
 5132TIP3    H215403   5.585   1.827   4.929  0.4920 -0.6423 -2.2055
 5133TIP3   OH215404   2.727   4.820   2.435 -0.2896 -0.1838 -0.3274
 5133TIP3    H115405   2.766   4.739   2.402 -0.7473 -0.7495  0.4852
 5133TIP3    H215406   2.642   4.793   2.470 -1.6132  1.0496 -2.3454
 5134TIP3   OH215407   1.772   3.215   0.530 -0.6242 -0.3204 -0.7315
 5134TIP3    H115408   1.747   3.295   0.576  2.0611 -0.1778  0.6851
 5134TIP3    H215409   1.831   3.170   0.591  1.0637 -1.4081 -3.0135
 5135TIP3   OH215410   1.785   4.952   0.818  0.1439  0.0983  0.3091
 5135TIP3    H115411   1.870   4.937   0.776  0.3531  1.0462  0.3702
 5135TIP3    H215412   1.737   5.006   0.756  0.0385  0.5833  0.8088
 5136TIP3   OH215413   4.446   5.433   1.122 -0.1854  0.3342  0.3777
 5136TIP3    H115414   4.515   5.433   1.055 -0.5321  1.7805 -0.0045
 5136TIP3    H215415   4.475   5.498   1.186  0.4832 -1.5135  2.0652
 5137TIP3   OH215416   5.452   0.522   3.544  0.1423 -0.5903 -0.5606
 5137TIP3    H115417   5.520   0.551   3.482 -0.3516  0.2251 -0.7313
 5137TIP3    H215418   5.466   0.576   3.622 -0.3410 -0.3794 -0.6166
 5138TIP3   OH215419   4.209   5.718   1.676  0.1287 -0.0620 -0.3363
 5138TIP3    H115420   4.265   5.648   1.708 -0.7637 -0.8596 -0.4855
 5138TIP3    H215421   4.213   5.709   1.580 -0.9316 -0.6849 -0.3333
 5139TIP3   OH215422   4.736   5.367   1.908  0.1130  0.1152  0.0760
 5139TIP3    H115423   4.656   5.315   1.918  0.3290 -0.2509 -0.0615
 5139TIP3    H215424   4.788   5.318   1.843  0.1495  0.7109 -0.3482
 5140TIP3   OH215425   5.778   4.930   1.463 -0.0746 -0.2836 -0.1081
 5140TIP3    H115426   5.807   4.923   1.372 -0.3161  2.6352 -0.4961
 5140TIP3    H215427   5.853   4.967   1.510  0.1084 -1.9144  0.9867
 5141TIP3   OH215428   2.149   5.260   1.286 -0.0750  0.0931 -0.1673
 5141TIP3    H115429   2.195   5.297   1.211 -0.9733 -0.5553 -1.0493
 5141TIP3    H215430   2.056   5.277   1.269 -0.4930 -2.1397 -0.3991
 5142TIP3   OH215431   2.657   2.769   1.899 -0.2188  0.3846 -0.2252
 5142TIP3    H115432   2.644   2.786   1.806  0.6868  0.4315 -0.3520
 5142TIP3    H215433   2.631   2.851   1.941 -0.0209  0.5837 -0.4873
 5143TIP3   OH215434   1.230   4.180   1.735 -0.0577 -0.1952 -0.1877
 5143TIP3    H115435   1.155   4.182   1.794  0.4686 -0.4185  0.5076
 5143TIP3    H215436   1.260   4.270   1.731 -1.6145  0.3068 -2.1525
 5144TIP3   OH215437   0.729   4.667   2.529  0.3019  0.0696 -0.6438
 5144TIP3    H115438   0.750   4.575   2.545 -1.5731 -0.1542  0.9084
 5144TIP3    H215439   0.789   4.715   2.586  0.5349 -0.2509 -0.6143
 5145TIP3   OH215440   4.970   2.572   3.081 -0.0903  0.7072  0.0288
 5145TIP3    H115441   4.999   2.529   3.161 -0.7336  0.3551  0.0725
 5145TIP3    H215442   5.001   2.662   3.090  3.5094 -0.2449 -1.1550
 5146TIP3   OH215443   1.700   1.043   0.522  0.0333  0.0119 -0.2058
 5146TIP3    H115444   1.796   1.046   0.523  0.1133 -1.3843 -0.8704
 5146TIP3    H215445   1.677   1.073   0.434 -0.1452  0.3475 -0.0449
 5147TIP3   OH215446   2.930   4.275   3.062 -0.6565 -0.1746  0.2459
 5147TIP3    H115447   2.951   4.257   2.970  0.1440 -1.8486  0.7204
 5147TIP3    H215448   2.918   4.370   3.065 -1.8365 -0.1903 -1.8052
 5148TIP3   OH215449   3.953   3.780   3.729  0.5038  0.1122 -0.0141
 5148TIP3    H115450   3.987   3.699   3.768 -0.6874  0.2180  1.3331
 5148TIP3    H215451   3.984   3.778   3.639  0.0931 -2.1059 -0.1666
 5149TIP3   OH215452   1.278   1.096   1.072  0.2010  0.1391 -0.1745
 5149TIP3    H115453   1.346   1.113   1.137  0.4034  0.2727 -0.4198
 5149TIP3    H215454   1.202   1.069   1.123  0.7838 -1.1449  0.0433
 5150TIP3   OH215455   0.688   0.937   5.092  0.4050  0.0089 -0.6076
 5150TIP3    H115456   0.651   1.025   5.090 -1.7724 -0.7451  1.7823
 5150TIP3    H215457   0.653   0.895   5.013  3.4435  1.8350 -3.1716
 5151TIP3   OH215458   3.597   0.419   2.560 -0.1452 -0.7095  0.3818
 5151TIP3    H115459   3.526   0.444   2.619 -1.6330  1.4478 -2.1065
 5151TIP3    H215460   3.675   0.416   2.616 -1.7704 -0.8564  2.7823
 5152TIP3   OH215461   4.771   1.561   0.359  0.5569  0.3933 -0.0190
 5152TIP3    H115462   4.780   1.466   0.372 -0.4180  0.2366 -0.3907
 5152TIP3    H215463   4.785   1.574   0.265 -0.7094  0.4205 -0.2202
 5153TIP3   OH215464   3.095   4.416   1.021 -0.0827 -0.1343  0.1638
 5153TIP3    H115465   3.172   4.424   0.965 -0.2103  1.1077  0.1209
 5153TIP3    H215466   3.082   4.505   1.056 -3.1930  0.4767 -2.1181
 5154TIP3   OH215467   6.263   4.867   1.038 -0.1769  0.1166 -0.4149
 5154TIP3    H115468   6.356   4.860   1.016  0.1864  0.2036  0.9898
 5154TIP3    H215469   6.217   4.851   0.955  1.0591 -0.9764 -0.9122
 5155TIP3   OH215470   1.917   4.674   2.183 -0.2363 -0.0933 -0.4246
 5155TIP3    H115471   1.926   4.654   2.276  0.8589 -0.6749 -0.6358
 5155TIP3    H215472   1.857   4.608   2.150 -1.4439  0.7394  0.0515
 5156TIP3   OH215473   2.410   1.383   1.275 -0.2518 -0.0702 -0.0893
 5156TIP3    H115474   2.357   1.463   1.278  0.5474  0.4905 -0.5274
 5156TIP3    H215475   2.500   1.414   1.285 -0.0270 -1.0521  1.0551
 5157TIP3   OH215476   5.461   0.340   2.580  0.0257  0.1393  0.3363
 5157TIP3    H115477   5.494   0.367   2.665 -0.2760 -0.5932  0.6968
 5157TIP3    H215478   5.379   0.389   2.569  1.5116  2.5522 -0.9008
 5158TIP3   OH215479   3.400   1.013   5.098 -0.1792 -0.0877 -0.1619
 5158TIP3    H115480   3.387   1.076   5.027 -0.7624  0.0511  0.0593
 5158TIP3    H215481   3.411   1.066   5.176  2.1901 -0.1807 -0.3661
 5159TIP3   OH215482   2.577   1.838   5.020 -0.3979  0.0829 -0.3174
 5159TIP3    H115483   2.550   1.755   4.980  0.4871 -0.7281  0.7009
 5159TIP3    H215484   2.622   1.812   5.101  1.1519  1.4743 -0.6838
 5160TIP3   OH215485   5.760   1.684   2.789 -0.7074  0.6747 -0.3768
 5160TIP3    H115486   5.841   1.702   2.741  1.2484 -0.9511  2.0274
 5160TIP3    H215487   5.728   1.602   2.753  0.3542 -0.1644  0.5126
 5161TIP3   OH215488   5.150   5.363   4.630  0.4282  0.4838  0.2393
 5161TIP3    H115489   5.193   5.423   4.569  0.0961  0.6960  0.2156
 5161TIP3    H215490   5.057   5.378   4.617  0.3394 -0.1084  0.1639
 5162TIP3   OH215491   4.421   5.411   3.952  0.0037 -0.4520 -0.3961
 5162TIP3    H115492   4.360   5.352   3.997 -1.0435  0.0686 -1.1018
 5162TIP3    H215493   4.444   5.476   4.018  0.2398 -0.9730  0.0418
 5163TIP3   OH215494   4.823   1.662   4.841 -0.4661  0.7151  0.0155
 5163TIP3    H115495   4.811   1.568   4.825  0.5924  0.5893 -0.0931
 5163TIP3    H215496   4.843   1.668   4.934  1.7042  0.5763 -0.3945
 5164TIP3   OH215497   0.910   5.392   2.864  0.0115  0.6671 -0.0621
 5164TIP3    H115498   0.894   5.321   2.801  2.5375  2.9629 -3.6388
 5164TIP3    H215499   0.990   5.366   2.909 -0.9467 -0.2312  1.2278
 5165TIP3   OH215500   5.467   4.041   4.035 -1.0300 -0.6144  0.3553
 5165TIP3    H115501   5.471   4.129   4.073 -0.3422 -0.7195  0.5437
 5165TIP3    H215502   5.459   3.983   4.111  0.9047 -0.8632  0.4144
 5166TIP3   OH215503   4.343   1.421   4.471 -0.0247  0.1002  0.1546
 5166TIP3    H115504   4.312   1.337   4.436 -0.3935  0.0538  0.5901
 5166TIP3    H215505   4.280   1.485   4.440  1.2025  0.5033 -1.6544
 5167TIP3   OH215506   6.268   1.241   4.539 -0.2775  0.4503  0.7030
 5167TIP3    H115507   6.251   1.292   4.618 -0.1616  0.8013  0.5089
 5167TIP3    H215508   6.210   1.280   4.473 -0.8445 -0.2542  0.7701
 5168TIP3   OH215509   1.194   5.950   3.901  0.3483 -0.0569 -0.0293
 5168TIP3    H115510   1.284   5.980   3.888 -0.0706  1.7422  0.9031
 5168TIP3    H215511   1.204   5.861   3.935  1.7968  0.2803  0.5336
 5169TIP3   OH215512   4.553   1.727   2.121  0.5410  0.7747 -0.3737
 5169TIP3    H115513   4.524   1.663   2.185 -1.5732  2.5468  0.5639
 5169TIP3    H215514   4.619   1.681   2.069  0.3408 -1.5733  1.3109
 5170TIP3   OH215515   0.330   3.915   3.954 -0.4329 -0.7278 -0.3381
 5170TIP3    H115516   0.412   3.955   3.981  0.4808 -2.5074 -0.3657
 5170TIP3    H215517   0.308   3.958   3.872 -1.1221  1.8501  1.0876
 5171TIP3   OH215518   5.202   1.827   2.613 -0.0463 -0.5254 -0.5805
 5171TIP3    H115519   5.225   1.749   2.663 -0.2656  0.0640  0.4567
 5171TIP3    H215520   5.277   1.840   2.554 -0.3637 -1.9707 -1.3450
 5172TIP3   OH215521   1.055   5.399   4.250 -0.0865 -0.3032 -0.7416
 5172TIP3    H115522   1.050   5.307   4.276 -0.7258 -0.7516 -2.2896
 5172TIP3    H215523   1.139   5.407   4.205  0.5626  0.2136  0.5277
 5173TIP3   OH215524   0.024   0.231   1.144  0.3493  0.1334 -0.3184
 5173TIP3    H115525  -0.012   0.239   1.056  0.2377 -0.3153 -0.3156
 5173TIP3    H215526   0.058   0.318   1.164 -0.6770  0.5490 -0.3424
 5174TIP3   OH215527   4.925   4.084   2.975  0.0449  0.0180 -0.8277
 5174TIP3    H115528   4.895   4.171   2.953 -0.4628  0.3492  0.9987
 5174TIP3    H215529   4.847   4.029   2.972 -0.2640  0.2886  1.0478
 5175TIP3   OH215530   4.815   2.201   3.330 -0.2607  0.0449 -0.3282
 5175TIP3    H115531   4.734   2.169   3.291 -0.1256 -0.8212  0.0888
 5175TIP3    H215532   4.799   2.295   3.345 -0.9997 -0.0168 -0.6990
 5176TIP3   OH215533   1.822   5.399   2.994  0.3801  0.1828  0.3569
 5176TIP3    H115534   1.782   5.369   2.913  1.3558 -1.5537  0.4785
 5176TIP3    H215535   1.804   5.493   2.996 -0.8924  0.0121 -1.1409
 5177TIP3   OH215536   3.981   2.585   3.493  0.4597 -0.2080 -0.1432
 5177TIP3    H115537   4.041   2.570   3.566 -1.1856 -0.0928  1.2931
 5177TIP3    H215538   3.966   2.497   3.457 -2.2645 -1.0384  2.6439
 5178TIP3   OH215539   3.795   0.210   5.066  0.1083 -0.2748 -0.2076
 5178TIP3    H115540   3.869   0.204   5.126  0.1802  0.0602 -0.2645
 5178TIP3    H215541   3.753   0.124   5.072  0.4069 -0.4111 -0.0548
 5179TIP3   OH215542   4.739   1.601   4.516 -0.3038  0.4442 -0.4699
 5179TIP3    H115543   4.809   1.636   4.460 -0.3507 -1.9600 -2.1919
 5179TIP3    H215544   4.780   1.589   4.601  1.1357 -0.0252 -1.1924
 5180TIP3   OH215545   4.520   0.119   2.462  0.5408  0.3885 -0.1399
 5180TIP3    H115546   4.470   0.037   2.464  1.3880 -0.2283 -1.9781
 5180TIP3    H215547   4.592   0.105   2.523  0.8090 -0.3442 -0.6084
 5181TIP3   OH215548   2.969   0.312   1.601  0.1910 -0.3429 -0.9430
 5181TIP3    H115549   3.057   0.284   1.628  1.7850  3.2379 -1.8598
 5181TIP3    H215550   2.939   0.370   1.672  0.0565  1.0767 -2.1036
 5182TIP3   OH215551   5.090   4.881   3.011 -0.3741 -0.1873 -0.2162
 5182TIP3    H115552   5.098   4.786   3.004 -2.2742 -0.5967  1.9065
 5182TIP3    H215553   5.171   4.909   3.054 -0.9714 -1.2907  1.7494
 5183TIP3   OH215554   2.929   3.869   2.316  0.3300  0.6302 -0.1961
 5183TIP3    H115555   2.845   3.836   2.349  0.1089 -0.0690 -1.3748
 5183TIP3    H215556   2.994   3.815   2.360  0.1547  1.0144  0.5471
 5184TIP3   OH215557   3.791   2.902   0.337  0.3271 -0.5774  0.9767
 5184TIP3    H115558   3.811   2.811   0.317 -1.1442 -0.3147 -2.3033
 5184TIP3    H215559   3.718   2.898   0.398 -1.7395 -1.7418 -1.4180
 5185TIP3   OH215560   1.748   0.817   4.481 -0.2604 -0.0320  0.0099
 5185TIP3    H115561   1.671   0.853   4.437  0.6761 -0.5627 -2.1528
 5185TIP3    H215562   1.713   0.754   4.543 -1.6679  1.2979  0.6367
 5186TIP3   OH215563   0.660   0.104   3.660 -0.8201 -0.2564 -0.0510
 5186TIP3    H115564   0.675   0.034   3.724  2.0574 -0.7452 -1.0843
 5186TIP3    H215565   0.666   0.060   3.575  2.0964  1.2729 -0.7702
 5187TIP3   OH215566   6.147   3.751   0.240  0.3106  0.5334 -0.1055
 5187TIP3    H115567   6.211   3.750   0.311  0.5008  3.4699 -0.1107
 5187TIP3    H215568   6.192   3.711   0.166  1.2813  0.3903  0.5485
 5188TIP3   OH215569   5.115   5.647   0.920  0.1560 -0.7948  0.0683
 5188TIP3    H115570   5.037   5.696   0.948 -0.8994 -2.1693 -0.3897
 5188TIP3    H215571   5.095   5.620   0.830  0.8164 -1.8339  0.2216
 5189TIP3   OH215572   5.368   4.857   4.963 -0.3003 -0.6441  0.1246
 5189TIP3    H115573   5.410   4.781   4.925  0.1050 -0.8438  0.9538
 5189TIP3    H215574   5.407   4.932   4.918 -2.3278 -0.9407 -2.3494
 5190TIP3   OH215575   1.099   3.879   1.917 -0.0047  0.0156 -0.5126
 5190TIP3    H115576   1.110   3.890   1.823  1.3513 -0.4398 -0.4313
 5190TIP3    H215577   1.186   3.896   1.954  0.2395 -2.6341  0.3652
 5191TIP3   OH215578   1.045   2.482   3.746  0.3250 -0.3690 -0.0190
 5191TIP3    H115579   0.964   2.530   3.732 -0.1564 -1.1386  0.0325
 5191TIP3    H215580   1.075   2.510   3.833 -0.1927 -0.5071  0.2052
 5192TIP3   OH215581   0.725   3.243   0.418 -0.0157 -0.2667 -0.0287
 5192TIP3    H115582   0.692   3.199   0.496 -0.0605 -0.3865 -0.1155
 5192TIP3    H215583   0.646   3.278   0.376 -0.0958 -1.0540 -0.5470
 5193TIP3   OH215584   5.795   4.816   4.797  0.0291 -0.0075  0.0002
 5193TIP3    H115585   5.856   4.835   4.868 -0.2393  2.0914 -0.2932
 5193TIP3    H215586   5.851   4.791   4.723  0.3659 -0.9510  0.5589
 5194TIP3   OH215587   1.695   5.145   2.838  0.1439  0.4155  0.6459
 5194TIP3    H115588   1.753   5.104   2.902 -0.8829  0.1994  1.4789
 5194TIP3    H215589   1.709   5.097   2.757  0.5739 -0.1134  1.0297
 5195TIP3   OH215590   5.212   0.478   2.634 -0.5813 -0.2590 -0.1513
 5195TIP3    H115591   5.123   0.505   2.611 -0.7331 -0.6604 -0.0402
 5195TIP3    H215592   5.244   0.548   2.690  0.1590  1.2503 -2.3208
 5196TIP3   OH215593   2.792   2.171   0.650 -0.1487 -0.0901  0.1702
 5196TIP3    H115594   2.733   2.095   0.657  0.0480 -0.2056  0.5392
 5196TIP3    H215595   2.792   2.191   0.556 -1.2078  0.2516  0.2223
 5197TIP3   OH215596   0.917   4.789   4.207 -0.0553 -0.4149 -0.5607
 5197TIP3    H115597   0.948   4.820   4.292 -0.0220 -0.4716 -0.5516
 5197TIP3    H215598   0.822   4.789   4.214 -0.0454 -0.7933 -0.3845
 5198TIP3   OH215599   1.959   2.712   2.166 -0.2431 -0.0487  0.0708
 5198TIP3    H115600   2.052   2.713   2.145 -0.0896 -3.9892 -0.0819
 5198TIP3    H215601   1.953   2.752   2.254  1.6543 -0.3040  0.3394
 5199TIP3   OH215602   5.510   1.143   1.417 -0.1780 -0.6516 -0.5785
 5199TIP3    H115603   5.418   1.165   1.429 -0.3222 -1.8889  0.8428
 5199TIP3    H215604   5.512   1.088   1.339 -0.2785  1.2596 -2.0194
 5200TIP3   OH215605   5.566   5.412   5.134 -0.4233  0.1952  0.2155
 5200TIP3    H115606   5.537   5.497   5.167 -0.1548  0.0803  0.7606
 5200TIP3    H215607   5.554   5.352   5.207 -1.1780 -0.3693 -0.3521
 5201TIP3   OH215608   4.565   5.570   1.857  0.1992 -0.1389  0.4722
 5201TIP3    H115609   4.614   5.635   1.907 -0.6348  0.3629  0.6609
 5201TIP3    H215610   4.618   5.491   1.860  1.2657  0.5524  0.1854
 5202TIP3   OH215611   0.618   2.485   4.605  0.8481  0.2100  0.0696
 5202TIP3    H115612   0.523   2.496   4.595  1.2823  2.1782 -3.3992
 5202TIP3    H215613   0.635   2.509   4.696 -1.8684  0.6974  0.5489
 5203TIP3   OH215614   6.010   5.869   0.375  0.2226 -0.2325  0.1802
 5203TIP3    H115615   6.065   5.797   0.406  0.1517  0.4805  2.0784
 5203TIP3    H215616   6.071   5.927   0.329  0.6479 -0.4991  0.3970
 5204TIP3   OH215617   5.795   1.945   4.254  0.1551  0.3968 -0.4882
 5204TIP3    H115618   5.731   1.952   4.184 -0.9049  0.6352  0.4765
 5204TIP3    H215619   5.770   1.866   4.302  0.9122  0.1931 -0.4185
 5205TIP3   OH215620   0.543   0.143   3.349  0.0954 -0.2707  0.5253
 5205TIP3    H115621   0.616   0.103   3.396 -0.1090 -0.1104  0.9824
 5205TIP3    H215622   0.561   0.126   3.257  1.0178  0.2970  0.5978
 5206TIP3   OH215623   0.019   2.166   3.654  0.5734 -0.3445  0.0130
 5206TIP3    H115624  -0.042   2.187   3.725  1.5167  0.7951  0.5103
 5206TIP3    H215625   0.106   2.183   3.691  1.0774  4.2727 -2.5159
 5207TIP3   OH215626   5.616   3.958   1.208  0.6677 -0.0581  0.0618
 5207TIP3    H115627   5.633   3.867   1.231  1.1863 -0.1121 -0.5362
 5207TIP3    H215628   5.548   3.985   1.270  1.1615 -0.5720  0.8590
 5208TIP3   OH215629   1.924   1.292   4.935 -0.1594  0.5086  0.5099
 5208TIP3    H115630   1.998   1.242   4.903  0.5821  1.7866  0.1479
 5208TIP3    H215631   1.909   1.359   4.868 -2.5603 -0.5581 -0.1359
 5209TIP3   OH215632   1.636   1.070   2.440  0.0470 -0.1890  0.4142
 5209TIP3    H115633   1.684   1.144   2.477 -2.5654  0.3103  3.1949
 5209TIP3    H215634   1.664   0.995   2.491 -0.7484 -0.2169  0.8304
 5210TIP3   OH215635   2.220   1.476   2.815  0.2092 -0.3119 -0.1886
 5210TIP3    H115636   2.276   1.431   2.878  0.0320  0.7708  0.7790
 5210TIP3    H215637   2.279   1.533   2.766  0.0121  0.7236  0.7355
 5211TIP3   OH215638   0.164   2.902   2.829  0.1588 -0.0652  0.2003
 5211TIP3    H115639   0.129   2.845   2.760 -0.7102  0.4451  0.2048
 5211TIP3    H215640   0.095   2.904   2.896 -0.3991  1.9832 -0.3695
 5212TIP3   OH215641   0.596   5.456   0.982 -0.8178  0.1692 -0.3628
 5212TIP3    H115642   0.628   5.538   0.944 -2.4970  0.8747 -0.3462
 5212TIP3    H215643   0.560   5.482   1.067  1.7040 -1.1715  1.2311
 5213TIP3   OH215644   0.178   0.234   4.152 -0.2455 -0.2702  0.2123
 5213TIP3    H115645   0.163   0.210   4.060  2.0851 -0.9270 -0.0647
 5213TIP3    H215646   0.119   0.308   4.167 -0.1770  0.3363 -2.0527
 5214TIP3   OH215647   4.392   0.267   4.432  0.4031  0.4688  0.1360
 5214TIP3    H115648   4.312   0.262   4.379  1.0151 -0.7611 -0.7155
 5214TIP3    H215649   4.360   0.271   4.522 -0.6463  2.1570 -0.2732
 5215TIP3   OH215650   0.388   4.260   5.126  0.4804 -0.3852 -0.2668
 5215TIP3    H115651   0.383   4.217   5.041  0.9474 -4.6653  1.6062
 5215TIP3    H215652   0.299   4.256   5.161  0.3862  0.9354 -0.2843
 5216TIP3   OH215653   1.192   3.553   1.616  0.3286 -0.3838 -0.4457
 5216TIP3    H115654   1.114   3.545   1.670 -0.4321  3.0729 -0.8042
 5216TIP3    H215655   1.264   3.560   1.679  0.0457 -0.9409 -0.0487
 5217TIP3   OH215656   5.332   1.325   0.418 -0.8149  1.0055 -0.0451
 5217TIP3    H115657   5.340   1.420   0.430  1.8245  1.3458 -3.2436
 5217TIP3    H215658   5.415   1.290   0.451 -0.8735  0.0796 -0.8336
 5218TIP3   OH215659   5.543   1.283   4.938 -0.4316 -0.4384 -0.1964
 5218TIP3    H115660   5.478   1.227   4.982 -1.7066  1.0261 -0.1007
 5218TIP3    H215661   5.542   1.364   4.989 -0.1518  0.4146 -1.4990
 5219TIP3   OH215662   3.545   3.301   0.797  0.1627  0.0062 -0.1281
 5219TIP3    H115663   3.496   3.355   0.735 -1.0235  0.3468  1.0739
 5219TIP3    H215664   3.628   3.283   0.752 -0.1358  1.3248 -1.2799
 5220TIP3   OH215665   0.782   1.747   0.849 -0.2179  0.1445  0.0475
 5220TIP3    H115666   0.845   1.675   0.848  0.1447  0.4358  0.7478
 5220TIP3    H215667   0.837   1.826   0.842 -0.5313  0.3868  0.3162
 5221TIP3   OH215668   6.347   3.364   2.554 -0.1926 -0.2924 -0.1562
 5221TIP3    H115669   6.363   3.309   2.631 -0.9958 -1.2494 -0.6463
 5221TIP3    H215670   6.292   3.435   2.587  1.4550  0.6763  0.6408
 5222TIP3   OH215671   5.707   2.535   4.109 -0.0793  0.1081  0.4260
 5222TIP3    H115672   5.701   2.440   4.121 -1.7247  0.2087  0.6461
 5222TIP3    H215673   5.780   2.562   4.164 -0.3126 -0.8886  1.2541
 5223TIP3   OH215674   6.248   2.942   5.099 -0.1943  0.2468  0.4579
 5223TIP3    H115675   6.196   2.862   5.110 -0.2748  0.3949  1.2274
 5223TIP3    H215676   6.279   2.938   5.009  1.1918 -1.4829  0.9498
 5224TIP3   OH215677   5.428   5.366   2.361  0.7952  0.0269  0.4200
 5224TIP3    H115678   5.429   5.272   2.379 -1.5463  0.0704  1.1542
 5224TIP3    H215679   5.405   5.406   2.445 -0.5790  1.0378 -0.3921
 5225TIP3   OH215680   1.770   3.955   3.454  0.4174  0.1135 -0.0670
 5225TIP3    H115681   1.831   4.027   3.471  1.2648 -0.3553 -0.9501
 5225TIP3    H215682   1.745   3.923   3.540 -0.3410  1.7476  0.3511
 5226TIP3   OH215683   1.467   3.221   0.656 -0.1320  0.0783  0.3061
 5226TIP3    H115684   1.487   3.146   0.600 -0.2341 -0.8780  1.4883
 5226TIP3    H215685   1.544   3.277   0.650  0.1866 -0.3978 -0.1698
 5227TIP3   OH215686   6.213   3.605   0.878  0.2535 -0.5721 -0.3251
 5227TIP3    H115687   6.189   3.600   0.785  0.2999 -0.4723 -0.3428
 5227TIP3    H215688   6.255   3.691   0.887 -1.0637  0.0439  0.1013
 5228TIP3   OH215689   6.292   5.422   3.591 -0.3636  0.2885 -0.2504
 5228TIP3    H115690   6.276   5.423   3.497  0.0314  0.4642 -0.3175
 5228TIP3    H215691   6.386   5.410   3.599 -0.4075  0.1918  0.1256
 5229TIP3   OH215692   6.256   1.523   2.802  0.1406  0.0771  0.0455
 5229TIP3    H115693   6.266   1.592   2.737  0.8549 -0.1452 -0.0889
 5229TIP3    H215694   6.190   1.557   2.863  1.1741  1.3207  0.5325
 5230TIP3   OH215695   1.792   0.020   0.749 -0.0241  0.8391 -0.0099
 5230TIP3    H115696   1.740   0.025   0.669 -0.1170  1.2893  0.0801
 5230TIP3    H215697   1.848   0.097   0.747  1.4673 -0.2191 -0.6712
 5231TIP3   OH215698   1.308   4.741   2.201 -0.2820 -0.3229  0.0754
 5231TIP3    H115699   1.283   4.648   2.201 -0.6902 -0.2479 -1.5954
 5231TIP3    H215700   1.264   4.778   2.278  0.6236 -1.6712  1.2992
 5232TIP3   OH215701   0.281   1.192   2.571  0.0967 -0.8205  0.2473
 5232TIP3    H115702   0.212   1.157   2.514  0.1692 -1.0485  0.2974
 5232TIP3    H215703   0.358   1.197   2.515  0.0501 -0.6036  0.2019
 5233TIP3   OH215704   5.065   1.360   2.864  0.3082 -0.5933  0.0297
 5233TIP3    H115705   5.136   1.297   2.872 -0.3201 -1.2295  0.8066
 5233TIP3    H215706   5.108   1.444   2.847  1.1434 -1.2690 -1.3411
 5234TIP3   OH215707   3.645   0.056   2.251 -0.2227  0.3014  0.5329
 5234TIP3    H115708   3.634   0.145   2.283 -0.1291  0.6794 -0.4648
 5234TIP3    H215709   3.557   0.028   2.226  0.0750  1.0602 -1.5509
 5235TIP3   OH215710   3.467   3.207   5.116  0.4187  0.1682  0.2892
 5235TIP3    H115711   3.546   3.181   5.069  0.6919  2.0456 -0.4087
 5235TIP3    H215712   3.450   3.136   5.177  1.7535 -0.9848 -0.6279
 5236TIP3   OH215713   4.083   4.386   3.396 -0.6045 -0.1560  0.0097
 5236TIP3    H115714   4.131   4.304   3.402  1.1643  0.7079 -1.3954
 5236TIP3    H215715   4.073   4.402   3.302 -2.2054  0.5358  0.2628
 5237TIP3   OH215716   2.137   2.560   4.534 -0.3256 -0.2535 -0.1319
 5237TIP3    H115717   2.224   2.534   4.503  0.0244 -0.4704  1.0199
 5237TIP3    H215718   2.126   2.514   4.617 -0.9002  0.9825  0.4982
 5238TIP3   OH215719   5.805   2.587   1.120 -0.0402 -0.0296  0.4231
 5238TIP3    H115720   5.791   2.532   1.043 -0.7596  1.5410 -0.6070
 5238TIP3    H215721   5.859   2.660   1.089  0.2601  0.2763  1.5856
 5239TIP3   OH215722   5.226   3.091   3.155  0.3469  0.1673  0.2498
 5239TIP3    H115723   5.255   3.181   3.147  0.3867  0.0976 -0.5051
 5239TIP3    H215724   5.149   3.095   3.212  0.4471  0.6506  0.3525
 5240TIP3   OH215725   6.297   5.077   3.027  0.6987 -0.1264 -0.6026
 5240TIP3    H115726   6.335   5.013   3.088 -0.8988 -0.4935  0.0679
 5240TIP3    H215727   6.371   5.133   3.002  1.0471  1.9277  3.9488
 5241TIP3   OH215728   5.085   3.713   3.944  0.1912  0.2168 -0.5902
 5241TIP3    H115729   5.072   3.793   3.996  1.1389 -0.3075  0.4995
 5241TIP3    H215730   5.168   3.726   3.899 -0.9986  0.9953 -2.6600
 5242TIP3   OH215731   0.926   1.850   0.197  0.1182  0.4315 -0.1508
 5242TIP3    H115732   0.897   1.845   0.106  1.9344 -0.5186 -0.7276
 5242TIP3    H215733   0.866   1.794   0.245  1.0042 -1.6635 -1.3409
 5243TIP3   OH215734   5.453   0.939   2.298 -0.0538  0.8247  0.1931
 5243TIP3    H115735   5.411   0.923   2.214  0.4222  2.3494 -0.3659
 5243TIP3    H215736   5.529   0.881   2.298  0.2880  1.2553 -0.7122
 5244TIP3   OH215737   3.447   1.690   2.027  0.4249 -0.2144  0.5481
 5244TIP3    H115738   3.389   1.698   1.950  1.7499 -2.1711 -0.7543
 5244TIP3    H215739   3.393   1.646   2.093  0.0938 -1.1356 -0.3065
 5245TIP3   OH215740   2.863   2.102   3.175  0.1325 -0.2958  0.6690
 5245TIP3    H115741   2.901   2.189   3.164  0.1622 -0.2542  1.0875
 5245TIP3    H215742   2.935   2.042   3.158  0.2051 -0.2322  0.7537
 5246TIP3   OH215743   4.513   2.406   4.901 -0.0016  0.6712  0.3384
 5246TIP3    H115744   4.527   2.487   4.853  0.8325  0.2144 -0.2269
 5246TIP3    H215745   4.503   2.339   4.833 -0.4438  0.2604  0.7932
 5247TIP3   OH215746   5.806   5.578   4.320  0.8292 -0.2938 -0.4328
 5247TIP3    H115747   5.853   5.560   4.402  1.7760  1.2667 -0.5965
 5247TIP3    H215748   5.822   5.500   4.266 -0.0470 -1.4761  0.9380
 5248TIP3   OH215749   0.621   1.540   3.881  0.2466 -0.1430 -0.2461
 5248TIP3    H115750   0.655   1.456   3.852 -0.7919 -0.9795  0.8037
 5248TIP3    H215751   0.660   1.553   3.968 -0.2626  0.0289 -0.0375
 5249TIP3   OH215752   4.834   5.273   5.048 -0.2479 -0.0854 -0.1295
 5249TIP3    H115753   4.894   5.213   5.093  0.1715 -1.9370 -2.8631
 5249TIP3    H215754   4.808   5.336   5.115  1.6111 -1.5859  2.1869
 5250TIP3   OH215755   4.496   5.450   3.329  0.3534 -0.6820 -0.3852
 5250TIP3    H115756   4.453   5.485   3.251 -0.8974 -0.3518  0.4265
 5250TIP3    H215757   4.456   5.498   3.402  1.7339 -0.7381  0.4498
 5251TIP3   OH215758   6.017   5.541   3.936 -0.0986  0.4472 -0.2628
 5251TIP3    H115759   6.008   5.539   3.841 -1.9349 -1.4888 -0.1240
 5251TIP3    H215760   5.951   5.603   3.965 -0.8189 -0.3390 -0.1833
 5252TIP3   OH215761   4.517   2.346   4.053 -0.1764  0.0137  0.3372
 5252TIP3    H115762   4.595   2.292   4.044 -1.3921 -1.6631 -0.7596
 5252TIP3    H215763   4.550   2.435   4.061  1.9527 -0.8866  3.1999
 5253TIP3   OH215764   1.251   1.853   3.789  0.2178  0.7050 -0.7868
 5253TIP3    H115765   1.242   1.773   3.736 -1.5176 -0.1811  0.7339
 5253TIP3    H215766   1.206   1.920   3.738 -2.0994 -0.3001 -0.2184
 5254TIP3   OH215767   5.353   1.219   0.988  0.0354 -0.1367 -0.3367
 5254TIP3    H115768   5.364   1.290   0.925 -0.3583 -0.3075 -0.6003
 5254TIP3    H215769   5.363   1.139   0.936  1.6007 -0.3050  0.1443
 5255TIP3   OH215770   5.006   1.087   2.628 -0.2065  0.2703 -0.0709
 5255TIP3    H115771   5.070   1.027   2.667  0.9635  1.3113 -0.3661
 5255TIP3    H215772   4.926   1.073   2.680  1.4270  1.9997  3.2249
 5256TIP3   OH215773   0.478   4.377   4.405  0.0470  0.2420 -0.6446
 5256TIP3    H115774   0.466   4.305   4.467  0.1346 -0.9395 -1.9355
 5256TIP3    H215775   0.573   4.391   4.403  0.1216 -0.2666 -1.0717
 5257TIP3   OH215776   1.207   0.469   0.028  0.5656  0.5773  0.8216
 5257TIP3    H115777   1.258   0.550   0.040 -0.2129  1.3794 -0.8601
 5257TIP3    H215778   1.258   0.402   0.072  1.9164  1.7648  1.1559
 5258TIP3   OH215779   4.009   2.325   2.654  0.6415  0.0550  0.4584
 5258TIP3    H115780   3.930   2.311   2.706  1.1746  1.2086  1.6423
 5258TIP3    H215781   3.982   2.386   2.586 -0.0124 -1.3118 -0.5559
 5259TIP3   OH215782   1.502   0.643   2.661 -0.0037  0.1695  0.3042
 5259TIP3    H115783   1.564   0.716   2.672 -1.6528  1.6234  0.3558
 5259TIP3    H215784   1.480   0.617   2.751  1.9581 -1.6987  0.3255
 5260TIP3   OH215785   5.547   1.632   3.983 -0.4462 -0.4415 -0.1162
 5260TIP3    H115786   5.542   1.551   3.933  0.4724 -1.2123  0.9994
 5260TIP3    H215787   5.465   1.634   4.033 -0.4204 -0.7394 -0.0593
 5261TIP3   OH215788   4.356   1.195   0.906 -0.2466  0.3625  0.0058
 5261TIP3    H115789   4.333   1.288   0.898 -0.1906  0.3477 -0.3264
 5261TIP3    H215790   4.363   1.164   0.816 -0.6105 -0.0519  0.1202
 5262TIP3   OH215791   4.166   1.054   3.831  0.1578 -0.5046  0.2018
 5262TIP3    H115792   4.155   1.142   3.794 -1.9064 -1.4216 -1.6248
 5262TIP3    H215793   4.139   1.062   3.922  1.4231  1.0169  0.4841
 5263TIP3   OH215794   2.315   4.374   0.773  0.4816  0.6021  0.0475
 5263TIP3    H115795   2.253   4.302   0.766  1.0668  0.0505  0.4413
 5263TIP3    H215796   2.385   4.352   0.710 -0.3141  1.8515 -1.3431
 5264TIP3   OH215797   2.591   0.718   0.464 -0.0026 -0.1624  0.0671
 5264TIP3    H115798   2.639   0.681   0.390  0.0977 -0.3776  0.2415
 5264TIP3    H215799   2.509   0.750   0.426  0.0670 -0.2339 -0.1436
 5265TIP3   OH215800   2.651   0.918   3.923 -0.0641 -0.3545 -0.3781
 5265TIP3    H115801   2.734   0.965   3.915  0.6521 -1.7153 -1.2974
 5265TIP3    H215802   2.622   0.936   4.012  0.4024  1.4303 -0.5431
 5266TIP3   OH215803   6.335   0.652   4.847 -0.1348  0.1672 -0.0327
 5266TIP3    H115804   6.403   0.714   4.821 -0.3951  0.2949 -0.4111
 5266TIP3    H215805   6.275   0.703   4.902  1.6303 -0.6175  2.8415
 5267TIP3   OH215806   2.277   1.357   0.257  0.0506  0.5321  0.0807
 5267TIP3    H115807   2.226   1.407   0.194 -0.7000  0.6651  0.7788
 5267TIP3    H215808   2.303   1.277   0.209  0.2312  1.0171 -0.6491
 5268TIP3   OH215809   1.061   1.406   4.432  0.0582 -0.3879 -0.5039
 5268TIP3    H115810   1.060   1.500   4.414  1.2817 -0.3406 -0.3789
 5268TIP3    H215811   1.077   1.400   4.526  1.1549 -0.7246 -0.7020
 5269TIP3   OH215812   2.434   3.630   3.684 -0.2509 -0.3561  0.3568
 5269TIP3    H115813   2.446   3.725   3.676 -1.5824 -0.2126 -0.1722
 5269TIP3    H215814   2.347   3.614   3.649 -0.9120 -1.5215  2.3902
 5270TIP3   OH215815   5.193   4.694   0.231 -0.6034  0.2051  0.3048
 5270TIP3    H115816   5.232   4.774   0.265  0.9990 -0.4400  0.1046
 5270TIP3    H215817   5.150   4.653   0.306 -0.7614  0.8577  0.5746
 5271TIP3   OH215818   5.383   4.567   4.439  0.2277 -0.6001 -0.3468
 5271TIP3    H115819   5.387   4.531   4.527 -1.7249  1.9476  0.9203
 5271TIP3    H215820   5.447   4.639   4.439  0.3194 -0.6689 -1.0841
 5272TIP3   OH215821   3.149   5.475   4.274 -0.1219  1.1079 -0.5064
 5272TIP3    H115822   3.144   5.441   4.185  0.5327 -0.3207 -0.0434
 5272TIP3    H215823   3.231   5.525   4.276  0.5379  0.0719 -0.4079
 5273TIP3   OH215824   6.264   3.533   0.105 -0.0742  0.2270 -0.6069
 5273TIP3    H115825   6.333   3.512   0.043 -0.8436 -0.0019 -1.4039
 5273TIP3    H215826   6.185   3.540   0.052 -0.6458  0.6181  0.2675
 5274TIP3   OH215827   2.124   2.175   1.375  0.2042  0.0451 -0.5358
 5274TIP3    H115828   2.195   2.117   1.347 -1.3065 -2.0101 -0.3698
 5274TIP3    H215829   2.160   2.223   1.450  0.6287 -3.0260  1.4203
 5275TIP3   OH215830   2.457   1.217   1.054  0.3971  0.4623 -0.4384
 5275TIP3    H115831   2.403   1.233   0.977  0.4599 -0.1927 -0.6230
 5275TIP3    H215832   2.425   1.279   1.120 -0.7093 -0.0552 -0.4744
 5276TIP3   OH215833   1.753   2.346   4.674  0.3592  0.0889  0.4533
 5276TIP3    H115834   1.765   2.439   4.692  1.7922 -0.1079  0.6288
 5276TIP3    H215835   1.822   2.325   4.611  0.1677 -0.8957  0.5617
 5277TIP3   OH215836   1.397   5.106   2.822  0.0416 -0.0273 -0.2758
 5277TIP3    H115837   1.372   5.073   2.909 -0.3398  0.0014 -0.3712
 5277TIP3    H215838   1.482   5.147   2.836  0.2117 -0.4676 -0.0181
 5278TIP3   OH215839   5.924   1.960   2.267  0.2180  0.0444 -0.6101
 5278TIP3    H115840   5.954   1.894   2.204 -0.8693 -0.8246 -0.2495
 5278TIP3    H215841   5.867   2.018   2.217  0.7858  0.4375 -0.8154
 5279TIP3   OH215842   1.901   4.316   3.386 -0.0152 -0.0741 -0.1304
 5279TIP3    H115843   1.937   4.405   3.375 -1.3109  0.4495 -0.3205
 5279TIP3    H215844   1.895   4.283   3.296 -3.7406  1.4202 -0.6252
 5280TIP3   OH215845   5.940   1.345   3.992 -0.2345 -0.3806  0.1488
 5280TIP3    H115846   6.023   1.379   4.024  0.1215  0.1703 -1.2636
 5280TIP3    H215847   5.875   1.411   4.018 -0.0994 -0.3984  0.5304
 5281TIP3   OH215848   0.429   3.190   0.725 -0.2128 -0.2609  0.1400
 5281TIP3    H115849   0.427   3.176   0.631 -0.9876  0.5376  0.0226
 5281TIP3    H215850   0.505   3.141   0.756 -0.3582 -1.1065 -0.7995
 5282TIP3   OH215851   0.032   2.037   0.581  0.3030 -0.2990  0.4191
 5282TIP3    H115852   0.002   2.040   0.672  1.0926 -0.3465  0.6949
 5282TIP3    H215853   0.111   1.982   0.584  0.9445  0.5622 -0.1064
 5283TIP3   OH215854   5.036   5.151   3.300 -0.4437 -0.2811  0.5235
 5283TIP3    H115855   5.094   5.075   3.292  0.8922  0.7109  0.4055
 5283TIP3    H215856   5.076   5.217   3.243  0.0543  1.4769  2.8030
 5284TIP3   OH215857   2.460   3.236   1.406  0.2908 -0.8568  0.3786
 5284TIP3    H115858   2.392   3.297   1.433 -0.1107 -1.4168  0.6643
 5284TIP3    H215859   2.412   3.157   1.380  0.7583 -0.8633 -0.5267
 5285TIP3   OH215860   5.257   4.355   1.895 -0.0585 -0.2912  0.2503
 5285TIP3    H115861   5.242   4.291   1.965  3.1901 -1.8315 -0.2856
 5285TIP3    H215862   5.327   4.411   1.928  1.1344 -0.6843 -1.5092
 5286TIP3   OH215863   1.612   2.576   3.298  0.0255  0.3274 -0.9321
 5286TIP3    H115864   1.585   2.521   3.371  0.9570 -0.9579 -1.5058
 5286TIP3    H215865   1.584   2.529   3.220  0.0791  1.0970 -1.4338
 5287TIP3   OH215866   4.074   5.684   0.967 -0.2849  0.0171  0.3068
 5287TIP3    H115867   4.117   5.769   0.974  0.8246 -0.4417 -0.6637
 5287TIP3    H215868   4.018   5.692   0.890  0.9995 -0.5962 -0.7288
 5288TIP3   OH215869   0.440   3.357   0.923 -0.0276 -0.0808  0.2719
 5288TIP3    H115870   0.431   3.304   0.844  1.4016  0.9222 -0.5992
 5288TIP3    H215871   0.522   3.328   0.963  2.7214  3.5593 -2.0341
 5289TIP3   OH215872   1.681   5.800   1.259 -0.0271  0.5598  0.0675
 5289TIP3    H115873   1.632   5.827   1.182 -1.4341 -0.0096  0.7171
 5289TIP3    H215874   1.765   5.771   1.225 -0.9848 -0.6915 -1.4165
 5290TIP3   OH215875   1.414   1.264   2.607  0.0671  0.0019  0.3752
 5290TIP3    H115876   1.396   1.310   2.689  1.7619 -2.1867  2.0970
 5290TIP3    H215877   1.335   1.212   2.592 -1.0404  1.8460 -0.5086
 5291TIP3   OH215878   1.172   0.046   1.494  0.1917 -0.2398 -0.1934
 5291TIP3    H115879   1.266   0.036   1.486  0.1812  0.5044 -1.6240
 5291TIP3    H215880   1.138  -0.043   1.499  0.7860 -0.6746 -2.5993
 5292TIP3   OH215881   4.160   4.243   2.586 -0.2814  0.2388 -0.7612
 5292TIP3    H115882   4.147   4.212   2.496 -0.4183  1.8075 -1.2999
 5292TIP3    H215883   4.081   4.214   2.632 -0.6824  0.3017 -1.3917
 5293TIP3   OH215884   2.095   4.914   4.124 -0.6204  0.4458 -0.4430
 5293TIP3    H115885   2.053   4.828   4.120 -2.2728  1.1443  0.7871
 5293TIP3    H215886   2.067   4.958   4.044 -2.7943  1.0878  0.5943
 5294TIP3   OH215887   4.208   3.729   5.064  0.2819 -0.2174  0.0305
 5294TIP3    H115888   4.254   3.780   4.997 -0.9687 -0.2146 -0.8421
 5294TIP3    H215889   4.220   3.638   5.037  1.7948 -0.3981  1.1339
 5295TIP3   OH215890   4.626   1.080   0.471 -0.1041 -0.0835 -0.2261
 5295TIP3    H115891   4.589   1.113   0.389  0.0372  0.3899 -0.1058
 5295TIP3    H215892   4.613   0.986   0.468 -1.7139  0.1082  0.0029
 5296TIP3   OH215893   0.692   4.046   1.302 -0.1794  0.2015 -0.4717
 5296TIP3    H115894   0.729   4.105   1.235  0.6092 -0.1754 -0.3821
 5296TIP3    H215895   0.725   3.960   1.278 -0.0027  0.0437  0.3185
 5297TIP3   OH215896   3.687   1.570   1.990 -0.1774 -0.0753 -0.1884
 5297TIP3    H115897   3.676   1.488   1.942 -1.6496  0.1731 -0.3249
 5297TIP3    H215898   3.600   1.611   1.988  0.3779  1.1892  0.4198
 5298TIP3   OH215899   0.298   0.847   0.836  0.0844 -0.1567  0.0908
 5298TIP3    H115900   0.345   0.896   0.904 -0.3348  0.0489  0.2301
 5298TIP3    H215901   0.343   0.763   0.832 -0.5144 -0.5519  1.3275
 5299TIP3   OH215902   5.734   0.344   1.077 -0.3191  0.4325  0.9106
 5299TIP3    H115903   5.641   0.343   1.102  0.0969 -0.9073  2.5211
 5299TIP3    H215904   5.772   0.417   1.126 -0.2916  0.2780  1.1174
 5300TIP3   OH215905   1.984   0.214   1.876  0.1535 -0.0246  0.3463
 5300TIP3    H115906   1.893   0.188   1.870  0.4380 -0.9848  0.1230
 5300TIP3    H215907   1.986   0.276   1.950 -0.8821  1.0242 -0.4588
 5301TIP3   OH215908   3.894   0.978   0.698 -0.3710 -0.4222  0.0754
 5301TIP3    H115909   3.856   0.902   0.742 -0.2609 -0.7806 -0.4420
 5301TIP3    H215910   3.960   1.011   0.760 -1.0999 -0.1492  0.7202
 5302TIP3   OH215911   3.376   0.563   3.560  0.5696  0.1292  0.2467
 5302TIP3    H115912   3.458   0.610   3.550  0.3505  0.2845 -0.9647
 5302TIP3    H215913   3.401   0.478   3.595  0.9482  1.1874  2.8416
 5303TIP3   OH215914   4.899   4.335   1.768 -0.2463 -0.1234 -0.5199
 5303TIP3    H115915   4.979   4.380   1.740 -0.8141  1.6672  0.5913
 5303TIP3    H215916   4.872   4.380   1.848 -0.2613 -3.2082  1.3728
 5304TIP3   OH215917   2.277   1.573   0.952  0.0890 -0.8691 -0.0404
 5304TIP3    H115918   2.246   1.613   0.871 -1.6473  0.8125  1.3626
 5304TIP3    H215919   2.244   1.483   0.948  0.5517 -0.9944 -1.4407
 5305TIP3   OH215920   6.053   4.335   0.589 -1.0849 -0.1433 -0.0685
 5305TIP3    H115921   6.082   4.413   0.542  0.0466 -0.6980 -0.3174
 5305TIP3    H215922   5.979   4.365   0.642 -0.1865  1.2579  0.4187
 5306TIP3   OH215923   2.522   3.820   1.892 -0.7630 -0.4127  0.0229
 5306TIP3    H115924   2.580   3.891   1.920  0.0745 -1.9820  2.7036
 5306TIP3    H215925   2.535   3.814   1.798  1.1340  1.2647  0.1002
 5307TIP3   OH215926   3.602   0.739   4.129 -0.5665 -0.3923  0.8063
 5307TIP3    H115927   3.601   0.790   4.209 -0.5129 -0.1718  0.6680
 5307TIP3    H215928   3.546   0.664   4.147 -0.0276 -0.6838  1.2750
 5308TIP3   OH215929   2.044   2.964   1.317 -0.0741 -0.5144 -0.2336
 5308TIP3    H115930   2.040   3.055   1.288 -1.1916 -0.2523  0.6557
 5308TIP3    H215931   2.105   2.922   1.257  2.8110  1.4719  1.1169
 5309TIP3   OH215932   6.124   3.183   3.564 -0.0516 -0.3432 -0.3536
 5309TIP3    H115933   6.152   3.113   3.506  0.4922 -1.6336  1.3592
 5309TIP3    H215934   6.107   3.139   3.648  1.4044  1.7142  1.1183
 5310TIP3   OH215935   3.657   2.592   0.949  0.1273 -0.4227  0.0191
 5310TIP3    H115936   3.611   2.674   0.966  0.9529  0.1913 -0.6238
 5310TIP3    H215937   3.593   2.538   0.902 -0.0630  0.2614 -0.5143
 5311TIP3   OH215938   4.487   3.031   3.188  0.0031 -0.3692 -0.0006
 5311TIP3    H115939   4.476   2.965   3.120 -1.2843 -1.0160  0.7945
 5311TIP3    H215940   4.455   3.112   3.149  0.5152 -0.4387 -0.5912
 5312TIP3   OH215941   2.904   3.878   3.890  0.0586  0.6474 -0.5783
 5312TIP3    H115942   2.837   3.818   3.925  0.8261  1.0274  1.7654
 5312TIP3    H215943   2.862   3.920   3.815 -1.0118 -1.7378 -1.4309
 5313TIP3   OH215944   2.520   0.929   2.501 -0.3361 -0.8997 -0.2113
 5313TIP3    H115945   2.555   0.876   2.572  1.9117  0.4436 -0.2143
 5313TIP3    H215946   2.461   0.991   2.543  0.9475 -0.1412  0.5349
 5314TIP3   OH215947   3.521   1.468   3.847 -0.4636 -0.6958  0.5235
 5314TIP3    H115948   3.451   1.518   3.806  0.1546  0.7263  1.1457
 5314TIP3    H215949   3.511   1.484   3.941 -0.4145 -1.9769  0.7677
 5315TIP3   OH215950   2.190   3.615   1.972  0.4391 -0.0972  0.1237
 5315TIP3    H115951   2.177   3.536   1.919  0.1439  1.1901 -1.8342
 5315TIP3    H215952   2.130   3.679   1.934  2.2293  1.7237  0.2168
 5316TIP3   OH215953   3.815   4.146   3.491 -0.3406  0.3507  0.0998
 5316TIP3    H115954   3.782   4.108   3.572  0.2113 -0.0242  0.1514
 5316TIP3    H215955   3.886   4.088   3.464 -1.8968 -0.8382 -1.8371
 5317TIP3   OH215956   1.503   0.671   1.949 -0.2458  0.1302 -0.3627
 5317TIP3    H115957   1.410   0.668   1.972 -0.1286  0.6748  0.2219
 5317TIP3    H215958   1.534   0.754   1.986  0.1823  0.5832 -1.6656
 5318TIP3   OH215959   1.681   4.943   2.380  0.0471  0.2694  0.3705
 5318TIP3    H115960   1.671   4.875   2.314  2.0306 -0.4874  0.7952
 5318TIP3    H215961   1.595   4.948   2.422 -0.3592 -1.4150 -0.1853
 5319TIP3   OH215962   4.397   3.267   3.101  0.3778 -0.4604 -0.6006
 5319TIP3    H115963   4.363   3.300   3.184  0.4796  1.2443 -1.2139
 5319TIP3    H215964   4.319   3.238   3.053 -0.0903  1.7258 -1.2567
 5320TIP3   OH215965   6.186   3.457   1.543 -0.4428  0.5451  0.6100
 5320TIP3    H115966   6.133   3.391   1.499  1.4012  0.0503 -1.0131
 5320TIP3    H215967   6.272   3.415   1.554 -0.3666  1.2199  3.3614
 5321TIP3   OH215968   5.317   3.754   2.742  0.6058 -0.5338  0.0940
 5321TIP3    H115969   5.346   3.836   2.702  0.4574 -1.2123 -1.4784
 5321TIP3    H215970   5.287   3.779   2.829  1.5271  0.9109  0.0346
 5322TIP3   OH215971   2.966   1.422   3.243 -0.0929  0.2469  0.2557
 5322TIP3    H115972   2.995   1.442   3.332  1.3962 -0.1178 -0.1178
 5322TIP3    H215973   3.038   1.371   3.205  0.8790  3.1350 -2.2638
 5323TIP3   OH215974   0.991   3.540   4.734  0.6656  0.4690  0.1831
 5323TIP3    H115975   0.909   3.541   4.783  0.4450 -0.7971 -0.1234
 5323TIP3    H215976   0.963   3.541   4.642  1.0436  1.6427  0.0719
 5324TIP3   OH215977   4.191   5.032   2.515 -1.0502 -0.4029 -0.3026
 5324TIP3    H115978   4.199   4.947   2.473 -1.3889 -0.6021  0.0337
 5324TIP3    H215979   4.108   5.028   2.562 -0.8973 -0.0134  0.0022
 5325TIP3   OH215980   3.193   4.242   2.755 -0.4104 -0.6311 -0.3012
 5325TIP3    H115981   3.182   4.201   2.669  0.2692 -1.1104 -0.1681
 5325TIP3    H215982   3.199   4.168   2.816 -1.1877 -0.2908  0.2055
 5326TIP3   OH215983   3.997   4.977   0.044  0.8140 -0.2842 -0.2910
 5326TIP3    H115984   3.962   5.054  -0.001 -0.7513 -0.8477 -0.1184
 5326TIP3    H215985   4.082   5.005   0.077  0.6278  1.1144 -0.9128
 5327TIP3   OH215986   3.434   3.466   0.617 -0.4774  0.2249  0.4595
 5327TIP3    H115987   3.417   3.444   0.526 -0.2613 -1.5637  0.8152
 5327TIP3    H215988   3.439   3.561   0.618  1.6493  0.2446 -1.7779
 5328TIP3   OH215989   3.286   2.995   3.396 -0.4957  0.0730 -0.1110
 5328TIP3    H115990   3.281   2.988   3.301 -0.0375  0.7132 -0.1913
 5328TIP3    H215991   3.197   3.019   3.423 -0.5727  0.1171 -0.4021
 5329TIP3   OH215992   1.019   1.425   4.728  0.1755 -0.1542  0.1552
 5329TIP3    H115993   0.927   1.418   4.704  0.8604  1.2207 -3.4166
 5329TIP3    H215994   1.049   1.334   4.731 -1.2907 -0.6459  1.7437
 5330TIP3   OH215995   5.750   1.736   4.405 -0.3049 -0.4342  0.0695
 5330TIP3    H115996   5.774   1.686   4.483  0.0806 -0.1705  0.1226
 5330TIP3    H215997   5.656   1.721   4.395 -0.1718 -1.2613  0.0195
 5331TIP3   OH215998   3.852   3.841   5.076  0.2332  0.3250  0.0191
 5331TIP3    H115999   3.777   3.792   5.041 -0.5418  1.0891  0.5738
 5331TIP3    H216000   3.908   3.855   4.999  0.3115 -1.1170 -0.2118
 5332TIP3   OH216001   3.550   1.508   1.727  0.3562  0.3817 -0.2353
 5332TIP3    H116002   3.468   1.472   1.761 -0.1167  0.7845 -0.9186
 5332TIP3    H216003   3.609   1.434   1.721 -0.2975 -0.1105 -0.7279
 5333TIP3   OH216004   1.030   2.987   1.744  0.0501  0.4187 -0.0730
 5333TIP3    H116005   1.024   3.077   1.712 -0.1914  0.5915  0.4370
 5333TIP3    H216006   1.001   2.933   1.671 -0.1497  0.7807 -0.2649
 5334TIP3   OH216007   2.418   1.969   1.621  0.3161 -0.2866 -0.5552
 5334TIP3    H116008   2.401   2.061   1.601  0.2857 -0.4187 -1.1774
 5334TIP3    H216009   2.410   1.925   1.536 -0.2546 -0.9523 -0.1611
 5335TIP3   OH216010   4.989   5.862   3.832 -0.4218  0.2122  0.0097
 5335TIP3    H116011   4.917   5.823   3.882 -1.4872 -0.1219 -1.6991
 5335TIP3    H216012   5.044   5.787   3.808  0.1983  0.3966  0.8185
 5336TIP3   OH216013   4.553   5.551   4.150  0.1222 -0.1211  0.1604
 5336TIP3    H116014   4.490   5.613   4.186  0.8516  1.2633 -0.8302
 5336TIP3    H216015   4.638   5.584   4.179  0.6257  0.2450 -1.5938
 5337TIP3   OH216016   1.377   1.881   4.045  0.0261  0.4502  0.2838
 5337TIP3    H116017   1.324   1.802   4.055  1.6239 -0.4671  2.2793
 5337TIP3    H216018   1.349   1.918   3.961 -2.3200 -1.0169  0.3248
 5338TIP3   OH216019   0.563   5.359   4.918  0.6384 -0.3390  0.0718
 5338TIP3    H116020   0.535   5.323   4.834 -0.7241 -1.4806  0.9591
 5338TIP3    H216021   0.543   5.290   4.981  0.4456  0.9660  1.5025
 5339TIP3   OH216022   2.034   0.843   0.703  0.2497  0.3691 -0.3559
 5339TIP3    H116023   2.111   0.867   0.652  0.1781  0.8635 -0.2339
 5339TIP3    H216024   2.044   0.891   0.785  0.0522  0.0633 -0.1515
 5340TIP3   OH216025   4.528   2.588   3.265 -0.1244 -0.4127 -0.8428
 5340TIP3    H116026   4.540   2.683   3.262 -0.7527 -0.3545 -2.1869
 5340TIP3    H216027   4.435   2.575   3.281 -0.2494 -0.7818 -1.8014
 5341TIP3   OH216028   3.345   1.216   0.666  0.5533 -0.1028 -0.6027
 5341TIP3    H116029   3.396   1.136   0.681  0.3329 -0.5790 -2.2316
 5341TIP3    H216030   3.273   1.188   0.609 -0.9554  0.7739  0.7644
 5342TIP3   OH216031   4.958   4.342   2.825  0.1031 -0.4909  0.0095
 5342TIP3    H116032   4.969   4.398   2.748 -1.5340 -1.8465 -1.2765
 5342TIP3    H216033   5.048   4.315   2.846  0.6555  0.4396 -0.9875
 5343TIP3   OH216034   2.724   0.816   3.569 -0.1920 -0.0712 -0.2070
 5343TIP3    H116035   2.741   0.740   3.514  1.8543  0.3849 -0.2746
 5343TIP3    H216036   2.797   0.818   3.631  0.1456  2.1840 -0.5971
 5344TIP3   OH216037   1.909   3.263   4.934 -0.1278 -0.1052 -0.1761
 5344TIP3    H116038   1.948   3.263   5.021  0.9747 -0.8943 -0.6332
 5344TIP3    H216039   1.855   3.184   4.931 -1.9584  1.0530  0.4992
 5345TIP3   OH216040   4.682   5.733   0.093 -0.4352  0.0311  0.0376
 5345TIP3    H116041   4.720   5.700   0.174 -1.2735  0.0013  0.4359
 5345TIP3    H216042   4.619   5.800   0.121  0.9081  1.6999 -0.7267
 5346TIP3   OH216043   2.339   3.093   4.510  0.3567  0.2899  0.0669
 5346TIP3    H116044   2.431   3.105   4.534  0.0254  1.1110  1.0035
 5346TIP3    H216045   2.291   3.152   4.569 -0.7458  0.0919 -0.6026
 5347TIP3   OH216046   3.954   5.504   1.128 -0.4525 -0.0194  0.1132
 5347TIP3    H116047   3.989   5.513   1.217  3.3948 -1.1255 -1.0855
 5347TIP3    H216048   3.981   5.584   1.083  0.1857 -0.6926 -0.7431
 5348TIP3   OH216049   1.590   4.108   0.013 -0.1116  0.0491  0.6061
 5348TIP3    H116050   1.644   4.182   0.039 -1.0011  1.1567 -0.5426
 5348TIP3    H216051   1.650   4.049  -0.031  0.4434  0.5381  0.6910
 5349TIP3   OH216052   2.678   3.394   1.325 -0.6274 -0.1372 -0.1944
 5349TIP3    H116053   2.650   3.454   1.394  0.1618 -1.4437  1.3282
 5349TIP3    H216054   2.613   3.323   1.326 -0.1066 -0.6224 -0.1532
 5350TIP3   OH216055   3.654   3.240   4.361 -0.7727  0.5653  0.2195
 5350TIP3    H116056   3.606   3.197   4.431 -0.4316  1.1303  0.8070
 5350TIP3    H216057   3.746   3.220   4.379 -0.6835  0.7028 -0.0775
 5351TIP3   OH216058   1.968   5.795   1.136  0.1566 -0.1499  0.1886
 5351TIP3    H116059   2.017   5.807   1.055 -0.2138  0.9405  0.1116
 5351TIP3    H216060   1.947   5.884   1.165 -0.0005 -0.5412  1.3044
 5352TIP3   OH216061   4.533   0.293   5.044  0.5158  0.3013  0.0411
 5352TIP3    H116062   4.548   0.379   5.005  0.0447  0.7918  0.9109
 5352TIP3    H216063   4.576   0.298   5.130  0.2577 -0.2298  0.2058
 5353TIP3   OH216064   3.137   1.333   2.808  0.3805  0.2360  0.4081
 5353TIP3    H116065   3.093   1.417   2.791  2.1903  1.1739  0.1690
 5353TIP3    H216066   3.087   1.269   2.756  0.4030  1.5667 -1.3533
 5354TIP3   OH216067   4.974   2.364   2.386  0.5571  0.2051 -0.0162
 5354TIP3    H116068   5.054   2.346   2.434  0.6448 -0.4189 -0.3878
 5354TIP3    H216069   5.002   2.417   2.311  1.1853 -2.7535 -2.0262
 5355TIP3   OH216070   5.785   5.687   2.925  0.5439 -0.6377  0.0987
 5355TIP3    H116071   5.782   5.774   2.885  1.4583 -1.0488 -0.9163
 5355TIP3    H216072   5.869   5.685   2.970 -0.3844 -0.2574  1.9342
 5356TIP3   OH216073   1.468   1.917   1.533 -0.6234  0.8972 -0.3926
 5356TIP3    H116074   1.528   1.967   1.589 -0.0995 -0.3476  0.1729
 5356TIP3    H216075   1.517   1.901   1.452 -0.7035  1.0668 -0.4765
 5357TIP3   OH216076   1.294   4.384   4.432  0.4179  0.0716  0.1086
 5357TIP3    H116077   1.269   4.297   4.401  0.7096  0.5506 -1.6144
 5357TIP3    H216078   1.386   4.375   4.458  0.5383 -0.0745 -0.3574
 5358TIP3   OH216079   2.203   0.095   0.254  0.4731 -0.1579 -0.1180
 5358TIP3    H116080   2.251   0.110   0.336  1.8280 -0.4347 -0.8445
 5358TIP3    H216081   2.238   0.159   0.193 -1.2845  0.7634 -0.2227
 5359TIP3   OH216082   6.165   5.197   3.687  0.6938  0.2132 -0.0607
 5359TIP3    H116083   6.249   5.238   3.667  1.0313 -0.5148 -0.1637
 5359TIP3    H216084   6.121   5.188   3.602 -0.1701  2.0133  0.1572
 5360TIP3   OH216085   4.247   1.354   1.472 -0.0210 -0.1639 -0.7106
 5360TIP3    H116086   4.221   1.290   1.406 -2.2615 -0.0822 -0.0064
 5360TIP3    H216087   4.264   1.302   1.551  2.1172 -0.2092 -1.1399
 5361TIP3   OH216088   5.599   1.278   0.556  0.0052  0.4318  0.4794
 5361TIP3    H116089   5.650   1.212   0.603  0.2743  0.2358 -0.0864
 5361TIP3    H216090   5.628   1.272   0.466  0.1048  1.3955  0.4324
 5362TIP3   OH216091   3.960   4.429   4.520 -0.3179 -0.3921 -0.3966
 5362TIP3    H116092   3.886   4.460   4.572  0.4066 -1.7006  1.4830
 5362TIP3    H216093   4.037   4.464   4.565  0.3113 -1.2207 -0.8132
 5363TIP3   OH216094   0.797   3.822   2.256 -0.2700  0.2324  0.3474
 5363TIP3    H116095   0.882   3.815   2.300 -1.0440 -0.4312  1.8412
 5363TIP3    H216096   0.797   3.752   2.191  0.9190  1.2505 -0.7930
 5364TIP3   OH216097   5.097   2.202   2.058  0.5285 -0.4927  0.9819
 5364TIP3    H116098   5.188   2.225   2.072  0.3146  0.9762  0.1857
 5364TIP3    H216099   5.058   2.200   2.145  0.7495  1.5668  1.1834
 5365TIP3   OH216100   4.261   0.418   0.823  0.1360  0.1374  0.2653
 5365TIP3    H116101   4.259   0.495   0.880 -0.8460  1.6311 -1.6831
 5365TIP3    H216102   4.312   0.446   0.746 -2.4890 -0.1715 -1.7077
 5366TIP3   OH216103   4.591   2.392   1.740  0.1501 -0.1886  0.4441
 5366TIP3    H116104   4.501   2.413   1.765 -0.4219 -0.8745 -0.9299
 5366TIP3    H216105   4.582   2.321   1.676  1.6047  0.5135 -0.5900
 5367TIP3   OH216106   4.660   0.761   0.991  0.1030 -0.5273  0.4475
 5367TIP3    H116107   4.591   0.826   0.997 -0.4801 -1.2683  2.7491
 5367TIP3    H216108   4.708   0.769   1.073  1.6971 -1.2301 -0.3529
 5368TIP3   OH216109   6.056   2.047   4.256  0.2269 -0.5167  0.4469
 5368TIP3    H116110   5.965   2.019   4.251  0.1208  0.0060 -1.6830
 5368TIP3    H216111   6.103   1.969   4.287 -0.9372 -0.6943  1.8811
 5369TIP3   OH216112   2.783   3.106   2.845  0.0702 -0.2529 -0.0027
 5369TIP3    H116113   2.710   3.078   2.900 -0.9222  2.0184 -0.0673
 5369TIP3    H216114   2.812   3.188   2.885  0.8451  0.2425 -1.5349
 5370TIP3   OH216115   4.379   5.657   5.118 -0.4535 -0.4443  0.3972
 5370TIP3    H116116   4.424   5.702   5.190 -2.1159  0.3664  0.9886
 5370TIP3    H216117   4.349   5.727   5.061  0.9380 -1.0826 -1.2170
 5371TIP3   OH216118   4.462   3.426   0.408  0.1864 -0.0604 -0.0545
 5371TIP3    H116119   4.536   3.399   0.355  0.7018 -1.0560  1.1140
 5371TIP3    H216120   4.405   3.349   0.411 -0.3229  0.3130  0.0006
 5372TIP3   OH216121   1.246   1.627   1.863  0.1552  0.3695  0.9301
 5372TIP3    H116122   1.276   1.557   1.805 -1.7055 -1.1211  1.6364
 5372TIP3    H216123   1.194   1.684   1.806 -0.1868 -0.1020  0.7560
 5373TIP3   OH216124   2.689   0.219   0.934 -0.0425  0.1061 -0.0551
 5373TIP3    H116125   2.746   0.273   0.877 -0.8347  0.1496 -0.8272
 5373TIP3    H216126   2.718   0.240   1.022  1.7081 -0.4954 -0.4512
 5374TIP3   OH216127   5.505   3.573   4.019 -0.0509  0.4002 -0.5453
 5374TIP3    H116128   5.479   3.571   4.111  2.5270  0.2936  0.2812
 5374TIP3    H216129   5.480   3.487   3.984  3.8380 -1.9248  1.6991
 5375TIP3   OH216130   3.550   5.309   1.567  0.3178  0.2846  0.1470
 5375TIP3    H116131   3.541   5.372   1.495 -0.8337 -0.7262 -0.6453
 5375TIP3    H216132   3.459   5.289   1.591  0.6050 -1.8183 -0.3267
 5376TIP3   OH216133   1.894   1.163   3.985 -0.0019  0.7150 -0.1008
 5376TIP3    H116134   1.847   1.156   3.902 -0.8103  2.3966  0.1587
 5376TIP3    H216135   1.935   1.249   3.982  0.7621  0.3990  0.8494
 5377TIP3   OH216136   6.026   2.929   2.120  0.2718  0.8191 -0.5333
 5377TIP3    H116137   6.038   2.961   2.209 -0.2820  2.7534 -1.1180
 5377TIP3    H216138   5.931   2.934   2.105  0.5326  2.6523 -1.9370
 5378TIP3   OH216139   3.805   3.329   1.107  0.0155 -0.0617 -0.1001
 5378TIP3    H116140   3.837   3.283   1.030  4.7106 -3.7420  3.4236
 5378TIP3    H216141   3.848   3.415   1.103 -0.2275  0.0068 -1.7747
 5379TIP3   OH216142   5.092   2.459   3.286 -0.4267  0.9154  0.5433
 5379TIP3    H116143   5.135   2.498   3.362 -0.3713  0.8123  0.5640
 5379TIP3    H216144   5.087   2.366   3.305  2.9704  0.2098 -1.1084
 5380TIP3   OH216145   2.698   3.722   1.353  0.3302  0.0952  0.3603
 5380TIP3    H116146   2.657   3.760   1.275 -1.1331 -2.0431 -0.0117
 5380TIP3    H216147   2.632   3.663   1.388  2.5627 -2.5167  0.5245
 5381TIP3   OH216148   1.051   3.312   4.985  0.2981 -0.5588  0.7734
 5381TIP3    H116149   1.090   3.290   4.900 -1.3338  1.2283 -0.5427
 5381TIP3    H216150   1.122   3.352   5.035  0.6236  1.2378 -0.9779
 5382TIP3   OH216151   2.218   1.965   3.735 -0.4626  0.0808 -0.1267
 5382TIP3    H116152   2.294   1.965   3.677 -0.0229 -0.5272  0.4423
 5382TIP3    H216153   2.211   2.056   3.766 -0.0123  0.1506 -0.2275
 5383TIP3   OH216154   3.281   1.925   2.331 -1.1226  0.0907  0.2414
 5383TIP3    H116155   3.231   1.994   2.287 -0.1143  0.0528 -1.0188
 5383TIP3    H216156   3.233   1.845   2.312 -1.9246  0.3376  1.1394
 5384TIP3   OH216157   0.850   2.268   2.802 -0.4184 -0.0913  0.2442
 5384TIP3    H116158   0.859   2.182   2.844  0.2074 -0.7591 -1.1820
 5384TIP3    H216159   0.779   2.256   2.739  1.4389 -0.4349 -1.9059
 5385TIP3   OH216160   1.872   5.098   1.071  0.3631  0.1180 -0.0515
 5385TIP3    H116161   1.857   5.040   0.997  0.5776 -1.2476  0.9241
 5385TIP3    H216162   1.953   5.143   1.051  0.7660 -0.7292 -0.3720
 5386TIP3   OH216163   2.349   4.617   4.214  0.6969 -0.0247 -0.1194
 5386TIP3    H116164   2.311   4.673   4.281  1.2445  1.2892 -0.8542
 5386TIP3    H216165   2.418   4.670   4.175  0.8891 -1.0262 -1.2170
 5387TIP3   OH216166   1.855   4.917   1.954  0.2947 -0.0385  0.2124
 5387TIP3    H116167   1.925   4.931   1.889  2.0308 -0.3926  1.9007
 5387TIP3    H216168   1.901   4.884   2.031 -1.5728  1.0743  1.9050
 5388TIP3   OH216169   3.254   0.657   0.376 -0.3561 -0.0104 -0.2595
 5388TIP3    H116170   3.198   0.580   0.388  0.1004 -0.4705 -1.0252
 5388TIP3    H216171   3.326   0.644   0.438 -1.0352  0.5522  0.6830
 5389TIP3   OH216172   4.113   3.655   4.423 -0.0847 -0.1100  0.2008
 5389TIP3    H116173   4.051   3.609   4.479 -0.2991  0.5559  0.5235
 5389TIP3    H216174   4.089   3.630   4.334  0.9323 -2.0284  0.4088
 5390TIP3   OH216175   2.476   1.167   4.673 -0.4165  1.1987 -0.2576
 5390TIP3    H116176   2.413   1.110   4.718  1.1388  0.7472  1.4538
 5390TIP3    H216177   2.456   1.155   4.580 -0.1534 -2.1936 -0.0105
 5391TIP3   OH216178   0.468   5.017   2.884 -0.2239 -0.4577  0.0566
 5391TIP3    H116179   0.484   5.111   2.874  0.5377 -0.4923  0.8324
 5391TIP3    H216180   0.479   4.982   2.796  1.2782 -0.0521  0.0478
 5392TIP3   OH216181   5.229   2.484   5.075  0.1161  0.0236  0.1885
 5392TIP3    H116182   5.291   2.462   5.145 -0.3341  1.0187  0.9298
 5392TIP3    H216183   5.281   2.528   5.009  0.2907  0.4699  0.6159
 5393TIP3   OH216184   3.205   0.568   2.839  0.1426  0.1130 -0.0685
 5393TIP3    H116185   3.154   0.488   2.823  0.8340 -0.5639  0.9843
 5393TIP3    H216186   3.141   0.638   2.832 -0.6952 -0.6225  0.0122
 5394TIP3   OH216187   5.641   0.121   0.015 -0.9759 -0.1437 -0.2122
 5394TIP3    H116188   5.559   0.079   0.039 -1.0445  0.6307  0.9714
 5394TIP3    H216189   5.615   0.192  -0.044 -1.1900  0.2264  0.3208
 5395TIP3   OH216190   4.007   0.281   1.669  0.3512 -0.3629  0.0020
 5395TIP3    H116191   4.025   0.214   1.603  1.3240  0.2151 -0.3415
 5395TIP3    H216192   4.029   0.239   1.752  1.6590 -0.2569 -0.2716
 5396TIP3   OH216193   4.196   5.633   0.594  0.0250 -0.3832  0.6486
 5396TIP3    H116194   4.282   5.673   0.604 -0.0664 -0.1130  0.4088
 5396TIP3    H216195   4.191   5.612   0.500 -0.3699  0.0863  0.5578
 5397TIP3   OH216196   2.896   4.828   3.042 -0.3360  0.3550  0.6114
 5397TIP3    H116197   2.862   4.833   2.953 -1.3934 -0.3455  0.9625
 5397TIP3    H216198   2.935   4.741   3.048  0.4484  0.6967  0.5963
 5398TIP3   OH216199   5.840   2.279   0.267 -0.1025  0.4750  0.0283
 5398TIP3    H116200   5.778   2.350   0.252 -1.9607 -1.0046  0.4096
 5398TIP3    H216201   5.786   2.203   0.290  1.7994 -1.0903 -0.3624
 5399TIP3   OH216202   0.975   3.523   4.445  0.0583 -0.3267 -0.2790
 5399TIP3    H116203   1.033   3.464   4.397  2.3354  2.1710 -0.9090
 5399TIP3    H216204   0.901   3.538   4.386  0.3215 -1.1550 -0.8430
 5400TIP3   OH216205   3.883   4.609   2.026 -0.4339  0.0070  0.7347
 5400TIP3    H116206   3.842   4.585   2.109 -2.0584 -0.2114 -0.0941
 5400TIP3    H216207   3.943   4.536   2.007 -2.6443 -1.7552  0.0330
 5401TIP3   OH216208   5.074   4.843   1.504 -0.4639 -0.4054 -0.0460
 5401TIP3    H116209   5.159   4.809   1.532 -0.1932 -0.2938 -0.7027
 5401TIP3    H216210   5.091   4.934   1.480 -0.7804 -0.3650 -0.1212
 5402TIP3   OH216211   2.527   4.993   0.954  0.6864 -0.8654  0.0108
 5402TIP3    H116212   2.593   5.049   0.994 -0.3470  1.2851 -1.1191
 5402TIP3    H216213   2.567   4.965   0.871 -0.2770  1.7785 -1.4748
 5403TIP3   OH216214   4.600   3.384   2.919 -0.3223  0.5153 -0.2270
 5403TIP3    H116215   4.624   3.458   2.974  0.0767 -0.0650  0.4117
 5403TIP3    H216216   4.546   3.329   2.976 -1.9106  1.0521 -1.1816
 5404TIP3   OH216217   1.775   1.945   3.446  0.4692  0.8153  0.0028
 5404TIP3    H116218   1.766   1.897   3.364  1.5959  1.0678 -0.2747
 5404TIP3    H216219   1.847   1.902   3.492 -1.2435 -0.4535  1.6816
 5405TIP3   OH216220   5.867   0.138   2.238  0.0146 -0.0230  0.2910
 5405TIP3    H116221   5.808   0.073   2.201 -0.2901  1.5018 -2.0788
 5405TIP3    H216222   5.948   0.090   2.254  0.5002 -0.6691 -3.3159
 5406TIP3   OH216223   2.748   5.115   4.625  0.7146  0.2031  0.1018
 5406TIP3    H116224   2.690   5.177   4.581 -1.0880 -0.8041  0.9556
 5406TIP3    H216225   2.821   5.169   4.656 -0.9674  2.0138  1.1660
 5407TIP3   OH216226   3.913   2.716   2.334 -0.2015 -0.2035  0.0657
 5407TIP3    H116227   3.897   2.625   2.359 -0.2144 -0.1198  0.3681
 5407TIP3    H216228   3.858   2.730   2.257  0.0512 -0.5481 -0.1846
 5408TIP3   OH216229   0.942   5.389   1.750  0.3412 -0.4410 -0.3240
 5408TIP3    H116230   1.004   5.446   1.795 -0.5189 -0.0280  0.3496
 5408TIP3    H216231   0.867   5.445   1.731 -1.3462 -1.7532  2.0361
 5409TIP3   OH216232   3.589   0.596   1.691 -0.6986  0.2318 -0.1610
 5409TIP3    H116233   3.673   0.599   1.736 -0.6908 -1.4478 -0.0145
 5409TIP3    H216234   3.566   0.503   1.687 -1.9924  0.5532 -1.2373
 5410TIP3   OH216235   1.133   2.231   0.403  0.5165  0.5436 -0.0595
 5410TIP3    H116236   1.224   2.263   0.401  1.5409 -1.8279  2.5100
 5410TIP3    H216237   1.138   2.144   0.364 -1.2507  1.3431 -2.2819
 5411TIP3   OH216238   1.488   4.084   2.213 -0.4759  0.4069  0.3572
 5411TIP3    H116239   1.398   4.107   2.189 -0.0871  0.9047 -0.6860
 5411TIP3    H216240   1.540   4.110   2.137  0.7485  1.3967  1.4963
 5412TIP3   OH216241   0.872   5.074   0.670  0.4577 -0.1567 -0.0313
 5412TIP3    H116242   0.882   5.042   0.760 -3.5035  0.4117  0.8077
 5412TIP3    H216243   0.913   5.161   0.671 -0.4503  0.3058  1.6211
 5413TIP3   OH216244   3.337   5.067   0.398 -0.3368 -0.2682  0.4668
 5413TIP3    H116245   3.243   5.052   0.384 -0.1558  0.0137 -1.1945
 5413TIP3    H216246   3.351   5.158   0.373  0.9302 -1.1793 -2.5396
 5414TIP3   OH216247   4.790   5.301   4.119 -0.2822 -0.0532 -0.3703
 5414TIP3    H116248   4.866   5.275   4.067  0.4524  0.8230  0.2434
 5414TIP3    H216249   4.752   5.374   4.070 -0.3505 -0.0654 -0.3351
 5415TIP3   OH216250   6.070   4.167   0.022 -0.3937  0.6407 -0.0584
 5415TIP3    H116251   6.084   4.189  -0.071 -0.1517 -1.2038 -0.4832
 5415TIP3    H216252   6.155   4.180   0.063 -0.4525  1.2717 -0.1276
 5416TIP3   OH216253   6.145   1.374   1.495  0.6414  0.2219  0.0529
 5416TIP3    H116254   6.050   1.380   1.481  0.6751 -0.0452 -0.2948
 5416TIP3    H216255   6.166   1.449   1.550  0.0209 -0.4008  1.1776
 5417TIP3   OH216256   1.573   3.565   1.214 -0.0955 -0.4969  0.1895
 5417TIP3    H116257   1.501   3.590   1.157  0.3776  0.5131  0.0189
 5417TIP3    H216258   1.577   3.469   1.206 -0.2844 -0.4120 -1.1789
 5418TIP3   OH216259   4.439   3.553   1.230 -0.1905 -0.8394 -0.1676
 5418TIP3    H116260   4.515   3.583   1.278 -0.3738  0.0040 -0.3965
 5418TIP3    H216261   4.398   3.632   1.196 -2.2845 -1.0527  1.5981
 5419TIP3   OH216262   5.244   5.056   3.734  0.0470 -0.2821 -0.3910
 5419TIP3    H116263   5.163   5.036   3.687  0.1173 -0.2422 -0.5301
 5419TIP3    H216264   5.233   5.013   3.819 -0.4683  0.4167 -0.0950
 5420TIP3   OH216265   5.456   1.225   2.884 -0.2982 -0.1882  0.0130
 5420TIP3    H116266   5.460   1.280   2.805 -0.7006 -0.2667 -0.0645
 5420TIP3    H216267   5.519   1.265   2.944 -0.4232  0.2276 -0.1268
 5421TIP3   OH216268   0.344   5.106   3.913  0.1711  0.3830  0.0442
 5421TIP3    H116269   0.357   5.059   3.995  0.1973 -0.2725 -0.3306
 5421TIP3    H216270   0.356   5.199   3.936  2.9219  0.0549  0.2780
 5422TIP3   OH216271   0.840   0.619   2.678 -0.3987  0.5397  0.1474
 5422TIP3    H116272   0.810   0.621   2.588 -0.4445 -1.4392  0.0649
 5422TIP3    H216273   0.935   0.607   2.672 -0.4940 -0.3899  0.3328
 5423TIP3   OH216274   4.221   1.467   2.059  0.3969 -0.4240 -0.1648
 5423TIP3    H116275   4.228   1.377   2.028 -0.4046 -1.0028  1.2475
 5423TIP3    H216276   4.238   1.520   1.982 -0.7764 -1.7911 -1.4320
 5424TIP3   OH216277   3.289   4.836   3.784 -0.1419 -0.0592  0.3494
 5424TIP3    H116278   3.312   4.909   3.728 -2.6494  0.3473 -0.2482
 5424TIP3    H216279   3.305   4.868   3.873  1.1758  0.2857  0.0060
 5425TIP3   OH216280   5.277   3.624   0.038  0.2320 -0.1645 -0.5656
 5425TIP3    H116281   5.356   3.636   0.092  0.3680 -0.2324 -0.7487
 5425TIP3    H216282   5.251   3.713   0.015  0.1404 -0.1318 -0.3439
 5426TIP3   OH216283   1.147   2.296   1.325 -0.3585  0.2665 -0.2061
 5426TIP3    H116284   1.056   2.276   1.300 -0.1912 -0.0770 -0.5448
 5426TIP3    H216285   1.199   2.231   1.279  0.1419  1.0059 -0.6995
 5427TIP3   OH216286   0.497   5.970   2.122 -0.2849 -0.0206 -0.4980
 5427TIP3    H116287   0.432   5.923   2.069  0.9226 -2.3013 -0.0759
 5427TIP3    H216288   0.581   5.936   2.093  0.4552 -0.8366  2.3244
 5428TIP3   OH216289   4.245   4.805   1.408  0.3878 -0.5500  0.0545
 5428TIP3    H116290   4.247   4.824   1.314  1.1074 -2.8911 -0.4614
 5428TIP3    H216291   4.162   4.758   1.421  0.7413 -1.0941  0.3857
 5429TIP3   OH216292   2.936   4.538   2.989  0.1641  0.2267  0.3383
 5429TIP3    H116293   3.021   4.539   2.945  0.6710  0.2790  1.2980
 5429TIP3    H216294   2.873   4.560   2.920  0.8845 -0.1680 -0.4627
 5430TIP3   OH216295   6.266   0.896   2.882 -0.5363  0.2935  0.0089
 5430TIP3    H116296   6.302   0.869   2.797 -2.9358  0.9040 -1.2935
 5430TIP3    H216297   6.224   0.980   2.865 -1.2032  0.3650  1.7784
 5431TIP3   OH216298   3.037   3.076   3.468  0.3855  0.2911 -0.3712
 5431TIP3    H116299   3.014   3.119   3.551 -1.8842 -0.7491 -0.3876
 5431TIP3    H216300   3.013   3.140   3.401  1.3550  0.7706 -0.2757
 5432TIP3   OH216301   0.422   3.947   0.426  0.0298 -0.6193 -0.8277
 5432TIP3    H116302   0.441   3.931   0.333 -2.7505  0.1088 -1.6076
 5432TIP3    H216303   0.388   4.036   0.429  0.8202 -0.3369  1.0557
 5433TIP3   OH216304   5.486   5.826   2.431  0.6309  0.1836  0.8755
 5433TIP3    H116305   5.535   5.748   2.406 -1.8700 -1.0183 -0.6834
 5433TIP3    H216306   5.442   5.801   2.513  0.1295  0.0636  0.5761
 5434TIP3   OH216307   5.510   1.843   3.283 -0.0094  0.6233 -0.0873
 5434TIP3    H116308   5.565   1.798   3.219  1.1120  0.7359  0.7681
 5434TIP3    H216309   5.468   1.913   3.233 -0.9411 -0.6618 -1.1887
 5435TIP3   OH216310   1.633   2.974   0.775  0.3341  0.2946  0.0447
 5435TIP3    H116311   1.542   2.942   0.773  1.0278 -1.8512 -0.2016
 5435TIP3    H216312   1.641   3.016   0.860 -1.3901  2.2694 -0.6812
 5436TIP3   OH216313   2.533   3.084   1.845  0.2701  0.2485 -0.5833
 5436TIP3    H116314   2.536   3.166   1.893 -1.7506 -1.1228  2.1595
 5436TIP3    H216315   2.451   3.087   1.797 -0.5922 -0.7091  0.7594
 5437TIP3   OH216316   0.584   3.769   3.007 -0.1232  0.4142  0.5967
 5437TIP3    H116317   0.536   3.852   3.016  0.4923  1.1548 -2.1204
 5437TIP3    H216318   0.535   3.721   2.941  0.8287 -0.4010  0.4779
 5438TIP3   OH216319   5.615   5.918   5.066 -0.0419  0.6841  0.4829
 5438TIP3    H116320   5.561   5.997   5.068  0.7435  1.2759 -0.4348
 5438TIP3    H216321   5.701   5.946   5.097 -0.0754 -0.0945  1.3111
 5439TIP3   OH216322   3.160   1.301   3.743  0.3953 -0.0351 -0.3528
 5439TIP3    H116323   3.230   1.363   3.764 -1.2428  1.7875  0.0114
 5439TIP3    H216324   3.082   1.356   3.732 -0.8587 -1.9262 -1.3944
 5440TIP3   OH216325   5.721   1.102   1.866  0.1033  0.4848  0.9817
 5440TIP3    H116326   5.632   1.113   1.899 -0.0603 -0.7004  0.9778
 5440TIP3    H216327   5.725   1.011   1.838  1.7053  0.1516  2.1542
 5441TIP3   OH216328   3.568   5.492   1.344 -0.5920 -0.5831  0.4773
 5441TIP3    H116329   3.659   5.523   1.351 -0.8424  0.1597  0.4862
 5441TIP3    H216330   3.516   5.572   1.338 -1.1166 -0.9982 -1.1691
 5442TIP3   OH216331   4.340   5.171   1.100  0.1299  0.3892 -0.2024
 5442TIP3    H116332   4.359   5.264   1.095 -0.0212  0.4040 -0.4838
 5442TIP3    H216333   4.250   5.166   1.134 -0.4657  0.3863 -1.7186
 5443TIP3   OH216334   5.273   5.910   5.104 -0.1952 -0.2086  0.0819
 5443TIP3    H116335   5.331   5.870   5.168 -0.2826  0.0794  0.3432
 5443TIP3    H216336   5.271   5.848   5.031 -1.1330 -1.1918  0.8992
 5444TIP3   OH216337   3.499   1.880   0.258  0.5074 -0.2821  0.4702
 5444TIP3    H116338   3.566   1.943   0.286 -1.4398  1.7390  0.8930
 5444TIP3    H216339   3.426   1.895   0.318 -0.8650 -1.4214 -0.8343
 5445TIP3   OH216340   3.163   1.055   3.338 -0.2325  0.1595 -0.1442
 5445TIP3    H116341   3.251   1.020   3.329  0.4573  0.7652  3.1555
 5445TIP3    H216342   3.173   1.149   3.325 -0.0605  0.4207  1.6322
 5446TIP3   OH216343   3.329   5.828   3.214  0.4768  0.3673  0.1309
 5446TIP3    H116344   3.405   5.823   3.272  0.0088 -1.3202  0.6672
 5446TIP3    H216345   3.351   5.769   3.141 -0.2265  0.0262  0.1905
 5447TIP3   OH216346   3.170   3.024   2.243 -0.1199 -0.2330  0.4824
 5447TIP3    H116347   3.075   3.024   2.254 -0.1418 -1.4231  0.4089
 5447TIP3    H216348   3.201   2.956   2.302  0.3665 -2.0732 -1.7435
 5448TIP3   OH216349   3.838   2.225   4.504 -1.0055 -0.1368  0.0167
 5448TIP3    H116350   3.932   2.206   4.496 -0.6243  0.3915  2.5331
 5448TIP3    H216351   3.814   2.259   4.418  1.5865  1.5777 -0.1702
 5449TIP3   OH216352   0.056   3.344   0.764 -0.1789 -0.0280 -0.2662
 5449TIP3    H116353  -0.018   3.315   0.710  0.5615  0.4203 -1.5561
 5449TIP3    H216354   0.105   3.263   0.782  0.1054 -0.0551 -1.1133
 5450TIP3   OH216355   3.230   4.816   2.701 -0.2058 -0.0404 -0.1653
 5450TIP3    H116356   3.256   4.904   2.729  0.4242 -0.5942  1.0693
 5450TIP3    H216357   3.138   4.825   2.676 -0.3513  0.8310  0.6155
 5451TIP3   OH216358   2.596   4.363   4.463 -0.4658 -0.1226 -0.7999
 5451TIP3    H116359   2.588   4.402   4.550 -0.2029  0.1836 -0.9144
 5451TIP3    H216360   2.506   4.363   4.429 -0.3098  1.4299 -1.2626
 5452TIP3   OH216361   3.711   3.072   2.979  0.6350 -0.1204  0.1875
 5452TIP3    H116362   3.676   3.073   3.068 -1.6078  1.8182 -0.6269
 5452TIP3    H216363   3.698   2.981   2.950 -0.3792 -0.3233  1.1857
 5453TIP3   OH216364   1.193   2.768   3.674  0.3222  0.3459  0.4389
 5453TIP3    H116365   1.220   2.684   3.637 -0.2218  1.0197 -1.6448
 5453TIP3    H216366   1.104   2.781   3.642  1.0509  2.5598 -0.9536
 5454TIP3   OH216367   4.449   0.961   0.991 -0.5841 -0.0093  0.4619
 5454TIP3    H116368   4.373   0.919   0.950  0.4222 -0.5301 -0.9850
 5454TIP3    H216369   4.444   1.052   0.963  0.0570 -0.3466 -0.8571
 5455TIP3   OH216370   4.083   0.060   2.379 -0.0544 -0.1761  0.1056
 5455TIP3    H116371   4.068   0.029   2.469 -1.2588 -0.4262 -0.1697
 5455TIP3    H216372   4.147  -0.002   2.343  0.7464  0.1555  0.9022
 5456TIP3   OH216373   1.224   0.875   5.060  0.0074 -0.4227 -0.0536
 5456TIP3    H116374   1.134   0.908   5.054  0.1108 -0.4448 -2.7446
 5456TIP3    H216375   1.279   0.949   5.035  0.7767 -0.5057  1.2580
 5457TIP3   OH216376   1.001   3.908   1.664 -0.4464  0.7606 -0.5868
 5457TIP3    H116377   1.031   3.857   1.589 -1.2645 -2.6329  1.1931
 5457TIP3    H216378   0.910   3.929   1.644 -1.3090 -1.8949  0.1467
 5458TIP3   OH216379   5.288   4.393   3.506  0.0136  0.1737  0.1617
 5458TIP3    H116380   5.365   4.354   3.547 -0.2303 -1.6323 -0.9382
 5458TIP3    H216381   5.322   4.437   3.428 -0.1662 -2.6674 -1.6926
 5459TIP3   OH216382   3.857   0.689   3.647  0.0626 -0.0535  0.7198
 5459TIP3    H116383   3.855   0.680   3.552 -1.3693  1.3044  0.5894
 5459TIP3    H216384   3.921   0.757   3.664  2.3886 -2.1592  0.9711
 5460TIP3   OH216385   0.631   3.519   2.477  0.4046 -0.2637 -0.2540
 5460TIP3    H116386   0.662   3.601   2.516 -1.6215 -0.2139  1.4345
 5460TIP3    H216387   0.702   3.457   2.493  0.5236  0.3089  1.6896
 5461TIP3   OH216388   1.200   1.068   1.835  0.2205  0.6075 -0.1452
 5461TIP3    H116389   1.232   1.015   1.909  0.4033  0.5074 -0.2953
 5461TIP3    H216390   1.115   1.101   1.865  0.0199  0.0830 -0.1200
 5462TIP3   OH216391   3.084   0.135   4.929 -0.3987  0.1299  0.3264
 5462TIP3    H116392   3.036   0.114   4.849 -0.3031 -0.7698  0.4875
 5462TIP3    H216393   3.102   0.049   4.968  0.1556  0.5288  0.9556
 5463TIP3   OH216394   3.358   3.540   2.747 -0.5197 -0.3020 -0.0250
 5463TIP3    H116395   3.262   3.534   2.748 -0.4794 -0.9454  0.2383
 5463TIP3    H216396   3.380   3.582   2.830 -0.4669 -2.1033  0.9320
 5464TIP3   OH216397   3.499   1.611   3.004  0.3687  0.4414  0.0379
 5464TIP3    H116398   3.427   1.623   2.941  0.0058 -0.6289  0.2210
 5464TIP3    H216399   3.454   1.597   3.087  0.7947 -0.2847  0.1437
 5465TIP3   OH216400   1.165   0.623   2.888  0.9345  0.2775  0.9007
 5465TIP3    H116401   1.249   0.580   2.873  0.3138 -0.6363 -0.0975
 5465TIP3    H216402   1.133   0.644   2.800 -0.4377 -0.4908  1.1885
 5466TIP3   OH216403   1.122   5.711   3.075  0.1861 -0.8971  0.8503
 5466TIP3    H116404   1.211   5.746   3.071 -0.1898  0.3390  2.2957
 5466TIP3    H216405   1.099   5.694   2.983  1.8388 -1.1208  0.4364
 5467TIP3   OH216406   3.864   5.335   0.917  0.2845  0.1619  0.5328
 5467TIP3    H116407   3.773   5.360   0.935  0.7507  1.4143  1.3605
 5467TIP3    H216408   3.915   5.394   0.972  1.6656  0.7054 -1.2457
 5468TIP3   OH216409   3.802   2.328   4.273 -0.1647 -0.5046 -0.2431
 5468TIP3    H116410   3.796   2.295   4.183  0.8761 -0.6395 -0.2741
 5468TIP3    H216411   3.789   2.423   4.264 -0.5960 -0.5840 -0.4687
 5469TIP3   OH216412   0.318   1.435   3.629 -0.1865  0.2314  0.4377
 5469TIP3    H116413   0.256   1.451   3.557  1.6996  0.8040 -1.1407
 5469TIP3    H216414   0.359   1.520   3.645  1.6938 -0.5451 -0.0402
 5470TIP3   OH216415   2.785   2.300   1.045 -0.1447  0.2703 -0.3801
 5470TIP3    H116416   2.717   2.343   1.098  0.1674  1.5148 -0.9509
 5470TIP3    H216417   2.866   2.320   1.090 -0.0848 -0.6126 -0.0894
 5471TIP3   OH216418   1.361   4.812   3.558  0.6267  0.3476  0.2225
 5471TIP3    H116419   1.378   4.823   3.651 -0.4243 -0.0217  0.4717
 5471TIP3    H216420   1.419   4.740   3.532 -0.1959 -0.6131  0.9530
 5472TIP3   OH216421   1.964   2.239   0.092 -0.4780  0.1235  0.1133
 5472TIP3    H116422   1.928   2.232   0.180  2.4235  0.4427  1.4535
 5472TIP3    H216423   2.013   2.157   0.080 -1.2364 -0.1344 -1.4320
 5473TIP3   OH216424   5.644   3.640   1.307 -0.2425  0.3096 -0.2133
 5473TIP3    H116425   5.697   3.592   1.243  0.1206  2.0072 -1.2502
 5473TIP3    H216426   5.706   3.665   1.376 -0.0052  0.9423 -0.6459
 5474TIP3   OH216427   4.870   0.829   3.191 -0.0784 -0.5119  0.0662
 5474TIP3    H116428   4.819   0.749   3.207  1.4681 -1.2938  1.3265
 5474TIP3    H216429   4.839   0.860   3.106 -1.5042 -1.8255  0.0504
 5475TIP3   OH216430   1.179   2.576   4.174 -0.2561 -0.5548  0.4159
 5475TIP3    H116431   1.224   2.635   4.115  0.3367 -1.2959  0.1144
 5475TIP3    H216432   1.114   2.631   4.218  0.2110  0.2879  0.0702
 5476TIP3   OH216433   2.705   1.813   3.090  0.0652  0.4014  0.2605
 5476TIP3    H116434   2.712   1.755   3.013  0.2197  0.8227 -0.0454
 5476TIP3    H216435   2.728   1.899   3.057 -1.2646  0.8603  0.4499
 5477TIP3   OH216436   2.562   1.349   1.581  0.5010  0.1256  0.3274
 5477TIP3    H116437   2.596   1.422   1.529 -0.2270  1.9049  2.2292
 5477TIP3    H216438   2.486   1.318   1.532  0.1676  1.3799  0.0262
 5478TIP3   OH216439   1.238   0.952   4.690  0.3064  0.1533 -0.6318
 5478TIP3    H116440   1.286   1.013   4.633  0.0062  0.6376 -0.3638
 5478TIP3    H216441   1.304   0.922   4.753  0.9017 -1.1375 -1.8030
 5479TIP3   OH216442   3.040   0.667   3.961 -0.5816  0.2841 -0.6335
 5479TIP3    H116443   3.019   0.760   3.957 -0.9564  0.2573  0.4782
 5479TIP3    H216444   3.085   0.649   3.878  0.8729  1.7826 -0.2337
 5480TIP3   OH216445   2.716   5.520   3.674  0.1942  0.5052 -0.0875
 5480TIP3    H116446   2.678   5.607   3.680 -0.3186  0.1896  1.6768
 5480TIP3    H216447   2.677   5.471   3.746  2.4899 -0.3971  0.6293
 5481TIP3   OH216448   2.169   2.110   0.474 -0.7849 -0.0610 -0.2864
 5481TIP3    H116449   2.100   2.101   0.539 -0.9433  0.4636 -0.3787
 5481TIP3    H216450   2.227   2.035   0.489 -0.1410  0.7007  1.2620
 5482TIP3   OH216451   0.704   4.559   0.992 -0.4300 -0.3304 -0.3077
 5482TIP3    H116452   0.782   4.503   0.995  0.2521  0.5860 -0.5256
 5482TIP3    H216453   0.667   4.544   0.905 -1.4084 -1.9326  0.3292
 5483TIP3   OH216454   3.236   0.207   3.223  0.0744 -0.4002 -0.2883
 5483TIP3    H116455   3.151   0.163   3.232 -0.8397  1.3857  0.3278
 5483TIP3    H216456   3.273   0.204   3.312 -0.1435  0.3123 -0.1651
 5484TIP3   OH216457   2.406   4.019   0.511 -0.1552 -0.2698  0.3011
 5484TIP3    H116458   2.449   4.075   0.575 -1.6752 -0.7089  1.7900
 5484TIP3    H216459   2.373   3.945   0.562 -0.3995 -1.2350 -1.1945
 5485TIP3   OH216460   1.235   0.424   4.108  0.1290  0.1100 -0.6444
 5485TIP3    H116461   1.155   0.405   4.060  0.2760 -0.5185 -0.6518
 5485TIP3    H216462   1.272   0.338   4.128  1.1922  0.4017 -1.2996
 5486TIP3   OH216463   4.306   2.718   4.443 -0.2481  0.0174  0.5711
 5486TIP3    H116464   4.297   2.806   4.480  1.0067  0.0005  0.9647
 5486TIP3    H216465   4.321   2.662   4.519 -1.5417 -0.6265  0.3650
 5487TIP3   OH216466   3.924   1.567   2.117  0.1266 -0.2613  0.5869
 5487TIP3    H116467   3.838   1.561   2.075 -0.1133 -1.0440  1.1565
 5487TIP3    H216468   3.963   1.481   2.104  0.5751 -0.1006  0.8467
 5488TIP3   OH216469   1.634   1.461   4.433  0.2629  0.2590  0.0849
 5488TIP3    H116470   1.564   1.416   4.386 -0.6984  1.4878  0.3061
 5488TIP3    H216471   1.715   1.427   4.395 -0.4638 -0.5901 -0.7227
 5489TIP3   OH216472   2.900   3.602   2.682 -0.4517  0.4348  0.1009
 5489TIP3    H116473   2.953   3.655   2.622 -1.3438  1.2119 -0.0237
 5489TIP3    H216474   2.832   3.662   2.714 -2.3839 -0.9735 -1.1619
 5490TIP3   OH216475   0.008   0.071   3.267 -0.5519  0.3644  0.7891
 5490TIP3    H116476   0.103   0.080   3.278 -0.3612  1.9293 -1.4505
 5490TIP3    H216477  -0.002   0.030   3.181 -1.9072  0.7907  0.7277
 5491TIP3   OH216478   1.773   5.162   1.821 -0.0808  0.5243  0.3348
 5491TIP3    H116479   1.727   5.079   1.805 -1.4629  1.2813  0.2766
 5491TIP3    H216480   1.821   5.147   1.903 -1.2475  0.0356  0.9540
 5492TIP3   OH216481   5.768   1.691   3.200 -0.0803 -0.6340 -0.5430
 5492TIP3    H116482   5.724   1.631   3.260 -2.2241  0.3823 -1.0061
 5492TIP3    H216483   5.804   1.634   3.132 -2.0267 -1.4653 -0.9597
 5493TIP3   OH216484   4.234   3.263   0.787  0.0861 -0.2191  0.1143
 5493TIP3    H116485   4.145   3.253   0.821  0.7750  1.3593  2.6779
 5493TIP3    H216486   4.279   3.313   0.854  3.0223 -1.2126 -0.9726
 5494TIP3   OH216487   3.289   1.150   2.974  0.1202 -0.0733  0.3308
 5494TIP3    H116488   3.235   1.186   2.904  0.5952 -0.9952 -0.5275
 5494TIP3    H216489   3.374   1.191   2.962 -0.0861  0.5790  1.0370
 5495TIP3   OH216490   4.167   0.879   5.079 -0.2887  0.1235 -0.0006
 5495TIP3    H116491   4.192   0.871   4.988  0.2583  0.7786  0.0857
 5495TIP3    H216492   4.239   0.840   5.128 -1.0998 -1.2856  0.1277
 5496TIP3   OH216493   2.753   1.146   2.109 -0.4564  0.1100  0.6208
 5496TIP3    H116494   2.817   1.092   2.156  0.0610 -0.1611 -0.3702
 5496TIP3    H216495   2.802   1.222   2.080 -0.9595  0.6561  1.1598
 5497TIP3   OH216496   2.562   1.451   3.995  0.5561 -0.4488  0.1902
 5497TIP3    H116497   2.593   1.367   3.962 -0.4636 -1.1104  0.8280
 5497TIP3    H216498   2.636   1.510   3.985  1.1003 -1.2673 -0.8369
 5498TIP3   OH216499   1.090   0.265   3.239 -0.3569 -0.0858  0.1304
 5498TIP3    H116500   1.067   0.346   3.284 -1.2488 -0.7433  0.8909
 5498TIP3    H216501   1.051   0.196   3.291  1.4124 -1.1225  0.1894
 5499TIP3   OH216502   2.691   3.169   3.784  0.0630  0.0440  0.6044
 5499TIP3    H116503   2.675   3.194   3.875 -0.8830  0.0412  0.4458
 5499TIP3    H216504   2.629   3.098   3.767  1.4339 -1.1692  0.4758
 5500TIP3   OH216505   4.858   3.048   2.829  0.5268 -0.1239 -0.3046
 5500TIP3    H116506   4.886   3.131   2.867 -0.7385  0.1757  0.0404
 5500TIP3    H216507   4.935   2.991   2.833  1.4570  1.0792 -0.7030
 5501TIP3   OH216508   2.828   5.182   0.460 -0.5676 -0.3370 -0.2536
 5501TIP3    H116509   2.810   5.260   0.407  1.4450 -0.9538 -1.9727
 5501TIP3    H216510   2.745   5.134   0.461 -1.0764  0.4565 -1.5225
 5502TIP3   OH216511   2.547   1.520   0.037 -0.0887  0.1461 -0.0084
 5502TIP3    H116512   2.477   1.561   0.088  0.1717 -0.2149  0.6468
 5502TIP3    H216513   2.580   1.590  -0.020  0.9616  1.1271  1.7282
 5503TIP3   OH216514   1.356   4.419   0.452  0.2453  0.5882  0.1321
 5503TIP3    H116515   1.304   4.380   0.522 -1.5778  0.5446 -1.1575
 5503TIP3    H216516   1.302   4.492   0.420  0.6560  0.1353 -1.7087
 5504TIP3   OH216517   5.575   1.563   0.632  0.0856  0.3333 -0.2349
 5504TIP3    H116518   5.595   1.472   0.609  0.7592  0.6195 -0.8409
 5504TIP3    H216519   5.590   1.568   0.727  3.1608  0.5292 -0.6310
 5505TIP3   OH216520   1.489   3.036   1.344  0.4314  0.3693 -1.0755
 5505TIP3    H116521   1.579   3.005   1.351  0.0204 -1.0822 -1.7541
 5505TIP3    H216522   1.437   2.965   1.382 -0.2988  2.3820  1.9825
 5506TIP3   OH216523   2.693   4.664   3.490  0.6623 -0.1379  0.0095
 5506TIP3    H116524   2.719   4.739   3.437  2.6040 -0.6407  0.1849
 5506TIP3    H216525   2.774   4.634   3.531 -0.5190 -0.6693  2.1205
 5507TIP3   OH216526   5.255   5.518   5.134 -0.0225 -0.3531 -0.4736
 5507TIP3    H116527   5.272   5.445   5.192 -0.6664 -0.5027 -0.4577
 5507TIP3    H216528   5.322   5.583   5.155  0.4714 -0.8839 -0.4004
 5508TIP3   OH216529   4.169   3.523   2.359  0.4010  0.0478  0.5919
 5508TIP3    H116530   4.126   3.575   2.291  0.1257 -1.1490 -0.1897
 5508TIP3    H216531   4.105   3.455   2.380  1.1293 -0.5627  0.8594
 5509TIP3   OH216532   1.074   3.849   2.631 -0.0755 -0.2705  0.1823
 5509TIP3    H116533   1.086   3.931   2.582  1.2698 -0.9564 -0.6969
 5509TIP3    H216534   1.127   3.785   2.583  1.4154 -0.9727  2.6031
 5510TIP3   OH216535   2.520   5.059   3.345 -0.3025  0.2566  0.4820
 5510TIP3    H116536   2.615   5.070   3.338 -0.5251  1.5589 -0.9940
 5510TIP3    H216537   2.484   5.118   3.279 -2.0391 -2.4829 -1.2328
 5511TIP3   OH216538   1.714   0.210   1.913  0.0729  0.3005  0.4246
 5511TIP3    H116539   1.688   0.301   1.898 -1.3221 -0.2600 -0.7148
 5511TIP3    H216540   1.701   0.197   2.007 -2.4504  0.5156  0.1842
 5512TIP3   OH216541   5.730   4.466   3.715  0.4848  0.0838 -0.5620
 5512TIP3    H116542   5.768   4.552   3.729  0.2325  0.0771  0.1744
 5512TIP3    H216543   5.799   4.417   3.670  0.7674  0.5499 -0.6413
 5513TIP3   OH216544   1.819   4.633   5.150  0.2836  0.6078  0.1340
 5513TIP3    H116545   1.829   4.542   5.122  1.4293  1.5273 -2.8467
 5513TIP3    H216546   1.734   4.660   5.116  1.1595  1.3957 -1.5332
 5514TIP3   OH216547   2.232   2.705   2.485 -0.4873  0.3277  0.0200
 5514TIP3    H116548   2.292   2.654   2.540  1.6898  0.9044 -1.6954
 5514TIP3    H216549   2.152   2.653   2.481 -0.5216 -0.0548  3.1209
 5515TIP3   OH216550   2.391   4.738   0.661 -0.2579  0.4758 -0.3528
 5515TIP3    H116551   2.376   4.724   0.755 -0.3469  0.2810 -0.3957
 5515TIP3    H216552   2.447   4.816   0.657  0.4253  0.0020 -0.1037
 5516TIP3   OH216553   5.413   0.820   2.747  0.4615  0.0722  0.4942
 5516TIP3    H116554   5.495   0.857   2.778  1.4987 -1.4474 -0.3057
 5516TIP3    H216555   5.403   0.738   2.795 -1.2290  0.7848  1.4477
 5517TIP3   OH216556   2.756   1.219   1.009  0.1560 -0.0685 -0.2523
 5517TIP3    H116557   2.758   1.310   0.981 -0.4526  0.5498  1.6102
 5517TIP3    H216558   2.662   1.198   1.016  0.2910 -0.3763  0.7431
 5518TIP3   OH216559   1.892   2.869   2.393  0.3840 -0.5847 -0.2858
 5518TIP3    H116560   1.920   2.959   2.408  2.6325 -1.5905  2.4306
 5518TIP3    H216561   1.808   2.861   2.439 -0.4158  0.3240 -1.5041
 5519TIP3   OH216562   4.839   4.658   4.121  0.2102  0.0011  0.6802
 5519TIP3    H116563   4.878   4.663   4.033  0.3558  0.8851  0.7889
 5519TIP3    H216564   4.767   4.721   4.119  0.4083  0.2552  1.2910
 5520TIP3   OH216565   4.961   0.184   0.725 -0.8293 -0.4979 -0.2349
 5520TIP3    H116566   4.974   0.200   0.819  2.0056  0.7895 -0.7110
 5520TIP3    H216567   4.989   0.094   0.712  2.0723  0.2792 -0.1990
 5521TIP3   OH216568   3.418   2.557   4.336 -0.2042  0.1221 -0.0079
 5521TIP3    H116569   3.449   2.623   4.274  1.3702  0.6530  1.2556
 5521TIP3    H216570   3.358   2.604   4.394 -1.6916 -0.3785 -1.0773
 5522TIP3   OH216571   1.129   2.213   0.048  0.0449 -0.3150 -0.1321
 5522TIP3    H116572   1.150   2.124   0.019  0.4266 -0.5383  0.8070
 5522TIP3    H216573   1.057   2.202   0.110 -0.6562  0.1435 -0.8502
 5523TIP3   OH216574   2.097   5.486   1.749  0.2193 -0.0114  0.2835
 5523TIP3    H116575   2.022   5.534   1.712  0.0985 -0.9223 -0.6983
 5523TIP3    H216576   2.127   5.541   1.821 -1.2399  0.5013  0.5365
 5524TIP3   OH216577   0.225   4.470   4.346 -0.3658 -0.5753  0.1773
 5524TIP3    H116578   0.316   4.461   4.373  0.1159  0.8899 -0.8375
 5524TIP3    H216579   0.183   4.390   4.378  1.0317 -0.8126  1.5492
 5525TIP3   OH216580   0.957   4.216   0.024  0.1330 -0.1318  0.0364
 5525TIP3    H116581   1.007   4.232   0.105 -1.1730  0.3665  0.7874
 5525TIP3    H216582   1.008   4.151  -0.023  0.1287 -1.6824  2.0402
 5526TIP3   OH216583   4.965   1.187   0.126  0.4496 -0.8294  0.2701
 5526TIP3    H116584   4.972   1.240   0.046  1.8981 -1.5897 -0.1518
 5526TIP3    H216585   5.054   1.187   0.162 -0.3125  0.0419  2.2739
 5527TIP3   OH216586   1.313   5.530   4.846 -0.1489 -0.5670  0.3140
 5527TIP3    H116587   1.302   5.534   4.751  0.9860 -0.9400  0.1497
 5527TIP3    H216588   1.357   5.447   4.862  0.6570 -0.0198  1.0501
 5528TIP3   OH216589   5.996   0.968   1.122  0.0645  0.1267 -0.0138
 5528TIP3    H116590   6.084   0.966   1.159  0.3987 -0.0365 -0.7860
 5528TIP3    H216591   5.984   0.882   1.083 -0.5992  0.0082  0.4336
 5529TIP3   OH216592   3.501   2.915   4.979  0.2890 -0.7107 -0.1959
 5529TIP3    H116593   3.524   2.859   5.053 -1.4040 -1.7095 -0.3582
 5529TIP3    H216594   3.411   2.943   4.998  0.3198  0.1322 -1.2150
 5530TIP3   OH216595   5.092   3.238   2.242 -0.5896 -0.0662 -0.5671
 5530TIP3    H116596   5.077   3.269   2.331  0.2101 -0.0022 -0.4445
 5530TIP3    H216597   5.136   3.312   2.198 -2.4882  0.5478 -1.5193
 5531TIP3   OH216598   2.079   0.358   5.087 -0.6561  0.1242 -0.2205
 5531TIP3    H116599   2.069   0.440   5.135  2.5649  0.6091 -0.1660
 5531TIP3    H216600   2.089   0.386   4.995 -1.5348 -0.4078 -0.4928
 5532TIP3   OH216601   5.909   5.499   4.587  0.1011  0.5412  0.0917
 5532TIP3    H116602   5.823   5.475   4.622 -0.6720  2.5777 -0.2636
 5532TIP3    H216603   5.927   5.584   4.625  0.8385  1.2348 -1.6997
 5533TIP3   OH216604   0.379   0.846   2.913 -0.2460  0.1239  0.1984
 5533TIP3    H116605   0.470   0.865   2.889  0.2952 -1.2810  1.0132
 5533TIP3    H216606   0.331   0.852   2.830  1.1398 -2.1923 -0.8673
 5534TIP3   OH216607   0.741   3.785   0.842 -0.1279 -0.1694 -0.1905
 5534TIP3    H116608   0.707   3.706   0.802  0.0859 -0.1522 -0.4063
 5534TIP3    H216609   0.738   3.851   0.773 -1.0248  0.2158  0.2002
 5535TIP3   OH216610   1.381   3.947   1.715 -0.7586  0.5311  0.1825
 5535TIP3    H116611   1.321   4.021   1.724  0.3374  1.4342  0.2328
 5535TIP3    H216612   1.468   3.987   1.712 -0.1628 -0.7457 -0.0048
 5536TIP3   OH216613   0.705   3.065   4.226 -0.3558 -0.0157 -0.4965
 5536TIP3    H116614   0.739   3.114   4.151  0.7723 -0.4925 -0.3179
 5536TIP3    H216615   0.629   3.019   4.192  0.1051 -0.1728 -1.3352
 5537TIP3   OH216616   3.823   5.801   1.284 -0.4412  0.2739 -0.0714
 5537TIP3    H116617   3.824   5.714   1.323 -0.4642  0.0934 -0.4717
 5537TIP3    H216618   3.909   5.809   1.243 -0.5805  0.2897 -0.3626
 5538TIP3   OH216619   4.579   2.729   4.881 -0.1998 -0.1589  0.4466
 5538TIP3    H116620   4.616   2.702   4.797 -1.4668  1.8391 -0.8638
 5538TIP3    H216621   4.640   2.796   4.914 -0.4721  0.1240  0.3778
 5539TIP3   OH216622   5.388   2.463   4.677 -0.3581  0.5663 -0.0042
 5539TIP3    H116623   5.367   2.373   4.654  0.0181  0.6397 -0.6777
 5539TIP3    H216624   5.448   2.492   4.608 -0.3961  1.2980  0.2570
 5540TIP3   OH216625   0.713   2.846   1.593 -0.3120  0.1314 -0.6541
 5540TIP3    H116626   0.736   2.937   1.611  0.2721 -0.1545  0.0861
 5540TIP3    H216627   0.795   2.797   1.602  0.1349 -0.0699 -4.2978
 5541TIP3   OH216628   6.189   5.213   1.630 -0.5363  0.1572  0.1612
 5541TIP3    H116629   6.130   5.265   1.575  1.6776  0.9622 -1.6267
 5541TIP3    H216630   6.276   5.246   1.609  0.8144 -2.7862  0.6186
 5542TIP3   OH216631   3.349   1.607   5.019 -0.6359  0.2068  0.1081
 5542TIP3    H116632   3.277   1.594   4.958 -0.3138 -1.4699  0.0556
 5542TIP3    H216633   3.313   1.582   5.104  0.3422 -2.4072 -0.1720
 5543TIP3   OH216634   3.922   5.958   4.376 -0.0123 -0.4556  0.1610
 5543TIP3    H116635   3.895   5.876   4.334 -1.2690 -0.6971  1.3750
 5543TIP3    H216636   4.018   5.956   4.372 -0.0543 -0.4180 -2.7061
 5544TIP3   OH216637   1.498   1.939   1.113 -0.5412 -0.3102  0.0736
 5544TIP3    H116638   1.526   1.850   1.134  0.6861 -0.0843 -0.5393
 5544TIP3    H216639   1.497   1.985   1.197 -2.5075 -1.2269  0.6078
 5545TIP3   OH216640   3.272   1.228   1.270 -0.0068  0.3940  0.4699
 5545TIP3    H116641   3.196   1.188   1.312  0.6771  0.2995  1.6478
 5545TIP3    H216642   3.339   1.159   1.269 -0.0224  0.3678 -0.8619
 5546TIP3   OH216643   2.786   2.033   1.127  0.3732 -0.2329  0.3726
 5546TIP3    H116644   2.732   1.994   1.058  1.5120 -0.2343 -0.5288
 5546TIP3    H216645   2.795   2.124   1.102  0.3971 -0.1183  0.7877
 5547TIP3   OH216646   2.451   2.260   3.313  0.2724 -0.1120 -0.8416
 5547TIP3    H116647   2.366   2.218   3.326 -0.1213  0.9878  0.3929
 5547TIP3    H216648   2.495   2.208   3.246 -1.0118 -1.2342 -0.8267
 5548TIP3   OH216649   5.935   1.753   3.827 -0.2244  0.3613 -0.3082
 5548TIP3    H116650   5.993   1.828   3.822  2.3129 -1.4309  0.2423
 5548TIP3    H216651   5.932   1.719   3.737  1.6999 -0.9259  0.0339
 5549TIP3   OH216652   4.353   3.184   0.292 -1.0219 -0.2068  0.2490
 5549TIP3    H116653   4.341   3.089   0.281 -0.5724 -0.1461 -0.9372
 5549TIP3    H216654   4.435   3.203   0.246 -0.8729  0.6928  0.8727
 5550TIP3   OH216655   3.020   2.312   2.906 -0.1231 -0.6432 -0.4519
 5550TIP3    H116656   3.055   2.271   2.985 -0.7262  0.6042  0.4992
 5550TIP3    H216657   2.952   2.252   2.877  0.0497 -1.0796  0.0158
 5551TIP3   OH216658   5.611   2.505   3.727 -0.2330  0.1464 -0.5666
 5551TIP3    H116659   5.536   2.464   3.685 -0.6481  1.1372 -0.7967
 5551TIP3    H216660   5.657   2.432   3.770 -2.3082 -0.2563  1.1401
 5552TIP3   OH216661   5.312   2.305   0.642 -0.3503  0.2049 -0.0158
 5552TIP3    H116662   5.406   2.300   0.626 -0.4283 -0.4208 -0.3008
 5552TIP3    H216663   5.288   2.394   0.617  0.3891  0.8174  1.3133
 5553TIP3   OH216664   3.170   3.684   4.076 -0.1962  0.3126 -0.3526
 5553TIP3    H116665   3.127   3.620   4.020  0.3234  0.2415 -0.6795
 5553TIP3    H216666   3.114   3.690   4.154 -0.2967 -0.4608 -0.3601
 5554TIP3   OH216667   2.237   3.882   4.041  0.6072  0.3222 -0.3368
 5554TIP3    H116668   2.241   3.790   4.017  2.6509  0.4626 -0.6708
 5554TIP3    H216669   2.212   3.927   3.960 -0.0194  0.1081 -0.2660
 5555TIP3   OH216670   1.873   0.353   2.671 -0.7815 -0.6276  0.0477
 5555TIP3    H116671   1.787   0.375   2.707 -0.5179 -1.4684  1.2525
 5555TIP3    H216672   1.854   0.297   2.596 -1.2933 -0.6524  0.1917
 5556TIP3   OH216673   6.215   4.315   3.369 -0.2122  0.3473 -0.2622
 5556TIP3    H116674   6.288   4.374   3.386 -1.5465  1.7870  0.6734
 5556TIP3    H216675   6.229   4.242   3.430 -0.1371  1.1448  0.6985
 5557TIP3   OH216676   2.820   5.013   4.905 -0.6066 -0.4850 -0.3522
 5557TIP3    H116677   2.832   5.091   4.959  3.4119 -1.9288  1.1834
 5557TIP3    H216678   2.778   5.046   4.825  2.0790  3.5606 -0.3734
 5558TIP3   OH216679   1.181   5.317   4.684 -0.2115  0.0130 -0.1563
 5558TIP3    H116680   1.165   5.385   4.618  0.0590 -0.5675 -0.8355
 5558TIP3    H216681   1.106   5.323   4.743  0.5393  1.9109  0.7093
 5559TIP3   OH216682   2.535   3.219   0.905  0.1324  0.7049 -0.2373
 5559TIP3    H116683   2.561   3.154   0.840  0.1789 -0.3919  0.8554
 5559TIP3    H216684   2.618   3.260   0.932  0.1767  0.7235 -0.4002
 5560TIP3   OH216685   4.701   0.008   4.095 -0.6121 -0.1262 -0.0570
 5560TIP3    H116686   4.606   0.004   4.102 -0.5869 -0.3391  0.1862
 5560TIP3    H216687   4.719  -0.002   4.001 -0.7679 -1.6625  0.0409
 5561TIP3   OH216688   5.461   2.211   0.086  0.2669  0.0239 -0.1883
 5561TIP3    H116689   5.414   2.272   0.029 -0.0451 -1.3549 -1.4506
 5561TIP3    H216690   5.467   2.257   0.170  0.4458  1.9701 -1.2010
 5562TIP3   OH216691  -0.036   0.046   4.377  0.0562 -0.0788  0.9467
 5562TIP3    H116692   0.039  -0.011   4.360 -0.0562  0.1735 -0.5853
 5562TIP3    H216693   0.003   0.132   4.396  0.1801  0.1493 -0.2462
 5563TIP3   OH216694   3.547   5.695   2.633 -0.6226 -0.4010  0.3536
 5563TIP3    H116695   3.554   5.686   2.729 -0.1380  1.2966  0.5015
 5563TIP3    H216696   3.605   5.768   2.612 -1.2076 -0.3615 -1.1766
 5564TIP3   OH216697   3.633   3.372   1.918 -0.0624  0.0226  0.5266
 5564TIP3    H116698   3.644   3.436   1.847 -0.7983  0.9570  1.2310
 5564TIP3    H216699   3.711   3.383   1.973  0.1135 -0.1380  0.3151
 5565TIP3   OH216700   1.118   4.024   3.583 -0.4006 -0.4184  0.1761
 5565TIP3    H116701   1.076   4.097   3.537 -1.9323 -1.1286  0.3557
 5565TIP3    H216702   1.119   4.052   3.675 -0.5979 -0.4293  0.1839
 5566TIP3   OH216703   4.155   2.456   3.143 -0.2538  0.0542  0.4810
 5566TIP3    H116704   4.185   2.506   3.218  0.5737  0.1876  0.0717
 5566TIP3    H216705   4.172   2.512   3.068 -1.6822  0.1947  0.2329
 5567TIP3   OH216706   6.035   4.579   4.942  0.6263 -0.6703  0.0262
 5567TIP3    H116707   5.954   4.539   4.972  0.8145 -0.9917  0.1168
 5567TIP3    H216708   6.039   4.663   4.987 -0.8246  0.4342 -1.7427
 5568TIP3   OH216709   0.730   4.079   3.873 -0.3765  0.3165  0.0828
 5568TIP3    H116710   0.666   4.142   3.840 -0.5237 -0.1671 -0.5780
 5568TIP3    H216711   0.759   4.032   3.795  1.8813  1.4962  0.1338
 5569TIP3   OH216712   6.113   0.456   1.860  0.1567 -0.0515  0.6992
 5569TIP3    H116713   6.100   0.428   1.950  0.5858  1.1350  1.1434
 5569TIP3    H216714   6.190   0.408   1.830  0.9213  0.6610  1.4679
 5570TIP3   OH216715   5.752   0.028   4.284 -0.5235  0.4954  0.2603
 5570TIP3    H116716   5.844   0.021   4.310 -0.8001 -0.6023  1.0612
 5570TIP3    H216717   5.747  -0.017   4.200 -0.0005  2.2506 -0.7556
 5571TIP3   OH216718   0.355   3.660   3.802 -0.5201  0.0747  0.3224
 5571TIP3    H116719   0.295   3.709   3.858 -0.4485  2.1499 -1.2530
 5571TIP3    H216720   0.390   3.726   3.741  1.1502 -1.6065 -0.6654
 5572TIP3   OH216721   4.668   2.179   3.761  0.1110  0.4402  0.4748
 5572TIP3    H116722   4.684   2.180   3.855 -1.2823  1.6523  0.7439
 5572TIP3    H216723   4.575   2.156   3.754  0.2235  0.2961 -0.6091
 5573TIP3   OH216724   2.529   5.770   3.591  0.1970  0.1683  0.4907
 5573TIP3    H116725   2.533   5.766   3.495 -1.2627  3.3586  0.1832
 5573TIP3    H216726   2.451   5.721   3.614  1.0889 -1.4644  0.2081
 5574TIP3   OH216727   3.288   4.054   2.920 -0.7341 -0.4097  0.2150
 5574TIP3    H116728   3.241   3.973   2.940 -1.0619 -0.1735  0.4201
 5574TIP3    H216729   3.376   4.041   2.957  0.1737 -1.7936 -2.2371
 5575TIP3   OH216730   2.038   2.550   2.686  0.1588  0.4269 -0.1487
 5575TIP3    H116731   1.980   2.495   2.738  2.4401 -0.7350  1.3618
 5575TIP3    H216732   2.005   2.639   2.698 -1.2823 -0.1759  0.6262
 5576TIP3   OH216733   5.963   3.357   0.665 -0.2300  0.5936 -0.2545
 5576TIP3    H116734   5.923   3.374   0.580  0.1830 -0.0716 -0.5907
 5576TIP3    H216735   5.915   3.413   0.726 -0.0559  1.6288 -1.0356
 5577TIP3   OH216736   3.767   1.676   2.918  0.0346 -0.5488 -0.2480
 5577TIP3    H116737   3.793   1.587   2.893 -1.0263 -1.1125  0.5704
 5577TIP3    H216738   3.677   1.667   2.949  0.1323  0.7075  0.4695
 5578TIP3   OH216739   2.092   0.460   3.378 -0.0276 -0.1744 -0.7843
 5578TIP3    H116740   2.123   0.490   3.292  0.2916 -1.1368 -1.0161
 5578TIP3    H216741   2.003   0.495   3.385 -0.3371 -0.7066 -1.8316
 5579TIP3   OH216742   1.402   3.807   3.654  0.4730 -0.4976 -0.3928
 5579TIP3    H116743   1.382   3.866   3.581  2.0120 -1.5549 -1.7557
 5579TIP3    H216744   1.334   3.740   3.651  0.6772 -0.6816 -1.0504
 5580TIP3   OH216745   5.765   0.396   3.397  0.3289 -0.0305 -0.7293
 5580TIP3    H116746   5.795   0.320   3.445 -0.1355 -0.3589 -0.9503
 5580TIP3    H216747   5.809   0.470   3.439  1.1742 -0.4604 -0.8324
 5581TIP3   OH216748   2.814   5.562   4.452 -0.0126 -0.1251  0.0864
 5581TIP3    H116749   2.792   5.607   4.370 -1.2137  0.5969  0.7913
 5581TIP3    H216750   2.822   5.632   4.517 -1.7069 -0.8731  1.1510
 5582TIP3   OH216751   1.069   5.721   2.124 -0.4588  0.4791 -0.2783
 5582TIP3    H116752   1.057   5.788   2.191  1.5809  0.4238  0.1990
 5582TIP3    H216753   1.162   5.700   2.128 -0.7072 -1.0406 -1.7101
 5583TIP3   OH216754   0.680   4.557   3.683  0.1377  0.1018 -0.7822
 5583TIP3    H116755   0.685   4.480   3.625 -0.7530  0.4870 -1.3955
 5583TIP3    H216756   0.588   4.562   3.708  0.5838 -0.3459  1.1049
 5584TIP3   OH216757   1.531   2.746   4.626 -0.0483  0.1666 -0.2303
 5584TIP3    H116758   1.490   2.806   4.688 -0.7094  2.0515 -2.3575
 5584TIP3    H216759   1.458   2.710   4.576  0.3248 -2.5717  1.0051
 5585TIP3   OH216760   3.871   5.383   0.140  0.1985  0.4156  0.0062
 5585TIP3    H116761   3.794   5.382   0.197  1.6930  2.6703  2.3325
 5585TIP3    H216762   3.945   5.362   0.198  1.4371 -1.6105 -2.1164
 5586TIP3   OH216763   1.114   5.546   2.402 -0.3994  0.0683 -0.6259
 5586TIP3    H116764   1.203   5.560   2.369 -1.0997  0.7725 -2.3797
 5586TIP3    H216765   1.097   5.453   2.387 -0.2506  0.1156 -1.1264
 5587TIP3   OH216766   1.049   4.155   1.084  0.0569 -0.1434  0.1556
 5587TIP3    H116767   1.089   4.154   1.171 -1.4429 -0.6064  0.8658
 5587TIP3    H216768   1.043   4.063   1.059 -0.3119 -0.0640 -0.0531
 5588TIP3   OH216769   2.977   3.674   1.685 -0.0189 -0.1547  0.0236
 5588TIP3    H116770   3.061   3.633   1.704 -0.9261 -1.8959  0.5055
 5588TIP3    H216771   2.913   3.619   1.730 -1.5382  0.3977 -1.3765
 5589TIP3   OH216772   6.242   2.212   3.191  0.5794  0.3167  0.1232
 5589TIP3    H116773   6.254   2.183   3.101  1.9901 -2.0372  0.9629
 5589TIP3    H216774   6.151   2.189   3.211  0.5620 -0.1094 -0.4055
 5590TIP3   OH216775   0.198   2.878   4.278 -0.2082  0.0493  0.0041
 5590TIP3    H116776   0.276   2.931   4.292 -0.4163  0.6925 -1.1406
 5590TIP3    H216777   0.125   2.939   4.284 -0.5515 -0.3467 -0.0459
 5591TIP3   OH216778   0.425   0.264   0.337 -0.7423  0.0768 -0.2824
 5591TIP3    H116779   0.374   0.243   0.259 -0.1406 -2.0572 -0.1568
 5591TIP3    H216780   0.503   0.308   0.303 -0.8848 -0.0630 -0.8059
 5592TIP3   OH216781   0.454   1.234   1.611  0.0859  0.1882 -0.1756
 5592TIP3    H116782   0.524   1.268   1.667 -0.0812 -0.1699  0.2617
 5592TIP3    H216783   0.495   1.220   1.526  0.1468  1.5407 -0.3959
 5593TIP3   OH216784   1.262   0.359   2.459 -0.6841  0.0895  0.1909
 5593TIP3    H116785   1.347   0.323   2.483 -1.6343 -0.9953  2.1069
 5593TIP3    H216786   1.254   0.339   2.366  1.0610  0.0782 -0.0049
 5594TIP3   OH216787   5.654   3.758   4.980  0.5644  0.3590  0.7078
 5594TIP3    H116788   5.579   3.699   4.991  1.1776 -0.5920 -0.1319
 5594TIP3    H216789   5.721   3.704   4.940  1.9413  1.0334  2.0173
 5595TIP3   OH216790   4.550   1.066   4.913  0.3977  0.0175 -0.2972
 5595TIP3    H116791   4.502   0.992   4.875  0.0655  0.0516  0.0544
 5595TIP3    H216792   4.493   1.099   4.982  2.0966 -1.7080  2.1090
 5596TIP3   OH216793   1.833   2.887   4.578 -0.7720 -0.3615 -0.4898
 5596TIP3    H116794   1.905   2.918   4.524 -2.5168  1.3031 -2.0317
 5596TIP3    H216795   1.844   2.932   4.662 -0.1605  0.0810 -0.8038
 5597TIP3   OH216796   0.362   5.774   1.987  0.0428  0.1922 -0.1215
 5597TIP3    H116797   0.358   5.704   2.051  5.0463 -0.6672 -0.3274
 5597TIP3    H216798   0.307   5.744   1.914 -0.8988 -1.6854  1.2942
 5598TIP3   OH216799   3.494   2.700   2.689  0.4791  0.1988  0.5821
 5598TIP3    H116800   3.499   2.610   2.721 -1.2684 -0.3690 -0.6188
 5598TIP3    H216801   3.504   2.692   2.594  1.0679  1.3759  0.5259
 5599TIP3   OH216802   4.543   2.230   4.673  0.2705 -0.0021 -0.1988
 5599TIP3    H116803   4.556   2.287   4.598  2.2527 -0.7456 -0.4836
 5599TIP3    H216804   4.631   2.214   4.707 -0.3575 -1.6397  0.8089
 5600TIP3   OH216805   1.988   2.259   0.846 -0.1463  0.2855 -0.3244
 5600TIP3    H116806   2.062   2.234   0.900  0.0142  0.0203 -0.6646
 5600TIP3    H216807   1.988   2.355   0.847  0.9670  0.3240 -1.3468
 5601TIP3   OH216808   1.958   5.907   2.028  0.0492 -0.4020  0.4109
 5601TIP3    H116809   2.042   5.892   2.073  0.4623 -0.9761 -0.5347
 5601TIP3    H216810   1.936   5.998   2.049  1.6584  0.2343 -0.5421
 5602TIP3   OH216811   0.515   1.504   0.903  0.0991 -0.0309  1.0526
 5602TIP3    H116812   0.547   1.576   0.850  2.2218 -0.3257  1.8417
 5602TIP3    H216813   0.463   1.546   0.972 -0.9478  0.4971 -0.0382
 5603TIP3   OH216814   2.019   3.923   2.442  0.2116  0.0103  0.6727
 5603TIP3    H116815   1.943   3.868   2.459  0.6788 -0.5202  1.0956
 5603TIP3    H216816   1.988   3.988   2.379 -0.4495 -0.5082  0.4514
 5604TIP3   OH216817   2.601   4.633   1.127 -0.2751 -0.0518 -0.2349
 5604TIP3    H116818   2.662   4.696   1.166 -0.4507 -0.4784  0.7512
 5604TIP3    H216819   2.580   4.573   1.198 -0.3582 -1.0467 -1.0841
 5605TIP3   OH216820   4.241   0.711   2.430 -0.3988 -0.1400  0.1292
 5605TIP3    H116821   4.221   0.712   2.336 -1.3887 -1.0625  0.3057
 5605TIP3    H216822   4.162   0.677   2.471  0.4058 -0.7967  1.1996
 5606TIP3   OH216823   2.533   2.321   2.454  0.3128 -0.4133  0.2793
 5606TIP3    H116824   2.514   2.400   2.504  2.2262 -0.9162  1.9395
 5606TIP3    H216825   2.525   2.250   2.518  1.6546 -1.2069 -0.3903
 5607TIP3   OH216826   6.217   3.754   2.010  0.0604  0.4915  0.0326
 5607TIP3    H116827   6.306   3.777   1.981  0.3177  0.0742  0.4924
 5607TIP3    H216828   6.213   3.783   2.101  0.3545 -1.1507  0.6025
 5608TIP3   OH216829   4.107   0.194   1.921 -0.0829 -0.5267 -0.5820
 5608TIP3    H116830   4.124   0.103   1.895  1.6238 -0.0898 -1.1427
 5608TIP3    H216831   4.190   0.224   1.957 -1.4119 -0.0394  2.3361
 5609TIP3   OH216832   3.472   3.745   3.249  0.1437 -0.0760  0.6085
 5609TIP3    H116833   3.443   3.835   3.266  1.7223  0.5591  0.1727
 5609TIP3    H216834   3.403   3.690   3.285 -0.2294  1.2930  2.1085
 5610TIP3   OH216835   3.134   3.760   0.505  0.3879  0.2895 -0.0917
 5610TIP3    H116836   3.053   3.712   0.490 -0.5973  1.4553  1.1746
 5610TIP3    H216837   3.116   3.848   0.471  1.4139  0.3628 -0.4953
 5611TIP3   OH216838   2.205   4.955   4.978  0.1422  0.1748  1.0543
 5611TIP3    H116839   2.137   4.938   5.044  1.0077  1.3217  2.3082
 5611TIP3    H216840   2.192   5.047   4.954  1.0317  0.3208  1.0870
 5612TIP3   OH216841   1.323   1.028   0.448  0.3364  0.3826  0.5373
 5612TIP3    H116842   1.272   1.076   0.514 -0.0402  1.8330 -0.7479
 5612TIP3    H216843   1.388   1.092   0.418  0.5853 -0.3069 -0.4002
 5613TIP3   OH216844   1.917   4.191   2.453 -1.1462 -0.1068 -0.2775
 5613TIP3    H116845   1.821   4.180   2.452 -1.0536 -1.0489 -1.3873
 5613TIP3    H216846   1.943   4.166   2.542 -2.1320  2.5320  0.8521
 5614TIP3   OH216847   5.617   4.949   1.051 -0.2845 -0.3716 -0.2787
 5614TIP3    H116848   5.605   4.955   0.956 -2.8023  0.1096 -0.0034
 5614TIP3    H216849   5.600   4.856   1.071  1.6701 -0.7970 -0.4085
 5615TIP3   OH216850   3.930   5.123   1.984  0.2770  0.0924 -0.3334
 5615TIP3    H116851   3.890   5.038   1.968 -2.6175  1.4385 -0.9869
 5615TIP3    H216852   3.869   5.186   1.944  0.8588  2.6651  2.4340
 5616TIP3   OH216853   2.115   1.449   2.513  0.4686 -0.3333 -0.2635
 5616TIP3    H116854   2.027   1.487   2.508  0.5717 -0.1907 -1.1643
 5616TIP3    H216855   2.114   1.396   2.592 -0.2151  0.2072  0.0978
 5617TIP3   OH216856   6.302   0.457   2.689  0.2961 -0.0276 -0.3177
 5617TIP3    H116857   6.378   0.463   2.631  1.2683  2.3838  1.0534
 5617TIP3    H216858   6.231   0.501   2.641  1.2431  2.4669  0.4194
 5618TIP3   OH216859   0.628   2.197   2.560  0.9519  0.2506  0.1508
 5618TIP3    H116860   0.538   2.222   2.581  0.6236  0.3039 -1.1946
 5618TIP3    H216861   0.620   2.143   2.482  1.9516 -1.3518  1.1172
 5619TIP3   OH216862   4.911   4.982   2.281  0.7215 -0.7803 -0.0553
 5619TIP3    H116863   4.852   4.966   2.208 -2.3630  1.3793  1.7266
 5619TIP3    H216864   4.970   5.050   2.249 -1.9726  1.7531 -0.0996
 5620TIP3   OH216865   1.614   5.927   0.132  0.3388 -0.8206 -0.3485
 5620TIP3    H116866   1.558   5.884   0.197  1.6062  0.0724  1.4092
 5620TIP3    H216867   1.677   5.978   0.183 -0.1704  2.0246 -2.2947
 5621TIP3   OH216868   4.578   4.596   4.710 -0.5771 -0.4865 -0.0978
 5621TIP3    H116869   4.519   4.585   4.784  0.1953  0.7515  0.7367
 5621TIP3    H216870   4.662   4.560   4.740 -0.3093 -0.1654 -0.4513
 5622TIP3   OH216871   6.189   1.327   2.599 -0.3757  0.3190 -0.0643
 5622TIP3    H116872   6.236   1.365   2.525 -0.1395 -0.4019 -0.2925
 5622TIP3    H216873   6.207   1.387   2.672  0.3155  0.4369 -0.3203
 5623TIP3   OH216874   5.838   1.385   3.513  0.0802 -0.2857 -0.1935
 5623TIP3    H116875   5.864   1.308   3.463  0.5710 -0.6750  0.6424
 5623TIP3    H216876   5.816   1.351   3.600  0.6396  0.5422  0.2930
 5624TIP3   OH216877   3.330   2.071   4.339 -0.2287  0.7138  0.7222
 5624TIP3    H116878   3.418   2.110   4.345 -0.5479  1.2558  2.4060
 5624TIP3    H216879   3.314   2.035   4.427 -1.2978 -0.2690  0.1439
 5625TIP3   OH216880   4.706   4.417   2.969  0.5647  0.4390 -0.2497
 5625TIP3    H116881   4.758   4.487   3.008 -0.2581  2.5374 -2.6377
 5625TIP3    H216882   4.761   4.383   2.898  0.3065 -0.2247 -0.1391
 5626TIP3   OH216883   0.623   1.304   2.676  0.3605  0.6922  0.4407
 5626TIP3    H116884   0.660   1.392   2.684 -0.6751  1.3873 -1.6617
 5626TIP3    H216885   0.657   1.271   2.594 -0.0077 -0.5138  0.7498
 5627TIP3   OH216886   4.302   4.145   1.480  0.6159 -0.4423 -0.2305
 5627TIP3    H116887   4.384   4.160   1.433 -0.5065  2.4223 -1.4591
 5627TIP3    H216888   4.277   4.056   1.455  2.7216 -0.9418 -0.7743
 5628TIP3   OH216889   3.266   1.594   2.203 -0.1063 -0.4493  0.0045
 5628TIP3    H116890   3.198   1.619   2.265  0.2650  0.7604 -0.0470
 5628TIP3    H216891   3.310   1.520   2.243 -1.0188 -0.8176  0.3475
 5629TIP3   OH216892   0.142   2.407   2.623 -0.5005  0.4992  0.4721
 5629TIP3    H116893   0.085   2.380   2.552  0.5100  2.5990 -1.2171
 5629TIP3    H216894   0.159   2.326   2.672 -4.2879 -0.3337  0.7023
 5630TIP3   OH216895   4.283   2.191   3.088 -0.4797  0.3004  0.0315
 5630TIP3    H116896   4.277   2.284   3.113  0.4536  0.0291  1.3755
 5630TIP3    H216897   4.266   2.144   3.170  0.0278 -0.6969 -0.4291
 5631TIP3   OH216898   0.854   5.030   2.518 -0.4690 -0.4134 -0.3618
 5631TIP3    H116899   0.837   5.067   2.604  1.4451 -0.0869 -0.0754
 5631TIP3    H216900   0.877   4.939   2.535 -0.7218 -0.5177 -0.5848
 5632TIP3   OH216901   2.267   0.514   0.697 -0.2746 -0.2916  0.2766
 5632TIP3    H116902   2.275   0.507   0.602  0.9718  1.5524  0.1984
 5632TIP3    H216903   2.351   0.483   0.730 -0.9909 -1.6723  0.8461
 5633TIP3   OH216904   2.596   0.545   4.849 -0.4585  0.4852 -0.0040
 5633TIP3    H116905   2.674   0.559   4.903 -0.0741  1.2729 -0.7241
 5633TIP3    H216906   2.539   0.619   4.869 -0.8414  0.1423  0.1974
 5634TIP3   OH216907   0.525   4.245   2.943  0.4103  0.3234  0.3027
 5634TIP3    H116908   0.516   4.238   2.848  0.0200 -1.1869  0.4366
 5634TIP3    H216909   0.613   4.214   2.962  0.0045 -0.7271  0.5473
 5635TIP3   OH216910   2.608   2.150   3.105  0.2996  0.2752  0.2406
 5635TIP3    H116911   2.695   2.125   3.136  0.6069  0.2554 -0.6089
 5635TIP3    H216912   2.617   2.156   3.010 -0.5020  0.7725  0.1833
 5636TIP3   OH216913   1.082   0.598   1.428 -0.1030 -0.0726  0.1368
 5636TIP3    H116914   1.142   0.619   1.357  1.2563 -0.8987  1.0024
 5636TIP3    H216915   1.103   0.508   1.452  1.2261  0.9126  3.1752
 5637TIP3   OH216916   0.786   5.119   3.201 -0.1580  0.4428 -0.0046
 5637TIP3    H116917   0.814   5.188   3.260 -3.1286  0.6600  1.2881
 5637TIP3    H216918   0.724   5.161   3.141 -0.2055 -0.6136 -0.7383
 5638TIP3   OH216919   6.279   1.991   2.477 -0.0336 -0.6184 -0.1778
 5638TIP3    H116920   6.281   1.929   2.404  0.4335  0.4617 -1.1222
 5638TIP3    H216921   6.294   2.076   2.436 -2.2340  0.3518  0.8444
 5639TIP3   OH216922   3.898   1.310   3.644  0.3661 -0.5572 -0.2080
 5639TIP3    H116923   3.895   1.215   3.649  0.9848 -0.5687  0.1011
 5639TIP3    H216924   3.984   1.329   3.606  0.5980 -0.1092  0.5065
 5640TIP3   OH216925   4.553   3.561   4.491 -0.2427  0.2524 -0.3548
 5640TIP3    H116926   4.626   3.623   4.485  0.1943 -0.2367 -0.2303
 5640TIP3    H216927   4.511   3.581   4.575  1.4826 -1.2807  0.9619
 5641TIP3   OH216928   4.634   1.519   1.659 -0.2696  0.1597 -0.1660
 5641TIP3    H116929   4.722   1.549   1.683 -0.9557  2.1091  0.1246
 5641TIP3    H216930   4.611   1.572   1.583 -0.7295 -1.2564 -1.0541
 5642TIP3   OH216931   4.718   0.761   4.804 -0.5112 -0.5948  0.0094
 5642TIP3    H116932   4.774   0.696   4.762 -0.3579 -0.2467 -0.3352
 5642TIP3    H216933   4.748   0.845   4.769 -0.2997 -0.2829  0.9133
 5643TIP3   OH216934   0.735   5.563   1.725 -0.1134  0.5213 -0.0349
 5643TIP3    H116935   0.707   5.632   1.665 -1.5870 -0.0383 -0.0226
 5643TIP3    H216936   0.654   5.522   1.755  0.7045 -0.8985  0.3438
 5644TIP3   OH216937   5.956   1.738   0.778 -0.0419  0.0673 -0.2436
 5644TIP3    H116938   6.036   1.782   0.807 -0.7430 -0.2287  2.3687
 5644TIP3    H216939   5.959   1.744   0.682  1.8108  2.3138 -0.1360
 5645TIP3   OH216940   3.910   2.761   1.126  0.8510  0.2421 -0.5210
 5645TIP3    H116941   3.910   2.844   1.175  0.7918 -0.0915  0.0460
 5645TIP3    H216942   3.819   2.751   1.096  0.4476 -0.4511  0.8491
 5646TIP3   OH216943   3.105   0.353   3.457 -0.0663 -0.2697 -0.2918
 5646TIP3    H116944   3.031   0.413   3.459 -2.5645 -3.0686  2.8729
 5646TIP3    H216945   3.076   0.281   3.401  0.9290 -0.6693 -0.3101
 5647TIP3   OH216946   4.538   3.115   4.440  0.2902 -0.1488  0.4298
 5647TIP3    H116947   4.605   3.049   4.455  0.3416 -0.3787 -0.7126
 5647TIP3    H216948   4.586   3.198   4.441  0.7252 -0.3498 -0.9457
 5648TIP3   OH216949   2.317   3.158   1.705 -0.7988  0.6238 -0.3891
 5648TIP3    H116950   2.248   3.111   1.658 -0.8923  0.2010  0.1636
 5648TIP3    H216951   2.322   3.243   1.661 -0.6174  0.0998 -1.4073
 5649TIP3   OH216952   2.844   4.987   2.212 -0.1463  0.1105  0.1974
 5649TIP3    H116953   2.815   4.901   2.242  1.2720 -1.2964 -2.2009
 5649TIP3    H216954   2.924   5.004   2.263 -1.2629  0.8164  1.8112
 5650TIP3   OH216955   4.624   0.235   1.334 -0.6952 -0.0489  0.8627
 5650TIP3    H116956   4.687   0.305   1.354  0.0471 -0.4229 -0.0921
 5650TIP3    H216957   4.605   0.246   1.241 -1.7805 -0.1718  1.0584
 5651TIP3   OH216958   5.763   5.455   0.085  0.4907  0.4362  0.3329
 5651TIP3    H116959   5.822   5.397   0.037 -0.2153 -2.1706  2.3869
 5651TIP3    H216960   5.676   5.432   0.053  0.3212  2.0263 -0.4279
 5652TIP3   OH216961   4.420   1.478   2.629 -0.4040 -0.2537 -0.4552
 5652TIP3    H116962   4.464   1.525   2.700  0.5943  0.3009 -1.4075
 5652TIP3    H216963   4.332   1.514   2.627 -0.8840 -1.2230  1.3420
 5653TIP3   OH216964   1.795   3.048   2.016 -0.1130  0.3612 -0.4559
 5653TIP3    H116965   1.813   2.962   1.979  3.4221  0.9154 -0.4115
 5653TIP3    H216966   1.712   3.038   2.061  0.0864 -2.9946 -0.5734
 5654TIP3   OH216967   2.374   0.943   2.792  0.2624  0.3315  0.0881
 5654TIP3    H116968   2.368   0.848   2.799  1.0858  0.2675  0.0486
 5654TIP3    H216969   2.283   0.974   2.797  0.1186 -0.2436  3.2524
 5655TIP3   OH216970   4.182   4.496   1.247 -0.3447 -0.0104  0.5516
 5655TIP3    H116971   4.097   4.461   1.274 -0.3136 -0.3170  0.2554
 5655TIP3    H216972   4.211   4.438   1.176 -0.6533  1.0641 -0.4905
 5656TIP3   OH216973   2.499   4.285   1.692 -0.1055  0.4482 -0.8128
 5656TIP3    H116974   2.433   4.326   1.636 -1.5098 -0.5264  0.0839
 5656TIP3    H216975   2.457   4.206   1.725  1.5225 -0.2066 -0.2064
 5657TIP3   OH216976   2.304   1.066   2.053 -0.1620 -0.3402 -0.0096
 5657TIP3    H116977   2.316   1.046   1.960 -0.0423 -0.6297  0.0665
 5657TIP3    H216978   2.346   0.993   2.099 -2.2535 -1.4391  0.2788
 5658TIP3   OH216979   1.671   2.398   0.730 -0.0577 -0.4404 -0.0334
 5658TIP3    H116980   1.675   2.305   0.749 -3.7543 -0.9249 -0.8950
 5658TIP3    H216981   1.660   2.404   0.635 -4.8667  0.3407  0.3144
 5659TIP3   OH216982   6.133   3.402   1.069 -0.5466  0.5407  0.2915
 5659TIP3    H116983   6.162   3.444   0.988  1.5205 -1.0866  0.1046
 5659TIP3    H216984   6.061   3.344   1.043  1.5007 -1.6376 -0.9126
 5660TIP3   OH216985   3.824   4.214   0.737  0.4461 -0.3868 -0.2861
 5660TIP3    H116986   3.819   4.214   0.641  2.1569  0.7365 -0.4116
 5660TIP3    H216987   3.749   4.266   0.765 -1.8623 -3.1486 -0.8030
 5661TIP3   OH216988   1.427   2.477   4.097  0.0434 -0.5291  0.8409
 5661TIP3    H116989   1.482   2.550   4.127 -1.1686  0.6104  0.3516
 5661TIP3    H216990   1.338   2.502   4.121 -0.4525 -1.6211  0.2046
 5662TIP3   OH216991   1.641   5.549   0.369  0.2054  0.6299 -0.3050
 5662TIP3    H116992   1.720   5.551   0.315  0.2976  0.7582 -0.1668
 5662TIP3    H216993   1.623   5.641   0.389  1.7550  0.4786  2.1731
 5663TIP3   OH216994   5.253   5.227   1.651  0.0415 -0.8249 -0.0602
 5663TIP3    H116995   5.228   5.311   1.689 -0.2866 -1.2583  0.7111
 5663TIP3    H216996   5.333   5.203   1.697  0.7423 -0.4354 -1.0420
 5664TIP3   OH216997   0.179   0.456   1.160  0.0355 -0.2811 -0.7278
 5664TIP3    H116998   0.160   0.549   1.145 -2.6935 -0.6930 -0.3442
 5664TIP3    H216999   0.204   0.422   1.074  1.6275  0.8568 -0.7697
 5665TIP3   OH217000   2.361   3.467   1.248  0.9141  0.0953 -0.3169
 5665TIP3    H117001   2.365   3.374   1.225 -0.5144 -0.1048  0.1350
 5665TIP3    H217002   2.401   3.512   1.174  1.1372 -0.8510 -0.7836
 5666TIP3   OH217003   0.216   3.186   4.688  0.3540  0.0242  0.3608
 5666TIP3    H117004   0.279   3.128   4.645  0.7392  0.5317  0.2320
 5666TIP3    H217005   0.214   3.264   4.634 -0.0195  0.2128  0.6392
 5667TIP3   OH217006   5.789   1.505   4.591  0.4166 -0.3083  0.5002
 5667TIP3    H117007   5.870   1.505   4.642  0.8729  0.6263 -0.1906
 5667TIP3    H217008   5.724   1.468   4.649  0.9392  0.6492  1.7302
 5668TIP3   OH217009  -0.023   4.080   1.846 -0.1455  0.0546 -0.3342
 5668TIP3    H117010   0.009   3.989   1.845 -1.9930 -0.6738  0.8768
 5668TIP3    H217011   0.042   4.128   1.897  1.1278 -0.4318 -1.4176
 5669TIP3   OH217012   4.936   1.113   3.048  0.1447  0.5601 -0.0108
 5669TIP3    H117013   5.009   1.109   2.986  0.5246 -0.8779  0.4976
 5669TIP3    H217014   4.960   1.184   3.108  0.4910  0.9640 -0.6088
 5670TIP3   OH217015   3.525   1.998   2.070 -0.4692  0.1122  0.4574
 5670TIP3    H117016   3.490   1.913   2.097 -0.7788  0.9447  2.8759
 5670TIP3    H217017   3.490   2.011   1.982  2.6972 -3.9260 -1.7557
 5671TIP3   OH217018   2.402   2.365   2.175 -0.0095  0.3619  0.1004
 5671TIP3    H117019   2.483   2.319   2.197 -0.0344  0.6101  0.7516
 5671TIP3    H217020   2.417   2.400   2.087 -0.3630 -1.7025 -0.8431
 5672TIP3   OH217021   2.733   3.408   2.578  0.3411 -0.2516  0.3852
 5672TIP3    H117022   2.793   3.460   2.632  0.9087  0.0528 -0.5111
 5672TIP3    H217023   2.757   3.431   2.488 -0.1064 -1.2941 -0.0063
 5673TIP3   OH217024   6.017   1.267   0.463  0.5554 -0.1421 -0.4460
 5673TIP3    H117025   5.987   1.357   0.445  0.7496 -0.0364 -0.2372
 5673TIP3    H217026   5.984   1.248   0.550  1.6865  0.2294  0.0785
 5674TIP3   OH217027   4.653   0.251   3.355  0.1173 -0.0005  0.0303
 5674TIP3    H117028   4.621   0.194   3.286 -0.1563 -1.0866  1.0184
 5674TIP3    H217029   4.747   0.257   3.340 -0.1314  0.9924 -1.2884
 5675TIP3   OH217030   6.232   3.068   3.360 -0.3096 -0.4809 -0.1595
 5675TIP3    H117031   6.213   3.031   3.274 -0.2941 -0.0571 -0.3460
 5675TIP3    H217032   6.327   3.061   3.369 -0.1571  0.6363 -0.7195
 5676TIP3   OH217033   1.889   2.058   1.519 -0.5114  0.1482  0.6656
 5676TIP3    H117034   1.849   2.138   1.553 -0.6111  0.5164 -0.2897
 5676TIP3    H217035   1.953   2.088   1.455 -1.6397 -0.5498 -0.8644
 5677TIP3   OH217036   6.082   1.737   4.618  0.3031  0.0090 -0.0997
 5677TIP3    H117037   5.988   1.746   4.634  0.5514  1.4617  0.7298
 5677TIP3    H217038   6.094   1.764   4.527 -0.1449 -0.8033 -0.4103
 5678TIP3   OH217039   3.953   3.172   1.674 -0.5308 -0.3784  0.4985
 5678TIP3    H117040   4.019   3.111   1.642 -0.5766 -0.2445  0.1482
 5678TIP3    H217041   3.999   3.223   1.742 -0.3241 -0.4042  0.3783
 5679TIP3   OH217042   5.665   3.581   3.735 -0.8464 -0.2948 -0.1108
 5679TIP3    H117043   5.636   3.636   3.661 -0.4157 -0.9040 -0.7475
 5679TIP3    H217044   5.601   3.510   3.738 -0.8016 -0.3283  0.0353
 5680TIP3   OH217045   5.093   5.096   0.326 -0.1056  0.3803  0.3395
 5680TIP3    H117046   5.002   5.104   0.356 -0.6400 -1.3699 -0.6763
 5680TIP3    H217047   5.089   5.115   0.233  0.5332  0.1168  0.2544
 5681TIP3   OH217048   3.915   3.454   4.038 -0.2376  0.4530  0.1288
 5681TIP3    H117049   4.001   3.488   4.016 -0.5100  0.1316 -1.5824
 5681TIP3    H217050   3.854   3.507   3.986 -1.0473  0.4403  1.0285
 5682TIP3   OH217051   3.071   0.371   1.150 -0.1488 -0.0858  0.0348
 5682TIP3    H117052   3.112   0.291   1.180 -0.4232 -0.3252 -0.2129
 5682TIP3    H217053   3.140   0.438   1.155  0.5369 -0.6581 -1.1943
 5683TIP3   OH217054   2.552   1.462   4.633 -0.1588 -0.2110 -0.0183
 5683TIP3    H117055   2.470   1.498   4.598 -0.0706  0.2126  0.1991
 5683TIP3    H217056   2.524   1.402   4.702 -0.2484  1.9786  1.9740
 5684TIP3   OH217057   5.374   3.255   2.400 -0.6588 -0.0897 -0.3087
 5684TIP3    H117058   5.365   3.278   2.308  0.3478 -1.0055 -0.6628
 5684TIP3    H217059   5.460   3.288   2.425  1.0651 -3.5874 -0.9719
 5685TIP3   OH217060   4.643   0.880   4.403 -0.4348  0.2098  0.1100
 5685TIP3    H117061   4.638   0.921   4.317  1.2363  0.1469 -0.0364
 5685TIP3    H217062   4.688   0.797   4.387 -2.5646 -1.1324  0.6142
 5686TIP3   OH217063   3.425   2.168   0.522  0.1446  0.1958 -0.1972
 5686TIP3    H117064   3.515   2.195   0.541  0.6811 -1.7488  0.1699
 5686TIP3    H217065   3.398   2.228   0.452  2.4436 -0.4436 -1.7653
 5687TIP3   OH217066   4.099   0.962   2.760 -0.4937  0.0167 -0.0603
 5687TIP3    H117067   4.017   0.920   2.732  0.2115 -1.1066 -0.5034
 5687TIP3    H217068   4.095   0.960   2.855  0.1831 -2.4732 -0.0302
 5688TIP3   OH217069   4.377   3.449   1.601 -0.2162 -0.3068 -0.3373
 5688TIP3    H117070   4.303   3.472   1.545 -1.3228  0.3172  1.3028
 5688TIP3    H217071   4.351   3.368   1.643 -0.2497  0.2159  0.6808
 5689TIP3   OH217072   2.916   1.394   4.817  0.1769  0.1704 -0.3573
 5689TIP3    H117073   3.010   1.391   4.803  0.3690  0.0579  0.8443
 5689TIP3    H217074   2.878   1.365   4.734  1.0625  3.5876 -2.1430
 5690TIP3   OH217075   2.000   5.491   2.109 -0.2985 -0.0501  0.0393
 5690TIP3    H117076   2.016   5.505   2.015 -0.6334  0.1902  0.0126
 5690TIP3    H217077   1.944   5.565   2.134  0.3835  0.2902  0.5949
 5691TIP3   OH217078   4.233   0.186   2.825  0.6366  0.2191 -0.3891
 5691TIP3    H117079   4.311   0.145   2.863 -0.1042 -0.5504  0.3316
 5691TIP3    H217080   4.257   0.278   2.814  1.0056  0.4009  1.6274
 5692TIP3   OH217081   5.907   3.011   3.288 -0.3094 -0.2096  0.0272
 5692TIP3    H117082   5.949   3.018   3.374  0.4589  0.9105 -0.4137
 5692TIP3    H217083   5.916   3.098   3.250 -1.5223 -0.4243 -0.8021
 5693TIP3   OH217084   6.330   5.789   5.170 -0.0351 -0.4058  0.5504
 5693TIP3    H117085   6.283   5.734   5.233 -0.3392 -0.4370  0.3013
 5693TIP3    H217086   6.273   5.789   5.092 -0.4734  0.9898  0.8559
 5694TIP3   OH217087   1.134   2.177   2.811  0.3634  0.3115  0.4431
 5694TIP3    H117088   1.093   2.247   2.862  0.7198  0.9148 -0.0864
 5694TIP3    H217089   1.125   2.204   2.720 -0.0990 -0.6651  0.1822
 5695TIP3   OH217090   1.268   3.570   1.011  0.4879  0.5140  0.8815
 5695TIP3    H117091   1.261   3.530   1.098 -0.7384  0.7653  0.9199
 5695TIP3    H217092   1.178   3.571   0.978  1.0938 -0.8971 -1.0032
 5696TIP3   OH217093   2.748   0.998   3.258  0.0783  0.4852  0.1299
 5696TIP3    H117094   2.665   0.969   3.295 -0.0807  0.9024  0.1046
 5696TIP3    H217095   2.800   0.918   3.249 -1.1042 -0.1240 -1.8879
 5697TIP3   OH217096   4.225   2.414   5.116 -0.0918  0.1115 -0.0252
 5697TIP3    H117097   4.304   2.429   5.169  0.6069  0.0838 -1.0241
 5697TIP3    H217098   4.234   2.325   5.083 -0.7475 -0.0348  0.1795
 5698TIP3   OH217099   2.753   1.998   4.066 -0.2471  0.1962 -0.6872
 5698TIP3    H117100   2.794   2.036   4.143 -0.0102  0.0408 -0.7375
 5698TIP3    H217101   2.700   1.925   4.100 -0.3132  0.2620 -0.6483
 5699TIP3   OH217102   5.204   5.718   1.759 -0.5548  0.4570 -0.3461
 5699TIP3    H117103   5.140   5.784   1.786 -0.3957  0.2555  0.5606
 5699TIP3    H217104   5.224   5.740   1.668 -2.0427  0.4140 -0.7128
 5700TIP3   OH217105   1.976   3.207   3.044  0.6805  0.3682  0.2356
 5700TIP3    H117106   2.035   3.281   3.058 -0.3776  1.2019  0.4014
 5700TIP3    H217107   1.984   3.154   3.124  2.2899 -0.3320 -0.3526
 5701TIP3   OH217108   2.750   3.973   1.863 -0.1046  0.3187 -0.8064
 5701TIP3    H117109   2.809   3.922   1.919 -0.4004  0.3393 -0.4720
 5701TIP3    H217110   2.764   4.063   1.891 -0.1519  0.3426 -0.8610
 5702TIP3   OH217111   5.660   2.614   2.675  0.1244 -0.4324 -0.2771
 5702TIP3    H117112   5.615   2.575   2.750  2.1118  0.6969  1.6003
 5702TIP3    H217113   5.668   2.707   2.697  0.5061 -0.0204 -2.0343
 5703TIP3   OH217114   4.831   5.593   2.073 -0.3456  0.2549  0.2544
 5703TIP3    H117115   4.770   5.624   2.141 -0.1321 -1.1802  1.1334
 5703TIP3    H217116   4.781   5.528   2.024 -0.2316  0.7112 -0.4831
 5704TIP3   OH217117   0.869   4.524   5.045 -0.3187  0.0877  0.1200
 5704TIP3    H117118   0.932   4.525   4.973 -0.3090 -0.8206  0.1028
 5704TIP3    H217119   0.920   4.546   5.123  0.1513 -1.2243  0.1950
 5705TIP3   OH217120   1.489   2.738   0.355 -0.7192  0.0293  0.9520
 5705TIP3    H117121   1.506   2.797   0.282  1.8101 -2.8331 -1.0158
 5705TIP3    H217122   1.563   2.750   0.414 -0.9191 -0.1831  1.2525
 5706TIP3   OH217123   3.094   0.182   4.530 -0.1507  0.6328 -0.0606
 5706TIP3    H117124   3.007   0.157   4.561  0.3903  0.6234  1.5111
 5706TIP3    H217125   3.103   0.274   4.555 -0.4799  1.2768 -2.0768
 5707TIP3   OH217126   1.803   0.235   4.742 -0.3573  0.4742  0.3422
 5707TIP3    H117127   1.795   0.168   4.809 -1.9743 -0.5521 -0.7977
 5707TIP3    H217128   1.883   0.212   4.694  1.5237  1.9374  2.5673
 5708TIP3   OH217129   5.486   5.179   0.360  0.0568  0.0071 -0.2650
 5708TIP3    H117130   5.418   5.206   0.422  1.0779  1.5345  0.2379
 5708TIP3    H217131   5.563   5.230   0.384  0.1211  1.8463 -3.6315
 5709TIP3   OH217132   4.350   1.526   0.616  0.1385  0.5137  0.1116
 5709TIP3    H117133   4.362   1.618   0.592 -0.3439  0.7045  0.5719
 5709TIP3    H217134   4.389   1.477   0.544  0.6585  1.0809 -0.0025
 5710TIP3   OH217135   1.471   5.770   4.613  0.0477  0.2526  0.9724
 5710TIP3    H117136   1.423   5.813   4.684 -0.3283 -0.6513  1.2869
 5710TIP3    H217137   1.496   5.841   4.554 -0.7025  0.8758  1.3833
 5711TIP3   OH217138   3.584   2.108   4.405 -0.4743 -0.0198 -0.5955
 5711TIP3    H117139   3.584   2.200   4.429  0.5657 -0.2006  0.1990
 5711TIP3    H217140   3.615   2.063   4.484 -0.1659 -0.9647 -1.2356
 5712TIP3   OH217141   3.860   2.204   1.762 -0.1834 -0.0777  0.9727
 5712TIP3    H117142   3.804   2.127   1.773 -1.5797  0.6287 -0.7249
 5712TIP3    H217143   3.949   2.170   1.772 -0.5144 -2.6628 -2.8299
 5713TIP3   OH217144   0.228   4.838   5.143  0.1321  0.8971  0.4341
 5713TIP3    H117145   0.261   4.919   5.105  2.3997  0.1950  0.7326
 5713TIP3    H217146   0.297   4.810   5.204 -0.8063 -0.9715  0.7237
 5714TIP3   OH217147   3.235   5.810   0.547 -0.1761 -0.4832 -0.5218
 5714TIP3    H117148   3.200   5.797   0.635  1.3380  1.9279  0.5436
 5714TIP3    H217149   3.277   5.727   0.525 -1.8044 -1.6033  0.3808
 5715TIP3   OH217150   2.856   3.009   4.591 -0.1886  0.0633 -0.1341
 5715TIP3    H117151   2.768   3.023   4.627  0.0742  0.4843  0.3529
 5715TIP3    H217152   2.903   2.962   4.660 -1.0326 -3.3726 -1.6710
 5716TIP3   OH217153   4.625   3.930   0.587  0.3999 -0.3698  0.2917
 5716TIP3    H117154   4.671   3.868   0.532  1.2860  0.3827  0.1497
 5716TIP3    H217155   4.612   4.007   0.532  0.4258  0.0337  0.8359
 5717TIP3   OH217156   1.134   0.447   0.637  0.2463  0.6236 -0.1823
 5717TIP3    H117157   1.056   0.500   0.621 -0.2615 -0.3182 -0.9123
 5717TIP3    H217158   1.164   0.422   0.549  0.3406 -0.4875  0.1560
 5718TIP3   OH217159   2.114   2.194   5.007  0.4635  0.1798  0.5181
 5718TIP3    H117160   2.076   2.156   4.928  0.4332 -0.2780  0.7462
 5718TIP3    H217161   2.203   2.161   5.009 -0.0853 -1.3674  1.6516
 5719TIP3   OH217162   1.391   5.694   2.571  0.0382 -0.1124  0.2304
 5719TIP3    H117163   1.396   5.698   2.476 -0.2263  0.6336  0.2370
 5719TIP3    H217164   1.383   5.786   2.598 -1.0121 -0.3822  0.9004
 5720TIP3   OH217165   2.269   0.310   0.033  0.8927 -0.8623 -0.3364
 5720TIP3    H117166   2.175   0.326   0.045  1.1328  0.5965 -0.1502
 5720TIP3    H217167   2.279   0.293  -0.060  0.5382 -0.1743 -0.5059
 5721TIP3   OH217168   3.637   2.494   2.204  0.1192 -0.4057  0.0037
 5721TIP3    H117169   3.554   2.477   2.158  0.2792  0.4168 -0.5966
 5721TIP3    H217170   3.697   2.428   2.169  0.0785 -0.1601 -0.5382
 5722TIP3   OH217171   1.331   4.998   3.085 -0.0208  0.6683 -0.0346
 5722TIP3    H117172   1.366   4.987   3.174  0.4196 -1.0804 -0.3852
 5722TIP3    H217173   1.236   4.992   3.097  0.0804 -2.3493  0.0810
 5723TIP3   OH217174   4.382   3.686   2.382 -0.0330 -0.1324 -0.2543
 5723TIP3    H117175   4.430   3.665   2.462  1.5924 -1.0476 -1.4236
 5723TIP3    H217176   4.303   3.632   2.386 -0.2142  0.1836  0.9209
 5724TIP3   OH217177   5.802   4.118   1.404 -0.8163 -0.2008 -0.7908
 5724TIP3    H117178   5.709   4.142   1.398 -0.7780  0.3484  0.4320
 5724TIP3    H217179   5.848   4.202   1.410 -0.4422 -0.4823  0.7451
 5725TIP3   OH217180   4.990   0.882   4.883  0.4519  0.0245 -0.5541
 5725TIP3    H117181   5.062   0.937   4.852 -0.3956  0.8858 -1.0390
 5725TIP3    H217182   4.917   0.942   4.895  0.2353 -0.5599  1.4727
 5726TIP3   OH217183   2.947   0.682   2.959  0.3811  0.2148 -0.7154
 5726TIP3    H117184   2.988   0.769   2.954  0.0989  0.4502  0.7018
 5726TIP3    H217185   2.988   0.640   3.034  0.7947 -1.0511 -1.6282
 5727TIP3   OH217186   4.933   5.851   2.648 -0.2926  0.5538  0.3348
 5727TIP3    H117187   4.904   5.763   2.673 -0.9077  0.0086 -1.9948
 5727TIP3    H217188   4.859   5.907   2.666 -0.4055  0.3390  0.5442
 5728TIP3   OH217189   4.346   4.260   0.331 -0.0269  0.2153 -0.1229
 5728TIP3    H117190   4.304   4.311   0.262  0.3980  1.3749  0.4531
 5728TIP3    H217191   4.280   4.194   0.355 -0.6781  0.6280 -0.7259
 5729TIP3   OH217192   2.132   0.039   3.715  0.0639 -0.5881 -0.1705
 5729TIP3    H117193   2.157   0.131   3.716 -0.0885 -0.5306  1.3584
 5729TIP3    H217194   2.194  -0.004   3.773 -1.0788 -1.0801  0.7394
 5730TIP3   OH217195   5.542   1.338   3.233  0.8423  0.4174  0.0955
 5730TIP3    H117196   5.626   1.319   3.191 -0.0460  0.3586 -1.7534
 5730TIP3    H217197   5.558   1.418   3.282  2.3033 -0.2776  0.8068
 5731TIP3   OH217198   1.535   0.236   0.267  0.1137 -0.1443 -0.5067
 5731TIP3    H117199   1.523   0.315   0.214  0.5041 -0.8853 -1.7489
 5731TIP3    H217200   1.556   0.167   0.203 -2.0604 -1.6951  0.3155
 5732TIP3   OH217201   5.953   2.967   0.968  0.0046 -0.3138 -0.5157
 5732TIP3    H117202   5.984   2.939   1.053 -0.6898 -0.7199 -0.3861
 5732TIP3    H217203   5.910   2.890   0.931 -1.1621  0.3166 -0.5237
 5733TIP3   OH217204   0.250   0.294   4.929 -0.5104  0.5277 -0.1020
 5733TIP3    H117205   0.225   0.311   5.020  1.1296  4.6976 -0.2198
 5733TIP3    H217206   0.339   0.327   4.922 -0.9283  1.2908 -3.4171
 5734TIP3   OH217207   5.117   3.327   0.770  0.2782 -0.0809  0.3033
 5734TIP3    H117208   5.031   3.351   0.736  0.6131 -0.4982 -0.8708
 5734TIP3    H217209   5.110   3.343   0.864 -0.9148  0.3767  0.1598
 5735TIP3   OH217210   2.464   0.705   3.872  0.3418 -0.2884 -0.2998
 5735TIP3    H117211   2.508   0.790   3.863  0.5789 -0.4968 -1.1802
 5735TIP3    H217212   2.371   0.728   3.883  0.6048  0.1395  1.3311
 5736TIP3   OH217213   6.322   5.624   1.183  0.3994 -0.2129 -0.0385
 5736TIP3    H117214   6.324   5.594   1.274  1.1137 -1.3683 -0.4136
 5736TIP3    H217215   6.234   5.660   1.172 -0.1857 -1.3553  0.7244
 5737TIP3   OH217216   3.523   3.739   2.245 -0.2729 -0.3110 -0.2926
 5737TIP3    H117217   3.502   3.686   2.323 -0.9461  0.2273 -0.0933
 5737TIP3    H217218   3.587   3.687   2.198  0.3825 -0.5129  0.7785
 5738TIP3   OH217219   3.645   3.670   5.009  0.2319 -0.1496  0.2105
 5738TIP3    H117220   3.621   3.586   4.969  1.7773 -0.6733  0.3115
 5738TIP3    H217221   3.562   3.715   5.021 -0.5258 -1.1396 -1.0092
 5739TIP3   OH217222   0.818   5.185   3.928 -0.2806  0.5022  0.0030
 5739TIP3    H117223   0.882   5.114   3.930 -0.8345 -0.0768 -1.4498
 5739TIP3    H217224   0.738   5.147   3.964 -0.5100  0.4398 -0.5543
 5740TIP3   OH217225   3.729   5.277   2.117  0.2261 -0.4383  0.0994
 5740TIP3    H117226   3.769   5.199   2.080  0.7226 -0.5789  0.9317
 5740TIP3    H217227   3.635   5.267   2.099  0.4818 -0.2948 -1.5045
 5741TIP3   OH217228   5.017   2.920   4.990  0.4278  0.1443  0.3123
 5741TIP3    H117229   5.104   2.926   4.951  0.4022  1.0374  0.3791
 5741TIP3    H217230   5.026   2.855   5.060  1.6271  1.8070  1.8004
 5742TIP3   OH217231   6.137   1.949   1.215 -0.3221  0.2715  0.5565
 5742TIP3    H117232   6.177   1.925   1.298  0.1188  1.1339  0.6072
 5742TIP3    H217233   6.043   1.946   1.231 -0.4160 -2.9741  0.1130
 5743TIP3   OH217234   2.724   1.782   2.098  0.1176 -0.0458  0.0538
 5743TIP3    H117235   2.761   1.836   2.028 -0.0060  0.4658  0.3733
 5743TIP3    H217236   2.632   1.772   2.076  0.5336 -1.7793 -1.0291
 5744TIP3   OH217237   3.655   0.097   4.276  0.4682  0.3993 -0.4595
 5744TIP3    H117238   3.595   0.168   4.298 -0.5158 -0.4999 -0.1864
 5744TIP3    H217239   3.692   0.123   4.192 -0.7866  0.6670 -0.9495
 5745TIP3   OH217240   1.485   1.629   2.001 -0.0459  0.2377  0.3675
 5745TIP3    H117241   1.449   1.544   2.026 -0.7394  0.8759  1.6415
 5745TIP3    H217242   1.420   1.666   1.942 -0.4450  0.4712  0.9436
 5746TIP3   OH217243   1.806   3.619   2.896  0.2778  0.0788 -0.1350
 5746TIP3    H117244   1.834   3.652   2.981  0.4927  1.5272 -0.7373
 5746TIP3    H217245   1.881   3.570   2.863 -0.3232 -1.7922  1.1128
 5747TIP3   OH217246   3.721   1.205   0.576  0.3929 -0.4323 -0.5194
 5747TIP3    H117247   3.784   1.139   0.605  0.6772  0.0994  0.1023
 5747TIP3    H217248   3.712   1.264   0.651 -0.8449 -0.4940 -0.6011
 5748TIP3   OH217249   3.309   4.466   2.591 -0.2301  0.3043  0.4253
 5748TIP3    H117250   3.326   4.384   2.637 -0.1492 -0.4979 -0.9881
 5748TIP3    H217251   3.333   4.534   2.654  1.0934 -0.7653  1.1281
 5749TIP3   OH217252   3.795   4.292   0.454  0.2227 -0.2740 -0.8935
 5749TIP3    H117253   3.701   4.302   0.445 -0.6217 -2.9908  2.5435
 5749TIP3    H217254   3.832   4.357   0.395 -3.7107 -0.2591 -3.7456
 5750TIP3   OH217255   5.734   5.264   3.380  1.0603  0.4646 -0.0075
 5750TIP3    H117256   5.788   5.323   3.326 -0.1319  2.6494  1.0396
 5750TIP3    H217257   5.710   5.317   3.456 -1.2531 -0.9363  0.3217
 5751TIP3   OH217258   0.325   3.095   1.059 -0.2622 -0.1689  0.1471
 5751TIP3    H117259   0.353   3.182   1.031  0.5757 -1.2858 -2.8358
 5751TIP3    H217260   0.248   3.076   1.007 -0.8812 -0.9647  1.3040
 5752TIP3   OH217261   4.719   3.027   1.110  0.2183  0.2576  0.0913
 5752TIP3    H117262   4.796   2.970   1.106 -0.3956 -0.8886  2.6824
 5752TIP3    H217263   4.752   3.109   1.147  0.6984  0.9122 -1.6691
 5753TIP3   OH217264   2.380   4.006   1.106 -0.0602  0.5742 -0.5183
 5753TIP3    H117265   2.446   4.070   1.081 -0.7005  0.6460 -2.1094
 5753TIP3    H217266   2.309   4.059   1.144  0.2220  0.6076 -0.0189
 5754TIP3   OH217267   3.129   3.793   2.579  0.0260  0.2392  0.4531
 5754TIP3    H117268   3.208   3.843   2.558 -1.3465  2.1297 -0.5610
 5754TIP3    H217269   3.092   3.838   2.655 -0.1609 -0.5029  0.8016
 5755TIP3   OH217270   4.393   3.643   3.222 -0.1917  0.1215  0.0659
 5755TIP3    H117271   4.476   3.653   3.174  0.0910  3.3586  0.9556
 5755TIP3    H217272   4.403   3.700   3.298 -2.7497 -0.4831  0.9391
 5756TIP3   OH217273   4.404   5.820   4.356 -0.4689  0.6523  0.3166
 5756TIP3    H117274   4.465   5.782   4.420  1.1196  2.1915 -0.2304
 5756TIP3    H217275   4.357   5.744   4.321  2.8997 -0.9973 -1.0988
 5757TIP3   OH217276   6.224   5.634   4.070 -0.0777  0.2235 -0.1306
 5757TIP3    H117277   6.267   5.691   4.006 -0.0764 -1.0739 -1.3236
 5757TIP3    H217278   6.156   5.589   4.021 -0.3942 -0.4622  0.8998
 5758TIP3   OH217279   5.437   0.885   1.092  0.0012 -0.4322  0.9018
 5758TIP3    H117280   5.495   0.958   1.070 -0.4134 -0.2059  0.5433
 5758TIP3    H217281   5.401   0.908   1.177  0.8638 -0.8462  1.3988
 5759TIP3   OH217282   2.267   2.613   1.842  0.0308 -0.4718  0.3485
 5759TIP3    H117283   2.238   2.667   1.916  1.2022 -1.5574  1.6552
 5759TIP3    H217284   2.186   2.579   1.804 -0.5976  0.1945  1.0462
 5760TIP3   OH217285   3.624   4.627   4.880 -0.2230 -0.0954 -0.1446
 5760TIP3    H117286   3.645   4.700   4.822 -0.9689 -0.3830 -0.7926
 5760TIP3    H217287   3.640   4.661   4.969 -0.8434  0.9411 -0.4205
 5761TIP3   OH217288   0.329   4.712   4.023  0.7544 -0.1573 -0.1524
 5761TIP3    H117289   0.380   4.651   4.075  0.9102  1.4847  1.7347
 5761TIP3    H217290   0.240   4.708   4.059  0.9630  1.3225  0.6125
 5762TIP3   OH217291   3.392   4.352   0.877 -0.5511  0.0190 -0.1964
 5762TIP3    H117292   3.446   4.354   0.956 -1.9601 -2.5856  0.9549
 5762TIP3    H217293   3.449   4.315   0.809 -0.0298  0.0621  0.2166
 5763TIP3   OH217294   2.968   0.822   3.689  0.5563 -0.1040 -0.3016
 5763TIP3    H117295   2.980   0.914   3.664 -1.5543  0.2499 -0.1604
 5763TIP3    H217296   3.057   0.790   3.705  1.2919  2.2771  0.9447
 5764TIP3   OH217297   1.250   5.064   1.684  0.3675  0.4848  0.0884
 5764TIP3    H117298   1.312   4.999   1.717  0.9148  1.9920  2.2073
 5764TIP3    H217299   1.180   5.067   1.749 -0.3045  1.0815 -0.6411
 5765TIP3   OH217300   2.257   2.279   4.459  0.6606  0.2312 -0.0907
 5765TIP3    H117301   2.297   2.365   4.466 -0.5530  0.8884 -0.8669
 5765TIP3    H217302   2.221   2.276   4.371 -1.3580 -0.1304  0.6834
 5766TIP3   OH217303   6.313   3.280   2.836  0.9152 -0.1132  0.7514
 5766TIP3    H117304   6.219   3.270   2.854  0.8626  0.0860  0.5868
 5766TIP3    H217305   6.355   3.220   2.898  0.5556 -2.1108 -0.8195
 5767TIP3   OH217306   0.526   5.717   0.636  0.6405 -0.0232 -0.5341
 5767TIP3    H117307   0.612   5.688   0.605  2.1891  1.7735  1.7534
 5767TIP3    H217308   0.538   5.810   0.655 -1.7246  0.1851  0.2255
 5768TIP3   OH217309   0.873   5.522   2.196 -0.1080 -0.4514 -1.0184
 5768TIP3    H117310   0.909   5.494   2.280 -1.3139  1.8392  0.3713
 5768TIP3    H217311   0.922   5.602   2.174 -0.0502 -0.8264 -2.3298
 5769TIP3   OH217312   1.045   5.948   0.882  0.1706  0.4772  0.5707
 5769TIP3    H117313   1.063   5.944   0.788  2.1461  1.6596  0.8515
 5769TIP3    H217314   0.951   5.931   0.888  0.0809 -0.1275 -1.5645
 5770TIP3   OH217315   4.413   1.408   0.361 -0.4369 -0.1375 -0.0158
 5770TIP3    H117316   4.463   1.472   0.311  0.4154 -0.2936  0.6203
 5770TIP3    H217317   4.423   1.327   0.312 -0.5573 -0.0377 -0.2058
 5771TIP3   OH217318   2.793   4.307   0.732 -0.1703  0.3269 -0.0877
 5771TIP3    H117319   2.826   4.391   0.764 -0.1375  0.8053 -1.3363
 5771TIP3    H217320   2.840   4.291   0.650 -0.7152 -0.5489 -0.2517
 5772TIP3   OH217321   5.040   0.268   1.477 -0.0818  0.3444  0.6641
 5772TIP3    H117322   5.124   0.314   1.477 -0.9064  2.0666  3.1271
 5772TIP3    H217323   5.038   0.223   1.561 -2.2477  1.6585  1.3765
 5773TIP3   OH217324   2.181   0.321   3.696  0.0484  0.0177  0.0436
 5773TIP3    H117325   2.121   0.394   3.708 -0.0490  0.1365 -1.0670
 5773TIP3    H217326   2.268   0.359   3.709  0.2173  1.0331 -3.1479
 5774TIP3   OH217327   4.641   5.452   4.421  0.1075 -0.0575  0.3306
 5774TIP3    H117328   4.668   5.454   4.329  1.5117  0.1843  0.7345
 5774TIP3    H217329   4.569   5.388   4.423 -1.9041  1.9499 -1.4181
 5775TIP3   OH217330   1.245   1.014   3.865 -0.1154  0.2800  0.5067
 5775TIP3    H117331   1.286   1.096   3.892 -0.9908  0.5146  1.1935
 5775TIP3    H217332   1.190   1.038   3.790 -3.2136  1.1637  2.8541
 5776TIP3   OH217333   3.498   2.541   3.748  0.5137  0.0368 -0.0465
 5776TIP3    H117334   3.577   2.505   3.707  0.0847  0.4327 -1.2947
 5776TIP3    H217335   3.496   2.632   3.718 -0.0939  0.1935  0.4657
 5777TIP3   OH217336   0.420   2.350   1.322  0.1891 -0.4181 -0.1697
 5777TIP3    H117337   0.391   2.366   1.412 -0.7856  0.0327 -0.5395
 5777TIP3    H217338   0.341   2.320   1.276  0.6043 -0.3727 -0.9398
 5778TIP3   OH217339   1.356   2.410   0.383  0.5968  0.2095 -0.1888
 5778TIP3    H117340   1.313   2.429   0.299 -0.7077  1.0537  0.6267
 5778TIP3    H217341   1.326   2.480   0.441  0.0571 -1.3282  1.4600
 5779TIP3   OH217342   5.010   3.561   2.871  0.2202  0.4525  0.3955
 5779TIP3    H117343   5.070   3.571   2.797  0.2556  1.7904  0.5773
 5779TIP3    H217344   4.959   3.642   2.872 -1.0591 -0.3231  0.7230
 5780TIP3   OH217345   4.269   4.845   2.922 -0.4490  0.1624  0.4865
 5780TIP3    H117346   4.329   4.876   2.854  2.2264  1.0628  3.0512
 5780TIP3    H217347   4.293   4.754   2.936 -1.0776 -0.0562  0.1835
 5781TIP3   OH217348   4.549   5.409   2.469  0.3852  0.4159  0.3761
 5781TIP3    H117349   4.498   5.328   2.477  0.2549  0.3994 -0.5078
 5781TIP3    H217350   4.505   5.471   2.527 -2.7412  1.4266 -2.7389
 5782TIP3   OH217351   3.516   1.720   1.179  0.3797  0.0676  0.0243
 5782TIP3    H117352   3.433   1.685   1.213 -0.4196 -0.8138 -2.6324
 5782TIP3    H217353   3.575   1.645   1.178  0.4345  0.1157 -0.4072
 5783TIP3   OH217354   4.539   1.017   2.403  0.6880  0.0093  0.2812
 5783TIP3    H117355   4.631   1.019   2.377  0.2662 -1.0056 -1.3704
 5783TIP3    H217356   4.534   1.078   2.477  2.6317  0.2455  0.2580
 5784TIP3   OH217357   5.219   5.183   1.182 -0.0443  0.5203 -0.2617
 5784TIP3    H117358   5.283   5.195   1.112 -0.2673  0.6605 -0.4431
 5784TIP3    H217359   5.135   5.180   1.137 -0.3014  1.7996  0.1064
 5785TIP3   OH217360   1.999   0.085   2.984  0.2914 -0.0898 -0.1957
 5785TIP3    H117361   2.070   0.124   2.933  1.1109 -0.2757  0.7670
 5785TIP3    H217362   2.005   0.128   3.070 -2.0105  1.3458 -0.6426
 5786TIP3   OH217363   3.668   2.101   3.497  0.5329 -0.4256 -0.3182
 5786TIP3    H117364   3.664   2.108   3.592  0.5062 -0.2090 -0.3351
 5786TIP3    H217365   3.757   2.070   3.479  1.1346  1.1958 -0.3161
 5787TIP3   OH217366   0.498   3.404   1.667  0.9906 -0.1308  0.2142
 5787TIP3    H117367   0.479   3.330   1.610 -0.6844 -0.5144  1.2092
 5787TIP3    H217368   0.449   3.477   1.629  1.2819  0.0558  0.1917
 5788TIP3   OH217369   1.646   2.798   1.037 -0.1515  0.1099 -0.1182
 5788TIP3    H117370   1.563   2.762   1.069 -1.0092  2.3982  0.4695
 5788TIP3    H217371   1.653   2.765   0.947 -1.2129 -0.8899  0.1362
 5789TIP3   OH217372   4.612   5.159   4.943  0.5001  0.0217  0.7530
 5789TIP3    H117373   4.594   5.217   4.869  1.1868 -2.1507 -1.2216
 5789TIP3    H217374   4.691   5.196   4.984  1.5040 -0.0146 -1.0587
 5790TIP3   OH217375   0.226   4.044   3.725  0.6574 -0.4421  0.5137
 5790TIP3    H117376   0.311   4.089   3.723  1.0925 -1.2568 -0.3507
 5790TIP3    H217377   0.200   4.038   3.633 -1.3966  1.6787  0.8564
 5791TIP3   OH217378   5.862   3.924   1.606  0.0996  0.0442 -0.3667
 5791TIP3    H117379   5.850   3.993   1.540  0.8602 -1.1535 -1.8217
 5791TIP3    H217380   5.937   3.952   1.657 -1.1421  1.5109  0.7296
 5792TIP3   OH217381   1.109   3.292   4.703 -0.5129 -0.0560  1.0536
 5792TIP3    H117382   1.061   3.373   4.718  0.5851  0.3103  2.9077
 5792TIP3    H217383   1.199   3.319   4.685 -0.0725 -0.8363  1.9420
 5793TIP3   OH217384   4.596   3.948   4.563 -0.4019 -0.4571  0.0735
 5793TIP3    H117385   4.608   4.025   4.508  0.0240 -0.2806  0.4065
 5793TIP3    H217386   4.561   3.982   4.645  1.8188 -0.3267  1.0303
 5794TIP3   OH217387   0.575   0.826   2.696 -0.2035  0.3592 -0.3364
 5794TIP3    H117388   0.522   0.747   2.699  1.2873 -0.6955 -0.7396
 5794TIP3    H217389   0.579   0.849   2.603 -1.0580  1.2138 -0.1677
 5795TIP3   OH217390   5.998   1.728   2.084 -0.2263  0.3723  0.4159
 5795TIP3    H117391   6.063   1.718   2.015 -1.0602 -2.7804 -0.0892
 5795TIP3    H217392   5.914   1.725   2.039 -0.7631  1.6472  1.2939
 5796TIP3   OH217393   4.089   3.325   1.857 -0.1499  0.1494  0.3757
 5796TIP3    H117394   4.141   3.402   1.878 -0.6108  0.6789 -0.3738
 5796TIP3    H217395   4.027   3.316   1.930 -1.6898  1.9227 -0.6193
 5797TIP3   OH217396   4.347   3.336   3.778 -0.0406  0.1490  0.7669
 5797TIP3    H117397   4.413   3.295   3.834  0.9651 -0.8455 -1.0642
 5797TIP3    H217398   4.384   3.421   3.755 -0.7497  0.8442  2.0790
 5798TIP3   OH217399   1.243   4.317   5.029  0.0741  0.1635 -0.0930
 5798TIP3    H117400   1.257   4.396   5.081 -2.2233  0.5578 -0.0090
 5798TIP3    H217401   1.242   4.347   4.938 -1.5523  0.3734 -0.0196
 5799TIP3   OH217402   1.167   5.441   0.133  0.2271 -0.1882 -0.3721
 5799TIP3    H117403   1.245   5.470   0.179  0.0935 -0.3394 -0.0514
 5799TIP3    H217404   1.116   5.394   0.198  0.2104 -0.7248 -0.7632
 5800TIP3   OH217405   5.265   5.443   1.410 -0.2097 -0.2779 -1.1573
 5800TIP3    H117406   5.233   5.469   1.323 -3.1579  2.1561  0.4365
 5800TIP3    H217407   5.199   5.382   1.442  0.6609 -0.8775 -0.4956
 5801TIP3   OH217408   5.458   1.910   2.800  0.0879  0.0630 -0.3371
 5801TIP3    H117409   5.466   1.878   2.710  0.3015  0.5747 -0.5040
 5801TIP3    H217410   5.499   1.996   2.799  0.7795 -0.2416  0.4284
 5802TIP3   OH217411   5.648   5.263   4.115 -0.2609  0.0697 -0.0759
 5802TIP3    H117412   5.585   5.273   4.187 -0.6648 -0.1759 -0.3869
 5802TIP3    H217413   5.731   5.291   4.151 -0.4492 -0.1155  0.5092
 5803TIP3   OH217414   0.710   1.142   2.283  0.1310  0.0507 -0.0665
 5803TIP3    H117415   0.717   1.099   2.198 -0.2279 -1.7368  0.7536
 5803TIP3    H217416   0.761   1.086   2.343  1.4685  1.9714  0.6785
 5804TIP3   OH217417   4.961   1.464   4.282 -0.0439  0.0123  0.0770
 5804TIP3    H117418   4.900   1.494   4.215  1.9421 -0.1838 -1.9613
 5804TIP3    H217419   5.007   1.390   4.242  1.6889  0.3009  1.3773
 5805TIP3   OH217420   2.257   4.102   3.380  0.6175 -0.4360  0.6020
 5805TIP3    H117421   2.320   4.076   3.312 -0.5300 -1.7713 -0.0134
 5805TIP3    H217422   2.308   4.156   3.441  1.4812  1.7733 -1.8548
 5806TIP3   OH217423   0.343   2.508   0.388  0.2000 -0.3050  0.2652
 5806TIP3    H117424   0.335   2.582   0.327  1.5903 -1.5344 -1.5504
 5806TIP3    H217425   0.256   2.467   0.387  0.3676 -0.7418 -1.5951
 5807TIP3   OH217426   5.677   4.408   4.317 -0.7702  0.3398 -0.3804
 5807TIP3    H117427   5.762   4.436   4.284  0.1005 -1.5609  0.1105
 5807TIP3    H217428   5.684   4.418   4.412 -1.8621  2.0883 -0.4450
 5808TIP3   OH217429   1.838   3.310   3.990  0.1044  0.0900  0.0601
 5808TIP3    H117430   1.895   3.239   3.961 -0.1340  0.2367 -0.7787
 5808TIP3    H217431   1.781   3.327   3.915 -0.5985  0.3972  0.6547
 5809TIP3   OH217432   5.649   4.626   4.916  0.1151 -0.1967  0.1802
 5809TIP3    H117433   5.702   4.592   4.987  0.1640  1.8863  1.2201
 5809TIP3    H217434   5.707   4.686   4.869 -0.5033 -0.0401 -0.3990
 5810TIP3   OH217435   0.313   2.718   1.685  0.4265  0.2661 -0.7086
 5810TIP3    H117436   0.226   2.728   1.723  0.5458  0.4652 -0.4863
 5810TIP3    H217437   0.347   2.637   1.723  0.5320  0.4470 -0.4141
 5811TIP3   OH217438   4.329   5.438   0.357 -0.3491  0.1377 -0.6381
 5811TIP3    H117439   4.346   5.515   0.302  0.8542 -0.3941 -1.0383
 5811TIP3    H217440   4.416   5.406   0.382 -0.7933 -1.4540 -0.9938
 5812TIP3   OH217441   6.206   2.908   1.321  0.4263  0.0922  0.0943
 5812TIP3    H117442   6.242   2.987   1.280  0.4009  0.5346  0.8979
 5812TIP3    H217443   6.282   2.863   1.358  0.7574 -1.4415 -2.2304
 5813TIP3   OH217444   6.062   1.399   4.339  0.5837  0.1030 -0.2193
 5813TIP3    H117445   6.067   1.304   4.338  1.0370  0.1008  0.9733
 5813TIP3    H217446   5.972   1.419   4.311  0.7230 -0.6262 -1.2361
 5814TIP3   OH217447   2.198   2.536   0.944 -0.2575 -0.1734 -0.1242
 5814TIP3    H117448   2.206   2.498   1.032  0.3082 -0.2010 -0.1863
 5814TIP3    H217449   2.277   2.508   0.898 -1.1026 -1.1450 -1.0237
 5815TIP3   OH217450   5.500   1.622   3.624 -0.2003 -0.6070  0.1992
 5815TIP3    H117451   5.533   1.571   3.698  0.1145  0.2894  0.6855
 5815TIP3    H217452   5.405   1.620   3.634 -0.2354 -1.7744 -0.2505
 5816TIP3   OH217453   1.898   5.110   4.301 -0.0886  0.5192  0.0839
 5816TIP3    H117454   1.889   5.205   4.305  0.7897  0.7407 -2.0793
 5816TIP3    H217455   1.983   5.095   4.260  0.1231 -1.2283  1.0656
 5817TIP3   OH217456   1.881   5.875   4.097 -0.8050 -0.0849 -1.4055
 5817TIP3    H117457   1.891   5.899   4.189 -0.6247  0.3596 -1.5381
 5817TIP3    H217458   1.871   5.780   4.098  1.5698 -0.4110 -1.0872
 5818TIP3   OH217459   2.865   0.413   0.783  0.0511 -0.0181 -0.0911
 5818TIP3    H117460   2.918   0.336   0.762  0.9157  0.9509 -1.6334
 5818TIP3    H217461   2.796   0.413   0.716 -0.1302  0.3773  0.0947
 5819TIP3   OH217462   0.572   0.905   1.265  0.7424  0.2903 -0.1131
 5819TIP3    H117463   0.479   0.911   1.288  0.2392 -1.7205 -1.3567
 5819TIP3    H217464   0.617   0.913   1.349 -0.6902 -0.9052  0.8406
 5820TIP3   OH217465   0.016   2.813   3.063  0.4194 -0.1323  0.1156
 5820TIP3    H117466   0.020   2.803   3.158  0.8097  0.7996  0.2051
 5820TIP3    H217467   0.055   2.732   3.029 -0.1046 -0.6589  0.7349
 5821TIP3   OH217468   4.777   4.109   4.794 -0.1015  0.0909 -0.4167
 5821TIP3    H117469   4.692   4.137   4.760  0.5594  0.6942 -1.6175
 5821TIP3    H217470   4.763   4.101   4.889 -1.5404 -0.0130 -0.6079
 5822TIP3   OH217471   5.889   5.042   4.108 -0.3482 -0.4723 -0.6141
 5822TIP3    H117472   5.971   5.091   4.112 -0.5363 -0.2175  2.0480
 5822TIP3    H217473   5.822   5.107   4.089 -0.1587 -0.3468 -0.8507
 5823TIP3   OH217474   5.342   2.812   3.411  0.2835 -0.3925 -0.0873
 5823TIP3    H117475   5.407   2.860   3.360  0.6856 -0.5802  0.2410
 5823TIP3    H217476   5.296   2.758   3.347 -0.1644  0.4071 -0.4617
 5824TIP3   OH217477   5.543   5.138   0.096 -0.3530  0.7074 -0.2747
 5824TIP3    H117478   5.519   5.223   0.059  0.4736  0.4230 -1.5104
 5824TIP3    H217479   5.539   5.151   0.190  2.2049  2.8738 -0.3663
 5825TIP3   OH217480   4.830   3.862   1.530  0.0774  0.7527 -0.5250
 5825TIP3    H117481   4.764   3.930   1.521 -0.7955 -0.0030 -0.0036
 5825TIP3    H217482   4.913   3.907   1.513 -0.6388  1.4408 -2.5118
 5826TIP3   OH217483   5.645   3.558   1.605 -0.2946  0.4546 -0.0502
 5826TIP3    H117484   5.722   3.555   1.549 -0.6179  0.5755 -0.5136
 5826TIP3    H217485   5.679   3.572   1.693  0.1439  2.4739 -0.4841
 5827TIP3   OH217486   3.789   2.433   1.938  0.0939  0.3119 -0.2076
 5827TIP3    H117487   3.700   2.458   1.914 -0.1440  0.4507  0.7834
 5827TIP3    H217488   3.815   2.369   1.872 -1.0208 -0.2895 -0.0788
 5828TIP3   OH217489   2.633   2.462   3.410 -0.1245  0.1557  0.7442
 5828TIP3    H117490   2.694   2.410   3.462  0.5864 -0.2143 -0.4206
 5828TIP3    H217491   2.560   2.403   3.392 -0.7334  0.5199  1.9266
 5829TIP3   OH217492   3.875   0.056   0.453 -0.1322  0.6304  0.1339
 5829TIP3    H117493   3.962   0.093   0.441  1.3479 -1.3080  3.5099
 5829TIP3    H217494   3.817   0.132   0.453  1.2373  1.8960 -3.3905
 5830TIP3   OH217495   5.014   1.259   1.732 -0.2972 -0.3913  0.3568
 5830TIP3    H117496   4.987   1.234   1.643  0.1245 -0.4416  0.2409
 5830TIP3    H217497   5.033   1.175   1.775 -0.5610 -0.3706  0.5143
 5831TIP3   OH217498   2.980   5.896   4.394 -0.2045  0.0623  0.7150
 5831TIP3    H117499   2.904   5.887   4.336  0.4157  1.2565 -0.3070
 5831TIP3    H217500   2.978   5.816   4.447 -0.5226 -1.2999 -1.2438
 5832TIP3   OH217501   4.318   5.108   1.746  0.5441 -0.2676 -0.0393
 5832TIP3    H117502   4.236   5.153   1.767  1.3418  0.3527  2.0218
 5832TIP3    H217503   4.292   5.019   1.723 -0.6434 -0.5777  2.2028
 5833TIP3   OH217504   5.881   2.344   2.952  0.0355  0.1792  0.3746
 5833TIP3    H117505   5.854   2.315   2.865 -3.4773  2.2856  0.5972
 5833TIP3    H217506   5.869   2.266   3.008  1.1280 -0.8266 -0.7239
 5834TIP3   OH217507   2.884   2.310   5.016  0.2625  0.1566 -0.5900
 5834TIP3    H117508   2.856   2.399   4.993  0.8130  0.2311 -0.9855
 5834TIP3    H217509   2.857   2.257   4.941  1.8290  0.3567 -1.3465
 5835TIP3   OH217510   3.978   2.847   2.005  0.4761 -0.5743 -0.0957
 5835TIP3    H117511   4.049   2.814   2.060  0.3214 -0.0138  0.4587
 5835TIP3    H217512   3.899   2.806   2.041  0.4876 -1.0250 -0.5718
 5836TIP3   OH217513   6.212   1.607   3.115  0.5373  0.4878 -0.2815
 5836TIP3    H117514   6.160   1.631   3.038  4.9161  2.3855 -3.1022
 5836TIP3    H217515   6.206   1.683   3.173 -0.7943  0.1209  0.0842
 5837TIP3   OH217516   4.085   3.762   2.643  0.3421  0.5044 -0.7427
 5837TIP3    H117517   4.011   3.806   2.685 -0.7453 -1.7570 -0.1659
 5837TIP3    H217518   4.083   3.673   2.677  2.6811  0.0571 -1.5763
 5838TIP3   OH217519   5.312   4.193   3.822 -0.1077  0.2747  0.5510
 5838TIP3    H117520   5.334   4.109   3.862  0.7014 -0.6445 -1.6571
 5838TIP3    H217521   5.390   4.216   3.771 -1.5239  0.6671 -1.5623
 5839TIP3   OH217522   6.057   3.289   1.361 -0.8842  0.2722  0.3470
 5839TIP3    H117523   6.055   3.312   1.268 -2.2330  1.6281  0.6716
 5839TIP3    H217524   6.121   3.218   1.367 -3.0069 -2.0533 -2.0693
 5840TIP3   OH217525   1.830   2.318   1.613  0.3360 -0.2317 -0.1497
 5840TIP3    H117526   1.864   2.303   1.701 -0.3821  1.1550  0.3909
 5840TIP3    H217527   1.742   2.353   1.627  1.4278  3.3800 -1.2655
 5841TIP3   OH217528   5.991   5.287   4.814 -0.4945 -0.2035 -0.4390
 5841TIP3    H117529   5.922   5.255   4.872 -0.1859  1.9701  1.2587
 5841TIP3    H217530   5.977   5.382   4.810  3.2387  0.6374  1.3667
 5842TIP3   OH217531   4.664   1.801   0.157  0.0365 -0.4272  0.1863
 5842TIP3    H117532   4.679   1.872   0.220  1.6423 -0.5257 -0.0367
 5842TIP3    H217533   4.733   1.812   0.091 -0.9999 -0.9311 -1.0178
 5843TIP3   OH217534   2.352   1.103   0.607  0.5557  0.1566  0.0814
 5843TIP3    H117535   2.289   1.160   0.562  1.2025  1.6117  0.9372
 5843TIP3    H217536   2.308   1.077   0.687 -0.4287 -2.0866 -1.0847
 5844TIP3   OH217537   4.277   2.647   4.956 -0.4387 -0.0189 -0.1223
 5844TIP3    H117538   4.357   2.605   4.923  0.1275 -0.1587  1.3754
 5844TIP3    H217539   4.206   2.602   4.909  0.2452 -1.4262  0.1355
 5845TIP3   OH217540   0.092   3.844   1.787 -0.2473  0.2686 -0.2516
 5845TIP3    H117541   0.102   3.750   1.799  0.4181  0.4903  1.0981
 5845TIP3    H217542   0.180   3.875   1.766 -0.3241  0.6829  0.0312
 5846TIP3   OH217543   0.782   3.697   2.625 -0.1895 -0.1887 -0.3800
 5846TIP3    H117544   0.873   3.688   2.598  0.3265  0.7954  0.9239
 5846TIP3    H217545   0.783   3.687   2.721 -1.1616  1.5946 -0.1289
 5847TIP3   OH217546   2.720   1.321   3.812  0.4846  0.5557 -0.3877
 5847TIP3    H117547   2.797   1.374   3.793 -0.0209  0.6659 -2.2827
 5847TIP3    H217548   2.740   1.235   3.776  0.4274  0.0525  0.7377
 5848TIP3   OH217549   2.075   4.282   3.975  0.4207 -0.6078  0.2309
 5848TIP3    H117550   2.014   4.301   3.904 -0.2793 -1.6806  0.5201
 5848TIP3    H217551   2.143   4.349   3.967 -0.7328  0.5535 -0.1492
 5849TIP3   OH217552   1.221   1.962   4.940  0.5531  0.1711  0.0594
 5849TIP3    H117553   1.164   1.890   4.967  1.8661 -0.7728  0.4089
 5849TIP3    H217554   1.253   1.936   4.854  0.4057  0.7402 -0.1725
 5850TIP3   OH217555   4.840   2.817   1.414  0.2435  0.7835 -0.1512
 5850TIP3    H117556   4.749   2.803   1.387 -0.1964 -0.6137  1.8628
 5850TIP3    H217557   4.851   2.912   1.415 -0.3719  0.9789 -2.8298
 5851TIP3   OH217558   1.240   3.711   1.388 -0.2618 -0.1530 -0.0435
 5851TIP3    H117559   1.179   3.650   1.347  2.0748 -2.7033  0.0410
 5851TIP3    H217560   1.230   3.696   1.482 -0.1659  0.0923  0.0071
 5852TIP3   OH217561   1.057   4.806   1.573 -0.3905  0.1746 -0.4547
 5852TIP3    H117562   1.116   4.814   1.647  0.7041  1.2526 -1.3959
 5852TIP3    H217563   0.993   4.740   1.600 -0.3949  0.9732  1.6606
 5853TIP3   OH217564   5.445   5.600   3.535  0.4975 -0.4718 -0.1014
 5853TIP3    H117565   5.406   5.606   3.448 -0.2699 -1.0123  0.1982
 5853TIP3    H217566   5.477   5.688   3.554 -1.8979  0.3734  0.2664
 5854TIP3   OH217567   3.944   1.112   1.204 -0.4101  0.0875 -0.3110
 5854TIP3    H117568   3.866   1.090   1.255  0.1362 -0.4867  0.2871
 5854TIP3    H217569   3.964   1.202   1.231 -0.7440  0.1703 -0.3228
 5855TIP3   OH217570   3.257   1.655   1.273  0.7897  0.4200 -0.1309
 5855TIP3    H117571   3.211   1.580   1.236  1.6227  0.9364 -2.3350
 5855TIP3    H217572   3.188   1.707   1.315 -0.2263 -0.1546 -1.0488
 5856TIP3   OH217573   3.596   5.701   3.673 -0.8012 -0.1241 -0.2139
 5856TIP3    H117574   3.647   5.634   3.720  1.4565  1.3418 -0.3983
 5856TIP3    H217575   3.524   5.653   3.633  0.0224 -2.2329  0.6801
 5857TIP3   OH217576   6.204   3.616   3.503 -0.0407  0.2680 -0.6414
 5857TIP3    H117577   6.154   3.548   3.459 -0.8855  1.1050 -1.0156
 5857TIP3    H217578   6.143   3.651   3.569  0.4767  0.4786 -0.2666
 5858TIP3   OH217579   5.533   0.014   3.578  0.7161  0.5170  0.3795
 5858TIP3    H117580   5.528  -0.029   3.663  1.1423  0.2890  0.2909
 5858TIP3    H217581   5.480   0.093   3.588 -0.2256 -0.1081  0.4902
 5859TIP3   OH217582   4.085   3.251   4.628 -0.3002  0.1305  0.7145
 5859TIP3    H117583   4.080   3.267   4.723  1.4877 -0.0388  0.8648
 5859TIP3    H217584   4.165   3.296   4.600 -0.6252 -0.1026 -0.6626
 5860TIP3   OH217585   0.349   4.614   0.713  0.0303 -0.6366  0.0351
 5860TIP3    H117586   0.364   4.594   0.621 -3.0486 -1.0450 -0.4813
 5860TIP3    H217587   0.363   4.531   0.759  2.7173 -0.1898  0.2219
 5861TIP3   OH217588   4.599   1.833   4.810 -0.6829  0.3883  0.1627
 5861TIP3    H117589   4.662   1.762   4.828 -0.5287  0.5925  0.4356
 5861TIP3    H217590   4.570   1.816   4.721  0.7199  1.0089 -0.4513
 5862TIP3   OH217591   2.049   2.869   4.076 -0.2134  0.1540  0.1929
 5862TIP3    H117592   1.970   2.833   4.116 -0.5897  1.6726  0.8921
 5862TIP3    H217593   2.018   2.939   4.019  0.5304 -0.2851 -0.7928
 5863TIP3   OH217594   2.418   2.748   3.605 -0.0969  0.5059 -0.5910
 5863TIP3    H117595   2.417   2.793   3.520  0.7268 -1.5014 -1.7348
 5863TIP3    H217596   2.326   2.729   3.622 -0.2840  1.0441 -0.9438
 5864TIP3   OH217597   3.174   3.183   0.163 -0.0055 -0.0572  0.0816
 5864TIP3    H117598   3.126   3.135   0.096 -0.3404  1.6301 -0.9683
 5864TIP3    H217599   3.266   3.167   0.144 -0.1083  0.0382 -0.5147
 5865TIP3   OH217600   0.312   4.970   0.636 -0.2388 -0.0617 -0.3837
 5865TIP3    H117601   0.248   5.024   0.589  0.6581  0.7441 -0.7043
 5865TIP3    H217602   0.373   5.033   0.673  1.3468 -0.8972 -1.4902
 5866TIP3   OH217603   0.389   4.972   2.234 -0.2453 -0.7094  0.1690
 5866TIP3    H117604   0.472   4.979   2.283  0.3535 -2.2552 -0.5652
 5866TIP3    H217605   0.323   4.955   2.302  0.1002  0.0000  0.7073
 5867TIP3   OH217606   4.434   3.668   3.811 -0.4969 -0.6672 -0.7793
 5867TIP3    H117607   4.456   3.675   3.903 -2.7863 -1.7675 -0.0699
 5867TIP3    H217608   4.402   3.755   3.787  0.5082 -0.2581 -0.6842
 5868TIP3   OH217609   4.381   1.844   3.616 -0.1352  0.5517  0.9707
 5868TIP3    H117610   4.379   1.768   3.558  0.5112  1.3561 -0.1274
 5868TIP3    H217611   4.449   1.823   3.681  0.7843  0.6131  0.0536
 5869TIP3   OH217612   1.896   1.769   1.828  0.4979 -0.7033  0.8326
 5869TIP3    H117613   1.865   1.734   1.912  0.2661  2.0439  1.9962
 5869TIP3    H217614   1.990   1.781   1.841  0.7080 -1.5513  0.1693
 5870TIP3   OH217615   2.913   4.500   0.337 -0.1003 -0.3054  0.6265
 5870TIP3    H117616   2.825   4.467   0.357 -0.1685  0.5324  1.7578
 5870TIP3    H217617   2.957   4.505   0.421  0.1778  1.6987  0.4193
 5871TIP3   OH217618   0.332   4.564   1.350  0.5690 -0.2193 -0.1483
 5871TIP3    H117619   0.273   4.509   1.299 -2.8798  2.7253  0.2953
 5871TIP3    H217620   0.349   4.640   1.295  1.7621  0.2627  0.8291
 5872TIP3   OH217621   2.505   4.808   4.065 -0.2358 -0.5430  0.1626
 5872TIP3    H117622   2.477   4.888   4.110 -0.5030 -0.6659  0.2146
 5872TIP3    H217623   2.535   4.839   3.979 -0.9915 -0.4665 -0.0783
 5873TIP3   OH217624   0.337   4.769   4.841  0.2786  0.3881  0.0757
 5873TIP3    H117625   0.391   4.709   4.892 -1.3743 -2.1442 -0.9587
 5873TIP3    H217626   0.249   4.759   4.876  0.1305  3.6698  1.0470
 5874TIP3   OH217627   5.127   4.644   3.646 -0.0575 -0.4855 -0.1199
 5874TIP3    H117628   5.154   4.558   3.614 -0.2019 -0.0280 -1.5420
 5874TIP3    H217629   5.205   4.698   3.639 -0.3035 -0.1683 -0.5309
 5875TIP3   OH217630   2.899   3.932   3.040  0.5907 -0.4747 -0.1316
 5875TIP3    H117631   2.890   3.837   3.036  0.6850 -0.4683 -0.5204
 5875TIP3    H217632   2.825   3.961   3.093  0.4876 -0.7525 -0.1225
 5876TIP3   OH217633   5.722   0.691   4.028  0.2700  0.4730 -0.0244
 5876TIP3    H117634   5.756   0.622   4.086  2.2818  0.5168 -1.1003
 5876TIP3    H217635   5.748   0.664   3.940 -3.5288 -0.0827 -1.1899
 5877TIP3   OH217636   5.995   0.402   2.738  0.2685  0.1277  0.2262
 5877TIP3    H117637   6.055   0.472   2.761 -0.0579  0.1550  1.0233
 5877TIP3    H217638   6.042   0.322   2.760  0.5752  0.0903 -0.5251
 5878TIP3   OH217639   1.977   1.128   0.486 -0.0292  0.0475  0.3641
 5878TIP3    H117640   2.041   1.190   0.521  1.7687 -0.7086 -1.3454
 5878TIP3    H217641   1.921   1.181   0.430 -0.9486  0.7242  1.8766
 5879TIP3   OH217642   2.356   3.125   2.803  0.0076 -0.5398  0.3122
 5879TIP3    H117643   2.264   3.109   2.827  0.3899 -0.0422  2.3379
 5879TIP3    H217644   2.368   3.077   2.721 -3.2538  2.9992 -2.6320
 5880TIP3   OH217645   3.087   0.452   4.612 -0.3750 -0.2698  0.2020
 5880TIP3    H117646   3.050   0.541   4.613  0.2156  0.0679 -2.2005
 5880TIP3    H217647   3.180   0.465   4.594 -0.0591 -1.3402  1.0008
 5881TIP3   OH217648   5.804   3.519   0.790  0.0435  0.2162 -0.7414
 5881TIP3    H117649   5.835   3.605   0.822 -2.3170  0.5425  0.9161
 5881TIP3    H217650   5.739   3.540   0.724  0.4235 -0.3513 -1.3028
 5882TIP3   OH217651   5.611   1.876   3.552 -0.4549 -0.0804  0.3607
 5882TIP3    H117652   5.560   1.807   3.594  0.5971 -1.0464  0.1149
 5882TIP3    H217653   5.606   1.856   3.458  0.7384 -0.4868  0.3655
 5883TIP3   OH217654   4.184   5.954   0.274  0.3605 -0.1429  0.0416
 5883TIP3    H117655   4.128   5.877   0.264  0.5949 -0.2161 -0.7182
 5883TIP3    H217656   4.144   6.021   0.220  1.8011 -0.6407 -1.7437
 5884TIP3   OH217657   1.512   3.897   4.736 -0.2533 -0.2615 -0.0681
 5884TIP3    H117658   1.444   3.916   4.801 -0.3731 -2.3741  0.4944
 5884TIP3    H217659   1.471   3.835   4.675  0.7973 -0.6694 -0.3834
 5885TIP3   OH217660   5.377   1.268   2.578  0.2964  0.5837  0.4957
 5885TIP3    H117661   5.288   1.300   2.563  0.0155 -0.8307 -1.0687
 5885TIP3    H217662   5.370   1.173   2.575  2.1624  0.4182 -1.9390
 5886TIP3   OH217663   1.414   1.734   0.146  0.1487 -0.3038  0.5707
 5886TIP3    H117664   1.338   1.681   0.173 -2.6276  3.1234  0.2329
 5886TIP3    H217665   1.459   1.755   0.228 -0.1424 -1.1206  0.9565
 5887TIP3   OH217666   4.129   4.766   2.622  0.6791  0.1001 -0.3316
 5887TIP3    H117667   4.223   4.749   2.628  0.8180  1.1637  1.2592
 5887TIP3    H217668   4.089   4.680   2.634  1.4329 -0.2519 -0.2412
 5888TIP3   OH217669   0.944   4.685   0.076  0.2044 -0.0783  0.0359
 5888TIP3    H117670   0.938   4.780   0.068  0.7570 -0.1275 -1.1596
 5888TIP3    H217671   0.882   4.652   0.010 -1.8778 -0.5875  2.0976
 5889TIP3   OH217672   0.906   3.333   0.841 -0.0191  0.0860  0.1398
 5889TIP3    H117673   0.941   3.422   0.842 -0.8933  0.4471 -0.6952
 5889TIP3    H217674   0.958   3.288   0.773 -1.0877  0.6074 -1.0618
 5890TIP3   OH217675   3.614   5.775   4.083 -0.2530 -0.4662 -0.2382
 5890TIP3    H117676   3.554   5.701   4.068 -2.4445  0.1208  4.1546
 5890TIP3    H217677   3.688   5.736   4.129 -1.0178 -0.1196  1.3294
 5891TIP3   OH217678   5.642   3.430   2.030 -0.3714 -0.1201  0.1183
 5891TIP3    H117679   5.700   3.355   2.017  2.1733  1.6526  0.5323
 5891TIP3    H217680   5.650   3.481   1.950 -1.8482 -0.1025 -0.0376
 5892TIP3   OH217681   6.163   0.473   4.139  0.0699 -0.5694 -0.0302
 5892TIP3    H117682   6.229   0.439   4.079 -0.5301 -1.7081 -0.0773
 5892TIP3    H217683   6.124   0.395   4.179  0.3705  0.1429  1.7646
 5893TIP3   OH217684   0.435   0.440   4.762  0.0333  0.1952 -0.4221
 5893TIP3    H117685   0.383   0.403   4.691  0.5942  0.8909 -1.2113
 5893TIP3    H217686   0.461   0.527   4.731  3.7106 -0.9974 -1.1571
 5894TIP3   OH217687   0.288   5.676   4.808  0.3349  0.3862 -0.1348
 5894TIP3    H117688   0.300   5.727   4.728 -0.6723 -0.2312 -0.6951
 5894TIP3    H217689   0.263   5.741   4.874 -2.7348  0.5011 -1.2448
 5895TIP3   OH217690   1.055   2.261   1.010 -0.0173 -0.0242  0.4540
 5895TIP3    H117691   1.127   2.227   1.062 -1.0169 -1.9103  0.7063
 5895TIP3    H217692   0.977   2.240   1.061 -0.8506  0.5808 -0.5214
 5896TIP3   OH217693   2.766   1.137   0.653 -0.1277  0.1999 -0.0266
 5896TIP3    H117694   2.760   1.041   0.654 -0.2949  0.2012 -0.6318
 5896TIP3    H217695   2.825   1.158   0.726 -1.4537 -0.2612  1.2211
 5897TIP3   OH217696   4.365   0.378   3.569 -0.4708  0.1375  0.0585
 5897TIP3    H117697   4.455   0.396   3.597 -0.3060  3.0556 -1.8321
 5897TIP3    H217698   4.317   0.458   3.591 -2.1063 -0.5544 -0.8317
 5898TIP3   OH217699   2.669   3.243   4.047  0.3713 -0.3381 -1.3024
 5898TIP3    H117700   2.753   3.235   4.092  0.0073 -3.2049 -0.9458
 5898TIP3    H217701   2.606   3.261   4.117  0.7236  2.9222 -1.6908
 5899TIP3   OH217702   4.073   2.376   4.305 -0.2770 -0.0182  0.0129
 5899TIP3    H117703   4.088   2.372   4.400 -0.3000  2.1046  0.1649
 5899TIP3    H217704   3.980   2.354   4.295 -0.4133  0.2708  0.5580
 5900TIP3   OH217705   1.108   0.622   2.626 -0.2922  0.3120  0.4562
 5900TIP3    H117706   1.105   0.548   2.566 -2.0325  1.0043 -0.3738
 5900TIP3    H217707   1.158   0.689   2.579  1.8146 -0.4594  1.4483
 5901TIP3   OH217708   3.621   0.466   0.601 -0.2294 -0.3706 -0.2404
 5901TIP3    H117709   3.665   0.438   0.681 -1.0145 -0.1455  0.2846
 5901TIP3    H217710   3.648   0.403   0.534  2.2981  0.7733 -0.3962
 5902TIP3   OH217711   2.095   3.440   3.119  0.0548 -0.1554  0.0480
 5902TIP3    H117712   2.177   3.467   3.076 -1.0349 -0.2223 -2.2014
 5902TIP3    H217713   2.048   3.522   3.134 -0.9658 -0.3225 -1.9512
 5903TIP3   OH217714   3.517   1.853   2.454  0.5551 -0.1536  0.5854
 5903TIP3    H117715   3.436   1.870   2.407  0.3488 -1.9654  0.1896
 5903TIP3    H217716   3.551   1.939   2.477 -0.1550  0.7443 -1.5094
 5904TIP3   OH217717   6.165   3.253   4.591 -0.1337 -0.0544  0.1110
 5904TIP3    H117718   6.101   3.202   4.542  0.0669 -1.9930  1.7191
 5904TIP3    H217719   6.113   3.317   4.640 -0.4050  1.2585 -1.7990
 5905TIP3   OH217720   2.676   0.641   0.203  0.2904 -0.5016  0.3696
 5905TIP3    H117721   2.698   0.692   0.125  0.6150 -1.1337  0.0429
 5905TIP3    H217722   2.632   0.563   0.169 -0.8973 -0.0947  0.9107
 5906TIP3   OH217723   2.924   3.323   3.385 -0.1948 -0.3871  0.2225
 5906TIP3    H117724   2.842   3.294   3.424 -1.3630  1.4592 -0.7187
 5906TIP3    H217725   2.948   3.402   3.434 -0.6233  0.7980 -1.3625
 5907TIP3   OH217726   1.491   3.896   3.109  0.4133 -0.0049 -0.9143
 5907TIP3    H117727   1.443   3.928   3.032  2.4801  1.6925 -1.5851
 5907TIP3    H217728   1.579   3.878   3.077  0.4467 -2.6441  0.3741
 5908TIP3   OH217729   2.096   1.257   2.003 -0.0191  0.4872  0.1399
 5908TIP3    H117730   2.051   1.331   1.962  0.6254 -1.0681 -3.8489
 5908TIP3    H217731   2.027   1.191   2.014  0.1597  0.2047 -0.3854
 5909TIP3   OH217732   1.423   5.113   4.018  0.1064 -0.8433  0.4210
 5909TIP3    H117733   1.489   5.142   4.082  0.7807  0.0517 -0.6426
 5909TIP3    H217734   1.471   5.054   3.960  0.1941  0.3936 -0.8111
 5910TIP3   OH217735   5.402   2.950   2.099  0.7666 -0.4331 -0.2784
 5910TIP3    H117736   5.465   3.001   2.150 -0.6364  1.1439 -0.0142
 5910TIP3    H217737   5.373   2.882   2.159  2.0170 -1.0494 -0.3334
 5911TIP3   OH217738   4.633   5.906   2.382  0.0222  0.4942  0.3403
 5911TIP3    H117739   4.624   5.994   2.346  0.5621  0.9420  1.2593
 5911TIP3    H217740   4.716   5.874   2.347 -0.9637 -0.3473 -1.3686
 5912TIP3   OH217741   1.453   2.238   3.945 -0.1297  0.1241  0.2780
 5912TIP3    H117742   1.427   2.318   3.990  2.1974  0.8359  0.4887
 5912TIP3    H217743   1.493   2.183   4.013  1.1128  0.1302 -0.4138
 5913TIP3   OH217744   0.279   4.092   2.417  0.3321  0.6261 -0.0722
 5913TIP3    H117745   0.339   4.020   2.399 -0.4488 -0.1895  0.4965
 5913TIP3    H217746   0.252   4.080   2.508  0.0561  1.5439 -0.0156
 5914TIP3   OH217747   0.677   2.679   0.812  0.5961 -0.3216  0.3568
 5914TIP3    H117748   0.617   2.753   0.813  1.2559  0.2708 -1.0678
 5914TIP3    H217749   0.622   2.603   0.792  0.2546  0.1656 -0.6050
 5915TIP3   OH217750   2.691   4.682   0.874 -0.3401 -0.1703  0.4494
 5915TIP3    H117751   2.772   4.634   0.854 -1.5287 -1.6219 -1.2723
 5915TIP3    H217752   2.663   4.648   0.958  0.6120  0.0302  0.8599
 5916TIP3   OH217753   1.184   1.005   3.086 -0.1328 -0.1510 -0.0520
 5916TIP3    H117754   1.226   1.025   3.002 -2.2240 -2.3633 -1.7735
 5916TIP3    H217755   1.123   0.934   3.066 -2.7869  1.0944  2.7998
 5917TIP3   OH217756   6.266   3.500   4.266  0.2538  0.1930 -0.2911
 5917TIP3    H117757   6.222   3.585   4.258  0.9864  0.6070 -0.0295
 5917TIP3    H217758   6.357   3.518   4.241  0.3634 -0.5699 -0.4607
 5918TIP3   OH217759   4.636   4.400   2.009 -0.1341  0.1054  0.3670
 5918TIP3    H117760   4.596   4.418   1.923  0.6780 -0.5885 -0.1734
 5918TIP3    H217761   4.626   4.482   2.057  0.7844  1.0229 -0.9507
 5919TIP3   OH217762   1.698   3.940   2.939 -0.0373  0.2032 -0.1627
 5919TIP3    H117763   1.771   3.990   2.975  0.4475 -0.6687  0.0921
 5919TIP3    H217764   1.711   3.943   2.845  0.9105 -0.7898 -0.0787
 5920TIP3   OH217765   4.675   5.525   3.884 -0.3950 -0.0764  0.5759
 5920TIP3    H117766   4.661   5.502   3.792  1.4605 -2.9152  0.8830
 5920TIP3    H217767   4.594   5.500   3.928 -0.7584 -0.0625 -0.0754
 5921TIP3   OH217768   5.981   5.576   4.896 -0.1591 -0.4892 -0.3081
 5921TIP3    H117769   5.961   5.643   4.831 -0.1449 -0.0566  0.1310
 5921TIP3    H217770   5.912   5.584   4.962  0.8856  0.3688  0.7186
 5922TIP3   OH217771   0.962   5.129   1.474  0.4306  0.2409 -0.1502
 5922TIP3    H117772   1.019   5.064   1.434  0.8058 -0.2160  1.0864
 5922TIP3    H217773   0.909   5.080   1.536 -0.4096  0.8723 -0.3415
 5923TIP3   OH217774   3.050   2.926   0.378 -0.0651 -0.0821 -0.4791
 5923TIP3    H117775   2.963   2.922   0.417 -1.6646  3.0908 -3.1982
 5923TIP3    H217776   3.089   3.006   0.414  1.1592 -0.6908 -0.3875
 5924TIP3   OH217777   5.052   5.333   0.677 -0.1204  0.1494 -0.4631
 5924TIP3    H117778   5.024   5.425   0.668 -2.6125 -0.3729  0.9238
 5924TIP3    H217779   4.971   5.283   0.668  1.1535 -1.9442 -0.9156
 5925TIP3   OH217780   3.846   0.591   3.391 -0.2255 -0.1658  0.2113
 5925TIP3    H117781   3.794   0.638   3.326 -0.0407  2.8765  2.1036
 5925TIP3    H217782   3.791   0.517   3.418 -1.7023  0.4818 -0.9332
 5926TIP3   OH217783   4.924   1.607   2.796  0.2052 -0.7016 -0.0825
 5926TIP3    H117784   4.882   1.521   2.800  1.2936 -1.2190  0.9166
 5926TIP3    H217785   4.859   1.664   2.756 -0.9765 -1.7353  0.3121
 5927TIP3   OH217786   4.864   4.001   0.164 -0.1908 -0.3964  0.5987
 5927TIP3    H117787   4.907   4.082   0.138  1.2587 -1.1737  0.4927
 5927TIP3    H217788   4.920   3.964   0.232 -0.8038 -1.3348  0.6143
 5928TIP3   OH217789   2.713   1.128   5.039 -0.4799 -0.3394  0.1902
 5928TIP3    H117790   2.765   1.202   5.071 -0.8924  0.4852 -0.9670
 5928TIP3    H217791   2.634   1.130   5.093 -0.7317  0.4127 -0.1939
 5929TIP3   OH217792   4.674   4.745   3.607 -0.1130  0.0881  0.3443
 5929TIP3    H117793   4.633   4.723   3.523  0.7130 -1.3489  0.2858
 5929TIP3    H217794   4.608   4.725   3.672  0.6094 -2.8056  0.2939
 5930TIP3   OH217795   0.090   5.571   2.645  0.2102  0.3839  0.1450
 5930TIP3    H117796   0.045   5.596   2.564 -0.5015 -1.2618  0.0056
 5930TIP3    H217797   0.156   5.508   2.617 -0.8053 -1.1017  0.9451
 5931TIP3   OH217798   0.638   2.272   4.061 -0.0672  0.6289 -0.2422
 5931TIP3    H117799   0.682   2.235   4.138  1.6758  1.7681 -0.6380
 5931TIP3    H217800   0.587   2.345   4.097 -1.8113 -0.7423  0.2284
 5932TIP3   OH217801   2.901   2.094   4.260  0.2382  0.5331  0.3150
 5932TIP3    H117802   2.880   2.186   4.246  1.2999  1.1382  2.2512
 5932TIP3    H217803   2.994   2.088   4.239  0.0308 -0.2606 -0.4133
 5933TIP3   OH217804   0.592   5.462   2.048  0.2380  0.3850 -0.2824
 5933TIP3    H117805   0.682   5.494   2.061  0.1905  0.5047 -0.2509
 5933TIP3    H217806   0.580   5.397   2.117  0.0087  0.9757  0.2417
 5934TIP3   OH217807   3.329   2.459   3.980  0.2764  0.7550  0.3415
 5934TIP3    H117808   3.404   2.442   4.037  0.9427  1.8869 -0.1772
 5934TIP3    H217809   3.362   2.447   3.891 -0.6249 -0.4874  0.1498
 5935TIP3   OH217810   1.821   2.410   1.312  0.3187  0.3483 -0.2170
 5935TIP3    H117811   1.838   2.395   1.405 -0.6390 -1.3970 -0.2922
 5935TIP3    H217812   1.733   2.447   1.309  0.2149  0.0906 -0.4413
 5936TIP3   OH217813   1.529   0.449   1.525 -0.5025  0.0279 -0.1195
 5936TIP3    H117814   1.455   0.390   1.539 -1.2273  0.5486 -1.5409
 5936TIP3    H217815   1.527   0.507   1.601 -0.8864 -0.6448  0.3983
 5937TIP3   OH217816   0.025   5.135   5.136 -0.4288  0.0055  0.5776
 5937TIP3    H117817   0.057   5.074   5.202  0.4730 -0.1488  0.0211
 5937TIP3    H217818   0.105   5.175   5.099 -0.9761  1.2653  0.6888
 5938TIP3   OH217819   0.247   4.360   0.131  0.1563 -0.0839 -0.2913
 5938TIP3    H117820   0.237   4.267   0.148 -2.1921  0.4500  2.0004
 5938TIP3    H217821   0.314   4.389   0.193 -0.5178  0.0408  0.3942
 5939TIP3   OH217822   1.062   4.478   2.946  0.3163  0.0142  0.4597
 5939TIP3    H117823   1.001   4.465   2.874  1.4679 -0.9041 -0.3807
 5939TIP3    H217824   1.123   4.404   2.940  0.7641  0.2144  2.0389
 5940TIP3   OH217825   1.490   3.294   1.260  0.1096  0.0295  0.3991
 5940TIP3    H117826   1.516   3.218   1.311  0.5094  0.0270  0.1946
 5940TIP3    H217827   1.428   3.340   1.316  2.6297  1.5811  2.1342
 5941TIP3   OH217828   3.458   4.939   1.321  0.1633  0.1486 -0.2898
 5941TIP3    H117829   3.545   4.970   1.298 -0.3180  0.2838 -2.0502
 5941TIP3    H217830   3.447   4.858   1.272 -0.6115  0.0204  0.0751
 5942TIP3   OH217831   5.617   4.516   4.569  0.4549 -0.0754  0.3751
 5942TIP3    H117832   5.703   4.485   4.597  0.0435 -1.0434  0.5897
 5942TIP3    H217833   5.624   4.611   4.575  1.4975 -0.1362  0.4252
 5943TIP3   OH217834   4.884   4.269   3.279 -0.1582  0.0405  0.5407
 5943TIP3    H117835   4.831   4.304   3.350 -0.0112 -1.1249  1.2493
 5943TIP3    H217836   4.904   4.180   3.306  0.2254 -0.2959 -0.7938
 5944TIP3   OH217837   1.028   4.358   3.235 -0.0477 -0.0874 -0.0748
 5944TIP3    H117838   1.092   4.326   3.172  0.8491  0.7928  0.3711
 5944TIP3    H217839   0.958   4.396   3.181 -0.7746 -2.0248 -0.5988
 5945TIP3   OH217840   2.501   1.782   3.856 -0.2042 -0.6579  0.7666
 5945TIP3    H117841   2.544   1.839   3.793 -1.5124  0.9452  1.2681
 5945TIP3    H217842   2.429   1.742   3.807 -2.0065  1.5453  1.4398
 5946TIP3   OH217843   1.695   2.829   3.176 -0.5573 -0.2703 -0.4808
 5946TIP3    H117844   1.661   2.868   3.095 -2.7749 -1.6218 -0.2804
 5946TIP3    H217845   1.689   2.735   3.162 -1.8027 -0.5514  1.5322
 5947TIP3   OH217846   3.360   0.633   4.053 -0.2326 -0.1807  0.0563
 5947TIP3    H117847   3.335   0.725   4.048 -1.6987 -0.5362  0.2540
 5947TIP3    H217848   3.397   0.614   3.967  1.7743  1.0125  0.5985
 5948TIP3   OH217849   1.709   3.256   1.873  0.3910 -0.2898  0.3010
 5948TIP3    H117850   1.662   3.308   1.939 -1.9550  0.4604 -1.8321
 5948TIP3    H217851   1.740   3.179   1.921 -1.8848 -0.1546  2.1367
 5949TIP3   OH217852   5.476   1.443   1.224  0.0209 -0.2143 -0.6552
 5949TIP3    H117853   5.486   1.484   1.138 -0.6567  0.2028 -0.5378
 5949TIP3    H217854   5.524   1.360   1.216  1.1501  0.4461 -0.9933
 5950TIP3   OH217855   2.692   5.790   2.561 -0.3188  0.3528 -0.1008
 5950TIP3    H117856   2.753   5.796   2.487 -0.4998  0.8269 -0.2136
 5950TIP3    H217857   2.743   5.748   2.631  0.4746  1.7263  0.1747
 5951TIP3   OH217858   1.542   5.888   4.054  0.3433 -0.4681  0.2487
 5951TIP3    H117859   1.571   5.901   4.144  1.5535 -3.9313  0.4926
 5951TIP3    H217860   1.507   5.799   4.052  0.1303 -0.4251 -2.6669
 5952TIP3   OH217861   0.188   1.727   3.726 -0.1524 -0.2385  0.0564
 5952TIP3    H117862   0.200   1.710   3.820 -0.2521  2.2321  0.6065
 5952TIP3    H217863   0.276   1.716   3.689 -0.1549 -1.4558  0.3795
 5953TIP3   OH217864   2.347   4.422   1.066 -0.2746  0.3361 -0.1037
 5953TIP3    H117865   2.413   4.358   1.094  1.2515  1.5399 -0.7557
 5953TIP3    H217866   2.352   4.420   0.970 -1.5337  0.1396 -0.1814
 5954TIP3   OH217867   5.100   5.312   3.065  0.0421  0.2842  0.5349
 5954TIP3    H117868   5.065   5.295   2.977 -0.3584 -1.9103  1.0606
 5954TIP3    H217869   5.195   5.320   3.052 -0.1850  1.8076 -0.3168
 5955TIP3   OH217870   3.896   3.200   0.348 -0.4927  0.5455 -0.0182
 5955TIP3    H117871   3.957   3.169   0.281 -1.3692 -2.3439  0.3802
 5955TIP3    H217872   3.867   3.286   0.316  1.4185  0.6209 -1.7403
 5956TIP3   OH217873   1.777   0.758   0.621 -0.4498 -0.9171  0.0992
 5956TIP3    H117874   1.849   0.802   0.667 -0.9319  0.5195 -0.4504
 5956TIP3    H217875   1.708   0.824   0.616 -1.2210 -1.7587 -0.7483
 5957TIP3   OH217876   4.271   5.305   4.766  0.3720 -0.1466  0.3792
 5957TIP3    H117877   4.184   5.346   4.759 -0.1350 -1.1627  0.4664
 5957TIP3    H217878   4.309   5.342   4.845  0.2025  0.6389  0.1030
 5958TIP3   OH217879   1.136   0.339   2.707 -0.2410  0.0226  0.1898
 5958TIP3    H117880   1.159   0.361   2.617  0.1797  0.2128  0.3412
 5958TIP3    H217881   1.128   0.244   2.707 -1.9554  0.1414 -0.4379
 5959TIP3   OH217882   2.315   5.510   4.390 -0.0232 -0.2969  0.5099
 5959TIP3    H117883   2.245   5.514   4.455 -0.2121  0.9197  0.2455
 5959TIP3    H217884   2.368   5.588   4.405 -0.0006 -0.0489 -0.7200
 5960TIP3   OH217885   6.350   2.608   4.819  0.9851 -0.3706  0.2659
 5960TIP3    H117886   6.313   2.549   4.754  0.6598 -0.8372  0.8566
 5960TIP3    H217887   6.297   2.687   4.813 -0.4236 -1.1829  1.3892
 5961TIP3   OH217888   3.589   2.328   2.445 -0.0634 -0.0792 -0.2322
 5961TIP3    H117889   3.509   2.378   2.460 -0.1083  0.0160 -0.7660
 5961TIP3    H217890   3.573   2.281   2.364 -0.9716 -2.8870  1.4185
 5962TIP3   OH217891   2.484   1.134   2.274 -0.6585 -0.5420 -0.6010
 5962TIP3    H117892   2.470   1.039   2.284 -0.8650 -0.3653  1.0370
 5962TIP3    H217893   2.578   1.143   2.258 -0.7960 -1.0750 -1.8452
 5963TIP3   OH217894   2.378   5.791   3.080 -0.1323 -0.2602  0.1866
 5963TIP3    H117895   2.379   5.854   3.008  0.7036 -0.3854  0.0757
 5963TIP3    H217896   2.310   5.728   3.057  0.9615 -1.0216 -1.1418
 5964TIP3   OH217897   3.679   0.885   1.823  0.5717  0.1626  0.4653
 5964TIP3    H117898   3.603   0.938   1.846  1.7595  1.6026  1.2403
 5964TIP3    H217899   3.689   0.825   1.897  0.9082  0.8095  0.9525
 5965TIP3   OH217900   4.704   2.508   1.350  0.3415  0.0546 -0.0174
 5965TIP3    H117901   4.737   2.575   1.410  0.9020  0.7179 -1.0293
 5965TIP3    H217902   4.609   2.513   1.358 -0.0228  4.1711 -3.2269
 5966TIP3   OH217903   3.960   0.208   4.696 -0.0702  0.1763  0.0853
 5966TIP3    H117904   3.959   0.256   4.779  1.6705 -0.9040  0.7944
 5966TIP3    H217905   3.878   0.232   4.653 -0.0946  2.3217  1.2141
 5967TIP3   OH217906   2.382   4.573   5.124 -0.2469  0.1025 -0.0618
 5967TIP3    H117907   2.290   4.588   5.149 -0.3351  1.0983 -0.9495
 5967TIP3    H217908   2.424   4.544   5.205 -1.4000 -0.6287  0.2954
 5968TIP3   OH217909   0.481   0.964   2.111 -0.0536  0.4172  0.5901
 5968TIP3    H117910   0.564   0.993   2.073 -1.0470  1.8332 -0.6181
 5968TIP3    H217911   0.462   0.882   2.066  0.7895 -0.0393  1.0475
 5969TIP3   OH217912   4.518   1.946   0.581 -0.0083  0.2749 -0.2118
 5969TIP3    H117913   4.530   1.908   0.668 -0.6677  1.4556  0.4232
 5969TIP3    H217914   4.516   1.871   0.522  0.3085 -0.5568  0.8031
 5970TIP3   OH217915   0.207   4.258   1.618 -0.0466 -0.0848  0.0075
 5970TIP3    H117916   0.168   4.305   1.692 -0.0216  1.3991 -0.8817
 5970TIP3    H217917   0.284   4.215   1.655 -0.5046 -0.0633  1.0140
 5971TIP3   OH217918   1.916   0.084   0.232 -0.3657 -0.0640  0.9762
 5971TIP3    H117919   1.875   0.169   0.246 -1.6909 -0.5717  0.4395
 5971TIP3    H217920   2.008   0.103   0.215 -0.5551  1.2132  1.2928
 5972TIP3   OH217921   4.879   1.530   2.423  0.0590  0.4850  0.0392
 5972TIP3    H117922   4.879   1.626   2.413 -2.0073  0.6423  1.1000
 5972TIP3    H217923   4.959   1.512   2.473  0.1743  1.7335  0.3582
 5973TIP3   OH217924   1.509   4.600   3.748  0.5877  0.1062  0.0896
 5973TIP3    H117925   1.492   4.570   3.837 -0.0202 -1.1533 -0.4334
 5973TIP3    H217926   1.594   4.563   3.726  1.6315  1.9570  0.7758
 5974TIP3   OH217927   0.425   0.186   2.262 -0.1745  0.1779 -0.2774
 5974TIP3    H117928   0.333   0.210   2.272  0.2544  2.1515 -0.7239
 5974TIP3    H217929   0.440   0.187   2.168  0.9459  2.6543 -0.1409
 5975TIP3   OH217930   1.862   5.622   1.725 -0.5654  0.0333  0.6802
 5975TIP3    H117931   1.807   5.571   1.666 -0.2346  0.7448 -0.2770
 5975TIP3    H217932   1.807   5.696   1.751 -1.5552 -1.4838  3.2138
 5976TIP3   OH217933   3.842   3.453   0.274 -0.0293 -0.5352  0.4314
 5976TIP3    H117934   3.781   3.469   0.202  0.4644 -1.1109 -0.1286
 5976TIP3    H217935   3.812   3.510   0.344 -0.0290  0.6717 -0.5111
 5977TIP3   OH217936   2.801   1.292   4.607  0.5817  0.5237  0.5507
 5977TIP3    H117937   2.823   1.315   4.517  1.2257  0.3252  0.6534
 5977TIP3    H217938   2.706   1.282   4.606  0.2358  3.2860  0.5317
 5978TIP3   OH217939   5.651   0.859   0.888  0.2678  0.0927  0.2585
 5978TIP3    H117940   5.568   0.908   0.889  0.4045  0.4264 -1.3124
 5978TIP3    H217941   5.633   0.780   0.938 -1.1129 -0.0025 -0.3435
 5979TIP3   OH217942   5.960   2.611   4.237  0.2950 -0.4028  0.0660
 5979TIP3    H117943   6.036   2.663   4.209  0.1558 -0.7510 -1.0012
 5979TIP3    H217944   5.996   2.527   4.262  0.0888 -1.5117 -2.9058
 5980TIP3   OH217945   0.584   4.148   0.691 -0.2557 -0.6946  0.0300
 5980TIP3    H117946   0.637   4.191   0.623  1.6275 -0.5212  1.5453
 5980TIP3    H217947   0.569   4.060   0.657  1.2900 -0.8524 -0.3154
 5981TIP3   OH217948   6.035   0.342   2.127  0.5476  0.5606 -0.1152
 5981TIP3    H117949   6.033   0.349   2.222  0.6754  1.2963 -0.1592
 5981TIP3    H217950   5.951   0.302   2.104 -0.0831  1.6238  0.2314
 5982TIP3   OH217951   3.763   1.705   2.376  0.4594  0.1968  0.4158
 5982TIP3    H117952   3.679   1.750   2.371  0.2095 -0.2793  0.2789
 5982TIP3    H217953   3.749   1.622   2.329  1.4286  0.7578 -0.9470
 5983TIP3   OH217954   4.077   0.215   0.466  0.0966  0.3908  0.5097
 5983TIP3    H117955   4.147   0.159   0.499  0.3025  1.1197  1.3515
 5983TIP3    H217956   4.098   0.302   0.500 -0.5460  0.8660 -0.2686
 5984TIP3   OH217957   6.117   1.080   0.228 -0.7146  0.0885  0.6655
 5984TIP3    H117958   6.140   1.002   0.278 -0.7970 -0.0787  0.4473
 5984TIP3    H217959   6.185   1.143   0.249  0.1933 -0.5444 -0.2951
 5985TIP3   OH217960   2.710   5.863   1.736 -0.5846  0.0022  0.4258
 5985TIP3    H117961   2.724   5.789   1.676  3.9978  1.3527 -0.5652
 5985TIP3    H217962   2.679   5.934   1.680  0.2827  0.2748  0.2711
 5986TIP3   OH217963   3.482   4.662   3.266 -0.1476 -0.0776  0.2876
 5986TIP3    H117964   3.407   4.613   3.230  0.5526 -0.4737 -0.6864
 5986TIP3    H217965   3.537   4.679   3.190  0.7094  0.2958  0.9810
 5987TIP3   OH217966   1.791   5.700   2.067  0.0519  0.8267  0.0461
 5987TIP3    H117967   1.832   5.781   2.038  0.4944  0.0673 -1.6098
 5987TIP3    H217968   1.722   5.684   2.002  0.0096 -0.1329  0.3096
 5988TIP3   OH217969   5.773   4.789   1.717  0.5218 -0.5597  0.2744
 5988TIP3    H117970   5.849   4.794   1.776  1.0157 -0.0331 -0.3930
 5988TIP3    H217971   5.805   4.823   1.634 -1.1794  2.4770  0.7176
 5989TIP3   OH217972   2.718   3.534   1.738 -0.2197  0.9335 -0.6209
 5989TIP3    H117973   2.729   3.444   1.708  0.0347  0.8964 -0.4120
 5989TIP3    H217974   2.624   3.542   1.755 -0.0782  0.3350  0.5279
 5990TIP3   OH217975   4.427   0.570   0.638 -0.5363  0.0002  0.3210
 5990TIP3    H117976   4.344   0.560   0.592 -1.5284  0.1420  1.9836
 5990TIP3    H217977   4.494   0.540   0.576 -1.6536  1.2796 -1.6150
 5991TIP3   OH217978   4.625   3.909   3.584  0.1624  0.5081  0.3564
 5991TIP3    H117979   4.718   3.893   3.568  0.6216  2.7995  0.3465
 5991TIP3    H217980   4.622   3.942   3.674 -0.2641  2.7866 -0.4360
 5992TIP3   OH217981   0.327   2.782   0.708 -0.2786  0.6057 -0.1863
 5992TIP3    H117982   0.353   2.842   0.777 -3.5709  1.8946  0.1366
 5992TIP3    H217983   0.339   2.695   0.746  1.2574  1.1375  0.6452
 5993TIP3   OH217984   0.113   5.896   1.128  0.5357  0.2202  0.2324
 5993TIP3    H117985   0.068   5.950   1.062  0.7164  0.0905  0.0002
 5993TIP3    H217986   0.077   5.808   1.116  0.8672  0.1086  0.0239
 5994TIP3   OH217987   2.388   2.114   5.092  0.0026  0.3503  0.4187
 5994TIP3    H117988   2.439   2.040   5.058 -2.3622 -0.5746 -1.3961
 5994TIP3    H217989   2.453   2.184   5.104  1.6496 -0.5494 -2.3353
 5995TIP3   OH217990   4.348   0.645   1.496 -0.1792 -0.0797 -0.4990
 5995TIP3    H117991   4.352   0.690   1.412  0.3990  1.1482  0.1536
 5995TIP3    H217992   4.438   0.643   1.527 -0.4852  0.2574  0.4625
 5996TIP3   OH217993   1.169   5.071   0.804  0.0145 -0.9656 -0.5308
 5996TIP3    H117994   1.182   5.062   0.899 -1.2540 -3.7774 -0.5265
 5996TIP3    H217995   1.191   4.984   0.769  1.7143  0.3603 -3.0259
 5997TIP3   OH217996   0.814   1.924   4.300  0.6823  0.1438 -0.2300
 5997TIP3    H117997   0.898   1.947   4.262  1.1706 -1.9440 -0.5501
 5997TIP3    H217998   0.754   1.922   4.226  0.5842  0.5520 -0.1662
 5998TIP3   OH217999   5.093   4.953   4.765 -0.4105 -1.0681  0.0508
 5998TIP3    H118000   5.096   5.045   4.792 -0.7582 -0.9185 -0.4047
 5998TIP3    H218001   4.999   4.933   4.759 -0.3499 -1.6581  0.8174
 5999TIP3   OH218002   3.196   0.234   2.880  0.1697 -0.1508  0.0916
 5999TIP3    H118003   3.198   0.176   2.804 -1.9216  0.3176 -0.3919
 5999TIP3    H218004   3.171   0.178   2.952 -0.8696 -0.0552 -0.1829
 6000TIP3   OH218005   4.298   4.916   4.525  0.0848 -0.0559  0.2690
 6000TIP3    H118006   4.210   4.950   4.542 -0.2193  1.4974 -3.3263
 6000TIP3    H218007   4.355   4.992   4.533  0.6488 -0.4156 -0.2121
 6001TIP3   OH218008   1.387   0.796   3.194  0.5404 -0.8803  0.6532
 6001TIP3    H118009   1.440   0.771   3.119  2.1167  1.1097  1.0207
 6001TIP3    H218010   1.338   0.873   3.165  1.5038  0.1886  1.7335
 6002TIP3   OH218011   2.564   0.589   4.104  0.2597 -0.0977  0.6731
 6002TIP3    H118012   2.519   0.639   4.036 -0.0908  0.6090  1.4015
 6002TIP3    H218013   2.657   0.602   4.086  0.2425 -2.0577 -1.2034
 6003TIP3   OH218014   2.933   4.885   1.018  0.3701 -0.3535 -0.2907
 6003TIP3    H118015   2.888   4.828   1.081  0.8021  1.5512  1.8981
 6003TIP3    H218016   2.863   4.919   0.963 -0.5432  0.3085  1.1940
 6004TIP3   OH218017   2.204   4.920   1.264  0.1236  0.1689  0.0160
 6004TIP3    H118018   2.292   4.934   1.297 -0.5845  2.3504  1.1689
 6004TIP3    H218019   2.147   4.965   1.326 -1.7417 -0.4201 -1.1613
 6005TIP3   OH218020   5.095   2.451   2.876  0.0582  0.2195 -0.1950
 6005TIP3    H118021   5.050   2.495   2.948 -0.4597  0.1188 -0.4565
 6005TIP3    H218022   5.102   2.360   2.904  1.3093  0.4862  0.4354
 6006TIP3   OH218023   0.694   1.151   0.793 -0.0068 -0.6278  0.3913
 6006TIP3    H118024   0.733   1.092   0.857 -0.0334  0.5834  1.5636
 6006TIP3    H218025   0.647   1.093   0.733  1.0548 -1.8824  0.7123
 6007TIP3   OH218026   0.636   2.101   0.305 -0.1821  0.2149  0.1015
 6007TIP3    H118027   0.703   2.079   0.370  1.7533 -1.3681 -2.2527
 6007TIP3    H218028   0.556   2.113   0.356  1.0438 -1.7515  2.6902
 6008TIP3   OH218029   3.867   5.102   0.765 -0.7474  0.6042  0.6309
 6008TIP3    H118030   3.791   5.076   0.713 -0.3288 -3.0522  1.5798
 6008TIP3    H218031   3.839   5.182   0.810 -2.8543  1.1150 -1.4061
 6009TIP3   OH218032   1.598   5.827   0.399 -0.2775  0.1123  0.5198
 6009TIP3    H118033   1.654   5.901   0.423  0.6169 -0.6698  0.9375
 6009TIP3    H218034   1.540   5.815   0.474 -1.4813  1.3175 -0.1668
 6010TIP3   OH218035   2.605   4.227   0.071  0.3366 -0.1570  0.3845
 6010TIP3    H118036   2.584   4.305   0.020  3.6271 -0.1916 -1.3200
 6010TIP3    H218037   2.638   4.261   0.155 -0.2947  0.1596  0.5084
 6011TIP3   OH218038   2.505   5.069   4.875 -0.7364 -0.4937 -0.1633
 6011TIP3    H118039   2.451   5.146   4.860 -2.9002 -1.9023 -0.0522
 6011TIP3    H218040   2.486   5.044   4.966 -0.6270 -1.5608 -0.4248
 6012TIP3   OH218041   4.227   5.059   0.670  0.0567  0.0195  0.4800
 6012TIP3    H118042   4.163   5.113   0.716  0.9333 -0.0685  1.8580
 6012TIP3    H218043   4.312   5.092   0.699  0.6562  0.1454 -1.3210
 6013TIP3   OH218044   3.872   1.116   4.721  0.0709 -0.0010  0.0168
 6013TIP3    H118045   3.954   1.095   4.767  1.1828  0.7932 -1.5457
 6013TIP3    H218046   3.889   1.199   4.677 -1.8146  0.5154  0.1638
 6014TIP3   OH218047   2.099   4.787   3.373 -0.0711  0.0603  0.3138
 6014TIP3    H118048   2.053   4.856   3.422 -0.1793  0.8913 -0.9274
 6014TIP3    H218049   2.175   4.830   3.336  0.7304 -0.8830  0.8151
 6015TIP3   OH218050   1.881   0.748   0.986  0.1991 -0.9656 -0.1997
 6015TIP3    H118051   1.921   0.807   1.050 -3.7783  0.4785  1.2025
 6015TIP3    H218052   1.934   0.760   0.907  1.8344  1.5922  1.1538
 6016TIP3   OH218053   2.687   0.589   3.755  0.4392  0.4657  0.1103
 6016TIP3    H118054   2.630   0.664   3.775 -1.1144  0.0925 -2.5115
 6016TIP3    H218055   2.704   0.549   3.840 -0.7587  2.3435  1.3096
 6017TIP3   OH218056   2.954   4.770   4.343 -0.1007 -0.4578  0.6822
 6017TIP3    H118057   2.933   4.713   4.416 -1.8428 -1.9425 -0.8726
 6017TIP3    H218058   2.871   4.780   4.296  0.8757  0.7472 -0.8945
 6018TIP3   OH218059   0.584   5.037   4.088 -0.2232 -0.3120 -0.1036
 6018TIP3    H118060   0.568   4.972   4.019  1.8521 -0.9271 -0.0886
 6018TIP3    H218061   0.638   4.990   4.152 -1.8972  0.3055  1.8866
 6019TIP3   OH218062   4.161   2.658   1.545 -0.1716  0.4186  0.1934
 6019TIP3    H118063   4.071   2.684   1.526 -0.2709 -0.2488 -0.2862
 6019TIP3    H218064   4.165   2.565   1.522  0.2646  0.0757  1.5124
 6020TIP3   OH218065   0.857   3.716   3.075 -0.3198 -0.7086  0.8898
 6020TIP3    H118066   0.917   3.738   3.003  0.3701 -1.8811  1.0735
 6020TIP3    H218067   0.770   3.739   3.042  0.2612  1.6125  0.8434
 6021TIP3   OH218068   2.960   5.527   2.928  0.6368 -0.5002  0.7659
 6021TIP3    H118069   2.944   5.441   2.966  0.6977  0.9494  4.4501
 6021TIP3    H218070   3.033   5.563   2.979 -1.0194  2.6884  1.1513
 6022TIP3   OH218071   3.348   3.889   3.864 -0.1537  0.5748 -0.1142
 6022TIP3    H118072   3.319   3.802   3.889 -1.1927  1.0232  0.3147
 6022TIP3    H218073   3.370   3.882   3.771 -0.5073 -0.0718 -0.1507
 6023TIP3   OH218074   4.710   0.257   1.731 -0.4981 -0.2341 -0.0039
 6023TIP3    H118075   4.742   0.224   1.647 -0.5967  1.7715 -0.9004
 6023TIP3    H218076   4.619   0.228   1.736 -0.0359 -1.7087  0.1865
 6024TIP3   OH218077   3.815   3.201   4.095 -0.2863 -0.5000  0.4677
 6024TIP3    H118078   3.871   3.189   4.172 -0.0766  0.2072  0.4296
 6024TIP3    H218079   3.839   3.287   4.061 -2.9092  0.8593  1.7111
 6025TIP3   OH218080   5.853   4.112   1.144  0.0918  0.4340 -0.5920
 6025TIP3    H118081   5.765   4.078   1.157  1.0764 -2.4633 -0.7598
 6025TIP3    H218082   5.885   4.130   1.232 -0.0230 -0.3739 -0.3770
 6026TIP3   OH218083   3.586   4.069   1.052  0.3974 -0.2105 -0.1248
 6026TIP3    H118084   3.615   4.010   0.982 -0.7135 -2.4542  1.1691
 6026TIP3    H218085   3.624   4.031   1.132 -1.1014  0.2619  0.8593
 6027TIP3   OH218086   2.982   1.300   1.889  0.2768 -0.3110 -0.1423
 6027TIP3    H118087   2.991   1.386   1.928  2.2238  0.4285 -2.0424
 6027TIP3    H218088   3.047   1.298   1.819 -0.4073 -2.9549 -0.8215
 6028TIP3   OH218089   1.216   4.430   2.210 -0.3396  0.2745 -0.4146
 6028TIP3    H118090   1.261   4.402   2.130 -0.0910 -1.9475  0.4404
 6028TIP3    H218091   1.145   4.367   2.221 -1.7670  1.8656 -0.0313
 6029TIP3   OH218092   0.916   2.570   0.851 -0.2135 -0.0575  0.2917
 6029TIP3    H118093   0.831   2.609   0.830 -0.3277 -1.1458 -1.5190
 6029TIP3    H218094   0.933   2.511   0.778  2.3381  0.4830  0.3575
 6030TIP3   OH218095   0.689   4.955   1.203  0.3362  0.3317 -0.4800
 6030TIP3    H118096   0.655   5.032   1.156 -1.9853 -0.9973 -1.1251
 6030TIP3    H218097   0.783   4.955   1.183 -0.1745  1.0051 -3.4882
 6031TIP3   OH218098   2.535   2.487   0.494  0.0463 -0.1772  0.3075
 6031TIP3    H118099   2.512   2.571   0.533 -1.7927 -0.0130 -1.0321
 6031TIP3    H218100   2.491   2.422   0.550  1.9589 -0.3513  1.7013
 6032TIP3   OH218101   4.765   2.058   4.786 -1.1193  0.3009  0.0267
 6032TIP3    H118102   4.840   2.009   4.751 -0.6786 -0.3145  1.6892
 6032TIP3    H218103   4.690   2.003   4.766 -0.8255 -0.2545  0.4070
 6033TIP3   OH218104   2.197   0.982   0.886 -0.6761 -0.4063  0.2248
 6033TIP3    H118105   2.159   1.040   0.953  0.8015  1.5861 -0.5559
 6033TIP3    H218106   2.279   0.951   0.925 -0.9322 -1.1202  0.2090
 6034TIP3   OH218107   4.923   0.179   2.612 -0.4156 -0.0654  0.4894
 6034TIP3    H118108   4.915   0.267   2.575 -0.2373  0.2366  1.1409
 6034TIP3    H218109   5.003   0.144   2.574 -0.4476  0.0857  0.2821
 6035TIP3   OH218110   1.249   1.327   5.143  0.1701  0.7111 -0.5312
 6035TIP3    H118111   1.337   1.313   5.178  0.5364  0.5904 -1.4856
 6035TIP3    H218112   1.262   1.383   5.067 -0.6452  1.1578 -0.3500
 6036TIP3   OH218113   2.258   5.823   2.496  0.1091  0.5841 -0.4739
 6036TIP3    H118114   2.228   5.736   2.467  0.6459  0.8859 -2.0277
 6036TIP3    H218115   2.263   5.816   2.592 -2.3977 -0.2642 -0.3411
 6037TIP3   OH218116   6.155   0.836   0.334 -0.1333 -0.2903  0.1744
 6037TIP3    H118117   6.228   0.775   0.341  0.1506  0.0357  0.0744
 6037TIP3    H218118   6.106   0.806   0.258  1.5639  1.2286 -1.6475
 6038TIP3   OH218119   1.641   5.141   3.726 -0.0181  0.8147  0.2948
 6038TIP3    H118120   1.652   5.118   3.634 -2.6331 -2.8745  0.6884
 6038TIP3    H218121   1.589   5.222   3.724 -2.7568 -0.8017 -1.6764
 6039TIP3   OH218122   3.779   1.244   2.468  0.3931  0.1766 -0.3465
 6039TIP3    H118123   3.725   1.306   2.518 -0.7686 -0.3791 -0.8660
 6039TIP3    H218124   3.860   1.237   2.518  0.3725  1.7854 -0.0593
 6040TIP3   OH218125   5.118   4.914   0.717 -0.5617  0.5866  0.5262
 6040TIP3    H118126   5.199   4.874   0.685 -0.2689  0.3394  1.5415
 6040TIP3    H218127   5.080   4.957   0.640 -0.2546 -0.5916 -0.3069
 6041TIP3   OH218128   0.705   1.357   0.603  0.0787  0.1181  1.0937
 6041TIP3    H118129   0.780   1.417   0.601  0.7895 -0.7204 -1.9648
 6041TIP3    H218130   0.711   1.314   0.688  1.7182  1.6593  1.8261
 6042TIP3   OH218131   1.125   4.965   0.152 -0.2464 -0.0330 -0.1277
 6042TIP3    H118132   1.149   5.052   0.119 -0.1532 -0.5934 -1.6446
 6042TIP3    H218133   1.029   4.965   0.151 -0.2842  0.5432  1.3113
 6043TIP3   OH218134   2.166   2.417   1.210 -0.1020 -0.1707 -0.6396
 6043TIP3    H118135   2.117   2.381   1.283  0.0511  0.6956 -0.0884
 6043TIP3    H218136   2.256   2.424   1.242 -0.0705  0.3970 -0.8309
 6044TIP3   OH218137   1.920   2.807   3.670 -0.1593  0.3351 -0.3816
 6044TIP3    H118138   1.881   2.772   3.590 -0.2013 -0.0664 -0.1894
 6044TIP3    H218139   1.988   2.744   3.693 -0.3709  0.2698  0.0837
 6045TIP3   OH218140   4.659   3.315   5.054 -0.4872  0.0891  0.2786
 6045TIP3    H118141   4.633   3.318   4.962 -2.6974  0.9938  0.8689
 6045TIP3    H218142   4.648   3.224   5.079  0.8944 -0.3309 -0.5023
 6046TIP3   OH218143   4.537   1.210   1.184 -0.5403  0.2689 -0.1733
 6046TIP3    H118144   4.582   1.130   1.212  0.3632  1.1146  0.8780
 6046TIP3    H218145   4.548   1.211   1.089 -0.5914 -0.8608 -0.2079
 6047TIP3   OH218146   2.245   4.144   2.478  0.0885 -0.0839  0.3315
 6047TIP3    H118147   2.246   4.231   2.518  0.3560 -0.2314  0.6562
 6047TIP3    H218148   2.157   4.111   2.495  0.0480  0.0500  0.3805
 6048TIP3   OH218149   2.293   1.295   1.810  0.1736 -0.4204 -0.6913
 6048TIP3    H118150   2.310   1.223   1.749 -1.5288 -1.2350 -0.2867
 6048TIP3    H218151   2.216   1.266   1.860  0.3021  1.0857  0.4635
 6049TIP3   OH218152   4.358   0.168   0.295 -0.3788  0.0485  0.4369
 6049TIP3    H118153   4.331   0.103   0.360 -0.4592  0.0529  0.4081
 6049TIP3    H218154   4.401   0.118   0.226 -1.3684 -0.0944 -0.0927
 6050TIP3   OH218155   4.174   1.630   4.381  0.6295  1.0597  0.1005
 6050TIP3    H118156   4.211   1.708   4.338 -0.4095  0.6028 -1.7489
 6050TIP3    H218157   4.080   1.642   4.376  0.4636 -0.0595  0.2777
 6051TIP3   OH218158   2.677   2.566   2.365 -0.3421 -0.0833 -0.7114
 6051TIP3    H118159   2.722   2.650   2.366  0.6462 -0.5963  0.6116
 6051TIP3    H218160   2.587   2.587   2.342 -0.4750  1.5334  1.0957
 6052TIP3   OH218161   1.946   0.206   0.670 -0.4501 -0.2530  0.2729
 6052TIP3    H118162   1.947   0.209   0.574 -0.4150 -1.0591  0.2464
 6052TIP3    H218163   1.963   0.297   0.696  1.2173 -0.3135 -0.4665
 6053TIP3   OH218164   0.072   1.720   2.931 -0.2257  0.2901  0.0680
 6053TIP3    H118165   0.116   1.679   2.856  1.2413  1.2227  0.3845
 6053TIP3    H218166   0.072   1.652   2.998 -0.8591 -0.2961 -0.5035
 6054TIP3   OH218167   2.454   5.069   1.692 -0.0751  0.4866  0.1714
 6054TIP3    H118168   2.434   5.160   1.713 -1.2073 -0.2154  2.3846
 6054TIP3    H218169   2.458   5.067   1.597  2.4021  3.3261  0.0384
 6055TIP3   OH218170   3.411   5.924   4.797 -0.2079 -0.2500 -0.1042
 6055TIP3    H118171   3.337   5.898   4.742 -0.5875 -0.1221  0.3441
 6055TIP3    H218172   3.480   5.860   4.777 -0.8264 -1.0718  0.3389
 6056TIP3   OH218173   1.867   2.591   4.378  0.0388  0.6242  0.0703
 6056TIP3    H118174   1.941   2.573   4.436 -0.3109  0.7030  0.5503
 6056TIP3    H218175   1.809   2.516   4.391 -0.3571  0.9740  0.3401
 6057TIP3   OH218176   5.752   4.988   3.767  0.2703  0.5024 -0.5589
 6057TIP3    H118177   5.805   5.060   3.801  0.6808  0.0073 -0.1502
 6057TIP3    H218178   5.663   5.008   3.797  0.5286  0.3880  0.2881
 6058TIP3   OH218179   5.539   4.269   3.677 -0.0387  0.2539  0.1975
 6058TIP3    H118180   5.573   4.353   3.708 -1.6073  1.8089 -1.9892
 6058TIP3    H218181   5.589   4.251   3.597 -0.4264 -0.3539  0.0868
 6059TIP3   OH218182   3.537   4.894   0.448  0.1447  0.0684  0.8164
 6059TIP3    H118183   3.468   4.960   0.448  0.4063  0.3493  1.3658
 6059TIP3    H218184   3.593   4.917   0.374  1.7084  2.0564  2.5094
 6060TIP3   OH218185   5.831   3.729   0.358 -0.1018 -0.1279 -0.4897
 6060TIP3    H118186   5.921   3.740   0.327 -0.1385  0.6216 -0.3389
 6060TIP3    H218187   5.778   3.780   0.297 -0.3718 -0.1493 -0.2747
 6061TIP3   OH218188   5.392   1.823   1.128 -0.3015  0.2259 -0.6946
 6061TIP3    H118189   5.303   1.834   1.094 -0.5551  0.8538  0.1345
 6061TIP3    H218190   5.421   1.739   1.092 -1.0927  0.1821 -1.2633
 6062TIP3   OH218191   3.230   2.956   1.232 -0.6014  0.0446  0.4053
 6062TIP3    H118192   3.249   2.872   1.189 -0.9027  0.2433 -0.1261
 6062TIP3    H218193   3.277   3.021   1.180 -1.3479  0.3392  0.0887
 6063TIP3   OH218194   5.796   5.585   5.095  0.3586 -0.5023 -1.2930
 6063TIP3    H118195   5.716   5.540   5.070  2.2092 -3.6590 -2.0466
 6063TIP3    H218196   5.822   5.545   5.178  0.0120  2.2034  0.2727
 6064TIP3   OH218197   0.837   5.766   1.886 -0.0608  0.2057  1.2207
 6064TIP3    H118198   0.831   5.681   1.841 -0.6858  0.7716  0.1853
 6064TIP3    H218199   0.757   5.811   1.860  0.2440  1.0902  1.8096
 6065TIP3   OH218200   3.634   3.402   2.667  0.4255  0.4995  0.0732
 6065TIP3    H118201   3.666   3.312   2.660 -0.7764  0.1021 -0.6375
 6065TIP3    H218202   3.579   3.403   2.746 -0.1061  0.4211 -0.2888
 6066TIP3   OH218203   5.772   0.635   4.575 -0.2937  0.0479 -0.1759
 6066TIP3    H118204   5.835   0.578   4.618 -0.4987 -1.0265 -1.2475
 6066TIP3    H218205   5.812   0.722   4.579 -0.4610  0.0554  2.4055
 6067TIP3   OH218206   1.486   1.702   0.888 -0.1302  0.1400  0.4701
 6067TIP3    H118207   1.510   1.657   0.808 -1.8547 -0.2194  0.1226
 6067TIP3    H218208   1.549   1.670   0.953  0.9171 -0.0030 -0.5749
 6068TIP3   OH218209   1.848   0.045   3.780 -0.2439 -0.6553  0.3050
 6068TIP3    H118210   1.938   0.038   3.748 -0.4979 -2.7883 -0.0801
 6068TIP3    H218211   1.858   0.069   3.873  0.6838 -0.2103  0.1062
 6069TIP3   OH218212   4.544   0.081   3.173  0.5443  0.3392 -0.1226
 6069TIP3    H118213   4.584  -0.002   3.196  0.4305  0.1831 -0.4944
 6069TIP3    H218214   4.524   0.074   3.080 -0.4421  0.3715  0.0725
 6070TIP3   OH218215   0.078   4.350   2.913 -0.0490 -0.3327 -0.0710
 6070TIP3    H118216   0.047   4.303   2.991  0.8777 -3.2473 -1.3213
 6070TIP3    H218217   0.165   4.383   2.937 -0.0004 -0.7361  0.3104
 6071TIP3   OH218218   5.642   0.978   2.867  0.4259  0.5722  0.1799
 6071TIP3    H118219   5.709   0.999   2.803  0.2203  1.6700  0.3125
 6071TIP3    H218220   5.668   0.893   2.903  1.6800  0.9394  0.1599
 6072TIP3   OH218221   5.191   0.924   1.591 -0.0521  0.2647  0.1012
 6072TIP3    H118222   5.128   0.852   1.584 -1.9037  1.9695 -2.0701
 6072TIP3    H218223   5.159   0.979   1.662 -0.9418  1.0287 -0.8751
 6073TIP3   OH218224   1.844   2.677   3.449 -0.3826  0.1352  0.3548
 6073TIP3    H118225   1.762   2.680   3.399 -1.1371  2.1125  1.5776
 6073TIP3    H218226   1.850   2.587   3.480 -2.3872  0.0388  0.6324
 6074TIP3   OH218227   4.425  -0.034   1.914  0.8518 -0.2506  0.4101
 6074TIP3    H118228   4.452   0.027   1.846  2.6753 -0.8966  0.4952
 6074TIP3    H218229   4.433   0.015   1.996 -0.7601  0.3366  0.2578
 6075TIP3   OH218230   3.440   3.040   4.245 -0.2549  0.0149  0.7895
 6075TIP3    H118231   3.345   3.054   4.251  0.0779  2.1517  1.8987
 6075TIP3    H218232   3.469   3.033   4.336  0.5969 -1.3851  0.4490
 6076TIP3   OH218233   4.598   1.460   1.271 -0.2188  0.1337 -0.2054
 6076TIP3    H118234   4.594   1.370   1.238  0.5149  0.6248 -1.7540
 6076TIP3    H218235   4.690   1.471   1.298 -0.2044  0.5518 -0.4275
 6077TIP3   OH218236   5.721   1.204   3.031 -0.3976 -0.1576 -0.4186
 6077TIP3    H118237   5.800   1.151   3.018 -1.1178 -2.3868  2.9888
 6077TIP3    H218238   5.657   1.167   2.970  0.6432  0.6270 -2.0677
 6078TIP3   OH218239   5.759   3.014   1.997  0.7333  0.0918 -0.1864
 6078TIP3    H118240   5.726   2.926   2.020 -0.4024  0.7363  0.7710
 6078TIP3    H218241   5.739   3.023   1.904 -3.1590  0.9049  0.5330
 6079TIP3   OH218242   4.779   4.173   5.073 -0.0515 -0.0720 -0.7182
 6079TIP3    H118243   4.761   4.203   5.162 -3.3439 -2.2630 -0.4733
 6079TIP3    H218244   4.828   4.092   5.085 -4.1023 -2.7647 -0.4206
 6080TIP3   OH218245   1.904   0.914   3.772  0.4436  0.0591  0.4933
 6080TIP3    H118246   1.862   0.857   3.835 -0.0003 -0.5538 -0.3411
 6080TIP3    H218247   1.847   0.991   3.767 -0.7702 -0.8928 -0.8469
 6081TIP3   OH218248   0.598   5.360   4.604 -0.1129 -0.1652 -0.4641
 6081TIP3    H118249   0.651   5.320   4.535  1.2601 -0.1623  0.5357
 6081TIP3    H218250   0.541   5.422   4.558  0.6938 -0.2331 -1.6021
 6082TIP3   OH218251   5.892   3.768   3.033 -0.5813 -0.2285  0.8505
 6082TIP3    H118252   5.909   3.677   3.006  0.4512  0.4306 -0.8791
 6082TIP3    H218253   5.798   3.780   3.017 -0.4694 -0.6076 -0.2055
 6083TIP3   OH218254   1.231   5.427   3.359 -0.3110  0.3800  0.0851
 6083TIP3    H118255   1.143   5.418   3.322 -0.4314  0.7086  0.2899
 6083TIP3    H218256   1.217   5.427   3.454  0.0986 -1.6524  0.1945
 6084TIP3   OH218257   1.866   4.762   1.552  0.6018 -0.1628  0.0138
 6084TIP3    H118258   1.953   4.723   1.555  0.6238 -0.0946  0.3620
 6084TIP3    H218259   1.868   4.830   1.620  0.2045 -0.3206  0.1856
 6085TIP3   OH218260   2.909   5.298   2.036  0.0100 -0.3482 -0.1533
 6085TIP3    H118261   2.907   5.373   1.977  1.1747  1.3704  1.8527
 6085TIP3    H218262   2.840   5.315   2.100  0.1651 -1.0882  0.2264
 6086TIP3   OH218263   6.069   2.547   2.952  0.2219 -0.5417 -0.0328
 6086TIP3    H118264   6.000   2.482   2.966  0.2869 -0.8083 -0.8412
 6086TIP3    H218265   6.105   2.524   2.866  1.3351 -0.4230  0.3871
 6087TIP3   OH218266   3.438   5.035   0.854 -0.0323  0.1882 -0.4058
 6087TIP3    H118267   3.446   5.111   0.797 -1.1717  1.6730  1.3219
 6087TIP3    H218268   3.396   4.968   0.799  0.4950  0.9654 -1.7946
 6088TIP3   OH218269   3.900   3.004   3.902 -0.3080  0.5931 -0.2380
 6088TIP3    H118270   3.855   3.055   3.969 -0.4870 -0.3504  0.3719
 6088TIP3    H218271   3.834   2.944   3.868 -0.1784  0.9643 -1.1608
 6089TIP3   OH218272   2.115   4.603   0.778 -0.4443  0.0907  0.3353
 6089TIP3    H118273   2.111   4.697   0.790  0.1438  0.7991 -3.5753
 6089TIP3    H218274   2.208   4.583   0.774 -0.3542  0.4016 -3.7776
 6090TIP3   OH218275   1.650   2.434   0.465  0.2698  0.2507 -0.3051
 6090TIP3    H118276   1.570   2.482   0.444  0.2672  0.7784  0.8460
 6090TIP3    H218277   1.673   2.390   0.383 -0.8284  0.6137 -0.8358
 6091TIP3   OH218278   6.183   2.238   4.051 -0.0771  0.4595  0.5216
 6091TIP3    H118279   6.168   2.149   4.081  0.3652  0.1113 -0.2582
 6091TIP3    H218280   6.138   2.293   4.115  0.0677 -0.2938  1.2861
 6092TIP3   OH218281   0.756   3.529   1.650 -0.5512 -0.2203  0.2807
 6092TIP3    H118282   0.709   3.611   1.659 -1.3407 -0.4618 -1.2077
 6092TIP3    H218283   0.690   3.461   1.667 -0.8272 -0.5612 -1.7975
 6093TIP3   OH218284   0.087   0.671   1.730  0.0365 -0.5798  0.1969
 6093TIP3    H118285   0.169   0.622   1.725 -0.1433 -0.8113 -0.5785
 6093TIP3    H218286   0.093   0.734   1.659 -0.7091 -0.9793 -0.2236
 6094TIP3   OH218287   1.819   2.782   1.930 -0.4339  0.4188  0.4800
 6094TIP3    H118288   1.866   2.741   2.003  0.3013 -0.5221 -0.4853
 6094TIP3    H218289   1.779   2.709   1.884 -3.0680  1.2051  1.3539
 6095TIP3   OH218290   5.815   2.063   3.561  0.2496  0.5421 -0.8113
 6095TIP3    H118291   5.880   2.036   3.625  0.4719  0.8793 -0.8946
 6095TIP3    H218292   5.739   2.006   3.578 -0.6266  2.2282  1.3719
 6096TIP3   OH218293   3.727   2.953   0.784  0.0087 -0.2125 -0.5042
 6096TIP3    H118294   3.669   2.968   0.859  0.1369 -0.1092 -0.4272
 6096TIP3    H218295   3.807   2.917   0.821  0.3159  0.4348 -0.5255
 6097TIP3   OH218296   4.131   1.314   3.237 -0.2978 -0.5255 -0.5589
 6097TIP3    H118297   4.218   1.290   3.268  0.0627  1.6862  0.3434
 6097TIP3    H218298   4.134   1.300   3.142  1.1065 -0.3507 -0.5543
 6098TIP3   OH218299   2.525   3.556   1.487 -0.3723 -0.7003  0.3578
 6098TIP3    H118300   2.498   3.548   1.578  0.0908 -1.6765  0.4221
 6098TIP3    H218301   2.443   3.568   1.439 -0.4824  1.9980  1.0770
 6099TIP3   OH218302   0.149   0.204   4.557  0.0397  0.0920  0.1983
 6099TIP3    H118303   0.128   0.260   4.631  0.2339  0.3082  0.0915
 6099TIP3    H218304   0.178   0.122   4.596 -0.5403 -0.0397  0.3511
 6100TIP3   OH218305   4.864   5.783   0.935  0.2789 -0.8918 -0.5296
 6100TIP3    H118306   4.826   5.805   0.850 -1.5432  1.1164  0.7031
 6100TIP3    H218307   4.913   5.861   0.960 -0.5374 -0.8083  0.9225
 6101TIP3   OH218308   5.679   5.309   0.761 -0.5550 -0.0432  0.0980
 6101TIP3    H118309   5.706   5.299   0.670  1.6921 -2.3570  0.8852
 6101TIP3    H218310   5.583   5.302   0.759 -0.7533  2.1640 -2.2267
 6102TIP3   OH218311   2.739   0.880   0.969  0.1288 -0.2180  0.3747
 6102TIP3    H118312   2.803   0.878   1.041  0.7653 -1.5068 -0.2004
 6102TIP3    H218313   2.787   0.919   0.896 -0.2153  0.1702  0.3512
 6103TIP3   OH218314   1.272   1.564   2.377 -0.0584 -0.2080  0.1697
 6103TIP3    H118315   1.236   1.541   2.463  0.7063  0.1992  0.6112
 6103TIP3    H218316   1.218   1.637   2.348 -1.1827 -1.2103 -0.3143
 6104TIP3   OH218317   0.648   1.109   4.055  0.4326  0.0468  0.5013
 6104TIP3    H118318   0.697   1.153   4.124 -1.2713  1.0718  1.1136
 6104TIP3    H218319   0.563   1.089   4.095 -0.8515  1.2953 -1.4791
 6105TIP3   OH218320   3.024   4.164   2.310  0.0922 -0.6071  0.6769
 6105TIP3    H118321   3.021   4.069   2.324 -0.7768 -0.9396 -1.3745
 6105TIP3    H218322   3.025   4.174   2.215 -0.3326  1.4635  0.8434
 6106TIP3   OH218323   3.748   0.678   0.402  0.1018  0.4543 -0.3694
 6106TIP3    H118324   3.697   0.608   0.444 -0.1781  0.5097 -0.6122
 6106TIP3    H218325   3.682   0.731   0.357  0.3532  0.6663 -0.4843
 6107TIP3   OH218326   0.788   3.452   4.216  0.1291 -0.7506  0.8479
 6107TIP3    H118327   0.732   3.411   4.282 -1.6279  1.0474  0.5780
 6107TIP3    H218328   0.772   3.403   4.136  1.3406 -2.1721  1.4374
 6108TIP3   OH218329   5.201   1.798   2.268  0.1309  0.2712  0.5155
 6108TIP3    H118330   5.176   1.770   2.180 -1.8295 -0.1270  1.1341
 6108TIP3    H218331   5.198   1.718   2.320  0.9554  0.5620  1.0181
 6109TIP3   OH218332   5.794   0.295   4.373 -0.1359 -0.7053  0.0017
 6109TIP3    H118333   5.757   0.216   4.335 -0.7139  0.0602 -1.1013
 6109TIP3    H218334   5.718   0.349   4.394  0.2147 -0.7657  1.5245
 6110TIP3   OH218335   3.048   2.664   3.526 -0.3905 -1.2006 -0.6149
 6110TIP3    H118336   3.101   2.732   3.484 -0.7583 -1.4351 -1.4693
 6110TIP3    H218337   3.083   2.582   3.492  2.5486 -1.7801  3.1629
 6111TIP3   OH218338   5.609   5.927   1.781  0.4466  0.8550  0.1042
 6111TIP3    H118339   5.643   5.972   1.704  2.4818  1.0487  1.0578
 6111TIP3    H218340   5.566   5.849   1.746 -0.3532  1.8830 -1.3341
 6112TIP3   OH218341   0.253   0.104   1.009  0.0739  0.0906  0.5712
 6112TIP3    H118342   0.264   0.187   0.963 -0.7406  0.5581  1.1904
 6112TIP3    H218343   0.174   0.116   1.062 -1.4270 -1.8702 -1.0756
 6113TIP3   OH218344   3.575   1.550   0.408  0.1667  0.3687  0.7345
 6113TIP3    H118345   3.521   1.629   0.407  0.1723  0.3708  0.5623
 6113TIP3    H218346   3.535   1.494   0.474 -0.3651  0.1466  0.2356
 6114TIP3   OH218347   1.080   0.124   2.981  0.1528  0.1453 -0.0823
 6114TIP3    H118348   1.060   0.102   3.072 -0.8654  0.8791 -0.1154
 6114TIP3    H218349   1.085   0.219   2.979 -0.6045  0.1870 -0.9408
 6115TIP3   OH218350   3.418   2.448   2.048 -0.0118 -0.2841 -0.1574
 6115TIP3    H118351   3.361   2.522   2.070  1.0411  0.6554 -0.5016
 6115TIP3    H218352   3.455   2.470   1.963  2.5917  0.2322  1.0293
 6116TIP3   OH218353   5.693   4.163   2.089  0.2371 -0.4077 -0.3841
 6116TIP3    H118354   5.615   4.208   2.120  0.3222 -1.1389  0.9621
 6116TIP3    H218355   5.706   4.195   2.000 -2.7613 -1.7503 -1.4201
 6117TIP3   OH218356   3.539   3.705   0.326 -0.1414 -0.0684 -0.3009
 6117TIP3    H118357   3.630   3.722   0.351 -0.7351 -0.7481  2.7087
 6117TIP3    H218358   3.513   3.783   0.276  1.7486  0.6507 -0.2379
 6118TIP3   OH218359   1.211   3.128   2.323 -0.2683  0.3277  0.2855
 6118TIP3    H118360   1.165   3.210   2.305 -0.2634 -0.0209 -1.5091
 6118TIP3    H218361   1.148   3.059   2.302  0.6070 -0.1400 -0.9494
 6119TIP3   OH218362   6.122   4.635   3.334 -0.3962  0.3533  0.4845
 6119TIP3    H118363   6.181   4.563   3.356 -0.5214 -0.2573 -1.0027
 6119TIP3    H218364   6.156   4.710   3.383  1.6270  0.0178 -0.2881
 6120TIP3   OH218365   4.911   4.558   4.361  0.7060  0.1371 -0.5372
 6120TIP3    H118366   4.914   4.609   4.280  1.1549 -1.0660 -1.3044
 6120TIP3    H218367   4.820   4.562   4.389  0.3994  0.0190 -1.4763
 6121TIP3   OH218368   5.661   2.279   1.062  0.3765 -0.1334 -0.8096
 6121TIP3    H118369   5.639   2.187   1.075  0.3705  0.1893  2.0665
 6121TIP3    H218370   5.745   2.290   1.106 -1.1398  1.8512  1.9019
 6122TIP3   OH218371   4.481   3.179   1.430 -0.3810 -0.3842  0.2121
 6122TIP3    H118372   4.558   3.139   1.470 -0.6897 -0.2066  1.0049
 6122TIP3    H218373   4.481   3.269   1.463  0.2698  0.2791 -1.5005
 6123TIP3   OH218374   1.540   1.883   4.639  0.0208  0.5994  0.5180
 6123TIP3    H118375   1.615   1.824   4.643 -0.9565 -0.8205 -0.8232
 6123TIP3    H218376   1.578   1.970   4.648  1.9804  0.0056 -1.2149
 6124TIP3   OH218377   6.243   1.643   2.548 -0.1452 -0.4894 -0.1376
 6124TIP3    H118378   6.312   1.709   2.542 -2.3507  1.8980 -0.8213
 6124TIP3    H218379   6.239   1.605   2.460 -0.1552 -0.1447 -0.2880
 6125TIP3   OH218380   5.338   4.361   2.546  0.1031 -0.7157 -0.2959
 6125TIP3    H118381   5.252   4.349   2.506 -0.7088  0.5889  0.9545
 6125TIP3    H218382   5.371   4.443   2.509  1.1155 -1.5333 -1.2495
 6126TIP3   OH218383   4.136   0.602   2.180  0.4701  0.2609  0.3324
 6126TIP3    H118384   4.074   0.621   2.250  0.6024  0.3058  0.4384
 6126TIP3    H218385   4.103   0.523   2.138 -0.5226  1.1426 -0.6110
 6127TIP3   OH218386   1.029   3.469   3.050  0.0470 -0.1123  0.2809
 6127TIP3    H118387   1.113   3.511   3.030 -0.8847  0.6290 -2.4970
 6127TIP3    H218388   1.033   3.385   3.004 -0.6906 -0.0931  0.1788
 6128TIP3   OH218389   4.306   2.902   3.805 -0.0419 -0.1852  0.2627
 6128TIP3    H118390   4.321   2.988   3.843  0.5131 -0.7889  1.4436
 6128TIP3    H218391   4.237   2.916   3.740 -0.2702  1.0604  0.7555
 6129TIP3   OH218392   4.946   3.331   3.433 -0.4085 -0.0632 -0.4141
 6129TIP3    H118393   4.867   3.304   3.387 -0.1126 -0.7573 -0.5301
 6129TIP3    H218394   4.982   3.250   3.469 -0.0824  0.3268  0.1678
 6130TIP3   OH218395   1.315   4.661   1.085  1.0328 -0.0966 -0.0985
 6130TIP3    H118396   1.256   4.606   1.137  1.0114 -0.6068 -0.6501
 6130TIP3    H218397   1.292   4.641   0.994  0.1143  1.8079 -0.3279
 6131TIP3   OH218398   5.424   1.016   0.824  0.2911  0.6293 -0.0338
 6131TIP3    H118399   5.388   0.930   0.844 -0.4885  1.3337  1.8986
 6131TIP3    H218400   5.405   1.029   0.731 -0.7194 -0.7491 -0.0515
 6132TIP3   OH218401   4.286   0.726   2.694  0.2493 -0.3821  0.2193
 6132TIP3    H118402   4.241   0.809   2.711  1.9049  0.8269 -1.0341
 6132TIP3    H218403   4.286   0.717   2.599  0.2963 -1.7382  0.3227
 6133TIP3   OH218404   1.258   2.850   0.141 -0.2342  0.4712 -0.1791
 6133TIP3    H118405   1.264   2.893   0.227 -0.3484 -2.9306  1.7133
 6133TIP3    H218406   1.167   2.862   0.115 -0.7367 -0.1132  1.1979
 6134TIP3   OH218407   2.790   1.501   0.404 -0.3058  0.6964 -0.4395
 6134TIP3    H118408   2.818   1.514   0.495 -0.7384  0.9978 -0.3467
 6134TIP3    H218409   2.728   1.428   0.409 -2.0204  2.1099 -0.1492
 6135TIP3   OH218410   0.290   3.028   4.935  0.4798 -0.2539 -0.0551
 6135TIP3    H118411   0.336   3.086   4.874 -0.1989 -0.2457 -0.5731
 6135TIP3    H218412   0.276   3.081   5.013  0.5632  0.0302 -0.2316
 6136TIP3   OH218413   2.774   0.191   2.259  0.4344  0.3584  0.2775
 6136TIP3    H118414   2.796   0.252   2.189 -0.5228  2.3563  1.5906
 6136TIP3    H218415   2.704   0.137   2.223  1.0593  0.2322 -0.8051
 6137TIP3   OH218416   4.456   4.158   1.265  0.0186  0.8966  0.1847
 6137TIP3    H118417   4.396   4.191   1.198  0.2494  2.1019  0.5357
 6137TIP3    H218418   4.539   4.204   1.248  0.6877 -0.3436  0.0354
 6138TIP3   OH218419   1.162   3.449   1.216 -0.5646  0.1210 -0.0718
 6138TIP3    H118420   1.203   3.406   1.291 -1.2276 -1.4708 -0.5750
 6138TIP3    H218421   1.069   3.453   1.238 -0.5433  1.1500 -0.1272
 6139TIP3   OH218422   0.825   1.681   0.454 -0.3183 -0.6961  0.6166
 6139TIP3    H118423   0.730   1.668   0.459 -0.3593 -2.0808 -2.0044
 6139TIP3    H218424   0.841   1.761   0.503 -2.7959 -0.5996  1.3968
 6140TIP3   OH218425   1.072   1.711   4.042  0.2537  0.3159  0.2717
 6140TIP3    H118426   1.060   1.770   3.967 -0.9622 -0.7435 -0.4233
 6140TIP3    H218427   1.068   1.768   4.118 -2.1228  1.0610 -0.3045
 6141TIP3   OH218428   2.191   4.779   4.769 -0.7831  0.0048 -0.1009
 6141TIP3    H118429   2.228   4.820   4.691  0.9220 -0.4229  0.4544
 6141TIP3    H218430   2.196   4.846   4.837  1.5754 -0.8851  0.6849
 6142TIP3   OH218431   0.921   1.649   4.367  0.3007  0.1488 -0.9736
 6142TIP3    H118432   0.859   1.602   4.422  1.5547 -0.0385  0.3275
 6142TIP3    H218433   0.892   1.740   4.370  0.3472  0.1427  0.0179
 6143TIP3   OH218434   0.541   0.264   4.954 -0.5355 -0.1460 -1.0433
 6143TIP3    H118435   0.621   0.215   4.937 -0.5253 -0.3113 -0.5263
 6143TIP3    H218436   0.505   0.282   4.867 -0.8463 -1.5860 -1.2350
 6144TIP3   OH218437   4.556   0.521   4.636  0.1329 -0.2284  0.0699
 6144TIP3    H118438   4.594   0.445   4.591  0.6612 -0.8826  1.5493
 6144TIP3    H218439   4.505   0.566   4.569  0.6223 -1.3421 -1.0850
 6145TIP3   OH218440   5.163   1.168   2.381  0.7140  0.2242 -0.0984
 6145TIP3    H118441   5.093   1.192   2.442 -1.2524 -1.6820 -1.4823
 6145TIP3    H218442   5.208   1.095   2.423 -1.0421 -1.5109 -1.0918
 6146TIP3   OH218443   2.302   1.764   4.920 -0.7446  0.1825 -0.4513
 6146TIP3    H118444   2.283   1.832   4.984 -1.5866 -0.5783  0.1205
 6146TIP3    H218445   2.371   1.802   4.865 -1.0722  1.4194 -0.0394
 6147TIP3   OH218446   4.371   5.750   2.350 -0.1045 -0.1830  0.7917
 6147TIP3    H118447   4.442   5.814   2.343 -1.0486  0.9531  1.3255
 6147TIP3    H218448   4.360   5.718   2.260 -0.0011  0.8393  0.4002
 6148TIP3   OH218449   3.531   5.695   2.242 -0.0730 -0.1427 -0.5286
 6148TIP3    H118450   3.623   5.696   2.268 -0.2472  0.2006  0.1030
 6148TIP3    H218451   3.500   5.784   2.257 -0.9540 -0.6624  0.9670
 6149TIP3   OH218452   0.319   5.947   3.672  0.1953 -0.0107 -0.2067
 6149TIP3    H118453   0.349   6.024   3.721 -0.4643  0.4079 -0.4471
 6149TIP3    H218454   0.269   5.896   3.736  0.6320 -0.2510 -0.0478
 6150TIP3   OH218455   4.211   1.836   2.199 -0.3641  0.1983  0.0921
 6150TIP3    H118456   4.291   1.851   2.149  0.0315 -2.2935 -0.1469
 6150TIP3    H218457   4.142   1.829   2.133 -0.3434 -0.1387  0.1038
 6151TIP3   OH218458   2.634   0.322   4.187  0.4820 -0.1434  0.6589
 6151TIP3    H118459   2.728   0.310   4.172 -0.0330 -0.8752 -2.4904
 6151TIP3    H218460   2.616   0.411   4.159  0.3723  0.4844  2.5321
 6152TIP3   OH218461   0.006   3.060   2.540 -0.0209  0.1996  0.0270
 6152TIP3    H118462   0.025   3.111   2.461  0.7081  0.1436  0.1552
 6152TIP3    H218463   0.092   3.027   2.567 -0.0519  1.2870  1.5745
 6153TIP3   OH218464   0.591   2.864   3.985 -0.0696 -0.6507 -0.1712
 6153TIP3    H118465   0.687   2.871   3.987 -0.1003 -0.2467  0.2908
 6153TIP3    H218466   0.572   2.775   4.014  0.2142 -1.2630 -1.8003
 6154TIP3   OH218467   4.822   5.587   4.208 -0.0720  0.0024 -0.1644
 6154TIP3    H118468   4.828   5.609   4.301 -2.0403 -0.1238  0.0237
 6154TIP3    H218469   4.899   5.532   4.192  0.2056 -0.1249  1.4186
 6155TIP3   OH218470   1.031   1.199   1.412  0.2057 -0.2430 -0.5200
 6155TIP3    H118471   1.040   1.247   1.495 -0.5825 -0.6423 -0.1859
 6155TIP3    H218472   1.085   1.121   1.423  0.9246  0.2090 -0.7896
 6156TIP3   OH218473   0.867   4.186   4.426  0.1681 -0.3499 -0.3551
 6156TIP3    H118474   0.836   4.277   4.432 -1.5574 -0.9078 -0.1444
 6156TIP3    H218475   0.926   4.185   4.351 -0.2355  0.8361 -0.7082
 6157TIP3   OH218476   2.365   3.765   2.122  0.1099 -0.3494 -0.0169
 6157TIP3    H118477   2.412   3.782   2.041 -1.3088  0.0111 -0.8030
 6157TIP3    H218478   2.287   3.717   2.095 -0.4717 -0.0850  1.1139
 6158TIP3   OH218479   2.028   5.140   2.652  0.5278 -0.0879  0.6999
 6158TIP3    H118480   1.949   5.088   2.667  0.7731 -0.6101  0.2308
 6158TIP3    H218481   2.023   5.166   2.560  1.1016 -0.4893  0.5456
 6159TIP3   OH218482   1.189   2.420   3.180  0.0767 -0.6300 -0.6934
 6159TIP3    H118483   1.249   2.458   3.244  1.5268 -1.7263 -1.3447
 6159TIP3    H218484   1.161   2.337   3.219 -0.4424 -0.4720 -0.7205
 6160TIP3   OH218485   4.059   2.928   0.379 -0.3926  0.0428  0.2105
 6160TIP3    H118486   3.976   2.970   0.360  0.7087  1.8066 -0.9924
 6160TIP3    H218487   4.035   2.842   0.412 -2.6634 -0.0582 -1.4542
 6161TIP3   OH218488   0.500   2.845   4.604 -0.2497  0.5531  1.2014
 6161TIP3    H118489   0.460   2.783   4.543  0.8223  1.0486 -0.0467
 6161TIP3    H218490   0.438   2.850   4.677  0.3296 -3.1867  2.1672
 6162TIP3   OH218491   0.199   5.153   2.947 -0.1144 -0.1953  0.0674
 6162TIP3    H118492   0.214   5.218   2.878  1.2897  1.3877  1.7640
 6162TIP3    H218493   0.282   5.105   2.953 -0.0859 -0.0459  0.9153
 6163TIP3   OH218494   0.150   4.049   2.978  0.1933  0.2871  0.7239
 6163TIP3    H118495   0.143   4.126   3.035  0.7971  0.6833  0.2787
 6163TIP3    H218496   0.074   3.995   3.000  0.0264  0.7849  1.3816
 6164TIP3   OH218497   5.852   1.049   0.890  0.2581 -0.0240  0.3360
 6164TIP3    H118498   5.918   1.021   0.954  0.8805 -0.2772 -0.3933
 6164TIP3    H218499   5.784   0.983   0.895  0.2628 -0.0002  0.7891
 6165TIP3   OH218500   0.318   3.410   1.899  0.1327 -0.5641 -0.0434
 6165TIP3    H118501   0.376   3.338   1.875 -0.9697 -0.7123 -2.5726
 6165TIP3    H218502   0.298   3.453   1.817 -1.7569  0.7090  1.0012
 6166TIP3   OH218503   3.791   3.159   4.650  0.0566 -0.0957 -0.3457
 6166TIP3    H118504   3.886   3.167   4.663  0.0133  1.1740 -0.6798
 6166TIP3    H218505   3.762   3.248   4.632 -1.3192 -0.3681  0.4353
 6167TIP3   OH218506   1.881   2.775   2.723  0.2468  0.2382 -0.5991
 6167TIP3    H118507   1.931   2.853   2.746  0.2284 -0.0776  0.5419
 6167TIP3    H218508   1.796   2.809   2.695  0.3850  0.6511 -0.5258
 6168TIP3   OH218509   0.978   3.234   0.321  0.5155  0.4207 -0.5767
 6168TIP3    H118510   0.891   3.242   0.361  0.0438 -0.5349 -1.3678
 6168TIP3    H218511   0.995   3.321   0.283 -0.7380  0.2262 -1.6535
 6169TIP3   OH218512   3.293   2.405   1.484  0.8135 -0.0465 -0.1502
 6169TIP3    H118513   3.229   2.416   1.413  1.9285 -0.4606 -1.2543
 6169TIP3    H218514   3.361   2.470   1.466  0.2989  1.0351  1.5364
 6170TIP3   OH218515   4.173   4.363   0.138 -0.1363 -0.2000  0.4073
 6170TIP3    H118516   4.137   4.451   0.150  0.4771 -0.0556  1.2200
 6170TIP3    H218517   4.104   4.317   0.089  0.3754  1.2839 -1.8878
 6171TIP3   OH218518   2.765   0.054   3.847  0.0135  0.0265 -0.2140
 6171TIP3    H118519   2.843   0.108   3.862  0.0432 -0.3534  1.0909
 6171TIP3    H218520   2.796  -0.036   3.858  0.2643 -0.4586 -3.5919
 6172TIP3   OH218521   1.156   4.608   3.781  0.5896 -0.1160  0.1641
 6172TIP3    H118522   1.198   4.673   3.836  0.0101 -0.9474  1.6457
 6172TIP3    H218523   1.149   4.650   3.695  2.4331  0.8440  0.4203
 6173TIP3   OH218524   1.183   2.246   4.250  0.4069  0.3599 -0.0774
 6173TIP3    H118525   1.229   2.186   4.310  1.2365  1.6945  0.6621
 6173TIP3    H218526   1.218   2.332   4.271 -2.2033  1.4206  0.2910
 6174TIP3   OH218527   2.628   1.280   0.132 -0.7567 -0.1381  0.4664
 6174TIP3    H118528   2.610   1.373   0.119  0.1240  0.0542  0.5321
 6174TIP3    H218529   2.607   1.265   0.224 -1.4482 -0.1446  0.3133
 6175TIP3   OH218530   3.227   5.382   0.355 -0.4250  0.8337  0.4718
 6175TIP3    H118531   3.135   5.388   0.330 -0.3802  0.2347  0.1382
 6175TIP3    H218532   3.272   5.438   0.292 -0.3334 -0.5426 -0.7509
 6176TIP3   OH218533   4.310   0.187   1.022  0.1143  0.4741  0.3730
 6176TIP3    H118534   4.281   0.275   0.996  1.8361  1.1461  0.5567
 6176TIP3    H218535   4.405   0.196   1.031  0.5616 -1.8439 -1.2910
 6177TIP3   OH218536   5.372   0.293   1.691  0.3783  0.3624  0.2078
 6177TIP3    H118537   5.282   0.321   1.708 -0.0799 -0.9266  0.0019
 6177TIP3    H218538   5.380   0.209   1.736  1.9338  1.1130  1.4007
 6178TIP3   OH218539   4.445   1.933   2.621  0.4522  0.1349  0.0267
 6178TIP3    H118540   4.408   1.964   2.704  3.3051  1.7657  0.8192
 6178TIP3    H218541   4.386   1.863   2.594 -2.6097  1.8668  1.5890
 6179TIP3   OH218542   5.300   0.966   3.634  0.1126 -0.3152  0.5737
 6179TIP3    H118543   5.264   0.975   3.722  0.0834 -2.3610  0.8182
 6179TIP3    H218544   5.225   0.981   3.576  0.3432  2.0913  0.7948
 6180TIP3   OH218545   5.055   3.537   0.459  0.3146 -0.4079  0.4375
 6180TIP3    H118546   5.136   3.512   0.414  0.1190 -0.5231  0.1468
 6180TIP3    H218547   4.990   3.473   0.429  0.5123 -1.4354  2.0295
 6181TIP3   OH218548   0.242   2.812   4.748  0.2492 -0.1084 -0.0087
 6181TIP3    H118549   0.216   2.867   4.821  0.0987 -1.0065  0.6251
 6181TIP3    H218550   0.160   2.775   4.715  0.3187  0.2499 -0.6178
 6182TIP3   OH218551   4.210   5.130   2.818  0.1326  0.0122  0.0580
 6182TIP3    H118552   4.223   5.048   2.771 -0.8508 -0.7327  1.0539
 6182TIP3    H218553   4.281   5.134   2.881  0.3560  0.0884 -0.1949
 6183TIP3   OH218554   1.438  -0.009   1.499  0.2589 -0.0601  0.0965
 6183TIP3    H118555   1.490   0.072   1.502  0.2268 -0.0067 -0.6146
 6183TIP3    H218556   1.456  -0.046   1.412  0.0820 -0.6930  0.3244
 6184TIP3   OH218557   3.397   1.419   0.178 -0.2747  0.0940  0.0510
 6184TIP3    H118558   3.351   1.490   0.134  0.1666  1.9302  2.3447
 6184TIP3    H218559   3.485   1.453   0.192 -0.4223 -0.3159  2.3589
 6185TIP3   OH218560   5.536   0.940   3.375  0.1603  0.2650  0.5566
 6185TIP3    H118561   5.610   0.993   3.406  0.5702  0.7391 -1.1294
 6185TIP3    H218562   5.539   0.948   3.279 -1.5100 -0.4845  0.4072
 6186TIP3   OH218563   4.745   3.962   0.813  0.4720  0.3260  0.0671
 6186TIP3    H118564   4.726   3.947   0.720  1.6760  1.1890 -0.3483
 6186TIP3    H218565   4.669   4.010   0.845 -0.5153 -1.0343 -0.1431
 6187TIP3   OH218566   3.716   1.752   0.137  0.0234  0.0085  0.3962
 6187TIP3    H118567   3.633   1.780   0.174  0.1187 -0.0495  0.6584
 6187TIP3    H218568   3.756   1.698   0.205  0.3534  0.1814  0.3445
 6188TIP3   OH218569   3.762   5.202   2.459  0.2335 -0.1545  0.3262
 6188TIP3    H118570   3.816   5.182   2.383  1.6987  1.9056  0.7306
 6188TIP3    H218571   3.672   5.196   2.427  0.8056  0.1481 -1.4454
 6189TIP3   OH218572   4.709   4.145   2.041 -0.0586  0.4417 -0.5348
 6189TIP3    H118573   4.707   4.240   2.028 -1.8199  0.1862 -2.9359
 6189TIP3    H218574   4.662   4.110   1.965  2.7164 -2.5275 -1.0956
 6190TIP3   OH218575   5.266   1.682   3.228  0.5850  0.0318 -0.3023
 6190TIP3    H118576   5.352   1.722   3.219  0.7950  0.1054  1.6327
 6190TIP3    H218577   5.279   1.611   3.291 -0.3218 -1.4346 -1.7047
 6191TIP3   OH218578   4.568   4.882   4.683 -0.0963  0.4326  0.2145
 6191TIP3    H118579   4.562   4.787   4.695 -1.0087  0.2217 -1.6516
 6191TIP3    H218580   4.498   4.918   4.738  0.3793  0.0578  1.0811
 6192TIP3   OH218581   0.005   4.388   0.017  0.4140 -0.0537 -0.0668
 6192TIP3    H118582  -0.067   4.362   0.074 -0.4583 -2.3132 -1.9920
 6192TIP3    H218583   0.084   4.361   0.063 -0.1602 -0.2493  0.8185
 6193TIP3   OH218584   5.597   3.729   2.990  0.4334 -0.3901 -0.2592
 6193TIP3    H118585   5.636   3.725   2.902  1.1654  2.1173 -0.1342
 6193TIP3    H218586   5.512   3.687   2.980  0.4890 -0.1642 -2.1991
 6194TIP3   OH218587   4.041   1.268   3.964 -0.6097 -0.0903  0.3005
 6194TIP3    H118588   4.001   1.284   4.050 -0.9940  1.2609 -0.1070
 6194TIP3    H218589   4.135   1.283   3.978 -0.6660  0.0949  0.4899
 6195TIP3   OH218590   2.868  -0.026   0.922 -0.1314  0.1863  0.1553
 6195TIP3    H118591   2.824   0.033   0.862 -0.6570 -1.2605 -0.9419
 6195TIP3    H218592   2.892   0.029   0.997 -1.4453  1.5521 -0.3862
 6196TIP3   OH218593   5.791   5.684   0.591  0.3639 -0.3747  0.0991
 6196TIP3    H118594   5.805   5.759   0.534 -0.7991  0.2981  0.6580
 6196TIP3    H218595   5.830   5.709   0.675  0.6082 -0.6939  0.0843
 6197TIP3   OH218596   1.380   2.593   2.261  0.2032  0.1700 -0.2655
 6197TIP3    H118597   1.462   2.629   2.225  0.9965 -0.7559  0.5559
 6197TIP3    H218598   1.331   2.563   2.184  0.0114  1.9649 -0.8732
 6198TIP3   OH218599   6.296   2.671   4.258  0.2296 -0.7095 -0.0553
 6198TIP3    H118600   6.366   2.607   4.249  1.0212  0.2971 -1.4553
 6198TIP3    H218601   6.262   2.682   4.170 -0.4337  0.1920  0.2983
 6199TIP3   OH218602   4.258   2.634   3.332  0.8499  0.3219  0.1222
 6199TIP3    H118603   4.236   2.727   3.321  1.6256  0.4043 -0.9270
 6199TIP3    H218604   4.220   2.610   3.417 -0.8718  1.1426 -0.3596
 6200TIP3   OH218605   0.430   3.548   4.078  0.2868  0.8380 -0.3451
 6200TIP3    H118606   0.398   3.556   3.988  0.7653  0.3685 -0.5604
 6200TIP3    H218607   0.519   3.583   4.074  0.3500  0.7058 -0.0802
 6201TIP3   OH218608   6.280   4.934   0.361 -0.4337 -0.1984  0.2392
 6201TIP3    H118609   6.270   4.876   0.286 -1.7430 -0.0957  0.3039
 6201TIP3    H218610   6.357   4.901   0.407  2.1241  1.3598 -2.5259
 6202TIP3   OH218611   3.131   2.618   4.555 -0.2027  0.2340 -0.3773
 6202TIP3    H118612   3.181   2.686   4.511 -0.2196 -0.5754 -1.7081
 6202TIP3    H218613   3.178   2.537   4.535 -0.8554 -0.2916  0.1571
 6203TIP3   OH218614   5.193   0.703   3.949  0.8335  0.3580  0.1598
 6203TIP3    H118615   5.177   0.710   4.043  1.0141  0.6849  0.1678
 6203TIP3    H218616   5.136   0.770   3.910  1.1432  0.5767  0.0782
 6204TIP3   OH218617   5.865   3.983   0.042 -0.6824 -0.3845 -0.5734
 6204TIP3    H118618   5.853   4.017  -0.047 -0.9575 -1.5766 -1.0003
 6204TIP3    H218619   5.945   4.026   0.073 -1.9869  2.1093 -0.3669
 6205TIP3   OH218620   5.287   0.364   3.919 -0.3795 -0.0757  0.1486
 6205TIP3    H118621   5.344   0.432   3.955  0.9616 -0.7914 -0.5250
 6205TIP3    H218622   5.243   0.326   3.995  1.8453 -1.0864  1.0126
 6206TIP3   OH218623   5.127   2.680   2.743  0.0872  0.7032 -0.3645
 6206TIP3    H118624   5.220   2.698   2.756  0.3515 -0.4578 -0.4797
 6206TIP3    H218625   5.118   2.588   2.768 -1.1227  0.9335  0.0814
 6207TIP3   OH218626   2.453   2.095   4.050 -0.6104  0.0998  0.3470
 6207TIP3    H118627   2.389   2.108   3.981 -0.0256 -0.2765 -0.2768
 6207TIP3    H218628   2.538   2.111   4.008 -0.2580  0.0068  1.0052
 6208TIP3   OH218629   5.761   2.609   1.805  0.6197  0.5183 -0.3700
 6208TIP3    H118630   5.685   2.658   1.773  0.9329  1.2094 -0.0916
 6208TIP3    H218631   5.827   2.618   1.736  0.5141  0.0982 -0.5210
 6209TIP3   OH218632   4.384   3.595   2.777 -0.3960 -0.1731  0.4750
 6209TIP3    H118633   4.444   3.555   2.841  0.7599  1.7603  0.6785
 6209TIP3    H218634   4.356   3.677   2.819 -1.9596 -0.2729 -0.3053
 6210TIP3   OH218635   4.217   4.972   3.209  0.2661  0.0676 -0.1348
 6210TIP3    H118636   4.170   4.893   3.237 -0.2366 -1.2088 -3.8925
 6210TIP3    H218637   4.304   4.941   3.187  0.4253  0.7958 -0.5609
 6211TIP3   OH218638   1.119   5.813   3.484 -0.2202 -0.5489  0.0077
 6211TIP3    H118639   1.061   5.784   3.554 -1.8891  0.7594 -0.7385
 6211TIP3    H218640   1.107   5.748   3.415  0.8155 -1.4027  0.6089
 6212TIP3   OH218641   3.198   3.521   4.517 -0.1996 -0.2678 -0.1058
 6212TIP3    H118642   3.225   3.609   4.545 -1.3270  0.2060 -0.4341
 6212TIP3    H218643   3.237   3.511   4.430  0.2235 -0.2477  0.0754
 6213TIP3   OH218644   3.848   5.935   0.678 -0.2174  0.2111  0.5568
 6213TIP3    H118645   3.767   5.928   0.628  0.1163 -0.3249  0.0793
 6213TIP3    H218646   3.905   5.990   0.625  0.8968 -2.0334 -0.7219
 6214TIP3   OH218647   0.222   2.065   4.472 -0.0269 -0.1742  0.6092
 6214TIP3    H118648   0.301   2.118   4.470  0.7536 -1.2725 -2.0986
 6214TIP3    H218649   0.254   1.975   4.477 -1.2031 -0.5841  1.1771
 6215TIP3   OH218650   5.762   5.915   1.161 -0.1047 -0.3014  0.0317
 6215TIP3    H118651   5.853   5.893   1.183  0.0081  1.7813  2.0810
 6215TIP3    H218652   5.768   5.969   1.082  0.3468 -0.9732 -0.3930
 6216TIP3   OH218653   1.267   1.990   2.030  0.1089 -0.6116  0.7436
 6216TIP3    H118654   1.177   1.960   2.043 -0.2238  0.4534  0.9783
 6216TIP3    H218655   1.274   2.003   1.935 -0.1691 -0.1198  0.7918
 6217TIP3   OH218656   2.008   4.567   3.687  0.1541  0.4202 -0.1711
 6217TIP3    H118657   2.053   4.558   3.603  2.6344  0.2582  1.0518
 6217TIP3    H218658   2.065   4.624   3.739 -2.0241  1.7030  0.9623
 6218TIP3   OH218659   3.510   2.018   2.753  0.0922  0.4839 -0.0562
 6218TIP3    H118660   3.559   1.989   2.830 -0.1535 -1.2014 -0.4973
 6218TIP3    H218661   3.578   2.049   2.692  0.4087  0.3645  0.2327
 6219TIP3   OH218662   5.473   3.118   3.991  0.0917  0.7160  0.0496
 6219TIP3    H118663   5.428   3.131   4.074  0.0570  3.7269 -0.3091
 6219TIP3    H218664   5.467   3.203   3.947  1.7176 -0.2320 -2.2302
 6220TIP3   OH218665   1.546   4.240   3.569  1.2149  0.1547  0.0619
 6220TIP3    H118666   1.604   4.196   3.631 -0.2465 -0.8403  0.7493
 6220TIP3    H218667   1.486   4.291   3.623  0.3744 -0.1583 -0.5511
 6221TIP3   OH218668   5.665   0.178   3.973 -0.3526  0.0620 -0.2472
 6221TIP3    H118669   5.639   0.235   3.901  0.9989  1.1791  0.1031
 6221TIP3    H218670   5.615   0.211   4.048 -0.9133 -0.3812 -0.4186
 6222TIP3   OH218671   1.617   1.744   4.177 -0.3611  0.3444 -0.3819
 6222TIP3    H118672   1.552   1.735   4.108 -0.6622 -2.3252  0.1661
 6222TIP3    H218673   1.566   1.766   4.255 -0.2185  1.4425 -0.5779
 6223TIP3   OH218674   2.725   0.087   3.228 -0.1720 -0.1928  0.1792
 6223TIP3    H118675   2.632   0.109   3.236 -0.6868 -2.6173  2.0291
 6223TIP3    H218676   2.726   0.000   3.188  1.4174  0.3631 -1.1012
 6224TIP3   OH218677   3.115   2.071   0.739  0.1444  0.5554 -0.2472
 6224TIP3    H118678   3.038   2.097   0.788  1.1929 -0.2404  1.9309
 6224TIP3    H218679   3.106   1.976   0.727  0.8671  0.4248  0.1909
 6225TIP3   OH218680   1.806   1.261   1.315  0.8070 -0.2392  0.3717
 6225TIP3    H118681   1.798   1.165   1.321 -0.9532 -0.1378  0.1686
 6225TIP3    H218682   1.720   1.290   1.284  1.2346  1.4407  0.6771
 6226TIP3   OH218683   2.220   5.850   1.452  0.1015  0.0105  0.5669
 6226TIP3    H118684   2.198   5.875   1.542  0.2891  1.4581  0.2259
 6226TIP3    H218685   2.205   5.929   1.400  1.7874 -0.2513 -0.3977
 6227TIP3   OH218686   4.452   0.024   2.871 -0.3337  0.3110 -0.3809
 6227TIP3    H118687   4.417  -0.054   2.829 -0.3679  0.4206 -0.5580
 6227TIP3    H218688   4.532   0.043   2.822  0.2373 -0.2206  0.3295
 6228TIP3   OH218689   0.462   5.156   0.115 -0.3883 -0.4311  0.0976
 6228TIP3    H118690   0.398   5.094   0.151  1.0311 -2.9805 -1.3966
 6228TIP3    H218691   0.411   5.234   0.094 -2.6443 -1.6804  0.5523
 6229TIP3   OH218692   0.819   0.482   5.010  0.2796 -0.5021  0.0638
 6229TIP3    H118693   0.816   0.446   4.922 -0.4921 -1.5385  0.4833
 6229TIP3    H218694   0.748   0.546   5.013  0.2397 -0.5426 -0.0344
 6230TIP3   OH218695   1.461   1.066   1.736 -0.4270  0.4002 -0.5406
 6230TIP3    H118696   1.371   1.079   1.767  0.1970  1.0826  1.0924
 6230TIP3    H218697   1.513   1.127   1.788  0.7522  1.5054 -2.8621
 6231TIP3   OH218698   1.515   4.721   3.254 -0.7807 -0.5749 -0.1493
 6231TIP3    H118699   1.596   4.737   3.302  0.2498  0.9619 -2.2107
 6231TIP3    H218700   1.457   4.793   3.280 -1.5718 -1.7439  1.4193
 6232TIP3   OH218701   2.352   3.194   1.124 -0.2119 -0.0772  0.0464
 6232TIP3    H118702   2.269   3.215   1.082 -0.4726 -0.4224  0.3755
 6232TIP3    H218703   2.418   3.206   1.056 -0.1074  3.3674  0.6078
 6233TIP3   OH218704   4.814   5.007   4.736  0.1184  0.6225 -0.2057
 6233TIP3    H118705   4.806   4.999   4.831 -0.2416  1.9345 -0.1008
 6233TIP3    H218706   4.734   4.966   4.702  0.2227  0.1971  0.0585
 6234TIP3   OH218707   3.577   2.465   2.823  0.1581 -0.2494  0.1437
 6234TIP3    H118708   3.554   2.402   2.892  1.3249 -2.5602 -1.4183
 6234TIP3    H218709   3.673   2.469   2.826  0.1582  0.4685 -0.6503
 6235TIP3   OH218710   6.154   4.249   4.928 -0.5365  0.2908 -0.3230
 6235TIP3    H118711   6.115   4.178   4.979 -1.1762 -0.2274 -1.4959
 6235TIP3    H218712   6.125   4.328   4.972 -2.1897 -0.1052 -0.6132
 6236TIP3   OH218713   2.032   4.900   2.335 -0.6034 -0.0585  0.1265
 6236TIP3    H118714   2.042   4.921   2.242 -0.2836  0.0892  0.1934
 6236TIP3    H218715   1.954   4.845   2.339  0.0180 -0.9897 -0.3684
 6237TIP3   OH218716   4.168   0.197   3.645  0.5035  0.0636 -0.5702
 6237TIP3    H118717   4.079   0.230   3.646  0.9841  1.4603  0.7827
 6237TIP3    H218718   4.222   0.274   3.626  1.4359 -0.6802 -1.0004
 6238TIP3   OH218719   5.113   5.565   2.079 -0.3755 -0.2224  0.0393
 6238TIP3    H118720   5.018   5.570   2.064 -0.2349  0.8751 -0.5507
 6238TIP3    H218721   5.121   5.558   2.174 -1.0672 -1.3118  0.0485
 6239TIP3   OH218722   2.959   1.213   0.295  0.4630 -0.5168 -0.3926
 6239TIP3    H118723   2.911   1.277   0.347  0.2205 -1.7360  0.9297
 6239TIP3    H218724   3.050   1.244   0.296  0.0349  0.8970 -1.5177
 6240TIP3   OH218725   0.867   3.570   0.413  0.6154 -0.8851  0.0188
 6240TIP3    H118726   0.777   3.572   0.445  0.0219 -2.3067 -1.4009
 6240TIP3    H218727   0.920   3.549   0.490 -0.1675  0.6005  1.0002
 6241TIP3   OH218728   3.588   4.338   1.090  0.2423 -0.0294  0.1296
 6241TIP3    H118729   3.656   4.388   1.135 -0.5061  0.7837  0.3830
 6241TIP3    H218730   3.614   4.247   1.103  1.3357  0.2617  0.1307
 6242TIP3   OH218731   4.342   1.749   2.444  0.6450 -0.1372 -0.4263
 6242TIP3    H118732   4.272   1.774   2.384  0.1622  0.0677  0.2022
 6242TIP3    H218733   4.390   1.680   2.398 -0.6085 -1.0359 -0.4651
 6243TIP3   OH218734   2.148   1.505   0.035 -0.1050 -0.0927  0.1398
 6243TIP3    H118735   2.063   1.506  -0.010 -0.6475 -0.2790  1.1182
 6243TIP3    H218736   2.198   1.438  -0.011 -0.4290  0.1210 -0.5461
 6244TIP3   OH218737   4.414   2.011   4.883 -0.1056  0.5501  0.6981
 6244TIP3    H118738   4.447   2.086   4.834  0.3266 -0.0927 -0.0251
 6244TIP3    H218739   4.462   1.936   4.847  0.0616  0.0289  1.9706
 6245TIP3   OH218740   3.365   5.946   0.817 -0.1351 -0.0883 -0.1967
 6245TIP3    H118741   3.335   6.034   0.794  1.2390  0.2555 -0.7599
 6245TIP3    H218742   3.425   5.921   0.747  0.7796 -0.7953  0.7928
 6246TIP3   OH218743   1.355   4.336   4.154  0.3291  0.0253 -0.0390
 6246TIP3    H118744   1.323   4.353   4.242 -0.1189 -1.5702  0.1447
 6246TIP3    H218745   1.287   4.370   4.096  0.1225  0.1244  0.2594
 6247TIP3   OH218746   0.953   4.198   3.432 -0.0899 -0.2923 -0.1288
 6247TIP3    H118747   0.892   4.250   3.483 -0.9516  0.5247 -1.8869
 6247TIP3    H218748   0.993   4.260   3.372  1.1670 -1.1376 -0.2039
 6248TIP3   OH218749   3.091   5.652   1.862  0.2068 -0.2050 -0.0097
 6248TIP3    H118750   3.107   5.709   1.787  1.9272  1.8488  1.7709
 6248TIP3    H218751   3.177   5.618   1.885  0.2212  1.3378  2.5693
 6249TIP3   OH218752   3.609   2.846   0.552  0.0867  0.0262 -0.4156
 6249TIP3    H118753   3.635   2.895   0.631 -0.3938  0.7803 -0.7152
 6249TIP3    H218754   3.521   2.813   0.572  0.1079 -0.0841 -0.5032
 6250TIP3   OH218755   3.957   4.526   2.591  0.3516  0.2303  0.1152
 6250TIP3    H118756   3.882   4.472   2.568  0.5802  0.0875 -0.3026
 6250TIP3    H218757   4.006   4.536   2.509  0.7192  0.4259  0.3542
 6251TIP3   OH218758   4.547   3.902   4.260 -0.1461  0.0846 -0.0808
 6251TIP3    H118759   4.484   3.861   4.318  1.5001  0.6168  2.2161
 6251TIP3    H218760   4.507   3.986   4.237 -0.7052 -0.0106  0.5082
 6252TIP3   OH218761   2.918   1.838   3.463  0.1396 -0.8049  0.2933
 6252TIP3    H118762   2.994   1.852   3.406 -0.9868  0.9708 -0.8905
 6252TIP3    H218763   2.950   1.859   3.551  1.1015 -0.4020 -0.1385
 6253TIP3   OH218764   5.628   2.962   0.352  0.2618  0.4001  0.2782
 6253TIP3    H118765   5.662   3.040   0.308  1.6442  0.3877  1.2611
 6253TIP3    H218766   5.700   2.932   0.407  0.8831 -3.3105 -2.2346
 6254TIP3   OH218767   1.440   4.524   2.796  0.0216  0.4391  0.3793
 6254TIP3    H118768   1.447   4.602   2.853  1.4762  1.1365 -0.6817
 6254TIP3    H218769   1.380   4.550   2.727  1.8624  1.3490 -0.9773
 6255TIP3   OH218770   5.976   1.696   2.637 -0.0956 -0.5446  0.0022
 6255TIP3    H118771   5.964   1.771   2.579 -0.6803  0.3093  1.1868
 6255TIP3    H218772   6.064   1.663   2.616  0.2453  0.5738 -0.4103
 6256TIP3   OH218773   4.775   5.721   1.297 -0.0578 -0.9636  0.1293
 6256TIP3    H118774   4.788   5.708   1.391 -0.9597 -3.2076  0.0103
 6256TIP3    H218775   4.804   5.638   1.258 -0.2823 -0.2947 -1.5210
 6257TIP3   OH218776   4.010   0.069   1.463 -0.4381 -0.3566 -0.3843
 6257TIP3    H118777   4.057  -0.011   1.489 -0.2684 -0.0355  0.3025
 6257TIP3    H218778   4.029   0.078   1.369  0.9151 -0.2064 -0.1106
 6258TIP3   OH218779   3.754   0.163   1.607 -0.1092  0.0564  0.0600
 6258TIP3    H118780   3.800   0.100   1.551  0.5365  0.4486  0.1333
 6258TIP3    H218781   3.813   0.238   1.612 -0.2213  0.0955  1.1370
 6259TIP3   OH218782   2.719   5.095   1.823 -0.7623  0.1557  0.1916
 6259TIP3    H118783   2.644   5.138   1.863  0.3618  1.5007  0.9437
 6259TIP3    H218784   2.795   5.128   1.872  0.6189  1.0922 -2.3665
 6260TIP3   OH218785   0.322   1.901   1.370 -0.3120  0.1944 -0.0995
 6260TIP3    H118786   0.367   1.985   1.378 -0.3169  0.3670 -1.5572
 6260TIP3    H218787   0.391   1.835   1.378 -0.0125  0.4111 -0.7917
 6261TIP3   OH218788   0.744   3.976   4.532 -0.0466  0.3066  0.4075
 6261TIP3    H118789   0.758   3.923   4.454 -1.2422 -1.7553  1.4880
 6261TIP3    H218790   0.788   4.059   4.514 -0.7879  0.1243 -2.6449
 6262TIP3   OH218791   4.645   5.317   2.955  0.2670  0.0218  0.2175
 6262TIP3    H118792   4.565   5.284   2.916 -0.8483 -0.2568  2.5470
 6262TIP3    H218793   4.649   5.410   2.929  0.0695 -0.3480 -1.1915
 6263TIP3   OH218794   0.061   1.924   3.082 -0.0584 -0.8349 -0.2989
 6263TIP3    H118795   0.109   1.898   3.161 -1.0177 -1.0278  0.2339
 6263TIP3    H218796   0.082   1.856   3.018  0.7120 -0.6880 -0.2087
 6264TIP3   OH218797   5.957   5.714   2.394  0.0769  0.2696  0.6175
 6264TIP3    H118798   5.949   5.771   2.470  2.4586 -0.9240  1.8592
 6264TIP3    H218799   5.916   5.632   2.420  1.0656 -0.2066  0.7182
 6265TIP3   OH218800   1.924   0.065   2.137 -0.0713  0.3168 -0.4974
 6265TIP3    H118801   1.934  -0.009   2.196  1.6578  0.1173 -1.0042
 6265TIP3    H218802   2.009   0.075   2.095 -0.5698  1.9376 -1.2221
 6266TIP3   OH218803   3.019   4.222   0.551  0.0124 -0.1096 -0.2078
 6266TIP3    H118804   3.020   4.126   0.547 -0.1428 -0.0525 -2.7677
 6266TIP3    H218805   3.106   4.248   0.521  1.0688  0.6023  3.0376
 6267TIP3   OH218806   1.858   5.892   3.725  0.1342  0.5863 -0.7054
 6267TIP3    H118807   1.952   5.877   3.727  0.1099  0.2883 -1.3773
 6267TIP3    H218808   1.841   5.952   3.798  0.4536 -1.4225  1.1061
 6268TIP3   OH218809   0.171   5.047   4.202 -0.5101  0.4479 -0.1655
 6268TIP3    H118810   0.202   5.133   4.176  1.1833 -0.0814 -0.0189
 6268TIP3    H218811   0.090   5.033   4.152 -0.0931  1.5612 -1.1697
 6269TIP3   OH218812   3.233   4.758   3.428  0.0601  0.0747  0.2547
 6269TIP3    H118813   3.319   4.777   3.391  0.6124 -1.3182  0.7338
 6269TIP3    H218814   3.223   4.663   3.417 -1.5130  0.2399  0.0260
 6270TIP3   OH218815   3.596   2.048   0.769  0.2015  0.1478  0.4639
 6270TIP3    H118816   3.512   2.056   0.812 -0.6256  1.8953 -1.3077
 6270TIP3    H218817   3.649   2.120   0.804  1.3073 -1.3997  2.1505
 6271TIP3   OH218818   1.464   0.045   2.406  0.3368  0.4139 -0.2076
 6271TIP3    H118819   1.391  -0.015   2.421  0.5552  0.8552  3.7267
 6271TIP3    H218820   1.542  -0.008   2.423  0.5388  1.5247  2.9915
 6272TIP3   OH218821   1.148   4.177   1.371 -0.7834 -0.1673  0.4287
 6272TIP3    H118822   1.228   4.198   1.419 -0.9405 -0.0513  0.6422
 6272TIP3    H218823   1.160   4.087   1.342 -0.4648 -0.0636  0.2373
 6273TIP3   OH218824   0.942   0.892   1.172  1.3049  0.2204 -0.0114
 6273TIP3    H118825   0.937   0.818   1.111  2.9117  0.3270 -0.3014
 6273TIP3    H218826   1.032   0.892   1.203  2.3338  3.9168 -2.4261
 6274TIP3   OH218827   1.298   3.691   4.779  0.1902 -0.5819  0.4884
 6274TIP3    H118828   1.211   3.651   4.778  0.4918 -1.2757 -1.1498
 6274TIP3    H218829   1.314   3.716   4.688  2.0072 -1.1770  0.6057
 6275TIP3   OH218830   4.350   4.646   4.445 -0.1659 -0.7137 -0.3850
 6275TIP3    H118831   4.317   4.733   4.468 -1.4960 -1.2429 -0.2238
 6275TIP3    H218832   4.311   4.588   4.510  0.9573 -1.4016 -0.3040
 6276TIP3   OH218833   4.081   3.831   1.694  0.4161 -0.1177  0.2501
 6276TIP3    H118834   3.990   3.859   1.685  0.0884 -0.7126  1.4709
 6276TIP3    H218835   4.089   3.808   1.787  0.8546 -3.3084 -0.4527
 6277TIP3   OH218836   5.248   0.467   4.454  0.0109  0.4134 -0.1351
 6277TIP3    H118837   5.180   0.524   4.420 -1.0092 -0.7151 -0.0503
 6277TIP3    H218838   5.209   0.426   4.531  0.5360 -0.7229 -0.4481
 6278TIP3   OH218839   1.213   3.449   0.329  0.1629  0.1231 -0.1316
 6278TIP3    H118840   1.280   3.385   0.305 -0.2513 -0.2235 -0.3657
 6278TIP3    H218841   1.219   3.516   0.261  1.4165  0.9762  0.7540
 6279TIP3   OH218842   0.617   5.829   3.059 -0.6449  0.1114 -0.2622
 6279TIP3    H118843   0.529   5.858   3.037 -0.4524 -0.6051 -2.1449
 6279TIP3    H218844   0.641   5.768   2.989  1.4127  0.4272  0.0938
 6280TIP3   OH218845   1.705   2.091   0.542 -0.1661  0.9078  0.4625
 6280TIP3    H118846   1.626   2.121   0.495 -0.4343 -0.5817 -0.1006
 6280TIP3    H218847   1.680   2.093   0.634 -1.1293 -0.1816  0.2554
 6281TIP3   OH218848   3.400   1.610   4.239  0.1513 -0.5366  0.3711
 6281TIP3    H118849   3.331   1.676   4.244  1.3059  0.7073  0.8104
 6281TIP3    H218850   3.466   1.640   4.303  0.2726 -2.6852  1.3555
 6282TIP3   OH218851   6.045   2.100   1.878 -0.1465 -0.0367  0.0137
 6282TIP3    H118852   6.006   2.105   1.966  0.4882  1.3982  0.2376
 6282TIP3    H218853   6.046   2.190   1.847 -1.1807 -0.6176 -1.8627
 6283TIP3   OH218854   0.024   0.693   2.414 -0.2548  0.2325 -0.8057
 6283TIP3    H118855   0.116   0.668   2.425 -0.6017 -1.1914 -0.8146
 6283TIP3    H218856  -0.004   0.645   2.336 -0.6963  1.6409 -1.5324
 6284TIP3   OH218857   2.769   2.520   1.885 -0.1207 -0.5124  0.1467
 6284TIP3    H118858   2.815   2.537   1.803  1.4627 -0.8710  0.9211
 6284TIP3    H218859   2.743   2.606   1.917  1.3917 -0.1402  0.4382
 6285TIP3   OH218860   2.759   1.660   3.335  0.0742  0.0060 -0.1976
 6285TIP3    H118861   2.797   1.738   3.376 -3.4702  0.3033  3.1599
 6285TIP3    H218862   2.822   1.590   3.354  0.7142  1.0513  1.8549
 6286TIP3   OH218863   5.066   0.985   4.517  0.3655  0.3829  0.5058
 6286TIP3    H118864   4.988   0.986   4.462  0.6349 -0.9680  0.0781
 6286TIP3    H218865   5.034   0.965   4.605  0.0514  1.5716  0.6814
 6287TIP3   OH218866   1.885   1.251   1.661 -0.2827  0.3233 -0.2875
 6287TIP3    H118867   1.801   1.297   1.655 -0.3645  0.1857 -0.2084
 6287TIP3    H218868   1.949   1.319   1.680 -0.4409  0.3725  0.0874
 6288TIP3   OH218869   6.180   4.572   4.720  0.1009 -0.3160 -0.0932
 6288TIP3    H118870   6.169   4.667   4.716  2.0382 -0.0249  0.4967
 6288TIP3    H218871   6.126   4.545   4.794  0.1948  0.4572  0.2708
 6289TIP3   OH218872   6.240   5.691   3.471 -0.4359  0.1579  0.3092
 6289TIP3    H118873   6.229   5.596   3.465 -0.4179  0.0846  1.2661
 6289TIP3    H218874   6.283   5.716   3.389 -1.4467 -0.5054 -0.4396
 6290TIP3   OH218875   2.650   1.837   1.675 -0.1116 -0.2132 -0.0258
 6290TIP3    H118876   2.561   1.872   1.680  0.0630  1.0111 -3.1897
 6290TIP3    H218877   2.707   1.913   1.687  0.4070 -0.4385 -0.9605
 6291TIP3   OH218878   5.040   3.172   5.050 -0.8483  0.5351 -0.2748
 6291TIP3    H118879   5.001   3.085   5.060  1.4612 -0.4529  1.0575
 6291TIP3    H218880   5.059   3.179   4.957 -1.1617 -0.3374 -0.4147
 6292TIP3   OH218881   5.336   0.989   2.554 -0.4544  0.5595  0.0241
 6292TIP3    H118882   5.376   0.947   2.630  0.9553  0.1801 -0.8790
 6292TIP3    H218883   5.362   0.934   2.480 -1.3895  1.1854 -0.7908
 6293TIP3   OH218884   3.293   3.667   1.773  0.6425 -0.1734 -0.0331
 6293TIP3    H118885   3.381   3.701   1.791  0.7654 -0.5991  0.2006
 6293TIP3    H218886   3.284   3.592   1.832 -0.7335  1.1866  1.5887
 6294TIP3   OH218887   3.129   5.623   3.453  0.2752 -0.2975 -0.6413
 6294TIP3    H118888   3.130   5.646   3.546  1.2250 -1.3642 -0.3589
 6294TIP3    H218889   3.221   5.619   3.429  0.0632 -0.9518 -1.3856
 6295TIP3   OH218890   4.521   0.871   1.587  0.3948 -0.2783 -0.4710
 6295TIP3    H118891   4.577   0.795   1.571 -0.7233 -1.3744  0.6409
 6295TIP3    H218892   4.472   0.849   1.666 -1.0864  0.9496 -1.0061
 6296TIP3   OH218893   3.450   5.399   4.446 -0.9212  0.1064  0.1394
 6296TIP3    H118894   3.426   5.491   4.437  1.1122  1.1191  3.1576
 6296TIP3    H218895   3.433   5.379   4.538  1.2124 -1.6848  0.2312
 6297TIP3   OH218896   2.347   2.939   3.958 -0.0494  0.4151 -0.8591
 6297TIP3    H118897   2.313   3.018   3.999 -1.4632  0.6924 -2.4699
 6297TIP3    H218898   2.296   2.868   3.997 -1.3263  0.6698 -2.0099
 6298TIP3   OH218899   4.584   4.944   0.704  0.1961  0.1756 -0.1359
 6298TIP3    H118900   4.515   4.996   0.747  0.0284 -0.0555 -0.1223
 6298TIP3    H218901   4.549   4.855   0.703  1.1681 -0.2676  1.3323
 6299TIP3   OH218902   2.074   5.277   2.956 -0.3193  0.1170  0.4381
 6299TIP3    H118903   2.053   5.251   2.866 -1.1554  0.1484  0.6174
 6299TIP3    H218904   1.998   5.328   2.984  0.8771  2.0522  0.3990
 6300TIP3   OH218905   2.747   3.549   4.856  0.2527  0.2320 -0.4997
 6300TIP3    H118906   2.711   3.637   4.866 -0.8690 -0.4047  1.6309
 6300TIP3    H218907   2.683   3.502   4.803 -1.1878 -0.3412  1.6314
 6301TIP3   OH218908   4.420   5.162   2.985  0.2606 -0.1778 -0.2568
 6301TIP3    H118909   4.438   5.211   3.064 -2.5435 -1.8078  1.5689
 6301TIP3    H218910   4.436   5.070   3.010 -0.5842 -0.7182 -1.6023
 6302TIP3   OH218911   2.412   4.803   0.240  0.1055  0.1519 -0.0765
 6302TIP3    H118912   2.404   4.845   0.154  1.1857  0.6439  0.0393
 6302TIP3    H218913   2.380   4.868   0.302 -0.8490 -0.2732 -0.1056
 6303TIP3   OH218914   2.666   2.405   3.942  0.3098  0.5579  0.1538
 6303TIP3    H118915   2.655   2.342   3.871 -3.2457  1.3477 -0.2005
 6303TIP3    H218916   2.669   2.490   3.898 -0.1332  0.9352  0.8388
 6304TIP3   OH218917   1.218   1.611   1.045 -0.1963  0.0485 -0.5435
 6304TIP3    H118918   1.175   1.530   1.017 -0.9579  0.2275  0.0515
 6304TIP3    H218919   1.285   1.627   0.979 -0.2200 -0.9190 -0.8187
 6305TIP3   OH218920   5.054   3.875   4.282 -0.1489  0.2367 -0.3750
 6305TIP3    H118921   5.003   3.955   4.270 -0.5825  0.1549  0.7823
 6305TIP3    H218922   4.988   3.804   4.283  0.0820  0.0201 -0.0040
 6306TIP3   OH218923   6.015   3.723   2.762 -0.3631  0.0867 -0.1756
 6306TIP3    H118924   6.021   3.781   2.838 -2.1828  0.7993 -0.5126
 6306TIP3    H218925   6.018   3.782   2.686  0.2156 -0.5020 -0.6256
 6307TIP3   OH218926   3.880   1.187   3.268  0.1508 -0.0717  0.0449
 6307TIP3    H118927   3.949   1.250   3.248 -0.2830  0.3127 -0.2812
 6307TIP3    H218928   3.802   1.242   3.282 -0.2544 -0.5427 -0.3401
 6308TIP3   OH218929   3.289   1.861   0.459 -0.2398  0.1688  0.0393
 6308TIP3    H118930   3.335   1.915   0.524 -2.2192 -1.3411  2.8724
 6308TIP3    H218931   3.223   1.920   0.422 -1.1674  0.2301  1.7405
 6309TIP3   OH218932   1.454   0.813   3.975 -0.0699  0.2192  0.1514
 6309TIP3    H118933   1.407   0.850   3.900  1.3022 -0.1737 -0.9443
 6309TIP3    H218934   1.418   0.859   4.051  0.4143  2.6410 -0.9923
 6310TIP3   OH218935   6.181   5.407   4.500  0.6925  0.5158 -0.0721
 6310TIP3    H118936   6.202   5.456   4.421  2.3792  2.1830  1.3028
 6310TIP3    H218937   6.091   5.432   4.521 -0.7613 -1.9515 -2.7606
 6311TIP3   OH218938   4.522   5.233   4.170 -0.0059 -0.0151 -0.6366
 6311TIP3    H118939   4.613   5.232   4.139 -0.5572 -0.1473 -2.3942
 6311TIP3    H218940   4.495   5.325   4.160  0.1045  0.1460  0.4614
 6312TIP3   OH218941   4.335   5.393   5.039  0.1454  0.2485  0.2667
 6312TIP3    H118942   4.252   5.401   5.086  0.6925  0.4377  1.2393
 6312TIP3    H218943   4.382   5.474   5.061 -0.3082  1.2584 -2.1326
 6313TIP3   OH218944   5.983   2.796   1.219  0.3169 -0.1785  0.0359
 6313TIP3    H118945   6.059   2.846   1.250 -0.7995  1.0476  0.9295
 6313TIP3    H218946   5.922   2.797   1.294 -0.6896 -0.9050 -0.7463
 6314TIP3   OH218947   6.156   0.203   2.833  0.2392  0.1484  0.0224
 6314TIP3    H118948   6.207   0.208   2.752 -0.8382 -0.2123 -0.7014
 6314TIP3    H218949   6.131   0.111   2.841  0.1446  0.2229  0.6374
 6315TIP3   OH218950   0.198   4.088   0.205  0.2228 -0.2351  0.9353
 6315TIP3    H118951   0.108   4.061   0.221  0.5988 -2.0278  0.3591
 6315TIP3    H218952   0.239   4.087   0.292 -0.1778  0.0272  1.1275
 6316TIP3   OH218953   0.744   0.974   0.450  0.4347  0.4170  0.8612
 6316TIP3    H118954   0.763   1.064   0.425 -1.3420  1.4051  2.8153
 6316TIP3    H218955   0.820   0.947   0.501  0.9159  0.8421  0.3843
 6317TIP3   OH218956   2.157   3.942   4.377  0.1079 -0.7258 -0.4897
 6317TIP3    H118957   2.105   4.023   4.375  1.2177  0.0808  0.8601
 6317TIP3    H218958   2.203   3.941   4.293 -0.2979 -0.2182 -0.7265
 6318TIP3   OH218959   0.357   1.550   1.131  0.2855  0.3245 -0.0673
 6318TIP3    H118960   0.296   1.493   1.179 -1.0224  1.0242 -0.8282
 6318TIP3    H218961   0.407   1.594   1.200 -0.9099  0.6148  0.6563
 6319TIP3   OH218962   3.268   2.463   3.155 -0.1789 -0.0557  0.2070
 6319TIP3    H118963   3.302   2.389   3.105  1.0889  0.0669  0.8396
 6319TIP3    H218964   3.298   2.447   3.244 -0.2360  1.0115  0.4342
 6320TIP3   OH218965   3.048   1.094   1.352  0.2391  0.1384  0.6284
 6320TIP3    H118966   2.994   1.048   1.417 -2.0633  2.0202  0.1505
 6320TIP3    H218967   3.048   1.036   1.276 -0.1228 -0.4047  1.0305
 6321TIP3   OH218968   4.198   5.912   0.856 -0.4327 -0.0869 -0.0761
 6321TIP3    H118969   4.276   5.901   0.802  0.9911  1.3940  1.5512
 6321TIP3    H218970   4.161   5.996   0.829 -1.1843 -0.5386 -0.4813
 6322TIP3   OH218971   5.819   4.828   4.280  0.5413  0.0249 -0.2780
 6322TIP3    H118972   5.856   4.904   4.236  2.9463 -0.2835  1.0253
 6322TIP3    H218973   5.886   4.802   4.344 -0.8806 -2.2097  0.4350
 6323TIP3   OH218974   3.328   1.761   4.496  0.0037 -0.3417  0.2498
 6323TIP3    H118975   3.279   1.697   4.547 -0.6042 -0.9786 -1.0777
 6323TIP3    H218976   3.276   1.773   4.417  0.7063  0.9244 -0.0450
 6324TIP3   OH218977   5.681   5.830   4.340  0.3384  0.3802  0.1532
 6324TIP3    H118978   5.729   5.747   4.344 -2.1751 -1.1398  2.3226
 6324TIP3    H218979   5.613   5.816   4.274 -0.4195  0.4451  0.8884
 6325TIP3   OH218980   3.885   2.592   5.044  0.0866  0.5971 -0.5825
 6325TIP3    H118981   3.956   2.531   5.027 -0.9733 -1.6038  2.0950
 6325TIP3    H218982   3.805   2.540   5.033 -1.0878  2.5002 -1.6630
 6326TIP3   OH218983   3.453   3.684   2.974 -0.0660 -0.4237  0.2551
 6326TIP3    H118984   3.483   3.733   3.050  0.5030 -0.3566 -0.0073
 6326TIP3    H218985   3.443   3.594   3.006  0.4082 -0.4452  0.3478
 6327TIP3   OH218986   4.314   1.296   4.049  0.5425 -0.0864  0.0763
 6327TIP3    H118987   4.380   1.236   4.084  0.7939  1.0890  1.7793
 6327TIP3    H218988   4.359   1.380   4.044 -0.0405  0.1593 -1.4804
 6328TIP3   OH218989   5.317   2.115   1.569 -0.0788  0.5251  0.4738
 6328TIP3    H118990   5.249   2.173   1.535 -2.2099 -0.3636  2.9354
 6328TIP3    H218991   5.287   2.027   1.546  0.2563  0.1202  1.5439
 6329TIP3   OH218992   5.231   3.071   4.207 -0.4309 -0.5213 -0.1188
 6329TIP3    H118993   5.233   2.978   4.229 -1.2609 -0.5237 -0.0320
 6329TIP3    H218994   5.186   3.074   4.122  0.0839 -0.2436 -0.3878
 6330TIP3   OH218995   1.474   4.612   0.768  0.4075 -0.4573 -0.0749
 6330TIP3    H118996   1.557   4.622   0.816  1.0794 -0.3015 -1.2440
 6330TIP3    H218997   1.449   4.701   0.745  0.7793 -0.6141 -1.1367
 6331TIP3   OH218998   0.861   2.535   4.485 -0.0572  0.3707 -0.6743
 6331TIP3    H118999   0.849   2.630   4.494  0.3349  0.3404  0.2166
 6331TIP3    H219000   0.783   2.497   4.526  0.6192  0.2828  0.5791
 6332TIP3   OH219001   1.546   3.922   4.144  0.3043 -0.1643 -0.6507
 6332TIP3    H119002   1.456   3.942   4.119 -0.6188  0.4736  2.7546
 6332TIP3    H219003   1.551   3.826   4.140  0.0576 -0.1455 -2.3988
 6333TIP3   OH219004   3.571   3.079   0.973  0.2092 -0.1586 -0.0960
 6333TIP3    H119005   3.583   3.148   0.908  0.4841 -0.4138 -0.3178
 6333TIP3    H219006   3.497   3.108   1.026 -1.3798 -0.9312 -1.7875
 6334TIP3   OH219007   0.839   3.811   0.053  0.4670  0.1284  0.1669
 6334TIP3    H119008   0.812   3.790  -0.037 -2.0717 -0.8452  1.0699
 6334TIP3    H219009   0.772   3.871   0.085  0.3182 -0.9064  1.9581
 6335TIP3   OH219010   3.523   3.545   1.288  0.3270  0.7360  0.0677
 6335TIP3    H119011   3.510   3.495   1.208  3.1675  0.4378 -0.3057
 6335TIP3    H219012   3.498   3.634   1.265 -1.7759  0.1418 -0.1833
 6336TIP3   OH219013   5.682   4.006   2.425 -0.1889  0.0276 -0.2898
 6336TIP3    H119014   5.597   4.001   2.380 -1.4439  0.3704  1.9247
 6336TIP3    H219015   5.689   4.096   2.454  0.9209 -0.0214 -0.3575
 6337TIP3   OH219016   5.739   2.242   4.172 -0.5538 -0.0208  0.3724
 6337TIP3    H119017   5.744   2.185   4.095 -0.3334 -0.3119  0.6015
 6337TIP3    H219018   5.828   2.244   4.206 -0.3334  1.2684 -0.2098
 6338TIP3   OH219019   6.257   3.141   1.532 -0.3624 -0.0073  0.4996
 6338TIP3    H119020   6.323   3.072   1.529 -0.9980 -0.6312  0.6361
 6338TIP3    H219021   6.208   3.124   1.612 -0.7013  0.4399  0.3913
 6339TIP3   OH219022   1.136   4.063   3.215 -0.6011 -0.6199 -0.3419
 6339TIP3    H119023   1.204   4.027   3.272 -0.3648  0.0658 -0.1810
 6339TIP3    H219024   1.073   4.103   3.274  0.4395  1.4854 -0.5839
 6340TIP3   OH219025   0.416   0.987   1.038  0.1227  0.3859  0.2963
 6340TIP3    H119026   0.395   1.081   1.044  0.5261  0.4367  1.0341
 6340TIP3    H219027   0.490   0.984   0.977 -1.8574  0.2067 -2.2931
 6341TIP3   OH219028   0.476   0.169   1.164 -0.4577 -0.3701  0.0052
 6341TIP3    H119029   0.459   0.117   1.243 -0.6568  0.9891  0.8794
 6341TIP3    H219030   0.413   0.137   1.100  1.3540 -3.2923 -0.5016
 6342TIP3   OH219031   1.637   5.389   1.824  0.2762  0.2195  0.4612
 6342TIP3    H119032   1.604   5.354   1.907 -2.1153 -0.2118 -0.5757
 6342TIP3    H219033   1.653   5.311   1.770  1.0005  0.5268  0.2185
 6343TIP3   OH219034   6.229   2.691   1.561  0.0402 -0.0162  0.4195
 6343TIP3    H119035   6.297   2.666   1.498 -0.0375  1.8600 -0.4650
 6343TIP3    H219036   6.277   2.723   1.637  0.1605  0.4700  0.1440
 6344TIP3   OH219037   1.710   3.219   4.622  0.1442 -0.0835 -0.1233
 6344TIP3    H119038   1.779   3.284   4.633 -1.4145  1.3697  1.7907
 6344TIP3    H219039   1.731   3.149   4.684 -0.6187  0.8841  1.2765
 6345TIP3   OH219040   2.329   0.525   2.158  0.1563 -0.3794 -0.4067
 6345TIP3    H119041   2.403   0.530   2.218  0.1619  1.1874 -0.5066
 6345TIP3    H219042   2.252   0.514   2.215  0.3393 -0.7035 -0.2233
 6346TIP3   OH219043   1.411   4.189   1.492 -0.2563 -0.8505  0.1328
 6346TIP3    H119044   1.402   4.284   1.494  1.5146 -0.6241 -0.4288
 6346TIP3    H219045   1.445   4.167   1.578 -2.6051 -1.2665  1.0123
 6347TIP3   OH219046   0.307   0.204   3.907 -0.3312  0.2351 -0.0515
 6347TIP3    H119047   0.312   0.124   3.855  0.8571  1.2555 -1.5804
 6347TIP3    H219048   0.379   0.197   3.969 -0.5726 -0.1215  0.1937
 6348TIP3   OH219049   1.207   3.578   3.544  0.6528  0.2790 -0.6522
 6348TIP3    H119050   1.171   3.508   3.489 -1.0908 -0.2234  0.9928
 6348TIP3    H219051   1.235   3.533   3.624 -0.9889  1.4517  0.6563
 6349TIP3   OH219052   1.840   1.355   4.283  0.1707 -0.2406  0.4304
 6349TIP3    H119053   1.877   1.386   4.200 -2.7820  2.3208 -0.0993
 6349TIP3    H219054   1.788   1.278   4.258  0.1177 -0.0965  0.0867
 6350TIP3   OH219055   5.541   0.162   2.134 -0.5253  0.6804 -0.1790
 6350TIP3    H119056   5.515   0.114   2.212  0.3723  1.2699  0.4997
 6350TIP3    H219057   5.555   0.093   2.068  1.7562 -0.1617  1.0641
 6351TIP3   OH219058   0.137   2.527   3.232 -0.2307  0.0522  0.3969
 6351TIP3    H119059   0.086   2.513   3.152  2.0284  0.3159 -1.1696
 6351TIP3    H219060   0.206   2.588   3.207  1.1139 -0.5898  2.3021
 6352TIP3   OH219061   5.753   0.590   5.131  0.1663 -0.6206  0.2396
 6352TIP3    H119062   5.734   0.661   5.070  1.5097  1.0128  1.5963
 6352TIP3    H219063   5.773   0.515   5.076  1.5236  0.8368 -1.3499
 6353TIP3   OH219064   0.411   5.062   3.636 -0.2952  0.4858 -0.2255
 6353TIP3    H119065   0.375   5.068   3.724 -1.1919  1.5819 -0.6422
 6353TIP3    H219066   0.483   4.999   3.644  0.0638  1.0465  1.4206
 6354TIP3   OH219067   0.589   1.364   0.211 -0.1013  0.3527  0.0059
 6354TIP3    H119068   0.636   1.443   0.182 -0.5264  0.2113 -1.1348
 6354TIP3    H219069   0.502   1.396   0.235 -0.2992  0.2303 -0.5323
 6355TIP3   OH219070   5.356   3.658   4.262 -0.4971 -0.3260  0.7159
 6355TIP3    H119071   5.265   3.628   4.255 -0.7191  0.3613  0.5785
 6355TIP3    H219072   5.350   3.753   4.258  0.4008 -0.2876 -1.5223
 6356TIP3   OH219073   3.002   1.515   4.038  0.4063  0.0720  0.0361
 6356TIP3    H119074   2.925   1.529   3.982  0.7479 -0.9723 -0.7169
 6356TIP3    H219075   2.999   1.422   4.061  0.5462  0.3687  1.3757
 6357TIP3   OH219076   3.456   4.783   1.827 -0.0761 -0.7175 -0.2360
 6357TIP3    H119077   3.464   4.869   1.869 -1.7214  0.2056 -1.6752
 6357TIP3    H219078   3.512   4.789   1.749  1.1908 -1.6193  0.5656
 6358TIP3   OH219079   1.866   5.774   0.792 -0.4254  0.1086 -0.1293
 6358TIP3    H119080   1.880   5.683   0.816 -0.8970  0.1772  0.4199
 6358TIP3    H219081   1.951   5.816   0.807 -0.5473  0.0248  0.8834
 6359TIP3   OH219082   0.129   4.931   3.165  0.4783  0.0630  0.3575
 6359TIP3    H119083   0.195   4.892   3.107  0.3208  0.3963 -0.0495
 6359TIP3    H219084   0.180   4.976   3.232  0.6631 -0.8123  0.8244
 6360TIP3   OH219085   2.898   2.865   4.838 -0.2288  0.0188 -0.1913
 6360TIP3    H119086   2.967   2.850   4.903  0.1252 -0.0058 -0.5708
 6360TIP3    H219087   2.902   2.789   4.780 -0.6870 -0.0639 -0.1186
 6361TIP3   OH219088   0.605   0.451   2.829 -0.4663  0.1746  0.8598
 6361TIP3    H119089   0.669   0.522   2.828 -0.3742  0.0904  0.8236
 6361TIP3    H219090   0.622   0.404   2.911  0.8681 -1.0853 -0.0953
 6362TIP3   OH219091   2.391   3.377   0.049 -0.2321  0.3372 -0.2544
 6362TIP3    H119092   2.359   3.291   0.023  0.1409 -0.2232  1.0791
 6362TIP3    H219093   2.484   3.364   0.068 -0.2337  0.9597  0.2344
 6363TIP3   OH219094   5.090   1.802   0.647  0.0315  0.5980 -0.0827
 6363TIP3    H119095   5.123   1.818   0.735 -0.1812  1.9729 -0.2342
 6363TIP3    H219096   5.168   1.803   0.591 -0.0471  1.8646 -0.1819
 6364TIP3   OH219097   5.407   3.809   1.844 -0.4759  0.2509 -0.2106
 6364TIP3    H119098   5.380   3.725   1.881 -0.6192  0.3513 -0.0826
 6364TIP3    H219099   5.350   3.873   1.888  0.5500  0.5713  0.7079
 6365TIP3   OH219100   3.469   0.235   2.933 -0.1924  0.0901 -0.2199
 6365TIP3    H119101   3.485   0.157   2.880  1.4387 -0.7048  1.2999
 6365TIP3    H219102   3.374   0.245   2.934 -0.5635 -2.6074  0.4653
 6366TIP3   OH219103   5.231   0.019   3.215 -0.2029 -0.2967  0.2269
 6366TIP3    H119104   5.207   0.001   3.124  0.7334 -0.3724 -0.0171
 6366TIP3    H219105   5.320  -0.015   3.223  0.7984  2.2104  0.3957
 6367TIP3   OH219106   3.348   4.800   2.441 -0.4002  0.4929 -0.2555
 6367TIP3    H119107   3.290   4.812   2.517 -0.1784  2.8663 -0.3876
 6367TIP3    H219108   3.433   4.833   2.471  0.3683 -0.9405 -0.7594
 6368TIP3   OH219109   3.195   0.636   3.376 -0.6391 -0.5789  0.4581
 6368TIP3    H119110   3.260   0.703   3.398 -2.3144  1.0185  0.7653
 6368TIP3    H219111   3.202   0.573   3.448 -0.0055  0.0178  0.9425
 6369TIP3   OH219112   0.360   2.173   1.964  0.3087  0.4836  0.1475
 6369TIP3    H119113   0.366   2.080   1.943  0.3979  0.2923  0.9834
 6369TIP3    H219114   0.280   2.181   2.016 -0.6248  1.1577 -1.3375
 6370TIP3   OH219115   3.415   0.777   1.556 -0.4071  0.1421  0.0527
 6370TIP3    H119116   3.446   0.703   1.504 -0.2216 -1.5495  2.3879
 6370TIP3    H219117   3.476   0.781   1.631 -0.7779  2.3034  0.3131
 6371TIP3   OH219118   1.251   0.038   3.966  0.1500  0.1830  0.0461
 6371TIP3    H119119   1.255   0.050   4.061  1.1815 -1.1830  0.2145
 6371TIP3    H219120   1.343   0.034   3.938 -0.1276  1.2295 -1.1195
 6372TIP3   OH219121   1.080   0.762   0.760  0.1436 -0.5822  0.4410
 6372TIP3    H119122   1.105   0.809   0.840 -0.5624  2.8638 -1.1829
 6372TIP3    H219123   1.018   0.695   0.790 -0.4028  0.8491  2.7486
 6373TIP3   OH219124   0.967   3.370   3.402  0.7119 -0.5792  0.5274
 6373TIP3    H119125   0.922   3.363   3.487  1.1830 -0.1036  0.8162
 6373TIP3    H219126   0.980   3.279   3.375 -0.3975 -0.7342  0.4502
 6374TIP3   OH219127   2.616   4.956   1.264  0.2812  0.1985 -0.2797
 6374TIP3    H119128   2.649   5.043   1.244 -0.3928  0.5081 -0.0481
 6374TIP3    H219129   2.552   4.969   1.334  1.5773 -0.7097  1.1336
 6375TIP3   OH219130  -0.026   4.657   1.342  0.6279 -0.2083 -0.1977
 6375TIP3    H119131   0.017   4.633   1.424 -0.3645 -0.1278  0.3753
 6375TIP3    H219132   0.043   4.655   1.276  1.2248 -1.4202  0.4297
 6376TIP3   OH219133   3.831   2.617   4.325  0.2466  0.1943 -0.4104
 6376TIP3    H119134   3.838   2.694   4.381  0.6029  0.4620 -0.8105
 6376TIP3    H219135   3.902   2.628   4.261  1.7897 -1.5899  0.8859
 6377TIP3   OH219136   1.617   4.209   1.089  0.0077 -0.0984 -0.4635
 6377TIP3    H119137   1.589   4.152   1.160  2.0960 -2.4151 -1.3614
 6377TIP3    H219138   1.575   4.172   1.011  3.3551 -2.2402 -1.4691
 6378TIP3   OH219139   4.744   0.303   2.155 -0.5775 -0.4366 -0.1925
 6378TIP3    H119140   4.811   0.339   2.097 -1.8034  1.6408 -0.4154
 6378TIP3    H219141   4.710   0.379   2.203 -1.4316 -1.7193  1.3175
 6379TIP3   OH219142   3.534   1.764   3.418  0.3361  0.2176  0.1484
 6379TIP3    H119143   3.475   1.708   3.367  2.3468 -0.7697 -1.2036
 6379TIP3    H219144   3.555   1.712   3.496  0.2220  0.1595  0.1411
 6380TIP3   OH219145   0.244   1.608   3.201 -0.9277  0.1191  0.1717
 6380TIP3    H119146   0.240   1.695   3.239 -1.1779  0.2953 -0.2528
 6380TIP3    H219147   0.219   1.549   3.273 -0.4281  0.3603  0.5518
 6381TIP3   OH219148   3.816   4.603   3.280  0.1467  0.7563 -0.6619
 6381TIP3    H119149   3.854   4.607   3.193 -0.4052  2.8398 -0.8618
 6381TIP3    H219150   3.787   4.693   3.298 -1.1937  0.0501  1.0195
 6382TIP3   OH219151   0.366   3.475   1.155  0.9367  0.3742 -0.1382
 6382TIP3    H119152   0.279   3.498   1.123  0.8426 -1.4536 -1.3196
 6382TIP3    H219153   0.416   3.452   1.077  2.0288 -0.0693  0.6478
 6383TIP3   OH219154   3.666   1.960   2.952  0.1089  0.1745  0.4195
 6383TIP3    H119155   3.749   1.998   2.979  1.0833 -0.9203 -0.9256
 6383TIP3    H219156   3.653   1.886   3.013  0.6946 -0.3295 -0.0523
 6384TIP3   OH219157   5.161   4.614   2.976 -0.1042 -0.2535  0.4559
 6384TIP3    H119158   5.146   4.520   2.963 -1.1539 -0.1214  0.6377
 6384TIP3    H219159   5.256   4.624   2.972 -0.0520 -1.1337 -0.8455
 6385TIP3   OH219160   3.615   2.032   1.194 -0.3269 -0.4307 -0.0428
 6385TIP3    H119161   3.600   1.938   1.181  3.2084 -1.0746 -0.7003
 6385TIP3    H219162   3.616   2.043   1.289 -2.0893 -0.7239  0.0450
 6386TIP3   OH219163   3.416   1.477   0.617 -0.6069 -0.0349 -0.0790
 6386TIP3    H119164   3.394   1.390   0.652 -1.4758  0.6160  1.0784
 6386TIP3    H219165   3.332   1.523   0.614 -0.2073  0.6632 -1.0033
 6387TIP3   OH219166   5.002   0.793   0.277  0.1333  0.4348 -0.4694
 6387TIP3    H119167   4.938   0.734   0.316 -0.2907  0.7657 -0.6547
 6387TIP3    H219168   5.079   0.739   0.263  0.5629  0.4651  1.5024
 6388TIP3   OH219169   6.163   1.057   3.372 -0.2055 -0.3725 -0.4417
 6388TIP3    H119170   6.099   1.003   3.325 -0.8472  0.6875 -0.8164
 6388TIP3    H219171   6.235   1.068   3.309 -0.0664 -0.8031 -0.3582
 6389TIP3   OH219172   6.265   4.042   3.980  0.3776 -0.6907 -0.1335
 6389TIP3    H119173   6.344   3.990   3.995 -0.4685 -2.4631 -1.5450
 6389TIP3    H219174   6.203   4.013   4.046  0.0995 -1.0736 -0.5563
 6390TIP3   OH219175   0.100   0.916   1.582  0.6024  0.0621 -0.1572
 6390TIP3    H119176   0.171   0.927   1.645 -0.4575  0.5943  1.0034
 6390TIP3    H219177   0.085   1.004   1.547  0.0452  0.1055  0.1695
 6391TIP3   OH219178   3.747   3.332   3.675  0.0417  0.1001 -0.5836
 6391TIP3    H119179   3.770   3.399   3.739 -0.8843 -0.7492  0.6670
 6391TIP3    H219180   3.820   3.334   3.612  0.4486  1.6713 -0.1146
 6392TIP3   OH219181   5.149   4.623   3.323  0.1730 -0.4173  0.2400
 6392TIP3    H119182   5.139   4.558   3.254 -1.8576  0.0188  0.0589
 6392TIP3    H219183   5.065   4.624   3.368  0.3684  1.6022  0.6619
 6393TIP3   OH219184   0.217   3.454   5.054 -0.1024 -0.1131  0.3609
 6393TIP3    H119185   0.135   3.436   5.009  0.3079  0.9590 -0.8662
 6393TIP3    H219186   0.282   3.458   4.985  0.2197  3.6641  0.6882
 6394TIP3   OH219187   5.655   3.641   0.554  0.0594  0.0636 -0.1443
 6394TIP3    H119188   5.704   3.701   0.498  1.3769  1.6308  2.5145
 6394TIP3    H219189   5.584   3.693   0.590 -1.0896 -1.0614 -0.7172
 6395TIP3   OH219190   1.057   3.809   4.564 -0.1675  0.2082  0.4983
 6395TIP3    H119191   1.056   3.715   4.551 -1.3511  0.4208 -1.4769
 6395TIP3    H219192   0.977   3.827   4.614 -0.1856  0.2087  0.4694
 6396TIP3   OH219193   5.289   1.351   3.126 -0.2579 -0.1180 -0.0143
 6396TIP3    H119194   5.374   1.308   3.130  0.0589  0.5792  1.8860
 6396TIP3    H219195   5.293   1.406   3.048  0.5306 -1.0474 -0.6550
 6397TIP3   OH219196   3.273   5.186   2.509 -0.7654 -0.3567  0.1872
 6397TIP3    H119197   3.354   5.171   2.459  0.6190  3.8612  0.7560
 6397TIP3    H219198   3.279   5.126   2.583  1.1263 -1.1853 -0.5634
 6398TIP3   OH219199   2.132   1.263   1.270 -0.7583  0.2969  0.1116
 6398TIP3    H119200   2.115   1.222   1.355 -0.7377 -0.1440 -0.0946
 6398TIP3    H219201   2.223   1.293   1.277 -0.4123 -0.6451 -0.1075
 6399TIP3   OH219202   3.045   2.595   1.351  0.3973 -0.1034  0.2103
 6399TIP3    H119203   2.957   2.622   1.376 -0.4135 -1.6152 -0.8110
 6399TIP3    H219204   3.033   2.507   1.315  2.3453 -0.3670  0.1038
 6400TIP3   OH219205   0.751   0.502   3.624  0.4569  0.5901  0.4637
 6400TIP3    H119206   0.748   0.596   3.641  0.1128  0.6878 -0.0996
 6400TIP3    H219207   0.684   0.488   3.558  1.7754  0.2595 -0.8724
 6401TIP3   OH219208   2.778   1.904   0.157  0.3826 -0.8418 -0.0694
 6401TIP3    H119209   2.792   1.844   0.085 -0.2741 -0.8568 -0.1942
 6401TIP3    H219210   2.734   1.851   0.224 -1.7715 -0.1380 -0.8323
 6402TIP3   OH219211   5.021   3.422   1.975 -0.1046 -0.4929  0.5838
 6402TIP3    H119212   5.060   3.478   2.042  1.9370  0.8143 -1.5363
 6402TIP3    H219213   4.932   3.457   1.965  0.1837  0.5103  1.3010
 6403TIP3   OH219214   0.586   0.704   0.082 -0.1897  0.6695 -0.0977
 6403TIP3    H119215   0.631   0.788   0.070  0.1712  0.3526 -1.0628
 6403TIP3    H219216   0.563   0.702   0.174  1.5009  0.9957  0.3744
 6404TIP3   OH219217   5.531   0.313   1.459 -0.2015 -0.2910  0.4927
 6404TIP3    H119218   5.597   0.376   1.488  1.6503 -2.1877  0.6370
 6404TIP3    H219219   5.478   0.295   1.536 -0.5904  0.8566  0.5110
 6405TIP3   OH219220   1.353   0.813   0.990 -0.2455  0.0999  0.5596
 6405TIP3    H119221   1.411   0.758   0.937  1.0270  0.1147  1.8941
 6405TIP3    H219222   1.357   0.899   0.948  0.5017  0.0396  0.5008
 6406TIP3   OH219223   0.607   1.041   3.386  0.4187  0.3091  0.4530
 6406TIP3    H119224   0.643   1.012   3.303  0.6722 -0.4261  0.8068
 6406TIP3    H219225   0.527   1.089   3.363  0.5148  0.1556 -0.2079
 6407TIP3   OH219226   1.869   4.383   5.059 -0.2275  0.1614  0.2699
 6407TIP3    H119227   1.832   4.354   5.143 -1.6925 -1.5584 -0.9138
 6407TIP3    H219228   1.951   4.335   5.051  0.1267  0.6469  0.8869
 6408TIP3   OH219229   3.820   2.299   2.164 -0.3948 -0.0413  0.6157
 6408TIP3    H119230   3.796   2.207   2.178  1.1130 -0.6852 -0.6524
 6408TIP3    H219231   3.822   2.309   2.069 -0.6283  1.3389  0.7455
 6409TIP3   OH219232   1.347   3.924   2.392  0.0345  0.5381 -0.0533
 6409TIP3    H119233   1.391   3.973   2.323 -0.3320  2.0548  0.7553
 6409TIP3    H219234   1.389   3.952   2.473 -0.2674 -0.4109  0.4501
 6410TIP3   OH219235   2.329   1.985   0.058 -0.3940  0.1463  0.2388
 6410TIP3    H119236   2.326   1.979  -0.038  0.9681 -0.8835  0.2366
 6410TIP3    H219237   2.330   2.079   0.076  0.6583  0.3528 -0.8234
 6411TIP3   OH219238   2.807   4.370   5.027  0.6443  0.3326 -0.0691
 6411TIP3    H119239   2.748   4.379   5.102 -0.5581 -0.6793 -0.8633
 6411TIP3    H219240   2.774   4.434   4.963 -0.4337 -1.1134 -1.0126
 6412TIP3   OH219241   0.580   0.193   2.727  0.1230 -0.1853  0.5318
 6412TIP3    H119242   0.587   0.269   2.785 -0.1022 -1.1620  1.8930
 6412TIP3    H219243   0.551   0.229   2.644 -3.5672  0.8928  2.0700
 6413TIP3   OH219244   0.457   0.203   1.868  0.3252 -0.0387 -0.0637
 6413TIP3    H119245   0.368   0.179   1.892 -0.1580  2.1990  0.6464
 6413TIP3    H219246   0.465   0.178   1.776 -0.7767 -0.8795  0.0524
 6414TIP3   OH219247   1.830   5.017   3.013  0.2332 -0.2715 -0.4354
 6414TIP3    H119248   1.922   5.043   3.009 -0.1456  1.3077  0.5568
 6414TIP3    H219249   1.829   4.943   3.075  0.8928 -0.6941 -0.9100
 6415TIP3   OH219250   3.089   1.583   4.619 -0.4529 -0.2583  0.0673
 6415TIP3    H119251   3.060   1.527   4.691 -0.4994  1.0463  1.0865
 6415TIP3    H219252   3.183   1.565   4.612 -0.3108  0.0975  0.9195
 6416TIP3   OH219253   6.194   5.171   1.192  0.0589 -0.2820 -0.2554
 6416TIP3    H119254   6.143   5.251   1.199  0.9185  0.2128  0.5254
 6416TIP3    H219255   6.240   5.179   1.108 -0.8433 -0.5732 -0.7970
 6417TIP3   OH219256   6.181   5.756   4.934 -0.3821  0.2457  0.2983
 6417TIP3    H119257   6.115   5.687   4.949  2.0672 -2.0170  1.4196
 6417TIP3    H219258   6.228   5.728   4.855  1.0583  0.2601  1.1225
 6418TIP3   OH219259   4.148   5.496   1.972 -0.2356 -0.3884 -0.0605
 6418TIP3    H119260   4.191   5.455   2.047  1.4243  0.2876 -0.6037
 6418TIP3    H219261   4.109   5.423   1.924  0.3055 -1.0286  0.4490
 6419TIP3   OH219262   2.902   5.807   1.999  0.2931 -0.4358  0.3387
 6419TIP3    H119263   2.968   5.748   1.963  0.0716 -0.0147 -0.7951
 6419TIP3    H219264   2.849   5.833   1.923 -0.2166  0.4445  0.9788
 6420TIP3   OH219265   4.152   3.741   3.515 -0.0180  0.6928 -0.1165
 6420TIP3    H119266   4.174   3.794   3.439  2.7648 -0.5039 -0.2440
 6420TIP3    H219267   4.089   3.677   3.482  0.5395  0.6899 -1.2141
 6421TIP3   OH219268   2.477   1.904   4.756 -0.5098  0.6796 -0.1914
 6421TIP3    H119269   2.472   1.934   4.665 -0.0488  0.1208 -0.4055
 6421TIP3    H219270   2.555   1.946   4.791 -0.1187  0.1130 -0.3592
 6422TIP3   OH219271   5.434   0.889   0.023 -0.7657  0.2706 -0.1535
 6422TIP3    H119272   5.457   0.838   0.100  2.8020 -0.4598 -1.4953
 6422TIP3    H219273   5.449   0.980   0.050 -1.2631  0.1611  0.5108
 6423TIP3   OH219274   4.386   5.207   2.547  0.3415 -0.4842  0.3095
 6423TIP3    H119275   4.338   5.266   2.606 -0.8042  0.7060 -1.7072
 6423TIP3    H219276   4.339   5.124   2.554  0.0581 -0.2838  0.8825
 6424TIP3   OH219277   5.405   2.390   0.993 -0.4693  0.0769  0.3452
 6424TIP3    H119278   5.499   2.371   0.997  0.0385  2.4293  1.0036
 6424TIP3    H219279   5.366   2.331   1.058  0.5401 -0.8296  0.1698
 6425TIP3   OH219280   2.738   4.577   4.870 -0.6047  0.0607 -0.2394
 6425TIP3    H119281   2.669   4.560   4.805 -0.4952  0.7307 -0.5419
 6425TIP3    H219282   2.710   4.657   4.913 -1.5426 -1.2613  1.7513
 6426TIP3   OH219283   1.897   1.715   3.812 -0.2690  0.0008  0.3060
 6426TIP3    H119284   1.942   1.771   3.748  1.1754 -1.2842  0.1242
 6426TIP3    H219285   1.893   1.767   3.892 -1.4161  1.3535 -0.5814
 6427TIP3   OH219286   3.994   4.704   1.468 -0.5765 -0.0492 -0.0334
 6427TIP3    H119287   3.991   4.654   1.550 -2.9594  2.5767  1.6636
 6427TIP3    H219288   3.908   4.690   1.428 -0.4524  0.8574 -0.6514
 6428TIP3   OH219289   5.630   1.552   3.398  0.2490 -0.1215  0.3253
 6428TIP3    H119290   5.692   1.502   3.452 -0.4994 -0.5960  0.7664
 6428TIP3    H219291   5.562   1.581   3.460  0.3657  0.9555 -0.0282
 6429TIP3   OH219292   2.727   5.670   3.123  0.3070  0.2473 -0.3048
 6429TIP3    H119293   2.795   5.682   3.189 -1.3894  3.8841  1.0235
 6429TIP3    H219294   2.774   5.643   3.044  2.9946  0.6277  1.0648
 6430TIP3   OH219295   3.890   5.390   0.629  0.0139 -0.6611 -0.1597
 6430TIP3    H119296   3.855   5.460   0.684 -0.6701 -1.1748  0.0761
 6430TIP3    H219297   3.963   5.354   0.679 -0.2756 -0.7850  0.1706
 6431TIP3   OH219298   4.469   1.169   1.489  0.1892 -0.5218 -0.0253
 6431TIP3    H119299   4.478   1.175   1.394  0.6086 -1.8675 -0.0864
 6431TIP3    H219300   4.415   1.091   1.504  0.7712 -0.7770  0.8588
 6432TIP3   OH219301   5.949   5.959   4.882 -0.4885  0.0236  0.1393
 6432TIP3    H119302   6.001   5.890   4.922 -2.1225 -0.5287  1.4338
 6432TIP3    H219303   5.888   5.987   4.951 -0.5428  2.0734 -0.6627
 6433TIP3   OH219304   3.733   0.618   4.443 -0.1724 -0.4284 -0.6627
 6433TIP3    H119305   3.662   0.558   4.422 -0.5071  0.2238 -1.4668
 6433TIP3    H219306   3.698   0.705   4.421 -0.1559  0.2238  1.6312
 6434TIP3   OH219307   1.515   1.417   1.306  0.2113 -0.0453  0.0129
 6434TIP3    H119308   1.454   1.367   1.361  0.3548 -1.0325 -0.6930
 6434TIP3    H219309   1.522   1.365   1.226  1.6637  0.2605 -0.0762
 6435TIP3   OH219310   2.864   5.258   2.849  0.2299 -0.1990  0.2827
 6435TIP3    H119311   2.944   5.206   2.840  0.5971  0.4134 -0.1302
 6435TIP3    H219312   2.854   5.301   2.764  0.4277  1.0680  0.8687
 6436TIP3   OH219313   5.093   5.878   2.403 -0.3096 -0.2240 -0.0573
 6436TIP3    H119314   5.158   5.948   2.404  2.0668 -2.2698  0.6564
 6436TIP3    H219315   5.049   5.885   2.488 -0.9266  1.0513 -0.4562
 6437TIP3   OH219316   2.475   0.986   1.815 -0.5322  0.0479  0.3679
 6437TIP3    H119317   2.418   1.050   1.773 -0.2400  0.6549  0.8798
 6437TIP3    H219318   2.491   0.920   1.747 -0.2461  0.8917 -0.3966
 6438TIP3   OH219319   0.956   0.583   4.405 -0.0357  0.0551  0.2211
 6438TIP3    H119320   0.952   0.679   4.413  1.0165  0.0531  1.1695
 6438TIP3    H219321   1.046   0.566   4.375  0.2445 -0.6797  1.4187
 6439TIP3   OH219322   4.268   2.852   2.297 -0.2296  0.1180 -0.7446
 6439TIP3    H119323   4.208   2.809   2.358 -0.6426  1.0055 -0.5146
 6439TIP3    H219324   4.352   2.807   2.311 -0.5779 -0.4086 -0.2983
 6440TIP3   OH219325   4.720   4.376   0.412  0.1675 -0.7894 -0.2078
 6440TIP3    H119326   4.737   4.470   0.403 -1.1757 -0.4913  0.1923
 6440TIP3    H219327   4.767   4.337   0.339 -0.6476  0.3702 -1.3970
 6441TIP3   OH219328   4.051   1.375   4.256  0.2752  0.1683 -0.2307
 6441TIP3    H119329   4.111   1.304   4.280  0.3503 -0.4527 -2.0754
 6441TIP3    H219330   4.105   1.438   4.209 -0.3556 -0.1243 -1.4092
 6442TIP3   OH219331   2.236   5.040   0.943 -0.0569  0.5234 -0.2955
 6442TIP3    H119332   2.282   5.045   0.859  1.5110 -1.2037  0.3849
 6442TIP3    H219333   2.259   4.954   0.978 -1.9191  0.5769  1.2197
 6443TIP3   OH219334   4.011   2.983   4.819  0.0401 -0.3250  0.4816
 6443TIP3    H119335   4.066   3.018   4.890  0.8375  1.1831 -0.8176
 6443TIP3    H219336   3.921   2.993   4.852  0.4256 -0.7403  1.7387
 6444TIP3   OH219337   2.959   1.947   2.113 -0.0267  0.2070  0.3326
 6444TIP3    H119338   3.038   1.995   2.137 -0.0027 -0.0426  0.7635
 6444TIP3    H219339   2.901   2.014   2.078  1.4845  0.0000 -2.9343
 6445TIP3   OH219340   2.295   5.711   2.213  0.9342  0.5492  0.2478
 6445TIP3    H119341   2.385   5.715   2.244  1.3460 -0.6752 -0.7214
 6445TIP3    H219342   2.249   5.660   2.280  1.1987  0.2625  0.2130
 6446TIP3   OH219343   5.863   4.377   1.418 -0.2402  0.5895 -0.1276
 6446TIP3    H119344   5.811   4.399   1.341  1.0473  0.9524 -0.9328
 6446TIP3    H219345   5.802   4.381   1.491 -1.4381  0.4760 -1.0979
 6447TIP3   OH219346   1.776   3.256   2.890 -0.0596 -0.1110  0.0728
 6447TIP3    H119347   1.715   3.273   2.962  1.0790 -2.2049  1.6464
 6447TIP3    H219348   1.861   3.246   2.933  0.7307 -1.0596 -1.6314
 6448TIP3   OH219349   3.440   5.436   2.600  0.0902 -0.5221 -0.6812
 6448TIP3    H119350   3.476   5.521   2.628 -0.7329 -0.6262  0.7682
 6448TIP3    H219351   3.421   5.448   2.507  0.2850  0.7865 -0.5721
 6449TIP3   OH219352   5.150   3.998   3.660  0.2858 -0.9572 -0.1826
 6449TIP3    H119353   5.189   4.003   3.747 -1.6615 -0.1647  0.7096
 6449TIP3    H219354   5.216   3.953   3.607  2.0425 -0.3793  1.3820
 6450TIP3   OH219355   4.427   0.777   5.050 -0.0088  0.4995  0.1070
 6450TIP3    H119356   4.452   0.777   4.958 -1.2732 -0.2760 -0.2536
 6450TIP3    H219357   4.507   0.802   5.096  0.8207  0.2533 -1.1459
 6451TIP3   OH219358   4.744   1.320   3.280 -0.1536 -0.8184  0.3149
 6451TIP3    H119359   4.762   1.291   3.370 -1.5572 -2.3442  0.1667
 6451TIP3    H219360   4.830   1.324   3.238  0.6619  1.1325  2.0318
 6452TIP3   OH219361   5.911   3.999   2.124 -0.2052  0.7782  0.3717
 6452TIP3    H119362   5.918   3.980   2.030 -0.2356  0.4866  0.4268
 6452TIP3    H219363   5.824   4.037   2.135  0.0326  1.3981  0.1875
 6453TIP3   OH219364   1.826   0.543   1.186  0.3182 -0.6222 -0.2388
 6453TIP3    H119365   1.767   0.469   1.171  0.8497 -1.1770  0.3180
 6453TIP3    H219366   1.882   0.546   1.108  1.0864 -1.5879  0.2436
 6454TIP3   OH219367   4.858   4.926   5.009  0.2257 -0.3739 -0.1746
 6454TIP3    H119368   4.949   4.921   5.040 -0.0585 -1.5868  0.5658
 6454TIP3    H219369   4.815   4.985   5.071  0.5626  0.4625 -0.7182
 6455TIP3   OH219370   3.593   0.504   0.186 -0.3007 -0.0091  0.2602
 6455TIP3    H119371   3.510   0.458   0.172  0.1553 -1.5835  2.1949
 6455TIP3    H219372   3.660   0.437   0.171  0.4259  0.1367  2.4648
 6456TIP3   OH219373   1.664   1.636   1.696 -0.4331 -0.4056 -0.2861
 6456TIP3    H119374   1.689   1.707   1.754 -1.5524 -0.7577  0.6609
 6456TIP3    H219375   1.721   1.646   1.619  2.3157 -0.9624  1.5414
 6457TIP3   OH219376   1.316   5.642   0.881 -0.7657  0.9948  0.1080
 6457TIP3    H119377   1.317   5.580   0.955  1.3848 -2.5949 -2.5678
 6457TIP3    H219378   1.235   5.620   0.833  0.1376 -0.0932 -0.9946
 6458TIP3   OH219379   1.596   0.688   3.700 -0.0076 -0.9147 -0.0605
 6458TIP3    H119380   1.509   0.703   3.664 -0.1781 -0.1807  0.6181
 6458TIP3    H219381   1.618   0.771   3.743  1.2473 -0.9083 -0.6810
 6459TIP3   OH219382   4.569   5.291   0.192  0.9560  0.0265 -0.5557
 6459TIP3    H119383   4.563   5.370   0.137  2.0700 -0.2876 -1.1433
 6459TIP3    H219384   4.487   5.245   0.175  1.4789 -0.3161 -2.3708
 6460TIP3   OH219385   4.409   1.561   4.080  0.6638 -0.3834 -0.4264
 6460TIP3    H119386   4.450   1.563   4.167  1.7156 -0.2372 -0.9064
 6460TIP3    H219387   4.421   1.649   4.046 -2.6013  0.5317  0.5163
 6461TIP3   OH219388   5.245   0.972   4.810 -0.5112 -0.0444 -0.3238
 6461TIP3    H119389   5.269   1.033   4.739 -0.9348  0.0791 -0.3618
 6461TIP3    H219390   5.263   0.885   4.773 -0.3915  0.0333 -0.4536
 6462TIP3   OH219391   3.744   2.269   0.808  0.0850  0.3453  0.0980
 6462TIP3    H119392   3.826   2.311   0.835  0.7704 -1.1571  0.5007
 6462TIP3    H219393   3.676   2.327   0.841  0.9330  2.6405 -1.8950
 6463TIP3   OH219394   3.535   2.882   2.239  0.9694  0.4023 -0.0323
 6463TIP3    H119395   3.542   2.973   2.269  2.5152  0.3806 -0.2331
 6463TIP3    H219396   3.484   2.888   2.158 -0.9223  0.7800  1.1265
 6464TIP3   OH219397   3.806   2.012   2.100  0.1802 -0.0574 -0.8253
 6464TIP3    H119398   3.728   2.008   2.044 -1.3680  2.1867  0.9973
 6464TIP3    H219399   3.851   1.929   2.084 -1.6881 -0.7468 -3.1718
 6465TIP3   OH219400   5.953   3.006   4.549  0.1782 -0.1685 -0.0876
 6465TIP3    H119401   5.866   3.022   4.512 -0.6835  0.0773  1.9331
 6465TIP3    H219402   5.938   2.943   4.619  1.5099  0.4293  0.7775
 6466TIP3   OH219403   5.527   2.563   1.390  0.1556  0.7186  0.2624
 6466TIP3    H119404   5.612   2.605   1.400  0.5115  0.2894 -0.8755
 6466TIP3    H219405   5.494   2.594   1.306 -0.7584  0.7740  0.6265
 6467TIP3   OH219406   5.968   0.422  -0.000 -0.0174 -0.8279 -0.2075
 6467TIP3    H119407   5.923   0.343  -0.031 -1.4774 -0.3926  0.7366
 6467TIP3    H219408   6.046   0.389   0.044 -0.6934 -1.7608  0.3215
 6468TIP3   OH219409   2.967   3.758   0.769  0.0041  0.2862 -0.1329
 6468TIP3    H119410   2.976   3.677   0.720  1.1365  0.3046  0.0118
 6468TIP3    H219411   2.948   3.824   0.703  1.9811  0.3945 -0.6718
 6469TIP3   OH219412   0.100   0.470   3.883 -0.5522 -0.2651  0.1618
 6469TIP3    H119413   0.114   0.506   3.971 -1.7155 -0.6633  0.5367
 6469TIP3    H219414   0.037   0.399   3.897 -0.8638 -0.2346 -1.0198
 6470TIP3   OH219415   2.573   0.643   0.960 -0.8707  0.0873 -0.1598
 6470TIP3    H119416   2.586   0.642   0.865 -0.6414  0.1657 -0.1305
 6470TIP3    H219417   2.618   0.723   0.988 -1.4629  0.3867 -0.0608
 6471TIP3   OH219418   3.945   0.411   4.948 -0.0648 -0.5957 -0.0286
 6471TIP3    H119419   3.928   0.495   4.991 -1.9280 -0.1187 -1.5923
 6471TIP3    H219420   3.895   0.347   4.999  0.8334 -0.6851  0.7714
 6472TIP3   OH219421   0.892   1.937   0.535 -0.1857  0.5029  0.0092
 6472TIP3    H119422   0.922   2.013   0.486  1.0111  0.4877  0.6672
 6472TIP3    H219423   0.896   1.964   0.627 -0.1075 -0.2187  0.2295
 6473TIP3   OH219424   1.749   2.759   5.074  0.5011 -0.1115 -0.1848
 6473TIP3    H119425   1.804   2.815   5.018  1.0951 -0.6930 -0.1975
 6473TIP3    H219426   1.660   2.772   5.040  0.6732  0.5562 -0.4060
 6474TIP3   OH219427   1.966   0.626   5.136  0.1812 -0.4799 -0.6031
 6474TIP3    H119428   1.919   0.692   5.187  0.6154 -1.0862  0.6169
 6474TIP3    H219429   1.915   0.618   5.055  0.7451  2.1465 -1.3145
 6475TIP3   OH219430   5.088   2.240   3.527 -0.2369 -0.4902  0.1734
 6475TIP3    H119431   5.102   2.294   3.605  1.2195 -1.1738  0.4126
 6475TIP3    H219432   5.020   2.179   3.553  0.1360 -0.6209  0.8699
 6476TIP3   OH219433   1.696   2.976   3.550  0.2538  0.0888  0.5987
 6476TIP3    H119434   1.683   3.071   3.550 -0.4674 -0.0021  0.4054
 6476TIP3    H219435   1.789   2.965   3.567  0.2341  0.8155  1.2468
 6477TIP3   OH219436   4.332   4.840   2.329 -0.4420 -0.0217 -0.6438
 6477TIP3    H119437   4.304   4.908   2.267  0.0300  0.5567 -0.2317
 6477TIP3    H219438   4.415   4.873   2.364 -0.9541 -0.0957  0.6672
 6478TIP3   OH219439   1.991   4.083   4.835 -0.3216  0.1402 -0.4876
 6478TIP3    H119440   2.047   4.008   4.816 -1.0681 -0.1329 -1.7360
 6478TIP3    H219441   2.039   4.134   4.900  0.1465 -1.4816  0.4892
 6479TIP3   OH219442   3.707   4.137   1.767  0.0184 -0.4857  0.2401
 6479TIP3    H119443   3.795   4.158   1.800  1.2962 -0.3368 -2.8522
 6479TIP3    H219444   3.666   4.223   1.753 -0.0807 -0.5095  0.3855
 6480TIP3   OH219445   2.530   0.533   2.351  0.0778  0.0549 -0.1461
 6480TIP3    H119446   2.579   0.489   2.420 -1.3703 -1.2596  0.0929
 6480TIP3    H219447   2.593   0.592   2.310  1.3926 -0.3604  1.2167
 6481TIP3   OH219448   3.558   4.042   1.517  0.1162  0.1140  0.2858
 6481TIP3    H119449   3.464   4.029   1.524 -0.4753  2.1086 -2.1473
 6481TIP3    H219450   3.567   4.134   1.490  2.6619 -0.3147 -0.6001
 6482TIP3   OH219451   0.922   3.158   5.169 -0.2507  0.2356 -0.6483
 6482TIP3    H119452   0.942   3.224   5.102 -1.2923 -0.4157 -1.6238
 6482TIP3    H219453   0.850   3.107   5.133 -0.2926 -0.6677  0.6273
 6483TIP3   OH219454   5.184   5.643   2.966  0.1908  0.4800 -0.7783
 6483TIP3    H119455   5.263   5.593   2.989 -0.5514 -1.1967 -1.6994
 6483TIP3    H219456   5.132   5.643   3.046  1.3652  2.2090  0.0621
 6484TIP3   OH219457   5.946   5.093   0.514  0.0516 -0.5499 -0.0923
 6484TIP3    H119458   5.931   5.179   0.551  2.0162 -1.0233  2.0293
 6484TIP3    H219459   5.977   5.110   0.425 -0.2526  0.8774  0.0594
 6485TIP3   OH219460   1.234   3.104   2.011 -0.2441 -0.3413  0.1811
 6485TIP3    H119461   1.260   3.123   2.101  1.7317 -0.6544 -0.2830
 6485TIP3    H219462   1.316   3.085   1.965 -1.3906 -2.6657 -1.1184
 6486TIP3   OH219463   1.613   0.024   0.546  0.2795 -0.0935  0.1796
 6486TIP3    H119464   1.524   0.051   0.522  0.6199 -0.1591 -1.2737
 6486TIP3    H219465   1.658   0.016   0.462  1.6563 -0.0865  0.9009
 6487TIP3   OH219466   1.846   4.708   0.171 -0.1839  1.0776  0.3798
 6487TIP3    H119467   1.851   4.685   0.078  3.6156  1.5486  0.2829
 6487TIP3    H219468   1.882   4.632   0.216 -1.3779  1.1260  1.4617
 6488TIP3   OH219469   4.589   3.883   2.746 -0.1826 -0.2001  0.1628
 6488TIP3    H119470   4.521   3.884   2.814 -1.3484 -0.5017 -0.9677
 6488TIP3    H219471   4.569   3.959   2.692  1.2014  0.4821  0.5718
 6489TIP3   OH219472   2.525   4.645   1.429 -0.0153  0.3170  0.2072
 6489TIP3    H119473   2.590   4.639   1.499  0.5152  1.3624 -0.1846
 6489TIP3    H219474   2.547   4.573   1.369  1.5763  1.3823 -0.5611
 6490TIP3   OH219475   3.259   5.270   0.913  0.5433  0.1057 -0.5057
 6490TIP3    H119476   3.339   5.227   0.944  0.0930 -0.6048 -0.2970
 6490TIP3    H219477   3.257   5.251   0.819  0.5381 -0.0288 -0.4799
 6491TIP3   OH219478   4.282   3.423   4.535  0.1697  0.2090  0.2530
 6491TIP3    H119479   4.309   3.360   4.467  0.3176 -0.9885  1.3864
 6491TIP3    H219480   4.329   3.504   4.512  1.6448 -0.6942 -0.0772
 6492TIP3   OH219481   0.512   4.879   2.643 -0.2606  0.0024 -0.1932
 6492TIP3    H119482   0.559   4.855   2.563 -0.9542 -2.9924  0.1696
 6492TIP3    H219483   0.432   4.922   2.612 -0.5746 -1.2236 -1.1673
 6493TIP3   OH219484   4.301   3.460   0.968 -0.6545 -0.1289 -0.0432
 6493TIP3    H119485   4.355   3.483   1.043  1.8227  1.5343 -2.1512
 6493TIP3    H219486   4.295   3.540   0.917  0.0460 -1.7383 -2.8950
 6494TIP3   OH219487   3.265   5.308   3.658  0.3452  0.0219 -0.2943
 6494TIP3    H119488   3.190   5.282   3.606 -1.5833  2.1707  1.2383
 6494TIP3    H219489   3.299   5.226   3.694 -1.6322 -0.9598 -0.5599
 6495TIP3   OH219490   0.042   2.497   0.525 -0.2596  0.1223 -0.1994
 6495TIP3    H119491   0.072   2.587   0.533 -1.1172  0.2788  1.5892
 6495TIP3    H219492  -0.051   2.504   0.504 -0.7599 -0.2964  1.7160
 6496TIP3   OH219493   5.089   3.384   1.038  0.2960  0.1865 -0.0237
 6496TIP3    H119494   5.113   3.293   1.057  0.5054 -0.2576 -2.1761
 6496TIP3    H219495   5.125   3.433   1.112  3.1293 -1.1127 -0.3624
 6497TIP3   OH219496   1.318   4.099   4.512 -0.2392 -0.2663  0.0136
 6497TIP3    H119497   1.261   4.084   4.437  0.0771 -1.4562 -0.0186
 6497TIP3    H219498   1.311   4.018   4.563  0.5807 -0.0018  0.5606
 6498TIP3   OH219499   3.355   2.089   0.876 -0.0354 -0.0236 -0.2555
 6498TIP3    H119500   3.324   2.088   0.967 -0.2148  0.6974 -0.2989
 6498TIP3    H219501   3.275   2.096   0.824  0.1471  1.6056 -0.3786
 6499TIP3   OH219502   1.498   3.655   0.907  0.6377  0.0588 -0.0027
 6499TIP3    H119503   1.414   3.617   0.931 -0.4646  1.3615 -1.5764
 6499TIP3    H219504   1.555   3.579   0.891  0.1508 -0.8292  2.1962
 6500TIP3   OH219505   0.013   1.598   0.958  0.1450 -0.2246  0.2878
 6500TIP3    H119506   0.060   1.619   1.039  0.0684  1.4200 -0.0524
 6500TIP3    H219507   0.010   1.502   0.956  1.1470 -0.3181  1.6461
 6501TIP3   OH219508   4.505   5.279   1.813 -0.0820  0.2772  0.3383
 6501TIP3    H119509   4.480   5.284   1.905 -2.0250  0.7391 -0.1773
 6501TIP3    H219510   4.441   5.219   1.774  0.5580  0.2884 -0.7700
 6502TIP3   OH219511   1.549   2.488   2.938  0.5692 -0.1022  0.6780
 6502TIP3    H119512   1.478   2.542   2.972  1.8428  1.0555  1.6121
 6502TIP3    H219513   1.620   2.549   2.920  1.3611 -1.2266 -0.1927
 6503TIP3   OH219514   3.270   4.503   5.063 -0.1077  0.2238  0.5054
 6503TIP3    H119515   3.188   4.513   5.113 -2.3436 -0.4420 -2.7211
 6503TIP3    H219516   3.251   4.544   4.979  2.4396 -1.2024 -0.8631
 6504TIP3   OH219517   5.439   4.323   3.007  0.3144  0.7243  0.6432
 6504TIP3    H119518   5.372   4.342   3.073 -1.3089  1.1491 -1.0635
 6504TIP3    H219519   5.514   4.290   3.058 -1.2053  0.1124  2.6006
 6505TIP3   OH219520   4.317   3.874   1.396 -0.2931 -0.8504  0.5196
 6505TIP3    H119521   4.364   3.862   1.313 -0.4432  2.0210 -0.0903
 6505TIP3    H219522   4.226   3.851   1.375 -0.1591 -1.0259  0.1211
 6506TIP3   OH219523   3.617   4.363   2.103 -0.4081 -0.3014 -0.5854
 6506TIP3    H119524   3.641   4.426   2.171  0.3666  1.2953 -2.2294
 6506TIP3    H219525   3.618   4.414   2.022 -0.2274 -2.3398 -1.9493
 6507TIP3   OH219526   3.262   4.548   1.724 -0.1063  0.0511 -0.3776
 6507TIP3    H119527   3.200   4.494   1.674  0.4537 -2.0252  1.0175
 6507TIP3    H219528   3.265   4.631   1.677  1.1809 -2.0538 -4.4237
 6508TIP3   OH219529   3.982   4.944   2.999  0.4111  0.1097 -0.1822
 6508TIP3    H119530   4.051   4.929   3.064  0.7599 -1.4664 -0.8665
 6508TIP3    H219531   4.029   4.946   2.915 -0.2910 -0.2558 -0.5901
 6509TIP3   OH219532   4.246   1.936   0.714 -0.4894 -0.5214 -0.2105
 6509TIP3    H119533   4.327   1.929   0.664 -1.1103 -2.4838 -1.0347
 6509TIP3    H219534   4.177   1.927   0.649 -1.3631 -0.1113  0.6370
 6510TIP3   OH219535   0.803   5.376   3.348  0.2697  0.3771 -0.3898
 6510TIP3    H119536   0.736   5.443   3.333  0.8311  1.5332  1.7598
 6510TIP3    H219537   0.886   5.420   3.328  0.4830 -0.7701 -2.2001
 6511TIP3   OH219538   5.259   0.697   2.295 -0.4764  0.7439 -0.3302
 6511TIP3    H119539   5.234   0.783   2.330 -0.4443  1.0711 -1.0897
 6511TIP3    H219540   5.185   0.670   2.242 -0.9400 -0.2095  0.7671
 6512TIP3   OH219541   1.401   5.728   5.028 -0.2350  0.0711 -0.4012
 6512TIP3    H119542   1.404   5.637   5.001  1.1678  0.4742 -1.8110
 6512TIP3    H219543   1.369   5.726   5.118 -0.4019 -1.7832 -0.4688
 6513TIP3   OH219544   5.305   1.489   0.064  0.4141 -0.1827  0.3063
 6513TIP3    H119545   5.368   1.551   0.025  0.4083  0.4084  1.2179
 6513TIP3    H219546   5.333   1.480   0.154  0.0474 -1.0582  0.3379
 6514TIP3   OH219547   1.812   2.222   5.070  0.4022  0.1102 -0.1598
 6514TIP3    H119548   1.839   2.275   5.145  0.5420  0.4087 -0.4202
 6514TIP3    H219549   1.808   2.283   4.997  0.3625 -0.1980 -0.4185
 6515TIP3   OH219550   5.014   0.031   3.905  0.5788 -0.4423  0.2313
 6515TIP3    H119551   5.100   0.000   3.876  1.1617  1.7239 -0.4794
 6515TIP3    H219552   5.007   0.120   3.872 -0.8820  0.3601  2.4367
 6516TIP3   OH219553   4.299   2.911   3.399 -0.0230 -0.2443 -0.3242
 6516TIP3    H119554   4.354   2.937   3.325  0.7772 -2.2725 -0.5162
 6516TIP3    H219555   4.217   2.959   3.386  0.5133  0.3161 -1.8752
 6517TIP3   OH219556   2.268   5.301   2.072 -0.2901 -0.4544  0.3279
 6517TIP3    H119557   2.192   5.284   2.016  1.0304 -0.7486 -1.5060
 6517TIP3    H219558   2.234   5.351   2.146 -1.9473  1.1926 -1.4341
 6518TIP3   OH219559   4.578   3.734   4.038 -0.0074 -0.0301 -0.2808
 6518TIP3    H119560   4.563   3.667   4.104  0.9401  0.3925  0.3974
 6518TIP3    H219561   4.574   3.817   4.087  0.2374  0.3138 -0.8331
 6519TIP3   OH219562   2.926   1.041   1.842 -0.8029 -0.1410  0.3036
 6519TIP3    H119563   2.931   1.133   1.865 -1.3850  0.1882 -0.8117
 6519TIP3    H219564   2.889   1.040   1.754 -0.8355 -1.4411  0.3086
 6520TIP3   OH219565   4.831   2.696   2.823  0.8269  0.3454  0.3073
 6520TIP3    H119566   4.924   2.673   2.822  1.1759  1.5090  1.7504
 6520TIP3    H219567   4.787   2.616   2.856  1.1210 -0.6430 -1.5837
 6521TIP3   OH219568   1.076   4.830   1.890  0.2843  0.8881  0.3262
 6521TIP3    H119569   0.994   4.879   1.888  0.0282  0.4597 -0.4134
 6521TIP3    H219570   1.054   4.748   1.933  0.0646  0.3623 -0.7422
 6522TIP3   OH219571   4.305   2.407   2.074  0.1063 -0.3446 -0.0468
 6522TIP3    H119572   4.233   2.464   2.100  1.0303  0.6597  0.4039
 6522TIP3    H219573   4.333   2.366   2.156  1.1401  0.5927  0.0937
 6523TIP3   OH219574   1.535   1.258   1.071  0.0479 -0.1519  0.1507
 6523TIP3    H119575   1.543   1.316   0.995  2.0361 -0.7682 -0.1472
 6523TIP3    H219576   1.593   1.185   1.052  0.2201 -0.5543  2.0712
 6524TIP3   OH219577   4.851   2.805   1.842  0.3227  0.1835 -0.4034
 6524TIP3    H119578   4.781   2.847   1.891  0.7108  1.6724 -1.0474
 6524TIP3    H219579   4.927   2.810   1.900  0.2686  0.0004 -0.3173
 6525TIP3   OH219580   0.244   1.853   0.535 -0.2009 -0.1599  0.2462
 6525TIP3    H119581   0.232   1.821   0.624  1.5380 -0.6521  0.3361
 6525TIP3    H219582   0.312   1.796   0.497  1.2824  1.8792 -0.3754
 6526TIP3   OH219583   0.728   1.825   3.755 -0.1077 -0.0225 -0.3105
 6526TIP3    H119584   0.683   1.770   3.819 -1.0858  0.6839 -0.3716
 6526TIP3    H219585   0.732   1.911   3.796  0.5463  0.0928 -0.6106
 6527TIP3   OH219586   5.568   2.340   0.597 -0.4158 -0.3394 -0.2253
 6527TIP3    H119587   5.642   2.289   0.630 -0.1258  0.7749  0.9756
 6527TIP3    H219588   5.608   2.422   0.567 -1.2259  0.8000  1.6004
 6528TIP3   OH219589   5.768   5.263   4.955  0.1359  0.4452  0.1166
 6528TIP3    H119590   5.699   5.197   4.963  0.5835 -0.1500 -0.7090
 6528TIP3    H219591   5.737   5.337   5.007 -1.8698  0.8099 -1.4817
 6529TIP3   OH219592   2.770   0.731   4.199 -0.6594  0.2200  0.2218
 6529TIP3    H119593   2.741   0.729   4.291  0.0493  1.2426  0.4819
 6529TIP3    H219594   2.864   0.747   4.204 -0.3459 -1.1909 -0.6667
 6530TIP3   OH219595   4.719   2.962   2.027  0.0224 -0.1605 -0.6712
 6530TIP3    H119596   4.635   3.006   2.032 -0.4573 -1.0954 -0.0734
 6530TIP3    H219597   4.758   2.976   2.114 -0.2550 -1.1062 -0.3809
 6531TIP3   OH219598   5.121   2.635   0.129  0.3608 -0.7942 -0.0817
 6531TIP3    H119599   5.179   2.639   0.053 -0.2473 -2.0680 -0.6490
 6531TIP3    H219600   5.035   2.613   0.092  0.0896 -1.6043  0.9822
 6532TIP3   OH219601   3.760   2.707   2.087 -0.1669 -1.2035 -0.2389
 6532TIP3    H119602   3.748   2.619   2.123 -2.1237 -0.0153  2.3943
 6532TIP3    H219603   3.680   2.754   2.111  1.7193  1.9238  0.5716
 6533TIP3   OH219604   0.256   4.807   1.992  0.1384  0.4592 -0.4778
 6533TIP3    H119605   0.343   4.821   2.031 -1.0311  3.0025  1.5817
 6533TIP3    H219606   0.217   4.737   2.044  0.4348  0.3236 -0.4367
 6534TIP3   OH219607   5.202   4.905   3.314  0.4376  0.4310 -0.1664
 6534TIP3    H119608   5.268   4.926   3.380 -1.4700  0.9300  1.6881
 6534TIP3    H219609   5.191   4.810   3.322  1.6465  0.1748 -1.2429
 6535TIP3   OH219610   2.667   0.995   0.217 -0.2837 -0.0146 -0.5118
 6535TIP3    H119611   2.588   1.046   0.238 -0.8841 -1.0171 -0.2483
 6535TIP3    H219612   2.641   0.905   0.234  1.1916 -0.2931  0.4107
 6536TIP3   OH219613   6.223   0.018   3.677  0.4613 -0.4721 -0.0385
 6536TIP3    H119614   6.283   0.046   3.746  0.0688  1.5795 -0.4522
 6536TIP3    H219615   6.163  -0.043   3.719  1.5386 -0.9092  0.8949
 6537TIP3   OH219616   5.947   3.417   4.707  0.2641  0.3732  0.0545
 6537TIP3    H119617   5.894   3.366   4.645  3.3019 -1.6525 -1.1127
 6537TIP3    H219618   5.921   3.383   4.793 -0.5152 -0.3691 -0.4499
 6538TIP3   OH219619   1.582   3.978   0.266 -0.0166 -0.0921  0.3374
 6538TIP3    H119620   1.577   3.889   0.231 -0.5400  0.1965 -0.3588
 6538TIP3    H219621   1.580   4.034   0.188  2.2235  0.5030  0.6417
 6539TIP3   OH219622   3.267   4.809   5.034 -0.2223 -0.3913 -0.1736
 6539TIP3    H119623   3.215   4.845   4.963 -1.0831  0.6547  0.9501
 6539TIP3    H219624   3.209   4.745   5.076 -0.4573  0.3898  0.7474
 6540TIP3   OH219625   2.582   0.496   1.739 -0.0596  0.4548 -0.4091
 6540TIP3    H119626   2.576   0.562   1.670 -0.4708  0.8751  0.0212
 6540TIP3    H219627   2.670   0.509   1.776 -0.8299  2.1344  1.0015
 6541TIP3   OH219628   4.884   3.605   2.179 -0.1407 -0.5245 -0.2640
 6541TIP3    H119629   4.832   3.574   2.105  1.5032 -0.4690 -1.5091
 6541TIP3    H219630   4.847   3.561   2.255 -1.5534 -0.9873 -1.1906
 6542TIP3   OH219631   3.435   3.111   2.580  0.0378 -0.7712 -0.2803
 6542TIP3    H119632   3.350   3.143   2.551  0.0805 -1.8571 -1.7698
 6542TIP3    H219633   3.415   3.037   2.637 -0.0190 -0.7223 -0.2372
 6543TIP3   OH219634   1.428   4.231   4.763  0.0251  0.0904  0.5974
 6543TIP3    H119635   1.400   4.144   4.790 -3.1393  0.7888 -0.0149
 6543TIP3    H219636   1.503   4.251   4.819  0.1948 -2.6028  1.4359
 6544TIP3   OH219637   1.316   5.407   3.838  0.2815 -0.1710  0.8965
 6544TIP3    H119638   1.287   5.337   3.780 -0.7308 -1.2073  2.5931
 6544TIP3    H219639   1.408   5.421   3.813 -0.5011  0.5051 -1.9473
 6545TIP3   OH219640   6.306   3.166   0.326  0.3761 -0.5725  0.4572
 6545TIP3    H119641   6.271   3.081   0.355  0.2086 -0.7791 -0.3206
 6545TIP3    H219642   6.231   3.225   0.329  0.1447 -0.8034 -0.3576
 6546TIP3   OH219643   2.073   4.557   4.959 -0.0453 -0.3372  0.0516
 6546TIP3    H119644   1.987   4.543   4.999 -0.2043  0.2221 -0.0885
 6546TIP3    H219645   2.119   4.615   5.019  0.2006 -0.5453  0.0708
 6547TIP3   OH219646   4.186   3.228   3.568 -0.1977  0.1616  0.3191
 6547TIP3    H119647   4.255   3.242   3.632  0.1580  0.8397 -0.1995
 6547TIP3    H219648   4.160   3.136   3.580  2.0379 -0.6661 -0.6911
 6548TIP3   OH219649   2.071   1.967   0.129  0.6822  0.0215 -0.1693
 6548TIP3    H119650   2.159   1.943   0.102  1.8135  2.3888  1.0762
 6548TIP3    H219651   2.043   1.896   0.187  2.2580 -0.2270  0.3223
 6549TIP3   OH219652   5.278   5.796   4.109 -0.0289 -0.1809  0.0132
 6549TIP3    H119653   5.280   5.745   4.028 -0.8830 -1.2132  0.6287
 6549TIP3    H219654   5.274   5.730   4.179  0.0346  0.7100  0.8730
 6550TIP3   OH219655   4.115   0.266   4.301  0.0184  0.0837 -0.1198
 6550TIP3    H119656   4.134   0.277   4.208  1.2689  1.0359  0.2267
 6550TIP3    H219657   4.057   0.339   4.322  1.4184  1.1250  0.2803
 6551TIP3   OH219658   2.613   2.287   5.088 -0.0102 -0.2016 -0.5406
 6551TIP3    H119659   2.575   2.367   5.125 -0.9308  0.4704 -2.7812
 6551TIP3    H219660   2.705   2.290   5.114  0.3463  2.4053 -1.7712
 6552TIP3   OH219661   5.140   5.849   1.302  0.0201  0.1053 -0.2287
 6552TIP3    H119662   5.183   5.934   1.299  0.3440 -0.0207  0.5747
 6552TIP3    H219663   5.047   5.869   1.312 -0.1689  0.3858 -2.2667
 6553TIP3   OH219664   1.645   2.830   2.546 -0.1921 -0.4084  0.2316
 6553TIP3    H119665   1.575   2.889   2.520  1.7304  1.7164 -0.4838
 6553TIP3    H219666   1.601   2.750   2.574 -2.7571  0.0715 -2.0976
 6554TIP3   OH219667   5.933   3.238   1.008  0.1215 -0.0885  0.1977
 6554TIP3    H119668   5.961   3.149   0.985 -0.5597 -1.1776  3.0447
 6554TIP3    H219669   5.840   3.228   1.030  0.1364  1.2138  0.9653
 6555TIP3   OH219670   6.135   0.836   4.366 -0.1523  0.2680 -0.7608
 6555TIP3    H119671   6.111   0.773   4.298 -0.8282  1.5546 -1.7500
 6555TIP3    H219672   6.230   0.833   4.369 -0.1969 -1.4223 -0.1735
 6556TIP3   OH219673   4.195   0.620   4.617 -0.3922 -0.2670 -0.5120
 6556TIP3    H119674   4.194   0.570   4.699 -3.3567  0.6795  0.1358
 6556TIP3    H219675   4.256   0.572   4.560  0.8228 -1.6223  1.7943
 6557TIP3   OH219676   2.243   3.195   3.992  0.5569 -0.3830  0.2882
 6557TIP3    H119677   2.247   3.246   3.911 -1.7640 -0.8828 -0.2435
 6557TIP3    H219678   2.199   3.253   4.054 -0.4501 -1.0605  0.2274
 6558TIP3   OH219679   1.142   1.673   4.506 -0.7649 -0.1232  0.5471
 6558TIP3    H119680   1.062   1.664   4.455 -0.5231 -0.3420  0.1983
 6558TIP3    H219681   1.211   1.644   4.447 -0.2183  1.6965  0.2284
 6559TIP3   OH219682   0.879   0.566   0.646 -0.1116  0.2010 -0.4682
 6559TIP3    H119683   0.854   0.475   0.660  1.2071 -0.2746 -1.0164
 6559TIP3    H219684   0.823   0.616   0.705 -0.7730 -0.9724 -0.0723
 6560TIP3   OH219685   2.969   2.644   0.795 -0.3101 -0.1797  0.1695
 6560TIP3    H119686   3.035   2.597   0.847  0.6397 -0.1234 -0.9422
 6560TIP3    H219687   2.977   2.607   0.707 -0.6544  0.9358 -0.3467
 6561TIP3   OH219688   2.800   0.702   1.581  0.3825  0.0695 -0.2663
 6561TIP3    H119689   2.838   0.659   1.504  1.0693 -1.5744  0.9252
 6561TIP3    H219690   2.828   0.648   1.655  0.0015  1.7630  1.1925
 6562TIP3   OH219691   2.160   1.316   0.953  0.1483  0.4442  0.0792
 6562TIP3    H119692   2.111   1.263   1.016  0.8419 -0.6550 -0.2855
 6562TIP3    H219693   2.101   1.325   0.878  0.1399 -0.0552  0.0277
 6563TIP3   OH219694   4.144   1.817   3.028 -0.1771 -0.3866 -0.0704
 6563TIP3    H119695   4.059   1.837   2.989 -0.3963  0.2203  0.6936
 6563TIP3    H219696   4.207   1.833   2.957 -0.4425  1.9773  0.1393
 6564TIP3   OH219697   0.110   2.277   5.156 -0.4491  0.3102  0.4735
 6564TIP3    H119698   0.038   2.329   5.121 -1.1407 -0.7516  0.2583
 6564TIP3    H219699   0.072   2.190   5.170  1.1473 -0.7160 -1.0856
 6565TIP3   OH219700   5.243   5.031   2.810 -0.3252 -0.7658  0.1061
 6565TIP3    H119701   5.172   4.983   2.854  0.9831 -0.5633  2.6038
 6565TIP3    H219702   5.304   4.964   2.782 -0.5420 -0.8044 -0.2890
 6566TIP3   OH219703   4.543   4.209   3.013  0.0833  0.3977 -0.6938
 6566TIP3    H119704   4.597   4.285   3.034  0.2289  0.5318 -1.4973
 6566TIP3    H219705   4.550   4.200   2.918  1.8533 -1.9795 -0.4194
 6567TIP3   OH219706   1.075   2.899   2.243 -0.0188  0.1236 -0.0107
 6567TIP3    H119707   0.991   2.905   2.198 -0.3542 -0.2913  0.5430
 6567TIP3    H219708   1.089   2.805   2.255  0.5188  0.1941 -0.0939
 6568TIP3   OH219709   0.889   0.184   1.810  0.7095  0.4043  0.0965
 6568TIP3    H119710   0.966   0.197   1.865  1.4182 -0.5985 -0.5964
 6568TIP3    H219711   0.908   0.234   1.730  0.3750  0.6333  0.1600
 6569TIP3   OH219712   3.700   3.323   2.359 -0.4918  0.1132  0.1306
 6569TIP3    H119713   3.751   3.403   2.367 -0.5402  0.2419 -0.7735
 6569TIP3    H219714   3.724   3.271   2.436  1.6040 -0.1598 -0.6318
 6570TIP3   OH219715   5.559   1.451   2.663 -0.0554  0.1755  0.1999
 6570TIP3    H119716   5.632   1.481   2.608  0.3751  1.0800  1.2343
 6570TIP3    H219717   5.508   1.393   2.606  2.0863 -1.3990 -0.2326
 6571TIP3   OH219718   2.587   0.970   2.963 -0.3098  0.1422 -0.1954
 6571TIP3    H119719   2.512   0.996   2.910 -0.5048  0.9321  0.4324
 6571TIP3    H219720   2.583   0.875   2.966  0.4343 -0.0177 -2.6110
 6572TIP3   OH219721   2.120   4.633   3.111  0.2932  0.4115  0.1453
 6572TIP3    H119722   2.052   4.689   3.149 -0.2488  0.7572 -1.2549
 6572TIP3    H219723   2.145   4.678   3.031 -0.3734 -1.4622 -1.2022
 6573TIP3   OH219724   0.945   4.849   4.860 -0.2483 -0.3284 -0.0886
 6573TIP3    H119725   1.018   4.787   4.862  1.1156  1.1653  2.7274
 6573TIP3    H219726   0.940   4.879   4.770  1.8598 -1.3559 -0.5920
 6574TIP3   OH219727   3.718   3.929   1.995 -0.7926  0.2479  0.3215
 6574TIP3    H119728   3.659   3.998   2.028  0.3849  0.0486  3.1869
 6574TIP3    H219729   3.799   3.976   1.974 -0.2325 -0.1176  1.5794
 6575TIP3   OH219730   0.440   3.301   0.386 -0.8080  0.4495 -0.4006
 6575TIP3    H119731   0.409   3.384   0.421 -0.9533  0.3960 -0.4033
 6575TIP3    H219732   0.378   3.236   0.420 -0.3384  0.2614  0.1139
 6576TIP3   OH219733   1.283   0.744   1.604  0.2320  0.2940  0.2615
 6576TIP3    H119734   1.320   0.722   1.518  1.4477  1.5808  0.4184
 6576TIP3    H219735   1.355   0.731   1.665 -0.2144  0.7442  0.8928
 6577TIP3   OH219736   5.518   4.327   4.090  0.7257  0.0293 -0.0843
 6577TIP3    H119737   5.443   4.374   4.128  0.4081 -0.4044 -0.1764
 6577TIP3    H219738   5.590   4.345   4.151  0.8560  1.4163 -0.5980
 6578TIP3   OH219739   0.719   4.272   4.995  0.5207  0.1629 -0.6855
 6578TIP3    H119740   0.679   4.287   4.909 -0.0508  1.0300 -0.2789
 6578TIP3    H219741   0.739   4.360   5.027 -1.7819  0.0714  1.2437
 6579TIP3   OH219742   5.126   2.213   5.043 -0.1408 -0.6836 -0.0552
 6579TIP3    H119743   5.151   2.305   5.050  0.4750 -0.7080 -1.6938
 6579TIP3    H219744   5.030   2.214   5.037 -0.0908 -0.1005 -0.7644
 6580TIP3   OH219745   3.966   3.182   2.307 -0.5042  0.1435 -0.2000
 6580TIP3    H119746   3.955   3.242   2.380 -2.7921 -2.4903  1.7941
 6580TIP3    H219747   4.060   3.185   2.288  0.0217  1.6155  2.2134
 6581TIP3   OH219748   5.675   0.883   1.678  0.8643  0.2030 -0.1499
 6581TIP3    H119749   5.748   0.824   1.701  0.3417  0.1954  1.6106
 6581TIP3    H219750   5.598   0.826   1.677  0.3616  0.8146  1.5069
 6582TIP3   OH219751   0.195   0.759   1.095  0.3057  0.8406  0.0937
 6582TIP3    H119752   0.157   0.827   1.152  0.9823  1.6813 -0.4363
 6582TIP3    H219753   0.229   0.807   1.020 -2.8405 -0.4626 -2.3545
 6583TIP3   OH219754   4.963   1.001   0.801 -0.0574 -0.1277 -0.4023
 6583TIP3    H119755   5.000   1.089   0.796 -1.0825  0.3013 -0.9935
 6583TIP3    H219756   5.032   0.943   0.768  1.7066  0.0548  2.6966
 6584TIP3   OH219757   5.266   3.132   3.494 -0.7050  0.1612 -0.4346
 6584TIP3    H119758   5.173   3.153   3.496 -0.9710 -0.7275 -1.8950
 6584TIP3    H219759   5.274   3.052   3.544 -0.8109 -0.0106 -0.6886
 6585TIP3   OH219760   0.400   3.059   0.200  0.1390 -0.2981  0.4469
 6585TIP3    H119761   0.342   3.012   0.139 -1.0192  0.4515  0.9451
 6585TIP3    H219762   0.356   3.054   0.284  0.5578  0.7129  0.7434
 6586TIP3   OH219763   2.151   2.691   0.420 -0.2111 -0.1762  0.3493
 6586TIP3    H119764   2.064   2.669   0.455  0.3234 -1.6500  0.8319
 6586TIP3    H219765   2.135   2.711   0.328 -1.0727 -0.4109  0.4341
 6587TIP3   OH219766   4.970   3.385   4.384  0.1470 -0.5408  0.4167
 6587TIP3    H119767   5.041   3.409   4.443 -0.9533 -0.3682  1.7199
 6587TIP3    H219768   4.998   3.415   4.298  1.3892  0.0272  1.0036
 6588TIP3   OH219769   1.006   3.299   2.690  0.0786 -0.1714 -0.0141
 6588TIP3    H119770   1.026   3.388   2.720 -0.0452  0.4189 -1.5794
 6588TIP3    H219771   1.007   3.246   2.769  0.1632  1.2262  0.9529
 6589TIP3   OH219772   3.752   2.293   4.760 -0.1290 -0.0042 -0.0588
 6589TIP3    H119773   3.778   2.214   4.807 -0.5269  0.1832  0.5005
 6589TIP3    H219774   3.811   2.298   4.685  1.7943  0.6785  1.4075
 6590TIP3   OH219775   2.291   5.040   0.666 -0.2621  0.2259 -0.4268
 6590TIP3    H119776   2.293   4.999   0.579  0.4204 -0.1775 -0.2304
 6590TIP3    H219777   2.380   5.076   0.677  0.3281 -1.5586  0.9527
 6591TIP3   OH219778   3.818   5.511   2.227  0.0715  0.2049  0.4032
 6591TIP3    H119779   3.795   5.422   2.200 -1.0943  0.5368  0.2077
 6591TIP3    H219780   3.877   5.499   2.301 -2.7727 -0.8297  2.7176
 6592TIP3   OH219781   4.578   1.810   4.386 -0.5465  0.0198  0.3091
 6592TIP3    H119782   4.597   1.719   4.362  0.9176  0.7624 -1.5542
 6592TIP3    H219783   4.522   1.803   4.464  2.0879 -2.4600  2.1856
 6593TIP3   OH219784   3.651   0.095   4.736  0.2677 -0.3898  0.0641
 6593TIP3    H119785   3.670   0.189   4.724  0.3276 -0.2089  1.4244
 6593TIP3    H219786   3.703   0.052   4.668  0.2154  0.5580 -0.6035
 6594TIP3   OH219787   2.784   2.838   0.817 -0.6923 -0.1081 -0.3536
 6594TIP3    H119788   2.843   2.904   0.782 -1.8028  2.2563  1.9108
 6594TIP3    H219789   2.838   2.759   0.825  1.6691  1.4384 -0.0281
 6595TIP3   OH219790   5.431   0.732   3.732 -0.3644  0.0128 -0.4803
 6595TIP3    H119791   5.385   0.794   3.675 -0.0989  2.2181  1.5419
 6595TIP3    H219792   5.364   0.698   3.791 -0.0014  0.8024  0.4164
 6596TIP3   OH219793   4.364   2.929   4.128  0.1666  0.1313  0.1034
 6596TIP3    H119794   4.366   2.848   4.179 -1.1479 -0.3193 -0.5329
 6596TIP3    H219795   4.310   2.989   4.179  0.7487  0.4706  0.3400
 6597TIP3   OH219796   4.562   4.136   3.400 -0.3344  0.1046 -0.0417
 6597TIP3    H119797   4.528   4.219   3.434 -0.0467  0.3195 -0.2667
 6597TIP3    H219798   4.600   4.092   3.476  1.6863  1.2628 -0.3191
 6598TIP3   OH219799   1.917   3.691   3.157 -0.3166 -0.2730 -0.4171
 6598TIP3    H119800   1.990   3.724   3.210  0.9770 -0.7789 -1.8125
 6598TIP3    H219801   1.842   3.693   3.216  1.0566 -0.8212  1.4382
 6599TIP3   OH219802   0.099   0.034   1.454 -0.2667  0.0331 -0.3181
 6599TIP3    H119803   0.098   0.130   1.457  0.5864  0.1549 -2.4438
 6599TIP3    H219804   0.011   0.010   1.424  0.2961  0.3459 -2.3808
 6600TIP3   OH219805   4.028   1.471   0.395  0.7276  0.0978 -0.0296
 6600TIP3    H119806   3.957   1.535   0.405  1.5036  1.1722 -1.1203
 6600TIP3    H219807   4.041   1.437   0.483  0.1813  1.3396  0.5662
 6601TIP3   OH219808   0.017   1.956   2.767 -0.2092 -0.4118  0.2465
 6601TIP3    H119809   0.053   1.882   2.816 -1.5684 -0.7682  0.7770
 6601TIP3    H219810  -0.010   1.918   2.684 -1.2455 -0.6219  0.6604
 6602TIP3   OH219811   4.692   0.748   2.960  0.4401  0.7217  0.3344
 6602TIP3    H119812   4.635   0.806   3.009  2.1268  4.3459 -1.6217
 6602TIP3    H219813   4.665   0.758   2.869  0.8456 -1.6719 -0.1364
 6603TIP3   OH219814   0.085   4.878   2.791  0.5137  0.3376 -0.9872
 6603TIP3    H119815   0.077   4.944   2.860 -1.8986 -0.7560 -0.0992
 6603TIP3    H219816   0.163   4.828   2.815  0.1200  0.4229  0.5526
 6604TIP3   OH219817   2.931   0.946   0.375  0.3276  0.2831 -0.1056
 6604TIP3    H119818   2.937   0.867   0.428 -0.7512  0.3357  0.1059
 6604TIP3    H219819   2.960   1.016   0.433  1.5921  0.0322 -0.3885
 6605TIP3   OH219820   0.295   4.267   4.020 -0.0474 -0.3574 -0.5386
 6605TIP3    H119821   0.249   4.349   4.003  1.4309  0.3972 -1.1319
 6605TIP3    H219822   0.346   4.251   3.940  0.9923 -0.9400  0.2036
 6606TIP3   OH219823   2.689   4.000   3.275  0.3942  0.4477 -0.2482
 6606TIP3    H119824   2.639   3.920   3.259 -0.6911  1.0204  0.1357
 6606TIP3    H219825   2.624   4.070   3.266  1.4090  1.3262 -0.9916
 6607TIP3   OH219826   0.417   5.449   1.711  0.1877  0.1972  0.2269
 6607TIP3    H119827   0.357   5.492   1.650  0.0513  0.3785  0.4875
 6607TIP3    H219828   0.369   5.444   1.793 -0.2311 -1.4625 -0.0732
 6608TIP3   OH219829   0.861   5.504   1.212 -0.5557 -0.6241 -0.3004
 6608TIP3    H119830   0.841   5.558   1.288 -1.0032 -0.0699 -0.7942
 6608TIP3    H219831   0.791   5.439   1.209 -0.7230 -0.4427 -0.4152
 6609TIP3   OH219832   4.122   4.388   0.658  0.0586  0.1033 -0.3821
 6609TIP3    H119833   4.087   4.423   0.576 -1.5114 -0.2048  0.1148
 6609TIP3    H219834   4.119   4.293   0.647  2.5815  0.0172 -1.0244
 6610TIP3   OH219835   3.866   0.344   2.628  0.0317  0.0837  0.3038
 6610TIP3    H119836   3.902   0.411   2.686  1.3009 -0.0578 -0.2687
 6610TIP3    H219837   3.903   0.365   2.542 -0.7259 -0.4938 -0.1710
 6611TIP3   OH219838   3.104   1.214   5.046  0.2754 -0.6832 -0.3964
 6611TIP3    H119839   3.114   1.201   5.140  1.3278  1.9698 -0.0473
 6611TIP3    H219840   3.181   1.265   5.020 -0.6466 -0.2068 -2.4367
 6612TIP3   OH219841   1.057   1.576   2.065  0.2533 -0.2516  0.2317
 6612TIP3    H119842   1.057   1.488   2.103  0.9626  0.1487  1.2066
 6612TIP3    H219843   1.123   1.571   1.995 -1.2624 -1.0715 -1.2060
 6613TIP3   OH219844   5.167   0.877   0.633  0.1611 -0.2025 -0.2130
 6613TIP3    H119845   5.212   0.872   0.717 -0.7456  0.1098  0.3089
 6613TIP3    H219846   5.217   0.940   0.582 -0.1512  0.7938  0.6684
 6614TIP3   OH219847   5.080   5.519   3.239 -0.0414  0.2146  0.0370
 6614TIP3    H119848   5.105   5.458   3.170  0.8088 -0.5123  0.9605
 6614TIP3    H219849   5.018   5.470   3.293 -1.0067  0.9086 -0.3942
 6615TIP3   OH219850   4.677   4.623   0.184 -0.3411  0.2970 -0.0908
 6615TIP3    H119851   4.617   4.606   0.112 -0.1160  0.8309 -0.4156
 6615TIP3    H219852   4.759   4.647   0.141  0.2355 -0.8260  0.3417
 6616TIP3   OH219853   4.283   1.375   3.677 -0.2887 -0.0682  0.1035
 6616TIP3    H119854   4.230   1.418   3.610 -0.5700  1.3287  1.1804
 6616TIP3    H219855   4.257   1.417   3.759  0.1578 -1.6166  1.0943
 6617TIP3   OH219856   2.968   2.417   2.283  0.3735 -0.3211 -0.6689
 6617TIP3    H119857   3.060   2.393   2.295  0.1470 -0.7205  0.3799
 6617TIP3    H219858   2.971   2.499   2.234  1.2531 -0.8493 -1.5533
 6618TIP3   OH219859   0.842   2.750   2.288  0.5338  0.1346 -0.0537
 6618TIP3    H119860   0.853   2.747   2.192  0.1723 -2.5488 -0.0872
 6618TIP3    H219861   0.909   2.690   2.321 -1.2936 -1.3786  1.0983
 6619TIP3   OH219862   0.446   5.209   0.713  0.1717 -0.4282 -0.0113
 6619TIP3    H119863   0.524   5.264   0.712  0.4722 -0.8369  0.3605
 6619TIP3    H219864   0.378   5.265   0.749  0.6754 -0.5410  1.1703
 6620TIP3   OH219865   0.692   2.331   1.344  0.0702  0.3044  0.4836
 6620TIP3    H119866   0.712   2.417   1.381 -1.0630  1.1589 -0.7866
 6620TIP3    H219867   0.596   2.331   1.336  0.0142 -1.2582  0.8531
 6621TIP3   OH219868   0.290   5.004   3.371 -0.1219 -0.3235 -0.2414
 6621TIP3    H119869   0.318   5.021   3.461 -2.3660  0.0591  0.4337
 6621TIP3    H219870   0.357   5.047   3.317  0.5282  0.6517  1.2663
 6622TIP3   OH219871   6.091   3.916   1.350 -0.2832 -0.2965  0.4738
 6622TIP3    H119872   6.136   3.891   1.430  0.4603 -1.6869 -0.3571
 6622TIP3    H219873   6.130   4.000   1.326  1.4815 -1.1828  0.0994
 6623TIP3   OH219874   0.131   2.480   4.096  0.0445  0.0289  0.2227
 6623TIP3    H119875   0.153   2.393   4.061  0.5886 -0.0885  0.8398
 6623TIP3    H219876   0.075   2.519   4.029  0.4023 -0.5080 -0.4062
 6624TIP3   OH219877   3.529   4.263   0.399 -0.3940 -0.2005 -0.4767
 6624TIP3    H119878   3.550   4.179   0.358  1.8415  0.2302 -0.3163
 6624TIP3    H219879   3.504   4.319   0.326  1.7380  0.0201 -1.1065
 6625TIP3   OH219880   0.701   0.934   3.092  0.2423  0.2350 -0.3024
 6625TIP3    H119881   0.707   1.030   3.095 -1.1186  0.3363  0.5098
 6625TIP3    H219882   0.727   0.910   3.003  1.7310  1.2461 -0.1744
 6626TIP3   OH219883   3.887   2.001   4.792  0.0543  0.2558  0.3622
 6626TIP3    H119884   3.923   1.942   4.726 -0.0952  0.9353 -0.3378
 6626TIP3    H219885   3.920   1.966   4.875  0.3223 -0.5536 -0.0701
 6627TIP3   OH219886   0.550   3.593   2.219 -0.2669  0.0199 -0.4038
 6627TIP3    H119887   0.637   3.568   2.186 -0.3007  0.4117 -0.7850
 6627TIP3    H219888   0.555   3.575   2.313 -0.4354 -1.8742 -0.7056
 6628TIP3   OH219889   4.353   1.606   1.380  0.1324 -0.5238  0.2576
 6628TIP3    H119890   4.442   1.594   1.348  0.1101 -1.5982  0.5446
 6628TIP3    H219891   4.331   1.523   1.422 -1.4542 -0.7720 -0.9382
 6629TIP3   OH219892   0.025   2.603   2.312  0.3331  0.0859  0.3699
 6629TIP3    H119893   0.056   2.591   2.222  0.5321  1.0348  0.2957
 6629TIP3    H219894   0.101   2.640   2.358  0.1372 -0.1040  0.8496
 6630TIP3   OH219895   4.976   5.932   1.679 -0.2406  0.1320 -0.1337
 6630TIP3    H119896   5.010   6.013   1.717 -1.2557  1.4056 -1.7776
 6630TIP3    H219897   4.968   5.951   1.585  1.1415 -2.4760 -0.8913
 6631TIP3   OH219898   0.547   0.165   4.650  0.2725  0.7686 -0.1144
 6631TIP3    H119899   0.462   0.123   4.669 -0.5478  1.1105 -2.5819
 6631TIP3    H219900   0.595   0.098   4.602  1.5107  0.5330  1.3951
 6632TIP3   OH219901   2.692   1.997   3.419 -0.2834  0.3083  0.0693
 6632TIP3    H119902   2.768   1.949   3.450 -2.0111 -2.4268  0.3630
 6632TIP3    H219903   2.702   1.998   3.324  0.1873  0.1595  0.1133
 6633TIP3   OH219904   1.369   5.510   0.291  0.1518 -0.5017  0.1140
 6633TIP3    H119905   1.463   5.519   0.301  0.4107 -0.2988 -1.9629
 6633TIP3    H219906   1.349   5.422   0.323  1.4116 -1.3471 -1.3044
 6634TIP3   OH219907   3.402   0.155   0.453  0.6495 -0.3619 -0.0473
 6634TIP3    H119908   3.318   0.111   0.438  0.0109  0.8700 -0.1967
 6634TIP3    H219909   3.444   0.105   0.523 -0.2833 -0.8949  0.1392
 6635TIP3   OH219910   2.030   5.275   4.568 -0.2494 -0.2396 -0.0230
 6635TIP3    H119911   2.009   5.292   4.477  0.6466 -1.4473 -0.4729
 6635TIP3    H219912   2.117   5.312   4.581 -1.0283  1.4006  0.8189
 6636TIP3   OH219913   1.977   0.577   3.717  0.1671  0.5463  0.0981
 6636TIP3    H119914   2.010   0.639   3.782 -1.4549  3.1365 -1.3725
 6636TIP3    H219915   2.017   0.604   3.635  0.5333 -1.3270 -0.3863
 6637TIP3   OH219916   5.915   5.411   0.521 -0.0592  0.4742  0.7274
 6637TIP3    H119917   5.984   5.418   0.455  1.0669  0.3570  1.8410
 6637TIP3    H219918   5.884   5.501   0.533  0.0473  0.5597  0.3629
 6638TIP3   OH219919   3.949   3.899   1.047 -0.6594 -0.5860 -0.1163
 6638TIP3    H119920   3.871   3.899   0.991 -1.0904 -0.7586  0.4765
 6638TIP3    H219921   4.020   3.926   0.989 -1.1484 -0.4929 -0.6806
 6639TIP3   OH219922   1.065   2.620   2.284  0.2399  0.5677 -0.4120
 6639TIP3    H119923   1.144   2.575   2.314 -0.0187  1.1813  1.3038
 6639TIP3    H219924   1.010   2.551   2.248  1.3463  0.0637 -1.1658
 6640TIP3   OH219925   6.216   2.387   3.830  0.1500 -0.1174 -0.7606
 6640TIP3    H119926   6.223   2.344   3.915 -0.1032  0.0111 -0.6739
 6640TIP3    H219927   6.124   2.413   3.823  0.6487  1.9995 -0.0264
   6.33777   5.97530   5.17477   0.00000   0.00000  -2.11259   0.00000  -2.11259  -2.98765
