Title t= 363.00000 step= 181500
44389
    1GLY      N    1   6.135   4.274   1.268
    1GLY    HT1    2   6.171   4.363   1.230
    1GLY    HT2    3   6.122   4.223   1.179
    1GLY    HT3    4   6.220   4.242   1.318
    1GLY     CA    5   6.022   4.313   1.354
    1GLY    HA1    6   5.936   4.300   1.291
    1GLY    HA2    7   6.031   4.415   1.389
    1GLY      C    8   5.988   4.210   1.461
    1GLY      O    9   6.056   4.105   1.472
    2PRO      N   10   5.891   4.232   1.553
    2PRO     CD   11   5.825   4.361   1.572
    2PRO    HD1   12   5.818   4.404   1.470
    2PRO    HD2   13   5.883   4.424   1.643
    2PRO     CA   14   5.833   4.126   1.639
    2PRO     HA   15   5.918   4.101   1.701
    2PRO     CB   16   5.735   4.206   1.728
    2PRO    HB1   17   5.789   4.253   1.813
    2PRO    HB2   18   5.643   4.148   1.746
    2PRO     CG   19   5.693   4.322   1.635
    2PRO    HG1   20   5.630   4.287   1.550
    2PRO    HG2   21   5.638   4.399   1.693
    2PRO      C   22   5.779   4.001   1.574
    2PRO      O   23   5.755   3.987   1.454
    3GLY      N   24   5.763   3.905   1.660
    3GLY     HN   25   5.750   3.939   1.753
    3GLY     CA   26   5.738   3.759   1.644
    3GLY    HA1   27   5.631   3.746   1.649
    3GLY    HA2   28   5.782   3.708   1.729
    3GLY      C   29   5.778   3.688   1.514
    3GLY      O   30   5.878   3.716   1.450
    4ASP      N   31   5.699   3.589   1.475
    4ASP     HN   32   5.605   3.585   1.508
    4ASP     CA   33   5.723   3.496   1.372
    4ASP     HA   34   5.830   3.493   1.359
    4ASP     CB   35   5.646   3.365   1.398
    4ASP    HB1   36   5.659   3.282   1.325
    4ASP    HB2   37   5.537   3.386   1.405
    4ASP     CG   38   5.689   3.308   1.537
    4ASP    OD1   39   5.809   3.278   1.556
    4ASP    OD2   40   5.603   3.292   1.621
    4ASP      C   41   5.655   3.549   1.245
    4ASP      O   42   5.551   3.609   1.255
    5PRO      N   43   5.709   3.530   1.124
    5PRO     CD   44   5.842   3.464   1.109
    5PRO    HD1   45   5.843   3.360   1.148
    5PRO    HD2   46   5.915   3.524   1.166
    5PRO     CA   47   5.646   3.549   0.993
    5PRO     HA   48   5.665   3.653   0.971
    5PRO     CB   49   5.731   3.451   0.904
    5PRO    HB1   50   5.721   3.466   0.795
    5PRO    HB2   51   5.693   3.350   0.933
    5PRO     CG   52   5.875   3.473   0.961
    5PRO    HG1   53   5.953   3.403   0.924
    5PRO    HG2   54   5.922   3.572   0.939
    5PRO      C   55   5.497   3.518   0.972
    5PRO      O   56   5.448   3.411   1.014
    6GLY      N   57   5.428   3.612   0.904
    6GLY     HN   58   5.475   3.700   0.899
    6GLY     CA   59   5.294   3.593   0.843
    6GLY    HA1   60   5.304   3.523   0.761
    6GLY    HA2   61   5.270   3.685   0.792
    6GLY      C   62   5.179   3.541   0.927
    6GLY      O   63   5.166   3.552   1.046
    7SER      N   64   5.075   3.489   0.857
    7SER     HN   65   5.077   3.504   0.759
    7SER     CA   66   4.959   3.426   0.922
    7SER     HA   67   4.927   3.502   0.992
    7SER     CB   68   4.842   3.403   0.818
    7SER    HB1   69   4.755   3.361   0.872
    7SER    HB2   70   4.871   3.332   0.738
    7SER     OG   71   4.795   3.521   0.761
    7SER    HG1   72   4.866   3.555   0.706
    7SER      C   73   4.984   3.305   0.997
    7SER      O   74   5.076   3.228   0.973
    8GLY      N   75   4.903   3.277   1.102
    8GLY     HN   76   4.834   3.342   1.131
    8GLY     CA   77   4.900   3.152   1.179
    8GLY    HA1   78   4.897   3.184   1.282
    8GLY    HA2   79   4.984   3.090   1.153
    8GLY      C   80   4.774   3.076   1.160
    8GLY      O   81   4.703   3.100   1.064
    9ASN      N   82   4.734   2.985   1.255
    9ASN     HN   83   4.777   2.979   1.345
    9ASN     CA   84   4.616   2.902   1.218
    9ASN     HA   85   4.595   2.904   1.112
    9ASN     CB   86   4.652   2.761   1.278
    9ASN    HB1   87   4.684   2.756   1.384
    9ASN    HB2   88   4.737   2.718   1.220
    9ASN     CG   89   4.545   2.651   1.253
    9ASN    OD1   90   4.452   2.673   1.168
    9ASN    ND2   91   4.552   2.538   1.322
    9ASN   HD21   92   4.477   2.477   1.298
    9ASN   HD22   93   4.635   2.524   1.375
    9ASN      C   94   4.492   2.966   1.292
    9ASN      O   95   4.496   2.970   1.420
   10PRO      N   96   4.383   3.009   1.231
   10PRO     CD   97   4.367   3.010   1.087
   10PRO    HD1   98   4.395   2.919   1.029
   10PRO    HD2   99   4.434   3.090   1.050
   10PRO     CA  100   4.266   3.076   1.295
   10PRO     HA  101   4.306   3.153   1.358
   10PRO     CB  102   4.177   3.123   1.179
   10PRO    HB1  103   4.196   3.228   1.148
   10PRO    HB2  104   4.070   3.109   1.202
   10PRO     CG  105   4.216   3.034   1.067
   10PRO    HG1  106   4.165   2.935   1.071
   10PRO    HG2  107   4.206   3.074   0.964
   10PRO      C  108   4.185   2.991   1.391
   10PRO      O  109   4.135   2.882   1.353
   11GLY      N  110   4.169   3.029   1.522
   11GLY     HN  111   4.204   3.119   1.547
   11GLY     CA  112   4.108   2.959   1.635
   11GLY    HA1  113   4.115   3.013   1.728
   11GLY    HA2  114   4.147   2.858   1.640
   11GLY      C  115   3.964   2.922   1.615
   11GLY      O  116   3.894   2.979   1.530
   12SER      N  117   3.916   2.824   1.698
   12SER     HN  118   3.975   2.786   1.768
   12SER     CA  119   3.783   2.765   1.671
   12SER     HA  120   3.766   2.753   1.565
   12SER     CB  121   3.776   2.627   1.739
   12SER    HB1  122   3.838   2.559   1.675
   12SER    HB2  123   3.674   2.588   1.716
   12SER     OG  124   3.832   2.623   1.868
   12SER    HG1  125   3.926   2.638   1.867
   12SER      C  126   3.663   2.840   1.728
   12SER      O  127   3.546   2.802   1.708
   13GLY      N  128   3.688   2.948   1.803
   13GLY     HN  129   3.779   2.989   1.814
   13GLY     CA  130   3.587   3.018   1.884
   13GLY    HA1  131   3.495   3.007   1.829
   13GLY    HA2  132   3.615   3.120   1.906
   13GLY      C  133   3.571   2.948   2.016
   13GLY      O  134   3.610   2.836   2.033
   14ASP      N  135   3.523   3.022   2.118
   14ASP     HN  136   3.489   3.114   2.096
   14ASP     CA  137   3.503   2.980   2.251
   14ASP     HA  138   3.559   2.887   2.259
   14ASP     CB  139   3.561   3.093   2.341
   14ASP    HB1  140   3.556   3.046   2.441
   14ASP    HB2  141   3.500   3.185   2.331
   14ASP     CG  142   3.711   3.127   2.310
   14ASP    OD1  143   3.787   3.042   2.268
   14ASP    OD2  144   3.752   3.238   2.348
   14ASP      C  145   3.353   2.949   2.276
   14ASP      O  146   3.268   2.974   2.189
   15PRO      N  147   3.320   2.892   2.394
   15PRO     CD  148   3.406   2.798   2.468
   15PRO    HD1  149   3.461   2.857   2.544
   15PRO    HD2  150   3.472   2.750   2.393
   15PRO     CA  151   3.180   2.860   2.418
   15PRO     HA  152   3.132   2.802   2.340
   15PRO     CB  153   3.182   2.766   2.542
   15PRO    HB1  154   3.085   2.714   2.553
   15PRO    HB2  155   3.204   2.829   2.630
   15PRO     CG  156   3.309   2.692   2.527
   15PRO    HG1  157   3.338   2.649   2.625
   15PRO    HG2  158   3.292   2.611   2.453
   15PRO      C  159   3.090   2.984   2.445
   15PRO    OT1  160   3.133   3.072   2.521
   15PRO    OT2  161   2.973   2.979   2.400
   16SOD    SOD  162   4.381   4.879   0.543
   17SOD    SOD  163   0.908   2.709   1.730
   18SOD    SOD  164   3.502   6.530   4.490
   19SOD    SOD  165   7.376   5.593   4.824
   20SOD    SOD  166   3.196   2.109   3.931
   21SOD    SOD  167   6.691   1.058   6.120
   22SOD    SOD  168   4.354   4.659   3.974
   23SOD    SOD  169   5.228   0.400   4.869
   24SOD    SOD  170   7.266   3.079   6.366
   25SOD    SOD  171   5.227   6.633   5.337
   26SOD    SOD  172   2.142   3.727   3.967
   27SOD    SOD  173   0.058   4.939   3.019
   28SOD    SOD  174   7.119   1.331   4.265
   29SOD    SOD  175   0.909   7.785   0.850
   30SOD    SOD  176   2.444   0.689   5.702
   31SOD    SOD  177   3.815   2.518   2.757
   32SOD    SOD  178   5.952   2.615   3.736
   33SOD    SOD  179   7.229   4.267   1.720
   34SOD    SOD  180   0.321   5.605   6.758
   35SOD    SOD  181   7.382   4.493   0.059
   36SOD    SOD  182   0.328   5.785   0.066
   37SOD    SOD  183   1.082   4.005   4.840
   38SOD    SOD  184   6.548   3.516   5.066
   39SOD    SOD  185   4.733   3.953   4.169
   40SOD    SOD  186   7.278   7.245   0.676
   41SOD    SOD  187   3.895   7.194   2.246
   42SOD    SOD  188   7.486   5.630   3.960
   43SOD    SOD  189   6.196   3.049   4.367
   44SOD    SOD  190   8.220   1.597   5.086
   45SOD    SOD  191   2.850   2.993   1.971
   46SOD    SOD  192   1.140   3.438   5.992
   47SOD    SOD  193   4.414   4.624   2.310
   48SOD    SOD  194   2.580   0.373   3.835
   49SOD    SOD  195   8.224   1.760   1.209
   50SOD    SOD  196   5.048   4.425   3.112
   51SOD    SOD  197   5.635   3.770   0.578
   52SOD    SOD  198   3.026   4.520   6.316
   53SOD    SOD  199   6.001   0.811   0.199
   54SOD    SOD  200   0.515   5.835   2.538
   55SOD    SOD  201   1.236   7.487   1.800
   56SOD    SOD  202   2.298   3.306   5.276
   57SOD    SOD  203   6.709   0.354   6.195
   58SOD    SOD  204   5.530   3.376   6.357
   59SOD    SOD  205   1.676   4.600   2.816
   60CLA    CLA  206   2.706   0.617   3.737
   61CLA    CLA  207   1.747   7.709   3.405
   62CLA    CLA  208   1.092   2.501   5.311
   63CLA    CLA  209   2.529   2.110   1.795
   64CLA    CLA  210   7.022   3.478   6.597
   65CLA    CLA  211   0.874   5.086   5.931
   66CLA    CLA  212   0.411   6.281   0.656
   67CLA    CLA  213   4.173   7.201   3.464
   68CLA    CLA  214   4.660   4.988   4.693
   69CLA    CLA  215   1.484   5.109   1.682
   70CLA    CLA  216   0.158   2.436   3.247
   71CLA    CLA  217   2.984   6.601   5.251
   72CLA    CLA  218   0.784   4.668   0.059
   73CLA    CLA  219   7.962   4.200   1.595
   74CLA    CLA  220   7.044   5.949   4.787
   75CLA    CLA  221   8.057   3.312   0.563
   76CLA    CLA  222   2.715   0.658   5.316
   77CLA    CLA  223   6.026   7.674   2.339
   78CLA    CLA  224   2.472   1.104   5.946
   79CLA    CLA  225   3.760   3.021   0.645
   80CLA    CLA  226   0.625   1.231   1.142
   81CLA    CLA  227   5.062   0.668   3.915
   82CLA    CLA  228   0.351   3.498   3.916
   83CLA    CLA  229   7.162   5.629   5.685
   84CLA    CLA  230   6.331   5.025   4.248
   85CLA    CLA  231   5.720   4.015   2.357
   86CLA    CLA  232   7.229   7.102   3.563
   87CLA    CLA  233   1.647   7.341   1.197
   88CLA    CLA  234   7.322   4.847   4.810
   89CLA    CLA  235   4.044   0.037   4.238
   90CLA    CLA  236   6.480   5.749   3.045
   91CLA    CLA  237   7.062   5.487   1.968
   92CLA    CLA  238   1.026   1.748   3.740
   93CLA    CLA  239   7.169   4.915   2.009
   94CLA    CLA  240   2.106   3.037   3.309
   95CLA    CLA  241   3.562   4.108   3.500
   96CLA    CLA  242   5.607   0.173   3.980
   97CLA    CLA  243   8.223   2.246   1.017
   98CLA    CLA  244   6.092   4.002   3.913
   99CLA    CLA  245   3.405   5.409   5.267
  100CLA    CLA  246   3.319   6.182   5.668
  101CLA    CLA  247   5.057   3.298   4.599
  102TIP3   OH2  248   1.644   2.867   3.951
  102TIP3    H1  249   1.564   2.820   3.924
  102TIP3    H2  250   1.612   2.947   3.992
  103TIP3   OH2  251   8.054   3.508   5.631
  103TIP3    H1  252   8.144   3.499   5.662
  103TIP3    H2  253   8.028   3.596   5.660
  104TIP3   OH2  254   0.496   5.422   0.155
  104TIP3    H1  255   0.500   5.454   0.245
  104TIP3    H2  256   0.584   5.389   0.137
  105TIP3   OH2  257   2.787   5.265   4.623
  105TIP3    H1  258   2.793   5.192   4.685
  105TIP3    H2  259   2.693   5.281   4.615
  106TIP3   OH2  260   4.427   3.663   1.260
  106TIP3    H1  261   4.471   3.748   1.264
  106TIP3    H2  262   4.442   3.633   1.170
  107TIP3   OH2  263   3.132   7.777   2.859
  107TIP3    H1  264   3.055   7.818   2.898
  107TIP3    H2  265   3.170   7.726   2.930
  108TIP3   OH2  266   7.540   1.074   5.221
  108TIP3    H1  267   7.534   1.145   5.157
  108TIP3    H2  268   7.622   1.030   5.200
  109TIP3   OH2  269   2.536   1.993   0.441
  109TIP3    H1  270   2.531   2.061   0.508
  109TIP3    H2  271   2.615   1.943   0.464
  110TIP3   OH2  272   3.400   0.429   3.810
  110TIP3    H1  273   3.449   0.373   3.871
  110TIP3    H2  274   3.382   0.508   3.861
  111TIP3   OH2  275   2.497   4.455   1.013
  111TIP3    H1  276   2.515   4.371   0.972
  111TIP3    H2  277   2.401   4.462   1.012
  112TIP3   OH2  278   4.697   0.640   3.468
  112TIP3    H1  279   4.702   0.559   3.520
  112TIP3    H2  280   4.699   0.710   3.533
  113TIP3   OH2  281   5.584   7.495   4.631
  113TIP3    H1  282   5.603   7.411   4.589
  113TIP3    H2  283   5.490   7.508   4.619
  114TIP3   OH2  284   6.181   4.767   6.130
  114TIP3    H1  285   6.139   4.765   6.216
  114TIP3    H2  286   6.225   4.853   6.127
  115TIP3   OH2  287   0.100   0.943   6.444
  115TIP3    H1  288   0.009   0.913   6.437
  115TIP3    H2  289   0.139   0.919   6.360
  116TIP3   OH2  290   7.417   4.654   3.956
  116TIP3    H1  291   7.334   4.698   3.975
  116TIP3    H2  292   7.409   4.628   3.864
  117TIP3   OH2  293   4.285   0.857   3.714
  117TIP3    H1  294   4.355   0.799   3.742
  117TIP3    H2  295   4.276   0.841   3.620
  118TIP3   OH2  296   1.635   7.167   4.753
  118TIP3    H1  297   1.563   7.164   4.690
  118TIP3    H2  298   1.625   7.088   4.805
  119TIP3   OH2  299   0.056   6.912   4.106
  119TIP3    H1  300   0.075   6.885   4.016
  119TIP3    H2  301   0.018   7.000   4.097
  120TIP3   OH2  302   2.730   5.254   3.341
  120TIP3    H1  303   2.689   5.333   3.306
  120TIP3    H2  304   2.676   5.230   3.417
  121TIP3   OH2  305   2.074   6.526   0.645
  121TIP3    H1  306   2.045   6.615   0.662
  121TIP3    H2  307   2.000   6.471   0.671
  122TIP3   OH2  308   5.438   3.533   6.196
  122TIP3    H1  309   5.346   3.539   6.169
  122TIP3    H2  310   5.480   3.485   6.125
  123TIP3   OH2  311   4.115   0.787   1.290
  123TIP3    H1  312   4.036   0.833   1.260
  123TIP3    H2  313   4.109   0.700   1.251
  124TIP3   OH2  314   0.909   4.006   1.145
  124TIP3    H1  315   0.835   4.039   1.094
  124TIP3    H2  316   0.886   4.024   1.236
  125TIP3   OH2  317   1.770   4.482   2.977
  125TIP3    H1  318   1.765   4.442   3.064
  125TIP3    H2  319   1.863   4.493   2.961
  126TIP3   OH2  320   0.061   0.174   5.170
  126TIP3    H1  321   0.125   0.123   5.219
  126TIP3    H2  322   0.113   0.228   5.110
  127TIP3   OH2  323   8.314   4.566   0.781
  127TIP3    H1  324   8.263   4.506   0.836
  127TIP3    H2  325   8.375   4.509   0.734
  128TIP3   OH2  326   1.948   7.400   3.503
  128TIP3    H1  327   1.879   7.381   3.440
  128TIP3    H2  328   2.030   7.382   3.455
  129TIP3   OH2  329   7.184   3.357   0.309
  129TIP3    H1  330   7.214   3.424   0.370
  129TIP3    H2  331   7.115   3.399   0.259
  130TIP3   OH2  332   4.082   1.569   0.053
  130TIP3    H1  333   4.066   1.649   0.104
  130TIP3    H2  334   4.120   1.601  -0.029
  131TIP3   OH2  335   4.224   7.214   5.862
  131TIP3    H1  336   4.159   7.154   5.897
  131TIP3    H2  337   4.306   7.164   5.865
  132TIP3   OH2  338   1.032   6.147   0.324
  132TIP3    H1  339   1.032   6.189   0.237
  132TIP3    H2  340   1.094   6.200   0.375
  133TIP3   OH2  341   1.913   4.853   0.831
  133TIP3    H1  342   1.884   4.826   0.744
  133TIP3    H2  343   1.915   4.948   0.827
  134TIP3   OH2  344   3.019   1.440   3.330
  134TIP3    H1  345   2.928   1.470   3.334
  134TIP3    H2  346   3.022   1.364   3.388
  135TIP3   OH2  347   0.716   2.293   6.155
  135TIP3    H1  348   0.736   2.346   6.232
  135TIP3    H2  349   0.668   2.352   6.097
  136TIP3   OH2  350   7.827   6.296   0.790
  136TIP3    H1  351   7.815   6.373   0.733
  136TIP3    H2  352   7.839   6.223   0.729
  137TIP3   OH2  353   5.761   5.201   6.447
  137TIP3    H1  354   5.772   5.176   6.356
  137TIP3    H2  355   5.724   5.123   6.489
  138TIP3   OH2  356   2.628   0.980   4.725
  138TIP3    H1  357   2.645   0.921   4.652
  138TIP3    H2  358   2.538   1.011   4.712
  139TIP3   OH2  359   6.059   3.405   1.525
  139TIP3    H1  360   6.111   3.333   1.490
  139TIP3    H2  361   5.969   3.372   1.527
  140TIP3   OH2  362   7.249   5.636   1.774
  140TIP3    H1  363   7.183   5.590   1.826
  140TIP3    H2  364   7.208   5.646   1.687
  141TIP3   OH2  365   5.814   0.378   1.062
  141TIP3    H1  366   5.744   0.381   1.128
  141TIP3    H2  367   5.777   0.420   0.985
  142TIP3   OH2  368   2.868   3.784   1.759
  142TIP3    H1  369   2.920   3.706   1.741
  142TIP3    H2  370   2.926   3.841   1.809
  143TIP3   OH2  371   7.006   1.197   4.700
  143TIP3    H1  372   6.984   1.106   4.719
  143TIP3    H2  373   6.933   1.229   4.647
  144TIP3   OH2  374   2.374   0.139   4.743
  144TIP3    H1  375   2.469   0.149   4.734
  144TIP3    H2  376   2.353   0.061   4.692
  145TIP3   OH2  377   3.073   0.811   6.043
  145TIP3    H1  378   3.159   0.840   6.074
  145TIP3    H2  379   3.060   0.859   5.961
  146TIP3   OH2  380   4.232   6.628   3.529
  146TIP3    H1  381   4.278   6.711   3.546
  146TIP3    H2  382   4.174   6.618   3.604
  147TIP3   OH2  383   6.492   0.213   5.035
  147TIP3    H1  384   6.551   0.284   5.012
  147TIP3    H2  385   6.545   0.134   5.027
  148TIP3   OH2  386   0.602   1.434   3.330
  148TIP3    H1  387   0.541   1.389   3.271
  148TIP3    H2  388   0.614   1.373   3.402
  149TIP3   OH2  389   1.422   7.698   0.545
  149TIP3    H1  390   1.423   7.637   0.471
  149TIP3    H2  391   1.433   7.784   0.505
  150TIP3   OH2  392   3.112   1.823   4.225
  150TIP3    H1  393   3.114   1.735   4.263
  150TIP3    H2  394   3.019   1.840   4.207
  151TIP3   OH2  395   5.668   0.274   2.805
  151TIP3    H1  396   5.743   0.323   2.840
  151TIP3    H2  397   5.655   0.310   2.717
  152TIP3   OH2  398   7.130   1.964   4.787
  152TIP3    H1  399   7.092   2.052   4.781
  152TIP3    H2  400   7.061   1.905   4.758
  153TIP3   OH2  401   2.178   5.524   4.794
  153TIP3    H1  402   2.189   5.446   4.739
  153TIP3    H2  403   2.099   5.566   4.759
  154TIP3   OH2  404   3.675   5.212   5.366
  154TIP3    H1  405   3.605   5.278   5.372
  154TIP3    H2  406   3.749   5.259   5.329
  155TIP3   OH2  407   3.507   5.133   4.413
  155TIP3    H1  408   3.452   5.212   4.409
  155TIP3    H2  409   3.516   5.114   4.506
  156TIP3   OH2  410   6.478   3.560   0.207
  156TIP3    H1  411   6.474   3.642   0.157
  156TIP3    H2  412   6.565   3.524   0.188
  157TIP3   OH2  413   3.936   0.203   2.679
  157TIP3    H1  414   3.929   0.179   2.771
  157TIP3    H2  415   4.010   0.152   2.646
  158TIP3   OH2  416   7.855   5.540   5.364
  158TIP3    H1  417   7.824   5.629   5.349
  158TIP3    H2  418   7.779   5.484   5.348
  159TIP3   OH2  419   7.206   0.733   2.273
  159TIP3    H1  420   7.268   0.805   2.285
  159TIP3    H2  421   7.206   0.717   2.178
  160TIP3   OH2  422   0.987   1.537   6.711
  160TIP3    H1  423   0.966   1.627   6.686
  160TIP3    H2  424   1.048   1.546   6.784
  161TIP3   OH2  425   6.366   5.428   6.839
  161TIP3    H1  426   6.377   5.488   6.913
  161TIP3    H2  427   6.271   5.418   6.831
  162TIP3   OH2  428   1.466   1.691   0.019
  162TIP3    H1  429   1.550   1.732   0.039
  162TIP3    H2  430   1.420   1.689   0.103
  163TIP3   OH2  431   6.742   5.635   2.223
  163TIP3    H1  432   6.823   5.650   2.270
  163TIP3    H2  433   6.738   5.540   2.211
  164TIP3   OH2  434   1.025   4.916   5.249
  164TIP3    H1  435   0.964   4.990   5.239
  164TIP3    H2  436   1.102   4.955   5.291
  165TIP3   OH2  437   4.645   2.214   2.153
  165TIP3    H1  438   4.663   2.130   2.111
  165TIP3    H2  439   4.730   2.257   2.156
  166TIP3   OH2  440   7.635   5.993   3.678
  166TIP3    H1  441   7.648   5.913   3.628
  166TIP3    H2  442   7.600   5.963   3.762
  167TIP3   OH2  443   2.685   2.077   4.102
  167TIP3    H1  444   2.678   2.171   4.120
  167TIP3    H2  445   2.613   2.038   4.150
  168TIP3   OH2  446   1.847   1.876   3.314
  168TIP3    H1  447   1.932   1.918   3.323
  168TIP3    H2  448   1.867   1.784   3.297
  169TIP3   OH2  449   7.034   0.121   0.387
  169TIP3    H1  450   7.070   0.092   0.303
  169TIP3    H2  451   6.997   0.041   0.425
  170TIP3   OH2  452   3.230   3.536   3.013
  170TIP3    H1  453   3.167   3.467   2.992
  170TIP3    H2  454   3.235   3.535   3.109
  171TIP3   OH2  455   8.220   4.685   0.494
  171TIP3    H1  456   8.207   4.618   0.561
  171TIP3    H2  457   8.314   4.683   0.476
  172TIP3   OH2  458   5.330   4.014   3.109
  172TIP3    H1  459   5.344   4.108   3.094
  172TIP3    H2  460   5.237   4.007   3.131
  173TIP3   OH2  461   7.474   4.750   2.305
  173TIP3    H1  462   7.496   4.769   2.397
  173TIP3    H2  463   7.380   4.767   2.300
  174TIP3   OH2  464   2.888   2.061   6.511
  174TIP3    H1  465   2.932   2.095   6.433
  174TIP3    H2  466   2.935   1.980   6.531
  175TIP3   OH2  467   6.808   7.331   4.763
  175TIP3    H1  468   6.847   7.245   4.777
  175TIP3    H2  469   6.822   7.348   4.670
  176TIP3   OH2  470   0.424   1.059   1.849
  176TIP3    H1  471   0.386   1.031   1.931
  176TIP3    H2  472   0.517   1.034   1.855
  177TIP3   OH2  473   3.410   2.759   5.226
  177TIP3    H1  474   3.439   2.673   5.196
  177TIP3    H2  475   3.390   2.747   5.319
  178TIP3   OH2  476   6.887   3.830   3.985
  178TIP3    H1  477   6.863   3.827   4.077
  178TIP3    H2  478   6.828   3.896   3.947
  179TIP3   OH2  479   4.166   7.131   1.287
  179TIP3    H1  480   4.083   7.095   1.256
  179TIP3    H2  481   4.225   7.123   1.212
  180TIP3   OH2  482   7.206   6.612   5.908
  180TIP3    H1  483   7.277   6.574   5.857
  180TIP3    H2  484   7.249   6.652   5.983
  181TIP3   OH2  485   5.762   4.191   3.122
  181TIP3    H1  486   5.686   4.236   3.158
  181TIP3    H2  487   5.738   4.098   3.125
  182TIP3   OH2  488   4.310   0.348   0.583
  182TIP3    H1  489   4.375   0.278   0.577
  182TIP3    H2  490   4.354   0.416   0.635
  183TIP3   OH2  491   0.984   1.849   1.858
  183TIP3    H1  492   0.978   1.901   1.778
  183TIP3    H2  493   0.912   1.786   1.852
  184TIP3   OH2  494   1.920   5.038   1.819
  184TIP3    H1  495   1.995   4.982   1.798
  184TIP3    H2  496   1.958   5.122   1.843
  185TIP3   OH2  497   5.065   2.984   0.324
  185TIP3    H1  498   5.043   2.917   0.390
  185TIP3    H2  499   5.157   2.967   0.304
  186TIP3   OH2  500   4.603   6.453   3.119
  186TIP3    H1  501   4.564   6.509   3.186
  186TIP3    H2  502   4.547   6.375   3.117
  187TIP3   OH2  503   4.291   0.599   2.093
  187TIP3    H1  504   4.353   0.575   2.162
  187TIP3    H2  505   4.339   0.663   2.039
  188TIP3   OH2  506   3.725   4.397   3.955
  188TIP3    H1  507   3.765   4.434   3.877
  188TIP3    H2  508   3.691   4.472   4.003
  189TIP3   OH2  509   3.927   5.772   4.285
  189TIP3    H1  510   3.891   5.805   4.202
  189TIP3    H2  511   3.873   5.697   4.307
  190TIP3   OH2  512   6.795   6.862   6.058
  190TIP3    H1  513   6.707   6.848   6.022
  190TIP3    H2  514   6.850   6.798   6.013
  191TIP3   OH2  515   2.892   7.769   0.357
  191TIP3    H1  516   2.900   7.741   0.448
  191TIP3    H2  517   2.859   7.859   0.363
  192TIP3   OH2  518   2.632   2.610   2.645
  192TIP3    H1  519   2.651   2.672   2.576
  192TIP3    H2  520   2.537   2.600   2.643
  193TIP3   OH2  521   5.212   5.587   4.032
  193TIP3    H1  522   5.230   5.529   4.107
  193TIP3    H2  523   5.175   5.666   4.072
  194TIP3   OH2  524   7.618   4.145   3.015
  194TIP3    H1  525   7.688   4.176   3.072
  194TIP3    H2  526   7.591   4.061   3.052
  195TIP3   OH2  527   5.612   7.517   6.512
  195TIP3    H1  528   5.598   7.426   6.485
  195TIP3    H2  529   5.650   7.511   6.599
  196TIP3   OH2  530   5.815   5.411   1.475
  196TIP3    H1  531   5.854   5.353   1.541
  196TIP3    H2  532   5.868   5.397   1.397
  197TIP3   OH2  533   4.843   1.164   4.489
  197TIP3    H1  534   4.802   1.080   4.510
  197TIP3    H2  535   4.771   1.219   4.459
  198TIP3   OH2  536   3.533   7.624   1.606
  198TIP3    H1  537   3.622   7.610   1.575
  198TIP3    H2  538   3.482   7.641   1.527
  199TIP3   OH2  539   6.365   6.330   0.382
  199TIP3    H1  540   6.425   6.274   0.332
  199TIP3    H2  541   6.422   6.389   0.431
  200TIP3   OH2  542   7.073   1.855   1.771
  200TIP3    H1  543   7.021   1.777   1.794
  200TIP3    H2  544   7.151   1.848   1.827
  201TIP3   OH2  545   4.865   6.202   1.199
  201TIP3    H1  546   4.956   6.209   1.172
  201TIP3    H2  547   4.824   6.284   1.171
  202TIP3   OH2  548   1.033   6.709   0.656
  202TIP3    H1  549   1.047   6.614   0.658
  202TIP3    H2  550   1.114   6.744   0.618
  203TIP3   OH2  551   6.541   5.387   1.515
  203TIP3    H1  552   6.556   5.362   1.606
  203TIP3    H2  553   6.466   5.334   1.488
  204TIP3   OH2  554   0.626   5.669   6.400
  204TIP3    H1  555   0.685   5.701   6.469
  204TIP3    H2  556   0.651   5.720   6.323
  205TIP3   OH2  557   3.476   5.596   4.608
  205TIP3    H1  558   3.478   5.546   4.689
  205TIP3    H2  559   3.563   5.635   4.602
  206TIP3   OH2  560   7.489   6.375   4.816
  206TIP3    H1  561   7.444   6.428   4.882
  206TIP3    H2  562   7.582   6.396   4.828
  207TIP3   OH2  563   6.429   2.270   5.489
  207TIP3    H1  564   6.423   2.288   5.583
  207TIP3    H2  565   6.444   2.175   5.484
  208TIP3   OH2  566   0.494   7.079   1.181
  208TIP3    H1  567   0.446   7.158   1.158
  208TIP3    H2  568   0.426   7.012   1.192
  209TIP3   OH2  569   2.131   5.457   4.137
  209TIP3    H1  570   2.044   5.498   4.138
  209TIP3    H2  571   2.115   5.368   4.170
  210TIP3   OH2  572   1.811   7.199   0.790
  210TIP3    H1  573   1.802   7.288   0.756
  210TIP3    H2  574   1.721   7.168   0.799
  211TIP3   OH2  575   3.116   6.204   3.110
  211TIP3    H1  576   3.126   6.255   3.191
  211TIP3    H2  577   3.053   6.135   3.132
  212TIP3   OH2  578   5.317   5.544   3.364
  212TIP3    H1  579   5.358   5.610   3.421
  212TIP3    H2  580   5.366   5.551   3.282
  213TIP3   OH2  581   7.142   1.313   0.196
  213TIP3    H1  582   7.090   1.320   0.116
  213TIP3    H2  583   7.168   1.220   0.199
  214TIP3   OH2  584   2.073   2.789   6.559
  214TIP3    H1  585   2.056   2.708   6.605
  214TIP3    H2  586   2.133   2.764   6.489
  215TIP3   OH2  587   7.786   1.509   2.048
  215TIP3    H1  588   7.707   1.564   2.043
  215TIP3    H2  589   7.795   1.471   1.961
  216TIP3   OH2  590   6.622   3.033   3.743
  216TIP3    H1  591   6.651   3.094   3.675
  216TIP3    H2  592   6.534   3.006   3.715
  217TIP3   OH2  593   2.653   7.195   2.003
  217TIP3    H1  594   2.714   7.202   1.930
  217TIP3    H2  595   2.576   7.150   1.967
  218TIP3   OH2  596   7.072   1.303   1.659
  218TIP3    H1  597   7.140   1.365   1.684
  218TIP3    H2  598   7.074   1.302   1.564
  219TIP3   OH2  599   6.677   5.984   1.968
  219TIP3    H1  600   6.734   5.907   1.967
  219TIP3    H2  601   6.693   6.027   1.885
  220TIP3   OH2  602   5.970   3.354   5.779
  220TIP3    H1  603   5.982   3.317   5.692
  220TIP3    H2  604   6.056   3.389   5.803
  221TIP3   OH2  605   4.302   4.109   2.254
  221TIP3    H1  606   4.208   4.123   2.243
  221TIP3    H2  607   4.313   4.014   2.250
  222TIP3   OH2  608   3.296   2.268   1.131
  222TIP3    H1  609   3.353   2.196   1.159
  222TIP3    H2  610   3.307   2.334   1.200
  223TIP3   OH2  611   4.845   4.133   2.027
  223TIP3    H1  612   4.852   4.208   1.968
  223TIP3    H2  613   4.874   4.166   2.112
  224TIP3   OH2  614   2.427   6.658   3.216
  224TIP3    H1  615   2.361   6.655   3.285
  224TIP3    H2  616   2.486   6.728   3.243
  225TIP3   OH2  617   2.438   5.429   5.262
  225TIP3    H1  618   2.372   5.494   5.240
  225TIP3    H2  619   2.515   5.455   5.212
  226TIP3   OH2  620   1.212   6.305   5.553
  226TIP3    H1  621   1.289   6.360   5.571
  226TIP3    H2  622   1.243   6.216   5.567
  227TIP3   OH2  623   8.074   1.332   1.248
  227TIP3    H1  624   8.068   1.386   1.327
  227TIP3    H2  625   8.019   1.256   1.267
  228TIP3   OH2  626   0.211   5.493   1.454
  228TIP3    H1  627   0.217   5.404   1.489
  228TIP3    H2  628   0.241   5.548   1.526
  229TIP3   OH2  629   6.525   7.132   1.544
  229TIP3    H1  630   6.486   7.048   1.571
  229TIP3    H2  631   6.572   7.112   1.464
  230TIP3   OH2  632   0.927   5.600   3.689
  230TIP3    H1  633   0.973   5.547   3.624
  230TIP3    H2  634   0.840   5.613   3.651
  231TIP3   OH2  635   3.052   5.743   3.442
  231TIP3    H1  636   3.093   5.777   3.363
  231TIP3    H2  637   3.005   5.665   3.413
  232TIP3   OH2  638   5.674   1.516   4.094
  232TIP3    H1  639   5.588   1.488   4.061
  232TIP3    H2  640   5.735   1.495   4.023
  233TIP3   OH2  641   1.216   6.034   2.604
  233TIP3    H1  642   1.204   5.964   2.668
  233TIP3    H2  643   1.140   6.091   2.615
  234TIP3   OH2  644   0.375   2.669   0.245
  234TIP3    H1  645   0.301   2.617   0.275
  234TIP3    H2  646   0.442   2.655   0.313
  235TIP3   OH2  647   1.148   5.359   5.236
  235TIP3    H1  648   1.176   5.336   5.325
  235TIP3    H2  649   1.094   5.437   5.247
  236TIP3   OH2  650   0.010   1.387   3.649
  236TIP3    H1  651   0.013   1.481   3.631
  236TIP3    H2  652   0.098   1.356   3.628
  237TIP3   OH2  653   3.346   6.345   3.516
  237TIP3    H1  654   3.281   6.332   3.447
  237TIP3    H2  655   3.417   6.393   3.473
  238TIP3   OH2  656   7.134   5.015   4.957
  238TIP3    H1  657   7.213   4.984   4.914
  238TIP3    H2  658   7.073   5.034   4.885
  239TIP3   OH2  659   0.573   4.506   1.178
  239TIP3    H1  660   0.540   4.512   1.268
  239TIP3    H2  661   0.551   4.591   1.139
  240TIP3   OH2  662   5.184   5.284   6.151
  240TIP3    H1  663   5.184   5.274   6.246
  240TIP3    H2  664   5.120   5.220   6.120
  241TIP3   OH2  665   2.755   2.887   0.147
  241TIP3    H1  666   2.685   2.928   0.198
  241TIP3    H2  667   2.712   2.859   0.066
  242TIP3   OH2  668   4.003   5.686   3.179
  242TIP3    H1  669   3.996   5.777   3.205
  242TIP3    H2  670   3.926   5.670   3.124
  243TIP3   OH2  671   1.307   1.904   4.075
  243TIP3    H1  672   1.250   1.872   4.004
  243TIP3    H2  673   1.247   1.924   4.146
  244TIP3   OH2  674   0.171   0.810   4.776
  244TIP3    H1  675   0.153   0.850   4.861
  244TIP3    H2  676   0.266   0.806   4.771
  245TIP3   OH2  677   6.298   3.868   0.971
  245TIP3    H1  678   6.238   3.797   0.993
  245TIP3    H2  679   6.349   3.882   1.050
  246TIP3   OH2  680   5.156   4.387   6.497
  246TIP3    H1  681   5.104   4.427   6.567
  246TIP3    H2  682   5.100   4.317   6.463
  247TIP3   OH2  683   6.380   1.665   3.773
  247TIP3    H1  684   6.325   1.689   3.848
  247TIP3    H2  685   6.422   1.583   3.800
  248TIP3   OH2  686   1.492   2.290   6.691
  248TIP3    H1  687   1.401   2.282   6.717
  248TIP3    H2  688   1.511   2.208   6.644
  249TIP3   OH2  689   4.435   2.731   2.101
  249TIP3    H1  690   4.435   2.819   2.138
  249TIP3    H2  691   4.379   2.680   2.160
  250TIP3   OH2  692   6.970   0.191   5.692
  250TIP3    H1  693   6.912   0.152   5.626
  250TIP3    H2  694   7.057   0.189   5.651
  251TIP3   OH2  695   3.638   6.554   5.183
  251TIP3    H1  696   3.693   6.632   5.187
  251TIP3    H2  697   3.689   6.486   5.227
  252TIP3   OH2  698   1.169   1.177   0.978
  252TIP3    H1  699   1.188   1.098   1.028
  252TIP3    H2  700   1.090   1.213   1.017
  253TIP3   OH2  701   4.486   6.610   3.333
  253TIP3    H1  702   4.442   6.692   3.312
  253TIP3    H2  703   4.422   6.561   3.384
  254TIP3   OH2  704   3.943   3.944   2.426
  254TIP3    H1  705   3.918   3.854   2.447
  254TIP3    H2  706   3.865   3.995   2.444
  255TIP3   OH2  707   7.298   1.262   3.809
  255TIP3    H1  708   7.376   1.268   3.865
  255TIP3    H2  709   7.332   1.269   3.720
  256TIP3   OH2  710   1.925   1.038   0.605
  256TIP3    H1  711   1.830   1.022   0.606
  256TIP3    H2  712   1.934   1.131   0.585
  257TIP3   OH2  713   4.480   3.311   4.902
  257TIP3    H1  714   4.566   3.328   4.943
  257TIP3    H2  715   4.417   3.341   4.967
  258TIP3   OH2  716   4.612   5.813   1.905
  258TIP3    H1  717   4.624   5.859   1.988
  258TIP3    H2  718   4.517   5.810   1.893
  259TIP3   OH2  719   5.077   0.920   2.169
  259TIP3    H1  720   5.058   1.013   2.186
  259TIP3    H2  721   5.167   0.908   2.198
  260TIP3   OH2  722   3.406   3.043   3.380
  260TIP3    H1  723   3.348   3.118   3.397
  260TIP3    H2  724   3.369   3.001   3.302
  261TIP3   OH2  725   4.617   3.505   3.923
  261TIP3    H1  726   4.699   3.463   3.950
  261TIP3    H2  727   4.551   3.469   3.983
  262TIP3   OH2  728   5.557   6.417   2.903
  262TIP3    H1  729   5.508   6.465   2.837
  262TIP3    H2  730   5.647   6.418   2.871
  263TIP3   OH2  731   7.537   1.542   4.511
  263TIP3    H1  732   7.589   1.538   4.431
  263TIP3    H2  733   7.568   1.622   4.555
  264TIP3   OH2  734   7.261   0.474   2.881
  264TIP3    H1  735   7.198   0.529   2.834
  264TIP3    H2  736   7.314   0.433   2.812
  265TIP3   OH2  737   3.293   5.563   5.818
  265TIP3    H1  738   3.319   5.643   5.863
  265TIP3    H2  739   3.300   5.584   5.725
  266TIP3   OH2  740   5.986   1.792   6.309
  266TIP3    H1  741   6.057   1.819   6.366
  266TIP3    H2  742   5.974   1.865   6.248
  267TIP3   OH2  743   7.178   0.829   2.972
  267TIP3    H1  744   7.217   0.851   3.056
  267TIP3    H2  745   7.111   0.763   2.993
  268TIP3   OH2  746   6.542   3.358   4.430
  268TIP3    H1  747   6.453   3.391   4.415
  268TIP3    H2  748   6.535   3.306   4.510
  269TIP3   OH2  749   0.644   2.455   6.801
  269TIP3    H1  750   0.637   2.449   6.897
  269TIP3    H2  751   0.727   2.411   6.781
  270TIP3   OH2  752   0.438   7.602   4.812
  270TIP3    H1  753   0.394   7.684   4.792
  270TIP3    H2  754   0.376   7.554   4.868
  271TIP3   OH2  755   3.510   3.207   3.744
  271TIP3    H1  756   3.509   3.147   3.669
  271TIP3    H2  757   3.557   3.284   3.712
  272TIP3   OH2  758   7.206   0.091   6.079
  272TIP3    H1  759   7.152   0.153   6.030
  272TIP3    H2  760   7.151   0.013   6.088
  273TIP3   OH2  761   8.271   0.281   3.331
  273TIP3    H1  762   8.176   0.277   3.320
  273TIP3    H2  763   8.289   0.373   3.351
  274TIP3   OH2  764   0.776   6.769   5.104
  274TIP3    H1  765   0.861   6.735   5.130
  274TIP3    H2  766   0.757   6.839   5.166
  275TIP3   OH2  767   1.212   3.107   5.640
  275TIP3    H1  768   1.299   3.142   5.623
  275TIP3    H2  769   1.211   3.088   5.733
  276TIP3   OH2  770   0.678   6.291   3.079
  276TIP3    H1  771   0.683   6.204   3.120
  276TIP3    H2  772   0.667   6.351   3.153
  277TIP3   OH2  773   0.146   7.620   1.899
  277TIP3    H1  774   0.147   7.697   1.956
  277TIP3    H2  775   0.104   7.552   1.952
  278TIP3   OH2  776   6.932   5.821   0.913
  278TIP3    H1  777   7.016   5.861   0.890
  278TIP3    H2  778   6.949   5.727   0.916
  279TIP3   OH2  779   7.603   1.074   1.474
  279TIP3    H1  780   7.607   1.108   1.563
  279TIP3    H2  781   7.564   0.987   1.483
  280TIP3   OH2  782   2.781   0.940   5.197
  280TIP3    H1  783   2.749   0.911   5.111
  280TIP3    H2  784   2.757   0.868   5.255
  281TIP3   OH2  785   2.743   3.332   3.741
  281TIP3    H1  786   2.792   3.415   3.737
  281TIP3    H2  787   2.670   3.345   3.680
  282TIP3   OH2  788   4.997   7.334   6.606
  282TIP3    H1  789   4.927   7.269   6.613
  282TIP3    H2  790   4.966   7.408   6.658
  283TIP3   OH2  791   5.959   4.793   3.671
  283TIP3    H1  792   5.958   4.812   3.577
  283TIP3    H2  793   5.991   4.703   3.677
  284TIP3   OH2  794   8.015   2.891   3.559
  284TIP3    H1  795   8.058   2.938   3.487
  284TIP3    H2  796   8.042   2.938   3.638
  285TIP3   OH2  797   4.284   0.453   3.285
  285TIP3    H1  798   4.354   0.469   3.221
  285TIP3    H2  799   4.329   0.445   3.369
  286TIP3   OH2  800   2.295   5.747   3.483
  286TIP3    H1  801   2.255   5.819   3.533
  286TIP3    H2  802   2.359   5.790   3.427
  287TIP3   OH2  803   8.028   0.567   6.126
  287TIP3    H1  804   8.003   0.657   6.146
  287TIP3    H2  805   8.073   0.572   6.042
  288TIP3   OH2  806   4.270   3.788   0.451
  288TIP3    H1  807   4.175   3.786   0.459
  288TIP3    H2  808   4.297   3.697   0.460
  289TIP3   OH2  809   1.512   1.516   4.256
  289TIP3    H1  810   1.493   1.493   4.165
  289TIP3    H2  811   1.499   1.611   4.259
  290TIP3   OH2  812   1.417   3.373   2.169
  290TIP3    H1  813   1.405   3.354   2.076
  290TIP3    H2  814   1.495   3.428   2.173
  291TIP3   OH2  815   3.401   5.115   1.576
  291TIP3    H1  816   3.344   5.176   1.528
  291TIP3    H2  817   3.345   5.039   1.593
  292TIP3   OH2  818   8.291   7.084   4.334
  292TIP3    H1  819   8.234   7.093   4.258
  292TIP3    H2  820   8.355   7.018   4.309
  293TIP3   OH2  821   0.917   6.432   0.206
  293TIP3    H1  822   0.843   6.472   0.160
  293TIP3    H2  823   0.959   6.504   0.253
  294TIP3   OH2  824   6.876   6.329   3.442
  294TIP3    H1  825   6.862   6.360   3.353
  294TIP3    H2  826   6.873   6.233   3.435
  295TIP3   OH2  827   2.635   5.491   3.257
  295TIP3    H1  828   2.648   5.496   3.162
  295TIP3    H2  829   2.619   5.582   3.284
  296TIP3   OH2  830   7.211   5.640   5.375
  296TIP3    H1  831   7.163   5.712   5.334
  296TIP3    H2  832   7.196   5.653   5.469
  297TIP3   OH2  833   7.186   7.381   1.934
  297TIP3    H1  834   7.226   7.465   1.913
  297TIP3    H2  835   7.134   7.359   1.857
  298TIP3   OH2  836   4.238   3.324   3.804
  298TIP3    H1  837   4.207   3.262   3.870
  298TIP3    H2  838   4.162   3.341   3.749
  299TIP3   OH2  839   2.428   4.293   3.807
  299TIP3    H1  840   2.431   4.354   3.732
  299TIP3    H2  841   2.431   4.206   3.767
  300TIP3   OH2  842   6.129   2.309   1.150
  300TIP3    H1  843   6.051   2.343   1.195
  300TIP3    H2  844   6.202   2.333   1.207
  301TIP3   OH2  845   2.053   1.665   4.840
  301TIP3    H1  846   2.030   1.696   4.928
  301TIP3    H2  847   2.005   1.723   4.781
  302TIP3   OH2  848   0.185   5.909   2.211
  302TIP3    H1  849   0.133   5.988   2.225
  302TIP3    H2  850   0.132   5.856   2.151
  303TIP3   OH2  851   5.614   1.353   0.054
  303TIP3    H1  852   5.648   1.364  -0.035
  303TIP3    H2  853   5.686   1.312   0.102
  304TIP3   OH2  854   2.757   3.321   5.868
  304TIP3    H1  855   2.673   3.285   5.897
  304TIP3    H2  856   2.822   3.279   5.923
  305TIP3   OH2  857   5.800   5.432   5.705
  305TIP3    H1  858   5.760   5.422   5.618
  305TIP3    H2  859   5.825   5.343   5.729
  306TIP3   OH2  860   3.368   1.770   0.554
  306TIP3    H1  861   3.327   1.751   0.470
  306TIP3    H2  862   3.397   1.861   0.547
  307TIP3   OH2  863   4.340   2.133   4.201
  307TIP3    H1  864   4.297   2.051   4.227
  307TIP3    H2  865   4.378   2.114   4.115
  308TIP3   OH2  866   4.831   6.327   3.012
  308TIP3    H1  867   4.773   6.367   3.077
  308TIP3    H2  868   4.916   6.321   3.057
  309TIP3   OH2  869   6.988   0.513   5.300
  309TIP3    H1  870   7.051   0.442   5.300
  309TIP3    H2  871   7.028   0.581   5.246
  310TIP3   OH2  872   7.667   7.074   6.553
  310TIP3    H1  873   7.712   7.130   6.490
  310TIP3    H2  874   7.601   7.130   6.593
  311TIP3   OH2  875   6.512   5.414   0.090
  311TIP3    H1  876   6.536   5.506   0.104
  311TIP3    H2  877   6.533   5.399  -0.003
  312TIP3   OH2  878   4.915   1.201   3.056
  312TIP3    H1  879   4.866   1.255   2.995
  312TIP3    H2  880   4.984   1.259   3.089
  313TIP3   OH2  881   7.516   6.328   2.978
  313TIP3    H1  882   7.489   6.411   2.937
  313TIP3    H2  883   7.445   6.308   3.039
  314TIP3   OH2  884   2.185   7.265   3.092
  314TIP3    H1  885   2.191   7.170   3.086
  314TIP3    H2  886   2.220   7.297   3.009
  315TIP3   OH2  887   4.052   4.050   4.893
  315TIP3    H1  888   4.082   4.136   4.865
  315TIP3    H2  889   3.962   4.065   4.925
  316TIP3   OH2  890   1.741   1.364   3.623
  316TIP3    H1  891   1.716   1.274   3.602
  316TIP3    H2  892   1.826   1.355   3.668
  317TIP3   OH2  893   1.755   6.562   3.974
  317TIP3    H1  894   1.668   6.548   3.935
  317TIP3    H2  895   1.783   6.474   4.002
  318TIP3   OH2  896   7.752   5.266   5.425
  318TIP3    H1  897   7.749   5.171   5.418
  318TIP3    H2  898   7.797   5.282   5.509
  319TIP3   OH2  899   1.143   0.297   3.027
  319TIP3    H1  900   1.160   0.367   2.964
  319TIP3    H2  901   1.229   0.260   3.046
  320TIP3   OH2  902   1.583   0.243   3.317
  320TIP3    H1  903   1.654   0.243   3.252
  320TIP3    H2  904   1.575   0.151   3.343
  321TIP3   OH2  905   5.705   4.147   0.854
  321TIP3    H1  906   5.762   4.204   0.803
  321TIP3    H2  907   5.617   4.166   0.820
  322TIP3   OH2  908   2.630   1.304   4.470
  322TIP3    H1  909   2.582   1.221   4.470
  322TIP3    H2  910   2.567   1.368   4.437
  323TIP3   OH2  911   0.539   7.703   3.366
  323TIP3    H1  912   0.541   7.687   3.271
  323TIP3    H2  913   0.620   7.751   3.383
  324TIP3   OH2  914   7.027   1.561   4.295
  324TIP3    H1  915   7.039   1.614   4.374
  324TIP3    H2  916   6.941   1.587   4.261
  325TIP3   OH2  917   4.762   5.969   1.344
  325TIP3    H1  918   4.714   6.029   1.402
  325TIP3    H2  919   4.785   6.023   1.268
  326TIP3   OH2  920   8.054   3.121   3.795
  326TIP3    H1  921   8.077   3.208   3.763
  326TIP3    H2  922   7.987   3.136   3.861
  327TIP3   OH2  923   5.485   3.506   4.047
  327TIP3    H1  924   5.393   3.481   4.055
  327TIP3    H2  925   5.533   3.427   4.068
  328TIP3   OH2  926   1.116   7.816   3.905
  328TIP3    H1  927   1.083   7.786   3.821
  328TIP3    H2  928   1.162   7.740   3.942
  329TIP3   OH2  929   2.190   4.950   1.833
  329TIP3    H1  930   2.226   5.038   1.823
  329TIP3    H2  931   2.263   4.892   1.813
  330TIP3   OH2  932   1.684   2.442   4.992
  330TIP3    H1  933   1.748   2.484   5.050
  330TIP3    H2  934   1.685   2.495   4.913
  331TIP3   OH2  935   4.396   1.955   1.492
  331TIP3    H1  936   4.321   1.904   1.523
  331TIP3    H2  937   4.386   2.040   1.534
  332TIP3   OH2  938   3.311   5.660   0.129
  332TIP3    H1  939   3.261   5.585   0.161
  332TIP3    H2  940   3.394   5.657   0.178
  333TIP3   OH2  941   6.872   5.820   0.599
  333TIP3    H1  942   6.951   5.864   0.631
  333TIP3    H2  943   6.899   5.729   0.584
  334TIP3   OH2  944   3.110   0.949   5.496
  334TIP3    H1  945   3.123   1.025   5.553
  334TIP3    H2  946   3.198   0.928   5.463
  335TIP3   OH2  947   0.062   6.814   6.449
  335TIP3    H1  948   0.112   6.852   6.377
  335TIP3    H2  949   0.124   6.760   6.496
  336TIP3   OH2  950   7.725   5.805   1.889
  336TIP3    H1  951   7.636   5.791   1.856
  336TIP3    H2  952   7.771   5.724   1.869
  337TIP3   OH2  953   1.475   4.693   3.165
  337TIP3    H1  954   1.499   4.604   3.191
  337TIP3    H2  955   1.417   4.724   3.235
  338TIP3   OH2  956   5.659   1.771   3.326
  338TIP3    H1  957   5.736   1.782   3.270
  338TIP3    H2  958   5.604   1.847   3.308
  339TIP3   OH2  959   5.847   5.789   1.753
  339TIP3    H1  960   5.878   5.700   1.763
  339TIP3    H2  961   5.897   5.824   1.679
  340TIP3   OH2  962   3.023   3.322   6.382
  340TIP3    H1  963   2.981   3.242   6.415
  340TIP3    H2  964   3.115   3.312   6.405
  341TIP3   OH2  965   2.454   3.370   2.798
  341TIP3    H1  966   2.539   3.340   2.765
  341TIP3    H2  967   2.474   3.407   2.884
  342TIP3   OH2  968   6.645   7.027   4.129
  342TIP3    H1  969   6.707   6.960   4.099
  342TIP3    H2  970   6.570   7.017   4.071
  343TIP3   OH2  971   2.945   3.733   2.694
  343TIP3    H1  972   3.026   3.692   2.666
  343TIP3    H2  973   2.876   3.677   2.659
  344TIP3   OH2  974   6.860   6.079   0.410
  344TIP3    H1  975   6.821   6.006   0.459
  344TIP3    H2  976   6.872   6.148   0.475
  345TIP3   OH2  977   6.017   5.122   4.255
  345TIP3    H1  978   6.015   5.181   4.331
  345TIP3    H2  979   6.103   5.081   4.260
  346TIP3   OH2  980   3.231   7.825   6.036
  346TIP3    H1  981   3.169   7.846   5.966
  346TIP3    H2  982   3.308   7.791   5.991
  347TIP3   OH2  983   3.643   1.467   6.265
  347TIP3    H1  984   3.723   1.506   6.230
  347TIP3    H2  985   3.602   1.538   6.314
  348TIP3   OH2  986   7.235   0.973   1.757
  348TIP3    H1  987   7.148   1.008   1.776
  348TIP3    H2  988   7.267   1.028   1.685
  349TIP3   OH2  989   0.107   5.240   2.544
  349TIP3    H1  990   0.018   5.207   2.558
  349TIP3    H2  991   0.121   5.231   2.450
  350TIP3   OH2  992   8.037   5.118   2.807
  350TIP3    H1  993   7.942   5.115   2.804
  350TIP3    H2  994   8.059   5.208   2.781
  351TIP3   OH2  995   6.024   2.971   5.774
  351TIP3    H1  996   6.111   3.010   5.763
  351TIP3    H2  997   6.039   2.896   5.832
  352TIP3   OH2  998   5.004   4.641   6.465
  352TIP3    H1  999   5.005   4.574   6.534
  352TIP3    H2 1000   5.096   4.665   6.454
  353TIP3   OH2 1001   6.890   4.448   0.904
  353TIP3    H1 1002   6.865   4.471   0.814
  353TIP3    H2 1003   6.879   4.529   0.953
  354TIP3   OH2 1004   3.707   0.876   1.739
  354TIP3    H1 1005   3.676   0.789   1.713
  354TIP3    H2 1006   3.799   0.862   1.763
  355TIP3   OH2 1007   2.449   2.315   1.141
  355TIP3    H1 1008   2.533   2.294   1.101
  355TIP3    H2 1009   2.456   2.282   1.231
  356TIP3   OH2 1010   7.405   3.962   4.339
  356TIP3    H1 1011   7.471   3.900   4.309
  356TIP3    H2 1012   7.403   3.950   4.434
  357TIP3   OH2 1013   4.436   3.031   5.086
  357TIP3    H1 1014   4.360   2.976   5.066
  357TIP3    H2 1015   4.402   3.121   5.085
  358TIP3   OH2 1016   1.330   6.272  -0.012
  358TIP3    H1 1017   1.318   6.308   0.076
  358TIP3    H2 1018   1.423   6.286  -0.032
  359TIP3   OH2 1019   5.747   0.914   6.622
  359TIP3    H1 1020   5.680   0.921   6.689
  359TIP3    H2 1021   5.748   0.822   6.597
  360TIP3   OH2 1022   2.848   6.534   4.625
  360TIP3    H1 1023   2.899   6.471   4.677
  360TIP3    H2 1024   2.914   6.591   4.586
  361TIP3   OH2 1025   3.064   7.293   1.184
  361TIP3    H1 1026   3.098   7.380   1.203
  361TIP3    H2 1027   2.974   7.307   1.155
  362TIP3   OH2 1028   1.369   1.423   2.252
  362TIP3    H1 1029   1.281   1.457   2.236
  362TIP3    H2 1030   1.393   1.379   2.171
  363TIP3   OH2 1031   7.894   5.081   3.545
  363TIP3    H1 1032   7.872   5.171   3.522
  363TIP3    H2 1033   7.963   5.056   3.483
  364TIP3   OH2 1034   7.285   4.687   3.145
  364TIP3    H1 1035   7.254   4.617   3.203
  364TIP3    H2 1036   7.328   4.749   3.204
  365TIP3   OH2 1037   3.197   1.588   6.540
  365TIP3    H1 1038   3.244   1.552   6.615
  365TIP3    H2 1039   3.231   1.677   6.531
  366TIP3   OH2 1040   1.412   5.021   2.691
  366TIP3    H1 1041   1.423   5.033   2.785
  366TIP3    H2 1042   1.317   5.018   2.678
  367TIP3   OH2 1043   4.548   0.754   2.060
  367TIP3    H1 1044   4.627   0.807   2.054
  367TIP3    H2 1045   4.531   0.748   2.154
  368TIP3   OH2 1046   4.355   1.396   4.239
  368TIP3    H1 1047   4.352   1.481   4.195
  368TIP3    H2 1048   4.404   1.340   4.179
  369TIP3   OH2 1049   7.719   3.341   2.930
  369TIP3    H1 1050   7.795   3.398   2.924
  369TIP3    H2 1051   7.721   3.307   3.019
  370TIP3   OH2 1052   8.040   6.938   3.358
  370TIP3    H1 1053   8.113   6.989   3.323
  370TIP3    H2 1054   7.964   6.996   3.348
  371TIP3   OH2 1055   3.090   4.146   0.149
  371TIP3    H1 1056   3.070   4.167   0.240
  371TIP3    H2 1057   3.008   4.110   0.115
  372TIP3   OH2 1058   2.811   0.841   3.924
  372TIP3    H1 1059   2.805   0.913   3.861
  372TIP3    H2 1060   2.793   0.762   3.872
  373TIP3   OH2 1061   5.314   1.549   1.393
  373TIP3    H1 1062   5.300   1.502   1.475
  373TIP3    H2 1063   5.321   1.481   1.326
  374TIP3   OH2 1064   4.100   4.393   5.147
  374TIP3    H1 1065   4.173   4.368   5.090
  374TIP3    H2 1066   4.119   4.483   5.173
  375TIP3   OH2 1067   7.380   5.230   5.169
  375TIP3    H1 1068   7.307   5.242   5.229
  375TIP3    H2 1069   7.431   5.158   5.207
  376TIP3   OH2 1070   6.139   2.689   2.714
  376TIP3    H1 1071   6.090   2.756   2.666
  376TIP3    H2 1072   6.227   2.691   2.676
  377TIP3   OH2 1073   7.407   0.682   3.795
  377TIP3    H1 1074   7.493   0.652   3.765
  377TIP3    H2 1075   7.356   0.693   3.715
  378TIP3   OH2 1076   4.323   6.443   0.787
  378TIP3    H1 1077   4.333   6.368   0.728
  378TIP3    H2 1078   4.277   6.407   0.864
  379TIP3   OH2 1079   3.744   6.093   6.343
  379TIP3    H1 1080   3.801   6.168   6.323
  379TIP3    H2 1081   3.727   6.052   6.258
  380TIP3   OH2 1082   2.448   7.307   1.245
  380TIP3    H1 1083   2.495   7.337   1.167
  380TIP3    H2 1084   2.397   7.384   1.272
  381TIP3   OH2 1085   6.650   1.255   1.951
  381TIP3    H1 1086   6.672   1.166   1.922
  381TIP3    H2 1087   6.582   1.284   1.890
  382TIP3   OH2 1088   0.212   3.861   5.997
  382TIP3    H1 1089   0.205   3.779   6.046
  382TIP3    H2 1090   0.255   3.836   5.915
  383TIP3   OH2 1091   1.871   1.434   2.935
  383TIP3    H1 1092   1.781   1.426   2.901
  383TIP3    H2 1093   1.891   1.346   2.969
  384TIP3   OH2 1094   1.370   3.860   1.624
  384TIP3    H1 1095   1.413   3.808   1.692
  384TIP3    H2 1096   1.363   3.947   1.662
  385TIP3   OH2 1097   1.769   6.476   0.434
  385TIP3    H1 1098   1.714   6.457   0.510
  385TIP3    H2 1099   1.804   6.564   0.450
  386TIP3   OH2 1100   5.655   7.566   3.672
  386TIP3    H1 1101   5.599   7.592   3.745
  386TIP3    H2 1102   5.723   7.634   3.669
  387TIP3   OH2 1103   7.907   7.537   5.458
  387TIP3    H1 1104   7.915   7.572   5.547
  387TIP3    H2 1105   7.902   7.442   5.470
  388TIP3   OH2 1106   3.331   0.108   3.861
  388TIP3    H1 1107   3.284   0.033   3.824
  388TIP3    H2 1108   3.277   0.137   3.934
  389TIP3   OH2 1109   2.247   2.649   5.006
  389TIP3    H1 1110   2.233   2.569   5.057
  389TIP3    H2 1111   2.332   2.636   4.964
  390TIP3   OH2 1112   7.945   2.412   4.342
  390TIP3    H1 1113   7.975   2.501   4.322
  390TIP3    H2 1114   7.943   2.368   4.258
  391TIP3   OH2 1115   2.010   1.564   5.890
  391TIP3    H1 1116   1.970   1.568   5.977
  391TIP3    H2 1117   1.966   1.491   5.847
  392TIP3   OH2 1118   5.837   1.553   6.583
  392TIP3    H1 1119   5.771   1.582   6.646
  392TIP3    H2 1120   5.894   1.495   6.633
  393TIP3   OH2 1121   6.045   5.527   4.737
  393TIP3    H1 1122   6.106   5.488   4.674
  393TIP3    H2 1123   5.984   5.577   4.683
  394TIP3   OH2 1124   6.144   5.684   0.861
  394TIP3    H1 1125   6.129   5.696   0.955
  394TIP3    H2 1126   6.079   5.740   0.819
  395TIP3   OH2 1127   3.120   4.518   5.346
  395TIP3    H1 1128   3.038   4.529   5.395
  395TIP3    H2 1129   3.093   4.480   5.263
  396TIP3   OH2 1130   8.306   7.460   1.352
  396TIP3    H1 1131   8.258   7.380   1.373
  396TIP3    H2 1132   8.316   7.505   1.435
  397TIP3   OH2 1133   6.531   7.071   0.257
  397TIP3    H1 1134   6.463   7.139   0.249
  397TIP3    H2 1135   6.602   7.113   0.304
  398TIP3   OH2 1136   4.945   7.575   6.125
  398TIP3    H1 1137   4.986   7.662   6.121
  398TIP3    H2 1138   4.923   7.554   6.035
  399TIP3   OH2 1139   1.921   3.109   2.229
  399TIP3    H1 1140   1.829   3.134   2.241
  399TIP3    H2 1141   1.970   3.175   2.278
  400TIP3   OH2 1142   6.607   4.305   1.664
  400TIP3    H1 1143   6.533   4.286   1.722
  400TIP3    H2 1144   6.568   4.351   1.590
  401TIP3   OH2 1145   7.962   6.831   3.757
  401TIP3    H1 1146   8.042   6.873   3.725
  401TIP3    H2 1147   7.970   6.833   3.852
  402TIP3   OH2 1148   6.007   5.991   3.664
  402TIP3    H1 1149   5.978   6.076   3.631
  402TIP3    H2 1150   6.095   6.007   3.698
  403TIP3   OH2 1151   0.925   4.691   2.480
  403TIP3    H1 1152   0.907   4.601   2.509
  403TIP3    H2 1153   0.865   4.745   2.530
  404TIP3   OH2 1154   3.777   7.032   3.049
  404TIP3    H1 1155   3.786   6.975   3.125
  404TIP3    H2 1156   3.866   7.043   3.017
  405TIP3   OH2 1157   4.782   3.876   4.945
  405TIP3    H1 1158   4.757   3.883   5.038
  405TIP3    H2 1159   4.734   3.800   4.913
  406TIP3   OH2 1160   5.797   0.932   0.270
  406TIP3    H1 1161   5.718   0.897   0.229
  406TIP3    H2 1162   5.767   0.962   0.356
  407TIP3   OH2 1163   1.292   6.407   0.233
  407TIP3    H1 1164   1.288   6.436   0.324
  407TIP3    H2 1165   1.384   6.417   0.208
  408TIP3   OH2 1166   1.226   6.992   1.928
  408TIP3    H1 1167   1.216   7.051   2.003
  408TIP3    H2 1168   1.315   7.008   1.897
  409TIP3   OH2 1169   6.620   6.440   6.777
  409TIP3    H1 1170   6.580   6.449   6.690
  409TIP3    H2 1171   6.705   6.401   6.760
  410TIP3   OH2 1172   6.877   6.465   4.285
  410TIP3    H1 1173   6.858   6.558   4.282
  410TIP3    H2 1174   6.965   6.457   4.248
  411TIP3   OH2 1175   2.048   6.653   4.982
  411TIP3    H1 1176   2.055   6.563   4.952
  411TIP3    H2 1177   2.085   6.705   4.911
  412TIP3   OH2 1178   2.831   5.010   1.083
  412TIP3    H1 1179   2.888   5.085   1.062
  412TIP3    H2 1180   2.743   5.042   1.068
  413TIP3   OH2 1181   6.398   7.307   0.147
  413TIP3    H1 1182   6.304   7.294   0.155
  413TIP3    H2 1183   6.423   7.353   0.227
  414TIP3   OH2 1184   7.285   2.735   5.881
  414TIP3    H1 1185   7.264   2.804   5.818
  414TIP3    H2 1186   7.327   2.780   5.954
  415TIP3   OH2 1187   4.859   6.441   2.753
  415TIP3    H1 1188   4.937   6.411   2.706
  415TIP3    H2 1189   4.861   6.392   2.835
  416TIP3   OH2 1190   1.602   1.910   3.840
  416TIP3    H1 1191   1.648   1.941   3.762
  416TIP3    H2 1192   1.509   1.922   3.818
  417TIP3   OH2 1193   7.326   2.753   6.602
  417TIP3    H1 1194   7.360   2.666   6.623
  417TIP3    H2 1195   7.257   2.768   6.666
  418TIP3   OH2 1196   7.448   0.472   2.111
  418TIP3    H1 1197   7.368   0.509   2.073
  418TIP3    H2 1198   7.420   0.391   2.153
  419TIP3   OH2 1199   0.865   5.921   4.503
  419TIP3    H1 1200   0.916   5.982   4.557
  419TIP3    H2 1201   0.846   5.970   4.422
  420TIP3   OH2 1202   1.263   7.219   3.415
  420TIP3    H1 1203   1.356   7.225   3.438
  420TIP3    H2 1204   1.262   7.194   3.323
  421TIP3   OH2 1205   2.824   2.033   0.773
  421TIP3    H1 1206   2.759   2.015   0.841
  421TIP3    H2 1207   2.908   2.011   0.814
  422TIP3   OH2 1208   1.130   1.445   3.797
  422TIP3    H1 1209   1.103   1.456   3.889
  422TIP3    H2 1210   1.110   1.529   3.756
  423TIP3   OH2 1211   2.710   7.632   6.695
  423TIP3    H1 1212   2.646   7.590   6.754
  423TIP3    H2 1213   2.751   7.700   6.749
  424TIP3   OH2 1214   5.313   0.339   0.245
  424TIP3    H1 1215   5.240   0.326   0.306
  424TIP3    H2 1216   5.276   0.324   0.158
  425TIP3   OH2 1217   3.845   5.834   1.939
  425TIP3    H1 1218   3.858   5.864   1.849
  425TIP3    H2 1219   3.819   5.912   1.987
  426TIP3   OH2 1220   2.322   0.446   5.397
  426TIP3    H1 1221   2.385   0.385   5.434
  426TIP3    H2 1222   2.334   0.440   5.302
  427TIP3   OH2 1223   0.761   3.529   6.479
  427TIP3    H1 1224   0.745   3.518   6.385
  427TIP3    H2 1225   0.691   3.479   6.521
  428TIP3   OH2 1226   3.239   2.402   3.821
  428TIP3    H1 1227   3.325   2.395   3.780
  428TIP3    H2 1228   3.247   2.476   3.880
  429TIP3   OH2 1229   7.137   0.843   3.754
  429TIP3    H1 1230   7.047   0.862   3.728
  429TIP3    H2 1231   7.161   0.765   3.704
  430TIP3   OH2 1232   3.158   4.429   3.821
  430TIP3    H1 1233   3.125   4.418   3.732
  430TIP3    H2 1234   3.094   4.383   3.876
  431TIP3   OH2 1235   2.544   6.883   1.756
  431TIP3    H1 1236   2.559   6.978   1.757
  431TIP3    H2 1237   2.519   6.861   1.845
  432TIP3   OH2 1238   0.348   6.053   3.481
  432TIP3    H1 1239   0.339   6.039   3.387
  432TIP3    H2 1240   0.312   5.973   3.520
  433TIP3   OH2 1241   2.104   3.756   3.735
  433TIP3    H1 1242   2.125   3.834   3.683
  433TIP3    H2 1243   2.062   3.696   3.673
  434TIP3   OH2 1244   5.855   5.044   3.690
  434TIP3    H1 1245   5.849   4.956   3.726
  434TIP3    H2 1246   5.796   5.043   3.614
  435TIP3   OH2 1247   5.560   5.825   2.913
  435TIP3    H1 1248   5.564   5.899   2.974
  435TIP3    H2 1249   5.615   5.851   2.840
  436TIP3   OH2 1250   0.432   7.533   4.169
  436TIP3    H1 1251   0.458   7.593   4.238
  436TIP3    H2 1252   0.349   7.495   4.198
  437TIP3   OH2 1253   3.052   4.961   4.254
  437TIP3    H1 1254   3.147   4.974   4.259
  437TIP3    H2 1255   3.016   5.050   4.253
  438TIP3   OH2 1256   7.367   4.260   6.371
  438TIP3    H1 1257   7.381   4.305   6.288
  438TIP3    H2 1258   7.424   4.182   6.367
  439TIP3   OH2 1259   0.542   7.481   6.661
  439TIP3    H1 1260   0.618   7.454   6.713
  439TIP3    H2 1261   0.532   7.412   6.595
  440TIP3   OH2 1262   5.816   2.817   0.710
  440TIP3    H1 1263   5.806   2.807   0.804
  440TIP3    H2 1264   5.731   2.792   0.674
  441TIP3   OH2 1265   6.223   7.504   1.227
  441TIP3    H1 1266   6.185   7.481   1.311
  441TIP3    H2 1267   6.316   7.488   1.237
  442TIP3   OH2 1268   1.716   5.770   1.243
  442TIP3    H1 1269   1.707   5.784   1.338
  442TIP3    H2 1270   1.732   5.676   1.234
  443TIP3   OH2 1271   7.153   0.438   2.341
  443TIP3    H1 1272   7.158   0.531   2.318
  443TIP3    H2 1273   7.202   0.432   2.423
  444TIP3   OH2 1274   3.199   5.139   1.001
  444TIP3    H1 1275   3.145   5.217   0.997
  444TIP3    H2 1276   3.157   5.077   0.941
  445TIP3   OH2 1277   8.271   4.221   3.633
  445TIP3    H1 1278   8.326   4.299   3.624
  445TIP3    H2 1279   8.182   4.255   3.632
  446TIP3   OH2 1280   1.708   2.471   4.419
  446TIP3    H1 1281   1.666   2.387   4.401
  446TIP3    H2 1282   1.678   2.529   4.348
  447TIP3   OH2 1283   7.788   6.980   4.714
  447TIP3    H1 1284   7.818   6.925   4.642
  447TIP3    H2 1285   7.764   6.918   4.783
  448TIP3   OH2 1286   0.289   2.970   4.794
  448TIP3    H1 1287   0.208   2.951   4.841
  448TIP3    H2 1288   0.297   2.898   4.731
  449TIP3   OH2 1289   5.707   3.794   4.477
  449TIP3    H1 1290   5.685   3.712   4.522
  449TIP3    H2 1291   5.637   3.806   4.413
  450TIP3   OH2 1292   0.479   5.172   3.926
  450TIP3    H1 1293   0.419   5.124   3.982
  450TIP3    H2 1294   0.563   5.127   3.936
  451TIP3   OH2 1295   6.794   4.117   1.790
  451TIP3    H1 1296   6.883   4.151   1.785
  451TIP3    H2 1297   6.746   4.165   1.722
  452TIP3   OH2 1298   2.766   5.911   1.210
  452TIP3    H1 1299   2.705   5.965   1.161
  452TIP3    H2 1300   2.783   5.961   1.290
  453TIP3   OH2 1301   6.468   6.780   6.378
  453TIP3    H1 1302   6.469   6.704   6.320
  453TIP3    H2 1303   6.555   6.819   6.368
  454TIP3   OH2 1304   8.339   6.824   4.974
  454TIP3    H1 1305   8.275   6.796   4.909
  454TIP3    H2 1306   8.370   6.909   4.943
  455TIP3   OH2 1307   2.210   3.633   2.969
  455TIP3    H1 1308   2.304   3.646   2.955
  455TIP3    H2 1309   2.177   3.719   2.993
  456TIP3   OH2 1310   5.646   1.785   3.964
  456TIP3    H1 1311   5.618   1.733   4.039
  456TIP3    H2 1312   5.663   1.720   3.895
  457TIP3   OH2 1313   3.044   2.978   0.125
  457TIP3    H1 1314   3.048   2.928   0.043
  457TIP3    H2 1315   2.971   2.939   0.173
  458TIP3   OH2 1316   5.498   0.353   6.672
  458TIP3    H1 1317   5.577   0.328   6.625
  458TIP3    H2 1318   5.528   0.417   6.737
  459TIP3   OH2 1319   1.893   3.301   2.830
  459TIP3    H1 1320   1.900   3.278   2.923
  459TIP3    H2 1321   1.964   3.364   2.816
  460TIP3   OH2 1322   0.222   6.435   5.887
  460TIP3    H1 1323   0.208   6.398   5.974
  460TIP3    H2 1324   0.181   6.372   5.827
  461TIP3   OH2 1325   1.893   0.556   6.418
  461TIP3    H1 1326   1.821   0.618   6.429
  461TIP3    H2 1327   1.852   0.470   6.429
  462TIP3   OH2 1328   1.163   2.153   5.303
  462TIP3    H1 1329   1.088   2.200   5.340
  462TIP3    H2 1330   1.212   2.220   5.256
  463TIP3   OH2 1331   4.804   2.575   4.853
  463TIP3    H1 1332   4.860   2.549   4.780
  463TIP3    H2 1333   4.850   2.650   4.892
  464TIP3   OH2 1334   3.321   2.387   1.487
  464TIP3    H1 1335   3.311   2.450   1.558
  464TIP3    H2 1336   3.268   2.423   1.416
  465TIP3   OH2 1337   1.208   1.046   1.562
  465TIP3    H1 1338   1.148   1.112   1.528
  465TIP3    H2 1339   1.293   1.071   1.528
  466TIP3   OH2 1340   6.512   3.263   5.374
  466TIP3    H1 1341   6.578   3.290   5.311
  466TIP3    H2 1342   6.430   3.261   5.325
  467TIP3   OH2 1343   2.274   6.086   4.626
  467TIP3    H1 1344   2.297   6.118   4.539
  467TIP3    H2 1345   2.183   6.113   4.639
  468TIP3   OH2 1346   4.461   6.719   3.011
  468TIP3    H1 1347   4.518   6.786   2.974
  468TIP3    H2 1348   4.511   6.638   3.006
  469TIP3   OH2 1349   0.698   2.241   0.060
  469TIP3    H1 1350   0.714   2.227   0.153
  469TIP3    H2 1351   0.785   2.251   0.022
  470TIP3   OH2 1352   3.097   0.909   4.260
  470TIP3    H1 1353   3.007   0.915   4.230
  470TIP3    H2 1354   3.135   0.837   4.210
  471TIP3   OH2 1355   0.156   2.401   6.634
  471TIP3    H1 1356   0.178   2.315   6.597
  471TIP3    H2 1357   0.230   2.421   6.691
  472TIP3   OH2 1358   3.986   5.624   2.252
  472TIP3    H1 1359   4.058   5.575   2.291
  472TIP3    H2 1360   3.907   5.581   2.284
  473TIP3   OH2 1361   6.252   2.168   4.574
  473TIP3    H1 1362   6.314   2.167   4.501
  473TIP3    H2 1363   6.301   2.206   4.647
  474TIP3   OH2 1364   0.745   3.705   0.078
  474TIP3    H1 1365   0.752   3.626   0.133
  474TIP3    H2 1366   0.719   3.774   0.140
  475TIP3   OH2 1367   4.982   7.105   3.797
  475TIP3    H1 1368   5.062   7.089   3.746
  475TIP3    H2 1369   4.930   7.164   3.743
  476TIP3   OH2 1370   3.687   2.512   3.464
  476TIP3    H1 1371   3.683   2.597   3.421
  476TIP3    H2 1372   3.675   2.448   3.393
  477TIP3   OH2 1373   4.088   4.994   6.136
  477TIP3    H1 1374   4.045   5.078   6.152
  477TIP3    H2 1375   4.029   4.948   6.076
  478TIP3   OH2 1376   7.207   7.741   3.169
  478TIP3    H1 1377   7.212   7.646   3.182
  478TIP3    H2 1378   7.121   7.755   3.129
  479TIP3   OH2 1379   6.043   2.047   5.630
  479TIP3    H1 1380   6.043   1.955   5.604
  479TIP3    H2 1381   5.965   2.083   5.588
  480TIP3   OH2 1382   6.109   0.257   2.324
  480TIP3    H1 1383   6.035   0.197   2.321
  480TIP3    H2 1384   6.132   0.263   2.417
  481TIP3   OH2 1385   3.498   4.238   5.422
  481TIP3    H1 1386   3.560   4.209   5.354
  481TIP3    H2 1387   3.412   4.228   5.381
  482TIP3   OH2 1388   0.751   0.867   6.756
  482TIP3    H1 1389   0.671   0.882   6.705
  482TIP3    H2 1390   0.724   0.809   6.827
  483TIP3   OH2 1391   1.663   3.648   6.510
  483TIP3    H1 1392   1.693   3.563   6.477
  483TIP3    H2 1393   1.743   3.693   6.538
  484TIP3   OH2 1394   1.735   7.404   6.124
  484TIP3    H1 1395   1.720   7.316   6.157
  484TIP3    H2 1396   1.793   7.445   6.189
  485TIP3   OH2 1397   2.616   7.696   0.696
  485TIP3    H1 1398   2.556   7.654   0.634
  485TIP3    H2 1399   2.635   7.782   0.657
  486TIP3   OH2 1400   7.660   0.061   5.688
  486TIP3    H1 1401   7.751   0.050   5.658
  486TIP3    H2 1402   7.614   0.097   5.612
  487TIP3   OH2 1403   3.186   3.024   2.953
  487TIP3    H1 1404   3.234   3.040   2.872
  487TIP3    H2 1405   3.101   2.990   2.925
  488TIP3   OH2 1406   0.108   4.105   2.024
  488TIP3    H1 1407   0.039   4.133   1.964
  488TIP3    H2 1408   0.169   4.179   2.026
  489TIP3   OH2 1409   1.073   6.635   3.026
  489TIP3    H1 1410   1.027   6.698   3.081
  489TIP3    H2 1411   1.055   6.550   3.064
  490TIP3   OH2 1412   3.521   5.652   5.099
  490TIP3    H1 1413   3.504   5.568   5.142
  490TIP3    H2 1414   3.486   5.717   5.158
  491TIP3   OH2 1415   8.119   4.080   1.377
  491TIP3    H1 1416   8.070   4.114   1.452
  491TIP3    H2 1417   8.146   3.992   1.404
  492TIP3   OH2 1418   8.002   6.632   2.785
  492TIP3    H1 1419   7.972   6.647   2.874
  492TIP3    H2 1420   8.050   6.712   2.762
  493TIP3   OH2 1421   1.543   7.183   0.445
  493TIP3    H1 1422   1.483   7.167   0.518
  493TIP3    H2 1423   1.486   7.194   0.369
  494TIP3   OH2 1424   6.704   5.827   6.164
  494TIP3    H1 1425   6.716   5.778   6.245
  494TIP3    H2 1426   6.776   5.798   6.108
  495TIP3   OH2 1427   1.072   5.274   0.166
  495TIP3    H1 1428   1.166   5.290   0.165
  495TIP3    H2 1429   1.060   5.193   0.116
  496TIP3   OH2 1430   1.014   3.190   3.505
  496TIP3    H1 1431   0.973   3.119   3.553
  496TIP3    H2 1432   1.070   3.234   3.569
  497TIP3   OH2 1433   0.571   5.232   0.461
  497TIP3    H1 1434   0.507   5.177   0.506
  497TIP3    H2 1435   0.613   5.173   0.398
  498TIP3   OH2 1436   4.915   2.875   2.518
  498TIP3    H1 1437   4.927   2.959   2.561
  498TIP3    H2 1438   5.001   2.854   2.481
  499TIP3   OH2 1439   0.962   1.826   2.769
  499TIP3    H1 1440   0.991   1.830   2.679
  499TIP3    H2 1441   1.042   1.827   2.821
  500TIP3   OH2 1442   2.368   6.075   1.026
  500TIP3    H1 1443   2.310   6.000   1.034
  500TIP3    H2 1444   2.341   6.133   1.097
  501TIP3   OH2 1445   2.690   7.806   3.170
  501TIP3    H1 1446   2.640   7.729   3.198
  501TIP3    H2 1447   2.690   7.863   3.246
  502TIP3   OH2 1448   4.435   4.160   6.151
  502TIP3    H1 1449   4.376   4.085   6.140
  502TIP3    H2 1450   4.475   4.172   6.065
  503TIP3   OH2 1451   3.779   5.403   1.262
  503TIP3    H1 1452   3.755   5.310   1.257
  503TIP3    H2 1453   3.695   5.449   1.263
  504TIP3   OH2 1454   5.427   2.544   4.510
  504TIP3    H1 1455   5.481   2.525   4.587
  504TIP3    H2 1456   5.340   2.511   4.532
  505TIP3   OH2 1457   5.196   7.006   4.747
  505TIP3    H1 1458   5.201   7.011   4.652
  505TIP3    H2 1459   5.247   6.929   4.769
  506TIP3   OH2 1460   0.419   3.213   4.015
  506TIP3    H1 1461   0.511   3.225   4.037
  506TIP3    H2 1462   0.393   3.296   3.975
  507TIP3   OH2 1463   0.944   7.387   2.639
  507TIP3    H1 1464   0.951   7.387   2.734
  507TIP3    H2 1465   0.870   7.445   2.620
  508TIP3   OH2 1466   0.072   2.413   5.835
  508TIP3    H1 1467   0.052   2.357   5.760
  508TIP3    H2 1468  -0.011   2.423   5.880
  509TIP3   OH2 1469   1.858   2.781   4.336
  509TIP3    H1 1470   1.764   2.790   4.321
  509TIP3    H2 1471   1.897   2.773   4.249
  510TIP3   OH2 1472   7.752   0.906   5.095
  510TIP3    H1 1473   7.833   0.954   5.111
  510TIP3    H2 1474   7.753   0.887   5.001
  511TIP3   OH2 1475   6.454   6.675   2.086
  511TIP3    H1 1476   6.412   6.734   2.149
  511TIP3    H2 1477   6.396   6.599   2.082
  512TIP3   OH2 1478   8.111   0.656   5.873
  512TIP3    H1 1479   8.064   0.606   5.806
  512TIP3    H2 1480   8.120   0.744   5.836
  513TIP3   OH2 1481   0.115   6.258   5.492
  513TIP3    H1 1482   0.141   6.224   5.577
  513TIP3    H2 1483   0.092   6.181   5.441
  514TIP3   OH2 1484   3.236   3.073   5.057
  514TIP3    H1 1485   3.316   3.026   5.079
  514TIP3    H2 1486   3.169   3.005   5.049
  515TIP3   OH2 1487   5.115   7.815   3.185
  515TIP3    H1 1488   5.193   7.819   3.130
  515TIP3    H2 1489   5.048   7.863   3.136
  516TIP3   OH2 1490   3.397   6.990   4.957
  516TIP3    H1 1491   3.461   6.975   5.027
  516TIP3    H2 1492   3.317   7.015   5.004
  517TIP3   OH2 1493   3.659   5.470   3.318
  517TIP3    H1 1494   3.632   5.539   3.258
  517TIP3    H2 1495   3.578   5.428   3.345
  518TIP3   OH2 1496   0.930   7.612   5.083
  518TIP3    H1 1497   0.928   7.644   4.993
  518TIP3    H2 1498   0.975   7.681   5.132
  519TIP3   OH2 1499   6.323   2.934   1.539
  519TIP3    H1 1500   6.243   2.912   1.586
  519TIP3    H2 1501   6.386   2.956   1.608
  520TIP3   OH2 1502   1.942   3.942   0.959
  520TIP3    H1 1503   2.020   3.987   0.928
  520TIP3    H2 1504   1.874   3.965   0.895
  521TIP3   OH2 1505   3.306   5.563   6.425
  521TIP3    H1 1506   3.333   5.472   6.415
  521TIP3    H2 1507   3.364   5.613   6.367
  522TIP3   OH2 1508   4.662   4.453   4.354
  522TIP3    H1 1509   4.750   4.478   4.328
  522TIP3    H2 1510   4.630   4.526   4.407
  523TIP3   OH2 1511   2.069   7.303   1.469
  523TIP3    H1 1512   2.160   7.329   1.483
  523TIP3    H2 1513   2.047   7.336   1.382
  524TIP3   OH2 1514   4.224   4.457   0.422
  524TIP3    H1 1515   4.269   4.536   0.450
  524TIP3    H2 1516   4.131   4.476   0.433
  525TIP3   OH2 1517   2.964   1.417   5.652
  525TIP3    H1 1518   2.946   1.485   5.587
  525TIP3    H2 1519   3.000   1.464   5.727
  526TIP3   OH2 1520   4.099   6.902   6.530
  526TIP3    H1 1521   4.054   6.881   6.612
  526TIP3    H2 1522   4.162   6.831   6.518
  527TIP3   OH2 1523   2.686   5.153   2.299
  527TIP3    H1 1524   2.656   5.218   2.236
  527TIP3    H2 1525   2.746   5.202   2.357
  528TIP3   OH2 1526   4.691   3.890   4.384
  528TIP3    H1 1527   4.710   3.941   4.463
  528TIP3    H2 1528   4.623   3.828   4.411
  529TIP3   OH2 1529   2.393   4.450   4.814
  529TIP3    H1 1530   2.405   4.459   4.719
  529TIP3    H2 1531   2.477   4.477   4.851
  530TIP3   OH2 1532   4.573   1.194   4.119
  530TIP3    H1 1533   4.644   1.213   4.058
  530TIP3    H2 1534   4.528   1.119   4.081
  531TIP3   OH2 1535   6.959   2.596   1.853
  531TIP3    H1 1536   7.053   2.600   1.835
  531TIP3    H2 1537   6.948   2.515   1.903
  532TIP3   OH2 1538   4.622   6.615   0.322
  532TIP3    H1 1539   4.575   6.611   0.405
  532TIP3    H2 1540   4.629   6.524   0.294
  533TIP3   OH2 1541   7.744   5.773   4.675
  533TIP3    H1 1542   7.834   5.753   4.702
  533TIP3    H2 1543   7.691   5.749   4.750
  534TIP3   OH2 1544   6.546   2.015   5.788
  534TIP3    H1 1545   6.613   2.027   5.721
  534TIP3    H2 1546   6.470   1.982   5.741
  535TIP3   OH2 1547  -0.020   1.755   2.212
  535TIP3    H1 1548  -0.062   1.676   2.246
  535TIP3    H2 1549   0.042   1.781   2.280
  536TIP3   OH2 1550   7.879   6.437   5.345
  536TIP3    H1 1551   7.891   6.488   5.425
  536TIP3    H2 1552   7.958   6.384   5.337
  537TIP3   OH2 1553   4.167   5.248   0.882
  537TIP3    H1 1554   4.173   5.236   0.977
  537TIP3    H2 1555   4.243   5.302   0.860
  538TIP3   OH2 1556   0.722   7.245   5.140
  538TIP3    H1 1557   0.797   7.229   5.197
  538TIP3    H2 1558   0.646   7.215   5.190
  539TIP3   OH2 1559   3.589   6.984   1.618
  539TIP3    H1 1560   3.626   6.976   1.530
  539TIP3    H2 1561   3.665   6.985   1.676
  540TIP3   OH2 1562   5.379   6.051   0.355
  540TIP3    H1 1563   5.393   6.029   0.263
  540TIP3    H2 1564   5.377   5.967   0.400
  541TIP3   OH2 1565   6.586   0.176   0.501
  541TIP3    H1 1566   6.638   0.255   0.485
  541TIP3    H2 1567   6.643   0.104   0.473
  542TIP3   OH2 1568   6.404   6.427   5.386
  542TIP3    H1 1569   6.414   6.337   5.354
  542TIP3    H2 1570   6.367   6.475   5.312
  543TIP3   OH2 1571   4.522   2.094   3.379
  543TIP3    H1 1572   4.577   2.017   3.367
  543TIP3    H2 1573   4.436   2.068   3.346
  544TIP3   OH2 1574   6.295   4.593   6.537
  544TIP3    H1 1575   6.375   4.549   6.567
  544TIP3    H2 1576   6.326   4.673   6.495
  545TIP3   OH2 1577   0.310   1.301   6.686
  545TIP3    H1 1578   0.250   1.256   6.627
  545TIP3    H2 1579   0.296   1.394   6.668
  546TIP3   OH2 1580   0.716   2.461   2.539
  546TIP3    H1 1581   0.811   2.448   2.547
  546TIP3    H2 1582   0.684   2.380   2.500
  547TIP3   OH2 1583   0.118   6.209   0.759
  547TIP3    H1 1584   0.209   6.228   0.739
  547TIP3    H2 1585   0.107   6.116   0.737
  548TIP3   OH2 1586   1.002   0.974   0.654
  548TIP3    H1 1587   0.949   0.919   0.598
  548TIP3    H2 1588   0.967   0.960   0.742
  549TIP3   OH2 1589   2.299   5.230   2.775
  549TIP3    H1 1590   2.204   5.226   2.783
  549TIP3    H2 1591   2.323   5.155   2.722
  550TIP3   OH2 1592   5.825   7.021   5.496
  550TIP3    H1 1593   5.828   6.926   5.499
  550TIP3    H2 1594   5.837   7.043   5.404
  551TIP3   OH2 1595   1.189   3.340   1.888
  551TIP3    H1 1596   1.283   3.322   1.889
  551TIP3    H2 1597   1.170   3.357   1.796
  552TIP3   OH2 1598   1.727   6.007   6.120
  552TIP3    H1 1599   1.799   5.969   6.070
  552TIP3    H2 1600   1.700   5.937   6.180
  553TIP3   OH2 1601   4.919   5.742   2.045
  553TIP3    H1 1602   4.885   5.712   2.129
  553TIP3    H2 1603   4.959   5.665   2.006
  554TIP3   OH2 1604   0.633   1.286   5.943
  554TIP3    H1 1605   0.607   1.338   6.018
  554TIP3    H2 1606   0.629   1.195   5.973
  555TIP3   OH2 1607   7.235   1.124   4.231
  555TIP3    H1 1608   7.241   1.056   4.298
  555TIP3    H2 1609   7.204   1.078   4.153
  556TIP3   OH2 1610   6.233   4.942   6.602
  556TIP3    H1 1611   6.287   4.909   6.531
  556TIP3    H2 1612   6.148   4.959   6.562
  557TIP3   OH2 1613   2.806   0.596   0.107
  557TIP3    H1 1614   2.783   0.644   0.186
  557TIP3    H2 1615   2.876   0.648   0.067
  558TIP3   OH2 1616   5.174   2.830   2.412
  558TIP3    H1 1617   5.199   2.743   2.445
  558TIP3    H2 1618   5.177   2.821   2.317
  559TIP3   OH2 1619   4.428   0.484   4.495
  559TIP3    H1 1620   4.497   0.450   4.438
  559TIP3    H2 1621   4.361   0.515   4.435
  560TIP3   OH2 1622   5.513   0.559   4.212
  560TIP3    H1 1623   5.514   0.534   4.304
  560TIP3    H2 1624   5.421   0.578   4.193
  561TIP3   OH2 1625   0.346   0.469   1.606
  561TIP3    H1 1626   0.328   0.563   1.607
  561TIP3    H2 1627   0.367   0.450   1.514
  562TIP3   OH2 1628   1.259   0.105   1.839
  562TIP3    H1 1629   1.218   0.046   1.775
  562TIP3    H2 1630   1.189   0.123   1.902
  563TIP3   OH2 1631   6.717   1.224   6.585
  563TIP3    H1 1632   6.727   1.202   6.493
  563TIP3    H2 1633   6.713   1.319   6.588
  564TIP3   OH2 1634   7.649   5.153   5.018
  564TIP3    H1 1635   7.665   5.066   4.981
  564TIP3    H2 1636   7.578   5.188   4.964
  565TIP3   OH2 1637   7.286   3.999   2.902
  565TIP3    H1 1638   7.210   4.005   2.844
  565TIP3    H2 1639   7.305   4.090   2.925
  566TIP3   OH2 1640   6.106   4.175   1.016
  566TIP3    H1 1641   6.105   4.090   0.972
  566TIP3    H2 1642   6.062   4.234   0.955
  567TIP3   OH2 1643   8.216   1.098   5.985
  567TIP3    H1 1644   8.269   1.178   5.992
  567TIP3    H2 1645   8.276   1.033   5.947
  568TIP3   OH2 1646   3.394   6.235   2.078
  568TIP3    H1 1647   3.328   6.304   2.067
  568TIP3    H2 1648   3.468   6.264   2.024
  569TIP3   OH2 1649   2.793   7.422   1.716
  569TIP3    H1 1650   2.865   7.451   1.661
  569TIP3    H2 1651   2.819   7.334   1.746
  570TIP3   OH2 1652   3.951   6.742   5.768
  570TIP3    H1 1653   4.045   6.757   5.763
  570TIP3    H2 1654   3.941   6.647   5.768
  571TIP3   OH2 1655   1.227   4.717   1.947
  571TIP3    H1 1656   1.188   4.630   1.938
  571TIP3    H2 1657   1.312   4.700   1.988
  572TIP3   OH2 1658   7.356   2.039   4.069
  572TIP3    H1 1659   7.398   1.958   4.098
  572TIP3    H2 1660   7.339   2.087   4.151
  573TIP3   OH2 1661   6.368   4.348   0.401
  573TIP3    H1 1662   6.327   4.297   0.471
  573TIP3    H2 1663   6.299   4.359   0.336
  574TIP3   OH2 1664   0.717   3.926   2.722
  574TIP3    H1 1665   0.656   3.998   2.704
  574TIP3    H2 1666   0.803   3.967   2.718
  575TIP3   OH2 1667   7.072   1.452   5.407
  575TIP3    H1 1668   7.148   1.508   5.393
  575TIP3    H2 1669   6.997   1.507   5.384
  576TIP3   OH2 1670   6.515   0.104   2.551
  576TIP3    H1 1671   6.516   0.056   2.634
  576TIP3    H2 1672   6.527   0.037   2.484
  577TIP3   OH2 1673   1.754   0.314   0.353
  577TIP3    H1 1674   1.824   0.374   0.380
  577TIP3    H2 1675   1.682   0.371   0.326
  578TIP3   OH2 1676   7.349   4.881   4.476
  578TIP3    H1 1677   7.309   4.875   4.563
  578TIP3    H2 1678   7.331   4.796   4.436
  579TIP3   OH2 1679   3.082   1.318   1.735
  579TIP3    H1 1680   3.177   1.323   1.727
  579TIP3    H2 1681   3.063   1.353   1.822
  580TIP3   OH2 1682   4.072   5.493   0.475
  580TIP3    H1 1683   4.046   5.410   0.436
  580TIP3    H2 1684   4.166   5.485   0.489
  581TIP3   OH2 1685   2.715   1.216   5.164
  581TIP3    H1 1686   2.621   1.231   5.174
  581TIP3    H2 1687   2.724   1.120   5.170
  582TIP3   OH2 1688   2.133   2.727   3.360
  582TIP3    H1 1689   2.165   2.692   3.277
  582TIP3    H2 1690   2.099   2.813   3.337
  583TIP3   OH2 1691   6.930   3.853   3.245
  583TIP3    H1 1692   6.895   3.766   3.225
  583TIP3    H2 1693   7.020   3.851   3.212
  584TIP3   OH2 1694   1.178   4.037   4.007
  584TIP3    H1 1695   1.220   3.994   3.932
  584TIP3    H2 1696   1.181   4.130   3.985
  585TIP3   OH2 1697   0.926   5.357   3.813
  585TIP3    H1 1698   0.944   5.449   3.796
  585TIP3    H2 1699   0.875   5.358   3.894
  586TIP3   OH2 1700   3.640   4.811   6.694
  586TIP3    H1 1701   3.720   4.763   6.671
  586TIP3    H2 1702   3.666   4.903   6.691
  587TIP3   OH2 1703   2.125   2.836   5.536
  587TIP3    H1 1704   2.075   2.917   5.545
  587TIP3    H2 1705   2.073   2.781   5.478
  588TIP3   OH2 1706   7.997   3.359   5.387
  588TIP3    H1 1707   8.071   3.406   5.424
  588TIP3    H2 1708   7.920   3.413   5.409
  589TIP3   OH2 1709   7.638   7.715   3.145
  589TIP3    H1 1710   7.549   7.747   3.156
  589TIP3    H2 1711   7.635   7.661   3.066
  590TIP3   OH2 1712   5.402   3.063   6.077
  590TIP3    H1 1713   5.470   3.070   6.144
  590TIP3    H2 1714   5.397   2.970   6.057
  591TIP3   OH2 1715   2.103   5.594   3.687
  591TIP3    H1 1716   2.091   5.508   3.727
  591TIP3    H2 1717   2.195   5.595   3.662
  592TIP3   OH2 1718   6.995   2.126   1.945
  592TIP3    H1 1719   7.019   2.067   2.017
  592TIP3    H2 1720   6.941   2.072   1.888
  593TIP3   OH2 1721   4.436   7.771   4.144
  593TIP3    H1 1722   4.514   7.793   4.093
  593TIP3    H2 1723   4.469   7.715   4.214
  594TIP3   OH2 1724   3.349   2.061   5.360
  594TIP3    H1 1725   3.339   2.056   5.455
  594TIP3    H2 1726   3.363   1.970   5.333
  595TIP3   OH2 1727   3.353   7.205   1.170
  595TIP3    H1 1728   3.336   7.116   1.140
  595TIP3    H2 1729   3.268   7.237   1.200
  596TIP3   OH2 1730   4.569   1.299   6.444
  596TIP3    H1 1731   4.507   1.356   6.488
  596TIP3    H2 1732   4.580   1.336   6.357
  597TIP3   OH2 1733   1.527   3.187   6.662
  597TIP3    H1 1734   1.594   3.135   6.617
  597TIP3    H2 1735   1.576   3.248   6.716
  598TIP3   OH2 1736   6.272   7.645   5.018
  598TIP3    H1 1737   6.240   7.734   5.004
  598TIP3    H2 1738   6.293   7.641   5.111
  599TIP3   OH2 1739   3.716   5.334   5.654
  599TIP3    H1 1740   3.678   5.384   5.582
  599TIP3    H2 1741   3.645   5.278   5.685
  600TIP3   OH2 1742   5.566   5.038   1.086
  600TIP3    H1 1743   5.603   5.092   1.156
  600TIP3    H2 1744   5.572   5.092   1.008
  601TIP3   OH2 1745   4.176   3.112   2.389
  601TIP3    H1 1746   4.232   3.114   2.311
  601TIP3    H2 1747   4.236   3.096   2.462
  602TIP3   OH2 1748   4.984   1.847   6.482
  602TIP3    H1 1749   4.942   1.848   6.396
  602TIP3    H2 1750   4.929   1.789   6.534
  603TIP3   OH2 1751   0.600   6.567   4.055
  603TIP3    H1 1752   0.687   6.541   4.084
  603TIP3    H2 1753   0.595   6.661   4.075
  604TIP3   OH2 1754   8.100   5.366   2.196
  604TIP3    H1 1755   8.051   5.448   2.191
  604TIP3    H2 1756   8.191   5.393   2.182
  605TIP3   OH2 1757   3.646   0.573   3.020
  605TIP3    H1 1758   3.617   0.647   2.966
  605TIP3    H2 1759   3.715   0.531   2.968
  606TIP3   OH2 1760   1.070   5.155   4.085
  606TIP3    H1 1761   1.012   5.228   4.064
  606TIP3    H2 1762   1.027   5.111   4.159
  607TIP3   OH2 1763   2.694   0.166   4.196
  607TIP3    H1 1764   2.682   0.078   4.231
  607TIP3    H2 1765   2.770   0.201   4.244
  608TIP3   OH2 1766   1.950   2.303   5.234
  608TIP3    H1 1767   1.964   2.249   5.311
  608TIP3    H2 1768   1.855   2.304   5.222
  609TIP3   OH2 1769   5.858   3.354   6.654
  609TIP3    H1 1770   5.913   3.301   6.711
  609TIP3    H2 1771   5.913   3.373   6.579
  610TIP3   OH2 1772   6.499   0.990   4.956
  610TIP3    H1 1773   6.448   0.909   4.945
  610TIP3    H2 1774   6.548   0.998   4.874
  611TIP3   OH2 1775   0.957   1.202   3.762
  611TIP3    H1 1776   0.885   1.200   3.825
  611TIP3    H2 1777   1.002   1.285   3.780
  612TIP3   OH2 1778   3.369   5.917   3.457
  612TIP3    H1 1779   3.366   5.877   3.370
  612TIP3    H2 1780   3.446   5.974   3.454
  613TIP3   OH2 1781   0.361   3.845   5.286
  613TIP3    H1 1782   0.365   3.873   5.377
  613TIP3    H2 1783   0.311   3.763   5.288
  614TIP3   OH2 1784   4.364   0.617   1.546
  614TIP3    H1 1785   4.325   0.631   1.459
  614TIP3    H2 1786   4.296   0.569   1.594
  615TIP3   OH2 1787   2.309   1.059   5.676
  615TIP3    H1 1788   2.391   1.038   5.630
  615TIP3    H2 1789   2.335   1.071   5.767
  616TIP3   OH2 1790   6.451   0.576   5.314
  616TIP3    H1 1791   6.423   0.533   5.233
  616TIP3    H2 1792   6.540   0.605   5.296
  617TIP3   OH2 1793   6.908   7.480   3.415
  617TIP3    H1 1794   6.938   7.549   3.474
  617TIP3    H2 1795   6.879   7.526   3.336
  618TIP3   OH2 1796   5.229   6.013   4.846
  618TIP3    H1 1797   5.260   6.083   4.788
  618TIP3    H2 1798   5.260   6.040   4.933
  619TIP3   OH2 1799   1.102   0.360   0.271
  619TIP3    H1 1800   1.114   0.420   0.344
  619TIP3    H2 1801   1.060   0.283   0.310
  620TIP3   OH2 1802   4.864   5.761   1.446
  620TIP3    H1 1803   4.844   5.735   1.536
  620TIP3    H2 1804   4.802   5.831   1.427
  621TIP3   OH2 1805   3.889   3.826   1.571
  621TIP3    H1 1806   3.846   3.826   1.486
  621TIP3    H2 1807   3.935   3.742   1.574
  622TIP3   OH2 1808   0.071   4.482   5.457
  622TIP3    H1 1809  -0.009   4.446   5.494
  622TIP3    H2 1810   0.057   4.576   5.455
  623TIP3   OH2 1811   0.120   7.636   4.243
  623TIP3    H1 1812   0.129   7.548   4.280
  623TIP3    H2 1813   0.196   7.683   4.276
  624TIP3   OH2 1814   2.628   0.184   1.468
  624TIP3    H1 1815   2.539   0.152   1.452
  624TIP3    H2 1816   2.675   0.108   1.503
  625TIP3   OH2 1817   8.257   5.117   0.843
  625TIP3    H1 1818   8.266   5.099   0.936
  625TIP3    H2 1819   8.194   5.052   0.812
  626TIP3   OH2 1820   5.215   2.458   2.124
  626TIP3    H1 1821   5.206   2.363   2.113
  626TIP3    H2 1822   5.200   2.472   2.217
  627TIP3   OH2 1823   1.981   1.501   5.187
  627TIP3    H1 1824   2.039   1.547   5.248
  627TIP3    H2 1825   1.954   1.568   5.125
  628TIP3   OH2 1826   0.716   3.503   6.206
  628TIP3    H1 1827   0.730   3.452   6.126
  628TIP3    H2 1828   0.661   3.576   6.178
  629TIP3   OH2 1829   2.934   5.363   5.236
  629TIP3    H1 1830   2.956   5.430   5.171
  629TIP3    H2 1831   2.838   5.359   5.235
  630TIP3   OH2 1832   5.156   2.997   5.570
  630TIP3    H1 1833   5.206   3.012   5.650
  630TIP3    H2 1834   5.069   3.032   5.589
  631TIP3   OH2 1835   5.777   5.379   0.649
  631TIP3    H1 1836   5.841   5.442   0.683
  631TIP3    H2 1837   5.821   5.294   0.656
  632TIP3   OH2 1838   6.102   4.666   4.781
  632TIP3    H1 1839   6.041   4.737   4.799
  632TIP3    H2 1840   6.179   4.710   4.743
  633TIP3   OH2 1841   7.566   1.803   0.471
  633TIP3    H1 1842   7.655   1.799   0.505
  633TIP3    H2 1843   7.555   1.722   0.422
  634TIP3   OH2 1844   1.600   4.436   2.652
  634TIP3    H1 1845   1.675   4.430   2.592
  634TIP3    H2 1846   1.550   4.356   2.637
  635TIP3   OH2 1847   2.577   2.935   1.776
  635TIP3    H1 1848   2.657   2.983   1.799
  635TIP3    H2 1849   2.575   2.937   1.680
  636TIP3   OH2 1850   1.198   4.246   5.175
  636TIP3    H1 1851   1.118   4.275   5.218
  636TIP3    H2 1852   1.266   4.303   5.211
  637TIP3   OH2 1853   3.511   7.326   2.245
  637TIP3    H1 1854   3.501   7.419   2.266
  637TIP3    H2 1855   3.456   7.313   2.167
  638TIP3   OH2 1856   2.344   4.334   4.295
  638TIP3    H1 1857   2.372   4.263   4.353
  638TIP3    H2 1858   2.424   4.363   4.252
  639TIP3   OH2 1859   2.636   4.653   6.163
  639TIP3    H1 1860   2.559   4.619   6.210
  639TIP3    H2 1861   2.630   4.748   6.171
  640TIP3   OH2 1862   4.396   0.178   2.151
  640TIP3    H1 1863   4.363   0.092   2.174
  640TIP3    H2 1864   4.402   0.225   2.234
  641TIP3   OH2 1865   5.146   7.086   3.148
  641TIP3    H1 1866   5.226   7.035   3.136
  641TIP3    H2 1867   5.114   7.102   3.059
  642TIP3   OH2 1868   1.506   7.781   4.556
  642TIP3    H1 1869   1.523   7.687   4.568
  642TIP3    H2 1870   1.576   7.810   4.497
  643TIP3   OH2 1871   7.819   5.813   6.700
  643TIP3    H1 1872   7.897   5.757   6.700
  643TIP3    H2 1873   7.765   5.779   6.629
  644TIP3   OH2 1874   1.283   0.268   1.295
  644TIP3    H1 1875   1.206   0.295   1.245
  644TIP3    H2 1876   1.277   0.173   1.300
  645TIP3   OH2 1877   0.071   0.088   2.511
  645TIP3    H1 1878   0.083   0.000   2.545
  645TIP3    H2 1879   0.131   0.094   2.436
  646TIP3   OH2 1880   1.840   1.770   6.517
  646TIP3    H1 1881   1.922   1.818   6.517
  646TIP3    H2 1882   1.857   1.692   6.569
  647TIP3   OH2 1883   4.677   1.408   2.168
  647TIP3    H1 1884   4.770   1.389   2.153
  647TIP3    H2 1885   4.631   1.361   2.099
  648TIP3   OH2 1886   7.509   1.184   6.295
  648TIP3    H1 1887   7.524   1.140   6.378
  648TIP3    H2 1888   7.427   1.232   6.308
  649TIP3   OH2 1889   7.323   4.345   1.942
  649TIP3    H1 1890   7.333   4.436   1.970
  649TIP3    H2 1891   7.285   4.300   2.018
  650TIP3   OH2 1892   4.110   5.743   2.032
  650TIP3    H1 1893   4.048   5.777   1.967
  650TIP3    H2 1894   4.056   5.694   2.093
  651TIP3   OH2 1895   0.909   0.760   4.323
  651TIP3    H1 1896   0.897   0.853   4.307
  651TIP3    H2 1897   0.847   0.717   4.264
  652TIP3   OH2 1898   6.171   0.996   5.041
  652TIP3    H1 1899   6.239   0.982   5.106
  652TIP3    H2 1900   6.136   0.908   5.024
  653TIP3   OH2 1901   1.878   5.115   0.817
  653TIP3    H1 1902   1.949   5.173   0.844
  653TIP3    H2 1903   1.833   5.163   0.748
  654TIP3   OH2 1904   2.960   6.895   5.814
  654TIP3    H1 1905   2.976   6.989   5.815
  654TIP3    H2 1906   2.997   6.865   5.731
  655TIP3   OH2 1907   7.054   6.302   5.503
  655TIP3    H1 1908   7.103   6.376   5.539
  655TIP3    H2 1909   7.121   6.248   5.460
  656TIP3   OH2 1910   8.242   1.030   1.361
  656TIP3    H1 1911   8.173   1.041   1.295
  656TIP3    H2 1912   8.312   0.984   1.315
  657TIP3   OH2 1913   1.220   7.023   0.369
  657TIP3    H1 1914   1.221   7.119   0.375
  657TIP3    H2 1915   1.273   7.004   0.292
  658TIP3   OH2 1916   5.837   0.640   4.479
  658TIP3    H1 1917   5.921   0.631   4.433
  658TIP3    H2 1918   5.835   0.565   4.539
  659TIP3   OH2 1919   8.136   4.858   5.315
  659TIP3    H1 1920   8.127   4.920   5.388
  659TIP3    H2 1921   8.136   4.772   5.357
  660TIP3   OH2 1922   0.269   6.407   6.745
  660TIP3    H1 1923   0.207   6.423   6.817
  660TIP3    H2 1924   0.351   6.446   6.775
  661TIP3   OH2 1925   0.223   1.641   1.555
  661TIP3    H1 1926   0.161   1.645   1.483
  661TIP3    H2 1927   0.198   1.563   1.605
  662TIP3   OH2 1928   3.889   3.931   6.064
  662TIP3    H1 1929   3.938   4.011   6.041
  662TIP3    H2 1930   3.925   3.904   6.148
  663TIP3   OH2 1931   5.606   4.413   6.004
  663TIP3    H1 1932   5.639   4.385   6.090
  663TIP3    H2 1933   5.511   4.422   6.017
  664TIP3   OH2 1934   1.902   5.719   2.866
  664TIP3    H1 1935   1.962   5.713   2.940
  664TIP3    H2 1936   1.826   5.766   2.900
  665TIP3   OH2 1937   3.413   6.682   5.058
  665TIP3    H1 1938   3.469   6.628   5.114
  665TIP3    H2 1939   3.473   6.722   4.995
  666TIP3   OH2 1940   7.922   4.892   5.154
  666TIP3    H1 1941   7.900   4.983   5.174
  666TIP3    H2 1942   7.993   4.870   5.214
  667TIP3   OH2 1943   6.503   3.700   1.161
  667TIP3    H1 1944   6.442   3.759   1.206
  667TIP3    H2 1945   6.567   3.676   1.228
  668TIP3   OH2 1946   5.391   0.495   4.671
  668TIP3    H1 1947   5.422   0.457   4.589
  668TIP3    H2 1948   5.469   0.533   4.711
  669TIP3   OH2 1949   6.655   3.212   3.521
  669TIP3    H1 1950   6.627   3.300   3.546
  669TIP3    H2 1951   6.650   3.211   3.425
  670TIP3   OH2 1952   6.440   3.208   1.761
  670TIP3    H1 1953   6.391   3.230   1.841
  670TIP3    H2 1954   6.437   3.113   1.757
  671TIP3   OH2 1955   1.101   4.483   0.392
  671TIP3    H1 1956   1.067   4.505   0.306
  671TIP3    H2 1957   1.193   4.508   0.389
  672TIP3   OH2 1958   0.722   1.591   2.183
  672TIP3    H1 1959   0.734   1.686   2.184
  672TIP3    H2 1960   0.631   1.578   2.155
  673TIP3   OH2 1961   0.564   0.434   0.892
  673TIP3    H1 1962   0.560   0.386   0.809
  673TIP3    H2 1963   0.639   0.396   0.938
  674TIP3   OH2 1964   1.669   2.562   1.586
  674TIP3    H1 1965   1.749   2.546   1.636
  674TIP3    H2 1966   1.650   2.655   1.600
  675TIP3   OH2 1967   0.338   4.377   6.101
  675TIP3    H1 1968   0.312   4.285   6.092
  675TIP3    H2 1969   0.279   4.412   6.168
  676TIP3   OH2 1970   3.848   7.029   5.322
  676TIP3    H1 1971   3.814   7.021   5.411
  676TIP3    H2 1972   3.927   7.083   5.331
  677TIP3   OH2 1973   4.025   5.046   6.677
  677TIP3    H1 1974   4.068   4.975   6.630
  677TIP3    H2 1975   4.089   5.117   6.676
  678TIP3   OH2 1976   0.572   1.889   3.181
  678TIP3    H1 1977   0.479   1.874   3.194
  678TIP3    H2 1978   0.601   1.814   3.128
  679TIP3   OH2 1979   3.434   7.550   6.361
  679TIP3    H1 1980   3.426   7.536   6.455
  679TIP3    H2 1981   3.369   7.619   6.341
  680TIP3   OH2 1982   5.332   0.932   0.573
  680TIP3    H1 1983   5.395   0.860   0.563
  680TIP3    H2 1984   5.321   0.966   0.484
  681TIP3   OH2 1985   4.308   7.600   2.065
  681TIP3    H1 1986   4.328   7.543   2.140
  681TIP3    H2 1987   4.213   7.608   2.066
  682TIP3   OH2 1988   2.815   6.640   3.406
  682TIP3    H1 1989   2.728   6.673   3.385
  682TIP3    H2 1990   2.867   6.718   3.424
  683TIP3   OH2 1991   2.510   6.750   6.617
  683TIP3    H1 1992   2.489   6.683   6.681
  683TIP3    H2 1993   2.495   6.833   6.663
  684TIP3   OH2 1994   4.812   5.626   6.174
  684TIP3    H1 1995   4.851   5.688   6.236
  684TIP3    H2 1996   4.797   5.547   6.226
  685TIP3   OH2 1997   2.169   5.524   2.637
  685TIP3    H1 1998   2.078   5.552   2.627
  685TIP3    H2 1999   2.210   5.592   2.691
  686TIP3   OH2 2000   6.684   1.204   0.315
  686TIP3    H1 2001   6.698   1.226   0.407
  686TIP3    H2 2002   6.679   1.289   0.271
  687TIP3   OH2 2003   7.836   4.951   2.210
  687TIP3    H1 2004   7.759   4.994   2.246
  687TIP3    H2 2005   7.810   4.859   2.200
  688TIP3   OH2 2006   0.252   1.897   3.684
  688TIP3    H1 2007   0.188   1.946   3.632
  688TIP3    H2 2008   0.328   1.889   3.626
  689TIP3   OH2 2009   6.356   0.803   5.880
  689TIP3    H1 2010   6.299   0.820   5.805
  689TIP3    H2 2011   6.357   0.708   5.888
  690TIP3   OH2 2012   0.876   1.016   6.403
  690TIP3    H1 2013   0.831   1.097   6.380
  690TIP3    H2 2014   0.863   0.959   6.326
  691TIP3   OH2 2015   7.517   7.494   3.013
  691TIP3    H1 2016   7.564   7.433   2.956
  691TIP3    H2 2017   7.453   7.536   2.956
  692TIP3   OH2 2018   6.862   4.127   0.767
  692TIP3    H1 2019   6.948   4.141   0.726
  692TIP3    H2 2020   6.850   4.032   0.766
  693TIP3   OH2 2021   5.275   4.013   5.230
  693TIP3    H1 2022   5.207   3.989   5.167
  693TIP3    H2 2023   5.254   3.961   5.308
  694TIP3   OH2 2024   4.054   2.473   0.578
  694TIP3    H1 2025   3.997   2.417   0.631
  694TIP3    H2 2026   4.013   2.559   0.581
  695TIP3   OH2 2027   3.530   7.410   5.753
  695TIP3    H1 2028   3.596   7.349   5.717
  695TIP3    H2 2029   3.470   7.425   5.681
  696TIP3   OH2 2030   6.099   6.166   0.070
  696TIP3    H1 2031   6.008   6.183   0.047
  696TIP3    H2 2032   6.150   6.219   0.009
  697TIP3   OH2 2033   7.239   6.637   2.466
  697TIP3    H1 2034   7.268   6.546   2.458
  697TIP3    H2 2035   7.222   6.649   2.559
  698TIP3   OH2 2036   2.046   5.201   4.170
  698TIP3    H1 2037   2.012   5.146   4.240
  698TIP3    H2 2038   1.993   5.179   4.094
  699TIP3   OH2 2039   6.563   3.224   1.530
  699TIP3    H1 2040   6.510   3.289   1.484
  699TIP3    H2 2041   6.517   3.211   1.613
  700TIP3   OH2 2042   2.174   7.311   3.362
  700TIP3    H1 2043   2.192   7.317   3.268
  700TIP3    H2 2044   2.139   7.222   3.374
  701TIP3   OH2 2045   7.058   4.374   6.013
  701TIP3    H1 2046   7.018   4.323   5.943
  701TIP3    H2 2047   6.984   4.419   6.055
  702TIP3   OH2 2048   7.674   5.473   5.897
  702TIP3    H1 2049   7.590   5.502   5.860
  702TIP3    H2 2050   7.739   5.503   5.834
  703TIP3   OH2 2051   0.709   2.227   0.337
  703TIP3    H1 2052   0.634   2.241   0.395
  703TIP3    H2 2053   0.735   2.136   0.353
  704TIP3   OH2 2054   5.314   1.597   4.934
  704TIP3    H1 2055   5.350   1.633   4.853
  704TIP3    H2 2056   5.390   1.569   4.984
  705TIP3   OH2 2057   3.078   5.868   5.613
  705TIP3    H1 2058   3.007   5.858   5.677
  705TIP3    H2 2059   3.069   5.791   5.556
  706TIP3   OH2 2060   4.235   4.655   0.861
  706TIP3    H1 2061   4.216   4.694   0.776
  706TIP3    H2 2062   4.204   4.720   0.925
  707TIP3   OH2 2063   6.488   4.730   0.290
  707TIP3    H1 2064   6.583   4.725   0.294
  707TIP3    H2 2065   6.468   4.736   0.197
  708TIP3   OH2 2066   2.129   5.009   6.337
  708TIP3    H1 2067   2.223   5.019   6.354
  708TIP3    H2 2068   2.125   4.939   6.272
  709TIP3   OH2 2069   1.217   6.036   5.277
  709TIP3    H1 2070   1.224   6.082   5.361
  709TIP3    H2 2071   1.304   6.001   5.261
  710TIP3   OH2 2072   3.502   0.444   6.487
  710TIP3    H1 2073   3.412   0.473   6.474
  710TIP3    H2 2074   3.534   0.424   6.399
  711TIP3   OH2 2075   6.064   4.578   6.645
  711TIP3    H1 2076   6.077   4.512   6.713
  711TIP3    H2 2077   6.141   4.570   6.589
  712TIP3   OH2 2078   6.958   2.762   4.590
  712TIP3    H1 2079   6.870   2.800   4.593
  712TIP3    H2 2080   7.004   2.815   4.525
  713TIP3   OH2 2081   5.705   6.675   1.933
  713TIP3    H1 2082   5.614   6.692   1.910
  713TIP3    H2 2083   5.706   6.674   2.029
  714TIP3   OH2 2084   6.397   1.574   2.080
  714TIP3    H1 2085   6.319   1.560   2.026
  714TIP3    H2 2086   6.406   1.493   2.130
  715TIP3   OH2 2087   4.370   4.266   0.642
  715TIP3    H1 2088   4.388   4.200   0.576
  715TIP3    H2 2089   4.278   4.287   0.631
  716TIP3   OH2 2090   3.641   1.156   0.264
  716TIP3    H1 2091   3.558   1.181   0.223
  716TIP3    H2 2092   3.703   1.223   0.235
  717TIP3   OH2 2093   3.469   4.065   6.375
  717TIP3    H1 2094   3.562   4.085   6.361
  717TIP3    H2 2095   3.425   4.104   6.300
  718TIP3   OH2 2096   7.277   7.591   6.619
  718TIP3    H1 2097   7.369   7.593   6.593
  718TIP3    H2 2098   7.279   7.576   6.713
  719TIP3   OH2 2099   5.096   7.004   5.983
  719TIP3    H1 2100   5.065   7.080   6.032
  719TIP3    H2 2101   5.190   6.999   6.002
  720TIP3   OH2 2102   2.605   3.597   3.312
  720TIP3    H1 2103   2.604   3.508   3.348
  720TIP3    H2 2104   2.654   3.648   3.376
  721TIP3   OH2 2105   3.393   0.585   2.247
  721TIP3    H1 2106   3.358   0.502   2.279
  721TIP3    H2 2107   3.462   0.608   2.309
  722TIP3   OH2 2108   5.785   4.063   4.042
  722TIP3    H1 2109   5.718   4.042   3.977
  722TIP3    H2 2110   5.868   4.047   3.996
  723TIP3   OH2 2111   1.111   1.040   4.486
  723TIP3    H1 2112   1.071   1.033   4.400
  723TIP3    H2 2113   1.141   1.131   4.491
  724TIP3   OH2 2114   5.734   7.656   1.223
  724TIP3    H1 2115   5.643   7.626   1.211
  724TIP3    H2 2116   5.773   7.589   1.279
  725TIP3   OH2 2117   6.460   5.050   4.769
  725TIP3    H1 2118   6.526   5.117   4.753
  725TIP3    H2 2119   6.383   5.079   4.719
  726TIP3   OH2 2120   4.812   2.709   5.453
  726TIP3    H1 2121   4.844   2.798   5.465
  726TIP3    H2 2122   4.780   2.683   5.539
  727TIP3   OH2 2123   6.337   6.072   6.671
  727TIP3    H1 2124   6.312   5.985   6.703
  727TIP3    H2 2125   6.375   6.115   6.747
  728TIP3   OH2 2126   5.212   5.936   2.833
  728TIP3    H1 2127   5.233   5.853   2.877
  728TIP3    H2 2128   5.241   5.923   2.743
  729TIP3   OH2 2129   2.335   4.570   1.527
  729TIP3    H1 2130   2.372   4.521   1.453
  729TIP3    H2 2131   2.395   4.554   1.599
  730TIP3   OH2 2132   1.501   4.027   3.721
  730TIP3    H1 2133   1.409   4.008   3.736
  730TIP3    H2 2134   1.529   3.961   3.657
  731TIP3   OH2 2135   7.706   0.998   6.181
  731TIP3    H1 2136   7.624   0.964   6.216
  731TIP3    H2 2137   7.723   1.077   6.232
  732TIP3   OH2 2138   5.723   7.103   3.758
  732TIP3    H1 2139   5.670   7.090   3.679
  732TIP3    H2 2140   5.813   7.111   3.726
  733TIP3   OH2 2141   4.278   1.168   4.384
  733TIP3    H1 2142   4.273   1.263   4.398
  733TIP3    H2 2143   4.279   1.159   4.288
  734TIP3   OH2 2144   2.939   6.197   5.999
  734TIP3    H1 2145   2.891   6.127   6.043
  734TIP3    H2 2146   3.031   6.176   6.013
  735TIP3   OH2 2147   4.682   2.296   4.817
  735TIP3    H1 2148   4.654   2.299   4.908
  735TIP3    H2 2149   4.746   2.367   4.810
  736TIP3   OH2 2150   2.737   5.974   4.263
  736TIP3    H1 2151   2.801   6.033   4.303
  736TIP3    H2 2152   2.673   5.958   4.332
  737TIP3   OH2 2153   0.904   0.285   1.291
  737TIP3    H1 2154   0.897   0.246   1.378
  737TIP3    H2 2155   0.884   0.377   1.303
  738TIP3   OH2 2156   1.573   0.948   5.187
  738TIP3    H1 2157   1.604   0.999   5.262
  738TIP3    H2 2158   1.640   0.962   5.120
  739TIP3   OH2 2159   0.817   3.465   1.100
  739TIP3    H1 2160   0.890   3.527   1.102
  739TIP3    H2 2161   0.743   3.517   1.070
  740TIP3   OH2 2162   5.040   3.491   6.659
  740TIP3    H1 2163   5.029   3.581   6.626
  740TIP3    H2 2164   5.067   3.502   6.750
  741TIP3   OH2 2165   5.909   3.066   1.736
  741TIP3    H1 2166   5.877   3.141   1.686
  741TIP3    H2 2167   5.971   3.103   1.798
  742TIP3   OH2 2168   3.277   5.132   5.233
  742TIP3    H1 2169   3.370   5.118   5.250
  742TIP3    H2 2170   3.265   5.227   5.241
  743TIP3   OH2 2171   2.501   7.148   4.709
  743TIP3    H1 2172   2.590   7.129   4.679
  743TIP3    H2 2173   2.450   7.072   4.683
  744TIP3   OH2 2174   6.063   3.954   3.192
  744TIP3    H1 2175   6.052   3.859   3.194
  744TIP3    H2 2176   6.037   3.980   3.104
  745TIP3   OH2 2177   2.989   6.276   0.374
  745TIP3    H1 2178   3.026   6.355   0.335
  745TIP3    H2 2179   2.905   6.265   0.331
  746TIP3   OH2 2180   4.497   4.611   5.021
  746TIP3    H1 2181   4.467   4.701   5.010
  746TIP3    H2 2182   4.592   4.617   5.018
  747TIP3   OH2 2183   1.470   0.719   1.801
  747TIP3    H1 2184   1.537   0.739   1.867
  747TIP3    H2 2185   1.417   0.799   1.795
  748TIP3   OH2 2186   7.742   5.214   0.009
  748TIP3    H1 2187   7.698   5.230  -0.074
  748TIP3    H2 2188   7.741   5.299   0.054
  749TIP3   OH2 2189   2.071   1.891   6.527
  749TIP3    H1 2190   2.109   1.932   6.604
  749TIP3    H2 2191   2.093   1.950   6.454
  750TIP3   OH2 2192   3.366   5.655   3.546
  750TIP3    H1 2193   3.388   5.747   3.533
  750TIP3    H2 2194   3.322   5.629   3.465
  751TIP3   OH2 2195   2.431   2.424   0.047
  751TIP3    H1 2196   2.414   2.414   0.141
  751TIP3    H2 2197   2.358   2.381   0.004
  752TIP3   OH2 2198   6.806   1.652   5.315
  752TIP3    H1 2199   6.820   1.713   5.242
  752TIP3    H2 2200   6.746   1.698   5.374
  753TIP3   OH2 2201   6.614   4.840   1.059
  753TIP3    H1 2202   6.652   4.853   1.146
  753TIP3    H2 2203   6.560   4.918   1.045
  754TIP3   OH2 2204   7.610   5.229   0.428
  754TIP3    H1 2205   7.640   5.298   0.369
  754TIP3    H2 2206   7.606   5.272   0.514
  755TIP3   OH2 2207   2.232   5.616   0.266
  755TIP3    H1 2208   2.301   5.662   0.315
  755TIP3    H2 2209   2.175   5.685   0.234
  756TIP3   OH2 2210   1.131   3.223   5.170
  756TIP3    H1 2211   1.197   3.289   5.189
  756TIP3    H2 2212   1.181   3.142   5.159
  757TIP3   OH2 2213   6.066   2.215   3.223
  757TIP3    H1 2214   6.074   2.297   3.272
  757TIP3    H2 2215   6.152   2.175   3.230
  758TIP3   OH2 2216   5.572   5.291   5.128
  758TIP3    H1 2217   5.662   5.259   5.130
  758TIP3    H2 2218   5.547   5.287   5.036
  759TIP3   OH2 2219   2.212   2.930   0.877
  759TIP3    H1 2220   2.223   2.864   0.808
  759TIP3    H2 2221   2.280   2.909   0.941
  760TIP3   OH2 2222   7.103   4.654   3.717
  760TIP3    H1 2223   7.055   4.573   3.735
  760TIP3    H2 2224   7.192   4.625   3.698
  761TIP3   OH2 2225   5.165   3.437   3.256
  761TIP3    H1 2226   5.085   3.440   3.204
  761TIP3    H2 2227   5.169   3.523   3.299
  762TIP3   OH2 2228   6.662   7.695   0.604
  762TIP3    H1 2229   6.697   7.772   0.648
  762TIP3    H2 2230   6.598   7.659   0.667
  763TIP3   OH2 2231   5.310   5.803   1.628
  763TIP3    H1 2232   5.361   5.724   1.613
  763TIP3    H2 2233   5.265   5.819   1.545
  764TIP3   OH2 2234   8.131   7.482   3.244
  764TIP3    H1 2235   8.117   7.537   3.167
  764TIP3    H2 2236   8.118   7.393   3.214
  765TIP3   OH2 2237   5.102   0.550   2.590
  765TIP3    H1 2238   5.030   0.594   2.546
  765TIP3    H2 2239   5.181   0.592   2.555
  766TIP3   OH2 2240   2.786   5.277   6.505
  766TIP3    H1 2241   2.801   5.313   6.418
  766TIP3    H2 2242   2.850   5.206   6.513
  767TIP3   OH2 2243   3.129   0.198   1.912
  767TIP3    H1 2244   3.149   0.292   1.921
  767TIP3    H2 2245   3.034   0.195   1.899
  768TIP3   OH2 2246   4.690   0.088   1.437
  768TIP3    H1 2247   4.701   0.108   1.530
  768TIP3    H2 2248   4.603   0.048   1.432
  769TIP3   OH2 2249   4.042   6.488   4.313
  769TIP3    H1 2250   4.025   6.578   4.284
  769TIP3    H2 2251   4.132   6.472   4.286
  770TIP3   OH2 2252   4.719   2.087   4.633
  770TIP3    H1 2253   4.774   2.030   4.687
  770TIP3    H2 2254   4.691   2.157   4.692
  771TIP3   OH2 2255   1.207   7.120   1.538
  771TIP3    H1 2256   1.271   7.049   1.527
  771TIP3    H2 2257   1.258   7.200   1.526
  772TIP3   OH2 2258   3.468   1.666   0.934
  772TIP3    H1 2259   3.440   1.588   0.979
  772TIP3    H2 2260   3.387   1.709   0.905
  773TIP3   OH2 2261   0.005   4.356   6.191
  773TIP3    H1 2262   0.066   4.357   6.265
  773TIP3    H2 2263  -0.068   4.412   6.219
  774TIP3   OH2 2264   4.037   1.916   1.118
  774TIP3    H1 2265   3.990   2.000   1.114
  774TIP3    H2 2266   4.115   1.929   1.064
  775TIP3   OH2 2267   6.371   7.712   3.734
  775TIP3    H1 2268   6.321   7.660   3.797
  775TIP3    H2 2269   6.348   7.675   3.649
  776TIP3   OH2 2270   3.458   7.253   6.020
  776TIP3    H1 2271   3.509   7.222   5.946
  776TIP3    H2 2272   3.396   7.315   5.983
  777TIP3   OH2 2273   2.913   5.685   4.252
  777TIP3    H1 2274   2.856   5.702   4.327
  777TIP3    H2 2275   2.891   5.753   4.189
  778TIP3   OH2 2276   1.723   3.012   0.443
  778TIP3    H1 2277   1.738   2.970   0.359
  778TIP3    H2 2278   1.628   3.006   0.457
  779TIP3   OH2 2279   0.452   2.286   2.428
  779TIP3    H1 2280   0.446   2.269   2.522
  779TIP3    H2 2281   0.490   2.206   2.391
  780TIP3   OH2 2282   0.108   3.134   4.498
  780TIP3    H1 2283   0.184   3.169   4.545
  780TIP3    H2 2284   0.140   3.115   4.410
  781TIP3   OH2 2285   4.203   0.968   3.205
  781TIP3    H1 2286   4.129   0.979   3.145
  781TIP3    H2 2287   4.252   1.051   3.198
  782TIP3   OH2 2288   2.266   6.655   1.849
  782TIP3    H1 2289   2.317   6.732   1.873
  782TIP3    H2 2290   2.175   6.682   1.856
  783TIP3   OH2 2291   0.551   6.648   1.758
  783TIP3    H1 2292   0.611   6.704   1.708
  783TIP3    H2 2293   0.488   6.617   1.694
  784TIP3   OH2 2294   1.149   1.528   1.104
  784TIP3    H1 2295   1.070   1.528   1.158
  784TIP3    H2 2296   1.177   1.620   1.102
  785TIP3   OH2 2297   3.025   5.596   2.196
  785TIP3    H1 2298   2.972   5.520   2.220
  785TIP3    H2 2299   3.115   5.568   2.213
  786TIP3   OH2 2300   1.337   7.343   1.436
  786TIP3    H1 2301   1.379   7.378   1.358
  786TIP3    H2 2302   1.366   7.399   1.508
  787TIP3   OH2 2303   0.123   3.828   4.843
  787TIP3    H1 2304   0.167   3.745   4.826
  787TIP3    H2 2305   0.190   3.885   4.879
  788TIP3   OH2 2306   2.507   7.412   4.709
  788TIP3    H1 2307   2.502   7.321   4.739
  788TIP3    H2 2308   2.483   7.408   4.616
  789TIP3   OH2 2309   1.528   0.972   0.430
  789TIP3    H1 2310   1.466   1.020   0.375
  789TIP3    H2 2311   1.479   0.954   0.510
  790TIP3   OH2 2312   5.875   6.398   2.293
  790TIP3    H1 2313   5.785   6.414   2.265
  790TIP3    H2 2314   5.914   6.350   2.221
  791TIP3   OH2 2315   5.349   5.179   6.601
  791TIP3    H1 2316   5.299   5.175   6.520
  791TIP3    H2 2317   5.300   5.125   6.663
  792TIP3   OH2 2318   6.974   1.135   2.470
  792TIP3    H1 2319   6.999   1.085   2.392
  792TIP3    H2 2320   7.017   1.089   2.542
  793TIP3   OH2 2321   6.620   5.526   4.862
  793TIP3    H1 2322   6.545   5.489   4.908
  793TIP3    H2 2323   6.616   5.620   4.880
  794TIP3   OH2 2324   1.893   3.355   5.460
  794TIP3    H1 2325   1.937   3.413   5.522
  794TIP3    H2 2326   1.814   3.402   5.434
  795TIP3   OH2 2327   1.070   5.135   0.479
  795TIP3    H1 2328   1.003   5.182   0.428
  795TIP3    H2 2329   1.055   5.162   0.569
  796TIP3   OH2 2330   5.098   2.955   1.437
  796TIP3    H1 2331   5.101   2.960   1.532
  796TIP3    H2 2332   5.111   3.046   1.408
  797TIP3   OH2 2333   6.873   5.732   2.723
  797TIP3    H1 2334   6.849   5.795   2.655
  797TIP3    H2 2335   6.861   5.647   2.682
  798TIP3   OH2 2336   1.103   1.576   2.173
  798TIP3    H1 2337   1.058   1.661   2.182
  798TIP3    H2 2338   1.035   1.511   2.191
  799TIP3   OH2 2339   5.840   5.169   5.715
  799TIP3    H1 2340   5.769   5.120   5.755
  799TIP3    H2 2341   5.842   5.139   5.624
  800TIP3   OH2 2342   7.741   0.272   0.388
  800TIP3    H1 2343   7.688   0.349   0.367
  800TIP3    H2 2344   7.720   0.209   0.319
  801TIP3   OH2 2345   2.398   3.644   2.713
  801TIP3    H1 2346   2.493   3.650   2.728
  801TIP3    H2 2347   2.381   3.550   2.709
  802TIP3   OH2 2348   2.479   3.777   3.103
  802TIP3    H1 2349   2.548   3.771   3.037
  802TIP3    H2 2350   2.509   3.720   3.174
  803TIP3   OH2 2351   4.872   0.505   1.390
  803TIP3    H1 2352   4.869   0.411   1.371
  803TIP3    H2 2353   4.949   0.536   1.342
  804TIP3   OH2 2354   3.983   1.545   4.478
  804TIP3    H1 2355   3.943   1.459   4.465
  804TIP3    H2 2356   3.951   1.598   4.405
  805TIP3   OH2 2357   6.110   1.597   2.092
  805TIP3    H1 2358   6.056   1.578   2.169
  805TIP3    H2 2359   6.058   1.564   2.018
  806TIP3   OH2 2360   2.895   4.830   6.619
  806TIP3    H1 2361   2.807   4.793   6.623
  806TIP3    H2 2362   2.953   4.759   6.646
  807TIP3   OH2 2363   3.582   4.901   6.423
  807TIP3    H1 2364   3.629   4.829   6.466
  807TIP3    H2 2365   3.650   4.961   6.396
  808TIP3   OH2 2366   4.350   7.010   1.755
  808TIP3    H1 2367   4.338   6.981   1.665
  808TIP3    H2 2368   4.445   7.014   1.768
  809TIP3   OH2 2369   3.620   1.459   2.561
  809TIP3    H1 2370   3.690   1.472   2.624
  809TIP3    H2 2371   3.608   1.364   2.557
  810TIP3   OH2 2372   4.438   4.025   3.204
  810TIP3    H1 2373   4.410   4.114   3.225
  810TIP3    H2 2374   4.404   3.971   3.276
  811TIP3   OH2 2375   3.246   0.860   0.970
  811TIP3    H1 2376   3.192   0.843   0.892
  811TIP3    H2 2377   3.316   0.917   0.938
  812TIP3   OH2 2378   7.516   6.594   3.500
  812TIP3    H1 2379   7.547   6.640   3.422
  812TIP3    H2 2380   7.586   6.606   3.564
  813TIP3   OH2 2381   5.920   3.289   2.129
  813TIP3    H1 2382   5.875   3.362   2.086
  813TIP3    H2 2383   5.864   3.267   2.203
  814TIP3   OH2 2384   7.902   3.162   4.538
  814TIP3    H1 2385   7.817   3.134   4.504
  814TIP3    H2 2386   7.891   3.255   4.556
  815TIP3   OH2 2387   1.219   5.877   2.381
  815TIP3    H1 2388   1.234   5.936   2.307
  815TIP3    H2 2389   1.218   5.934   2.458
  816TIP3   OH2 2390   0.512   1.748   2.690
  816TIP3    H1 2391   0.432   1.793   2.714
  816TIP3    H2 2392   0.582   1.797   2.733
  817TIP3   OH2 2393   7.034   7.250   3.329
  817TIP3    H1 2394   7.086   7.204   3.394
  817TIP3    H2 2395   7.028   7.340   3.362
  818TIP3   OH2 2396   7.203   3.404   0.715
  818TIP3    H1 2397   7.236   3.368   0.797
  818TIP3    H2 2398   7.256   3.483   0.701
  819TIP3   OH2 2399   4.279   1.719   4.014
  819TIP3    H1 2400   4.347   1.674   4.064
  819TIP3    H2 2401   4.216   1.650   3.993
  820TIP3   OH2 2402   6.492   1.999   3.835
  820TIP3    H1 2403   6.429   2.055   3.881
  820TIP3    H2 2404   6.530   2.057   3.769
  821TIP3   OH2 2405   7.366   2.256   4.351
  821TIP3    H1 2406   7.336   2.166   4.362
  821TIP3    H2 2407   7.300   2.309   4.396
  822TIP3   OH2 2408   6.881   0.863   3.627
  822TIP3    H1 2409   6.839   0.915   3.559
  822TIP3    H2 2410   6.818   0.794   3.646
  823TIP3   OH2 2411   6.591   4.743   2.422
  823TIP3    H1 2412   6.666   4.786   2.382
  823TIP3    H2 2413   6.611   4.742   2.516
  824TIP3   OH2 2414   3.708   0.035   6.457
  824TIP3    H1 2415   3.725   0.121   6.496
  824TIP3    H2 2416   3.624   0.008   6.494
  825TIP3   OH2 2417   5.653   0.046   2.979
  825TIP3    H1 2418   5.668   0.127   2.930
  825TIP3    H2 2419   5.563   0.053   3.010
  826TIP3   OH2 2420   0.167   7.372   2.658
  826TIP3    H1 2421   0.243   7.431   2.656
  826TIP3    H2 2422   0.177   7.317   2.580
  827TIP3   OH2 2423   7.028   5.341   4.118
  827TIP3    H1 2424   7.101   5.315   4.174
  827TIP3    H2 2425   6.981   5.260   4.099
  828TIP3   OH2 2426   6.861   0.252   4.426
  828TIP3    H1 2427   6.854   0.250   4.331
  828TIP3    H2 2428   6.875   0.161   4.452
  829TIP3   OH2 2429   1.878   1.645   6.127
  829TIP3    H1 2430   1.856   1.554   6.145
  829TIP3    H2 2431   1.947   1.666   6.190
  830TIP3   OH2 2432   4.894   1.462   5.242
  830TIP3    H1 2433   4.811   1.428   5.276
  830TIP3    H2 2434   4.950   1.385   5.235
  831TIP3   OH2 2435   6.445   6.339   0.804
  831TIP3    H1 2436   6.364   6.307   0.764
  831TIP3    H2 2437   6.435   6.434   0.803
  832TIP3   OH2 2438   2.014   3.678   4.805
  832TIP3    H1 2439   1.936   3.711   4.762
  832TIP3    H2 2440   2.059   3.626   4.738
  833TIP3   OH2 2441   0.708   1.903   2.824
  833TIP3    H1 2442   0.695   1.990   2.861
  833TIP3    H2 2443   0.800   1.883   2.840
  834TIP3   OH2 2444   3.418   1.810   5.243
  834TIP3    H1 2445   3.361   1.850   5.178
  834TIP3    H2 2446   3.416   1.716   5.222
  835TIP3   OH2 2447   3.341   4.277   0.101
  835TIP3    H1 2448   3.249   4.251   0.106
  835TIP3    H2 2449   3.348   4.326   0.019
  836TIP3   OH2 2450   5.677   0.855   5.633
  836TIP3    H1 2451   5.621   0.906   5.573
  836TIP3    H2 2452   5.728   0.799   5.576
  837TIP3   OH2 2453   1.772   1.013   4.986
  837TIP3    H1 2454   1.765   1.000   4.891
  837TIP3    H2 2455   1.863   1.042   4.999
  838TIP3   OH2 2456   5.325   4.452   3.824
  838TIP3    H1 2457   5.418   4.464   3.846
  838TIP3    H2 2458   5.298   4.536   3.788
  839TIP3   OH2 2459   6.347   0.432   5.100
  839TIP3    H1 2460   6.326   0.457   5.010
  839TIP3    H2 2461   6.409   0.359   5.091
  840TIP3   OH2 2462   5.248   3.132   0.137
  840TIP3    H1 2463   5.202   3.049   0.129
  840TIP3    H2 2464   5.339   3.112   0.115
  841TIP3   OH2 2465   1.931   6.520   5.777
  841TIP3    H1 2466   1.872   6.517   5.853
  841TIP3    H2 2467   1.999   6.583   5.802
  842TIP3   OH2 2468   6.706   5.494   1.092
  842TIP3    H1 2469   6.701   5.433   1.166
  842TIP3    H2 2470   6.731   5.578   1.130
  843TIP3   OH2 2471   0.677   6.993   4.970
  843TIP3    H1 2472   0.591   6.998   4.929
  843TIP3    H2 2473   0.660   6.967   5.060
  844TIP3   OH2 2474   0.579   2.703   0.450
  844TIP3    H1 2475   0.512   2.767   0.471
  844TIP3    H2 2476   0.624   2.686   0.533
  845TIP3   OH2 2477   6.801   4.032   5.756
  845TIP3    H1 2478   6.802   3.976   5.678
  845TIP3    H2 2479   6.713   4.069   5.758
  846TIP3   OH2 2480   0.941   1.169   0.361
  846TIP3    H1 2481   1.020   1.116   0.355
  846TIP3    H2 2482   0.973   1.258   0.376
  847TIP3   OH2 2483   3.126   4.818   4.049
  847TIP3    H1 2484   3.159   4.878   3.983
  847TIP3    H2 2485   3.106   4.873   4.124
  848TIP3   OH2 2486   2.813   7.748   6.149
  848TIP3    H1 2487   2.727   7.707   6.135
  848TIP3    H2 2488   2.804   7.793   6.233
  849TIP3   OH2 2489   3.732   0.147   2.518
  849TIP3    H1 2490   3.748   0.111   2.431
  849TIP3    H2 2491   3.820   0.170   2.550
  850TIP3   OH2 2492   4.153   7.102   2.544
  850TIP3    H1 2493   4.183   7.090   2.634
  850TIP3    H2 2494   4.234   7.104   2.492
  851TIP3   OH2 2495   2.215   3.323   3.813
  851TIP3    H1 2496   2.200   3.346   3.721
  851TIP3    H2 2497   2.170   3.239   3.824
  852TIP3   OH2 2498   0.369   5.805   0.909
  852TIP3    H1 2499   0.347   5.777   0.820
  852TIP3    H2 2500   0.439   5.747   0.936
  853TIP3   OH2 2501   2.430   3.836   6.598
  853TIP3    H1 2502   2.425   3.742   6.616
  853TIP3    H2 2503   2.398   3.878   6.678
  854TIP3   OH2 2504   1.347   0.779   5.256
  854TIP3    H1 2505   1.425   0.831   5.236
  854TIP3    H2 2506   1.340   0.717   5.183
  855TIP3   OH2 2507   6.057   6.324   4.792
  855TIP3    H1 2508   6.081   6.412   4.763
  855TIP3    H2 2509   6.122   6.267   4.752
  856TIP3   OH2 2510   5.295   6.581   3.337
  856TIP3    H1 2511   5.283   6.550   3.426
  856TIP3    H2 2512   5.353   6.516   3.296
  857TIP3   OH2 2513   6.326   2.434   0.874
  857TIP3    H1 2514   6.271   2.512   0.878
  857TIP3    H2 2515   6.391   2.447   0.943
  858TIP3   OH2 2516   5.177   5.022   1.836
  858TIP3    H1 2517   5.259   5.007   1.884
  858TIP3    H2 2518   5.114   5.046   1.903
  859TIP3   OH2 2519   5.843   2.583   0.586
  859TIP3    H1 2520   5.858   2.676   0.597
  859TIP3    H2 2521   5.893   2.541   0.656
  860TIP3   OH2 2522   6.244   6.553   2.427
  860TIP3    H1 2523   6.195   6.472   2.415
  860TIP3    H2 2524   6.263   6.556   2.521
  861TIP3   OH2 2525   6.555   4.160   5.871
  861TIP3    H1 2526   6.553   4.206   5.787
  861TIP3    H2 2527   6.540   4.228   5.936
  862TIP3   OH2 2528   5.636   1.783   5.005
  862TIP3    H1 2529   5.609   1.875   5.010
  862TIP3    H2 2530   5.632   1.752   5.096
  863TIP3   OH2 2531   4.070   6.589   6.109
  863TIP3    H1 2532   4.106   6.638   6.183
  863TIP3    H2 2533   4.138   6.591   6.043
  864TIP3   OH2 2534   1.779   4.097   5.775
  864TIP3    H1 2535   1.751   4.007   5.790
  864TIP3    H2 2536   1.863   4.104   5.821
  865TIP3   OH2 2537   6.999   1.392   6.245
  865TIP3    H1 2538   7.021   1.300   6.235
  865TIP3    H2 2539   7.043   1.420   6.325
  866TIP3   OH2 2540   0.032   2.910   1.883
  866TIP3    H1 2541   0.013   2.869   1.799
  866TIP3    H2 2542   0.081   2.844   1.931
  867TIP3   OH2 2543   7.753   2.696   2.689
  867TIP3    H1 2544   7.773   2.685   2.596
  867TIP3    H2 2545   7.677   2.640   2.704
  868TIP3   OH2 2546   2.407   5.580   3.645
  868TIP3    H1 2547   2.378   5.647   3.584
  868TIP3    H2 2548   2.467   5.626   3.704
  869TIP3   OH2 2549   4.432   4.227   1.096
  869TIP3    H1 2550   4.448   4.153   1.037
  869TIP3    H2 2551   4.411   4.300   1.038
  870TIP3   OH2 2552   1.353   3.516   3.695
  870TIP3    H1 2553   1.266   3.509   3.735
  870TIP3    H2 2554   1.342   3.480   3.607
  871TIP3   OH2 2555   6.763   5.005   0.037
  871TIP3    H1 2556   6.830   5.043  -0.020
  871TIP3    H2 2557   6.740   4.922  -0.004
  872TIP3   OH2 2558   5.595   4.781   0.994
  872TIP3    H1 2559   5.504   4.770   0.967
  872TIP3    H2 2560   5.598   4.868   1.033
  873TIP3   OH2 2561   5.783   3.607   4.820
  873TIP3    H1 2562   5.707   3.640   4.867
  873TIP3    H2 2563   5.751   3.590   4.731
  874TIP3   OH2 2564   0.474   4.089   6.287
  874TIP3    H1 2565   0.566   4.091   6.262
  874TIP3    H2 2566   0.426   4.087   6.204
  875TIP3   OH2 2567   0.123   6.965   3.679
  875TIP3    H1 2568   0.042   6.927   3.648
  875TIP3    H2 2569   0.097   7.050   3.716
  876TIP3   OH2 2570   2.996   3.449   4.266
  876TIP3    H1 2571   3.053   3.526   4.262
  876TIP3    H2 2572   2.994   3.416   4.176
  877TIP3   OH2 2573   2.194   4.334   5.605
  877TIP3    H1 2574   2.172   4.421   5.639
  877TIP3    H2 2575   2.289   4.335   5.595
  878TIP3   OH2 2576   4.232   2.636   2.857
  878TIP3    H1 2577   4.309   2.582   2.875
  878TIP3    H2 2578   4.191   2.649   2.942
  879TIP3   OH2 2579   0.195   5.456   6.283
  879TIP3    H1 2580   0.262   5.524   6.290
  879TIP3    H2 2581   0.139   5.484   6.210
  880TIP3   OH2 2582   2.236   3.892   1.434
  880TIP3    H1 2583   2.179   3.818   1.455
  880TIP3    H2 2584   2.176   3.964   1.415
  881TIP3   OH2 2585   6.932   3.952   5.365
  881TIP3    H1 2586   6.914   3.938   5.272
  881TIP3    H2 2587   7.016   3.908   5.380
  882TIP3   OH2 2588   4.804   1.699   5.155
  882TIP3    H1 2589   4.821   1.609   5.182
  882TIP3    H2 2590   4.890   1.733   5.129
  883TIP3   OH2 2591   6.109   5.521   0.417
  883TIP3    H1 2592   6.073   5.450   0.364
  883TIP3    H2 2593   6.203   5.517   0.401
  884TIP3   OH2 2594   2.017   4.697   5.172
  884TIP3    H1 2595   1.998   4.604   5.157
  884TIP3    H2 2596   1.932   4.736   5.192
  885TIP3   OH2 2597   4.036   0.136   2.919
  885TIP3    H1 2598   4.127   0.145   2.948
  885TIP3    H2 2599   3.984   0.165   2.995
  886TIP3   OH2 2600   7.846   3.038   1.245
  886TIP3    H1 2601   7.762   3.023   1.202
  886TIP3    H2 2602   7.905   2.975   1.204
  887TIP3   OH2 2603   3.329   4.158   6.596
  887TIP3    H1 2604   3.315   4.248   6.567
  887TIP3    H2 2605   3.366   4.114   6.519
  888TIP3   OH2 2606   5.964   3.540   0.462
  888TIP3    H1 2607   6.034   3.496   0.510
  888TIP3    H2 2608   5.993   3.539   0.371
  889TIP3   OH2 2609   6.356   1.555   6.117
  889TIP3    H1 2610   6.358   1.512   6.031
  889TIP3    H2 2611   6.315   1.639   6.100
  890TIP3   OH2 2612   5.683   1.695   2.675
  890TIP3    H1 2613   5.677   1.706   2.770
  890TIP3    H2 2614   5.597   1.662   2.649
  891TIP3   OH2 2615   5.607   3.310   6.563
  891TIP3    H1 2616   5.692   3.319   6.606
  891TIP3    H2 2617   5.558   3.251   6.619
  892TIP3   OH2 2618   6.320   3.439   4.756
  892TIP3    H1 2619   6.341   3.498   4.684
  892TIP3    H2 2620   6.231   3.462   4.782
  893TIP3   OH2 2621   5.470   7.498   2.997
  893TIP3    H1 2622   5.552   7.542   2.976
  893TIP3    H2 2623   5.489   7.447   3.075
  894TIP3   OH2 2624   0.016   3.136   2.524
  894TIP3    H1 2625   0.015   3.219   2.573
  894TIP3    H2 2626   0.108   3.120   2.506
  895TIP3   OH2 2627   0.230   4.744   1.947
  895TIP3    H1 2628   0.312   4.699   1.969
  895TIP3    H2 2629   0.256   4.813   1.886
  896TIP3   OH2 2630   3.294   3.244   6.431
  896TIP3    H1 2631   3.327   3.154   6.432
  896TIP3    H2 2632   3.373   3.298   6.427
  897TIP3   OH2 2633   1.356   1.103   5.139
  897TIP3    H1 2634   1.427   1.039   5.135
  897TIP3    H2 2635   1.304   1.086   5.060
  898TIP3   OH2 2636   6.623   1.334   4.754
  898TIP3    H1 2637   6.679   1.316   4.830
  898TIP3    H2 2638   6.681   1.326   4.679
  899TIP3   OH2 2639   6.559   0.252   1.443
  899TIP3    H1 2640   6.499   0.180   1.463
  899TIP3    H2 2641   6.503   0.329   1.440
  900TIP3   OH2 2642   7.002   2.312   5.687
  900TIP3    H1 2643   6.965   2.341   5.603
  900TIP3    H2 2644   7.016   2.393   5.736
  901TIP3   OH2 2645   2.006   3.705   1.532
  901TIP3    H1 2646   1.985   3.652   1.609
  901TIP3    H2 2647   1.973   3.654   1.458
  902TIP3   OH2 2648   4.859   5.089   2.946
  902TIP3    H1 2649   4.902   5.003   2.944
  902TIP3    H2 2650   4.804   5.086   3.024
  903TIP3   OH2 2651   4.087   4.008   1.634
  903TIP3    H1 2652   4.032   3.930   1.635
  903TIP3    H2 2653   4.062   4.053   1.552
  904TIP3   OH2 2654   3.491   7.187   4.033
  904TIP3    H1 2655   3.521   7.111   4.083
  904TIP3    H2 2656   3.568   7.215   3.984
  905TIP3   OH2 2657   1.641   4.047   4.920
  905TIP3    H1 2658   1.689   3.989   4.861
  905TIP3    H2 2659   1.697   4.124   4.929
  906TIP3   OH2 2660   5.600   3.407   3.733
  906TIP3    H1 2661   5.544   3.465   3.681
  906TIP3    H2 2662   5.539   3.346   3.775
  907TIP3   OH2 2663   5.023   4.343   3.750
  907TIP3    H1 2664   4.939   4.317   3.787
  907TIP3    H2 2665   5.074   4.262   3.746
  908TIP3   OH2 2666   6.132   1.727   1.731
  908TIP3    H1 2667   6.204   1.676   1.694
  908TIP3    H2 2668   6.167   1.761   1.814
  909TIP3   OH2 2669   5.335   5.150   1.425
  909TIP3    H1 2670   5.344   5.104   1.341
  909TIP3    H2 2671   5.304   5.083   1.485
  910TIP3   OH2 2672   1.464   2.018   4.421
  910TIP3    H1 2673   1.422   1.982   4.342
  910TIP3    H2 2674   1.534   2.073   4.387
  911TIP3   OH2 2675   5.955   0.753   3.623
  911TIP3    H1 2676   6.004   0.827   3.588
  911TIP3    H2 2677   5.953   0.768   3.717
  912TIP3   OH2 2678   4.708   1.425   4.614
  912TIP3    H1 2679   4.726   1.343   4.660
  912TIP3    H2 2680   4.613   1.434   4.616
  913TIP3   OH2 2681   0.727   1.043   1.686
  913TIP3    H1 2682   0.760   1.059   1.597
  913TIP3    H2 2683   0.639   1.007   1.672
  914TIP3   OH2 2684   5.479   1.298   4.642
  914TIP3    H1 2685   5.407   1.340   4.690
  914TIP3    H2 2686   5.436   1.258   4.567
  915TIP3   OH2 2687   6.551   4.199   5.005
  915TIP3    H1 2688   6.459   4.210   4.983
  915TIP3    H2 2689   6.595   4.273   4.962
  916TIP3   OH2 2690   7.060   6.262   5.070
  916TIP3    H1 2691   7.129   6.201   5.043
  916TIP3    H2 2692   7.034   6.232   5.157
  917TIP3   OH2 2693   4.111   3.363   1.537
  917TIP3    H1 2694   4.183   3.365   1.474
  917TIP3    H2 2695   4.154   3.363   1.622
  918TIP3   OH2 2696   3.576   4.350   3.274
  918TIP3    H1 2697   3.512   4.294   3.230
  918TIP3    H2 2698   3.583   4.313   3.363
  919TIP3   OH2 2699   5.197   7.132  -0.068
  919TIP3    H1 2700   5.289   7.152  -0.054
  919TIP3    H2 2701   5.170   7.087   0.012
  920TIP3   OH2 2702   4.418   5.128   4.581
  920TIP3    H1 2703   4.484   5.075   4.627
  920TIP3    H2 2704   4.456   5.216   4.579
  921TIP3   OH2 2705   2.150   0.412   6.001
  921TIP3    H1 2706   2.145   0.317   6.017
  921TIP3    H2 2707   2.068   0.446   6.038
  922TIP3   OH2 2708   3.694   6.680   5.572
  922TIP3    H1 2709   3.765   6.637   5.524
  922TIP3    H2 2710   3.632   6.610   5.592
  923TIP3   OH2 2711   0.317   2.162   4.592
  923TIP3    H1 2712   0.230   2.181   4.628
  923TIP3    H2 2713   0.298   2.124   4.506
  924TIP3   OH2 2714   6.820   4.593   3.115
  924TIP3    H1 2715   6.795   4.520   3.172
  924TIP3    H2 2716   6.914   4.581   3.100
  925TIP3   OH2 2717   4.920   6.655   6.579
  925TIP3    H1 2718   4.962   6.648   6.664
  925TIP3    H2 2719   4.962   6.730   6.537
  926TIP3   OH2 2720   7.967   7.758   4.948
  926TIP3    H1 2721   8.021   7.691   4.990
  926TIP3    H2 2722   7.981   7.745   4.855
  927TIP3   OH2 2723   5.484   3.168   3.258
  927TIP3    H1 2724   5.440   3.188   3.176
  927TIP3    H2 2725   5.437   3.219   3.324
  928TIP3   OH2 2726   1.021   4.366   6.256
  928TIP3    H1 2727   0.971   4.387   6.178
  928TIP3    H2 2728   1.006   4.273   6.271
  929TIP3   OH2 2729   2.900   3.562   1.461
  929TIP3    H1 2730   2.854   3.575   1.544
  929TIP3    H2 2731   2.863   3.481   1.425
  930TIP3   OH2 2732   7.834   1.901   0.280
  930TIP3    H1 2733   7.885   1.836   0.328
  930TIP3    H2 2734   7.838   1.980   0.335
  931TIP3   OH2 2735   1.158   0.465   3.872
  931TIP3    H1 2736   1.225   0.506   3.818
  931TIP3    H2 2737   1.206   0.404   3.929
  932TIP3   OH2 2738   0.300   5.358   1.955
  932TIP3    H1 2739   0.360   5.314   1.894
  932TIP3    H2 2740   0.240   5.407   1.899
  933TIP3   OH2 2741   1.616   3.460   3.796
  933TIP3    H1 2742   1.521   3.468   3.790
  933TIP3    H2 2743   1.648   3.550   3.801
  934TIP3   OH2 2744   0.367   7.255   3.151
  934TIP3    H1 2745   0.325   7.241   3.236
  934TIP3    H2 2746   0.298   7.239   3.087
  935TIP3   OH2 2747   7.586   5.716   3.533
  935TIP3    H1 2748   7.584   5.657   3.458
  935TIP3    H2 2749   7.508   5.771   3.523
  936TIP3   OH2 2750   3.896   1.707   5.834
  936TIP3    H1 2751   3.814   1.689   5.881
  936TIP3    H2 2752   3.936   1.621   5.823
  937TIP3   OH2 2753   4.784   0.993   0.918
  937TIP3    H1 2754   4.790   1.046   0.998
  937TIP3    H2 2755   4.742   1.051   0.854
  938TIP3   OH2 2756   1.860   7.694   5.071
  938TIP3    H1 2757   1.853   7.746   4.991
  938TIP3    H2 2758   1.943   7.721   5.110
  939TIP3   OH2 2759   5.872   1.376   3.509
  939TIP3    H1 2760   5.952   1.421   3.536
  939TIP3    H2 2761   5.829   1.352   3.591
  940TIP3   OH2 2762   7.855   6.937   0.373
  940TIP3    H1 2763   7.941   6.972   0.349
  940TIP3    H2 2764   7.873   6.876   0.445
  941TIP3   OH2 2765   0.095   6.652   6.060
  941TIP3    H1 2766   0.086   6.562   6.090
  941TIP3    H2 2767   0.096   6.646   5.965
  942TIP3   OH2 2768   6.716   3.000   2.186
  942TIP3    H1 2769   6.655   2.960   2.124
  942TIP3    H2 2770   6.739   2.929   2.246
  943TIP3   OH2 2771   2.046   4.613   5.836
  943TIP3    H1 2772   2.056   4.579   5.925
  943TIP3    H2 2773   1.952   4.630   5.827
  944TIP3   OH2 2774   1.932   3.606   5.082
  944TIP3    H1 2775   1.882   3.524   5.081
  944TIP3    H2 2776   1.963   3.616   4.993
  945TIP3   OH2 2777   7.942   3.018   6.245
  945TIP3    H1 2778   7.958   2.954   6.314
  945TIP3    H2 2779   7.864   2.986   6.200
  946TIP3   OH2 2780   3.157   7.738   1.721
  946TIP3    H1 2781   3.202   7.701   1.797
  946TIP3    H2 2782   3.096   7.802   1.758
  947TIP3   OH2 2783   0.655   0.882   5.295
  947TIP3    H1 2784   0.688   0.805   5.342
  947TIP3    H2 2785   0.574   0.852   5.254
  948TIP3   OH2 2786   1.124   5.543   2.175
  948TIP3    H1 2787   1.113   5.537   2.080
  948TIP3    H2 2788   1.056   5.485   2.210
  949TIP3   OH2 2789   4.667   2.323   4.003
  949TIP3    H1 2790   4.657   2.280   3.918
  949TIP3    H2 2791   4.727   2.395   3.986
  950TIP3   OH2 2792   2.668   3.731   2.929
  950TIP3    H1 2793   2.754   3.767   2.951
  950TIP3    H2 2794   2.685   3.641   2.904
  951TIP3   OH2 2795   3.470   5.407   0.679
  951TIP3    H1 2796   3.378   5.381   0.681
  951TIP3    H2 2797   3.517   5.326   0.664
  952TIP3   OH2 2798   7.728   0.306   1.971
  952TIP3    H1 2799   7.796   0.347   1.918
  952TIP3    H2 2800   7.762   0.308   2.060
  953TIP3   OH2 2801   5.375   2.898   6.368
  953TIP3    H1 2802   5.423   2.818   6.388
  953TIP3    H2 2803   5.286   2.880   6.398
  954TIP3   OH2 2804   1.871   3.921   5.169
  954TIP3    H1 2805   1.950   3.894   5.216
  954TIP3    H2 2806   1.849   3.846   5.113
  955TIP3   OH2 2807   0.419   6.372   4.975
  955TIP3    H1 2808   0.463   6.456   4.991
  955TIP3    H2 2809   0.390   6.378   4.884
  956TIP3   OH2 2810   7.988   1.672   6.371
  956TIP3    H1 2811   8.003   1.766   6.381
  956TIP3    H2 2812   8.075   1.632   6.381
  957TIP3   OH2 2813   7.145   1.923   0.433
  957TIP3    H1 2814   7.090   1.938   0.356
  957TIP3    H2 2815   7.087   1.880   0.496
  958TIP3   OH2 2816   3.524   6.856   5.443
  958TIP3    H1 2817   3.432   6.850   5.467
  958TIP3    H2 2818   3.571   6.810   5.513
  959TIP3   OH2 2819   7.955   7.356   4.789
  959TIP3    H1 2820   7.969   7.313   4.705
  959TIP3    H2 2821   7.862   7.378   4.789
  960TIP3   OH2 2822   1.515   2.335   3.578
  960TIP3    H1 2823   1.604   2.348   3.546
  960TIP3    H2 2824   1.497   2.242   3.563
  961TIP3   OH2 2825   1.420   3.649   1.810
  961TIP3    H1 2826   1.334   3.621   1.778
  961TIP3    H2 2827   1.411   3.647   1.906
  962TIP3   OH2 2828   2.880   4.597   1.585
  962TIP3    H1 2829   2.908   4.506   1.596
  962TIP3    H2 2830   2.828   4.616   1.663
  963TIP3   OH2 2831   2.256   7.242   0.157
  963TIP3    H1 2832   2.233   7.324   0.199
  963TIP3    H2 2833   2.187   7.229   0.091
  964TIP3   OH2 2834   6.605   3.784   6.655
  964TIP3    H1 2835   6.533   3.817   6.709
  964TIP3    H2 2836   6.573   3.699   6.623
  965TIP3   OH2 2837   0.078   3.009   1.166
  965TIP3    H1 2838   0.079   3.013   1.262
  965TIP3    H2 2839   0.138   3.079   1.139
  966TIP3   OH2 2840   2.193   5.624   5.551
  966TIP3    H1 2841   2.150   5.539   5.541
  966TIP3    H2 2842   2.195   5.660   5.463
  967TIP3   OH2 2843   7.621   1.404   6.567
  967TIP3    H1 2844   7.667   1.365   6.492
  967TIP3    H2 2845   7.678   1.475   6.596
  968TIP3   OH2 2846   1.571   0.599   2.806
  968TIP3    H1 2847   1.561   0.694   2.813
  968TIP3    H2 2848   1.592   0.570   2.895
  969TIP3   OH2 2849   6.534   4.584   6.267
  969TIP3    H1 2850   6.610   4.549   6.314
  969TIP3    H2 2851   6.479   4.622   6.335
  970TIP3   OH2 2852   8.069   2.949   0.784
  970TIP3    H1 2853   8.102   2.929   0.697
  970TIP3    H2 2854   7.988   2.897   0.791
  971TIP3   OH2 2855   4.276   5.312   3.554
  971TIP3    H1 2856   4.253   5.318   3.646
  971TIP3    H2 2857   4.217   5.373   3.510
  972TIP3   OH2 2858   3.596   6.308   4.457
  972TIP3    H1 2859   3.542   6.230   4.470
  972TIP3    H2 2860   3.680   6.275   4.426
  973TIP3   OH2 2861   1.649   4.077   6.498
  973TIP3    H1 2862   1.743   4.064   6.484
  973TIP3    H2 2863   1.637   4.172   6.496
  974TIP3   OH2 2864   1.898   1.296   2.177
  974TIP3    H1 2865   1.901   1.275   2.270
  974TIP3    H2 2866   1.855   1.382   2.173
  975TIP3   OH2 2867   0.273   1.095   1.600
  975TIP3    H1 2868   0.292   1.077   1.692
  975TIP3    H2 2869   0.333   1.165   1.576
  976TIP3   OH2 2870   4.993   1.737   4.218
  976TIP3    H1 2871   5.055   1.714   4.287
  976TIP3    H2 2872   4.992   1.662   4.159
  977TIP3   OH2 2873   3.721   2.381   4.274
  977TIP3    H1 2874   3.787   2.404   4.208
  977TIP3    H2 2875   3.762   2.403   4.357
  978TIP3   OH2 2876   1.701   4.775   3.015
  978TIP3    H1 2877   1.771   4.812   3.069
  978TIP3    H2 2878   1.626   4.770   3.073
  979TIP3   OH2 2879   0.426   0.661   6.644
  979TIP3    H1 2880   0.368   0.651   6.719
  979TIP3    H2 2881   0.449   0.571   6.619
  980TIP3   OH2 2882   1.800   2.746   2.024
  980TIP3    H1 2883   1.822   2.675   2.085
  980TIP3    H2 2884   1.705   2.741   2.014
  981TIP3   OH2 2885   7.259   0.615   6.013
  981TIP3    H1 2886   7.265   0.530   5.969
  981TIP3    H2 2887   7.312   0.674   5.960
  982TIP3   OH2 2888   6.167   1.257   2.752
  982TIP3    H1 2889   6.196   1.233   2.664
  982TIP3    H2 2890   6.075   1.281   2.741
  983TIP3   OH2 2891   4.299   4.862   5.961
  983TIP3    H1 2892   4.206   4.875   5.980
  983TIP3    H2 2893   4.324   4.786   6.013
  984TIP3   OH2 2894   1.272   5.219   4.490
  984TIP3    H1 2895   1.227   5.189   4.569
  984TIP3    H2 2896   1.204   5.268   4.442
  985TIP3   OH2 2897   2.517   5.443   0.401
  985TIP3    H1 2898   2.457   5.422   0.330
  985TIP3    H2 2899   2.519   5.364   0.456
  986TIP3   OH2 2900   3.200   2.239   2.085
  986TIP3    H1 2901   3.193   2.257   1.992
  986TIP3    H2 2902   3.133   2.173   2.102
  987TIP3   OH2 2903   7.858   5.554   5.683
  987TIP3    H1 2904   7.952   5.560   5.699
  987TIP3    H2 2905   7.839   5.627   5.624
  988TIP3   OH2 2906   3.883   2.454   4.065
  988TIP3    H1 2907   3.885   2.446   3.970
  988TIP3    H2 2908   3.975   2.454   4.091
  989TIP3   OH2 2909   7.585   1.366   2.634
  989TIP3    H1 2910   7.519   1.407   2.577
  989TIP3    H2 2911   7.533   1.319   2.699
  990TIP3   OH2 2912   4.849   2.919   2.030
  990TIP3    H1 2913   4.822   2.882   2.114
  990TIP3    H2 2914   4.869   2.843   1.975
  991TIP3   OH2 2915   4.178   7.542   3.205
  991TIP3    H1 2916   4.115   7.508   3.141
  991TIP3    H2 2917   4.142   7.627   3.231
  992TIP3   OH2 2918   1.755   4.790   4.889
  992TIP3    H1 2919   1.670   4.827   4.865
  992TIP3    H2 2920   1.735   4.705   4.927
  993TIP3   OH2 2921   4.219   4.343   4.175
  993TIP3    H1 2922   4.290   4.310   4.230
  993TIP3    H2 2923   4.245   4.433   4.154
  994TIP3   OH2 2924   0.743   6.570   0.586
  994TIP3    H1 2925   0.649   6.579   0.600
  994TIP3    H2 2926   0.783   6.630   0.649
  995TIP3   OH2 2927   3.674   7.274   0.947
  995TIP3    H1 2928   3.658   7.187   0.983
  995TIP3    H2 2929   3.769   7.280   0.937
  996TIP3   OH2 2930   0.807   3.433   6.765
  996TIP3    H1 2931   0.831   3.484   6.843
  996TIP3    H2 2932   0.846   3.482   6.692
  997TIP3   OH2 2933   7.498   4.285   2.340
  997TIP3    H1 2934   7.486   4.349   2.271
  997TIP3    H2 2935   7.519   4.203   2.294
  998TIP3   OH2 2936   7.865   2.758   0.822
  998TIP3    H1 2937   7.908   2.692   0.767
  998TIP3    H2 2938   7.804   2.708   0.876
  999TIP3   OH2 2939   6.208   4.496   5.172
  999TIP3    H1 2940   6.218   4.588   5.197
  999TIP3    H2 2941   6.132   4.466   5.222
 1000TIP3   OH2 2942   0.166   2.643   5.639
 1000TIP3    H1 2943   0.129   2.596   5.714
 1000TIP3    H2 2944   0.243   2.593   5.615
 1001TIP3   OH2 2945   5.019   7.570   4.971
 1001TIP3    H1 2946   5.000   7.642   4.912
 1001TIP3    H2 2947   5.113   7.579   4.990
 1002TIP3   OH2 2948   3.998   1.763   6.369
 1002TIP3    H1 2949   4.033   1.852   6.384
 1002TIP3    H2 2950   4.023   1.714   6.447
 1003TIP3   OH2 2951   8.073   5.769   5.317
 1003TIP3    H1 2952   8.166   5.748   5.329
 1003TIP3    H2 2953   8.028   5.690   5.346
 1004TIP3   OH2 2954   3.260   1.527   5.766
 1004TIP3    H1 2955   3.355   1.526   5.779
 1004TIP3    H2 2956   3.226   1.466   5.832
 1005TIP3   OH2 2957   4.484   6.427   1.122
 1005TIP3    H1 2958   4.449   6.341   1.098
 1005TIP3    H2 2959   4.522   6.461   1.041
 1006TIP3   OH2 2960   0.608   0.820   1.969
 1006TIP3    H1 2961   0.696   0.786   1.954
 1006TIP3    H2 2962   0.621   0.907   2.006
 1007TIP3   OH2 2963   6.168   7.141   1.650
 1007TIP3    H1 2964   6.248   7.132   1.599
 1007TIP3    H2 2965   6.170   7.066   1.710
 1008TIP3   OH2 2966   6.277   4.215   2.089
 1008TIP3    H1 2967   6.366   4.224   2.053
 1008TIP3    H2 2968   6.226   4.178   2.017
 1009TIP3   OH2 2969   4.936   6.256   6.763
 1009TIP3    H1 2970   4.905   6.166   6.774
 1009TIP3    H2 2971   4.892   6.306   6.832
 1010TIP3   OH2 2972   6.593   6.637   4.938
 1010TIP3    H1 2973   6.680   6.670   4.913
 1010TIP3    H2 2974   6.611   6.560   4.992
 1011TIP3   OH2 2975   3.354   1.117   5.427
 1011TIP3    H1 2976   3.301   1.142   5.352
 1011TIP3    H2 2977   3.321   1.171   5.499
 1012TIP3   OH2 2978   7.274   6.650   1.296
 1012TIP3    H1 2979   7.209   6.584   1.277
 1012TIP3    H2 2980   7.244   6.692   1.377
 1013TIP3   OH2 2981   6.868   4.712   1.030
 1013TIP3    H1 2982   6.926   4.699   1.105
 1013TIP3    H2 2983   6.796   4.766   1.063
 1014TIP3   OH2 2984   4.842   6.799   2.978
 1014TIP3    H1 2985   4.879   6.783   3.064
 1014TIP3    H2 2986   4.781   6.871   2.991
 1015TIP3   OH2 2987   1.903   7.056   4.918
 1015TIP3    H1 2988   1.923   7.018   4.833
 1015TIP3    H2 2989   1.808   7.046   4.928
 1016TIP3   OH2 2990   1.506   6.064   1.935
 1016TIP3    H1 2991   1.583   6.046   1.880
 1016TIP3    H2 2992   1.543   6.096   2.017
 1017TIP3   OH2 2993   2.921   5.823   2.354
 1017TIP3    H1 2994   2.938   5.734   2.323
 1017TIP3    H2 2995   2.990   5.876   2.314
 1018TIP3   OH2 2996   7.901   4.401   6.469
 1018TIP3    H1 2997   7.891   4.394   6.374
 1018TIP3    H2 2998   7.966   4.334   6.491
 1019TIP3   OH2 2999   4.686   2.757   0.263
 1019TIP3    H1 3000   4.642   2.676   0.288
 1019TIP3    H2 3001   4.713   2.796   0.346
 1020TIP3   OH2 3002   6.934   4.719   5.759
 1020TIP3    H1 3003   6.902   4.630   5.744
 1020TIP3    H2 3004   6.899   4.742   5.846
 1021TIP3   OH2 3005   4.058   6.159   0.469
 1021TIP3    H1 3006   4.103   6.088   0.514
 1021TIP3    H2 3007   3.971   6.124   0.448
 1022TIP3   OH2 3008   2.483   7.395   2.458
 1022TIP3    H1 3009   2.544   7.446   2.510
 1022TIP3    H2 3010   2.537   7.356   2.389
 1023TIP3   OH2 3011   7.548   7.571   6.550
 1023TIP3    H1 3012   7.613   7.642   6.554
 1023TIP3    H2 3013   7.560   7.523   6.631
 1024TIP3   OH2 3014   6.720   3.858   1.710
 1024TIP3    H1 3015   6.734   3.950   1.731
 1024TIP3    H2 3016   6.641   3.834   1.759
 1025TIP3   OH2 3017   1.761   2.901   3.613
 1025TIP3    H1 3018   1.767   2.930   3.522
 1025TIP3    H2 3019   1.706   2.823   3.610
 1026TIP3   OH2 3020   4.333   5.520   0.550
 1026TIP3    H1 3021   4.378   5.457   0.607
 1026TIP3    H2 3022   4.382   5.516   0.468
 1027TIP3   OH2 3023   4.245   1.122   5.493
 1027TIP3    H1 3024   4.282   1.035   5.508
 1027TIP3    H2 3025   4.176   1.108   5.428
 1028TIP3   OH2 3026   4.067   1.007   3.842
 1028TIP3    H1 3027   4.001   0.957   3.793
 1028TIP3    H2 3028   4.146   0.953   3.837
 1029TIP3   OH2 3029   6.765   0.231   4.164
 1029TIP3    H1 3030   6.813   0.250   4.083
 1029TIP3    H2 3031   6.802   0.148   4.194
 1030TIP3   OH2 3032   6.056   5.378   4.406
 1030TIP3    H1 3033   6.001   5.451   4.435
 1030TIP3    H2 3034   6.099   5.410   4.327
 1031TIP3   OH2 3035   6.710   3.529   6.466
 1031TIP3    H1 3036   6.796   3.527   6.507
 1031TIP3    H2 3037   6.722   3.482   6.383
 1032TIP3   OH2 3038   2.593   4.810   5.467
 1032TIP3    H1 3039   2.663   4.771   5.415
 1032TIP3    H2 3040   2.561   4.883   5.414
 1033TIP3   OH2 3041   3.929   2.009   2.422
 1033TIP3    H1 3042   3.849   2.008   2.370
 1033TIP3    H2 3043   3.972   1.926   2.402
 1034TIP3   OH2 3044   1.007   5.024   0.065
 1034TIP3    H1 3045   0.912   5.015   0.062
 1034TIP3    H2 3046   1.034   5.022  -0.026
 1035TIP3   OH2 3047   4.389   1.474   2.856
 1035TIP3    H1 3048   4.344   1.532   2.918
 1035TIP3    H2 3049   4.440   1.415   2.911
 1036TIP3   OH2 3050   0.672   4.125   4.928
 1036TIP3    H1 3051   0.618   4.069   4.984
 1036TIP3    H2 3052   0.610   4.164   4.866
 1037TIP3   OH2 3053   5.143   2.194   3.362
 1037TIP3    H1 3054   5.085   2.193   3.438
 1037TIP3    H2 3055   5.193   2.113   3.369
 1038TIP3   OH2 3056   0.181   0.404   2.365
 1038TIP3    H1 3057   0.196   0.498   2.378
 1038TIP3    H2 3058   0.226   0.383   2.284
 1039TIP3   OH2 3059   1.951   6.440   6.194
 1039TIP3    H1 3060   1.878   6.387   6.164
 1039TIP3    H2 3061   1.915   6.528   6.203
 1040TIP3   OH2 3062   1.160   2.976   2.950
 1040TIP3    H1 3063   1.222   2.904   2.938
 1040TIP3    H2 3064   1.216   3.054   2.955
 1041TIP3   OH2 3065   3.777   5.614   6.422
 1041TIP3    H1 3066   3.712   5.544   6.434
 1041TIP3    H2 3067   3.775   5.662   6.505
 1042TIP3   OH2 3068   0.259   7.083   4.602
 1042TIP3    H1 3069   0.200   7.013   4.576
 1042TIP3    H2 3070   0.279   7.129   4.520
 1043TIP3   OH2 3071   4.898   2.234   4.226
 1043TIP3    H1 3072   4.808   2.231   4.257
 1043TIP3    H2 3073   4.897   2.301   4.158
 1044TIP3   OH2 3074   4.300   2.546   4.424
 1044TIP3    H1 3075   4.228   2.600   4.455
 1044TIP3    H2 3076   4.300   2.470   4.483
 1045TIP3   OH2 3077   3.086   3.543   5.614
 1045TIP3    H1 3078   3.139   3.465   5.631
 1045TIP3    H2 3079   2.996   3.512   5.620
 1046TIP3   OH2 3080   3.030   3.553   1.048
 1046TIP3    H1 3081   3.064   3.590   0.966
 1046TIP3    H2 3082   3.065   3.463   1.050
 1047TIP3   OH2 3083   1.762   7.728   0.269
 1047TIP3    H1 3084   1.812   7.733   0.188
 1047TIP3    H2 3085   1.674   7.701   0.241
 1048TIP3   OH2 3086   5.421   3.154   2.860
 1048TIP3    H1 3087   5.343   3.122   2.814
 1048TIP3    H2 3088   5.386   3.209   2.930
 1049TIP3   OH2 3089   7.056   6.250   1.120
 1049TIP3    H1 3090   7.079   6.159   1.137
 1049TIP3    H2 3091   7.056   6.258   1.025
 1050TIP3   OH2 3092   1.332   4.200   2.888
 1050TIP3    H1 3093   1.248   4.188   2.933
 1050TIP3    H2 3094   1.388   4.131   2.924
 1051TIP3   OH2 3095   1.893   5.457   6.213
 1051TIP3    H1 3096   1.971   5.506   6.238
 1051TIP3    H2 3097   1.926   5.373   6.182
 1052TIP3   OH2 3098   5.987   3.823   4.443
 1052TIP3    H1 3099   5.985   3.903   4.390
 1052TIP3    H2 3100   5.895   3.800   4.454
 1053TIP3   OH2 3101   7.837   2.644   4.119
 1053TIP3    H1 3102   7.807   2.554   4.105
 1053TIP3    H2 3103   7.765   2.698   4.086
 1054TIP3   OH2 3104   7.479   5.440   1.801
 1054TIP3    H1 3105   7.550   5.397   1.753
 1054TIP3    H2 3106   7.447   5.507   1.741
 1055TIP3   OH2 3107  -0.022   2.573   4.636
 1055TIP3    H1 3108   0.001   2.659   4.671
 1055TIP3    H2 3109  -0.051   2.590   4.547
 1056TIP3   OH2 3110   1.012   2.167   1.298
 1056TIP3    H1 3111   0.920   2.183   1.278
 1056TIP3    H2 3112   1.044   2.116   1.223
 1057TIP3   OH2 3113   6.704   4.555   0.613
 1057TIP3    H1 3114   6.649   4.622   0.654
 1057TIP3    H2 3115   6.780   4.603   0.580
 1058TIP3   OH2 3116   3.381   2.230   5.146
 1058TIP3    H1 3117   3.388   2.181   5.064
 1058TIP3    H2 3118   3.368   2.162   5.213
 1059TIP3   OH2 3119   5.860   1.503   2.536
 1059TIP3    H1 3120   5.811   1.571   2.582
 1059TIP3    H2 3121   5.882   1.439   2.604
 1060TIP3   OH2 3122   7.088   6.226   2.930
 1060TIP3    H1 3123   7.003   6.185   2.913
 1060TIP3    H2 3124   7.087   6.246   3.023
 1061TIP3   OH2 3125   6.466   5.659   1.049
 1061TIP3    H1 3126   6.559   5.638   1.041
 1061TIP3    H2 3127   6.444   5.638   1.140
 1062TIP3   OH2 3128   7.939   6.605   5.557
 1062TIP3    H1 3129   7.889   6.678   5.521
 1062TIP3    H2 3130   8.008   6.647   5.608
 1063TIP3   OH2 3131   3.393   1.548   6.076
 1063TIP3    H1 3132   3.334   1.623   6.080
 1063TIP3    H2 3133   3.358   1.486   6.139
 1064TIP3   OH2 3134   2.909   7.447   6.696
 1064TIP3    H1 3135   2.841   7.510   6.672
 1064TIP3    H2 3136   2.864   7.383   6.751
 1065TIP3   OH2 3137   3.538   5.156   5.780
 1065TIP3    H1 3138   3.477   5.139   5.852
 1065TIP3    H2 3139   3.615   5.104   5.801
 1066TIP3   OH2 3140   4.058   1.000   2.973
 1066TIP3    H1 3141   3.984   0.944   2.997
 1066TIP3    H2 3142   4.034   1.035   2.887
 1067TIP3   OH2 3143   2.615   2.214   2.869
 1067TIP3    H1 3144   2.631   2.128   2.909
 1067TIP3    H2 3145   2.529   2.205   2.829
 1068TIP3   OH2 3146   7.651   7.534   5.067
 1068TIP3    H1 3147   7.564   7.570   5.050
 1068TIP3    H2 3148   7.681   7.579   5.146
 1069TIP3   OH2 3149   0.753   5.841   6.197
 1069TIP3    H1 3150   0.791   5.898   6.264
 1069TIP3    H2 3151   0.708   5.901   6.137
 1070TIP3   OH2 3152   4.000   0.162   5.322
 1070TIP3    H1 3153   3.924   0.124   5.277
 1070TIP3    H2 3154   4.007   0.251   5.288
 1071TIP3   OH2 3155   3.160   2.223   5.757
 1071TIP3    H1 3156   3.101   2.297   5.747
 1071TIP3    H2 3157   3.106   2.154   5.795
 1072TIP3   OH2 3158   0.534   2.075   5.922
 1072TIP3    H1 3159   0.506   2.114   6.005
 1072TIP3    H2 3160   0.466   2.101   5.860
 1073TIP3   OH2 3161   2.003   0.468   0.426
 1073TIP3    H1 3162   2.065   0.483   0.355
 1073TIP3    H2 3163   2.038   0.517   0.500
 1074TIP3   OH2 3164   5.705   0.893   0.774
 1074TIP3    H1 3165   5.711   0.853   0.861
 1074TIP3    H2 3166   5.771   0.848   0.722
 1075TIP3   OH2 3167   5.509   4.514   2.963
 1075TIP3    H1 3168   5.489   4.576   3.032
 1075TIP3    H2 3169   5.500   4.565   2.882
 1076TIP3   OH2 3170   0.981   5.264   2.682
 1076TIP3    H1 3171   0.936   5.225   2.756
 1076TIP3    H2 3172   1.039   5.330   2.721
 1077TIP3   OH2 3173   7.384   2.003   5.774
 1077TIP3    H1 3174   7.373   1.963   5.861
 1077TIP3    H2 3175   7.433   1.937   5.724
 1078TIP3   OH2 3176   1.408   1.670   5.189
 1078TIP3    H1 3177   1.450   1.687   5.104
 1078TIP3    H2 3178   1.461   1.602   5.229
 1079TIP3   OH2 3179   3.424   4.408   3.001
 1079TIP3    H1 3180   3.436   4.431   2.909
 1079TIP3    H2 3181   3.488   4.339   3.017
 1080TIP3   OH2 3182   2.861   4.049   0.038
 1080TIP3    H1 3183   2.827   4.106  -0.030
 1080TIP3    H2 3184   2.893   3.972  -0.009
 1081TIP3   OH2 3185   0.825   3.203   5.336
 1081TIP3    H1 3186   0.880   3.135   5.374
 1081TIP3    H2 3187   0.743   3.159   5.315
 1082TIP3   OH2 3188   0.111   0.738   5.385
 1082TIP3    H1 3189   0.204   0.738   5.363
 1082TIP3    H2 3190   0.093   0.648   5.412
 1083TIP3   OH2 3191   4.619   0.562   0.996
 1083TIP3    H1 3192   4.677   0.602   1.061
 1083TIP3    H2 3193   4.678   0.515   0.937
 1084TIP3   OH2 3194   6.776   4.735   6.537
 1084TIP3    H1 3195   6.774   4.830   6.529
 1084TIP3    H2 3196   6.824   4.718   6.617
 1085TIP3   OH2 3197   2.362   3.952   5.989
 1085TIP3    H1 3198   2.429   3.883   5.996
 1085TIP3    H2 3199   2.412   4.033   5.977
 1086TIP3   OH2 3200   1.524   4.890   4.783
 1086TIP3    H1 3201   1.500   4.839   4.705
 1086TIP3    H2 3202   1.564   4.970   4.748
 1087TIP3   OH2 3203   2.313   4.321   6.555
 1087TIP3    H1 3204   2.305   4.262   6.630
 1087TIP3    H2 3205   2.245   4.387   6.569
 1088TIP3   OH2 3206   2.423   7.131   1.871
 1088TIP3    H1 3207   2.337   7.170   1.883
 1088TIP3    H2 3208   2.450   7.160   1.784
 1089TIP3   OH2 3209   1.880   0.718   1.256
 1089TIP3    H1 3210   1.863   0.811   1.246
 1089TIP3    H2 3211   1.885   0.704   1.351
 1090TIP3   OH2 3212   0.350   3.873   0.541
 1090TIP3    H1 3213   0.339   3.779   0.556
 1090TIP3    H2 3214   0.303   3.915   0.613
 1091TIP3   OH2 3215   8.248   1.262   3.139
 1091TIP3    H1 3216   8.187   1.302   3.077
 1091TIP3    H2 3217   8.301   1.335   3.171
 1092TIP3   OH2 3218   6.938   4.463   3.820
 1092TIP3    H1 3219   6.998   4.427   3.886
 1092TIP3    H2 3220   6.891   4.533   3.865
 1093TIP3   OH2 3221   5.811   0.871   2.196
 1093TIP3    H1 3222   5.838   0.924   2.120
 1093TIP3    H2 3223   5.798   0.935   2.266
 1094TIP3   OH2 3224   7.030   6.988   2.756
 1094TIP3    H1 3225   6.983   6.946   2.684
 1094TIP3    H2 3226   6.979   7.066   2.776
 1095TIP3   OH2 3227   2.820   3.849   2.364
 1095TIP3    H1 3228   2.747   3.851   2.426
 1095TIP3    H2 3229   2.892   3.892   2.410
 1096TIP3   OH2 3230   2.225   3.502   4.705
 1096TIP3    H1 3231   2.220   3.485   4.799
 1096TIP3    H2 3232   2.282   3.433   4.672
 1097TIP3   OH2 3233   5.897   6.467   4.983
 1097TIP3    H1 3234   5.917   6.463   5.077
 1097TIP3    H2 3235   5.937   6.388   4.947
 1098TIP3   OH2 3236   6.097   6.215   6.157
 1098TIP3    H1 3237   6.022   6.155   6.161
 1098TIP3    H2 3238   6.060   6.298   6.127
 1099TIP3   OH2 3239   2.130   1.032   5.464
 1099TIP3    H1 3240   2.088   0.955   5.502
 1099TIP3    H2 3241   2.204   1.051   5.522
 1100TIP3   OH2 3242   6.871   1.726   1.067
 1100TIP3    H1 3243   6.783   1.701   1.096
 1100TIP3    H2 3244   6.883   1.814   1.102
 1101TIP3   OH2 3245   3.088   5.279   5.642
 1101TIP3    H1 3246   3.156   5.329   5.598
 1101TIP3    H2 3247   3.083   5.316   5.730
 1102TIP3   OH2 3248   2.406   4.421   0.136
 1102TIP3    H1 3249   2.482   4.365   0.154
 1102TIP3    H2 3250   2.362   4.429   0.221
 1103TIP3   OH2 3251   3.938   3.186   2.835
 1103TIP3    H1 3252   3.955   3.167   2.742
 1103TIP3    H2 3253   3.964   3.107   2.881
 1104TIP3   OH2 3254   6.275   3.748   3.331
 1104TIP3    H1 3255   6.258   3.800   3.410
 1104TIP3    H2 3256   6.267   3.657   3.360
 1105TIP3   OH2 3257   4.580   0.529   5.118
 1105TIP3    H1 3258   4.526   0.525   5.039
 1105TIP3    H2 3259   4.528   0.581   5.179
 1106TIP3   OH2 3260   5.573   5.131   1.593
 1106TIP3    H1 3261   5.617   5.101   1.673
 1106TIP3    H2 3262   5.511   5.061   1.572
 1107TIP3   OH2 3263   4.905   5.461   2.169
 1107TIP3    H1 3264   4.985   5.433   2.124
 1107TIP3    H2 3265   4.855   5.381   2.181
 1108TIP3   OH2 3266   4.195   5.659   4.157
 1108TIP3    H1 3267   4.106   5.693   4.157
 1108TIP3    H2 3268   4.205   5.618   4.243
 1109TIP3   OH2 3269   1.705   7.144   2.026
 1109TIP3    H1 3270   1.773   7.177   2.085
 1109TIP3    H2 3271   1.659   7.077   2.076
 1110TIP3   OH2 3272   4.809   6.118   0.770
 1110TIP3    H1 3273   4.717   6.094   0.778
 1110TIP3    H2 3274   4.855   6.057   0.828
 1111TIP3   OH2 3275   5.028   5.675   3.126
 1111TIP3    H1 3276   4.967   5.602   3.136
 1111TIP3    H2 3277   5.104   5.637   3.080
 1112TIP3   OH2 3278   7.275   4.121   5.535
 1112TIP3    H1 3279   7.337   4.165   5.477
 1112TIP3    H2 3280   7.228   4.193   5.577
 1113TIP3   OH2 3281   6.913   4.702   0.517
 1113TIP3    H1 3282   6.999   4.659   0.512
 1113TIP3    H2 3283   6.928   4.779   0.573
 1114TIP3   OH2 3284   4.575   4.923   6.103
 1114TIP3    H1 3285   4.576   4.829   6.085
 1114TIP3    H2 3286   4.499   4.955   6.056
 1115TIP3   OH2 3287   2.312   6.148   1.966
 1115TIP3    H1 3288   2.234   6.130   2.018
 1115TIP3    H2 3289   2.312   6.243   1.955
 1116TIP3   OH2 3290   0.162   5.198   5.120
 1116TIP3    H1 3291   0.208   5.125   5.162
 1116TIP3    H2 3292   0.070   5.177   5.131
 1117TIP3   OH2 3293   4.010   0.138   5.730
 1117TIP3    H1 3294   4.071   0.120   5.659
 1117TIP3    H2 3295   3.948   0.065   5.727
 1118TIP3   OH2 3296   5.065   4.291   4.288
 1118TIP3    H1 3297   5.090   4.244   4.367
 1118TIP3    H2 3298   5.069   4.383   4.312
 1119TIP3   OH2 3299   6.608   5.330   2.468
 1119TIP3    H1 3300   6.687   5.322   2.521
 1119TIP3    H2 3301   6.556   5.252   2.490
 1120TIP3   OH2 3302   7.563   5.988   6.614
 1120TIP3    H1 3303   7.597   6.054   6.675
 1120TIP3    H2 3304   7.493   5.945   6.663
 1121TIP3   OH2 3305   1.087   2.674   6.654
 1121TIP3    H1 3306   1.173   2.665   6.612
 1121TIP3    H2 3307   1.106   2.712   6.739
 1122TIP3   OH2 3308   1.986   2.097   1.816
 1122TIP3    H1 3309   1.894   2.113   1.797
 1122TIP3    H2 3310   2.011   2.166   1.878
 1123TIP3   OH2 3311   7.396   3.168   6.559
 1123TIP3    H1 3312   7.345   3.162   6.639
 1123TIP3    H2 3313   7.461   3.235   6.577
 1124TIP3   OH2 3314   5.585   6.563   0.380
 1124TIP3    H1 3315   5.588   6.468   0.364
 1124TIP3    H2 3316   5.626   6.573   0.466
 1125TIP3   OH2 3317   6.194   6.658   3.626
 1125TIP3    H1 3318   6.257   6.677   3.556
 1125TIP3    H2 3319   6.224   6.576   3.665
 1126TIP3   OH2 3320   3.021   5.933   2.793
 1126TIP3    H1 3321   2.971   5.857   2.763
 1126TIP3    H2 3322   2.954   5.998   2.814
 1127TIP3   OH2 3323   0.990   5.182   3.215
 1127TIP3    H1 3324   1.013   5.275   3.212
 1127TIP3    H2 3325   0.911   5.175   3.162
 1128TIP3   OH2 3326   7.670   0.186   3.553
 1128TIP3    H1 3327   7.586   0.160   3.591
 1128TIP3    H2 3328   7.715   0.103   3.535
 1129TIP3   OH2 3329   5.870   5.780   3.813
 1129TIP3    H1 3330   5.911   5.701   3.777
 1129TIP3    H2 3331   5.922   5.852   3.779
 1130TIP3   OH2 3332   5.694   0.068   2.497
 1130TIP3    H1 3333   5.608   0.066   2.539
 1130TIP3    H2 3334   5.679   0.026   2.412
 1131TIP3   OH2 3335   8.183   6.586   5.409
 1131TIP3    H1 3336   8.241   6.534   5.465
 1131TIP3    H2 3337   8.097   6.548   5.421
 1132TIP3   OH2 3338   4.608   6.765   3.628
 1132TIP3    H1 3339   4.655   6.825   3.686
 1132TIP3    H2 3340   4.673   6.737   3.564
 1133TIP3   OH2 3341   6.940   3.023   2.591
 1133TIP3    H1 3342   6.848   3.035   2.567
 1133TIP3    H2 3343   6.988   3.072   2.525
 1134TIP3   OH2 3344   5.016   7.574   0.454
 1134TIP3    H1 3345   4.998   7.639   0.521
 1134TIP3    H2 3346   4.946   7.509   0.463
 1135TIP3   OH2 3347   7.202   3.515   5.741
 1135TIP3    H1 3348   7.280   3.539   5.692
 1135TIP3    H2 3349   7.189   3.422   5.722
 1136TIP3   OH2 3350   8.271   7.388   4.079
 1136TIP3    H1 3351   8.297   7.403   4.170
 1136TIP3    H2 3352   8.239   7.473   4.049
 1137TIP3   OH2 3353   2.090   0.597   2.522
 1137TIP3    H1 3354   2.125   0.546   2.448
 1137TIP3    H2 3355   2.038   0.534   2.572
 1138TIP3   OH2 3356   2.180   5.063   0.235
 1138TIP3    H1 3357   2.084   5.058   0.242
 1138TIP3    H2 3358   2.204   5.139   0.288
 1139TIP3   OH2 3359   3.380   4.402   1.512
 1139TIP3    H1 3360   3.423   4.435   1.433
 1139TIP3    H2 3361   3.313   4.342   1.480
 1140TIP3   OH2 3362   3.264   6.939   3.015
 1140TIP3    H1 3363   3.300   7.018   2.975
 1140TIP3    H2 3364   3.177   6.964   3.045
 1141TIP3   OH2 3365   5.222   2.693   3.917
 1141TIP3    H1 3366   5.200   2.617   3.971
 1141TIP3    H2 3367   5.176   2.678   3.835
 1142TIP3   OH2 3368   3.022   6.885   3.371
 1142TIP3    H1 3369   3.042   6.919   3.458
 1142TIP3    H2 3370   3.069   6.802   3.366
 1143TIP3   OH2 3371   1.611   0.669   6.235
 1143TIP3    H1 3372   1.651   0.649   6.151
 1143TIP3    H2 3373   1.551   0.741   6.217
 1144TIP3   OH2 3374   4.890   3.018   5.319
 1144TIP3    H1 3375   4.844   3.068   5.386
 1144TIP3    H2 3376   4.821   2.991   5.258
 1145TIP3   OH2 3377   4.230   6.409   2.755
 1145TIP3    H1 3378   4.312   6.439   2.793
 1145TIP3    H2 3379   4.164   6.470   2.789
 1146TIP3   OH2 3380   3.742   3.098   3.528
 1146TIP3    H1 3381   3.671   3.035   3.520
 1146TIP3    H2 3382   3.700   3.179   3.558
 1147TIP3   OH2 3383   5.124   1.810   5.088
 1147TIP3    H1 3384   5.131   1.898   5.125
 1147TIP3    H2 3385   5.187   1.810   5.016
 1148TIP3   OH2 3386   2.934   1.688   1.377
 1148TIP3    H1 3387   2.923   1.594   1.395
 1148TIP3    H2 3388   3.022   1.694   1.340
 1149TIP3   OH2 3389   2.904   4.531   5.558
 1149TIP3    H1 3390   2.880   4.616   5.595
 1149TIP3    H2 3391   2.866   4.467   5.619
 1150TIP3   OH2 3392   5.711   7.348   1.152
 1150TIP3    H1 3393   5.799   7.318   1.176
 1150TIP3    H2 3394   5.725   7.406   1.078
 1151TIP3   OH2 3395   4.372   3.645   4.102
 1151TIP3    H1 3396   4.389   3.551   4.094
 1151TIP3    H2 3397   4.288   3.652   4.146
 1152TIP3   OH2 3398   7.511   3.866   6.080
 1152TIP3    H1 3399   7.416   3.852   6.079
 1152TIP3    H2 3400   7.547   3.782   6.109
 1153TIP3   OH2 3401   4.902   5.334   4.226
 1153TIP3    H1 3402   4.935   5.424   4.233
 1153TIP3    H2 3403   4.976   5.285   4.190
 1154TIP3   OH2 3404   2.441   0.053   0.785
 1154TIP3    H1 3405   2.367   0.080   0.731
 1154TIP3    H2 3406   2.477   0.135   0.819
 1155TIP3   OH2 3407   2.544   7.428   1.586
 1155TIP3    H1 3408   2.637   7.417   1.604
 1155TIP3    H2 3409   2.541   7.486   1.510
 1156TIP3   OH2 3410   7.970   6.938   4.002
 1156TIP3    H1 3411   7.926   6.924   4.085
 1156TIP3    H2 3412   7.942   7.025   3.974
 1157TIP3   OH2 3413   0.715   3.719   5.729
 1157TIP3    H1 3414   0.629   3.676   5.729
 1157TIP3    H2 3415   0.759   3.686   5.651
 1158TIP3   OH2 3416   7.805   3.745   2.101
 1158TIP3    H1 3417   7.875   3.699   2.054
 1158TIP3    H2 3418   7.800   3.701   2.186
 1159TIP3   OH2 3419   5.751   5.557   5.174
 1159TIP3    H1 3420   5.657   5.569   5.164
 1159TIP3    H2 3421   5.789   5.613   5.106
 1160TIP3   OH2 3422   8.179   4.662   0.211
 1160TIP3    H1 3423   8.087   4.679   0.192
 1160TIP3    H2 3424   8.185   4.663   0.306
 1161TIP3   OH2 3425   6.754   0.553   6.308
 1161TIP3    H1 3426   6.742   0.573   6.400
 1161TIP3    H2 3427   6.838   0.592   6.285
 1162TIP3   OH2 3428   8.204   0.640   1.393
 1162TIP3    H1 3429   8.293   0.652   1.362
 1162TIP3    H2 3430   8.180   0.552   1.364
 1163TIP3   OH2 3431   4.967   2.579   2.548
 1163TIP3    H1 3432   4.899   2.646   2.550
 1163TIP3    H2 3433   4.978   2.553   2.639
 1164TIP3   OH2 3434   5.868   4.234   0.436
 1164TIP3    H1 3435   5.930   4.162   0.453
 1164TIP3    H2 3436   5.835   4.216   0.348
 1165TIP3   OH2 3437   0.814   7.029   4.392
 1165TIP3    H1 3438   0.742   7.028   4.455
 1165TIP3    H2 3439   0.773   7.048   4.308
 1166TIP3   OH2 3440   3.930   7.577   4.024
 1166TIP3    H1 3441   3.993   7.507   4.008
 1166TIP3    H2 3442   3.958   7.648   3.966
 1167TIP3   OH2 3443   5.247   6.010   6.370
 1167TIP3    H1 3444   5.271   5.921   6.397
 1167TIP3    H2 3445   5.176   5.997   6.307
 1168TIP3   OH2 3446   2.706   2.385   1.786
 1168TIP3    H1 3447   2.644   2.451   1.754
 1168TIP3    H2 3448   2.661   2.301   1.772
 1169TIP3   OH2 3449   6.269   5.002   5.550
 1169TIP3    H1 3450   6.317   5.040   5.624
 1169TIP3    H2 3451   6.189   4.967   5.589
 1170TIP3   OH2 3452   1.115   1.356   0.483
 1170TIP3    H1 3453   1.208   1.372   0.467
 1170TIP3    H2 3454   1.081   1.441   0.511
 1171TIP3   OH2 3455   1.050   1.413   2.912
 1171TIP3    H1 3456   1.021   1.345   2.973
 1171TIP3    H2 3457   0.969   1.450   2.876
 1172TIP3   OH2 3458   2.108   0.786   2.740
 1172TIP3    H1 3459   2.132   0.724   2.671
 1172TIP3    H2 3460   2.015   0.802   2.726
 1173TIP3   OH2 3461   5.587   3.854   3.682
 1173TIP3    H1 3462   5.659   3.792   3.672
 1173TIP3    H2 3463   5.538   3.821   3.757
 1174TIP3   OH2 3464   6.878   6.484   0.841
 1174TIP3    H1 3465   6.967   6.452   0.851
 1174TIP3    H2 3466   6.822   6.410   0.866
 1175TIP3   OH2 3467   3.798   5.903   4.078
 1175TIP3    H1 3468   3.763   5.988   4.051
 1175TIP3    H2 3469   3.828   5.863   3.996
 1176TIP3   OH2 3470   6.916   4.153   1.401
 1176TIP3    H1 3471   6.916   4.068   1.357
 1176TIP3    H2 3472   6.939   4.215   1.332
 1177TIP3   OH2 3473   3.777   1.053   2.223
 1177TIP3    H1 3474   3.755   1.117   2.156
 1177TIP3    H2 3475   3.869   1.031   2.208
 1178TIP3   OH2 3476   1.612   6.108   2.778
 1178TIP3    H1 3477   1.567   6.100   2.694
 1178TIP3    H2 3478   1.541   6.110   2.843
 1179TIP3   OH2 3479   4.792   0.599   4.104
 1179TIP3    H1 3480   4.721   0.652   4.066
 1179TIP3    H2 3481   4.871   0.630   4.060
 1180TIP3   OH2 3482   6.123   5.235   4.835
 1180TIP3    H1 3483   6.109   5.284   4.916
 1180TIP3    H2 3484   6.133   5.144   4.863
 1181TIP3   OH2 3485   1.449   5.457   5.855
 1181TIP3    H1 3486   1.371   5.434   5.905
 1181TIP3    H2 3487   1.522   5.437   5.913
 1182TIP3   OH2 3488   3.785   2.959   2.646
 1182TIP3    H1 3489   3.719   3.029   2.643
 1182TIP3    H2 3490   3.847   2.981   2.576
 1183TIP3   OH2 3491   6.796   6.099   6.114
 1183TIP3    H1 3492   6.805   6.012   6.076
 1183TIP3    H2 3493   6.873   6.109   6.169
 1184TIP3   OH2 3494   4.406   0.641   0.448
 1184TIP3    H1 3495   4.394   0.712   0.511
 1184TIP3    H2 3496   4.493   0.606   0.467
 1185TIP3   OH2 3497   2.057   6.185   2.332
 1185TIP3    H1 3498   2.118   6.123   2.371
 1185TIP3    H2 3499   2.079   6.269   2.374
 1186TIP3   OH2 3500   3.942   1.104   3.305
 1186TIP3    H1 3501   3.983   1.039   3.362
 1186TIP3    H2 3502   4.000   1.180   3.311
 1187TIP3   OH2 3503   8.003   1.070   1.250
 1187TIP3    H1 3504   8.001   0.984   1.208
 1187TIP3    H2 3505   7.912   1.100   1.249
 1188TIP3   OH2 3506   4.259   2.980   4.086
 1188TIP3    H1 3507   4.231   2.976   3.994
 1188TIP3    H2 3508   4.177   2.973   4.136
 1189TIP3   OH2 3509   8.158   3.876   1.005
 1189TIP3    H1 3510   8.068   3.889   1.034
 1189TIP3    H2 3511   8.204   3.847   1.084
 1190TIP3   OH2 3512   4.205   6.149   4.942
 1190TIP3    H1 3513   4.253   6.067   4.943
 1190TIP3    H2 3514   4.204   6.175   4.850
 1191TIP3   OH2 3515   0.107   5.006   3.260
 1191TIP3    H1 3516   0.023   5.036   3.293
 1191TIP3    H2 3517   0.171   5.064   3.300
 1192TIP3   OH2 3518   0.169   0.636   0.788
 1192TIP3    H1 3519   0.158   0.583   0.709
 1192TIP3    H2 3520   0.104   0.706   0.779
 1193TIP3   OH2 3521   4.719   0.393   4.387
 1193TIP3    H1 3522   4.750   0.483   4.388
 1193TIP3    H2 3523   4.704   0.374   4.295
 1194TIP3   OH2 3524   3.006   7.048   6.251
 1194TIP3    H1 3525   3.056   7.043   6.332
 1194TIP3    H2 3526   3.041   7.124   6.205
 1195TIP3   OH2 3527   2.246   2.282   5.912
 1195TIP3    H1 3528   2.335   2.318   5.909
 1195TIP3    H2 3529   2.190   2.359   5.920
 1196TIP3   OH2 3530   7.670   7.199   4.846
 1196TIP3    H1 3531   7.610   7.242   4.787
 1196TIP3    H2 3532   7.708   7.128   4.794
 1197TIP3   OH2 3533   2.297   4.589   6.114
 1197TIP3    H1 3534   2.323   4.599   6.023
 1197TIP3    H2 3535   2.350   4.516   6.147
 1198TIP3   OH2 3536   7.780   6.469   2.216
 1198TIP3    H1 3537   7.737   6.503   2.294
 1198TIP3    H2 3538   7.728   6.504   2.143
 1199TIP3   OH2 3539   1.243   5.270   6.145
 1199TIP3    H1 3540   1.271   5.347   6.193
 1199TIP3    H2 3541   1.324   5.221   6.127
 1200TIP3   OH2 3542   7.415   6.392   5.117
 1200TIP3    H1 3543   7.380   6.400   5.206
 1200TIP3    H2 3544   7.341   6.411   5.060
 1201TIP3   OH2 3545   5.732   2.657   3.659
 1201TIP3    H1 3546   5.722   2.739   3.611
 1201TIP3    H2 3547   5.655   2.654   3.716
 1202TIP3   OH2 3548   3.933   1.140   1.927
 1202TIP3    H1 3549   3.998   1.132   1.857
 1202TIP3    H2 3550   3.978   1.107   2.005
 1203TIP3   OH2 3551   6.773   0.187   5.269
 1203TIP3    H1 3552   6.714   0.230   5.331
 1203TIP3    H2 3553   6.858   0.190   5.312
 1204TIP3   OH2 3554   8.044   7.317   5.042
 1204TIP3    H1 3555   7.967   7.364   5.075
 1204TIP3    H2 3556   8.028   7.309   4.948
 1205TIP3   OH2 3557   7.975   7.119   2.006
 1205TIP3    H1 3558   7.922   7.040   2.017
 1205TIP3    H2 3559   7.917   7.181   1.961
 1206TIP3   OH2 3560   8.049   3.422   0.269
 1206TIP3    H1 3561   8.068   3.343   0.219
 1206TIP3    H2 3562   8.049   3.393   0.360
 1207TIP3   OH2 3563   2.665   7.261   4.992
 1207TIP3    H1 3564   2.738   7.267   4.930
 1207TIP3    H2 3565   2.638   7.169   4.989
 1208TIP3   OH2 3566   3.855   7.325   5.820
 1208TIP3    H1 3567   3.830   7.266   5.891
 1208TIP3    H2 3568   3.868   7.410   5.863
 1209TIP3   OH2 3569   3.711   0.557   3.543
 1209TIP3    H1 3570   3.767   0.482   3.564
 1209TIP3    H2 3571   3.770   0.622   3.506
 1210TIP3   OH2 3572   1.575   2.631   1.913
 1210TIP3    H1 3573   1.565   2.631   1.818
 1210TIP3    H2 3574   1.625   2.552   1.932
 1211TIP3   OH2 3575   5.891   3.632   3.455
 1211TIP3    H1 3576   5.889   3.635   3.551
 1211TIP3    H2 3577   5.801   3.649   3.429
 1212TIP3   OH2 3578   4.469   7.205   2.700
 1212TIP3    H1 3579   4.547   7.231   2.749
 1212TIP3    H2 3580   4.465   7.110   2.711
 1213TIP3   OH2 3581   3.313   6.479   1.346
 1213TIP3    H1 3582   3.361   6.404   1.312
 1213TIP3    H2 3583   3.229   6.476   1.301
 1214TIP3   OH2 3584   7.608   4.466   4.339
 1214TIP3    H1 3585   7.664   4.522   4.285
 1214TIP3    H2 3586   7.669   4.425   4.401
 1215TIP3   OH2 3587   1.151   3.584   1.741
 1215TIP3    H1 3588   1.056   3.569   1.738
 1215TIP3    H2 3589   1.184   3.541   1.662
 1216TIP3   OH2 3590   2.476   3.428   0.555
 1216TIP3    H1 3591   2.521   3.344   0.564
 1216TIP3    H2 3592   2.387   3.405   0.530
 1217TIP3   OH2 3593   0.494   0.861   4.052
 1217TIP3    H1 3594   0.484   0.939   3.997
 1217TIP3    H2 3595   0.404   0.835   4.073
 1218TIP3   OH2 3596   4.131   2.823   6.758
 1218TIP3    H1 3597   4.054   2.877   6.770
 1218TIP3    H2 3598   4.135   2.768   6.836
 1219TIP3   OH2 3599   7.969   5.301   1.099
 1219TIP3    H1 3600   7.946   5.298   1.006
 1219TIP3    H2 3601   7.945   5.389   1.127
 1220TIP3   OH2 3602   3.703   7.355   1.628
 1220TIP3    H1 3603   3.607   7.352   1.617
 1220TIP3    H2 3604   3.716   7.362   1.722
 1221TIP3   OH2 3605   7.154   4.208   6.564
 1221TIP3    H1 3606   7.084   4.155   6.525
 1221TIP3    H2 3607   7.202   4.243   6.489
 1222TIP3   OH2 3608   2.189   3.974   0.285
 1222TIP3    H1 3609   2.103   3.954   0.323
 1222TIP3    H2 3610   2.231   3.889   0.274
 1223TIP3   OH2 3611   6.031   5.206   0.542
 1223TIP3    H1 3612   5.975   5.214   0.464
 1223TIP3    H2 3613   6.106   5.262   0.524
 1224TIP3   OH2 3614   2.634   0.393   1.676
 1224TIP3    H1 3615   2.579   0.468   1.654
 1224TIP3    H2 3616   2.621   0.331   1.604
 1225TIP3   OH2 3617   1.053   6.320   3.655
 1225TIP3    H1 3618   1.091   6.295   3.740
 1225TIP3    H2 3619   1.117   6.290   3.591
 1226TIP3   OH2 3620   4.572   6.315   5.179
 1226TIP3    H1 3621   4.567   6.315   5.083
 1226TIP3    H2 3622   4.555   6.224   5.204
 1227TIP3   OH2 3623   2.559   4.408   6.646
 1227TIP3    H1 3624   2.481   4.398   6.592
 1227TIP3    H2 3625   2.614   4.333   6.624
 1228TIP3   OH2 3626   7.723   4.770   0.500
 1228TIP3    H1 3627   7.746   4.750   0.409
 1228TIP3    H2 3628   7.761   4.699   0.551
 1229TIP3   OH2 3629   0.623   3.748   5.232
 1229TIP3    H1 3630   0.607   3.654   5.231
 1229TIP3    H2 3631   0.549   3.784   5.281
 1230TIP3   OH2 3632   7.001   0.434   4.628
 1230TIP3    H1 3633   6.941   0.410   4.557
 1230TIP3    H2 3634   7.018   0.351   4.673
 1231TIP3   OH2 3635   4.675   7.264   0.603
 1231TIP3    H1 3636   4.742   7.301   0.660
 1231TIP3    H2 3637   4.723   7.209   0.542
 1232TIP3   OH2 3638   5.583   6.932   6.372
 1232TIP3    H1 3639   5.677   6.932   6.354
 1232TIP3    H2 3640   5.572   6.872   6.446
 1233TIP3   OH2 3641   6.155   3.927   5.774
 1233TIP3    H1 3642   6.216   3.997   5.749
 1233TIP3    H2 3643   6.107   3.907   5.694
 1234TIP3   OH2 3644   6.817   3.219   6.595
 1234TIP3    H1 3645   6.888   3.283   6.600
 1234TIP3    H2 3646   6.766   3.247   6.518
 1235TIP3   OH2 3647   4.764   2.238   3.382
 1235TIP3    H1 3648   4.674   2.232   3.415
 1235TIP3    H2 3649   4.817   2.248   3.461
 1236TIP3   OH2 3650   0.174   7.241   1.278
 1236TIP3    H1 3651   0.260   7.247   1.320
 1236TIP3    H2 3652   0.136   7.328   1.291
 1237TIP3   OH2 3653   5.289   3.253   3.077
 1237TIP3    H1 3654   5.232   3.176   3.079
 1237TIP3    H2 3655   5.242   3.318   3.129
 1238TIP3   OH2 3656   4.535   6.997   5.748
 1238TIP3    H1 3657   4.499   6.960   5.828
 1238TIP3    H2 3658   4.569   6.922   5.699
 1239TIP3   OH2 3659   3.561   2.949   4.976
 1239TIP3    H1 3660   3.562   3.004   5.055
 1239TIP3    H2 3661   3.474   2.910   4.975
 1240TIP3   OH2 3662   3.552   3.240   1.010
 1240TIP3    H1 3663   3.623   3.226   1.073
 1240TIP3    H2 3664   3.487   3.174   1.034
 1241TIP3   OH2 3665   1.333   0.354   5.599
 1241TIP3    H1 3666   1.295   0.342   5.512
 1241TIP3    H2 3667   1.259   0.342   5.659
 1242TIP3   OH2 3668   1.626   6.011   5.141
 1242TIP3    H1 3669   1.568   5.999   5.216
 1242TIP3    H2 3670   1.570   6.049   5.073
 1243TIP3   OH2 3671   1.404   2.283   5.619
 1243TIP3    H1 3672   1.403   2.218   5.690
 1243TIP3    H2 3673   1.383   2.366   5.662
 1244TIP3   OH2 3674   2.907   7.609   5.718
 1244TIP3    H1 3675   2.835   7.551   5.691
 1244TIP3    H2 3676   2.944   7.568   5.795
 1245TIP3   OH2 3677   5.128   6.167   1.162
 1245TIP3    H1 3678   5.195   6.232   1.141
 1245TIP3    H2 3679   5.161   6.086   1.124
 1246TIP3   OH2 3680   7.846   6.870   6.627
 1246TIP3    H1 3681   7.933   6.908   6.612
 1246TIP3    H2 3682   7.785   6.941   6.607
 1247TIP3   OH2 3683   7.739   0.190   2.793
 1247TIP3    H1 3684   7.697   0.270   2.764
 1247TIP3    H2 3685   7.800   0.168   2.723
 1248TIP3   OH2 3686   1.404   0.084   2.758
 1248TIP3    H1 3687   1.343   0.057   2.828
 1248TIP3    H2 3688   1.393   0.179   2.753
 1249TIP3   OH2 3689   4.344   7.165   4.805
 1249TIP3    H1 3690   4.436   7.170   4.780
 1249TIP3    H2 3691   4.336   7.083   4.854
 1250TIP3   OH2 3692   2.777   5.706   4.487
 1250TIP3    H1 3693   2.710   5.771   4.467
 1250TIP3    H2 3694   2.818   5.738   4.568
 1251TIP3   OH2 3695   7.114   4.662   6.581
 1251TIP3    H1 3696   7.036   4.698   6.623
 1251TIP3    H2 3697   7.096   4.569   6.569
 1252TIP3   OH2 3698   0.054   7.647   0.046
 1252TIP3    H1 3699   0.019   7.559   0.058
 1252TIP3    H2 3700  -0.014   7.693  -0.004
 1253TIP3   OH2 3701   3.668   5.897   0.697
 1253TIP3    H1 3702   3.633   5.811   0.671
 1253TIP3    H2 3703   3.596   5.939   0.745
 1254TIP3   OH2 3704   5.524   5.737   5.002
 1254TIP3    H1 3705   5.438   5.699   4.987
 1254TIP3    H2 3706   5.576   5.711   4.925
 1255TIP3   OH2 3707   2.847   5.779   2.622
 1255TIP3    H1 3708   2.841   5.687   2.596
 1255TIP3    H2 3709   2.857   5.827   2.540
 1256TIP3   OH2 3710   3.658   2.347   0.074
 1256TIP3    H1 3711   3.734   2.392   0.037
 1256TIP3    H2 3712   3.619   2.412   0.133
 1257TIP3   OH2 3713   4.207   6.825   0.921
 1257TIP3    H1 3714   4.154   6.790   0.849
 1257TIP3    H2 3715   4.208   6.755   0.986
 1258TIP3   OH2 3716   7.593   0.732   5.813
 1258TIP3    H1 3717   7.522   0.781   5.854
 1258TIP3    H2 3718   7.637   0.797   5.757
 1259TIP3   OH2 3719   5.236   0.402   6.605
 1259TIP3    H1 3720   5.210   0.480   6.654
 1259TIP3    H2 3721   5.318   0.374   6.645
 1260TIP3   OH2 3722   1.989   5.837   6.629
 1260TIP3    H1 3723   1.918   5.847   6.692
 1260TIP3    H2 3724   2.054   5.782   6.673
 1261TIP3   OH2 3725   8.212   3.606   6.197
 1261TIP3    H1 3726   8.307   3.608   6.184
 1261TIP3    H2 3727   8.200   3.570   6.285
 1262TIP3   OH2 3728   6.047   5.224   6.751
 1262TIP3    H1 3729   6.105   5.158   6.790
 1262TIP3    H2 3730   6.065   5.220   6.657
 1263TIP3   OH2 3731   1.786   2.638   5.147
 1263TIP3    H1 3732   1.807   2.597   5.230
 1263TIP3    H2 3733   1.768   2.729   5.169
 1264TIP3   OH2 3734   2.641   0.442   2.850
 1264TIP3    H1 3735   2.608   0.509   2.911
 1264TIP3    H2 3736   2.633   0.360   2.899
 1265TIP3   OH2 3737   0.475   6.859   0.832
 1265TIP3    H1 3738   0.411   6.900   0.890
 1265TIP3    H2 3739   0.501   6.779   0.877
 1266TIP3   OH2 3740   6.801   2.787   3.837
 1266TIP3    H1 3741   6.854   2.783   3.757
 1266TIP3    H2 3742   6.731   2.849   3.816
 1267TIP3   OH2 3743   6.306   4.929   3.312
 1267TIP3    H1 3744   6.245   4.972   3.371
 1267TIP3    H2 3745   6.343   4.856   3.363
 1268TIP3   OH2 3746   0.604   5.398   4.739
 1268TIP3    H1 3747   0.618   5.489   4.767
 1268TIP3    H2 3748   0.537   5.364   4.798
 1269TIP3   OH2 3749   2.623   6.347   3.510
 1269TIP3    H1 3750   2.591   6.428   3.550
 1269TIP3    H2 3751   2.581   6.278   3.560
 1270TIP3   OH2 3752   3.850   0.726   4.063
 1270TIP3    H1 3753   3.823   0.667   4.134
 1270TIP3    H2 3754   3.799   0.697   3.988
 1271TIP3   OH2 3755   7.941   3.158   1.473
 1271TIP3    H1 3756   7.938   3.251   1.454
 1271TIP3    H2 3757   7.932   3.116   1.387
 1272TIP3   OH2 3758   4.687   0.646   5.733
 1272TIP3    H1 3759   4.770   0.648   5.686
 1272TIP3    H2 3760   4.695   0.714   5.800
 1273TIP3   OH2 3761   6.915   7.319   4.480
 1273TIP3    H1 3762   6.994   7.268   4.495
 1273TIP3    H2 3763   6.877   7.282   4.400
 1274TIP3   OH2 3764   3.525   1.255   5.020
 1274TIP3    H1 3765   3.588   1.297   5.078
 1274TIP3    H2 3766   3.578   1.211   4.954
 1275TIP3   OH2 3767   4.382   6.530   6.130
 1275TIP3    H1 3768   4.416   6.558   6.215
 1275TIP3    H2 3769   4.449   6.471   6.095
 1276TIP3   OH2 3770   3.693   4.695   0.528
 1276TIP3    H1 3771   3.672   4.646   0.449
 1276TIP3    H2 3772   3.759   4.759   0.500
 1277TIP3   OH2 3773   1.553   6.465   0.135
 1277TIP3    H1 3774   1.593   6.403   0.196
 1277TIP3    H2 3775   1.553   6.419   0.051
 1278TIP3   OH2 3776   4.609   4.231   1.883
 1278TIP3    H1 3777   4.629   4.267   1.970
 1278TIP3    H2 3778   4.526   4.185   1.895
 1279TIP3   OH2 3779   2.229   5.775   2.199
 1279TIP3    H1 3780   2.206   5.853   2.249
 1279TIP3    H2 3781   2.273   5.719   2.263
 1280TIP3   OH2 3782   7.119   5.422   2.530
 1280TIP3    H1 3783   7.141   5.330   2.538
 1280TIP3    H2 3784   7.130   5.458   2.618
 1281TIP3   OH2 3785   0.381   2.594   5.089
 1281TIP3    H1 3786   0.381   2.502   5.118
 1281TIP3    H2 3787   0.309   2.599   5.026
 1282TIP3   OH2 3788   4.439   5.221   1.478
 1282TIP3    H1 3789   4.394   5.261   1.552
 1282TIP3    H2 3790   4.478   5.295   1.431
 1283TIP3   OH2 3791   5.604   0.665   1.709
 1283TIP3    H1 3792   5.546   0.689   1.781
 1283TIP3    H2 3793   5.544   0.641   1.637
 1284TIP3   OH2 3794   1.682   5.311   0.473
 1284TIP3    H1 3795   1.688   5.216   0.482
 1284TIP3    H2 3796   1.747   5.345   0.535
 1285TIP3   OH2 3797   6.729   7.259   0.368
 1285TIP3    H1 3798   6.821   7.235   0.355
 1285TIP3    H2 3799   6.718   7.260   0.463
 1286TIP3   OH2 3800   3.260   0.243   1.604
 1286TIP3    H1 3801   3.268   0.205   1.691
 1286TIP3    H2 3802   3.169   0.227   1.579
 1287TIP3   OH2 3803   6.576   3.465   3.552
 1287TIP3    H1 3804   6.523   3.493   3.626
 1287TIP3    H2 3805   6.576   3.540   3.493
 1288TIP3   OH2 3806   1.485   2.746   2.635
 1288TIP3    H1 3807   1.496   2.830   2.591
 1288TIP3    H2 3808   1.563   2.696   2.613
 1289TIP3   OH2 3809   2.835   4.192   1.810
 1289TIP3    H1 3810   2.749   4.228   1.830
 1289TIP3    H2 3811   2.881   4.189   1.894
 1290TIP3   OH2 3812   5.813   0.987   2.671
 1290TIP3    H1 3813   5.861   0.924   2.724
 1290TIP3    H2 3814   5.722   0.980   2.701
 1291TIP3   OH2 3815   6.744   1.482   0.634
 1291TIP3    H1 3816   6.726   1.389   0.622
 1291TIP3    H2 3817   6.795   1.486   0.715
 1292TIP3   OH2 3818   6.211   1.745   0.831
 1292TIP3    H1 3819   6.241   1.678   0.892
 1292TIP3    H2 3820   6.145   1.701   0.777
 1293TIP3   OH2 3821   4.789   4.768   3.676
 1293TIP3    H1 3822   4.717   4.780   3.614
 1293TIP3    H2 3823   4.802   4.854   3.715
 1294TIP3   OH2 3824   4.402   1.838   2.085
 1294TIP3    H1 3825   4.410   1.788   2.166
 1294TIP3    H2 3826   4.309   1.860   2.079
 1295TIP3   OH2 3827   3.474   3.134   4.386
 1295TIP3    H1 3828   3.474   3.074   4.310
 1295TIP3    H2 3829   3.381   3.154   4.400
 1296TIP3   OH2 3830   0.761   6.247   3.553
 1296TIP3    H1 3831   0.674   6.215   3.576
 1296TIP3    H2 3832   0.801   6.269   3.637
 1297TIP3   OH2 3833   7.822   6.223   2.305
 1297TIP3    H1 3834   7.816   6.315   2.277
 1297TIP3    H2 3835   7.740   6.208   2.353
 1298TIP3   OH2 3836   4.381   5.319   3.849
 1298TIP3    H1 3837   4.470   5.352   3.859
 1298TIP3    H2 3838   4.387   5.227   3.877
 1299TIP3   OH2 3839   3.702   2.467   6.480
 1299TIP3    H1 3840   3.757   2.477   6.402
 1299TIP3    H2 3841   3.758   2.496   6.552
 1300TIP3   OH2 3842   4.222   1.744   1.623
 1300TIP3    H1 3843   4.281   1.752   1.698
 1300TIP3    H2 3844   4.139   1.779   1.654
 1301TIP3   OH2 3845   5.150   3.652   5.357
 1301TIP3    H1 3846   5.060   3.675   5.383
 1301TIP3    H2 3847   5.139   3.608   5.273
 1302TIP3   OH2 3848   2.111   4.993   4.622
 1302TIP3    H1 3849   2.071   4.975   4.537
 1302TIP3    H2 3850   2.070   4.931   4.682
 1303TIP3   OH2 3851   7.318   4.540   4.857
 1303TIP3    H1 3852   7.256   4.520   4.927
 1303TIP3    H2 3853   7.317   4.635   4.849
 1304TIP3   OH2 3854   1.742   1.680   3.577
 1304TIP3    H1 3855   1.697   1.681   3.492
 1304TIP3    H2 3856   1.698   1.610   3.626
 1305TIP3   OH2 3857   3.088   3.801   3.959
 1305TIP3    H1 3858   3.172   3.758   3.977
 1305TIP3    H2 3859   3.110   3.894   3.956
 1306TIP3   OH2 3860   7.526   5.833   5.823
 1306TIP3    H1 3861   7.606   5.790   5.853
 1306TIP3    H2 3862   7.455   5.776   5.852
 1307TIP3   OH2 3863   1.456   3.203   5.561
 1307TIP3    H1 3864   1.459   3.119   5.515
 1307TIP3    H2 3865   1.540   3.207   5.608
 1308TIP3   OH2 3866   1.029   7.137   6.752
 1308TIP3    H1 3867   1.078   7.124   6.671
 1308TIP3    H2 3868   0.937   7.130   6.726
 1309TIP3   OH2 3869   3.023   2.144   4.086
 1309TIP3    H1 3870   2.999   2.221   4.138
 1309TIP3    H2 3871   2.941   2.095   4.078
 1310TIP3   OH2 3872   2.385   5.591   2.007
 1310TIP3    H1 3873   2.467   5.628   2.038
 1310TIP3    H2 3874   2.318   5.650   2.041
 1311TIP3   OH2 3875   6.689   3.057   2.479
 1311TIP3    H1 3876   6.654   3.139   2.443
 1311TIP3    H2 3877   6.617   2.995   2.472
 1312TIP3   OH2 3878   7.476   5.937   0.229
 1312TIP3    H1 3879   7.488   5.929   0.324
 1312TIP3    H2 3880   7.400   5.881   0.210
 1313TIP3   OH2 3881   1.414   1.389   4.819
 1313TIP3    H1 3882   1.465   1.366   4.897
 1313TIP3    H2 3883   1.433   1.320   4.756
 1314TIP3   OH2 3884   4.881   0.084   6.400
 1314TIP3    H1 3885   4.810   0.096   6.337
 1314TIP3    H2 3886   4.953   0.047   6.349
 1315TIP3   OH2 3887   3.439   6.892   0.642
 1315TIP3    H1 3888   3.502   6.912   0.573
 1315TIP3    H2 3889   3.480   6.924   0.722
 1316TIP3   OH2 3890   1.931   5.157   0.337
 1316TIP3    H1 3891   1.850   5.151   0.286
 1316TIP3    H2 3892   1.968   5.242   0.314
 1317TIP3   OH2 3893   1.228   6.238   3.438
 1317TIP3    H1 3894   1.265   6.294   3.370
 1317TIP3    H2 3895   1.140   6.216   3.405
 1318TIP3   OH2 3896   1.411   3.265   4.892
 1318TIP3    H1 3897   1.502   3.237   4.889
 1318TIP3    H2 3898   1.361   3.183   4.883
 1319TIP3   OH2 3899   4.359   6.169   6.319
 1319TIP3    H1 3900   4.310   6.122   6.386
 1319TIP3    H2 3901   4.376   6.255   6.358
 1320TIP3   OH2 3902   1.964   3.895   0.399
 1320TIP3    H1 3903   1.897   3.962   0.413
 1320TIP3    H2 3904   1.913   3.814   0.385
 1321TIP3   OH2 3905   3.874   7.131   3.599
 1321TIP3    H1 3906   3.910   7.048   3.630
 1321TIP3    H2 3907   3.949   7.174   3.556
 1322TIP3   OH2 3908   0.006   3.949   3.567
 1322TIP3    H1 3909  -0.010   4.041   3.587
 1322TIP3    H2 3910   0.093   3.930   3.603
 1323TIP3   OH2 3911   1.738   7.352   3.295
 1323TIP3    H1 3912   1.738   7.447   3.304
 1323TIP3    H2 3913   1.809   7.333   3.234
 1324TIP3   OH2 3914   2.410   7.131   0.494
 1324TIP3    H1 3915   2.454   7.215   0.481
 1324TIP3    H2 3916   2.468   7.081   0.550
 1325TIP3   OH2 3917   4.366   6.491   1.814
 1325TIP3    H1 3918   4.339   6.509   1.724
 1325TIP3    H2 3919   4.328   6.406   1.834
 1326TIP3   OH2 3920   1.483   0.630   2.462
 1326TIP3    H1 3921   1.418   0.568   2.431
 1326TIP3    H2 3922   1.449   0.660   2.547
 1327TIP3   OH2 3923   1.439   7.687   5.688
 1327TIP3    H1 3924   1.451   7.762   5.747
 1327TIP3    H2 3925   1.406   7.725   5.607
 1328TIP3   OH2 3926   1.161   7.569   5.329
 1328TIP3    H1 3927   1.069   7.546   5.333
 1328TIP3    H2 3928   1.204   7.493   5.290
 1329TIP3   OH2 3929   4.692   6.710   1.639
 1329TIP3    H1 3930   4.681   6.645   1.708
 1329TIP3    H2 3931   4.757   6.673   1.580
 1330TIP3   OH2 3932   5.443   5.407   0.098
 1330TIP3    H1 3933   5.411   5.418   0.008
 1330TIP3    H2 3934   5.537   5.390   0.088
 1331TIP3   OH2 3935   2.637   6.679   4.924
 1331TIP3    H1 3936   2.570   6.611   4.928
 1331TIP3    H2 3937   2.595   6.751   4.877
 1332TIP3   OH2 3938   0.933   6.830   5.441
 1332TIP3    H1 3939   0.979   6.793   5.516
 1332TIP3    H2 3940   1.003   6.857   5.381
 1333TIP3   OH2 3941   6.756   5.102   1.475
 1333TIP3    H1 3942   6.814   5.143   1.540
 1333TIP3    H2 3943   6.693   5.053   1.527
 1334TIP3   OH2 3944   1.165   2.845   3.731
 1334TIP3    H1 3945   1.166   2.935   3.699
 1334TIP3    H2 3946   1.088   2.840   3.788
 1335TIP3   OH2 3947   5.707   3.544   4.569
 1335TIP3    H1 3948   5.692   3.455   4.600
 1335TIP3    H2 3949   5.726   3.535   4.476
 1336TIP3   OH2 3950   4.767   1.945   4.867
 1336TIP3    H1 3951   4.805   2.008   4.927
 1336TIP3    H2 3952   4.788   1.859   4.905
 1337TIP3   OH2 3953   1.065   2.097   0.550
 1337TIP3    H1 3954   1.078   2.125   0.641
 1337TIP3    H2 3955   1.138   2.037   0.533
 1338TIP3   OH2 3956   3.936   5.306   5.854
 1338TIP3    H1 3957   3.868   5.352   5.804
 1338TIP3    H2 3958   4.019   5.338   5.817
 1339TIP3   OH2 3959   2.451   1.123   5.395
 1339TIP3    H1 3960   2.378   1.171   5.355
 1339TIP3    H2 3961   2.433   1.031   5.376
 1340TIP3   OH2 3962   1.324   6.557   1.738
 1340TIP3    H1 3963   1.262   6.605   1.792
 1340TIP3    H2 3964   1.358   6.488   1.795
 1341TIP3   OH2 3965   4.168   3.848   5.149
 1341TIP3    H1 3966   4.214   3.821   5.069
 1341TIP3    H2 3967   4.150   3.941   5.136
 1342TIP3   OH2 3968   0.394   0.540   3.877
 1342TIP3    H1 3969   0.483   0.504   3.883
 1342TIP3    H2 3970   0.408   0.634   3.861
 1343TIP3   OH2 3971   4.043   0.774   6.156
 1343TIP3    H1 3972   4.122   0.725   6.179
 1343TIP3    H2 3973   4.029   0.755   6.063
 1344TIP3   OH2 3974   7.415   2.491   5.542
 1344TIP3    H1 3975   7.500   2.456   5.516
 1344TIP3    H2 3976   7.362   2.413   5.560
 1345TIP3   OH2 3977   0.109   7.638   6.490
 1345TIP3    H1 3978   0.127   7.595   6.574
 1345TIP3    H2 3979   0.111   7.567   6.426
 1346TIP3   OH2 3980   0.726   4.352   0.686
 1346TIP3    H1 3981   0.802   4.343   0.628
 1346TIP3    H2 3982   0.702   4.262   0.710
 1347TIP3   OH2 3983   0.333   7.207   5.773
 1347TIP3    H1 3984   0.377   7.189   5.690
 1347TIP3    H2 3985   0.243   7.227   5.748
 1348TIP3   OH2 3986   4.789   2.847   2.279
 1348TIP3    H1 3987   4.715   2.801   2.319
 1348TIP3    H2 3988   4.835   2.887   2.352
 1349TIP3   OH2 3989   2.587   3.593   1.925
 1349TIP3    H1 3990   2.681   3.577   1.917
 1349TIP3    H2 3991   2.567   3.652   1.852
 1350TIP3   OH2 3992   7.132   6.816   0.704
 1350TIP3    H1 3993   7.045   6.777   0.706
 1350TIP3    H2 3994   7.120   6.901   0.664
 1351TIP3   OH2 3995   2.786   4.891   4.234
 1351TIP3    H1 3996   2.881   4.904   4.233
 1351TIP3    H2 3997   2.763   4.874   4.143
 1352TIP3   OH2 3998   6.850   1.946   1.233
 1352TIP3    H1 3999   6.913   2.012   1.262
 1352TIP3    H2 4000   6.765   1.980   1.262
 1353TIP3   OH2 4001   5.201   3.085   2.637
 1353TIP3    H1 4002   5.114   3.122   2.626
 1353TIP3    H2 4003   5.255   3.132   2.573
 1354TIP3   OH2 4004   7.578   2.576   6.377
 1354TIP3    H1 4005   7.533   2.564   6.460
 1354TIP3    H2 4006   7.662   2.532   6.388
 1355TIP3   OH2 4007   6.627   5.769   5.439
 1355TIP3    H1 4008   6.619   5.700   5.504
 1355TIP3    H2 4009   6.670   5.727   5.365
 1356TIP3   OH2 4010   3.961   3.004   6.455
 1356TIP3    H1 4011   3.884   3.056   6.477
 1356TIP3    H2 4012   3.939   2.962   6.372
 1357TIP3   OH2 4013   2.231   7.778   0.601
 1357TIP3    H1 4014   2.318   7.736   0.599
 1357TIP3    H2 4015   2.171   7.706   0.621
 1358TIP3   OH2 4016   7.680   1.399   4.336
 1358TIP3    H1 4017   7.630   1.320   4.319
 1358TIP3    H2 4018   7.764   1.368   4.369
 1359TIP3   OH2 4019   7.046   5.331   4.536
 1359TIP3    H1 4020   7.061   5.404   4.476
 1359TIP3    H2 4021   7.079   5.254   4.488
 1360TIP3   OH2 4022   6.592   4.003   0.962
 1360TIP3    H1 4023   6.656   3.982   0.894
 1360TIP3    H2 4024   6.571   3.919   1.003
 1361TIP3   OH2 4025   3.609   3.805   2.351
 1361TIP3    H1 4026   3.674   3.757   2.403
 1361TIP3    H2 4027   3.636   3.791   2.261
 1362TIP3   OH2 4028   7.784   3.820   6.206
 1362TIP3    H1 4029   7.856   3.789   6.150
 1362TIP3    H2 4030   7.724   3.863   6.145
 1363TIP3   OH2 4031   4.562   4.536   4.096
 1363TIP3    H1 4032   4.558   4.599   4.168
 1363TIP3    H2 4033   4.579   4.452   4.138
 1364TIP3   OH2 4034   2.607   6.806   3.351
 1364TIP3    H1 4035   2.672   6.877   3.353
 1364TIP3    H2 4036   2.553   6.821   3.428
 1365TIP3   OH2 4037   5.716   0.744   3.001
 1365TIP3    H1 4038   5.633   0.791   2.998
 1365TIP3    H2 4039   5.762   0.781   3.077
 1366TIP3   OH2 4040   1.552   3.186   3.105
 1366TIP3    H1 4041   1.533   3.231   3.187
 1366TIP3    H2 4042   1.551   3.093   3.127
 1367TIP3   OH2 4043   2.373   0.460   3.263
 1367TIP3    H1 4044   2.324   0.394   3.214
 1367TIP3    H2 4045   2.415   0.514   3.196
 1368TIP3   OH2 4046   4.119   2.858   4.731
 1368TIP3    H1 4047   4.200   2.886   4.775
 1368TIP3    H2 4048   4.145   2.846   4.639
 1369TIP3   OH2 4049   1.011   0.728   4.796
 1369TIP3    H1 4050   1.056   0.658   4.843
 1369TIP3    H2 4051   1.053   0.729   4.710
 1370TIP3   OH2 4052   6.526   2.478   1.091
 1370TIP3    H1 4053   6.534   2.384   1.107
 1370TIP3    H2 4054   6.543   2.518   1.176
 1371TIP3   OH2 4055   0.325   6.062   3.209
 1371TIP3    H1 4056   0.279   6.112   3.142
 1371TIP3    H2 4057   0.338   5.976   3.170
 1372TIP3   OH2 4058   7.444   3.225   1.594
 1372TIP3    H1 4059   7.449   3.248   1.501
 1372TIP3    H2 4060   7.534   3.205   1.620
 1373TIP3   OH2 4061   7.374   7.038   3.292
 1373TIP3    H1 4062   7.431   6.963   3.307
 1373TIP3    H2 4063   7.358   7.075   3.379
 1374TIP3   OH2 4064   5.491   6.221   1.640
 1374TIP3    H1 4065   5.501   6.134   1.601
 1374TIP3    H2 4066   5.444   6.272   1.574
 1375TIP3   OH2 4067   7.306   1.852   6.261
 1375TIP3    H1 4068   7.329   1.759   6.261
 1375TIP3    H2 4069   7.325   1.881   6.172
 1376TIP3   OH2 4070   4.306   3.368   5.097
 1376TIP3    H1 4071   4.287   3.433   5.165
 1376TIP3    H2 4072   4.223   3.358   5.050
 1377TIP3   OH2 4073   6.082   2.385   0.268
 1377TIP3    H1 4074   6.051   2.327   0.198
 1377TIP3    H2 4075   6.174   2.401   0.247
 1378TIP3   OH2 4076   6.812   2.142   4.887
 1378TIP3    H1 4077   6.759   2.193   4.948
 1378TIP3    H2 4078   6.757   2.067   4.865
 1379TIP3   OH2 4079   1.221   1.549   3.074
 1379TIP3    H1 4080   1.218   1.514   3.163
 1379TIP3    H2 4081   1.166   1.489   3.022
 1380TIP3   OH2 4082   4.800   0.942   2.152
 1380TIP3    H1 4083   4.893   0.925   2.169
 1380TIP3    H2 4084   4.770   0.990   2.229
 1381TIP3   OH2 4085   5.788   1.933   2.525
 1381TIP3    H1 4086   5.727   1.864   2.550
 1381TIP3    H2 4087   5.824   1.904   2.441
 1382TIP3   OH2 4088   3.516   4.569   1.946
 1382TIP3    H1 4089   3.438   4.624   1.948
 1382TIP3    H2 4090   3.488   4.488   1.989
 1383TIP3   OH2 4091   3.750   4.124   3.971
 1383TIP3    H1 4092   3.755   4.112   4.066
 1383TIP3    H2 4093   3.729   4.216   3.959
 1384TIP3   OH2 4094   2.010   7.122   0.963
 1384TIP3    H1 4095   1.982   7.061   1.032
 1384TIP3    H2 4096   1.929   7.146   0.918
 1385TIP3   OH2 4097   5.252   2.949   3.763
 1385TIP3    H1 4098   5.273   2.866   3.806
 1385TIP3    H2 4099   5.264   3.015   3.831
 1386TIP3   OH2 4100   4.206   7.753   6.346
 1386TIP3    H1 4101   4.144   7.712   6.406
 1386TIP3    H2 4102   4.217   7.690   6.276
 1387TIP3   OH2 4103   2.776   0.767   1.372
 1387TIP3    H1 4104   2.860   0.739   1.336
 1387TIP3    H2 4105   2.767   0.716   1.453
 1388TIP3   OH2 4106   4.704   3.939   3.168
 1388TIP3    H1 4107   4.699   3.863   3.226
 1388TIP3    H2 4108   4.614   3.972   3.163
 1389TIP3   OH2 4109   7.117   1.510   5.746
 1389TIP3    H1 4110   7.101   1.420   5.774
 1389TIP3    H2 4111   7.030   1.545   5.728
 1390TIP3   OH2 4112   4.530   2.985   1.688
 1390TIP3    H1 4113   4.622   2.982   1.713
 1390TIP3    H2 4114   4.530   3.023   1.600
 1391TIP3   OH2 4115   5.920   1.505   0.106
 1391TIP3    H1 4116   5.894   1.502   0.198
 1391TIP3    H2 4117   6.005   1.549   0.107
 1392TIP3   OH2 4118   2.359   7.239   3.702
 1392TIP3    H1 4119   2.342   7.330   3.677
 1392TIP3    H2 4120   2.383   7.196   3.620
 1393TIP3   OH2 4121   3.322   7.602   0.777
 1393TIP3    H1 4122   3.263   7.598   0.701
 1393TIP3    H2 4123   3.337   7.510   0.801
 1394TIP3   OH2 4124   2.214   1.397   3.930
 1394TIP3    H1 4125   2.234   1.387   4.023
 1394TIP3    H2 4126   2.242   1.314   3.891
 1395TIP3   OH2 4127   4.455   3.351   0.199
 1395TIP3    H1 4128   4.390   3.288   0.169
 1395TIP3    H2 4129   4.409   3.403   0.265
 1396TIP3   OH2 4130   3.985   3.899   0.134
 1396TIP3    H1 4131   4.065   3.887   0.083
 1396TIP3    H2 4132   3.960   3.990   0.118
 1397TIP3   OH2 4133   3.779   6.583   3.700
 1397TIP3    H1 4134   3.686   6.578   3.721
 1397TIP3    H2 4135   3.799   6.500   3.657
 1398TIP3   OH2 4136   3.976   1.733   4.704
 1398TIP3    H1 4137   4.008   1.688   4.626
 1398TIP3    H2 4138   4.043   1.798   4.724
 1399TIP3   OH2 4139   6.119   4.987   4.951
 1399TIP3    H1 4140   6.111   5.000   5.046
 1399TIP3    H2 4141   6.208   4.955   4.939
 1400TIP3   OH2 4142   8.228   2.454   3.461
 1400TIP3    H1 4143   8.307   2.440   3.410
 1400TIP3    H2 4144   8.190   2.534   3.424
 1401TIP3   OH2 4145   5.483   0.663   1.092
 1401TIP3    H1 4146   5.411   0.704   1.043
 1401TIP3    H2 4147   5.440   0.605   1.154
 1402TIP3   OH2 4148   6.331   5.257   1.425
 1402TIP3    H1 4149   6.372   5.217   1.349
 1402TIP3    H2 4150   6.247   5.212   1.434
 1403TIP3   OH2 4151   7.644   0.551   0.382
 1403TIP3    H1 4152   7.685   0.549   0.296
 1403TIP3    H2 4153   7.659   0.641   0.414
 1404TIP3   OH2 4154   6.934   4.826   0.766
 1404TIP3    H1 4155   6.882   4.906   0.758
 1404TIP3    H2 4156   6.898   4.782   0.844
 1405TIP3   OH2 4157   7.909   2.314   1.422
 1405TIP3    H1 4158   7.844   2.246   1.404
 1405TIP3    H2 4159   7.858   2.390   1.447
 1406TIP3   OH2 4160   7.382   0.452  -0.010
 1406TIP3    H1 4161   7.366   0.401   0.069
 1406TIP3    H2 4162   7.305   0.508  -0.019
 1407TIP3   OH2 4163   5.418   0.391   6.353
 1407TIP3    H1 4164   5.427   0.457   6.423
 1407TIP3    H2 4165   5.488   0.329   6.370
 1408TIP3   OH2 4166   7.395   5.912   3.488
 1408TIP3    H1 4167   7.393   5.875   3.400
 1408TIP3    H2 4168   7.314   5.964   3.494
 1409TIP3   OH2 4169   5.301   7.013   2.817
 1409TIP3    H1 4170   5.339   7.035   2.731
 1409TIP3    H2 4171   5.344   6.931   2.842
 1410TIP3   OH2 4172   8.197   1.960   6.208
 1410TIP3    H1 4173   8.147   1.941   6.287
 1410TIP3    H2 4174   8.288   1.961   6.237
 1411TIP3   OH2 4175   5.052   4.885   3.621
 1411TIP3    H1 4176   4.968   4.847   3.595
 1411TIP3    H2 4177   5.077   4.837   3.700
 1412TIP3   OH2 4178   2.208   3.831   5.657
 1412TIP3    H1 4179   2.198   3.911   5.709
 1412TIP3    H2 4180   2.292   3.842   5.613
 1413TIP3   OH2 4181   0.298   5.034   4.417
 1413TIP3    H1 4182   0.371   5.023   4.478
 1413TIP3    H2 4183   0.258   5.117   4.442
 1414TIP3   OH2 4184   2.809   2.804   5.700
 1414TIP3    H1 4185   2.902   2.827   5.699
 1414TIP3    H2 4186   2.787   2.785   5.609
 1415TIP3   OH2 4187   5.155   3.947   3.827
 1415TIP3    H1 4188   5.204   4.027   3.809
 1415TIP3    H2 4189   5.129   3.955   3.919
 1416TIP3   OH2 4190   1.893   0.263   1.739
 1416TIP3    H1 4191   1.929   0.193   1.685
 1416TIP3    H2 4192   1.865   0.330   1.676
 1417TIP3   OH2 4193   2.059   3.389   0.751
 1417TIP3    H1 4194   2.098   3.407   0.837
 1417TIP3    H2 4195   2.128   3.410   0.688
 1418TIP3   OH2 4196   0.368   1.092   4.283
 1418TIP3    H1 4197   0.357   1.058   4.195
 1418TIP3    H2 4198   0.463   1.104   4.293
 1419TIP3   OH2 4199   6.984   2.530   1.300
 1419TIP3    H1 4200   6.937   2.611   1.283
 1419TIP3    H2 4201   7.047   2.523   1.228
 1420TIP3   OH2 4202   6.202   4.692   3.922
 1420TIP3    H1 4203   6.194   4.725   4.011
 1420TIP3    H2 4204   6.167   4.603   3.925
 1421TIP3   OH2 4205   6.925   6.604   6.764
 1421TIP3    H1 4206   6.971   6.524   6.790
 1421TIP3    H2 4207   6.884   6.635   6.845
 1422TIP3   OH2 4208   3.786   1.260   1.062
 1422TIP3    H1 4209   3.775   1.298   1.150
 1422TIP3    H2 4210   3.697   1.243   1.032
 1423TIP3   OH2 4211   4.412   6.165   1.047
 1423TIP3    H1 4212   4.433   6.137   1.137
 1423TIP3    H2 4213   4.468   6.111   0.992
 1424TIP3   OH2 4214   0.486   1.978   6.365
 1424TIP3    H1 4215   0.493   1.883   6.367
 1424TIP3    H2 4216   0.536   2.005   6.288
 1425TIP3   OH2 4217   3.466   0.098   2.205
 1425TIP3    H1 4218   3.507   0.026   2.156
 1425TIP3    H2 4219   3.490   0.177   2.156
 1426TIP3   OH2 4220   5.137   0.991   1.719
 1426TIP3    H1 4221   5.153   0.922   1.783
 1426TIP3    H2 4222   5.075   0.953   1.657
 1427TIP3   OH2 4223   6.811   0.888   3.337
 1427TIP3    H1 4224   6.838   0.798   3.316
 1427TIP3    H2 4225   6.724   0.878   3.376
 1428TIP3   OH2 4226   1.318   7.430   5.829
 1428TIP3    H1 4227   1.276   7.450   5.746
 1428TIP3    H2 4228   1.403   7.473   5.824
 1429TIP3   OH2 4229   2.791   4.081   0.311
 1429TIP3    H1 4230   2.773   3.993   0.344
 1429TIP3    H2 4231   2.790   4.072   0.216
 1430TIP3   OH2 4232   0.963   1.659   4.035
 1430TIP3    H1 4233   0.972   1.679   3.942
 1430TIP3    H2 4234   0.874   1.686   4.057
 1431TIP3   OH2 4235   0.021   4.851   1.366
 1431TIP3    H1 4236  -0.004   4.943   1.367
 1431TIP3    H2 4237   0.064   4.837   1.450
 1432TIP3   OH2 4238   1.949   5.535   5.085
 1432TIP3    H1 4239   1.907   5.543   5.171
 1432TIP3    H2 4240   1.885   5.487   5.032
 1433TIP3   OH2 4241   0.691   6.697   5.734
 1433TIP3    H1 4242   0.735   6.757   5.795
 1433TIP3    H2 4243   0.654   6.630   5.790
 1434TIP3   OH2 4244   5.260   6.570   3.863
 1434TIP3    H1 4245   5.299   6.540   3.781
 1434TIP3    H2 4246   5.329   6.557   3.929
 1435TIP3   OH2 4247   3.494   0.834   4.815
 1435TIP3    H1 4248   3.494   0.743   4.785
 1435TIP3    H2 4249   3.426   0.876   4.762
 1436TIP3   OH2 4250   6.290   7.682   0.080
 1436TIP3    H1 4251   6.355   7.620   0.111
 1436TIP3    H2 4252   6.314   7.765   0.120
 1437TIP3   OH2 4253   6.802   2.983   4.239
 1437TIP3    H1 4254   6.736   2.914   4.247
 1437TIP3    H2 4255   6.752   3.064   4.236
 1438TIP3   OH2 4256   0.391   4.153   4.050
 1438TIP3    H1 4257   0.404   4.125   4.140
 1438TIP3    H2 4258   0.297   4.147   4.036
 1439TIP3   OH2 4259   0.521   4.717   3.440
 1439TIP3    H1 4260   0.610   4.752   3.448
 1439TIP3    H2 4261   0.530   4.638   3.387
 1440TIP3   OH2 4262   3.808   1.368   0.212
 1440TIP3    H1 4263   3.900   1.394   0.205
 1440TIP3    H2 4264   3.770   1.389   0.127
 1441TIP3   OH2 4265   0.323   6.061   5.829
 1441TIP3    H1 4266   0.244   6.099   5.791
 1441TIP3    H2 4267   0.291   6.002   5.897
 1442TIP3   OH2 4268   5.421   2.402   3.168
 1442TIP3    H1 4269   5.493   2.345   3.142
 1442TIP3    H2 4270   5.439   2.485   3.125
 1443TIP3   OH2 4271   6.543   7.435   5.499
 1443TIP3    H1 4272   6.576   7.447   5.410
 1443TIP3    H2 4273   6.451   7.409   5.487
 1444TIP3   OH2 4274   6.640   1.778   5.521
 1444TIP3    H1 4275   6.555   1.742   5.545
 1444TIP3    H2 4276   6.633   1.872   5.539
 1445TIP3   OH2 4277   6.967   3.862   4.296
 1445TIP3    H1 4278   7.062   3.870   4.300
 1445TIP3    H2 4279   6.940   3.855   4.387
 1446TIP3   OH2 4280   0.042   5.012   1.786
 1446TIP3    H1 4281   0.124   4.969   1.760
 1446TIP3    H2 4282   0.044   5.010   1.882
 1447TIP3   OH2 4283   2.680   1.558   1.562
 1447TIP3    H1 4284   2.595   1.513   1.559
 1447TIP3    H2 4285   2.668   1.628   1.625
 1448TIP3   OH2 4286   7.063   6.010   0.243
 1448TIP3    H1 4287   7.021   6.016   0.157
 1448TIP3    H2 4288   6.994   6.034   0.305
 1449TIP3   OH2 4289   0.827   2.598   1.073
 1449TIP3    H1 4290   0.759   2.610   1.007
 1449TIP3    H2 4291   0.780   2.586   1.155
 1450TIP3   OH2 4292   2.508   4.062   4.228
 1450TIP3    H1 4293   2.496   3.973   4.196
 1450TIP3    H2 4294   2.450   4.115   4.174
 1451TIP3   OH2 4295   6.814   7.561   6.682
 1451TIP3    H1 4296   6.773   7.564   6.596
 1451TIP3    H2 4297   6.859   7.645   6.691
 1452TIP3   OH2 4298   3.196   0.830   5.114
 1452TIP3    H1 4299   3.257   0.873   5.173
 1452TIP3    H2 4300   3.145   0.901   5.074
 1453TIP3   OH2 4301   1.679   5.058   0.557
 1453TIP3    H1 4302   1.662   5.023   0.644
 1453TIP3    H2 4303   1.593   5.061   0.515
 1454TIP3   OH2 4304   6.729   6.997   4.840
 1454TIP3    H1 4305   6.768   6.911   4.853
 1454TIP3    H2 4306   6.801   7.052   4.809
 1455TIP3   OH2 4307   6.661   1.505   1.028
 1455TIP3    H1 4308   6.732   1.441   1.028
 1455TIP3    H2 4309   6.657   1.537   0.938
 1456TIP3   OH2 4310   3.026   1.391   1.993
 1456TIP3    H1 4311   2.939   1.424   2.015
 1456TIP3    H2 4312   3.016   1.295   1.993
 1457TIP3   OH2 4313   1.216   3.705   4.195
 1457TIP3    H1 4314   1.279   3.767   4.161
 1457TIP3    H2 4315   1.132   3.731   4.155
 1458TIP3   OH2 4316   7.953   4.371   5.011
 1458TIP3    H1 4317   7.860   4.361   5.035
 1458TIP3    H2 4318   7.999   4.313   5.071
 1459TIP3   OH2 4319   3.620   4.043   5.696
 1459TIP3    H1 4320   3.595   3.962   5.653
 1459TIP3    H2 4321   3.673   4.016   5.771
 1460TIP3   OH2 4322   1.541   5.153   2.333
 1460TIP3    H1 4323   1.544   5.064   2.298
 1460TIP3    H2 4324   1.502   5.205   2.263
 1461TIP3   OH2 4325   3.882   3.425   1.083
 1461TIP3    H1 4326   3.894   3.363   1.011
 1461TIP3    H2 4327   3.845   3.503   1.042
 1462TIP3   OH2 4328   5.462   6.197   2.050
 1462TIP3    H1 4329   5.460   6.105   2.021
 1462TIP3    H2 4330   5.404   6.199   2.126
 1463TIP3   OH2 4331   5.663   5.670   5.864
 1463TIP3    H1 4332   5.605   5.669   5.787
 1463TIP3    H2 4333   5.721   5.595   5.851
 1464TIP3   OH2 4334   5.697   3.517   2.807
 1464TIP3    H1 4335   5.680   3.597   2.856
 1464TIP3    H2 4336   5.624   3.510   2.746
 1465TIP3   OH2 4337   5.042   0.899   4.543
 1465TIP3    H1 4338   5.028   0.893   4.449
 1465TIP3    H2 4339   5.117   0.842   4.560
 1466TIP3   OH2 4340   8.157   3.285   4.493
 1466TIP3    H1 4341   8.223   3.216   4.494
 1466TIP3    H2 4342   8.073   3.238   4.491
 1467TIP3   OH2 4343   7.866   1.228   2.482
 1467TIP3    H1 4344   7.830   1.309   2.518
 1467TIP3    H2 4345   7.922   1.257   2.410
 1468TIP3   OH2 4346   6.197   7.525   6.651
 1468TIP3    H1 4347   6.263   7.505   6.585
 1468TIP3    H2 4348   6.207   7.619   6.668
 1469TIP3   OH2 4349   1.876   6.755   6.012
 1469TIP3    H1 4350   1.842   6.796   6.091
 1469TIP3    H2 4351   1.939   6.819   5.977
 1470TIP3   OH2 4352   7.857   3.799   3.704
 1470TIP3    H1 4353   7.917   3.874   3.709
 1470TIP3    H2 4354   7.893   3.744   3.635
 1471TIP3   OH2 4355   6.763   1.946   0.875
 1471TIP3    H1 4356   6.728   1.944   0.786
 1471TIP3    H2 4357   6.702   1.892   0.925
 1472TIP3   OH2 4358   0.507   3.750   6.545
 1472TIP3    H1 4359   0.601   3.736   6.540
 1472TIP3    H2 4360   0.480   3.711   6.628
 1473TIP3   OH2 4361   5.274   6.771   0.569
 1473TIP3    H1 4362   5.321   6.729   0.641
 1473TIP3    H2 4363   5.186   6.734   0.574
 1474TIP3   OH2 4364   6.982   7.595   6.454
 1474TIP3    H1 4365   6.995   7.685   6.424
 1474TIP3    H2 4366   7.037   7.586   6.531
 1475TIP3   OH2 4367   4.681   0.214   5.032
 1475TIP3    H1 4368   4.640   0.152   4.971
 1475TIP3    H2 4369   4.702   0.162   5.109
 1476TIP3   OH2 4370   1.799   5.471   2.813
 1476TIP3    H1 4371   1.750   5.452   2.893
 1476TIP3    H2 4372   1.841   5.555   2.830
 1477TIP3   OH2 4373   4.877   1.075   5.256
 1477TIP3    H1 4374   4.834   1.160   5.263
 1477TIP3    H2 4375   4.819   1.023   5.202
 1478TIP3   OH2 4376   2.494   2.814   5.965
 1478TIP3    H1 4377   2.528   2.842   6.051
 1478TIP3    H2 4378   2.514   2.721   5.961
 1479TIP3   OH2 4379   5.114   0.650   6.682
 1479TIP3    H1 4380   5.150   0.681   6.765
 1479TIP3    H2 4381   5.075   0.727   6.642
 1480TIP3   OH2 4382   4.378   1.984   2.352
 1480TIP3    H1 4383   4.357   1.891   2.362
 1480TIP3    H2 4384   4.470   1.985   2.326
 1481TIP3   OH2 4385   6.230   3.486   5.047
 1481TIP3    H1 4386   6.154   3.513   4.995
 1481TIP3    H2 4387   6.225   3.539   5.126
 1482TIP3   OH2 4388   1.011   7.459   3.736
 1482TIP3    H1 4389   1.101   7.482   3.762
 1482TIP3    H2 4390   0.962   7.457   3.818
 1483TIP3   OH2 4391   0.916   3.409   4.320
 1483TIP3    H1 4392   0.982   3.352   4.282
 1483TIP3    H2 4393   0.890   3.365   4.401
 1484TIP3   OH2 4394   0.549   6.689   1.179
 1484TIP3    H1 4395   0.461   6.652   1.178
 1484TIP3    H2 4396   0.581   6.677   1.090
 1485TIP3   OH2 4397   6.480   7.522   6.165
 1485TIP3    H1 4398   6.459   7.601   6.214
 1485TIP3    H2 4399   6.395   7.482   6.146
 1486TIP3   OH2 4400   0.904   1.974   3.279
 1486TIP3    H1 4401   0.863   1.981   3.366
 1486TIP3    H2 4402   0.924   1.881   3.270
 1487TIP3   OH2 4403   3.071   4.946   0.568
 1487TIP3    H1 4404   3.001   4.995   0.610
 1487TIP3    H2 4405   3.147   4.958   0.624
 1488TIP3   OH2 4406   6.901   7.238   3.631
 1488TIP3    H1 4407   6.881   7.332   3.640
 1488TIP3    H2 4408   6.997   7.234   3.628
 1489TIP3   OH2 4409   7.046   2.061   1.606
 1489TIP3    H1 4410   7.070   2.006   1.681
 1489TIP3    H2 4411   6.950   2.054   1.601
 1490TIP3   OH2 4412   3.174   1.634   1.270
 1490TIP3    H1 4413   3.144   1.608   1.183
 1490TIP3    H2 4414   3.257   1.589   1.282
 1491TIP3   OH2 4415   7.671   7.374   0.445
 1491TIP3    H1 4416   7.650   7.455   0.397
 1491TIP3    H2 4417   7.668   7.305   0.378
 1492TIP3   OH2 4418   3.307   6.918   1.106
 1492TIP3    H1 4419   3.214   6.938   1.097
 1492TIP3    H2 4420   3.314   6.868   1.188
 1493TIP3   OH2 4421   6.035   2.247   6.352
 1493TIP3    H1 4422   6.115   2.196   6.342
 1493TIP3    H2 4423   5.980   2.220   6.277
 1494TIP3   OH2 4424   7.409   4.803   3.626
 1494TIP3    H1 4425   7.375   4.716   3.646
 1494TIP3    H2 4426   7.373   4.860   3.695
 1495TIP3   OH2 4427   6.740   2.417   6.506
 1495TIP3    H1 4428   6.745   2.440   6.599
 1495TIP3    H2 4429   6.724   2.323   6.506
 1496TIP3   OH2 4430   4.958   3.043   3.790
 1496TIP3    H1 4431   5.049   3.049   3.820
 1496TIP3    H2 4432   4.961   2.983   3.716
 1497TIP3   OH2 4433   0.816   4.176   3.506
 1497TIP3    H1 4434   0.830   4.087   3.538
 1497TIP3    H2 4435   0.721   4.187   3.508
 1498TIP3   OH2 4436   5.205   7.637   6.440
 1498TIP3    H1 4437   5.236   7.593   6.361
 1498TIP3    H2 4438   5.112   7.614   6.445
 1499TIP3   OH2 4439   7.824   6.188   5.622
 1499TIP3    H1 4440   7.846   6.178   5.529
 1499TIP3    H2 4441   7.816   6.283   5.634
 1500TIP3   OH2 4442   3.389   2.027   0.146
 1500TIP3    H1 4443   3.327   2.070   0.205
 1500TIP3    H2 4444   3.409   1.944   0.189
 1501TIP3   OH2 4445   1.611   5.866   1.464
 1501TIP3    H1 4446   1.564   5.821   1.533
 1501TIP3    H2 4447   1.575   5.955   1.465
 1502TIP3   OH2 4448   0.128   3.148   2.212
 1502TIP3    H1 4449   0.059   3.092   2.174
 1502TIP3    H2 4450   0.161   3.097   2.286
 1503TIP3   OH2 4451   4.334   0.201   5.944
 1503TIP3    H1 4452   4.393   0.275   5.944
 1503TIP3    H2 4453   4.343   0.162   5.858
 1504TIP3   OH2 4454   6.988   0.325   0.714
 1504TIP3    H1 4455   6.971   0.247   0.660
 1504TIP3    H2 4456   6.987   0.292   0.804
 1505TIP3   OH2 4457   5.826   7.392   6.264
 1505TIP3    H1 4458   5.890   7.405   6.334
 1505TIP3    H2 4459   5.765   7.326   6.299
 1506TIP3   OH2 4460   1.866   5.894   1.050
 1506TIP3    H1 4461   1.930   5.942   1.102
 1506TIP3    H2 4462   1.822   5.837   1.113
 1507TIP3   OH2 4463   6.463   5.126   3.507
 1507TIP3    H1 4464   6.389   5.182   3.532
 1507TIP3    H2 4465   6.540   5.175   3.534
 1508TIP3   OH2 4466   4.028   1.909   3.452
 1508TIP3    H1 4467   4.024   2.004   3.449
 1508TIP3    H2 4468   3.940   1.880   3.429
 1509TIP3   OH2 4469   6.436   1.323   1.762
 1509TIP3    H1 4470   6.432   1.255   1.694
 1509TIP3    H2 4471   6.368   1.297   1.824
 1510TIP3   OH2 4472   5.932   7.208   0.960
 1510TIP3    H1 4473   5.956   7.243   1.045
 1510TIP3    H2 4474   5.883   7.128   0.979
 1511TIP3   OH2 4475   2.309   0.393   0.590
 1511TIP3    H1 4476   2.294   0.303   0.618
 1511TIP3    H2 4477   2.403   0.398   0.575
 1512TIP3   OH2 4478   0.506   6.178   5.552
 1512TIP3    H1 4479   0.442   6.209   5.489
 1512TIP3    H2 4480   0.458   6.117   5.608
 1513TIP3   OH2 4481   0.939   2.235   6.480
 1513TIP3    H1 4482   0.931   2.297   6.553
 1513TIP3    H2 4483   1.028   2.248   6.447
 1514TIP3   OH2 4484   0.362   2.869   6.007
 1514TIP3    H1 4485   0.302   2.839   5.938
 1514TIP3    H2 4486   0.430   2.803   6.010
 1515TIP3   OH2 4487   1.448   6.920   5.852
 1515TIP3    H1 4488   1.442   7.015   5.844
 1515TIP3    H2 4489   1.426   6.902   5.944
 1516TIP3   OH2 4490   0.637   7.048   3.768
 1516TIP3    H1 4491   0.581   7.095   3.829
 1516TIP3    H2 4492   0.724   7.084   3.782
 1517TIP3   OH2 4493   3.511   5.015   5.550
 1517TIP3    H1 4494   3.464   5.052   5.624
 1517TIP3    H2 4495   3.563   5.088   5.516
 1518TIP3   OH2 4496   2.614   1.411   1.280
 1518TIP3    H1 4497   2.627   1.397   1.186
 1518TIP3    H2 4498   2.698   1.385   1.320
 1519TIP3   OH2 4499   3.208   6.423   5.449
 1519TIP3    H1 4500   3.176   6.357   5.512
 1519TIP3    H2 4501   3.130   6.450   5.402
 1520TIP3   OH2 4502   7.118   7.181   5.554
 1520TIP3    H1 4503   7.030   7.174   5.519
 1520TIP3    H2 4504   7.163   7.241   5.495
 1521TIP3   OH2 4505   6.041   1.563   2.923
 1521TIP3    H1 4506   5.962   1.617   2.919
 1521TIP3    H2 4507   6.010   1.477   2.951
 1522TIP3   OH2 4508   6.287   4.194   5.704
 1522TIP3    H1 4509   6.268   4.220   5.795
 1522TIP3    H2 4510   6.338   4.267   5.669
 1523TIP3   OH2 4511   7.479   3.742   6.556
 1523TIP3    H1 4512   7.466   3.826   6.511
 1523TIP3    H2 4513   7.400   3.692   6.536
 1524TIP3   OH2 4514   5.745   1.187   5.873
 1524TIP3    H1 4515   5.788   1.106   5.899
 1524TIP3    H2 4516   5.654   1.161   5.856
 1525TIP3   OH2 4517   0.139   2.889   2.890
 1525TIP3    H1 4518   0.100   2.821   2.836
 1525TIP3    H2 4519   0.175   2.952   2.827
 1526TIP3   OH2 4520   2.705   2.037   3.818
 1526TIP3    H1 4521   2.661   2.007   3.897
 1526TIP3    H2 4522   2.799   2.030   3.839
 1527TIP3   OH2 4523   7.698   6.670   6.716
 1527TIP3    H1 4524   7.746   6.748   6.689
 1527TIP3    H2 4525   7.763   6.599   6.714
 1528TIP3   OH2 4526   2.563   0.855   5.605
 1528TIP3    H1 4527   2.655   0.858   5.630
 1528TIP3    H2 4528   2.561   0.889   5.515
 1529TIP3   OH2 4529   4.980   1.666   5.468
 1529TIP3    H1 4530   4.985   1.605   5.394
 1529TIP3    H2 4531   5.052   1.640   5.525
 1530TIP3   OH2 4532   3.347   0.551   0.778
 1530TIP3    H1 4533   3.331   0.566   0.872
 1530TIP3    H2 4534   3.357   0.456   0.771
 1531TIP3   OH2 4535   3.560   6.333   1.077
 1531TIP3    H1 4536   3.601   6.275   1.013
 1531TIP3    H2 4537   3.493   6.279   1.119
 1532TIP3   OH2 4538   5.455   5.804   4.020
 1532TIP3    H1 4539   5.515   5.753   3.966
 1532TIP3    H2 4540   5.430   5.745   4.090
 1533TIP3   OH2 4541   3.652   1.090   6.230
 1533TIP3    H1 4542   3.661   0.995   6.222
 1533TIP3    H2 4543   3.596   1.115   6.156
 1534TIP3   OH2 4544   1.902   0.065   3.185
 1534TIP3    H1 4545   1.823   0.018   3.157
 1534TIP3    H2 4546   1.873   0.156   3.194
 1535TIP3   OH2 4547   1.568   7.481   3.918
 1535TIP3    H1 4548   1.609   7.517   3.839
 1535TIP3    H2 4549   1.642   7.453   3.972
 1536TIP3   OH2 4550   1.873   3.416   4.461
 1536TIP3    H1 4551   1.934   3.435   4.389
 1536TIP3    H2 4552   1.836   3.330   4.439
 1537TIP3   OH2 4553   0.224   7.359   2.387
 1537TIP3    H1 4554   0.196   7.447   2.410
 1537TIP3    H2 4555   0.186   7.343   2.301
 1538TIP3   OH2 4556   3.998   2.188   1.010
 1538TIP3    H1 4557   3.973   2.192   1.103
 1538TIP3    H2 4558   4.079   2.240   1.005
 1539TIP3   OH2 4559   1.827   2.517   0.880
 1539TIP3    H1 4560   1.799   2.496   0.790
 1539TIP3    H2 4561   1.764   2.582   0.910
 1540TIP3   OH2 4562   0.494   3.743   1.775
 1540TIP3    H1 4563   0.545   3.797   1.836
 1540TIP3    H2 4564   0.423   3.799   1.747
 1541TIP3   OH2 4565   6.904   0.441   1.148
 1541TIP3    H1 4566   6.843   0.377   1.186
 1541TIP3    H2 4567   6.889   0.521   1.197
 1542TIP3   OH2 4568   4.292   1.595   5.619
 1542TIP3    H1 4569   4.377   1.557   5.639
 1542TIP3    H2 4570   4.299   1.624   5.528
 1543TIP3   OH2 4571   1.599   0.580   3.085
 1543TIP3    H1 4572   1.693   0.580   3.107
 1543TIP3    H2 4573   1.563   0.653   3.136
 1544TIP3   OH2 4574   1.291   5.675   3.410
 1544TIP3    H1 4575   1.209   5.722   3.418
 1544TIP3    H2 4576   1.267   5.583   3.418
 1545TIP3   OH2 4577   0.898   5.212   5.623
 1545TIP3    H1 4578   0.821   5.161   5.597
 1545TIP3    H2 4579   0.920   5.179   5.710
 1546TIP3   OH2 4580   3.898   6.259   1.227
 1546TIP3    H1 4581   3.994   6.257   1.220
 1546TIP3    H2 4582   3.867   6.218   1.147
 1547TIP3   OH2 4583   6.644   3.225   2.739
 1547TIP3    H1 4584   6.639   3.145   2.791
 1547TIP3    H2 4585   6.656   3.194   2.649
 1548TIP3   OH2 4586   0.996   5.934   1.913
 1548TIP3    H1 4587   1.022   5.933   1.821
 1548TIP3    H2 4588   0.908   5.895   1.914
 1549TIP3   OH2 4589   4.450   6.792   4.704
 1549TIP3    H1 4590   4.389   6.758   4.639
 1549TIP3    H2 4591   4.516   6.839   4.653
 1550TIP3   OH2 4592   4.901   3.306   6.497
 1550TIP3    H1 4593   4.949   3.311   6.415
 1550TIP3    H2 4594   4.959   3.346   6.562
 1551TIP3   OH2 4595   0.885   4.111   1.397
 1551TIP3    H1 4596   0.853   4.202   1.400
 1551TIP3    H2 4597   0.963   4.112   1.452
 1552TIP3   OH2 4598   1.676   1.510   6.444
 1552TIP3    H1 4599   1.641   1.547   6.525
 1552TIP3    H2 4600   1.771   1.510   6.458
 1553TIP3   OH2 4601   1.830   0.795   6.086
 1553TIP3    H1 4602   1.907   0.805   6.141
 1553TIP3    H2 4603   1.787   0.881   6.088
 1554TIP3   OH2 4604   7.586   6.551   2.020
 1554TIP3    H1 4605   7.569   6.460   1.997
 1554TIP3    H2 4606   7.507   6.597   1.991
 1555TIP3   OH2 4607   2.864   7.656   4.640
 1555TIP3    H1 4608   2.951   7.617   4.647
 1555TIP3    H2 4609   2.820   7.604   4.573
 1556TIP3   OH2 4610   7.830   4.339   2.247
 1556TIP3    H1 4611   7.849   4.433   2.241
 1556TIP3    H2 4612   7.909   4.297   2.212
 1557TIP3   OH2 4613   3.240   3.398   0.748
 1557TIP3    H1 4614   3.195   3.377   0.830
 1557TIP3    H2 4615   3.228   3.319   0.694
 1558TIP3   OH2 4616   6.440   5.006   3.961
 1558TIP3    H1 4617   6.394   5.020   4.044
 1558TIP3    H2 4618   6.371   4.995   3.897
 1559TIP3   OH2 4619   2.795   5.593   0.998
 1559TIP3    H1 4620   2.804   5.597   0.903
 1559TIP3    H2 4621   2.739   5.667   1.021
 1560TIP3   OH2 4622   6.506   2.859   1.362
 1560TIP3    H1 4623   6.556   2.919   1.418
 1560TIP3    H2 4624   6.418   2.859   1.399
 1561TIP3   OH2 4625   7.425   5.176   2.597
 1561TIP3    H1 4626   7.340   5.157   2.558
 1561TIP3    H2 4627   7.476   5.213   2.525
 1562TIP3   OH2 4628   7.067   5.085   3.091
 1562TIP3    H1 4629   6.985   5.052   3.128
 1562TIP3    H2 4630   7.093   5.155   3.151
 1563TIP3   OH2 4631   7.759   6.358   6.533
 1563TIP3    H1 4632   7.836   6.384   6.583
 1563TIP3    H2 4633   7.737   6.435   6.480
 1564TIP3   OH2 4634   7.197   2.681   3.398
 1564TIP3    H1 4635   7.250   2.614   3.441
 1564TIP3    H2 4636   7.250   2.761   3.405
 1565TIP3   OH2 4637   7.374   0.220   1.617
 1565TIP3    H1 4638   7.413   0.222   1.704
 1565TIP3    H2 4639   7.288   0.179   1.630
 1566TIP3   OH2 4640   7.991   2.872   1.093
 1566TIP3    H1 4641   8.075   2.835   1.066
 1566TIP3    H2 4642   7.927   2.804   1.073
 1567TIP3   OH2 4643   2.938   7.041   5.449
 1567TIP3    H1 4644   2.914   6.970   5.509
 1567TIP3    H2 4645   2.908   7.011   5.363
 1568TIP3   OH2 4646   4.900   7.323   1.867
 1568TIP3    H1 4647   4.843   7.367   1.930
 1568TIP3    H2 4648   4.926   7.392   1.806
 1569TIP3   OH2 4649   1.916   4.916   6.511
 1569TIP3    H1 4650   2.004   4.949   6.491
 1569TIP3    H2 4651   1.858   4.966   6.453
 1570TIP3   OH2 4652   1.299   0.435   2.366
 1570TIP3    H1 4653   1.246   0.495   2.314
 1570TIP3    H2 4654   1.323   0.365   2.306
 1571TIP3   OH2 4655   3.022   3.798   5.076
 1571TIP3    H1 4656   2.928   3.805   5.060
 1571TIP3    H2 4657   3.032   3.717   5.126
 1572TIP3   OH2 4658   2.610   0.672   4.032
 1572TIP3    H1 4659   2.693   0.694   3.989
 1572TIP3    H2 4660   2.546   0.669   3.961
 1573TIP3   OH2 4661   3.529   5.759   1.044
 1573TIP3    H1 4662   3.543   5.723   1.132
 1573TIP3    H2 4663   3.485   5.690   0.996
 1574TIP3   OH2 4664   3.714   0.717   5.835
 1574TIP3    H1 4665   3.719   0.700   5.741
 1574TIP3    H2 4666   3.681   0.635   5.873
 1575TIP3   OH2 4667   4.738   2.513   2.889
 1575TIP3    H1 4668   4.722   2.510   2.984
 1575TIP3    H2 4669   4.814   2.570   2.880
 1576TIP3   OH2 4670   6.893   1.420   2.582
 1576TIP3    H1 4671   6.899   1.452   2.672
 1576TIP3    H2 4672   6.949   1.343   2.579
 1577TIP3   OH2 4673   0.386   7.721   0.323
 1577TIP3    H1 4674   0.371   7.781   0.249
 1577TIP3    H2 4675   0.313   7.740   0.383
 1578TIP3   OH2 4676   3.831   4.628   3.271
 1578TIP3    H1 4677   3.900   4.579   3.317
 1578TIP3    H2 4678   3.834   4.595   3.182
 1579TIP3   OH2 4679   4.463   0.860   5.022
 1579TIP3    H1 4680   4.441   0.811   4.942
 1579TIP3    H2 4681   4.378   0.880   5.062
 1580TIP3   OH2 4682   2.800   6.333   1.763
 1580TIP3    H1 4683   2.764   6.415   1.729
 1580TIP3    H2 4684   2.838   6.289   1.687
 1581TIP3   OH2 4685   7.248   6.436   3.460
 1581TIP3    H1 4686   7.315   6.388   3.508
 1581TIP3    H2 4687   7.191   6.473   3.527
 1582TIP3   OH2 4688   3.576   1.227   4.412
 1582TIP3    H1 4689   3.487   1.259   4.426
 1582TIP3    H2 4690   3.572   1.135   4.436
 1583TIP3   OH2 4691   3.843   6.505   3.311
 1583TIP3    H1 4692   3.845   6.585   3.364
 1583TIP3    H2 4693   3.762   6.462   3.336
 1584TIP3   OH2 4694   0.723   6.865   0.275
 1584TIP3    H1 4695   0.740   6.935   0.212
 1584TIP3    H2 4696   0.703   6.788   0.221
 1585TIP3   OH2 4697   0.395   7.469   3.503
 1585TIP3    H1 4698   0.470   7.529   3.496
 1585TIP3    H2 4699   0.348   7.500   3.581
 1586TIP3   OH2 4700   5.138   5.149   4.172
 1586TIP3    H1 4701   5.169   5.091   4.103
 1586TIP3    H2 4702   5.210   5.153   4.235
 1587TIP3   OH2 4703   1.469   4.953   1.127
 1587TIP3    H1 4704   1.399   4.888   1.128
 1587TIP3    H2 4705   1.424   5.038   1.127
 1588TIP3   OH2 4706   0.599   2.076   4.526
 1588TIP3    H1 4707   0.511   2.071   4.565
 1588TIP3    H2 4708   0.644   1.998   4.559
 1589TIP3   OH2 4709   4.023   4.547   0.699
 1589TIP3    H1 4710   3.940   4.510   0.669
 1589TIP3    H2 4711   4.084   4.473   0.698
 1590TIP3   OH2 4712   5.612   7.107   3.513
 1590TIP3    H1 4713   5.587   7.199   3.506
 1590TIP3    H2 4714   5.640   7.084   3.424
 1591TIP3   OH2 4715   6.811   6.203   1.498
 1591TIP3    H1 4716   6.832   6.249   1.417
 1591TIP3    H2 4717   6.853   6.255   1.566
 1592TIP3   OH2 4718   1.771   0.961   1.661
 1592TIP3    H1 4719   1.705   1.029   1.649
 1592TIP3    H2 4720   1.853   1.009   1.674
 1593TIP3   OH2 4721   3.832   1.472   3.949
 1593TIP3    H1 4722   3.777   1.411   3.899
 1593TIP3    H2 4723   3.770   1.516   4.008
 1594TIP3   OH2 4724   5.612   0.868   1.500
 1594TIP3    H1 4725   5.703   0.900   1.501
 1594TIP3    H2 4726   5.616   0.782   1.542
 1595TIP3   OH2 4727   1.660   1.188   1.410
 1595TIP3    H1 4728   1.650   1.283   1.410
 1595TIP3    H2 4729   1.604   1.158   1.482
 1596TIP3   OH2 4730   6.155   1.291   2.397
 1596TIP3    H1 4731   6.170   1.205   2.437
 1596TIP3    H2 4732   6.076   1.280   2.346
 1597TIP3   OH2 4733   4.446   7.262   1.873
 1597TIP3    H1 4734   4.416   7.316   1.800
 1597TIP3    H2 4735   4.398   7.179   1.863
 1598TIP3   OH2 4736   0.494   1.731   6.611
 1598TIP3    H1 4737   0.503   1.737   6.706
 1598TIP3    H2 4738   0.567   1.676   6.584
 1599TIP3   OH2 4739   0.550   0.499   2.398
 1599TIP3    H1 4740   0.542   0.535   2.310
 1599TIP3    H2 4741   0.462   0.465   2.418
 1600TIP3   OH2 4742   3.307   2.663   5.500
 1600TIP3    H1 4743   3.369   2.592   5.488
 1600TIP3    H2 4744   3.343   2.715   5.572
 1601TIP3   OH2 4745   2.081   0.200   2.543
 1601TIP3    H1 4746   1.999   0.173   2.584
 1601TIP3    H2 4747   2.131   0.240   2.615
 1602TIP3   OH2 4748   6.026   7.763   6.154
 1602TIP3    H1 4749   6.095   7.806   6.104
 1602TIP3    H2 4750   5.990   7.697   6.095
 1603TIP3   OH2 4751   1.035   7.785   0.446
 1603TIP3    H1 4752   1.058   7.793   0.539
 1603TIP3    H2 4753   0.940   7.790   0.444
 1604TIP3   OH2 4754   7.452   1.777   5.570
 1604TIP3    H1 4755   7.490   1.787   5.483
 1604TIP3    H2 4756   7.451   1.683   5.586
 1605TIP3   OH2 4757   3.872   3.351   3.057
 1605TIP3    H1 4758   3.934   3.317   2.993
 1605TIP3    H2 4759   3.818   3.275   3.081
 1606TIP3   OH2 4760   7.698   0.088   0.207
 1606TIP3    H1 4761   7.762   0.020   0.187
 1606TIP3    H2 4762   7.631   0.079   0.140
 1607TIP3   OH2 4763   2.013   0.748   6.792
 1607TIP3    H1 4764   2.074   0.693   6.743
 1607TIP3    H2 4765   2.010   0.830   6.742
 1608TIP3   OH2 4766   5.708   6.932   5.933
 1608TIP3    H1 4767   5.624   6.925   5.978
 1608TIP3    H2 4768   5.771   6.896   5.996
 1609TIP3   OH2 4769   5.731   6.773   4.215
 1609TIP3    H1 4770   5.796   6.715   4.175
 1609TIP3    H2 4771   5.778   6.854   4.232
 1610TIP3   OH2 4772   7.728   5.241   2.539
 1610TIP3    H1 4773   7.725   5.268   2.631
 1610TIP3    H2 4774   7.742   5.146   2.542
 1611TIP3   OH2 4775   6.732   5.164   5.607
 1611TIP3    H1 4776   6.674   5.180   5.532
 1611TIP3    H2 4777   6.766   5.251   5.630
 1612TIP3   OH2 4778   1.329   2.713   1.993
 1612TIP3    H1 4779   1.321   2.731   2.087
 1612TIP3    H2 4780   1.417   2.678   1.982
 1613TIP3   OH2 4781   1.666   4.097   5.206
 1613TIP3    H1 4782   1.718   4.171   5.238
 1613TIP3    H2 4783   1.731   4.034   5.174
 1614TIP3   OH2 4784   3.030   7.683   3.195
 1614TIP3    H1 4785   3.051   7.730   3.276
 1614TIP3    H2 4786   2.958   7.733   3.156
 1615TIP3   OH2 4787   6.132   1.307   1.360
 1615TIP3    H1 4788   6.116   1.344   1.447
 1615TIP3    H2 4789   6.122   1.213   1.371
 1616TIP3   OH2 4790   7.431   6.668   4.337
 1616TIP3    H1 4791   7.468   6.634   4.418
 1616TIP3    H2 4792   7.430   6.763   4.349
 1617TIP3   OH2 4793   1.413   2.854   1.020
 1617TIP3    H1 4794   1.400   2.858   1.114
 1617TIP3    H2 4795   1.325   2.853   0.983
 1618TIP3   OH2 4796   3.154   7.544   1.206
 1618TIP3    H1 4797   3.235   7.560   1.158
 1618TIP3    H2 4798   3.142   7.623   1.260
 1619TIP3   OH2 4799   1.259   1.889   1.894
 1619TIP3    H1 4800   1.303   1.969   1.926
 1619TIP3    H2 4801   1.167   1.914   1.886
 1620TIP3   OH2 4802   1.431   0.357   2.697
 1620TIP3    H1 4803   1.493   0.328   2.629
 1620TIP3    H2 4804   1.463   0.443   2.722
 1621TIP3   OH2 4805   4.677   1.573   1.679
 1621TIP3    H1 4806   4.656   1.550   1.769
 1621TIP3    H2 4807   4.682   1.490   1.633
 1622TIP3   OH2 4808   0.904   0.532   1.042
 1622TIP3    H1 4809   0.844   0.587   0.993
 1622TIP3    H2 4810   0.897   0.446   1.001
 1623TIP3   OH2 4811   0.106   3.188   3.647
 1623TIP3    H1 4812   0.101   3.100   3.610
 1623TIP3    H2 4813   0.196   3.216   3.633
 1624TIP3   OH2 4814   3.544   0.233   6.659
 1624TIP3    H1 4815   3.524   0.279   6.577
 1624TIP3    H2 4816   3.613   0.286   6.699
 1625TIP3   OH2 4817   1.342   5.066   1.970
 1625TIP3    H1 4818   1.257   5.039   1.935
 1625TIP3    H2 4819   1.398   5.076   1.893
 1626TIP3   OH2 4820   7.682   2.705   5.678
 1626TIP3    H1 4821   7.751   2.772   5.670
 1626TIP3    H2 4822   7.638   2.726   5.760
 1627TIP3   OH2 4823   5.675   6.989   3.246
 1627TIP3    H1 4824   5.693   6.911   3.299
 1627TIP3    H2 4825   5.759   7.007   3.203
 1628TIP3   OH2 4826   2.030   5.334   0.569
 1628TIP3    H1 4827   1.961   5.362   0.630
 1628TIP3    H2 4828   2.099   5.300   0.626
 1629TIP3   OH2 4829   7.526   3.254   4.274
 1629TIP3    H1 4830   7.432   3.262   4.285
 1629TIP3    H2 4831   7.544   3.292   4.188
 1630TIP3   OH2 4832   0.809   5.821   0.588
 1630TIP3    H1 4833   0.718   5.829   0.558
 1630TIP3    H2 4834   0.860   5.870   0.523
 1631TIP3   OH2 4835   7.606   1.430   3.428
 1631TIP3    H1 4836   7.642   1.517   3.444
 1631TIP3    H2 4837   7.559   1.438   3.345
 1632TIP3   OH2 4838   5.152   2.613   4.797
 1632TIP3    H1 4839   5.185   2.534   4.755
 1632TIP3    H2 4840   5.127   2.670   4.725
 1633TIP3   OH2 4841   7.388   3.266   2.057
 1633TIP3    H1 4842   7.446   3.298   2.125
 1633TIP3    H2 4843   7.318   3.222   2.105
 1634TIP3   OH2 4844   6.842   4.487   5.465
 1634TIP3    H1 4845   6.778   4.525   5.526
 1634TIP3    H2 4846   6.806   4.402   5.442
 1635TIP3   OH2 4847   7.577   0.504   1.641
 1635TIP3    H1 4848   7.627   0.422   1.636
 1635TIP3    H2 4849   7.567   0.520   1.735
 1636TIP3   OH2 4850   6.104   4.066   2.580
 1636TIP3    H1 4851   6.022   4.046   2.626
 1636TIP3    H2 4852   6.157   4.112   2.646
 1637TIP3   OH2 4853   7.684   5.368   2.020
 1637TIP3    H1 4854   7.705   5.404   2.106
 1637TIP3    H2 4855   7.601   5.409   1.995
 1638TIP3   OH2 4856   6.727   0.646   4.893
 1638TIP3    H1 4857   6.787   0.663   4.821
 1638TIP3    H2 4858   6.770   0.683   4.970
 1639TIP3   OH2 4859   7.381   1.361   1.596
 1639TIP3    H1 4860   7.468   1.330   1.622
 1639TIP3    H2 4861   7.331   1.281   1.578
 1640TIP3   OH2 4862   2.049   3.926   2.751
 1640TIP3    H1 4863   1.965   3.901   2.713
 1640TIP3    H2 4864   2.089   3.984   2.687
 1641TIP3   OH2 4865   5.036   2.205   6.709
 1641TIP3    H1 4866   4.947   2.169   6.711
 1641TIP3    H2 4867   5.092   2.134   6.740
 1642TIP3   OH2 4868   6.998   6.577   1.386
 1642TIP3    H1 4869   6.956   6.657   1.418
 1642TIP3    H2 4870   7.044   6.542   1.463
 1643TIP3   OH2 4871   3.566   6.118   0.334
 1643TIP3    H1 4872   3.578   6.049   0.269
 1643TIP3    H2 4873   3.481   6.099   0.374
 1644TIP3   OH2 4874   1.233   1.124   0.720
 1644TIP3    H1 4875   1.162   1.066   0.694
 1644TIP3    H2 4876   1.208   1.157   0.806
 1645TIP3   OH2 4877   6.905   7.721   0.335
 1645TIP3    H1 4878   6.868   7.762   0.257
 1645TIP3    H2 4879   6.978   7.778   0.360
 1646TIP3   OH2 4880   7.902   3.272   3.253
 1646TIP3    H1 4881   7.933   3.362   3.263
 1646TIP3    H2 4882   7.970   3.228   3.202
 1647TIP3   OH2 4883   5.639   2.246   3.122
 1647TIP3    H1 4884   5.690   2.266   3.043
 1647TIP3    H2 4885   5.692   2.181   3.168
 1648TIP3   OH2 4886   2.119   4.438   1.690
 1648TIP3    H1 4887   2.205   4.456   1.652
 1648TIP3    H2 4888   2.072   4.521   1.683
 1649TIP3   OH2 4889   5.209   1.012   1.253
 1649TIP3    H1 4890   5.296   1.010   1.294
 1649TIP3    H2 4891   5.227   1.017   1.159
 1650TIP3   OH2 4892   1.730   7.520   2.761
 1650TIP3    H1 4893   1.718   7.576   2.837
 1650TIP3    H2 4894   1.824   7.500   2.761
 1651TIP3   OH2 4895   1.989   2.068   5.965
 1651TIP3    H1 4896   1.943   2.059   6.048
 1651TIP3    H2 4897   2.082   2.075   5.990
 1652TIP3   OH2 4898   2.265  -0.020   6.328
 1652TIP3    H1 4899   2.227  -0.054   6.409
 1652TIP3    H2 4900   2.320   0.053   6.356
 1653TIP3   OH2 4901   1.531   4.296   6.058
 1653TIP3    H1 4902   1.542   4.243   5.979
 1653TIP3    H2 4903   1.437   4.294   6.076
 1654TIP3   OH2 4904   1.107   1.852   5.377
 1654TIP3    H1 4905   1.105   1.761   5.349
 1654TIP3    H2 4906   1.103   1.903   5.296
 1655TIP3   OH2 4907   3.862   3.921   2.019
 1655TIP3    H1 4908   3.843   3.981   2.091
 1655TIP3    H2 4909   3.884   3.977   1.945
 1656TIP3   OH2 4910   2.657   1.515   3.782
 1656TIP3    H1 4911   2.668   1.421   3.795
 1656TIP3    H2 4912   2.584   1.522   3.720
 1657TIP3   OH2 4913   7.127   3.929   1.078
 1657TIP3    H1 4914   7.101   3.937   1.170
 1657TIP3    H2 4915   7.045   3.907   1.033
 1658TIP3   OH2 4916   6.707   6.259   0.880
 1658TIP3    H1 4917   6.703   6.176   0.928
 1658TIP3    H2 4918   6.616   6.282   0.865
 1659TIP3   OH2 4919   4.729   2.603   6.417
 1659TIP3    H1 4920   4.741   2.520   6.371
 1659TIP3    H2 4921   4.755   2.670   6.353
 1660TIP3   OH2 4922   0.853   7.540   4.340
 1660TIP3    H1 4923   0.918   7.484   4.382
 1660TIP3    H2 4924   0.904   7.608   4.295
 1661TIP3   OH2 4925   7.471   3.878   2.320
 1661TIP3    H1 4926   7.535   3.898   2.252
 1661TIP3    H2 4927   7.411   3.953   2.318
 1662TIP3   OH2 4928   3.017   0.126   1.533
 1662TIP3    H1 4929   2.926   0.124   1.562
 1662TIP3    H2 4930   3.061   0.061   1.588
 1663TIP3   OH2 4931   3.864   0.241   1.910
 1663TIP3    H1 4932   3.918   0.267   1.984
 1663TIP3    H2 4933   3.914   0.269   1.833
 1664TIP3   OH2 4934   1.028   7.732   1.389
 1664TIP3    H1 4935   1.095   7.700   1.328
 1664TIP3    H2 4936   1.071   7.728   1.474
 1665TIP3   OH2 4937   4.524   5.737   6.685
 1665TIP3    H1 4938   4.596   5.730   6.622
 1665TIP3    H2 4939   4.448   5.704   6.637
 1666TIP3   OH2 4940   3.965   3.350   4.131
 1666TIP3    H1 4941   3.923   3.271   4.097
 1666TIP3    H2 4942   3.964   3.412   4.057
 1667TIP3   OH2 4943   0.989   3.733   1.203
 1667TIP3    H1 4944   0.920   3.797   1.185
 1667TIP3    H2 4945   1.019   3.754   1.292
 1668TIP3   OH2 4946   3.545   2.172   2.360
 1668TIP3    H1 4947   3.532   2.265   2.340
 1668TIP3    H2 4948   3.459   2.132   2.349
 1669TIP3   OH2 4949   0.215   3.058   4.223
 1669TIP3    H1 4950   0.303   3.046   4.257
 1669TIP3    H2 4951   0.227   3.116   4.147
 1670TIP3   OH2 4952   0.740   1.227   3.921
 1670TIP3    H1 4953   0.745   1.166   3.995
 1670TIP3    H2 4954   0.694   1.303   3.956
 1671TIP3   OH2 4955   2.278   3.582   3.266
 1671TIP3    H1 4956   2.291   3.663   3.217
 1671TIP3    H2 4957   2.331   3.593   3.345
 1672TIP3   OH2 4958   0.607   1.012   2.520
 1672TIP3    H1 4959   0.578   0.929   2.555
 1672TIP3    H2 4960   0.651   1.056   2.593
 1673TIP3   OH2 4961   6.754   6.063   1.114
 1673TIP3    H1 4962   6.845   6.059   1.141
 1673TIP3    H2 4963   6.705   6.083   1.194
 1674TIP3   OH2 4964   5.450   1.668   0.059
 1674TIP3    H1 4965   5.466   1.575   0.040
 1674TIP3    H2 4966   5.354   1.675   0.063
 1675TIP3   OH2 4967   3.490   6.584   2.093
 1675TIP3    H1 4968   3.420   6.593   2.158
 1675TIP3    H2 4969   3.459   6.633   2.017
 1676TIP3   OH2 4970   4.651   5.215   1.910
 1676TIP3    H1 4971   4.665   5.278   1.838
 1676TIP3    H2 4972   4.582   5.157   1.877
 1677TIP3   OH2 4973   7.781   6.449   0.529
 1677TIP3    H1 4974   7.764   6.482   0.440
 1677TIP3    H2 4975   7.876   6.456   0.540
 1678TIP3   OH2 4976   3.640   0.272   3.348
 1678TIP3    H1 4977   3.608   0.330   3.279
 1678TIP3    H2 4978   3.674   0.332   3.415
 1679TIP3   OH2 4979   2.557   5.970   6.661
 1679TIP3    H1 4980   2.474   5.946   6.620
 1679TIP3    H2 4981   2.595   6.034   6.602
 1680TIP3   OH2 4982   7.093   0.055   3.844
 1680TIP3    H1 4983   7.143   0.029   3.767
 1680TIP3    H2 4984   7.096  -0.021   3.902
 1681TIP3   OH2 4985   0.286   4.198   6.473
 1681TIP3    H1 4986   0.262   4.284   6.438
 1681TIP3    H2 4987   0.353   4.166   6.412
 1682TIP3   OH2 4988   0.474   6.412   0.388
 1682TIP3    H1 4989   0.455   6.401   0.481
 1682TIP3    H2 4990   0.567   6.392   0.381
 1683TIP3   OH2 4991   0.311   0.113   0.194
 1683TIP3    H1 4992   0.221   0.110   0.226
 1683TIP3    H2 4993   0.307   0.164   0.113
 1684TIP3   OH2 4994   2.797   7.410   6.096
 1684TIP3    H1 4995   2.791   7.314   6.088
 1684TIP3    H2 4996   2.855   7.436   6.024
 1685TIP3   OH2 4997   0.829   6.855   0.541
 1685TIP3    H1 4998   0.855   6.801   0.466
 1685TIP3    H2 4999   0.912   6.883   0.580
 1686TIP3   OH2 5000   6.491   5.833   1.604
 1686TIP3    H1 5001   6.406   5.870   1.630
 1686TIP3    H2 5002   6.508   5.870   1.518
 1687TIP3   OH2 5003   1.977   2.649   5.391
 1687TIP3    H1 5004   2.041   2.597   5.342
 1687TIP3    H2 5005   1.949   2.591   5.462
 1688TIP3   OH2 5006   5.914   0.543   6.391
 1688TIP3    H1 5007   5.934   0.575   6.479
 1688TIP3    H2 5008   5.929   0.448   6.396
 1689TIP3   OH2 5009   3.567   5.422   2.117
 1689TIP3    H1 5010   3.612   5.381   2.191
 1689TIP3    H2 5011   3.632   5.479   2.078
 1690TIP3   OH2 5012   0.280   0.193   5.996
 1690TIP3    H1 5013   0.254   0.265   6.053
 1690TIP3    H2 5014   0.375   0.189   6.004
 1691TIP3   OH2 5015   1.139   6.050   0.023
 1691TIP3    H1 5016   1.219   6.099   0.043
 1691TIP3    H2 5017   1.150   5.966   0.066
 1692TIP3   OH2 5018   8.196   2.225   0.486
 1692TIP3    H1 5019   8.180   2.289   0.556
 1692TIP3    H2 5020   8.117   2.172   0.484
 1693TIP3   OH2 5021   4.510   1.213   5.118
 1693TIP3    H1 5022   4.524   1.263   5.038
 1693TIP3    H2 5023   4.465   1.134   5.089
 1694TIP3   OH2 5024   7.431   6.816   4.773
 1694TIP3    H1 5025   7.513   6.772   4.751
 1694TIP3    H2 5026   7.417   6.796   4.866
 1695TIP3   OH2 5027   1.512   0.042   6.408
 1695TIP3    H1 5028   1.579   0.020   6.343
 1695TIP3    H2 5029   1.487   0.132   6.386
 1696TIP3   OH2 5030   0.196   2.158   1.235
 1696TIP3    H1 5031   0.104   2.154   1.211
 1696TIP3    H2 5032   0.229   2.070   1.214
 1697TIP3   OH2 5033   6.068   1.542   0.738
 1697TIP3    H1 5034   6.138   1.481   0.714
 1697TIP3    H2 5035   5.988   1.503   0.703
 1698TIP3   OH2 5036   0.951   4.682   1.215
 1698TIP3    H1 5037   0.897   4.662   1.139
 1698TIP3    H2 5038   1.011   4.608   1.222
 1699TIP3   OH2 5039   5.487   7.379   2.676
 1699TIP3    H1 5040   5.491   7.378   2.772
 1699TIP3    H2 5041   5.482   7.287   2.651
 1700TIP3   OH2 5042   6.389   6.814   0.077
 1700TIP3    H1 5043   6.360   6.815  -0.015
 1700TIP3    H2 5044   6.370   6.903   0.109
 1701TIP3   OH2 5045   6.799   6.714   2.763
 1701TIP3    H1 5046   6.876   6.688   2.713
 1701TIP3    H2 5047   6.727   6.666   2.721
 1702TIP3   OH2 5048   7.533   2.760   3.384
 1702TIP3    H1 5049   7.553   2.844   3.342
 1702TIP3    H2 5050   7.609   2.742   3.439
 1703TIP3   OH2 5051   6.866   3.337   5.704
 1703TIP3    H1 5052   6.881   3.369   5.615
 1703TIP3    H2 5053   6.781   3.293   5.700
 1704TIP3   OH2 5054   0.134   1.655   2.925
 1704TIP3    H1 5055   0.091   1.590   2.870
 1704TIP3    H2 5056   0.227   1.632   2.922
 1705TIP3   OH2 5057   0.710   6.685   2.180
 1705TIP3    H1 5058   0.713   6.595   2.146
 1705TIP3    H2 5059   0.758   6.736   2.115
 1706TIP3   OH2 5060   6.355   1.993   1.051
 1706TIP3    H1 5061   6.275   1.942   1.037
 1706TIP3    H2 5062   6.353   2.059   0.981
 1707TIP3   OH2 5063   1.678   7.612   1.018
 1707TIP3    H1 5064   1.616   7.579   0.952
 1707TIP3    H2 5065   1.672   7.549   1.090
 1708TIP3   OH2 5066   8.156   1.746   5.268
 1708TIP3    H1 5067   8.176   1.734   5.361
 1708TIP3    H2 5068   8.076   1.798   5.266
 1709TIP3   OH2 5069   7.874   1.563   3.558
 1709TIP3    H1 5070   7.820   1.639   3.581
 1709TIP3    H2 5071   7.957   1.578   3.604
 1710TIP3   OH2 5072   5.871   6.413   0.259
 1710TIP3    H1 5073   5.946   6.362   0.289
 1710TIP3    H2 5074   5.895   6.504   0.275
 1711TIP3   OH2 5075   0.225   2.204   0.344
 1711TIP3    H1 5076   0.270   2.207   0.428
 1711TIP3    H2 5077   0.180   2.119   0.344
 1712TIP3   OH2 5078   2.158   2.787   2.504
 1712TIP3    H1 5079   2.217   2.859   2.483
 1712TIP3    H2 5080   2.071   2.819   2.479
 1713TIP3   OH2 5081   4.414   2.278   1.957
 1713TIP3    H1 5082   4.358   2.250   2.029
 1713TIP3    H2 5083   4.496   2.306   1.999
 1714TIP3   OH2 5084   3.134   5.456   5.449
 1714TIP3    H1 5085   3.052   5.425   5.410
 1714TIP3    H2 5086   3.202   5.413   5.398
 1715TIP3   OH2 5087   6.357   3.161   2.630
 1715TIP3    H1 5088   6.413   3.096   2.673
 1715TIP3    H2 5089   6.285   3.174   2.691
 1716TIP3   OH2 5090   4.252   7.755   0.933
 1716TIP3    H1 5091   4.212   7.808   1.002
 1716TIP3    H2 5092   4.247   7.665   0.965
 1717TIP3   OH2 5093   0.814   0.355   3.638
 1717TIP3    H1 5094   0.719   0.356   3.625
 1717TIP3    H2 5095   0.849   0.404   3.563
 1718TIP3   OH2 5096   8.007   0.147   3.410
 1718TIP3    H1 5097   8.026   0.084   3.479
 1718TIP3    H2 5098   7.968   0.095   3.340
 1719TIP3   OH2 5099   2.557   0.722   0.884
 1719TIP3    H1 5100   2.615   0.660   0.842
 1719TIP3    H2 5101   2.474   0.675   0.894
 1720TIP3   OH2 5102   8.107   1.078  -0.059
 1720TIP3    H1 5103   8.170   1.050   0.007
 1720TIP3    H2 5104   8.043   1.007  -0.063
 1721TIP3   OH2 5105   4.442   0.629   3.092
 1721TIP3    H1 5106   4.489   0.672   3.163
 1721TIP3    H2 5107   4.373   0.691   3.067
 1722TIP3   OH2 5108   0.484   5.367   3.710
 1722TIP3    H1 5109   0.524   5.454   3.711
 1722TIP3    H2 5110   0.523   5.321   3.784
 1723TIP3   OH2 5111   0.167   4.077   6.688
 1723TIP3    H1 5112   0.127   3.991   6.674
 1723TIP3    H2 5113   0.209   4.098   6.605
 1724TIP3   OH2 5114   7.496   5.228   4.243
 1724TIP3    H1 5115   7.508   5.143   4.286
 1724TIP3    H2 5116   7.406   5.254   4.266
 1725TIP3   OH2 5117   3.884   0.313   4.674
 1725TIP3    H1 5118   3.944   0.338   4.744
 1725TIP3    H2 5119   3.940   0.270   4.609
 1726TIP3   OH2 5120   5.846   0.284   4.471
 1726TIP3    H1 5121   5.880   0.256   4.386
 1726TIP3    H2 5122   5.789   0.213   4.500
 1727TIP3   OH2 5123   7.315   2.749   2.678
 1727TIP3    H1 5124   7.404   2.715   2.669
 1727TIP3    H2 5125   7.315   2.831   2.628
 1728TIP3   OH2 5126   6.144   2.326   1.681
 1728TIP3    H1 5127   6.235   2.299   1.691
 1728TIP3    H2 5128   6.097   2.243   1.669
 1729TIP3   OH2 5129   1.055   4.492   3.048
 1729TIP3    H1 5130   1.141   4.516   3.013
 1729TIP3    H2 5131   0.992   4.537   2.991
 1730TIP3   OH2 5132   7.178   7.805   2.620
 1730TIP3    H1 5133   7.150   7.764   2.538
 1730TIP3    H2 5134   7.103   7.857   2.648
 1731TIP3   OH2 5135   0.713   5.061   2.832
 1731TIP3    H1 5136   0.620   5.048   2.848
 1731TIP3    H2 5137   0.717   5.132   2.768
 1732TIP3   OH2 5138   5.419   6.646   1.037
 1732TIP3    H1 5139   5.397   6.723   1.089
 1732TIP3    H2 5140   5.468   6.590   1.098
 1733TIP3   OH2 5141   4.028   0.957   4.789
 1733TIP3    H1 5142   3.944   0.943   4.834
 1733TIP3    H2 5143   4.081   1.004   4.853
 1734TIP3   OH2 5144   0.618   3.065   5.207
 1734TIP3    H1 5145   0.537   3.056   5.156
 1734TIP3    H2 5146   0.685   3.085   5.142
 1735TIP3   OH2 5147   6.743   2.789   1.748
 1735TIP3    H1 5148   6.795   2.720   1.787
 1735TIP3    H2 5149   6.747   2.773   1.654
 1736TIP3   OH2 5150   6.934   5.151   1.106
 1736TIP3    H1 5151   7.015   5.131   1.058
 1736TIP3    H2 5152   6.958   5.224   1.163
 1737TIP3   OH2 5153   4.025   3.603   1.617
 1737TIP3    H1 5154   4.016   3.557   1.700
 1737TIP3    H2 5155   4.019   3.534   1.551
 1738TIP3   OH2 5156   4.024   7.155   2.947
 1738TIP3    H1 5157   4.048   7.074   2.904
 1738TIP3    H2 5158   4.095   7.216   2.926
 1739TIP3   OH2 5159   4.728   1.667   4.843
 1739TIP3    H1 5160   4.676   1.684   4.765
 1739TIP3    H2 5161   4.796   1.606   4.814
 1740TIP3   OH2 5162   1.869   3.118   2.597
 1740TIP3    H1 5163   1.842   3.130   2.688
 1740TIP3    H2 5164   1.916   3.198   2.575
 1741TIP3   OH2 5165   3.476   6.666   3.387
 1741TIP3    H1 5166   3.495   6.577   3.359
 1741TIP3    H2 5167   3.385   6.662   3.417
 1742TIP3   OH2 5168   5.150   3.742   0.067
 1742TIP3    H1 5169   5.231   3.793   0.079
 1742TIP3    H2 5170   5.096   3.764   0.142
 1743TIP3   OH2 5171   3.296   4.142   2.858
 1743TIP3    H1 5172   3.378   4.172   2.897
 1743TIP3    H2 5173   3.247   4.222   2.840
 1744TIP3   OH2 5174   2.744   0.058   1.743
 1744TIP3    H1 5175   2.648   0.054   1.745
 1744TIP3    H2 5176   2.767   0.119   1.813
 1745TIP3   OH2 5177   6.587   6.567   2.607
 1745TIP3    H1 5178   6.547   6.488   2.571
 1745TIP3    H2 5179   6.643   6.600   2.536
 1746TIP3   OH2 5180   6.367   6.834   5.231
 1746TIP3    H1 5181   6.376   6.900   5.162
 1746TIP3    H2 5182   6.456   6.801   5.244
 1747TIP3   OH2 5183   1.665   0.997   2.283
 1747TIP3    H1 5184   1.729   1.005   2.212
 1747TIP3    H2 5185   1.694   0.921   2.333
 1748TIP3   OH2 5186   6.042   0.232   4.286
 1748TIP3    H1 5187   5.977   0.176   4.243
 1748TIP3    H2 5188   6.114   0.238   4.223
 1749TIP3   OH2 5189   6.928   2.412   3.055
 1749TIP3    H1 5190   7.019   2.439   3.072
 1749TIP3    H2 5191   6.895   2.478   2.994
 1750TIP3   OH2 5192   5.606   7.296  -0.077
 1750TIP3    H1 5193   5.562   7.218  -0.043
 1750TIP3    H2 5194   5.698   7.283  -0.055
 1751TIP3   OH2 5195   4.789   6.856   0.788
 1751TIP3    H1 5196   4.805   6.807   0.707
 1751TIP3    H2 5197   4.861   6.830   0.846
 1752TIP3   OH2 5198   5.016   2.629   3.732
 1752TIP3    H1 5199   5.039   2.566   3.664
 1752TIP3    H2 5200   4.988   2.707   3.685
 1753TIP3   OH2 5201   1.894   7.156   4.507
 1753TIP3    H1 5202   1.808   7.123   4.535
 1753TIP3    H2 5203   1.955   7.124   4.573
 1754TIP3   OH2 5204   4.707   1.501   3.954
 1754TIP3    H1 5205   4.675   1.544   3.875
 1754TIP3    H2 5206   4.751   1.422   3.922
 1755TIP3   OH2 5207   7.899   7.145   4.540
 1755TIP3    H1 5208   7.988   7.109   4.543
 1755TIP3    H2 5209   7.852   7.100   4.610
 1756TIP3   OH2 5210   7.443   5.461   0.225
 1756TIP3    H1 5211   7.391   5.414   0.290
 1756TIP3    H2 5212   7.519   5.494   0.273
 1757TIP3   OH2 5213   2.856   0.421   5.591
 1757TIP3    H1 5214   2.810   0.377   5.520
 1757TIP3    H2 5215   2.946   0.429   5.560
 1758TIP3   OH2 5216   1.420   7.791   3.703
 1758TIP3    H1 5217   1.351   7.764   3.641
 1758TIP3    H2 5218   1.413   7.728   3.775
 1759TIP3   OH2 5219   3.905   6.974   1.140
 1759TIP3    H1 5220   3.818   6.938   1.156
 1759TIP3    H2 5221   3.964   6.921   1.193
 1760TIP3   OH2 5222   7.374   7.478   1.467
 1760TIP3    H1 5223   7.393   7.432   1.548
 1760TIP3    H2 5224   7.433   7.438   1.402
 1761TIP3   OH2 5225   0.498   6.442   0.114
 1761TIP3    H1 5226   0.501   6.442   0.209
 1761TIP3    H2 5227   0.419   6.392   0.092
 1762TIP3   OH2 5228   1.623   4.970   4.343
 1762TIP3    H1 5229   1.644   4.900   4.405
 1762TIP3    H2 5230   1.681   4.954   4.268
 1763TIP3   OH2 5231   6.369   5.457   1.899
 1763TIP3    H1 5232   6.379   5.551   1.884
 1763TIP3    H2 5233   6.290   5.449   1.953
 1764TIP3   OH2 5234   5.605   6.133   1.156
 1764TIP3    H1 5235   5.643   6.069   1.216
 1764TIP3    H2 5236   5.535   6.085   1.111
 1765TIP3   OH2 5237   1.303   5.875   0.235
 1765TIP3    H1 5238   1.296   5.879   0.331
 1765TIP3    H2 5239   1.386   5.831   0.218
 1766TIP3   OH2 5240   4.778   6.334   3.490
 1766TIP3    H1 5241   4.716   6.275   3.445
 1766TIP3    H2 5242   4.812   6.282   3.562
 1767TIP3   OH2 5243   3.555   7.516   6.110
 1767TIP3    H1 5244   3.533   7.424   6.101
 1767TIP3    H2 5245   3.543   7.534   6.203
 1768TIP3   OH2 5246   3.115   0.023   4.701
 1768TIP3    H1 5247   3.039   0.074   4.728
 1768TIP3    H2 5248   3.188   0.085   4.702
 1769TIP3   OH2 5249   7.171   6.497   6.592
 1769TIP3    H1 5250   7.240   6.558   6.565
 1769TIP3    H2 5251   7.115   6.548   6.650
 1770TIP3   OH2 5252   2.604   3.640   0.611
 1770TIP3    H1 5253   2.691   3.607   0.589
 1770TIP3    H2 5254   2.545   3.567   0.591
 1771TIP3   OH2 5255   3.351   5.083   6.000
 1771TIP3    H1 5256   3.298   5.161   5.984
 1771TIP3    H2 5257   3.389   5.096   6.086
 1772TIP3   OH2 5258   3.796   5.088   0.959
 1772TIP3    H1 5259   3.709   5.121   0.982
 1772TIP3    H2 5260   3.780   5.026   0.888
 1773TIP3   OH2 5261   5.585   0.048   1.465
 1773TIP3    H1 5262   5.556  -0.027   1.414
 1773TIP3    H2 5263   5.568   0.023   1.556
 1774TIP3   OH2 5264   5.789   2.177   6.527
 1774TIP3    H1 5265   5.724   2.132   6.473
 1774TIP3    H2 5266   5.850   2.214   6.464
 1775TIP3   OH2 5267   6.319   0.662   4.322
 1775TIP3    H1 5268   6.253   0.630   4.384
 1775TIP3    H2 5269   6.271   0.717   4.261
 1776TIP3   OH2 5270   7.921   3.898   1.134
 1776TIP3    H1 5271   7.901   3.811   1.100
 1776TIP3    H2 5272   7.979   3.883   1.208
 1777TIP3   OH2 5273   1.948   0.965   6.640
 1777TIP3    H1 5274   1.988   0.931   6.560
 1777TIP3    H2 5275   1.864   1.000   6.613
 1778TIP3   OH2 5276   5.820   4.641   0.924
 1778TIP3    H1 5277   5.877   4.714   0.901
 1778TIP3    H2 5278   5.741   4.683   0.958
 1779TIP3   OH2 5279   1.417   7.591   1.547
 1779TIP3    H1 5280   1.512   7.588   1.557
 1779TIP3    H2 5281   1.389   7.661   1.605
 1780TIP3   OH2 5282   1.479   6.398   4.090
 1780TIP3    H1 5283   1.410   6.443   4.138
 1780TIP3    H2 5284   1.500   6.322   4.144
 1781TIP3   OH2 5285   2.331   3.400   4.056
 1781TIP3    H1 5286   2.267   3.342   4.015
 1781TIP3    H2 5287   2.354   3.463   3.987
 1782TIP3   OH2 5288   3.014   2.240   0.589
 1782TIP3    H1 5289   3.016   2.268   0.498
 1782TIP3    H2 5290   3.015   2.321   0.640
 1783TIP3   OH2 5291   7.726   6.141   3.280
 1783TIP3    H1 5292   7.731   6.132   3.184
 1783TIP3    H2 5293   7.803   6.193   3.303
 1784TIP3   OH2 5294   0.991   2.620   3.945
 1784TIP3    H1 5295   0.930   2.691   3.925
 1784TIP3    H2 5296   0.936   2.543   3.957
 1785TIP3   OH2 5297   5.008   2.875   3.570
 1785TIP3    H1 5298   5.094   2.913   3.556
 1785TIP3    H2 5299   4.982   2.840   3.485
 1786TIP3   OH2 5300   4.621   0.977   1.314
 1786TIP3    H1 5301   4.658   0.894   1.344
 1786TIP3    H2 5302   4.526   0.962   1.314
 1787TIP3   OH2 5303   2.498   7.055   1.339
 1787TIP3    H1 5304   2.476   6.994   1.268
 1787TIP3    H2 5305   2.464   7.140   1.308
 1788TIP3   OH2 5306   2.203   4.093   2.549
 1788TIP3    H1 5307   2.173   4.171   2.502
 1788TIP3    H2 5308   2.254   4.128   2.623
 1789TIP3   OH2 5309   3.066   0.732   0.771
 1789TIP3    H1 5310   3.078   0.642   0.802
 1789TIP3    H2 5311   2.996   0.766   0.826
 1790TIP3   OH2 5312   3.481   4.597   3.180
 1790TIP3    H1 5313   3.438   4.546   3.111
 1790TIP3    H2 5314   3.549   4.539   3.213
 1791TIP3   OH2 5315   6.843   3.029   5.658
 1791TIP3    H1 5316   6.765   3.082   5.639
 1791TIP3    H2 5317   6.898   3.039   5.581
 1792TIP3   OH2 5318   6.292   0.289   3.256
 1792TIP3    H1 5319   6.224   0.319   3.316
 1792TIP3    H2 5320   6.246   0.235   3.192
 1793TIP3   OH2 5321   0.244   3.794   2.858
 1793TIP3    H1 5322   0.291   3.877   2.857
 1793TIP3    H2 5323   0.184   3.801   2.933
 1794TIP3   OH2 5324   3.240   1.921   5.061
 1794TIP3    H1 5325   3.162   1.910   5.116
 1794TIP3    H2 5326   3.208   1.968   4.984
 1795TIP3   OH2 5327   5.200   2.817   3.020
 1795TIP3    H1 5328   5.135   2.886   3.012
 1795TIP3    H2 5329   5.207   2.781   2.932
 1796TIP3   OH2 5330   1.641   2.626   4.206
 1796TIP3    H1 5331   1.608   2.716   4.200
 1796TIP3    H2 5332   1.589   2.577   4.144
 1797TIP3   OH2 5333   4.843   7.420   0.774
 1797TIP3    H1 5334   4.840   7.505   0.818
 1797TIP3    H2 5335   4.918   7.376   0.813
 1798TIP3   OH2 5336   2.506   7.149   0.076
 1798TIP3    H1 5337   2.555   7.107   0.146
 1798TIP3    H2 5338   2.432   7.191   0.121
 1799TIP3   OH2 5339   0.643   7.025   4.649
 1799TIP3    H1 5340   0.593   7.023   4.731
 1799TIP3    H2 5341   0.696   7.105   4.656
 1800TIP3   OH2 5342   5.672   2.678   6.178
 1800TIP3    H1 5343   5.722   2.611   6.131
 1800TIP3    H2 5344   5.688   2.658   6.271
 1801TIP3   OH2 5345   0.424   7.294   1.778
 1801TIP3    H1 5346   0.465   7.370   1.819
 1801TIP3    H2 5347   0.481   7.221   1.800
 1802TIP3   OH2 5348   3.062   2.648   2.095
 1802TIP3    H1 5349   2.998   2.661   2.165
 1802TIP3    H2 5350   3.010   2.642   2.015
 1803TIP3   OH2 5351   0.530   5.560   0.682
 1803TIP3    H1 5352   0.495   5.649   0.678
 1803TIP3    H2 5353   0.549   5.546   0.775
 1804TIP3   OH2 5354   5.751   6.028   3.991
 1804TIP3    H1 5355   5.682   5.962   3.991
 1804TIP3    H2 5356   5.711   6.105   3.950
 1805TIP3   OH2 5357   2.016   4.243   4.062
 1805TIP3    H1 5358   2.047   4.188   4.134
 1805TIP3    H2 5359   1.966   4.184   4.006
 1806TIP3   OH2 5360   6.814   5.304   0.687
 1806TIP3    H1 5361   6.800   5.237   0.754
 1806TIP3    H2 5362   6.871   5.262   0.622
 1807TIP3   OH2 5363   7.222   6.349   1.784
 1807TIP3    H1 5364   7.282   6.407   1.829
 1807TIP3    H2 5365   7.278   6.284   1.742
 1808TIP3   OH2 5366   1.436   1.519   3.618
 1808TIP3    H1 5367   1.488   1.561   3.686
 1808TIP3    H2 5368   1.373   1.586   3.590
 1809TIP3   OH2 5369   2.889   5.763   1.714
 1809TIP3    H1 5370   2.937   5.722   1.786
 1809TIP3    H2 5371   2.861   5.689   1.659
 1810TIP3   OH2 5372   0.101   6.016   1.617
 1810TIP3    H1 5373   0.077   5.956   1.688
 1810TIP3    H2 5374   0.106   6.102   1.659
 1811TIP3   OH2 5375   5.421   0.883   1.861
 1811TIP3    H1 5376   5.403   0.932   1.941
 1811TIP3    H2 5377   5.422   0.950   1.792
 1812TIP3   OH2 5378   3.112   1.899   3.371
 1812TIP3    H1 5379   3.117   1.804   3.378
 1812TIP3    H2 5380   3.147   1.918   3.283
 1813TIP3   OH2 5381   4.759   3.341   3.568
 1813TIP3    H1 5382   4.670   3.361   3.598
 1813TIP3    H2 5383   4.810   3.333   3.649
 1814TIP3   OH2 5384   4.363   3.073   4.795
 1814TIP3    H1 5385   4.420   3.130   4.847
 1814TIP3    H2 5386   4.366   2.989   4.840
 1815TIP3   OH2 5387   0.204   5.861   6.055
 1815TIP3    H1 5388   0.169   5.792   6.112
 1815TIP3    H2 5389   0.281   5.821   6.014
 1816TIP3   OH2 5390   4.345   7.492   0.090
 1816TIP3    H1 5391   4.312   7.470   0.177
 1816TIP3    H2 5392   4.379   7.410   0.056
 1817TIP3   OH2 5393   2.173   7.618   3.516
 1817TIP3    H1 5394   2.114   7.552   3.551
 1817TIP3    H2 5395   2.261   7.587   3.540
 1818TIP3   OH2 5396   5.516   0.182   4.472
 1818TIP3    H1 5397   5.512   0.165   4.566
 1818TIP3    H2 5398   5.425   0.176   4.442
 1819TIP3   OH2 5399   0.562  -0.012   4.807
 1819TIP3    H1 5400   0.608   0.054   4.755
 1819TIP3    H2 5401   0.545  -0.084   4.746
 1820TIP3   OH2 5402   7.782   1.211   3.489
 1820TIP3    H1 5403   7.764   1.132   3.438
 1820TIP3    H2 5404   7.723   1.277   3.452
 1821TIP3   OH2 5405   3.623   2.382   5.977
 1821TIP3    H1 5406   3.619   2.348   6.067
 1821TIP3    H2 5407   3.693   2.447   5.979
 1822TIP3   OH2 5408   3.969   7.465   4.554
 1822TIP3    H1 5409   4.029   7.409   4.604
 1822TIP3    H2 5410   3.894   7.409   4.536
 1823TIP3   OH2 5411   2.458   1.896   2.737
 1823TIP3    H1 5412   2.426   1.819   2.692
 1823TIP3    H2 5413   2.546   1.910   2.702
 1824TIP3   OH2 5414   5.351   4.697   4.365
 1824TIP3    H1 5415   5.324   4.671   4.453
 1824TIP3    H2 5416   5.321   4.625   4.309
 1825TIP3   OH2 5417   1.521   6.983   2.166
 1825TIP3    H1 5418   1.495   6.902   2.123
 1825TIP3    H2 5419   1.451   7.045   2.145
 1826TIP3   OH2 5420   2.268   5.545   2.362
 1826TIP3    H1 5421   2.244   5.507   2.447
 1826TIP3    H2 5422   2.219   5.493   2.298
 1827TIP3   OH2 5423   8.067   2.168   4.130
 1827TIP3    H1 5424   8.161   2.169   4.146
 1827TIP3    H2 5425   8.059   2.192   4.037
 1828TIP3   OH2 5426   1.987   2.833   1.522
 1828TIP3    H1 5427   2.012   2.790   1.441
 1828TIP3    H2 5428   1.930   2.771   1.567
 1829TIP3   OH2 5429   3.763   7.096   0.228
 1829TIP3    H1 5430   3.740   7.050   0.147
 1829TIP3    H2 5431   3.857   7.110   0.222
 1830TIP3   OH2 5432   1.914   5.588   4.688
 1830TIP3    H1 5433   1.940   5.654   4.752
 1830TIP3    H2 5434   1.854   5.531   4.737
 1831TIP3   OH2 5435   6.143   5.718   1.883
 1831TIP3    H1 5436   6.120   5.804   1.848
 1831TIP3    H2 5437   6.201   5.680   1.817
 1832TIP3   OH2 5438   0.181   2.342   0.846
 1832TIP3    H1 5439   0.092   2.326   0.877
 1832TIP3    H2 5440   0.235   2.282   0.898
 1833TIP3   OH2 5441   1.131   0.095   2.311
 1833TIP3    H1 5442   1.076   0.034   2.360
 1833TIP3    H2 5443   1.098   0.181   2.335
 1834TIP3   OH2 5444   1.924   6.207   5.191
 1834TIP3    H1 5445   1.955   6.128   5.147
 1834TIP3    H2 5446   1.957   6.199   5.281
 1835TIP3   OH2 5447   6.122   0.604   3.141
 1835TIP3    H1 5448   6.128   0.592   3.047
 1835TIP3    H2 5449   6.194   0.664   3.162
 1836TIP3   OH2 5450   7.668   5.194   1.056
 1836TIP3    H1 5451   7.659   5.228   1.145
 1836TIP3    H2 5452   7.734   5.125   1.063
 1837TIP3   OH2 5453   1.181   4.149   4.693
 1837TIP3    H1 5454   1.202   4.242   4.702
 1837TIP3    H2 5455   1.195   4.130   4.600
 1838TIP3   OH2 5456   4.807   7.359   5.574
 1838TIP3    H1 5457   4.791   7.304   5.498
 1838TIP3    H2 5458   4.757   7.317   5.645
 1839TIP3   OH2 5459   3.901   4.820   0.377
 1839TIP3    H1 5460   3.894   4.913   0.358
 1839TIP3    H2 5461   3.910   4.778   0.291
 1840TIP3   OH2 5462   6.231   3.508   4.418
 1840TIP3    H1 5463   6.182   3.489   4.338
 1840TIP3    H2 5464   6.166   3.545   4.478
 1841TIP3   OH2 5465   5.332   7.280   3.315
 1841TIP3    H1 5466   5.412   7.282   3.262
 1841TIP3    H2 5467   5.304   7.189   3.314
 1842TIP3   OH2 5468   2.773   3.257   3.991
 1842TIP3    H1 5469   2.744   3.290   3.906
 1842TIP3    H2 5470   2.865   3.281   3.996
 1843TIP3   OH2 5471   4.797   0.777   1.803
 1843TIP3    H1 5472   4.803   0.760   1.897
 1843TIP3    H2 5473   4.845   0.705   1.762
 1844TIP3   OH2 5474   6.968   3.243   6.009
 1844TIP3    H1 5475   6.931   3.320   5.966
 1844TIP3    H2 5476   6.944   3.169   5.952
 1845TIP3   OH2 5477   5.251   5.922   5.946
 1845TIP3    H1 5478   5.229   5.921   5.853
 1845TIP3    H2 5479   5.167   5.932   5.991
 1846TIP3   OH2 5480   4.990   4.094   4.714
 1846TIP3    H1 5481   5.066   4.072   4.768
 1846TIP3    H2 5482   4.929   4.136   4.775
 1847TIP3   OH2 5483   0.629   4.415   6.107
 1847TIP3    H1 5484   0.550   4.360   6.113
 1847TIP3    H2 5485   0.596   4.502   6.088
 1848TIP3   OH2 5486   0.012   5.035   5.575
 1848TIP3    H1 5487  -0.062   5.094   5.563
 1848TIP3    H2 5488   0.089   5.091   5.563
 1849TIP3   OH2 5489   4.987   4.998   0.810
 1849TIP3    H1 5490   4.894   4.977   0.804
 1849TIP3    H2 5491   5.015   5.013   0.720
 1850TIP3   OH2 5492   2.761   1.135   4.893
 1850TIP3    H1 5493   2.726   1.056   4.850
 1850TIP3    H2 5494   2.697   1.155   4.961
 1851TIP3   OH2 5495   5.378   1.007   5.545
 1851TIP3    H1 5496   5.350   0.922   5.509
 1851TIP3    H2 5497   5.423   1.050   5.472
 1852TIP3   OH2 5498   7.275   0.715   0.222
 1852TIP3    H1 5499   7.351   0.685   0.172
 1852TIP3    H2 5500   7.200   0.676   0.177
 1853TIP3   OH2 5501   7.921   4.701   1.747
 1853TIP3    H1 5502   7.882   4.735   1.667
 1853TIP3    H2 5503   7.949   4.778   1.796
 1854TIP3   OH2 5504   4.848   5.792   2.608
 1854TIP3    H1 5505   4.799   5.710   2.599
 1854TIP3    H2 5506   4.921   5.783   2.547
 1855TIP3   OH2 5507   0.430   5.141   3.178
 1855TIP3    H1 5508   0.394   5.190   3.253
 1855TIP3    H2 5509   0.412   5.049   3.199
 1856TIP3   OH2 5510   4.431   4.479   2.690
 1856TIP3    H1 5511   4.380   4.422   2.748
 1856TIP3    H2 5512   4.511   4.429   2.672
 1857TIP3   OH2 5513   1.922   7.410   6.537
 1857TIP3    H1 5514   1.909   7.483   6.477
 1857TIP3    H2 5515   2.007   7.373   6.512
 1858TIP3   OH2 5516   7.748   4.242   1.359
 1858TIP3    H1 5517   7.794   4.226   1.441
 1858TIP3    H2 5518   7.672   4.184   1.362
 1859TIP3   OH2 5519   2.512   0.238   5.436
 1859TIP3    H1 5520   2.491   0.165   5.377
 1859TIP3    H2 5521   2.592   0.277   5.400
 1860TIP3   OH2 5522   5.636   2.456   0.944
 1860TIP3    H1 5523   5.700   2.527   0.952
 1860TIP3    H2 5524   5.680   2.391   0.889
 1861TIP3   OH2 5525   0.110   4.431   5.188
 1861TIP3    H1 5526   0.109   4.423   5.284
 1861TIP3    H2 5527   0.031   4.481   5.168
 1862TIP3   OH2 5528   6.411   0.124   5.301
 1862TIP3    H1 5529   6.431   0.175   5.223
 1862TIP3    H2 5530   6.360   0.184   5.356
 1863TIP3   OH2 5531   7.350   1.833   4.908
 1863TIP3    H1 5532   7.275   1.884   4.880
 1863TIP3    H2 5533   7.423   1.895   4.905
 1864TIP3   OH2 5534   2.116   2.076   5.362
 1864TIP3    H1 5535   2.189   2.016   5.352
 1864TIP3    H2 5536   2.097   2.075   5.456
 1865TIP3   OH2 5537   0.884   6.799   2.000
 1865TIP3    H1 5538   0.958   6.751   1.962
 1865TIP3    H2 5539   0.834   6.828   1.924
 1866TIP3   OH2 5540   0.897   4.455   5.506
 1866TIP3    H1 5541   0.942   4.539   5.502
 1866TIP3    H2 5542   0.939   4.403   5.437
 1867TIP3   OH2 5543   5.427   3.573   2.692
 1867TIP3    H1 5544   5.351   3.541   2.742
 1867TIP3    H2 5545   5.395   3.650   2.646
 1868TIP3   OH2 5546   8.039   2.758   2.829
 1868TIP3    H1 5547   7.948   2.786   2.833
 1868TIP3    H2 5548   8.079   2.815   2.763
 1869TIP3   OH2 5549   7.731   3.074   5.868
 1869TIP3    H1 5550   7.790   3.130   5.818
 1869TIP3    H2 5551   7.675   3.134   5.917
 1870TIP3   OH2 5552   0.799   2.077   5.746
 1870TIP3    H1 5553   0.756   2.061   5.662
 1870TIP3    H2 5554   0.753   2.153   5.782
 1871TIP3   OH2 5555   4.831   7.019   2.116
 1871TIP3    H1 5556   4.774   7.074   2.169
 1871TIP3    H2 5557   4.774   6.947   2.088
 1872TIP3   OH2 5558   3.763   0.789   6.226
 1872TIP3    H1 5559   3.744   0.706   6.182
 1872TIP3    H2 5560   3.859   0.794   6.225
 1873TIP3   OH2 5561   2.917   5.654   3.825
 1873TIP3    H1 5562   2.894   5.728   3.881
 1873TIP3    H2 5563   3.006   5.673   3.797
 1874TIP3   OH2 5564   8.096   7.191   2.426
 1874TIP3    H1 5565   8.000   7.185   2.430
 1874TIP3    H2 5566   8.126   7.108   2.462
 1875TIP3   OH2 5567   3.150   6.563   0.390
 1875TIP3    H1 5568   3.101   6.550   0.472
 1875TIP3    H2 5569   3.222   6.620   0.414
 1876TIP3   OH2 5570   6.037   1.395   1.593
 1876TIP3    H1 5571   5.990   1.477   1.607
 1876TIP3    H2 5572   5.974   1.327   1.617
 1877TIP3   OH2 5573   7.112   4.239   3.985
 1877TIP3    H1 5574   7.198   4.206   3.958
 1877TIP3    H2 5575   7.114   4.237   4.081
 1878TIP3   OH2 5576   7.806   4.319   4.753
 1878TIP3    H1 5577   7.836   4.243   4.803
 1878TIP3    H2 5578   7.728   4.349   4.799
 1879TIP3   OH2 5579   1.298   7.068   6.628
 1879TIP3    H1 5580   1.308   7.163   6.617
 1879TIP3    H2 5581   1.363   7.044   6.694
 1880TIP3   OH2 5582   0.112   4.923   2.635
 1880TIP3    H1 5583   0.039   4.970   2.594
 1880TIP3    H2 5584   0.187   4.943   2.580
 1881TIP3   OH2 5585   1.378   6.338   1.923
 1881TIP3    H1 5586   1.411   6.250   1.904
 1881TIP3    H2 5587   1.428   6.367   1.998
 1882TIP3   OH2 5588   3.066   4.722   2.442
 1882TIP3    H1 5589   3.143   4.715   2.385
 1882TIP3    H2 5590   3.034   4.811   2.426
 1883TIP3   OH2 5591   5.302   0.789   5.426
 1883TIP3    H1 5592   5.335   0.700   5.429
 1883TIP3    H2 5593   5.214   0.781   5.387
 1884TIP3   OH2 5594   6.768   5.300   0.062
 1884TIP3    H1 5595   6.713   5.318  -0.013
 1884TIP3    H2 5596   6.718   5.237   0.114
 1885TIP3   OH2 5597   0.004   6.939   0.343
 1885TIP3    H1 5598   0.065   6.986   0.287
 1885TIP3    H2 5599  -0.034   6.872   0.287
 1886TIP3   OH2 5600   7.718   1.619   5.164
 1886TIP3    H1 5601   7.762   1.692   5.206
 1886TIP3    H2 5602   7.624   1.636   5.177
 1887TIP3   OH2 5603   4.392   3.859   3.007
 1887TIP3    H1 5604   4.406   3.935   3.064
 1887TIP3    H2 5605   4.317   3.813   3.045
 1888TIP3   OH2 5606   2.390   6.257   6.500
 1888TIP3    H1 5607   2.411   6.338   6.454
 1888TIP3    H2 5608   2.427   6.269   6.587
 1889TIP3   OH2 5609   1.869   1.868   0.418
 1889TIP3    H1 5610   1.854   1.897   0.327
 1889TIP3    H2 5611   1.812   1.926   0.470
 1890TIP3   OH2 5612   0.585   1.879   4.998
 1890TIP3    H1 5613   0.558   1.787   4.997
 1890TIP3    H2 5614   0.673   1.877   5.037
 1891TIP3   OH2 5615   3.843   3.866   1.145
 1891TIP3    H1 5616   3.815   3.928   1.078
 1891TIP3    H2 5617   3.813   3.781   1.112
 1892TIP3   OH2 5618   3.055   7.045   3.145
 1892TIP3    H1 5619   2.983   7.020   3.086
 1892TIP3    H2 5620   3.031   7.007   3.229
 1893TIP3   OH2 5621   6.970   3.531   6.213
 1893TIP3    H1 5622   7.022   3.461   6.251
 1893TIP3    H2 5623   6.987   3.525   6.119
 1894TIP3   OH2 5624   7.695   0.412   5.321
 1894TIP3    H1 5625   7.737   0.477   5.264
 1894TIP3    H2 5626   7.758   0.399   5.392
 1895TIP3   OH2 5627   5.464   0.308   1.504
 1895TIP3    H1 5628   5.382   0.260   1.517
 1895TIP3    H2 5629   5.532   0.241   1.510
 1896TIP3   OH2 5630   2.077   5.516   0.922
 1896TIP3    H1 5631   2.160   5.563   0.911
 1896TIP3    H2 5632   2.090   5.434   0.872
 1897TIP3   OH2 5633   8.266   4.514   6.644
 1897TIP3    H1 5634   8.260   4.446   6.711
 1897TIP3    H2 5635   8.192   4.573   6.664
 1898TIP3   OH2 5636   6.161   0.054   3.614
 1898TIP3    H1 5637   6.092   0.085   3.556
 1898TIP3    H2 5638   6.130  -0.031   3.645
 1899TIP3   OH2 5639   3.445   4.065   0.998
 1899TIP3    H1 5640   3.355   4.053   1.030
 1899TIP3    H2 5641   3.434   4.105   0.911
 1900TIP3   OH2 5642   6.846   2.338   3.733
 1900TIP3    H1 5643   6.813   2.371   3.816
 1900TIP3    H2 5644   6.931   2.381   3.723
 1901TIP3   OH2 5645   3.658   4.948   4.257
 1901TIP3    H1 5646   3.643   4.875   4.317
 1901TIP3    H2 5647   3.614   5.023   4.298
 1902TIP3   OH2 5648   1.921   0.097   0.248
 1902TIP3    H1 5649   2.000   0.060   0.289
 1902TIP3    H2 5650   1.892   0.165   0.308
 1903TIP3   OH2 5651   5.775   2.446   4.136
 1903TIP3    H1 5652   5.824   2.506   4.193
 1903TIP3    H2 5653   5.737   2.382   4.196
 1904TIP3   OH2 5654   3.120   7.600   5.481
 1904TIP3    H1 5655   3.085   7.598   5.570
 1904TIP3    H2 5656   3.047   7.630   5.427
 1905TIP3   OH2 5657   2.692   0.464   6.291
 1905TIP3    H1 5658   2.760   0.532   6.291
 1905TIP3    H2 5659   2.670   0.454   6.198
 1906TIP3   OH2 5660   2.537   0.294   0.833
 1906TIP3    H1 5661   2.493   0.379   0.839
 1906TIP3    H2 5662   2.609   0.300   0.895
 1907TIP3   OH2 5663   5.186   1.621   0.155
 1907TIP3    H1 5664   5.155   1.531   0.142
 1907TIP3    H2 5665   5.229   1.620   0.240
 1908TIP3   OH2 5666   6.126   5.389   5.334
 1908TIP3    H1 5667   6.192   5.358   5.396
 1908TIP3    H2 5668   6.157   5.476   5.307
 1909TIP3   OH2 5669   0.126   1.916   6.337
 1909TIP3    H1 5670   0.193   1.882   6.278
 1909TIP3    H2 5671   0.098   1.840   6.388
 1910TIP3   OH2 5672   3.274   0.289   6.383
 1910TIP3    H1 5673   3.229   0.233   6.445
 1910TIP3    H2 5674   3.237   0.376   6.396
 1911TIP3   OH2 5675   5.370   1.848   1.606
 1911TIP3    H1 5676   5.407   1.823   1.522
 1911TIP3    H2 5677   5.436   1.824   1.670
 1912TIP3   OH2 5678   1.579   6.277   0.350
 1912TIP3    H1 5679   1.507   6.244   0.404
 1912TIP3    H2 5680   1.636   6.324   0.410
 1913TIP3   OH2 5681   3.256   6.955   6.433
 1913TIP3    H1 5682   3.334   6.899   6.439
 1913TIP3    H2 5683   3.281   7.035   6.479
 1914TIP3   OH2 5684   1.646   7.050   3.083
 1914TIP3    H1 5685   1.632   7.136   3.123
 1914TIP3    H2 5686   1.689   7.069   2.999
 1915TIP3   OH2 5687   0.847   7.850   3.139
 1915TIP3    H1 5688   0.856   7.759   3.166
 1915TIP3    H2 5689   0.755   7.871   3.156
 1916TIP3   OH2 5690   6.156   5.702   2.535
 1916TIP3    H1 5691   6.198   5.758   2.600
 1916TIP3    H2 5692   6.203   5.720   2.453
 1917TIP3   OH2 5693   7.999   7.742   5.297
 1917TIP3    H1 5694   7.978   7.672   5.358
 1917TIP3    H2 5695   8.090   7.727   5.272
 1918TIP3   OH2 5696   4.450   2.801   0.090
 1918TIP3    H1 5697   4.404   2.859   0.029
 1918TIP3    H2 5698   4.500   2.860   0.146
 1919TIP3   OH2 5699   8.112   1.275   6.545
 1919TIP3    H1 5700   8.050   1.214   6.505
 1919TIP3    H2 5701   8.095   1.267   6.639
 1920TIP3   OH2 5702   5.795   7.365   4.972
 1920TIP3    H1 5703   5.865   7.427   4.948
 1920TIP3    H2 5704   5.831   7.279   4.949
 1921TIP3   OH2 5705   0.459   5.714   4.017
 1921TIP3    H1 5706   0.513   5.786   4.048
 1921TIP3    H2 5707   0.395   5.754   3.959
 1922TIP3   OH2 5708   3.415   6.128   2.688
 1922TIP3    H1 5709   3.321   6.140   2.702
 1922TIP3    H2 5710   3.449   6.096   2.772
 1923TIP3   OH2 5711   0.584   4.392   3.785
 1923TIP3    H1 5712   0.654   4.453   3.764
 1923TIP3    H2 5713   0.596   4.320   3.724
 1924TIP3   OH2 5714   3.654   4.714   2.418
 1924TIP3    H1 5715   3.653   4.797   2.372
 1924TIP3    H2 5716   3.581   4.664   2.380
 1925TIP3   OH2 5717   3.179   4.271   2.521
 1925TIP3    H1 5718   3.168   4.311   2.607
 1925TIP3    H2 5719   3.092   4.279   2.480
 1926TIP3   OH2 5720   4.345   6.494   4.091
 1926TIP3    H1 5721   4.410   6.439   4.048
 1926TIP3    H2 5722   4.364   6.484   4.185
 1927TIP3   OH2 5723   0.663   6.138   6.680
 1927TIP3    H1 5724   0.656   6.077   6.606
 1927TIP3    H2 5725   0.573   6.155   6.705
 1928TIP3   OH2 5726   1.117   0.762   0.926
 1928TIP3    H1 5727   1.112   0.680   0.975
 1928TIP3    H2 5728   1.126   0.735   0.835
 1929TIP3   OH2 5729   5.331   4.344   0.629
 1929TIP3    H1 5730   5.312   4.382   0.543
 1929TIP3    H2 5731   5.367   4.258   0.611
 1930TIP3   OH2 5732   5.738   7.416   4.281
 1930TIP3    H1 5733   5.739   7.347   4.347
 1930TIP3    H2 5734   5.726   7.497   4.332
 1931TIP3   OH2 5735   7.374   1.648   0.338
 1931TIP3    H1 5736   7.282   1.670   0.325
 1931TIP3    H2 5737   7.387   1.567   0.288
 1932TIP3   OH2 5738   1.536   4.422   2.221
 1932TIP3    H1 5739   1.462   4.373   2.259
 1932TIP3    H2 5740   1.610   4.361   2.226
 1933TIP3   OH2 5741   2.312   1.949   2.267
 1933TIP3    H1 5742   2.291   1.856   2.257
 1933TIP3    H2 5743   2.317   1.962   2.362
 1934TIP3   OH2 5744   0.854   5.151   3.639
 1934TIP3    H1 5745   0.938   5.122   3.604
 1934TIP3    H2 5746   0.875   5.226   3.694
 1935TIP3   OH2 5747   3.812   7.592   1.888
 1935TIP3    H1 5748   3.765   7.610   1.969
 1935TIP3    H2 5749   3.802   7.498   1.875
 1936TIP3   OH2 5750   2.627   1.017   0.399
 1936TIP3    H1 5751   2.584   0.989   0.480
 1936TIP3    H2 5752   2.720   1.010   0.417
 1937TIP3   OH2 5753   4.891   0.281   6.619
 1937TIP3    H1 5754   4.879   0.206   6.560
 1937TIP3    H2 5755   4.888   0.357   6.561
 1938TIP3   OH2 5756   4.925   3.132   0.143
 1938TIP3    H1 5757   4.884   3.081   0.073
 1938TIP3    H2 5758   4.979   3.068   0.190
 1939TIP3   OH2 5759   4.557   6.175   5.852
 1939TIP3    H1 5760   4.594   6.132   5.929
 1939TIP3    H2 5761   4.463   6.179   5.869
 1940TIP3   OH2 5762   1.878   6.229   4.927
 1940TIP3    H1 5763   1.800   6.179   4.905
 1940TIP3    H2 5764   1.867   6.253   5.019
 1941TIP3   OH2 5765   2.534   5.197   5.574
 1941TIP3    H1 5766   2.608   5.213   5.632
 1941TIP3    H2 5767   2.466   5.162   5.632
 1942TIP3   OH2 5768   8.223   3.840   1.458
 1942TIP3    H1 5769   8.266   3.901   1.517
 1942TIP3    H2 5770   8.165   3.788   1.514
 1943TIP3   OH2 5771   1.124   4.728   3.956
 1943TIP3    H1 5772   1.089   4.646   3.921
 1943TIP3    H2 5773   1.174   4.766   3.884
 1944TIP3   OH2 5774   3.690   4.647   4.140
 1944TIP3    H1 5775   3.602   4.684   4.144
 1944TIP3    H2 5776   3.704   4.609   4.227
 1945TIP3   OH2 5777   6.887   3.160   6.267
 1945TIP3    H1 5778   6.917   3.198   6.184
 1945TIP3    H2 5779   6.824   3.093   6.241
 1946TIP3   OH2 5780   2.824   4.274   6.608
 1946TIP3    H1 5781   2.763   4.211   6.645
 1946TIP3    H2 5782   2.862   4.318   6.683
 1947TIP3   OH2 5783   6.648   6.361   5.508
 1947TIP3    H1 5784   6.642   6.406   5.593
 1947TIP3    H2 5785   6.590   6.410   5.451
 1948TIP3   OH2 5786   2.562   0.597   1.497
 1948TIP3    H1 5787   2.516   0.621   1.578
 1948TIP3    H2 5788   2.512   0.640   1.428
 1949TIP3   OH2 5789   0.467   2.740   6.570
 1949TIP3    H1 5790   0.386   2.691   6.558
 1949TIP3    H2 5791   0.534   2.673   6.583
 1950TIP3   OH2 5792   1.565   6.308   4.592
 1950TIP3    H1 5793   1.615   6.366   4.649
 1950TIP3    H2 5794   1.632   6.268   4.535
 1951TIP3   OH2 5795   5.105   7.312   4.642
 1951TIP3    H1 5796   5.120   7.286   4.551
 1951TIP3    H2 5797   5.022   7.271   4.665
 1952TIP3   OH2 5798   5.053   7.756   4.129
 1952TIP3    H1 5799   5.084   7.822   4.067
 1952TIP3    H2 5800   5.124   7.692   4.133
 1953TIP3   OH2 5801   6.571   3.971   3.298
 1953TIP3    H1 5802   6.576   3.978   3.203
 1953TIP3    H2 5803   6.513   4.042   3.325
 1954TIP3   OH2 5804   7.192   6.434   4.926
 1954TIP3    H1 5805   7.191   6.385   4.843
 1954TIP3    H2 5806   7.129   6.388   4.981
 1955TIP3   OH2 5807   8.005   0.393   6.651
 1955TIP3    H1 5808   7.950   0.319   6.626
 1955TIP3    H2 5809   7.963   0.428   6.730
 1956TIP3   OH2 5810   1.563   0.849   0.008
 1956TIP3    H1 5811   1.509   0.876  -0.067
 1956TIP3    H2 5812   1.627   0.919   0.018
 1957TIP3   OH2 5813   7.027   7.386   6.727
 1957TIP3    H1 5814   7.038   7.427   6.813
 1957TIP3    H2 5815   6.952   7.431   6.688
 1958TIP3   OH2 5816   2.086   2.820   5.173
 1958TIP3    H1 5817   2.127   2.774   5.100
 1958TIP3    H2 5818   2.059   2.751   5.233
 1959TIP3   OH2 5819   2.217   5.560   3.307
 1959TIP3    H1 5820   2.242   5.626   3.372
 1959TIP3    H2 5821   2.276   5.487   3.325
 1960TIP3   OH2 5822   7.117   6.844   6.614
 1960TIP3    H1 5823   7.066   6.770   6.582
 1960TIP3    H2 5824   7.170   6.872   6.540
 1961TIP3   OH2 5825   7.164   7.663   0.771
 1961TIP3    H1 5826   7.098   7.662   0.840
 1961TIP3    H2 5827   7.218   7.740   0.790
 1962TIP3   OH2 5828   0.850   3.856   3.385
 1962TIP3    H1 5829   0.898   3.882   3.307
 1962TIP3    H2 5830   0.772   3.811   3.352
 1963TIP3   OH2 5831   3.709   6.085   2.187
 1963TIP3    H1 5832   3.729   5.996   2.213
 1963TIP3    H2 5833   3.700   6.133   2.269
 1964TIP3   OH2 5834   8.038   2.051   4.882
 1964TIP3    H1 5835   8.014   2.008   4.800
 1964TIP3    H2 5836   8.134   2.052   4.882
 1965TIP3   OH2 5837   4.651   4.669   6.024
 1965TIP3    H1 5838   4.586   4.633   6.084
 1965TIP3    H2 5839   4.734   4.660   6.071
 1966TIP3   OH2 5840   4.360   6.351   0.112
 1966TIP3    H1 5841   4.348   6.441   0.082
 1966TIP3    H2 5842   4.330   6.297   0.039
 1967TIP3   OH2 5843   7.353   2.470   3.504
 1967TIP3    H1 5844   7.353   2.374   3.503
 1967TIP3    H2 5845   7.378   2.493   3.594
 1968TIP3   OH2 5846   1.654   2.960   0.834
 1968TIP3    H1 5847   1.731   2.935   0.884
 1968TIP3    H2 5848   1.641   2.888   0.772
 1969TIP3   OH2 5849   0.643   6.588   0.948
 1969TIP3    H1 5850   0.664   6.503   0.986
 1969TIP3    H2 5851   0.727   6.633   0.939
 1970TIP3   OH2 5852   5.972   5.286   3.415
 1970TIP3    H1 5853   5.929   5.298   3.500
 1970TIP3    H2 5854   6.065   5.283   3.436
 1971TIP3   OH2 5855   1.465   1.771   2.789
 1971TIP3    H1 5856   1.423   1.847   2.747
 1971TIP3    H2 5857   1.496   1.718   2.716
 1972TIP3   OH2 5858   6.954   4.078   5.079
 1972TIP3    H1 5859   6.963   4.150   5.017
 1972TIP3    H2 5860   6.874   4.033   5.053
 1973TIP3   OH2 5861   3.129   1.641   2.101
 1973TIP3    H1 5862   3.090   1.584   2.034
 1973TIP3    H2 5863   3.099   1.604   2.184
 1974TIP3   OH2 5864   3.256   7.427   5.875
 1974TIP3    H1 5865   3.266   7.396   5.785
 1974TIP3    H2 5866   3.299   7.513   5.876
 1975TIP3   OH2 5867   3.556   7.552   3.157
 1975TIP3    H1 5868   3.644   7.515   3.167
 1975TIP3    H2 5869   3.505   7.513   3.228
 1976TIP3   OH2 5870   4.094   3.692   4.752
 1976TIP3    H1 5871   4.052   3.607   4.739
 1976TIP3    H2 5872   4.182   3.672   4.781
 1977TIP3   OH2 5873   6.546   7.254   0.614
 1977TIP3    H1 5874   6.577   7.279   0.701
 1977TIP3    H2 5875   6.451   7.256   0.621
 1978TIP3   OH2 5876   6.030   5.892   0.659
 1978TIP3    H1 5877   6.116   5.870   0.623
 1978TIP3    H2 5878   5.968   5.843   0.604
 1979TIP3   OH2 5879   6.278   6.835   2.613
 1979TIP3    H1 5880   6.190   6.854   2.646
 1979TIP3    H2 5881   6.306   6.758   2.663
 1980TIP3   OH2 5882   4.633   6.854   2.053
 1980TIP3    H1 5883   4.588   6.772   2.071
 1980TIP3    H2 5884   4.644   6.855   1.958
 1981TIP3   OH2 5885   2.436   0.492   6.493
 1981TIP3    H1 5886   2.389   0.435   6.553
 1981TIP3    H2 5887   2.444   0.441   6.413
 1982TIP3   OH2 5888   1.756   4.807   5.246
 1982TIP3    H1 5889   1.688   4.853   5.198
 1982TIP3    H2 5890   1.784   4.869   5.314
 1983TIP3   OH2 5891   3.838   2.884   4.748
 1983TIP3    H1 5892   3.846   2.958   4.807
 1983TIP3    H2 5893   3.928   2.855   4.733
 1984TIP3   OH2 5894   5.680   2.277   4.330
 1984TIP3    H1 5895   5.679   2.313   4.419
 1984TIP3    H2 5896   5.621   2.201   4.334
 1985TIP3   OH2 5897   6.151   0.434   5.628
 1985TIP3    H1 5898   6.155   0.468   5.717
 1985TIP3    H2 5899   6.218   0.365   5.625
 1986TIP3   OH2 5900   0.162   6.528   1.359
 1986TIP3    H1 5901   0.116   6.446   1.339
 1986TIP3    H2 5902   0.229   6.535   1.291
 1987TIP3   OH2 5903   0.599   4.227   0.232
 1987TIP3    H1 5904   0.663   4.272   0.176
 1987TIP3    H2 5905   0.541   4.183   0.170
 1988TIP3   OH2 5906   7.064   6.825   2.381
 1988TIP3    H1 5907   7.122   6.756   2.414
 1988TIP3    H2 5908   7.109   6.907   2.404
 1989TIP3   OH2 5909   3.833   4.519   4.738
 1989TIP3    H1 5910   3.742   4.517   4.712
 1989TIP3    H2 5911   3.878   4.568   4.669
 1990TIP3   OH2 5912   8.155   0.755   0.326
 1990TIP3    H1 5913   8.123   0.692   0.261
 1990TIP3    H2 5914   8.086   0.759   0.392
 1991TIP3   OH2 5915   5.030   6.734   5.352
 1991TIP3    H1 5916   5.031   6.829   5.345
 1991TIP3    H2 5917   4.941   6.711   5.378
 1992TIP3   OH2 5918   6.636   2.157   2.097
 1992TIP3    H1 5919   6.583   2.173   2.175
 1992TIP3    H2 5920   6.705   2.224   2.100
 1993TIP3   OH2 5921   6.625   4.046   2.508
 1993TIP3    H1 5922   6.705   4.019   2.464
 1993TIP3    H2 5923   6.600   3.971   2.562
 1994TIP3   OH2 5924   1.435   4.819   1.643
 1994TIP3    H1 5925   1.441   4.905   1.684
 1994TIP3    H2 5926   1.512   4.812   1.588
 1995TIP3   OH2 5927   0.866   3.854   5.229
 1995TIP3    H1 5928   0.782   3.811   5.216
 1995TIP3    H2 5929   0.911   3.800   5.293
 1996TIP3   OH2 5930   5.503   1.984   6.492
 1996TIP3    H1 5931   5.550   1.964   6.411
 1996TIP3    H2 5932   5.417   2.015   6.463
 1997TIP3   OH2 5933   1.921   6.142   2.986
 1997TIP3    H1 5934   1.973   6.159   2.908
 1997TIP3    H2 5935   1.845   6.200   2.977
 1998TIP3   OH2 5936   4.483   6.187   1.685
 1998TIP3    H1 5937   4.546   6.202   1.756
 1998TIP3    H2 5938   4.523   6.228   1.609
 1999TIP3   OH2 5939   0.948   1.039   1.379
 1999TIP3    H1 5940   1.005   0.962   1.374
 1999TIP3    H2 5941   0.967   1.089   1.300
 2000TIP3   OH2 5942   4.716   5.908   6.300
 2000TIP3    H1 5943   4.703   5.936   6.390
 2000TIP3    H2 5944   4.678   5.978   6.247
 2001TIP3   OH2 5945   7.538   1.994   0.265
 2001TIP3    H1 5946   7.622   2.007   0.221
 2001TIP3    H2 5947   7.562   1.966   0.354
 2002TIP3   OH2 5948   8.054   7.354   5.716
 2002TIP3    H1 5949   7.961   7.346   5.694
 2002TIP3    H2 5950   8.099   7.357   5.632
 2003TIP3   OH2 5951   6.028   2.567   6.040
 2003TIP3    H1 5952   6.101   2.626   6.021
 2003TIP3    H2 5953   5.954   2.605   5.992
 2004TIP3   OH2 5954   5.129   1.627   5.698
 2004TIP3    H1 5955   5.044   1.637   5.741
 2004TIP3    H2 5956   5.189   1.606   5.770
 2005TIP3   OH2 5957   4.141   2.603   6.542
 2005TIP3    H1 5958   4.157   2.682   6.593
 2005TIP3    H2 5959   4.126   2.635   6.453
 2006TIP3   OH2 5960   5.284   1.994   4.227
 2006TIP3    H1 5961   5.238   2.076   4.244
 2006TIP3    H2 5962   5.334   2.009   4.147
 2007TIP3   OH2 5963   5.669   2.670   1.499
 2007TIP3    H1 5964   5.617   2.750   1.502
 2007TIP3    H2 5965   5.644   2.627   1.417
 2008TIP3   OH2 5966   6.985   6.161   4.242
 2008TIP3    H1 5967   7.007   6.088   4.184
 2008TIP3    H2 5968   6.944   6.119   4.318
 2009TIP3   OH2 5969   5.147   1.211   5.943
 2009TIP3    H1 5970   5.179   1.154   5.873
 2009TIP3    H2 5971   5.154   1.158   6.022
 2010TIP3   OH2 5972   6.745   2.993   5.238
 2010TIP3    H1 5973   6.825   2.941   5.248
 2010TIP3    H2 5974   6.694   2.973   5.317
 2011TIP3   OH2 5975   5.582   7.362   3.518
 2011TIP3    H1 5976   5.626   7.417   3.583
 2011TIP3    H2 5977   5.539   7.425   3.460
 2012TIP3   OH2 5978   5.823   6.449   1.748
 2012TIP3    H1 5979   5.742   6.445   1.799
 2012TIP3    H2 5980   5.883   6.501   1.801
 2013TIP3   OH2 5981   7.225   7.721   3.461
 2013TIP3    H1 5982   7.205   7.733   3.368
 2013TIP3    H2 5983   7.318   7.695   3.462
 2014TIP3   OH2 5984   2.968   0.882   2.806
 2014TIP3    H1 5985   3.013   0.882   2.891
 2014TIP3    H2 5986   2.876   0.899   2.828
 2015TIP3   OH2 5987   5.896   7.608   5.189
 2015TIP3    H1 5988   5.895   7.615   5.094
 2015TIP3    H2 5989   5.958   7.537   5.207
 2016TIP3   OH2 5990   2.511   3.507   0.143
 2016TIP3    H1 5991   2.533   3.573   0.077
 2016TIP3    H2 5992   2.429   3.539   0.181
 2017TIP3   OH2 5993   4.237   5.897   3.926
 2017TIP3    H1 5994   4.298   5.852   3.984
 2017TIP3    H2 5995   4.200   5.827   3.871
 2018TIP3   OH2 5996   2.489   0.668   0.160
 2018TIP3    H1 5997   2.415   0.693   0.215
 2018TIP3    H2 5998   2.512   0.580   0.189
 2019TIP3   OH2 5999   4.544   7.556   1.139
 2019TIP3    H1 6000   4.537   7.630   1.199
 2019TIP3    H2 6001   4.629   7.516   1.159
 2020TIP3   OH2 6002   4.726   1.252   0.355
 2020TIP3    H1 6003   4.708   1.158   0.365
 2020TIP3    H2 6004   4.656   1.295   0.404
 2021TIP3   OH2 6005   6.400   5.817   4.747
 2021TIP3    H1 6006   6.367   5.819   4.837
 2021TIP3    H2 6007   6.494   5.833   4.756
 2022TIP3   OH2 6008   2.571   5.732   1.741
 2022TIP3    H1 6009   2.627   5.793   1.788
 2022TIP3    H2 6010   2.482   5.766   1.754
 2023TIP3   OH2 6011   2.537   3.027   0.828
 2023TIP3    H1 6012   2.497   2.979   0.901
 2023TIP3    H2 6013   2.563   2.960   0.766
 2024TIP3   OH2 6014   4.238   4.642   4.176
 2024TIP3    H1 6015   4.153   4.676   4.202
 2024TIP3    H2 6016   4.298   4.675   4.243
 2025TIP3   OH2 6017   2.968   1.833   1.059
 2025TIP3    H1 6018   2.954   1.813   1.152
 2025TIP3    H2 6019   3.058   1.864   1.054
 2026TIP3   OH2 6020   4.079   5.013   4.032
 2026TIP3    H1 6021   4.025   5.063   4.092
 2026TIP3    H2 6022   4.019   4.987   3.962
 2027TIP3   OH2 6023   2.974   5.622   0.163
 2027TIP3    H1 6024   2.879   5.623   0.163
 2027TIP3    H2 6025   2.999   5.714   0.155
 2028TIP3   OH2 6026   8.075   5.677   3.102
 2028TIP3    H1 6027   8.012   5.750   3.101
 2028TIP3    H2 6028   8.032   5.609   3.154
 2029TIP3   OH2 6029   6.219   7.739   0.456
 2029TIP3    H1 6030   6.237   7.647   0.478
 2029TIP3    H2 6031   6.140   7.736   0.403
 2030TIP3   OH2 6032   0.824   5.151   4.290
 2030TIP3    H1 6033   0.734   5.180   4.279
 2030TIP3    H2 6034   0.817   5.064   4.330
 2031TIP3   OH2 6035   6.931   0.950   4.792
 2031TIP3    H1 6036   6.936   0.923   4.884
 2031TIP3    H2 6037   6.972   0.878   4.744
 2032TIP3   OH2 6038   0.909   7.437   0.550
 2032TIP3    H1 6039   0.821   7.421   0.515
 2032TIP3    H2 6040   0.967   7.426   0.475
 2033TIP3   OH2 6041   2.447   0.570   4.713
 2033TIP3    H1 6042   2.527   0.548   4.760
 2033TIP3    H2 6043   2.476   0.624   4.639
 2034TIP3   OH2 6044   1.983   2.326   1.951
 2034TIP3    H1 6045   1.994   2.326   2.046
 2034TIP3    H2 6046   1.895   2.291   1.937
 2035TIP3   OH2 6047   4.179   3.709   3.112
 2035TIP3    H1 6048   4.193   3.617   3.086
 2035TIP3    H2 6049   4.139   3.704   3.199
 2036TIP3   OH2 6050   2.955   6.807   0.928
 2036TIP3    H1 6051   3.021   6.770   0.871
 2036TIP3    H2 6052   2.996   6.887   0.963
 2037TIP3   OH2 6053   4.509   3.593   2.982
 2037TIP3    H1 6054   4.541   3.634   3.062
 2037TIP3    H2 6055   4.442   3.652   2.949
 2038TIP3   OH2 6056   4.626   5.938   3.942
 2038TIP3    H1 6057   4.720   5.922   3.943
 2038TIP3    H2 6058   4.587   5.853   3.921
 2039TIP3   OH2 6059   4.367   4.161   4.583
 2039TIP3    H1 6060   4.401   4.092   4.641
 2039TIP3    H2 6061   4.293   4.120   4.539
 2040TIP3   OH2 6062   6.156   4.105   5.193
 2040TIP3    H1 6063   6.109   4.182   5.225
 2040TIP3    H2 6064   6.236   4.101   5.247
 2041TIP3   OH2 6065   4.344   5.240   5.290
 2041TIP3    H1 6066   4.275   5.202   5.345
 2041TIP3    H2 6067   4.333   5.334   5.298
 2042TIP3   OH2 6068   3.967   3.524   1.870
 2042TIP3    H1 6069   4.004   3.584   1.935
 2042TIP3    H2 6070   3.878   3.554   1.856
 2043TIP3   OH2 6071   3.177   7.610   1.984
 2043TIP3    H1 6072   3.271   7.606   1.969
 2043TIP3    H2 6073   3.147   7.519   1.975
 2044TIP3   OH2 6074   4.436   7.538   2.952
 2044TIP3    H1 6075   4.354   7.587   2.945
 2044TIP3    H2 6076   4.499   7.603   2.983
 2045TIP3   OH2 6077   5.600   4.761   3.967
 2045TIP3    H1 6078   5.586   4.681   3.915
 2045TIP3    H2 6079   5.695   4.768   3.976
 2046TIP3   OH2 6080   6.238   1.322   2.004
 2046TIP3    H1 6081   6.288   1.320   2.086
 2046TIP3    H2 6082   6.147   1.332   2.032
 2047TIP3   OH2 6083   6.174   4.457   1.891
 2047TIP3    H1 6084   6.213   4.518   1.953
 2047TIP3    H2 6085   6.088   4.437   1.929
 2048TIP3   OH2 6086   4.073   7.588   1.209
 2048TIP3    H1 6087   4.094   7.645   1.283
 2048TIP3    H2 6088   4.157   7.551   1.183
 2049TIP3   OH2 6089   1.732   4.302   3.763
 2049TIP3    H1 6090   1.740   4.218   3.809
 2049TIP3    H2 6091   1.769   4.366   3.824
 2050TIP3   OH2 6092   1.001   5.748   1.371
 2050TIP3    H1 6093   1.014   5.654   1.356
 2050TIP3    H2 6094   1.088   5.783   1.388
 2051TIP3   OH2 6095   1.935   7.473   3.764
 2051TIP3    H1 6096   1.962   7.565   3.758
 2051TIP3    H2 6097   1.929   7.444   3.673
 2052TIP3   OH2 6098   1.251   1.754   1.360
 2052TIP3    H1 6099   1.296   1.705   1.429
 2052TIP3    H2 6100   1.163   1.769   1.395
 2053TIP3   OH2 6101   1.636   0.787   4.043
 2053TIP3    H1 6102   1.710   0.727   4.045
 2053TIP3    H2 6103   1.567   0.740   4.090
 2054TIP3   OH2 6104   0.366   2.250   1.430
 2054TIP3    H1 6105   0.364   2.215   1.519
 2054TIP3    H2 6106   0.287   2.215   1.388
 2055TIP3   OH2 6107   2.704   4.439   3.971
 2055TIP3    H1 6108   2.726   4.493   3.896
 2055TIP3    H2 6109   2.631   4.385   3.942
 2056TIP3   OH2 6110   4.512   7.220  -0.018
 2056TIP3    H1 6111   4.599   7.232  -0.055
 2056TIP3    H2 6112   4.527   7.199   0.074
 2057TIP3   OH2 6113   6.955   3.549   3.974
 2057TIP3    H1 6114   6.947   3.637   4.011
 2057TIP3    H2 6115   6.959   3.564   3.879
 2058TIP3   OH2 6116   6.436   1.831   6.722
 2058TIP3    H1 6117   6.358   1.780   6.746
 2058TIP3    H2 6118   6.416   1.920   6.750
 2059TIP3   OH2 6119   7.550   7.529   0.195
 2059TIP3    H1 6120   7.455   7.524   0.199
 2059TIP3    H2 6121   7.573   7.477   0.117
 2060TIP3   OH2 6122   7.815   2.880   0.552
 2060TIP3    H1 6123   7.842   2.946   0.489
 2060TIP3    H2 6124   7.897   2.848   0.590
 2061TIP3   OH2 6125   3.159   1.172   5.638
 2061TIP3    H1 6126   3.100   1.247   5.645
 2061TIP3    H2 6127   3.229   1.190   5.701
 2062TIP3   OH2 6128   3.264   7.149   5.709
 2062TIP3    H1 6129   3.353   7.113   5.710
 2062TIP3    H2 6130   3.244   7.159   5.616
 2063TIP3   OH2 6131   6.072   3.589   0.190
 2063TIP3    H1 6132   6.039   3.679   0.190
 2063TIP3    H2 6133   6.065   3.561   0.098
 2064TIP3   OH2 6134   8.017   4.074   4.565
 2064TIP3    H1 6135   8.041   4.140   4.629
 2064TIP3    H2 6136   8.082   4.004   4.577
 2065TIP3   OH2 6137   0.741   3.953   1.576
 2065TIP3    H1 6138   0.755   3.966   1.669
 2065TIP3    H2 6139   0.792   4.023   1.533
 2066TIP3   OH2 6140   3.589   1.073   4.016
 2066TIP3    H1 6141   3.570   0.983   4.040
 2066TIP3    H2 6142   3.641   1.066   3.936
 2067TIP3   OH2 6143   1.279   1.988   5.562
 2067TIP3    H1 6144   1.211   2.002   5.496
 2067TIP3    H2 6145   1.268   1.897   5.590
 2068TIP3   OH2 6146   0.528   4.496   2.525
 2068TIP3    H1 6147   0.605   4.471   2.475
 2068TIP3    H2 6148   0.457   4.445   2.486
 2069TIP3   OH2 6149   6.163   5.322   1.105
 2069TIP3    H1 6150   6.186   5.334   1.013
 2069TIP3    H2 6151   6.246   5.301   1.148
 2070TIP3   OH2 6152   2.775   3.747   4.329
 2070TIP3    H1 6153   2.680   3.740   4.336
 2070TIP3    H2 6154   2.791   3.768   4.237
 2071TIP3   OH2 6155   4.682   3.112   6.666
 2071TIP3    H1 6156   4.642   3.062   6.595
 2071TIP3    H2 6157   4.617   3.178   6.688
 2072TIP3   OH2 6158   7.186   3.874   5.432
 2072TIP3    H1 6159   7.271   3.842   5.463
 2072TIP3    H2 6160   7.194   3.969   5.431
 2073TIP3   OH2 6161   8.052   7.521   5.936
 2073TIP3    H1 6162   7.957   7.525   5.943
 2073TIP3    H2 6163   8.069   7.515   5.842
 2074TIP3   OH2 6164   0.960   4.717   0.473
 2074TIP3    H1 6165   1.018   4.777   0.426
 2074TIP3    H2 6166   1.007   4.634   0.473
 2075TIP3   OH2 6167   0.052   1.183   4.893
 2075TIP3    H1 6168   0.101   1.231   4.828
 2075TIP3    H2 6169   0.026   1.102   4.849
 2076TIP3   OH2 6170   7.546   5.568   3.754
 2076TIP3    H1 6171   7.573   5.624   3.681
 2076TIP3    H2 6172   7.523   5.484   3.713
 2077TIP3   OH2 6173   5.468   2.247   1.894
 2077TIP3    H1 6174   5.536   2.196   1.850
 2077TIP3    H2 6175   5.516   2.320   1.934
 2078TIP3   OH2 6176   0.392   3.187   6.082
 2078TIP3    H1 6177   0.393   3.180   5.987
 2078TIP3    H2 6178   0.426   3.102   6.112
 2079TIP3   OH2 6179   5.256   3.323   1.906
 2079TIP3    H1 6180   5.176   3.271   1.916
 2079TIP3    H2 6181   5.326   3.263   1.932
 2080TIP3   OH2 6182   6.223   3.495   3.467
 2080TIP3    H1 6183   6.132   3.465   3.459
 2080TIP3    H2 6184   6.246   3.477   3.558
 2081TIP3   OH2 6185   4.855   0.499   0.868
 2081TIP3    H1 6186   4.933   0.540   0.903
 2081TIP3    H2 6187   4.870   0.405   0.879
 2082TIP3   OH2 6188   2.274   1.381   5.584
 2082TIP3    H1 6189   2.315   1.303   5.621
 2082TIP3    H2 6190   2.347   1.443   5.571
 2083TIP3   OH2 6191   4.784   2.715   3.409
 2083TIP3    H1 6192   4.846   2.643   3.397
 2083TIP3    H2 6193   4.732   2.688   3.485
 2084TIP3   OH2 6194   6.860   3.312   4.424
 2084TIP3    H1 6195   6.885   3.392   4.470
 2084TIP3    H2 6196   6.776   3.332   4.383
 2085TIP3   OH2 6197   5.717   3.411   6.196
 2085TIP3    H1 6198   5.703   3.496   6.153
 2085TIP3    H2 6199   5.720   3.348   6.123
 2086TIP3   OH2 6200   3.055   0.491   6.236
 2086TIP3    H1 6201   3.055   0.401   6.204
 2086TIP3    H2 6202   3.100   0.541   6.168
 2087TIP3   OH2 6203   5.703   4.958   5.447
 2087TIP3    H1 6204   5.689   5.051   5.465
 2087TIP3    H2 6205   5.636   4.936   5.381
 2088TIP3   OH2 6206   2.362   3.776   0.008
 2088TIP3    H1 6207   2.431   3.735  -0.045
 2088TIP3    H2 6208   2.318   3.703   0.051
 2089TIP3   OH2 6209   5.259   6.721   4.291
 2089TIP3    H1 6210   5.335   6.749   4.240
 2089TIP3    H2 6211   5.216   6.656   4.236
 2090TIP3   OH2 6212   1.184   0.022   3.700
 2090TIP3    H1 6213   1.181  -0.060   3.652
 2090TIP3    H2 6214   1.125   0.080   3.652
 2091TIP3   OH2 6215   2.877   7.488   2.303
 2091TIP3    H1 6216   2.966   7.457   2.290
 2091TIP3    H2 6217   2.867   7.496   2.398
 2092TIP3   OH2 6218   7.402   3.633   5.283
 2092TIP3    H1 6219   7.478   3.580   5.260
 2092TIP3    H2 6220   7.439   3.712   5.323
 2093TIP3   OH2 6221   6.044   5.926   3.135
 2093TIP3    H1 6222   6.068   6.015   3.159
 2093TIP3    H2 6223   6.103   5.903   3.063
 2094TIP3   OH2 6224   5.066   0.155   1.772
 2094TIP3    H1 6225   5.032   0.125   1.856
 2094TIP3    H2 6226   5.126   0.226   1.794
 2095TIP3   OH2 6227  -0.007   4.224   5.924
 2095TIP3    H1 6228  -0.001   4.288   5.995
 2095TIP3    H2 6229   0.049   4.259   5.856
 2096TIP3   OH2 6230   1.152   1.361   0.125
 2096TIP3    H1 6231   1.114   1.382   0.039
 2096TIP3    H2 6232   1.167   1.266   0.122
 2097TIP3   OH2 6233   4.399   4.656   5.309
 2097TIP3    H1 6234   4.475   4.665   5.366
 2097TIP3    H2 6235   4.433   4.617   5.228
 2098TIP3   OH2 6236   0.175   1.015   4.474
 2098TIP3    H1 6237   0.218   1.038   4.392
 2098TIP3    H2 6238   0.197   1.086   4.534
 2099TIP3   OH2 6239   6.513   0.460   3.285
 2099TIP3    H1 6240   6.465   0.535   3.322
 2099TIP3    H2 6241   6.444   0.403   3.250
 2100TIP3   OH2 6242   0.067   3.677   3.852
 2100TIP3    H1 6243   0.136   3.616   3.879
 2100TIP3    H2 6244  -0.005   3.660   3.913
 2101TIP3   OH2 6245   0.476   1.431   0.435
 2101TIP3    H1 6246   0.465   1.401   0.525
 2101TIP3    H2 6247   0.445   1.359   0.381
 2102TIP3   OH2 6248   2.427   0.066   2.551
 2102TIP3    H1 6249   2.398   0.102   2.634
 2102TIP3    H2 6250   2.496   0.126   2.522
 2103TIP3   OH2 6251   4.515   0.234   1.923
 2103TIP3    H1 6252   4.562   0.289   1.985
 2103TIP3    H2 6253   4.445   0.194   1.975
 2104TIP3   OH2 6254   0.816   5.468   2.051
 2104TIP3    H1 6255   0.733   5.458   2.005
 2104TIP3    H2 6256   0.810   5.408   2.125
 2105TIP3   OH2 6257   6.249   0.736   5.485
 2105TIP3    H1 6258   6.322   0.691   5.443
 2105TIP3    H2 6259   6.171   0.692   5.451
 2106TIP3   OH2 6260   2.311   1.329   0.972
 2106TIP3    H1 6261   2.371   1.343   0.899
 2106TIP3    H2 6262   2.283   1.238   0.963
 2107TIP3   OH2 6263   5.077   4.097   2.431
 2107TIP3    H1 6264   5.167   4.077   2.453
 2107TIP3    H2 6265   5.030   4.014   2.442
 2108TIP3   OH2 6266   2.955   4.550   4.248
 2108TIP3    H1 6267   2.994   4.609   4.312
 2108TIP3    H2 6268   2.964   4.596   4.164
 2109TIP3   OH2 6269   1.722   4.865   2.225
 2109TIP3    H1 6270   1.737   4.901   2.138
 2109TIP3    H2 6271   1.628   4.875   2.239
 2110TIP3   OH2 6272   4.545   2.488   3.370
 2110TIP3    H1 6273   4.619   2.483   3.310
 2110TIP3    H2 6274   4.475   2.529   3.318
 2111TIP3   OH2 6275   5.022   6.688   0.067
 2111TIP3    H1 6276   5.049   6.609   0.114
 2111TIP3    H2 6277   5.011   6.754   0.135
 2112TIP3   OH2 6278   5.568   1.428   1.954
 2112TIP3    H1 6279   5.475   1.438   1.975
 2112TIP3    H2 6280   5.577   1.467   1.867
 2113TIP3   OH2 6281   6.748   0.980   0.167
 2113TIP3    H1 6282   6.698   1.030   0.231
 2113TIP3    H2 6283   6.831   1.026   0.160
 2114TIP3   OH2 6284   5.247   7.108   3.633
 2114TIP3    H1 6285   5.284   7.170   3.696
 2114TIP3    H2 6286   5.308   7.034   3.633
 2115TIP3   OH2 6287   6.006   2.463   0.777
 2115TIP3    H1 6288   6.069   2.406   0.732
 2115TIP3    H2 6289   6.058   2.538   0.805
 2116TIP3   OH2 6290   6.021   3.507   4.884
 2116TIP3    H1 6291   5.947   3.563   4.863
 2116TIP3    H2 6292   5.991   3.419   4.863
 2117TIP3   OH2 6293   3.863   5.850   5.247
 2117TIP3    H1 6294   3.803   5.917   5.215
 2117TIP3    H2 6295   3.950   5.881   5.221
 2118TIP3   OH2 6296   4.693   2.444   4.411
 2118TIP3    H1 6297   4.653   2.392   4.341
 2118TIP3    H2 6298   4.630   2.438   4.483
 2119TIP3   OH2 6299   7.104   2.812   0.589
 2119TIP3    H1 6300   7.186   2.828   0.636
 2119TIP3    H2 6301   7.129   2.814   0.496
 2120TIP3   OH2 6302   0.926   7.067   4.925
 2120TIP3    H1 6303   0.848   7.040   4.973
 2120TIP3    H2 6304   0.962   6.985   4.890
 2121TIP3   OH2 6305   5.680   2.324   5.646
 2121TIP3    H1 6306   5.669   2.418   5.654
 2121TIP3    H2 6307   5.594   2.292   5.620
 2122TIP3   OH2 6308   6.789   1.860   4.283
 2122TIP3    H1 6309   6.880   1.890   4.287
 2122TIP3    H2 6310   6.795   1.768   4.257
 2123TIP3   OH2 6311   4.116   1.546   6.083
 2123TIP3    H1 6312   4.158   1.613   6.029
 2123TIP3    H2 6313   4.178   1.473   6.082
 2124TIP3   OH2 6314   5.349   6.386   6.574
 2124TIP3    H1 6315   5.308   6.414   6.656
 2124TIP3    H2 6316   5.381   6.297   6.593
 2125TIP3   OH2 6317   6.380   7.642   3.059
 2125TIP3    H1 6318   6.354   7.626   2.969
 2125TIP3    H2 6319   6.440   7.717   3.053
 2126TIP3   OH2 6320   2.224   1.885   4.220
 2126TIP3    H1 6321   2.202   1.922   4.135
 2126TIP3    H2 6322   2.150   1.907   4.276
 2127TIP3   OH2 6323   8.160   7.085   6.162
 2127TIP3    H1 6324   8.125   7.126   6.083
 2127TIP3    H2 6325   8.225   7.023   6.130
 2128TIP3   OH2 6326   3.108   2.736   3.119
 2128TIP3    H1 6327   3.036   2.788   3.082
 2128TIP3    H2 6328   3.066   2.682   3.186
 2129TIP3   OH2 6329   0.904   1.610   5.863
 2129TIP3    H1 6330   0.852   1.582   5.788
 2129TIP3    H2 6331   0.854   1.682   5.902
 2130TIP3   OH2 6332   4.990   5.669   4.858
 2130TIP3    H1 6333   4.992   5.719   4.939
 2130TIP3    H2 6334   5.082   5.654   4.836
 2131TIP3   OH2 6335   4.577   2.685   2.409
 2131TIP3    H1 6336   4.490   2.655   2.384
 2131TIP3    H2 6337   4.561   2.766   2.457
 2132TIP3   OH2 6338   5.752   2.319   2.877
 2132TIP3    H1 6339   5.698   2.397   2.867
 2132TIP3    H2 6340   5.817   2.326   2.807
 2133TIP3   OH2 6341   0.141   1.428   0.598
 2133TIP3    H1 6342   0.160   1.513   0.638
 2133TIP3    H2 6343   0.218   1.374   0.617
 2134TIP3   OH2 6344   6.775   5.757   1.145
 2134TIP3    H1 6345   6.826   5.800   1.076
 2134TIP3    H2 6346   6.829   5.767   1.224
 2135TIP3   OH2 6347   7.520   2.485   0.183
 2135TIP3    H1 6348   7.533   2.392   0.205
 2135TIP3    H2 6349   7.473   2.520   0.258
 2136TIP3   OH2 6350   6.472   1.161   1.532
 2136TIP3    H1 6351   6.496   1.202   1.449
 2136TIP3    H2 6352   6.549   1.109   1.556
 2137TIP3   OH2 6353   1.314   0.925   2.483
 2137TIP3    H1 6354   1.241   0.985   2.500
 2137TIP3    H2 6355   1.288   0.876   2.405
 2138TIP3   OH2 6356   0.250   1.946   0.688
 2138TIP3    H1 6357   0.205   1.902   0.615
 2138TIP3    H2 6358   0.203   2.029   0.698
 2139TIP3   OH2 6359   0.125   1.774   5.459
 2139TIP3    H1 6360   0.139   1.691   5.506
 2139TIP3    H2 6361   0.077   1.829   5.521
 2140TIP3   OH2 6362   1.937   7.395   1.237
 2140TIP3    H1 6363   1.850   7.383   1.200
 2140TIP3    H2 6364   1.997   7.380   1.163
 2141TIP3   OH2 6365   0.337   6.935   5.913
 2141TIP3    H1 6366   0.323   7.012   5.858
 2141TIP3    H2 6367   0.281   6.867   5.876
 2142TIP3   OH2 6368   2.164   3.263   5.724
 2142TIP3    H1 6369   2.173   3.190   5.786
 2142TIP3    H2 6370   2.189   3.340   5.775
 2143TIP3   OH2 6371   2.903   4.247   2.437
 2143TIP3    H1 6372   2.874   4.169   2.389
 2143TIP3    H2 6373   2.880   4.229   2.528
 2144TIP3   OH2 6374   7.434   4.152   0.274
 2144TIP3    H1 6375   7.473   4.197   0.349
 2144TIP3    H2 6376   7.342   4.140   0.298
 2145TIP3   OH2 6377   0.413   5.041   1.227
 2145TIP3    H1 6378   0.347   5.066   1.162
 2145TIP3    H2 6379   0.460   5.122   1.246
 2146TIP3   OH2 6380   2.873   5.332   2.922
 2146TIP3    H1 6381   2.791   5.375   2.946
 2146TIP3    H2 6382   2.866   5.243   2.957
 2147TIP3   OH2 6383   5.852   2.842   4.571
 2147TIP3    H1 6384   5.822   2.753   4.588
 2147TIP3    H2 6385   5.786   2.899   4.611
 2148TIP3   OH2 6386   4.814   7.029   1.237
 2148TIP3    H1 6387   4.856   7.104   1.195
 2148TIP3    H2 6388   4.801   7.057   1.328
 2149TIP3   OH2 6389   5.880   4.332   4.470
 2149TIP3    H1 6390   5.791   4.350   4.439
 2149TIP3    H2 6391   5.898   4.402   4.533
 2150TIP3   OH2 6392   4.371   3.150   1.955
 2150TIP3    H1 6393   4.279   3.124   1.962
 2150TIP3    H2 6394   4.409   3.085   1.896
 2151TIP3   OH2 6395   5.588   5.929   5.626
 2151TIP3    H1 6396   5.622   5.893   5.544
 2151TIP3    H2 6397   5.514   5.872   5.647
 2152TIP3   OH2 6398   0.282   6.960   3.207
 2152TIP3    H1 6399   0.371   6.995   3.213
 2152TIP3    H2 6400   0.295   6.868   3.181
 2153TIP3   OH2 6401  -0.020   1.817   2.659
 2153TIP3    H1 6402   0.011   1.744   2.606
 2153TIP3    H2 6403   0.021   1.895   2.620
 2154TIP3   OH2 6404   7.269   7.153   4.034
 2154TIP3    H1 6405   7.179   7.148   4.000
 2154TIP3    H2 6406   7.283   7.068   4.077
 2155TIP3   OH2 6407   5.697   0.026   3.638
 2155TIP3    H1 6408   5.608   0.063   3.642
 2155TIP3    H2 6409   5.754   0.102   3.643
 2156TIP3   OH2 6410   7.659   4.393   6.614
 2156TIP3    H1 6411   7.648   4.299   6.630
 2156TIP3    H2 6412   7.736   4.399   6.558
 2157TIP3   OH2 6413   6.149   6.302   5.740
 2157TIP3    H1 6414   6.089   6.236   5.775
 2157TIP3    H2 6415   6.232   6.286   5.785
 2158TIP3   OH2 6416   8.117   5.209   5.635
 2158TIP3    H1 6417   8.144   5.282   5.579
 2158TIP3    H2 6418   8.034   5.237   5.673
 2159TIP3   OH2 6419   5.572   6.952   1.774
 2159TIP3    H1 6420   5.554   6.899   1.851
 2159TIP3    H2 6421   5.639   7.014   1.803
 2160TIP3   OH2 6422   5.693   1.330   2.887
 2160TIP3    H1 6423   5.601   1.315   2.909
 2160TIP3    H2 6424   5.709   1.420   2.915
 2161TIP3   OH2 6425   2.704   4.457   3.030
 2161TIP3    H1 6426   2.613   4.450   3.001
 2161TIP3    H2 6427   2.699   4.448   3.125
 2162TIP3   OH2 6428   1.977   4.184   5.986
 2162TIP3    H1 6429   1.988   4.279   5.981
 2162TIP3    H2 6430   1.917   4.171   6.060
 2163TIP3   OH2 6431   5.498   5.290   4.841
 2163TIP3    H1 6432   5.433   5.313   4.774
 2163TIP3    H2 6433   5.580   5.326   4.807
 2164TIP3   OH2 6434   7.073   2.718   0.305
 2164TIP3    H1 6435   7.019   2.645   0.272
 2164TIP3    H2 6436   7.014   2.793   0.303
 2165TIP3   OH2 6437   0.768   1.401   5.121
 2165TIP3    H1 6438   0.833   1.471   5.126
 2165TIP3    H2 6439   0.818   1.321   5.138
 2166TIP3   OH2 6440   3.891   7.444   3.754
 2166TIP3    H1 6441   3.852   7.528   3.777
 2166TIP3    H2 6442   3.902   7.399   3.838
 2167TIP3   OH2 6443   7.902   3.442   4.666
 2167TIP3    H1 6444   7.908   3.467   4.758
 2167TIP3    H2 6445   7.963   3.500   4.621
 2168TIP3   OH2 6446   8.178   7.336   2.791
 2168TIP3    H1 6447   8.256   7.349   2.736
 2168TIP3    H2 6448   8.109   7.384   2.745
 2169TIP3   OH2 6449   0.904   3.489   1.731
 2169TIP3    H1 6450   0.822   3.498   1.682
 2169TIP3    H2 6451   0.913   3.395   1.747
 2170TIP3   OH2 6452   6.196   7.501   0.930
 2170TIP3    H1 6453   6.219   7.594   0.919
 2170TIP3    H2 6454   6.209   7.484   1.023
 2171TIP3   OH2 6455   5.387   5.098   0.525
 2171TIP3    H1 6456   5.383   5.178   0.473
 2171TIP3    H2 6457   5.411   5.128   0.613
 2172TIP3   OH2 6458   6.546   7.688   3.966
 2172TIP3    H1 6459   6.525   7.718   3.877
 2172TIP3    H2 6460   6.525   7.763   4.022
 2173TIP3   OH2 6461   4.318   1.284   0.291
 2173TIP3    H1 6462   4.268   1.290   0.373
 2173TIP3    H2 6463   4.400   1.330   0.310
 2174TIP3   OH2 6464   0.009   2.890   4.839
 2174TIP3    H1 6465  -0.038   2.888   4.922
 2174TIP3    H2 6466  -0.014   2.975   4.801
 2175TIP3   OH2 6467   0.378   2.121   2.928
 2175TIP3    H1 6468   0.373   2.032   2.962
 2175TIP3    H2 6469   0.289   2.155   2.936
 2176TIP3   OH2 6470   1.411   6.761   1.294
 2176TIP3    H1 6471   1.413   6.795   1.384
 2176TIP3    H2 6472   1.325   6.721   1.285
 2177TIP3   OH2 6473   7.649   4.129   6.718
 2177TIP3    H1 6474   7.700   4.086   6.649
 2177TIP3    H2 6475   7.665   4.075   6.796
 2178TIP3   OH2 6476   6.143   7.144   5.730
 2178TIP3    H1 6477   6.058   7.114   5.763
 2178TIP3    H2 6478   6.196   7.065   5.724
 2179TIP3   OH2 6479   6.408   3.184   1.050
 2179TIP3    H1 6480   6.427   3.091   1.039
 2179TIP3    H2 6481   6.313   3.190   1.053
 2180TIP3   OH2 6482   5.269   3.441   0.518
 2180TIP3    H1 6483   5.190   3.462   0.568
 2180TIP3    H2 6484   5.237   3.422   0.429
 2181TIP3   OH2 6485   5.240   0.306   0.648
 2181TIP3    H1 6486   5.235   0.397   0.619
 2181TIP3    H2 6487   5.200   0.306   0.735
 2182TIP3   OH2 6488   3.820   3.361   6.715
 2182TIP3    H1 6489   3.763   3.389   6.787
 2182TIP3    H2 6490   3.767   3.297   6.668
 2183TIP3   OH2 6491   0.233   5.452   3.060
 2183TIP3    H1 6492   0.169   5.447   2.989
 2183TIP3    H2 6493   0.194   5.512   3.123
 2184TIP3   OH2 6494   7.229   4.684   0.066
 2184TIP3    H1 6495   7.276   4.748   0.120
 2184TIP3    H2 6496   7.170   4.737   0.013
 2185TIP3   OH2 6497   6.775   7.793   5.306
 2185TIP3    H1 6498   6.772   7.710   5.258
 2185TIP3    H2 6499   6.866   7.802   5.334
 2186TIP3   OH2 6500   4.989   4.942   6.441
 2186TIP3    H1 6501   4.968   4.863   6.391
 2186TIP3    H2 6502   4.995   4.912   6.532
 2187TIP3   OH2 6503   0.224   6.585   0.026
 2187TIP3    H1 6504   0.237   6.499  -0.013
 2187TIP3    H2 6505   0.215   6.568   0.120
 2188TIP3   OH2 6506   1.236   4.251   3.191
 2188TIP3    H1 6507   1.154   4.299   3.195
 2188TIP3    H2 6508   1.266   4.247   3.282
 2189TIP3   OH2 6509   1.320   5.863   6.646
 2189TIP3    H1 6510   1.314   5.958   6.648
 2189TIP3    H2 6511   1.374   5.841   6.722
 2190TIP3   OH2 6512   2.104   5.748   1.332
 2190TIP3    H1 6513   2.179   5.725   1.386
 2190TIP3    H2 6514   2.054   5.809   1.385
 2191TIP3   OH2 6515   6.155   6.962   1.869
 2191TIP3    H1 6516   6.130   6.970   1.961
 2191TIP3    H2 6517   6.090   6.902   1.832
 2192TIP3   OH2 6518   1.297   6.790   6.462
 2192TIP3    H1 6519   1.358   6.760   6.395
 2192TIP3    H2 6520   1.331   6.875   6.491
 2193TIP3   OH2 6521   3.445   6.020   3.947
 2193TIP3    H1 6522   3.503   6.086   3.984
 2193TIP3    H2 6523   3.416   6.058   3.864
 2194TIP3   OH2 6524   0.338   3.321   3.657
 2194TIP3    H1 6525   0.325   3.370   3.738
 2194TIP3    H2 6526   0.332   3.386   3.587
 2195TIP3   OH2 6527   2.901   7.529   2.952
 2195TIP3    H1 6528   2.949   7.564   3.027
 2195TIP3    H2 6529   2.810   7.525   2.982
 2196TIP3   OH2 6530   5.380   6.959   1.570
 2196TIP3    H1 6531   5.354   7.048   1.591
 2196TIP3    H2 6532   5.452   6.940   1.631
 2197TIP3   OH2 6533   7.459   2.373   2.797
 2197TIP3    H1 6534   7.485   2.341   2.883
 2197TIP3    H2 6535   7.373   2.412   2.811
 2198TIP3   OH2 6536   2.410   5.191   2.366
 2198TIP3    H1 6537   2.500   5.178   2.396
 2198TIP3    H2 6538   2.403   5.137   2.287
 2199TIP3   OH2 6539   2.159   3.078   3.942
 2199TIP3    H1 6540   2.083   3.083   4.000
 2199TIP3    H2 6541   2.143   3.000   3.889
 2200TIP3   OH2 6542   8.295   4.024   2.845
 2200TIP3    H1 6543   8.233   4.072   2.901
 2200TIP3    H2 6544   8.322   3.949   2.898
 2201TIP3   OH2 6545   8.097   6.452   1.422
 2201TIP3    H1 6546   8.140   6.396   1.487
 2201TIP3    H2 6547   8.062   6.391   1.357
 2202TIP3   OH2 6548   7.895   0.653   3.212
 2202TIP3    H1 6549   7.838   0.604   3.272
 2202TIP3    H2 6550   7.973   0.598   3.203
 2203TIP3   OH2 6551   4.606   7.586   3.756
 2203TIP3    H1 6552   4.525   7.536   3.749
 2203TIP3    H2 6553   4.583   7.661   3.811
 2204TIP3   OH2 6554   2.050   0.412   2.169
 2204TIP3    H1 6555   2.095   0.475   2.113
 2204TIP3    H2 6556   2.026   0.340   2.110
 2205TIP3   OH2 6557   4.456   0.959   0.046
 2205TIP3    H1 6558   4.371   0.991   0.078
 2205TIP3    H2 6559   4.491   0.907   0.118
 2206TIP3   OH2 6560   0.101   2.871   5.783
 2206TIP3    H1 6561   0.117   2.792   5.730
 2206TIP3    H2 6562   0.024   2.910   5.743
 2207TIP3   OH2 6563   7.824   4.340   0.433
 2207TIP3    H1 6564   7.818   4.382   0.348
 2207TIP3    H2 6565   7.735   4.342   0.468
 2208TIP3   OH2 6566   1.051   7.650   4.139
 2208TIP3    H1 6567   1.113   7.719   4.164
 2208TIP3    H2 6568   1.091   7.569   4.170
 2209TIP3   OH2 6569   2.701   6.454   4.040
 2209TIP3    H1 6570   2.618   6.407   4.033
 2209TIP3    H2 6571   2.748   6.411   4.111
 2210TIP3   OH2 6572   7.314   6.071   3.893
 2210TIP3    H1 6573   7.283   6.135   3.957
 2210TIP3    H2 6574   7.327   6.121   3.813
 2211TIP3   OH2 6575   6.568   3.959   6.040
 2211TIP3    H1 6576   6.575   4.036   5.983
 2211TIP3    H2 6577   6.545   3.994   6.126
 2212TIP3   OH2 6578   5.316   0.891   2.289
 2212TIP3    H1 6579   5.398   0.843   2.276
 2212TIP3    H2 6580   5.344   0.978   2.318
 2213TIP3   OH2 6581   8.209   7.387   1.747
 2213TIP3    H1 6582   8.217   7.423   1.659
 2213TIP3    H2 6583   8.163   7.304   1.734
 2214TIP3   OH2 6584   2.972   7.014   0.465
 2214TIP3    H1 6585   2.880   7.030   0.486
 2214TIP3    H2 6586   2.971   6.980   0.375
 2215TIP3   OH2 6587   6.738   3.321   0.180
 2215TIP3    H1 6588   6.672   3.298   0.115
 2215TIP3    H2 6589   6.793   3.242   0.187
 2216TIP3   OH2 6590   7.928   6.180   5.018
 2216TIP3    H1 6591   7.943   6.137   5.102
 2216TIP3    H2 6592   7.988   6.136   4.957
 2217TIP3   OH2 6593   3.408   7.664   5.905
 2217TIP3    H1 6594   3.465   7.621   5.968
 2217TIP3    H2 6595   3.466   7.685   5.831
 2218TIP3   OH2 6596   1.026   2.499   4.710
 2218TIP3    H1 6597   1.121   2.504   4.716
 2218TIP3    H2 6598   1.007   2.495   4.616
 2219TIP3   OH2 6599   0.575   0.122   1.167
 2219TIP3    H1 6600   0.581   0.094   1.259
 2219TIP3    H2 6601   0.483   0.146   1.156
 2220TIP3   OH2 6602   3.288   2.909   6.709
 2220TIP3    H1 6603   3.264   2.838   6.650
 2220TIP3    H2 6604   3.305   2.867   6.793
 2221TIP3   OH2 6605   5.124   6.488   4.195
 2221TIP3    H1 6606   5.069   6.502   4.273
 2221TIP3    H2 6607   5.062   6.465   4.126
 2222TIP3   OH2 6608   3.529   5.146   2.816
 2222TIP3    H1 6609   3.613   5.138   2.861
 2222TIP3    H2 6610   3.467   5.101   2.873
 2223TIP3   OH2 6611   5.449   1.440   3.915
 2223TIP3    H1 6612   5.448   1.354   3.874
 2223TIP3    H2 6613   5.402   1.497   3.855
 2224TIP3   OH2 6614   0.023   2.858   6.052
 2224TIP3    H1 6615   0.068   2.937   6.083
 2224TIP3    H2 6616   0.027   2.864   5.956
 2225TIP3   OH2 6617   2.512   2.611   4.950
 2225TIP3    H1 6618   2.549   2.553   4.883
 2225TIP3    H2 6619   2.554   2.583   5.032
 2226TIP3   OH2 6620   3.438   3.369   0.408
 2226TIP3    H1 6621   3.515   3.361   0.465
 2226TIP3    H2 6622   3.472   3.354   0.320
 2227TIP3   OH2 6623   0.719   0.724   0.960
 2227TIP3    H1 6624   0.624   0.726   0.965
 2227TIP3    H2 6625   0.747   0.797   1.016
 2228TIP3   OH2 6626   3.613   4.361   1.678
 2228TIP3    H1 6627   3.594   4.451   1.650
 2228TIP3    H2 6628   3.543   4.309   1.639
 2229TIP3   OH2 6629   6.539   3.993   0.255
 2229TIP3    H1 6630   6.519   4.040   0.336
 2229TIP3    H2 6631   6.622   3.949   0.272
 2230TIP3   OH2 6632   4.851   5.672   3.627
 2230TIP3    H1 6633   4.781   5.608   3.636
 2230TIP3    H2 6634   4.914   5.631   3.567
 2231TIP3   OH2 6635   1.399   0.684   0.176
 2231TIP3    H1 6636   1.319   0.737   0.185
 2231TIP3    H2 6637   1.459   0.739   0.127
 2232TIP3   OH2 6638   2.520   1.794   5.910
 2232TIP3    H1 6639   2.448   1.843   5.870
 2232TIP3    H2 6640   2.563   1.858   5.967
 2233TIP3   OH2 6641   5.436   6.186   2.674
 2233TIP3    H1 6642   5.366   6.194   2.739
 2233TIP3    H2 6643   5.399   6.225   2.594
 2234TIP3   OH2 6644   6.405   1.210   4.076
 2234TIP3    H1 6645   6.310   1.221   4.072
 2234TIP3    H2 6646   6.418   1.116   4.089
 2235TIP3   OH2 6647   1.202   0.973   3.461
 2235TIP3    H1 6648   1.280   1.019   3.490
 2235TIP3    H2 6649   1.220   0.881   3.480
 2236TIP3   OH2 6650   0.544   0.535   4.999
 2236TIP3    H1 6651   0.535   0.456   5.052
 2236TIP3    H2 6652   0.511   0.511   4.913
 2237TIP3   OH2 6653   3.000   5.852   4.625
 2237TIP3    H1 6654   3.061   5.794   4.580
 2237TIP3    H2 6655   3.019   5.939   4.591
 2238TIP3   OH2 6656   5.301   0.507   2.822
 2238TIP3    H1 6657   5.207   0.524   2.825
 2238TIP3    H2 6658   5.310   0.427   2.770
 2239TIP3   OH2 6659   3.641   5.330   3.827
 2239TIP3    H1 6660   3.569   5.390   3.846
 2239TIP3    H2 6661   3.714   5.363   3.878
 2240TIP3   OH2 6662   2.596   1.761   4.431
 2240TIP3    H1 6663   2.579   1.749   4.525
 2240TIP3    H2 6664   2.690   1.779   4.427
 2241TIP3   OH2 6665   1.061   6.464   1.049
 2241TIP3    H1 6666   0.985   6.408   1.069
 2241TIP3    H2 6667   1.024   6.540   1.004
 2242TIP3   OH2 6668   1.317   0.577   3.664
 2242TIP3    H1 6669   1.300   0.634   3.590
 2242TIP3    H2 6670   1.387   0.620   3.713
 2243TIP3   OH2 6671   1.449   7.247   2.461
 2243TIP3    H1 6672   1.538   7.242   2.427
 2243TIP3    H2 6673   1.435   7.340   2.479
 2244TIP3   OH2 6674   2.986   7.224   5.218
 2244TIP3    H1 6675   3.023   7.250   5.302
 2244TIP3    H2 6676   2.892   7.240   5.226
 2245TIP3   OH2 6677   6.634   0.960   1.328
 2245TIP3    H1 6678   6.687   0.943   1.251
 2245TIP3    H2 6679   6.589   1.042   1.309
 2246TIP3   OH2 6680   7.533   4.061   1.346
 2246TIP3    H1 6681   7.509   4.029   1.259
 2246TIP3    H2 6682   7.478   4.010   1.405
 2247TIP3   OH2 6683   2.660   3.499   2.508
 2247TIP3    H1 6684   2.755   3.491   2.505
 2247TIP3    H2 6685   2.628   3.424   2.458
 2248TIP3   OH2 6686   1.496   1.134   2.946
 2248TIP3    H1 6687   1.513   1.194   3.018
 2248TIP3    H2 6688   1.408   1.155   2.916
 2249TIP3   OH2 6689   3.190   5.715   3.968
 2249TIP3    H1 6690   3.182   5.771   3.891
 2249TIP3    H2 6691   3.153   5.631   3.939
 2250TIP3   OH2 6692   2.196   0.802   1.314
 2250TIP3    H1 6693   2.289   0.827   1.320
 2250TIP3    H2 6694   2.183   0.777   1.223
 2251TIP3   OH2 6695   1.012   3.498   2.442
 2251TIP3    H1 6696   1.075   3.507   2.371
 2251TIP3    H2 6697   0.962   3.419   2.420
 2252TIP3   OH2 6698   2.717   6.605   6.084
 2252TIP3    H1 6699   2.647   6.651   6.037
 2252TIP3    H2 6700   2.710   6.636   6.174
 2253TIP3   OH2 6701   5.342   2.930   0.346
 2253TIP3    H1 6702   5.310   2.883   0.423
 2253TIP3    H2 6703   5.399   2.867   0.301
 2254TIP3   OH2 6704   1.438   7.634   5.371
 2254TIP3    H1 6705   1.429   7.547   5.411
 2254TIP3    H2 6706   1.348   7.662   5.354
 2255TIP3   OH2 6707   3.263   4.637   1.903
 2255TIP3    H1 6708   3.178   4.640   1.946
 2255TIP3    H2 6709   3.246   4.598   1.817
 2256TIP3   OH2 6710   4.701   2.136   0.460
 2256TIP3    H1 6711   4.672   2.225   0.478
 2256TIP3    H2 6712   4.788   2.146   0.421
 2257TIP3   OH2 6713   5.171   2.407   5.634
 2257TIP3    H1 6714   5.128   2.431   5.552
 2257TIP3    H2 6715   5.234   2.478   5.650
 2258TIP3   OH2 6716   3.149   5.747   3.696
 2258TIP3    H1 6717   3.233   5.704   3.677
 2258TIP3    H2 6718   3.102   5.744   3.613
 2259TIP3   OH2 6719   2.085   2.056   4.656
 2259TIP3    H1 6720   2.158   2.102   4.697
 2259TIP3    H2 6721   2.044   2.121   4.600
 2260TIP3   OH2 6722   0.175   5.748   5.663
 2260TIP3    H1 6723   0.221   5.818   5.616
 2260TIP3    H2 6724   0.109   5.793   5.715
 2261TIP3   OH2 6725   4.329   5.170   5.032
 2261TIP3    H1 6726   4.356   5.180   5.123
 2261TIP3    H2 6727   4.356   5.252   4.990
 2262TIP3   OH2 6728   7.174   0.674   0.525
 2262TIP3    H1 6729   7.106   0.697   0.588
 2262TIP3    H2 6730   7.164   0.737   0.454
 2263TIP3   OH2 6731   3.862   3.210   0.888
 2263TIP3    H1 6732   3.950   3.234   0.859
 2263TIP3    H2 6733   3.835   3.140   0.827
 2264TIP3   OH2 6734   4.316   3.982   5.678
 2264TIP3    H1 6735   4.313   3.967   5.583
 2264TIP3    H2 6736   4.399   3.944   5.706
 2265TIP3   OH2 6737   7.226   5.824   1.012
 2265TIP3    H1 6738   7.228   5.766   0.935
 2265TIP3    H2 6739   7.318   5.837   1.035
 2266TIP3   OH2 6740   2.769   5.221   5.740
 2266TIP3    H1 6741   2.790   5.303   5.695
 2266TIP3    H2 6742   2.846   5.166   5.727
 2267TIP3   OH2 6743   4.146   7.337   4.735
 2267TIP3    H1 6744   4.213   7.272   4.757
 2267TIP3    H2 6745   4.065   7.299   4.768
 2268TIP3   OH2 6746   1.674   7.759   3.971
 2268TIP3    H1 6747   1.593   7.709   3.963
 2268TIP3    H2 6748   1.694   7.787   3.882
 2269TIP3   OH2 6749   2.502   7.678   1.034
 2269TIP3    H1 6750   2.498   7.755   1.090
 2269TIP3    H2 6751   2.418   7.678   0.987
 2270TIP3   OH2 6752   3.315   2.051   5.621
 2270TIP3    H1 6753   3.285   1.970   5.663
 2270TIP3    H2 6754   3.284   2.121   5.679
 2271TIP3   OH2 6755   0.438   6.409   3.892
 2271TIP3    H1 6756   0.417   6.324   3.931
 2271TIP3    H2 6757   0.490   6.454   3.958
 2272TIP3   OH2 6758   3.015   7.117   1.518
 2272TIP3    H1 6759   2.940   7.080   1.473
 2272TIP3    H2 6760   3.045   7.188   1.460
 2273TIP3   OH2 6761   4.245   3.124   0.541
 2273TIP3    H1 6762   4.154   3.154   0.536
 2273TIP3    H2 6763   4.250   3.076   0.624
 2274TIP3   OH2 6764   1.049   0.918   5.478
 2274TIP3    H1 6765   1.113   0.969   5.526
 2274TIP3    H2 6766   1.083   0.828   5.480
 2275TIP3   OH2 6767   2.528   3.736   2.357
 2275TIP3    H1 6768   2.493   3.825   2.366
 2275TIP3    H2 6769   2.566   3.716   2.443
 2276TIP3   OH2 6770   2.087   6.178   0.245
 2276TIP3    H1 6771   2.004   6.214   0.212
 2276TIP3    H2 6772   2.060   6.120   0.316
 2277TIP3   OH2 6773   3.298   2.258   0.866
 2277TIP3    H1 6774   3.303   2.281   0.959
 2277TIP3    H2 6775   3.388   2.261   0.836
 2278TIP3   OH2 6776   2.638   4.114   1.431
 2278TIP3    H1 6777   2.574   4.163   1.379
 2278TIP3    H2 6778   2.617   4.136   1.522
 2279TIP3   OH2 6779   5.377   3.681   1.835
 2279TIP3    H1 6780   5.439   3.754   1.835
 2279TIP3    H2 6781   5.292   3.722   1.850
 2280TIP3   OH2 6782   7.326   0.384   0.901
 2280TIP3    H1 6783   7.259   0.330   0.942
 2280TIP3    H2 6784   7.309   0.472   0.935
 2281TIP3   OH2 6785   2.619   0.426   4.462
 2281TIP3    H1 6786   2.612   0.424   4.367
 2281TIP3    H2 6787   2.671   0.504   4.481
 2282TIP3   OH2 6788   1.545   5.749   3.208
 2282TIP3    H1 6789   1.610   5.819   3.200
 2282TIP3    H2 6790   1.510   5.759   3.296
 2283TIP3   OH2 6791   5.001   7.746   4.399
 2283TIP3    H1 6792   5.001   7.759   4.305
 2283TIP3    H2 6793   5.088   7.777   4.428
 2284TIP3   OH2 6794   4.955   0.671   3.317
 2284TIP3    H1 6795   4.867   0.673   3.354
 2284TIP3    H2 6796   4.960   0.587   3.272
 2285TIP3   OH2 6797   7.939   1.929   5.270
 2285TIP3    H1 6798   7.902   1.927   5.182
 2285TIP3    H2 6799   7.868   1.963   5.325
 2286TIP3   OH2 6800   4.212   6.812   0.472
 2286TIP3    H1 6801   4.153   6.797   0.546
 2286TIP3    H2 6802   4.292   6.766   0.495
 2287TIP3   OH2 6803   3.158   1.622   3.481
 2287TIP3    H1 6804   3.112   1.630   3.564
 2287TIP3    H2 6805   3.103   1.565   3.428
 2288TIP3   OH2 6806   6.698   3.639   2.992
 2288TIP3    H1 6807   6.675   3.709   2.932
 2288TIP3    H2 6808   6.616   3.616   3.036
 2289TIP3   OH2 6809   1.482   4.300   6.351
 2289TIP3    H1 6810   1.563   4.335   6.387
 2289TIP3    H2 6811   1.502   4.283   6.259
 2290TIP3   OH2 6812   6.355   2.917   6.607
 2290TIP3    H1 6813   6.402   2.890   6.685
 2290TIP3    H2 6814   6.299   2.990   6.636
 2291TIP3   OH2 6815   5.485   4.524   2.626
 2291TIP3    H1 6816   5.562   4.521   2.683
 2291TIP3    H2 6817   5.520   4.550   2.541
 2292TIP3   OH2 6818   7.136   7.808   4.112
 2292TIP3    H1 6819   7.163   7.737   4.170
 2292TIP3    H2 6820   7.113   7.880   4.171
 2293TIP3   OH2 6821   6.885   7.813   1.391
 2293TIP3    H1 6822   6.808   7.846   1.437
 2293TIP3    H2 6823   6.850   7.757   1.322
 2294TIP3   OH2 6824   7.642   5.292   4.499
 2294TIP3    H1 6825   7.617   5.199   4.499
 2294TIP3    H2 6826   7.624   5.322   4.410
 2295TIP3   OH2 6827   5.645   1.365   3.694
 2295TIP3    H1 6828   5.582   1.295   3.712
 2295TIP3    H2 6829   5.594   1.446   3.702
 2296TIP3   OH2 6830   0.743   1.141   2.710
 2296TIP3    H1 6831   0.676   1.208   2.721
 2296TIP3    H2 6832   0.804   1.156   2.782
 2297TIP3   OH2 6833   4.017   6.422   2.578
 2297TIP3    H1 6834   3.955   6.456   2.642
 2297TIP3    H2 6835   4.103   6.437   2.618
 2298TIP3   OH2 6836   1.811   5.401   0.722
 2298TIP3    H1 6837   1.722   5.366   0.732
 2298TIP3    H2 6838   1.812   5.479   0.777
 2299TIP3   OH2 6839   7.222   4.062   2.387
 2299TIP3    H1 6840   7.289   4.095   2.448
 2299TIP3    H2 6841   7.165   4.008   2.441
 2300TIP3   OH2 6842   3.930   2.983   5.167
 2300TIP3    H1 6843   3.863   2.916   5.179
 2300TIP3    H2 6844   3.990   2.971   5.241
 2301TIP3   OH2 6845   4.088   0.948   6.448
 2301TIP3    H1 6846   4.063   0.992   6.366
 2301TIP3    H2 6847   4.183   0.939   6.443
 2302TIP3   OH2 6848   5.602   6.870   5.460
 2302TIP3    H1 6849   5.632   6.959   5.440
 2302TIP3    H2 6850   5.675   6.830   5.507
 2303TIP3   OH2 6851   3.047   2.072   1.423
 2303TIP3    H1 6852   3.024   2.042   1.511
 2303TIP3    H2 6853   3.143   2.077   1.424
 2304TIP3   OH2 6854   7.476   0.398   3.756
 2304TIP3    H1 6855   7.405   0.439   3.806
 2304TIP3    H2 6856   7.436   0.321   3.716
 2305TIP3   OH2 6857   2.373   0.084   4.289
 2305TIP3    H1 6858   2.378   0.168   4.243
 2305TIP3    H2 6859   2.464   0.055   4.294
 2306TIP3   OH2 6860   7.156   7.303   0.882
 2306TIP3    H1 6861   7.063   7.283   0.887
 2306TIP3    H2 6862   7.168   7.375   0.945
 2307TIP3   OH2 6863   7.496   6.468   0.142
 2307TIP3    H1 6864   7.549   6.530   0.192
 2307TIP3    H2 6865   7.536   6.468   0.055
 2308TIP3   OH2 6866   7.129   5.893   0.660
 2308TIP3    H1 6867   7.197   5.828   0.674
 2308TIP3    H2 6868   7.177   5.975   0.644
 2309TIP3   OH2 6869   5.328   6.845   3.382
 2309TIP3    H1 6870   5.368   6.885   3.305
 2309TIP3    H2 6871   5.323   6.752   3.360
 2310TIP3   OH2 6872   1.496   3.717   1.384
 2310TIP3    H1 6873   1.425   3.732   1.446
 2310TIP3    H2 6874   1.563   3.780   1.409
 2311TIP3   OH2 6875   1.538   1.927   0.774
 2311TIP3    H1 6876   1.534   1.848   0.828
 2311TIP3    H2 6877   1.447   1.954   0.764
 2312TIP3   OH2 6878   5.758   6.999   1.030
 2312TIP3    H1 6879   5.681   6.972   0.980
 2312TIP3    H2 6880   5.812   6.921   1.036
 2313TIP3   OH2 6881   5.293   3.950   4.350
 2313TIP3    H1 6882   5.265   4.028   4.397
 2313TIP3    H2 6883   5.389   3.953   4.351
 2314TIP3   OH2 6884   0.783   4.815   3.796
 2314TIP3    H1 6885   0.694   4.845   3.775
 2314TIP3    H2 6886   0.792   4.732   3.750
 2315TIP3   OH2 6887   1.711   2.273   1.057
 2315TIP3    H1 6888   1.695   2.367   1.046
 2315TIP3    H2 6889   1.638   2.243   1.112
 2316TIP3   OH2 6890   6.515   6.017   2.871
 2316TIP3    H1 6891   6.575   6.064   2.928
 2316TIP3    H2 6892   6.490   5.939   2.920
 2317TIP3   OH2 6893   5.307   6.710   6.762
 2317TIP3    H1 6894   5.278   6.796   6.730
 2317TIP3    H2 6895   5.227   6.658   6.769
 2318TIP3   OH2 6896   4.444   3.690   2.380
 2318TIP3    H1 6897   4.413   3.652   2.462
 2318TIP3    H2 6898   4.467   3.615   2.325
 2319TIP3   OH2 6899   3.217   1.146   6.490
 2319TIP3    H1 6900   3.145   1.190   6.444
 2319TIP3    H2 6901   3.295   1.170   6.441
 2320TIP3   OH2 6902   7.841   5.526   6.112
 2320TIP3    H1 6903   7.754   5.519   6.072
 2320TIP3    H2 6904   7.865   5.618   6.101
 2321TIP3   OH2 6905   7.220   5.930   5.558
 2321TIP3    H1 6906   7.212   5.845   5.601
 2321TIP3    H2 6907   7.130   5.955   5.538
 2322TIP3   OH2 6908   0.908   2.426   0.384
 2322TIP3    H1 6909   0.847   2.357   0.359
 2322TIP3    H2 6910   0.858   2.507   0.372
 2323TIP3   OH2 6911   4.491   2.476   5.992
 2323TIP3    H1 6912   4.422   2.409   5.987
 2323TIP3    H2 6913   4.568   2.434   5.956
 2324TIP3   OH2 6914   1.773   5.402   3.104
 2324TIP3    H1 6915   1.771   5.316   3.147
 2324TIP3    H2 6916   1.840   5.451   3.152
 2325TIP3   OH2 6917   3.308   0.810   2.154
 2325TIP3    H1 6918   3.352   0.726   2.171
 2325TIP3    H2 6919   3.215   0.789   2.156
 2326TIP3   OH2 6920   7.899   7.020   3.017
 2326TIP3    H1 6921   7.979   7.055   2.978
 2326TIP3    H2 6922   7.830   7.045   2.956
 2327TIP3   OH2 6923   7.991   5.506   6.661
 2327TIP3    H1 6924   7.975   5.414   6.643
 2327TIP3    H2 6925   7.985   5.514   6.756
 2328TIP3   OH2 6926   1.845   0.539   4.355
 2328TIP3    H1 6927   1.828   0.450   4.327
 2328TIP3    H2 6928   1.928   0.535   4.401
 2329TIP3   OH2 6929   0.330   6.247   0.140
 2329TIP3    H1 6930   0.329   6.153   0.122
 2329TIP3    H2 6931   0.345   6.253   0.235
 2330TIP3   OH2 6932   8.254   2.720   0.870
 2330TIP3    H1 6933   8.182   2.781   0.850
 2330TIP3    H2 6934   8.333   2.769   0.846
 2331TIP3   OH2 6935   1.835   6.257   0.053
 2331TIP3    H1 6936   1.854   6.198  -0.020
 2331TIP3    H2 6937   1.840   6.345   0.014
 2332TIP3   OH2 6938   0.660   3.567   1.403
 2332TIP3    H1 6939   0.676   3.587   1.495
 2332TIP3    H2 6940   0.730   3.506   1.379
 2333TIP3   OH2 6941   7.040   1.604   2.815
 2333TIP3    H1 6942   7.110   1.614   2.879
 2333TIP3    H2 6943   7.084   1.584   2.732
 2334TIP3   OH2 6944   6.298   0.887   6.466
 2334TIP3    H1 6945   6.269   0.978   6.475
 2334TIP3    H2 6946   6.288   0.849   6.553
 2335TIP3   OH2 6947   2.212   3.520   2.338
 2335TIP3    H1 6948   2.162   3.556   2.265
 2335TIP3    H2 6949   2.224   3.594   2.397
 2336TIP3   OH2 6950   1.167   6.019   4.894
 2336TIP3    H1 6951   1.131   6.020   4.805
 2336TIP3    H2 6952   1.199   5.929   4.906
 2337TIP3   OH2 6953   3.202   1.221   6.760
 2337TIP3    H1 6954   3.214   1.181   6.673
 2337TIP3    H2 6955   3.215   1.149   6.821
 2338TIP3   OH2 6956   3.493   6.276   5.213
 2338TIP3    H1 6957   3.533   6.362   5.226
 2338TIP3    H2 6958   3.399   6.294   5.202
 2339TIP3   OH2 6959   2.595   0.047   0.541
 2339TIP3    H1 6960   2.635  -0.039   0.537
 2339TIP3    H2 6961   2.537   0.043   0.618
 2340TIP3   OH2 6962   2.099   6.370   5.018
 2340TIP3    H1 6963   2.022   6.324   4.986
 2340TIP3    H2 6964   2.092   6.366   5.113
 2341TIP3   OH2 6965   7.036   0.285   0.976
 2341TIP3    H1 6966   6.984   0.341   1.034
 2341TIP3    H2 6967   7.043   0.202   1.023
 2342TIP3   OH2 6968   3.565   3.235   2.971
 2342TIP3    H1 6969   3.492   3.279   3.014
 2342TIP3    H2 6970   3.571   3.150   3.014
 2343TIP3   OH2 6971   1.688   0.668   1.039
 2343TIP3    H1 6972   1.614   0.691   1.095
 2343TIP3    H2 6973   1.738   0.750   1.032
 2344TIP3   OH2 6974   3.227   2.132   0.345
 2344TIP3    H1 6975   3.176   2.202   0.305
 2344TIP3    H2 6976   3.257   2.168   0.428
 2345TIP3   OH2 6977   1.907   2.470   1.659
 2345TIP3    H1 6978   1.966   2.430   1.595
 2345TIP3    H2 6979   1.965   2.500   1.729
 2346TIP3   OH2 6980   0.983   3.851   4.424
 2346TIP3    H1 6981   1.036   3.911   4.372
 2346TIP3    H2 6982   0.900   3.845   4.378
 2347TIP3   OH2 6983   2.574   0.468   2.004
 2347TIP3    H1 6984   2.585   0.443   2.096
 2347TIP3    H2 6985   2.606   0.558   1.999
 2348TIP3   OH2 6986   1.410   4.375   1.720
 2348TIP3    H1 6987   1.349   4.393   1.792
 2348TIP3    H2 6988   1.380   4.431   1.649
 2349TIP3   OH2 6989   6.581   0.322   2.690
 2349TIP3    H1 6990   6.548   0.253   2.633
 2349TIP3    H2 6991   6.671   0.296   2.710
 2350TIP3   OH2 6992   7.664   7.405   4.407
 2350TIP3    H1 6993   7.691   7.318   4.377
 2350TIP3    H2 6994   7.745   7.448   4.434
 2351TIP3   OH2 6995   4.358   0.523   5.965
 2351TIP3    H1 6996   4.268   0.496   5.987
 2351TIP3    H2 6997   4.359   0.617   5.980
 2352TIP3   OH2 6998   5.008   3.793   6.114
 2352TIP3    H1 6999   4.957   3.844   6.178
 2352TIP3    H2 7000   5.080   3.850   6.089
 2353TIP3   OH2 7001   0.068   2.073   3.074
 2353TIP3    H1 7002  -0.002   2.012   3.051
 2353TIP3    H2 7003   0.064   2.142   3.008
 2354TIP3   OH2 7004   1.524   6.065   4.699
 2354TIP3    H1 7005   1.511   6.009   4.622
 2354TIP3    H2 7006   1.529   6.154   4.664
 2355TIP3   OH2 7007   6.136   2.448   3.314
 2355TIP3    H1 7008   6.222   2.434   3.354
 2355TIP3    H2 7009   6.141   2.535   3.277
 2356TIP3   OH2 7010   6.286   0.120   6.635
 2356TIP3    H1 7011   6.312   0.070   6.558
 2356TIP3    H2 7012   6.367   0.131   6.685
 2357TIP3   OH2 7013   4.988   5.392   2.561
 2357TIP3    H1 7014   4.957   5.371   2.649
 2357TIP3    H2 7015   4.961   5.483   2.548
 2358TIP3   OH2 7016   4.743   5.242   5.414
 2358TIP3    H1 7017   4.656   5.257   5.451
 2358TIP3    H2 7018   4.802   5.248   5.489
 2359TIP3   OH2 7019   4.497   5.070   2.332
 2359TIP3    H1 7020   4.543   5.132   2.388
 2359TIP3    H2 7021   4.497   5.111   2.245
 2360TIP3   OH2 7022   4.406   0.168   0.893
 2360TIP3    H1 7023   4.364   0.137   0.973
 2360TIP3    H2 7024   4.377   0.259   0.885
 2361TIP3   OH2 7025   5.774   1.346   4.619
 2361TIP3    H1 7026   5.679   1.345   4.635
 2361TIP3    H2 7027   5.801   1.255   4.636
 2362TIP3   OH2 7028   1.387   6.604   4.570
 2362TIP3    H1 7029   1.465   6.591   4.624
 2362TIP3    H2 7030   1.319   6.632   4.632
 2363TIP3   OH2 7031   2.166   3.097   2.834
 2363TIP3    H1 7032   2.115   3.031   2.882
 2363TIP3    H2 7033   2.249   3.102   2.881
 2364TIP3   OH2 7034   1.222   7.158   4.702
 2364TIP3    H1 7035   1.281   7.211   4.649
 2364TIP3    H2 7036   1.173   7.106   4.639
 2365TIP3   OH2 7037   8.081   4.163   3.236
 2365TIP3    H1 7038   8.016   4.207   3.290
 2365TIP3    H2 7039   8.070   4.070   3.255
 2366TIP3   OH2 7040   6.760   7.095   1.039
 2366TIP3    H1 7041   6.817   7.141   1.101
 2366TIP3    H2 7042   6.758   7.004   1.071
 2367TIP3   OH2 7043   7.518   0.001   2.732
 2367TIP3    H1 7044   7.555  -0.025   2.648
 2367TIP3    H2 7045   7.586   0.055   2.772
 2368TIP3   OH2 7046   1.773   1.375   3.241
 2368TIP3    H1 7047   1.757   1.336   3.155
 2368TIP3    H2 7048   1.688   1.375   3.283
 2369TIP3   OH2 7049   3.290   5.924   1.695
 2369TIP3    H1 7050   3.241   5.985   1.751
 2369TIP3    H2 7051   3.367   5.900   1.747
 2370TIP3   OH2 7052   3.069   5.449   6.599
 2370TIP3    H1 7053   3.162   5.442   6.575
 2370TIP3    H2 7054   3.022   5.430   6.518
 2371TIP3   OH2 7055   8.124   2.690   2.095
 2371TIP3    H1 7056   8.172   2.748   2.154
 2371TIP3    H2 7057   8.061   2.645   2.152
 2372TIP3   OH2 7058   7.285   1.154   3.083
 2372TIP3    H1 7059   7.237   1.075   3.109
 2372TIP3    H2 7060   7.256   1.221   3.145
 2373TIP3   OH2 7061   7.969   5.923   3.056
 2373TIP3    H1 7062   8.032   5.991   3.032
 2373TIP3    H2 7063   7.930   5.897   2.973
 2374TIP3   OH2 7064   3.938   1.555   1.383
 2374TIP3    H1 7065   4.033   1.562   1.371
 2374TIP3    H2 7066   3.928   1.502   1.463
 2375TIP3   OH2 7067   1.486   4.077   4.657
 2375TIP3    H1 7068   1.552   4.037   4.713
 2375TIP3    H2 7069   1.483   4.022   4.579
 2376TIP3   OH2 7070   2.284   6.878   0.754
 2376TIP3    H1 7071   2.192   6.866   0.777
 2376TIP3    H2 7072   2.288   6.967   0.717
 2377TIP3   OH2 7073   4.710   3.777   2.413
 2377TIP3    H1 7074   4.615   3.764   2.419
 2377TIP3    H2 7075   4.723   3.820   2.328
 2378TIP3   OH2 7076   2.680   7.018   0.228
 2378TIP3    H1 7077   2.775   7.032   0.224
 2378TIP3    H2 7078   2.669   6.939   0.280
 2379TIP3   OH2 7079   1.983   5.372   0.175
 2379TIP3    H1 7080   1.929   5.427   0.120
 2379TIP3    H2 7081   2.014   5.302   0.117
 2380TIP3   OH2 7082   3.791   2.586   5.967
 2380TIP3    H1 7083   3.756   2.622   6.048
 2380TIP3    H2 7084   3.816   2.662   5.915
 2381TIP3   OH2 7085   5.643   5.652   4.777
 2381TIP3    H1 7086   5.670   5.569   4.816
 2381TIP3    H2 7087   5.703   5.665   4.703
 2382TIP3   OH2 7088   4.484   5.236   0.358
 2382TIP3    H1 7089   4.561   5.205   0.311
 2382TIP3    H2 7090   4.496   5.331   0.363
 2383TIP3   OH2 7091   3.569   0.839   5.105
 2383TIP3    H1 7092   3.499   0.830   5.170
 2383TIP3    H2 7093   3.524   0.840   5.021
 2384TIP3   OH2 7094   6.614   2.847   5.458
 2384TIP3    H1 7095   6.695   2.806   5.430
 2384TIP3    H2 7096   6.604   2.820   5.550
 2385TIP3   OH2 7097   4.047   5.976   1.232
 2385TIP3    H1 7098   4.095   5.904   1.273
 2385TIP3    H2 7099   3.956   5.961   1.256
 2386TIP3   OH2 7100   7.377   4.784   6.574
 2386TIP3    H1 7101   7.300   4.825   6.613
 2386TIP3    H2 7102   7.344   4.706   6.530
 2387TIP3   OH2 7103   5.333   5.946   1.859
 2387TIP3    H1 7104   5.298   5.918   1.774
 2387TIP3    H2 7105   5.420   5.907   1.864
 2388TIP3   OH2 7106   8.156   6.199   0.418
 2388TIP3    H1 7107   8.124   6.269   0.476
 2388TIP3    H2 7108   8.123   6.223   0.331
 2389TIP3   OH2 7109   4.311   4.546   6.385
 2389TIP3    H1 7110   4.340   4.498   6.462
 2389TIP3    H2 7111   4.229   4.588   6.411
 2390TIP3   OH2 7112   4.942   2.213   3.628
 2390TIP3    H1 7113   5.019   2.172   3.667
 2390TIP3    H2 7114   4.877   2.213   3.699
 2391TIP3   OH2 7115   7.920   6.527   4.624
 2391TIP3    H1 7116   7.867   6.449   4.608
 2391TIP3    H2 7117   8.006   6.505   4.587
 2392TIP3   OH2 7118   3.941   4.058   5.726
 2392TIP3    H1 7119   4.000   4.124   5.761
 2392TIP3    H2 7120   3.936   4.078   5.632
 2393TIP3   OH2 7121   7.228   1.036   0.217
 2393TIP3    H1 7122   7.297   1.038   0.151
 2393TIP3    H2 7123   7.273   1.052   0.300
 2394TIP3   OH2 7124   5.168   0.724   5.165
 2394TIP3    H1 7125   5.160   0.819   5.174
 2394TIP3    H2 7126   5.083   0.697   5.130
 2395TIP3   OH2 7127   3.572   3.007   5.458
 2395TIP3    H1 7128   3.660   2.989   5.426
 2395TIP3    H2 7129   3.536   2.921   5.478
 2396TIP3   OH2 7130   6.364   7.471   2.815
 2396TIP3    H1 7131   6.430   7.412   2.778
 2396TIP3    H2 7132   6.284   7.419   2.819
 2397TIP3   OH2 7133   2.640   7.296   0.700
 2397TIP3    H1 7134   2.703   7.344   0.755
 2397TIP3    H2 7135   2.570   7.271   0.760
 2398TIP3   OH2 7136   0.363   6.334   1.830
 2398TIP3    H1 7137   0.275   6.297   1.817
 2398TIP3    H2 7138   0.393   6.355   1.741
 2399TIP3   OH2 7139   0.426   3.126   1.708
 2399TIP3    H1 7140   0.333   3.126   1.730
 2399TIP3    H2 7141   0.446   3.217   1.687
 2400TIP3   OH2 7142   7.418   1.481   0.551
 2400TIP3    H1 7143   7.407   1.561   0.499
 2400TIP3    H2 7144   7.346   1.482   0.613
 2401TIP3   OH2 7145   2.719   5.304   1.352
 2401TIP3    H1 7146   2.808   5.337   1.350
 2401TIP3    H2 7147   2.699   5.296   1.446
 2402TIP3   OH2 7148   2.252   4.242   3.147
 2402TIP3    H1 7149   2.176   4.243   3.088
 2402TIP3    H2 7150   2.214   4.246   3.235
 2403TIP3   OH2 7151   0.240   2.591   6.013
 2403TIP3    H1 7152   0.152   2.583   5.975
 2403TIP3    H2 7153   0.228   2.570   6.106
 2404TIP3   OH2 7154   7.712   3.584   3.535
 2404TIP3    H1 7155   7.648   3.568   3.466
 2404TIP3    H2 7156   7.732   3.496   3.569
 2405TIP3   OH2 7157   7.510   2.469   4.802
 2405TIP3    H1 7158   7.547   2.460   4.890
 2405TIP3    H2 7159   7.552   2.546   4.765
 2406TIP3   OH2 7160   7.767   4.599   1.493
 2406TIP3    H1 7161   7.746   4.551   1.573
 2406TIP3    H2 7162   7.721   4.682   1.503
 2407TIP3   OH2 7163   1.474   2.940   6.430
 2407TIP3    H1 7164   1.403   2.941   6.495
 2407TIP3    H2 7165   1.553   2.931   6.483
 2408TIP3   OH2 7166   3.291   3.466   1.726
 2408TIP3    H1 7167   3.311   3.465   1.633
 2408TIP3    H2 7168   3.294   3.559   1.751
 2409TIP3   OH2 7169   5.347   0.580   5.036
 2409TIP3    H1 7170   5.271   0.634   5.059
 2409TIP3    H2 7171   5.420   0.622   5.081
 2410TIP3   OH2 7172   1.822   6.173   1.918
 2410TIP3    H1 7173   1.910   6.134   1.923
 2410TIP3    H2 7174   1.809   6.213   2.003
 2411TIP3   OH2 7175   6.409   6.036   4.529
 2411TIP3    H1 7176   6.465   5.963   4.557
 2411TIP3    H2 7177   6.321   6.000   4.525
 2412TIP3   OH2 7178   4.618   0.326   0.747
 2412TIP3    H1 7179   4.602   0.264   0.677
 2412TIP3    H2 7180   4.604   0.276   0.828
 2413TIP3   OH2 7181   4.395   2.825   3.704
 2413TIP3    H1 7182   4.356   2.910   3.686
 2413TIP3    H2 7183   4.485   2.845   3.730
 2414TIP3   OH2 7184   1.463   6.284   3.600
 2414TIP3    H1 7185   1.419   6.366   3.623
 2414TIP3    H2 7186   1.396   6.232   3.558
 2415TIP3   OH2 7187   1.168   5.118   2.541
 2415TIP3    H1 7188   1.218   5.178   2.486
 2415TIP3    H2 7189   1.097   5.171   2.577
 2416TIP3   OH2 7190   3.700   3.492   3.304
 2416TIP3    H1 7191   3.704   3.509   3.210
 2416TIP3    H2 7192   3.615   3.450   3.317
 2417TIP3   OH2 7193   2.881   5.417   4.147
 2417TIP3    H1 7194   2.814   5.438   4.212
 2417TIP3    H2 7195   2.934   5.497   4.140
 2418TIP3   OH2 7196   7.776   3.860   5.745
 2418TIP3    H1 7197   7.690   3.902   5.738
 2418TIP3    H2 7198   7.759   3.778   5.791
 2419TIP3   OH2 7199   7.817   1.926   5.834
 2419TIP3    H1 7200   7.742   1.868   5.845
 2419TIP3    H2 7201   7.884   1.889   5.891
 2420TIP3   OH2 7202   1.551   7.585   6.020
 2420TIP3    H1 7203   1.565   7.512   6.080
 2420TIP3    H2 7204   1.598   7.561   5.940
 2421TIP3   OH2 7205   3.020   4.261   1.041
 2421TIP3    H1 7206   3.029   4.290   0.950
 2421TIP3    H2 7207   2.926   4.254   1.055
 2422TIP3   OH2 7208   4.750   4.792   4.094
 2422TIP3    H1 7209   4.781   4.789   4.184
 2422TIP3    H2 7210   4.797   4.865   4.054
 2423TIP3   OH2 7211   5.901   5.341   2.544
 2423TIP3    H1 7212   5.887   5.247   2.556
 2423TIP3    H2 7213   5.997   5.351   2.544
 2424TIP3   OH2 7214   7.134   1.879   5.908
 2424TIP3    H1 7215   7.111   1.934   5.983
 2424TIP3    H2 7216   7.093   1.795   5.926
 2425TIP3   OH2 7217   2.246   5.659   5.967
 2425TIP3    H1 7218   2.332   5.684   5.933
 2425TIP3    H2 7219   2.184   5.699   5.906
 2426TIP3   OH2 7220   1.343   4.850   5.505
 2426TIP3    H1 7221   1.338   4.777   5.567
 2426TIP3    H2 7222   1.301   4.923   5.550
 2427TIP3   OH2 7223   2.355   7.570   1.259
 2427TIP3    H1 7224   2.313   7.635   1.316
 2427TIP3    H2 7225   2.326   7.594   1.171
 2428TIP3   OH2 7226   2.426   5.193   3.101
 2428TIP3    H1 7227   2.383   5.266   3.058
 2428TIP3    H2 7228   2.445   5.131   3.031
 2429TIP3   OH2 7229   4.220   4.252   1.521
 2429TIP3    H1 7230   4.269   4.180   1.481
 2429TIP3    H2 7231   4.186   4.302   1.446
 2430TIP3   OH2 7232   0.205   3.306   3.246
 2430TIP3    H1 7233   0.292   3.299   3.286
 2430TIP3    H2 7234   0.197   3.226   3.193
 2431TIP3   OH2 7235   0.749   5.084   3.930
 2431TIP3    H1 7236   0.794   5.004   3.957
 2431TIP3    H2 7237   0.725   5.068   3.838
 2432TIP3   OH2 7238   4.547   5.236   3.533
 2432TIP3    H1 7239   4.460   5.241   3.573
 2432TIP3    H2 7240   4.537   5.171   3.463
 2433TIP3   OH2 7241   8.116   7.150   3.604
 2433TIP3    H1 7242   8.024   7.135   3.584
 2433TIP3    H2 7243   8.161   7.074   3.566
 2434TIP3   OH2 7244   3.478   3.952   1.232
 2434TIP3    H1 7245   3.410   3.885   1.224
 2434TIP3    H2 7246   3.478   3.996   1.147
 2435TIP3   OH2 7247   6.610   5.784   0.601
 2435TIP3    H1 7248   6.703   5.803   0.613
 2435TIP3    H2 7249   6.580   5.758   0.688
 2436TIP3   OH2 7250   6.281   0.242   4.132
 2436TIP3    H1 7251   6.295   0.224   4.039
 2436TIP3    H2 7252   6.360   0.287   4.160
 2437TIP3   OH2 7253   8.265   6.188   2.680
 2437TIP3    H1 7254   8.310   6.266   2.713
 2437TIP3    H2 7255   8.181   6.221   2.649
 2438TIP3   OH2 7256   5.740   4.531   5.545
 2438TIP3    H1 7257   5.822   4.578   5.529
 2438TIP3    H2 7258   5.709   4.565   5.629
 2439TIP3   OH2 7259   7.839   5.295   5.708
 2439TIP3    H1 7260   7.872   5.380   5.678
 2439TIP3    H2 7261   7.759   5.316   5.756
 2440TIP3   OH2 7262   6.745   5.784   4.772
 2440TIP3    H1 7263   6.762   5.845   4.844
 2440TIP3    H2 7264   6.751   5.838   4.693
 2441TIP3   OH2 7265   6.630   1.247   3.210
 2441TIP3    H1 7266   6.634   1.288   3.296
 2441TIP3    H2 7267   6.546   1.199   3.210
 2442TIP3   OH2 7268   1.247   0.287   0.938
 2442TIP3    H1 7269   1.187   0.217   0.913
 2442TIP3    H2 7270   1.324   0.275   0.882
 2443TIP3   OH2 7271   5.849   2.010   2.788
 2443TIP3    H1 7272   5.834   1.976   2.700
 2443TIP3    H2 7273   5.874   2.101   2.774
 2444TIP3   OH2 7274   2.926   0.156   0.300
 2444TIP3    H1 7275   2.862   0.203   0.246
 2444TIP3    H2 7276   2.886   0.071   0.316
 2445TIP3   OH2 7277   5.051   2.219   6.404
 2445TIP3    H1 7278   5.032   2.249   6.493
 2445TIP3    H2 7279   4.974   2.169   6.378
 2446TIP3   OH2 7280   2.377   7.514   3.699
 2446TIP3    H1 7281   2.350   7.521   3.790
 2446TIP3    H2 7282   2.465   7.552   3.697
 2447TIP3   OH2 7283   7.519   7.437   4.164
 2447TIP3    H1 7284   7.498   7.529   4.182
 2447TIP3    H2 7285   7.556   7.404   4.245
 2448TIP3   OH2 7286   7.165   5.370   0.594
 2448TIP3    H1 7287   7.254   5.359   0.628
 2448TIP3    H2 7288   7.173   5.362   0.499
 2449TIP3   OH2 7289   3.496   1.494   5.412
 2449TIP3    H1 7290   3.561   1.550   5.454
 2449TIP3    H2 7291   3.536   1.407   5.412
 2450TIP3   OH2 7292   3.742   0.590   5.181
 2450TIP3    H1 7293   3.688   0.667   5.160
 2450TIP3    H2 7294   3.689   0.539   5.242
 2451TIP3   OH2 7295   0.607   3.826   2.971
 2451TIP3    H1 7296   0.629   3.868   3.054
 2451TIP3    H2 7297   0.642   3.885   2.905
 2452TIP3   OH2 7298   7.783   1.347   5.369
 2452TIP3    H1 7299   7.812   1.403   5.297
 2452TIP3    H2 7300   7.754   1.408   5.437
 2453TIP3   OH2 7301   0.975   2.363   2.828
 2453TIP3    H1 7302   1.042   2.402   2.885
 2453TIP3    H2 7303   0.945   2.436   2.774
 2454TIP3   OH2 7304   0.251   4.380   2.735
 2454TIP3    H1 7305   0.230   4.294   2.700
 2454TIP3    H2 7306   0.302   4.422   2.666
 2455TIP3   OH2 7307   7.667   2.909   5.287
 2455TIP3    H1 7308   7.633   2.998   5.281
 2455TIP3    H2 7309   7.626   2.873   5.366
 2456TIP3   OH2 7310   1.116   6.173   1.555
 2456TIP3    H1 7311   1.142   6.220   1.475
 2456TIP3    H2 7312   1.179   6.201   1.621
 2457TIP3   OH2 7313   0.141   5.378   5.336
 2457TIP3    H1 7314   0.147   5.314   5.407
 2457TIP3    H2 7315   0.133   5.324   5.257
 2458TIP3   OH2 7316   5.457   1.201   3.204
 2458TIP3    H1 7317   5.446   1.222   3.111
 2458TIP3    H2 7318   5.453   1.286   3.248
 2459TIP3   OH2 7319   1.567   3.813   5.815
 2459TIP3    H1 7320   1.565   3.881   5.882
 2459TIP3    H2 7321   1.599   3.735   5.861
 2460TIP3   OH2 7322   1.431   5.879   0.903
 2460TIP3    H1 7323   1.457   5.865   0.994
 2460TIP3    H2 7324   1.421   5.974   0.895
 2461TIP3   OH2 7325   2.183   3.279   2.639
 2461TIP3    H1 7326   2.163   3.215   2.706
 2461TIP3    H2 7327   2.276   3.301   2.654
 2462TIP3   OH2 7328   5.459   6.796   2.877
 2462TIP3    H1 7329   5.553   6.779   2.889
 2462TIP3    H2 7330   5.418   6.756   2.954
 2463TIP3   OH2 7331   0.932   6.188   6.642
 2463TIP3    H1 7332   0.955   6.272   6.604
 2463TIP3    H2 7333   0.837   6.192   6.655
 2464TIP3   OH2 7334   3.669   5.091   6.082
 2464TIP3    H1 7335   3.637   5.173   6.120
 2464TIP3    H2 7336   3.759   5.111   6.055
 2465TIP3   OH2 7337   1.975   1.037   3.383
 2465TIP3    H1 7338   1.891   1.075   3.406
 2465TIP3    H2 7339   2.034   1.065   3.453
 2466TIP3   OH2 7340   0.516   3.348   1.549
 2466TIP3    H1 7341   0.583   3.390   1.495
 2466TIP3    H2 7342   0.488   3.272   1.497
 2467TIP3   OH2 7343   3.540   3.125   5.205
 2467TIP3    H1 7344   3.549   3.109   5.299
 2467TIP3    H2 7345   3.498   3.211   5.200
 2468TIP3   OH2 7346   5.607   4.460   4.754
 2468TIP3    H1 7347   5.689   4.413   4.768
 2468TIP3    H2 7348   5.592   4.455   4.660
 2469TIP3   OH2 7349   6.723   1.261   4.044
 2469TIP3    H1 7350   6.685   1.197   4.103
 2469TIP3    H2 7351   6.802   1.219   4.009
 2470TIP3   OH2 7352   6.129   6.540   1.094
 2470TIP3    H1 7353   6.101   6.453   1.121
 2470TIP3    H2 7354   6.143   6.588   1.176
 2471TIP3   OH2 7355   1.014   0.219   6.716
 2471TIP3    H1 7356   1.021   0.125   6.700
 2471TIP3    H2 7357   1.027   0.259   6.630
 2472TIP3   OH2 7358   1.932   3.579   3.530
 2472TIP3    H1 7359   1.972   3.498   3.498
 2472TIP3    H2 7360   1.904   3.625   3.451
 2473TIP3   OH2 7361   5.216   6.634   5.978
 2473TIP3    H1 7362   5.309   6.622   5.960
 2473TIP3    H2 7363   5.213   6.680   6.061
 2474TIP3   OH2 7364   4.010   6.295   2.008
 2474TIP3    H1 7365   4.047   6.247   2.082
 2474TIP3    H2 7366   4.082   6.302   1.946
 2475TIP3   OH2 7367   4.778   2.818   0.505
 2475TIP3    H1 7368   4.868   2.798   0.531
 2475TIP3    H2 7369   4.725   2.761   0.561
 2476TIP3   OH2 7370   4.798   4.842   1.934
 2476TIP3    H1 7371   4.822   4.788   2.009
 2476TIP3    H2 7372   4.731   4.791   1.888
 2477TIP3   OH2 7373   7.399   0.265   4.269
 2477TIP3    H1 7374   7.330   0.251   4.334
 2477TIP3    H2 7375   7.358   0.240   4.186
 2478TIP3   OH2 7376   3.051   4.591   0.490
 2478TIP3    H1 7377   3.147   4.583   0.487
 2478TIP3    H2 7378   3.033   4.631   0.575
 2479TIP3   OH2 7379   7.918   2.654   4.657
 2479TIP3    H1 7380   7.947   2.742   4.632
 2479TIP3    H2 7381   7.853   2.669   4.726
 2480TIP3   OH2 7382   6.880   7.428   6.140
 2480TIP3    H1 7383   6.833   7.491   6.086
 2480TIP3    H2 7384   6.970   7.460   6.142
 2481TIP3   OH2 7385   6.294   2.078   3.295
 2481TIP3    H1 7386   6.315   1.995   3.250
 2481TIP3    H2 7387   6.292   2.054   3.388
 2482TIP3   OH2 7388   3.967   4.542   2.990
 2482TIP3    H1 7389   4.052   4.552   2.948
 2482TIP3    H2 7390   3.936   4.456   2.962
 2483TIP3   OH2 7391   2.659   0.994   1.716
 2483TIP3    H1 7392   2.750   0.965   1.721
 2483TIP3    H2 7393   2.665   1.086   1.691
 2484TIP3   OH2 7394   4.246   4.647   0.044
 2484TIP3    H1 7395   4.334   4.684   0.033
 2484TIP3    H2 7396   4.261   4.562   0.085
 2485TIP3   OH2 7397   3.017   6.918   4.439
 2485TIP3    H1 7398   2.934   6.892   4.480
 2485TIP3    H2 7399   3.035   7.005   4.475
 2486TIP3   OH2 7400   8.234   4.480   3.289
 2486TIP3    H1 7401   8.311   4.461   3.235
 2486TIP3    H2 7402   8.263   4.462   3.379
 2487TIP3   OH2 7403   8.222   4.415   2.584
 2487TIP3    H1 7404   8.245   4.341   2.527
 2487TIP3    H2 7405   8.245   4.384   2.672
 2488TIP3   OH2 7406   2.996   0.741  -0.020
 2488TIP3    H1 7407   3.041   0.788  -0.089
 2488TIP3    H2 7408   3.066   0.713   0.040
 2489TIP3   OH2 7409   3.689   5.564   6.092
 2489TIP3    H1 7410   3.650   5.568   6.005
 2489TIP3    H2 7411   3.781   5.541   6.077
 2490TIP3   OH2 7412   5.386   0.338   2.599
 2490TIP3    H1 7413   5.480   0.339   2.583
 2490TIP3    H2 7414   5.349   0.306   2.516
 2491TIP3   OH2 7415   0.811   3.340   4.811
 2491TIP3    H1 7416   0.802   3.246   4.794
 2491TIP3    H2 7417   0.733   3.379   4.771
 2492TIP3   OH2 7418   0.639   1.438   1.714
 2492TIP3    H1 7419   0.573   1.371   1.698
 2492TIP3    H2 7420   0.711   1.391   1.755
 2493TIP3   OH2 7421   4.532   2.382   3.631
 2493TIP3    H1 7422   4.518   2.425   3.547
 2493TIP3    H2 7423   4.446   2.377   3.671
 2494TIP3   OH2 7424   5.375   6.716   0.294
 2494TIP3    H1 7425   5.451   6.679   0.339
 2494TIP3    H2 7426   5.307   6.721   0.361
 2495TIP3   OH2 7427   3.555   4.757   1.085
 2495TIP3    H1 7428   3.490   4.707   1.135
 2495TIP3    H2 7429   3.612   4.690   1.047
 2496TIP3   OH2 7430   6.545   2.599   6.220
 2496TIP3    H1 7431   6.489   2.556   6.285
 2496TIP3    H2 7432   6.629   2.555   6.227
 2497TIP3   OH2 7433   2.537   4.237   3.297
 2497TIP3    H1 7434   2.451   4.248   3.339
 2497TIP3    H2 7435   2.563   4.326   3.274
 2498TIP3   OH2 7436   2.724   7.478   3.245
 2498TIP3    H1 7437   2.761   7.552   3.293
 2498TIP3    H2 7438   2.635   7.469   3.280
 2499TIP3   OH2 7439   5.535   2.374   5.920
 2499TIP3    H1 7440   5.450   2.380   5.965
 2499TIP3    H2 7441   5.565   2.285   5.937
 2500TIP3   OH2 7442   5.822   5.867   2.359
 2500TIP3    H1 7443   5.895   5.928   2.354
 2500TIP3    H2 7444   5.824   5.820   2.276
 2501TIP3   OH2 7445   2.778   2.809   1.277
 2501TIP3    H1 7446   2.686   2.792   1.298
 2501TIP3    H2 7447   2.816   2.722   1.263
 2502TIP3   OH2 7448   0.070   3.840   2.167
 2502TIP3    H1 7449   0.090   3.848   2.261
 2502TIP3    H2 7450   0.085   3.928   2.132
 2503TIP3   OH2 7451   7.843   3.114   6.627
 2503TIP3    H1 7452   7.857   3.020   6.642
 2503TIP3    H2 7453   7.920   3.156   6.664
 2504TIP3   OH2 7454   0.882   1.772   6.215
 2504TIP3    H1 7455   0.938   1.826   6.271
 2504TIP3    H2 7456   0.902   1.801   6.126
 2505TIP3   OH2 7457   5.466   2.261   1.601
 2505TIP3    H1 7458   5.451   2.344   1.555
 2505TIP3    H2 7459   5.392   2.254   1.662
 2506TIP3   OH2 7460   0.728   6.239   4.108
 2506TIP3    H1 7461   0.711   6.297   4.182
 2506TIP3    H2 7462   0.724   6.151   4.146
 2507TIP3   OH2 7463   1.021   4.321   3.663
 2507TIP3    H1 7464   1.092   4.320   3.599
 2507TIP3    H2 7465   0.944   4.294   3.614
 2508TIP3   OH2 7466   2.248   5.084   6.053
 2508TIP3    H1 7467   2.287   5.063   5.968
 2508TIP3    H2 7468   2.233   4.998   6.094
 2509TIP3   OH2 7469   4.011   1.861   1.397
 2509TIP3    H1 7470   4.041   1.771   1.386
 2509TIP3    H2 7471   3.992   1.891   1.308
 2510TIP3   OH2 7472   2.449   1.116   4.282
 2510TIP3    H1 7473   2.403   1.119   4.366
 2510TIP3    H2 7474   2.411   1.042   4.236
 2511TIP3   OH2 7475   2.101   2.822   3.859
 2511TIP3    H1 7476   2.150   2.788   3.785
 2511TIP3    H2 7477   2.010   2.794   3.843
 2512TIP3   OH2 7478   6.491   3.815   1.935
 2512TIP3    H1 7479   6.538   3.733   1.925
 2512TIP3    H2 7480   6.399   3.792   1.924
 2513TIP3   OH2 7481   0.019   6.125   3.302
 2513TIP3    H1 7482   0.082   6.057   3.279
 2513TIP3    H2 7483  -0.037   6.133   3.225
 2514TIP3   OH2 7484   7.695   0.142   3.049
 2514TIP3    H1 7485   7.663   0.229   3.075
 2514TIP3    H2 7486   7.728   0.155   2.960
 2515TIP3   OH2 7487   3.867   1.937   5.106
 2515TIP3    H1 7488   3.846   1.846   5.085
 2515TIP3    H2 7489   3.962   1.935   5.123
 2516TIP3   OH2 7490   4.048   2.708   2.143
 2516TIP3    H1 7491   4.083   2.743   2.060
 2516TIP3    H2 7492   4.026   2.786   2.194
 2517TIP3   OH2 7493   8.132   6.142   3.064
 2517TIP3    H1 7494   8.072   6.199   3.017
 2517TIP3    H2 7495   8.219   6.166   3.032
 2518TIP3   OH2 7496   0.470   5.816   0.580
 2518TIP3    H1 7497   0.375   5.822   0.569
 2518TIP3    H2 7498   0.493   5.896   0.628
 2519TIP3   OH2 7499   5.269   0.404   3.186
 2519TIP3    H1 7500   5.336   0.459   3.226
 2519TIP3    H2 7501   5.314   0.360   3.114
 2520TIP3   OH2 7502   4.537   4.132   3.896
 2520TIP3    H1 7503   4.459   4.129   3.842
 2520TIP3    H2 7504   4.514   4.083   3.975
 2521TIP3   OH2 7505   0.448   7.150   4.112
 2521TIP3    H1 7506   0.465   7.206   4.036
 2521TIP3    H2 7507   0.376   7.094   4.085
 2522TIP3   OH2 7508   2.147   7.665   1.885
 2522TIP3    H1 7509   2.120   7.757   1.894
 2522TIP3    H2 7510   2.237   7.664   1.918
 2523TIP3   OH2 7511   5.766   6.755   2.531
 2523TIP3    H1 7512   5.807   6.804   2.602
 2523TIP3    H2 7513   5.823   6.679   2.517
 2524TIP3   OH2 7514   3.200   4.788   5.635
 2524TIP3    H1 7515   3.255   4.736   5.577
 2524TIP3    H2 7516   3.189   4.872   5.590
 2525TIP3   OH2 7517   0.776   2.475   5.304
 2525TIP3    H1 7518   0.831   2.484   5.225
 2525TIP3    H2 7519   0.827   2.516   5.373
 2526TIP3   OH2 7520   0.135   6.316   1.652
 2526TIP3    H1 7521   0.149   6.390   1.712
 2526TIP3    H2 7522   0.048   6.330   1.616
 2527TIP3   OH2 7523   4.508   2.079   5.253
 2527TIP3    H1 7524   4.558   1.999   5.269
 2527TIP3    H2 7525   4.458   2.060   5.174
 2528TIP3   OH2 7526   0.677   4.703   5.847
 2528TIP3    H1 7527   0.729   4.707   5.767
 2528TIP3    H2 7528   0.601   4.759   5.829
 2529TIP3   OH2 7529   6.421   2.310   2.199
 2529TIP3    H1 7530   6.369   2.378   2.156
 2529TIP3    H2 7531   6.488   2.357   2.248
 2530TIP3   OH2 7532   5.769  -0.013   4.945
 2530TIP3    H1 7533   5.857  -0.005   4.907
 2530TIP3    H2 7534   5.722   0.063   4.911
 2531TIP3   OH2 7535   0.011   5.491   5.871
 2531TIP3    H1 7536  -0.038   5.433   5.929
 2531TIP3    H2 7537   0.097   5.499   5.911
 2532TIP3   OH2 7538   3.817   6.212   2.980
 2532TIP3    H1 7539   3.820   6.306   2.993
 2532TIP3    H2 7540   3.907   6.182   2.995
 2533TIP3   OH2 7541   1.249   3.702   4.470
 2533TIP3    H1 7542   1.213   3.716   4.382
 2533TIP3    H2 7543   1.173   3.709   4.528
 2534TIP3   OH2 7544   0.362   4.259   0.779
 2534TIP3    H1 7545   0.406   4.195   0.723
 2534TIP3    H2 7546   0.430   4.291   0.838
 2535TIP3   OH2 7547   6.514   5.392   3.621
 2535TIP3    H1 7548   6.549   5.477   3.593
 2535TIP3    H2 7549   6.541   5.384   3.712
 2536TIP3   OH2 7550   7.855   1.429   2.685
 2536TIP3    H1 7551   7.761   1.413   2.675
 2536TIP3    H2 7552   7.861   1.515   2.727
 2537TIP3   OH2 7553   1.057   7.506   5.695
 2537TIP3    H1 7554   0.996   7.464   5.755
 2537TIP3    H2 7555   1.037   7.468   5.610
 2538TIP3   OH2 7556   5.568   5.064   0.138
 2538TIP3    H1 7557   5.488   5.014   0.157
 2538TIP3    H2 7558   5.633   4.997   0.117
 2539TIP3   OH2 7559   1.254   2.445   1.902
 2539TIP3    H1 7560   1.249   2.539   1.886
 2539TIP3    H2 7561   1.259   2.437   1.997
 2540TIP3   OH2 7562   1.135   4.509   4.490
 2540TIP3    H1 7563   1.221   4.473   4.510
 2540TIP3    H2 7564   1.093   4.444   4.435
 2541TIP3   OH2 7565   0.848   4.208   4.115
 2541TIP3    H1 7566   0.778   4.241   4.171
 2541TIP3    H2 7567   0.805   4.183   4.033
 2542TIP3   OH2 7568   0.695   1.044   0.440
 2542TIP3    H1 7569   0.781   1.007   0.461
 2542TIP3    H2 7570   0.682   1.112   0.506
 2543TIP3   OH2 7571   1.700   4.558   0.399
 2543TIP3    H1 7572   1.634   4.564   0.468
 2543TIP3    H2 7573   1.671   4.620   0.332
 2544TIP3   OH2 7574   1.177   1.945   2.208
 2544TIP3    H1 7575   1.250   1.888   2.233
 2544TIP3    H2 7576   1.213   2.033   2.213
 2545TIP3   OH2 7577   3.547   1.563   1.723
 2545TIP3    H1 7578   3.575   1.654   1.713
 2545TIP3    H2 7579   3.622   1.519   1.763
 2546TIP3   OH2 7580   7.276   2.284   5.653
 2546TIP3    H1 7581   7.181   2.288   5.659
 2546TIP3    H2 7582   7.302   2.223   5.722
 2547TIP3   OH2 7583   7.533   6.137   2.466
 2547TIP3    H1 7584   7.475   6.088   2.523
 2547TIP3    H2 7585   7.573   6.203   2.523
 2548TIP3   OH2 7586   1.272   4.408   4.929
 2548TIP3    H1 7587   1.292   4.329   4.880
 2548TIP3    H2 7588   1.227   4.378   5.007
 2549TIP3   OH2 7589   5.771   7.753   6.670
 2549TIP3    H1 7590   5.847   7.743   6.728
 2549TIP3    H2 7591   5.800   7.717   6.586
 2550TIP3   OH2 7592   4.115   1.320   6.414
 2550TIP3    H1 7593   4.186   1.312   6.350
 2550TIP3    H2 7594   4.054   1.250   6.390
 2551TIP3   OH2 7595   6.245   4.781   4.455
 2551TIP3    H1 7596   6.237   4.870   4.419
 2551TIP3    H2 7597   6.263   4.795   4.548
 2552TIP3   OH2 7598   0.915   0.960   0.948
 2552TIP3    H1 7599   0.941   1.023   1.016
 2552TIP3    H2 7600   0.982   0.892   0.952
 2553TIP3   OH2 7601   5.956   5.633   4.999
 2553TIP3    H1 7602   5.977   5.583   4.920
 2553TIP3    H2 7603   6.016   5.707   4.997
 2554TIP3   OH2 7604   2.112   4.591   4.727
 2554TIP3    H1 7605   2.176   4.627   4.665
 2554TIP3    H2 7606   2.165   4.545   4.792
 2555TIP3   OH2 7607   4.052   7.204   5.634
 2555TIP3    H1 7608   4.126   7.223   5.692
 2555TIP3    H2 7609   3.976   7.238   5.681
 2556TIP3   OH2 7610   3.461   7.520   4.055
 2556TIP3    H1 7611   3.369   7.512   4.082
 2556TIP3    H2 7612   3.501   7.572   4.125
 2557TIP3   OH2 7613   4.272   6.106   5.905
 2557TIP3    H1 7614   4.290   6.077   5.994
 2557TIP3    H2 7615   4.241   6.196   5.915
 2558TIP3   OH2 7616   2.556   4.580   0.537
 2558TIP3    H1 7617   2.572   4.571   0.631
 2558TIP3    H2 7618   2.640   4.558   0.496
 2559TIP3   OH2 7619   1.234   4.283   3.876
 2559TIP3    H1 7620   1.313   4.338   3.877
 2559TIP3    H2 7621   1.204   4.289   3.785
 2560TIP3   OH2 7622   4.001   4.227   3.678
 2560TIP3    H1 7623   3.965   4.289   3.614
 2560TIP3    H2 7624   4.014   4.146   3.629
 2561TIP3   OH2 7625   7.696   6.520   2.867
 2561TIP3    H1 7626   7.783   6.554   2.887
 2561TIP3    H2 7627   7.637   6.573   2.920
 2562TIP3   OH2 7628   3.814   6.953   0.666
 2562TIP3    H1 7629   3.863   6.890   0.718
 2562TIP3    H2 7630   3.866   7.034   0.672
 2563TIP3   OH2 7631   0.918   0.506   5.571
 2563TIP3    H1 7632   0.891   0.567   5.639
 2563TIP3    H2 7633   0.973   0.441   5.616
 2564TIP3   OH2 7634   7.405   3.742   2.569
 2564TIP3    H1 7635   7.425   3.805   2.499
 2564TIP3    H2 7636   7.479   3.682   2.568
 2565TIP3   OH2 7637   6.022   5.072   2.528
 2565TIP3    H1 7638   6.115   5.064   2.549
 2565TIP3    H2 7639   5.977   5.034   2.604
 2566TIP3   OH2 7640   7.095   3.508   3.476
 2566TIP3    H1 7641   7.039   3.570   3.430
 2566TIP3    H2 7642   7.040   3.431   3.488
 2567TIP3   OH2 7643   2.319   2.564   3.860
 2567TIP3    H1 7644   2.245   2.586   3.916
 2567TIP3    H2 7645   2.299   2.605   3.776
 2568TIP3   OH2 7646   7.350   1.641   4.064
 2568TIP3    H1 7647   7.404   1.641   3.985
 2568TIP3    H2 7648   7.269   1.686   4.039
 2569TIP3   OH2 7649   5.268   2.880   1.165
 2569TIP3    H1 7650   5.181   2.843   1.151
 2569TIP3    H2 7651   5.255   2.974   1.156
 2570TIP3   OH2 7652   6.057   2.393   3.002
 2570TIP3    H1 7653   6.057   2.342   2.921
 2570TIP3    H2 7654   6.043   2.328   3.071
 2571TIP3   OH2 7655   1.424   5.055   0.009
 2571TIP3    H1 7656   1.329   5.046   0.017
 2571TIP3    H2 7657   1.453   4.974  -0.033
 2572TIP3   OH2 7658   5.188   2.757   5.856
 2572TIP3    H1 7659   5.231   2.717   5.780
 2572TIP3    H2 7660   5.169   2.846   5.829
 2573TIP3   OH2 7661   6.713   7.602   6.011
 2573TIP3    H1 7662   6.745   7.685   5.975
 2573TIP3    H2 7663   6.619   7.615   6.022
 2574TIP3   OH2 7664   4.310   3.023   6.233
 2574TIP3    H1 7665   4.348   2.944   6.273
 2574TIP3    H2 7666   4.241   2.990   6.177
 2575TIP3   OH2 7667   5.165   2.770   0.737
 2575TIP3    H1 7668   5.108   2.819   0.796
 2575TIP3    H2 7669   5.247   2.818   0.738
 2576TIP3   OH2 7670   4.279   4.429   3.913
 2576TIP3    H1 7671   4.335   4.390   3.846
 2576TIP3    H2 7672   4.267   4.359   3.977
 2577TIP3   OH2 7673   5.276   7.074   5.058
 2577TIP3    H1 7674   5.372   7.076   5.066
 2577TIP3    H2 7675   5.258   7.118   4.975
 2578TIP3   OH2 7676   2.018   7.272   5.071
 2578TIP3    H1 7677   2.027   7.318   4.988
 2578TIP3    H2 7678   1.966   7.194   5.050
 2579TIP3   OH2 7679   2.870   2.609   4.915
 2579TIP3    H1 7680   2.806   2.551   4.873
 2579TIP3    H2 7681   2.903   2.664   4.843
 2580TIP3   OH2 7682   4.320   3.309   3.167
 2580TIP3    H1 7683   4.240   3.359   3.187
 2580TIP3    H2 7684   4.325   3.243   3.236
 2581TIP3   OH2 7685   1.816   0.355   2.300
 2581TIP3    H1 7686   1.754   0.387   2.234
 2581TIP3    H2 7687   1.901   0.384   2.267
 2582TIP3   OH2 7688   0.457   6.888   6.172
 2582TIP3    H1 7689   0.475   6.794   6.171
 2582TIP3    H2 7690   0.444   6.911   6.080
 2583TIP3   OH2 7691   1.925   6.392   1.591
 2583TIP3    H1 7692   1.920   6.446   1.512
 2583TIP3    H2 7693   2.018   6.393   1.614
 2584TIP3   OH2 7694   2.036   0.730   2.059
 2584TIP3    H1 7695   1.984   0.787   2.002
 2584TIP3    H2 7696   2.100   0.691   2.000
 2585TIP3   OH2 7697   0.289   4.777   4.583
 2585TIP3    H1 7698   0.230   4.805   4.513
 2585TIP3    H2 7699   0.247   4.698   4.618
 2586TIP3   OH2 7700   6.909   2.387   1.519
 2586TIP3    H1 7701   6.863   2.418   1.597
 2586TIP3    H2 7702   6.897   2.456   1.454
 2587TIP3   OH2 7703   1.444   3.075   4.628
 2587TIP3    H1 7704   1.349   3.064   4.623
 2587TIP3    H2 7705   1.479   2.987   4.612
 2588TIP3   OH2 7706   7.494   6.627   4.073
 2588TIP3    H1 7707   7.415   6.593   4.031
 2588TIP3    H2 7708   7.469   6.640   4.165
 2589TIP3   OH2 7709   1.772   2.300   3.495
 2589TIP3    H1 7710   1.814   2.385   3.511
 2589TIP3    H2 7711   1.826   2.237   3.543
 2590TIP3   OH2 7712   0.605   4.986   5.404
 2590TIP3    H1 7713   0.637   4.980   5.494
 2590TIP3    H2 7714   0.683   5.003   5.351
 2591TIP3   OH2 7715   5.722   3.043   5.210
 2591TIP3    H1 7716   5.721   2.949   5.195
 2591TIP3    H2 7717   5.630   3.069   5.209
 2592TIP3   OH2 7718   7.558   3.060   3.621
 2592TIP3    H1 7719   7.638   3.083   3.573
 2592TIP3    H2 7720   7.488   3.064   3.555
 2593TIP3   OH2 7721   4.883   1.204   0.722
 2593TIP3    H1 7722   4.941   1.145   0.675
 2593TIP3    H2 7723   4.798   1.194   0.679
 2594TIP3   OH2 7724   0.306   4.306   2.040
 2594TIP3    H1 7725   0.353   4.389   2.042
 2594TIP3    H2 7726   0.360   4.249   1.986
 2595TIP3   OH2 7727   0.928   7.247   3.267
 2595TIP3    H1 7728   0.842   7.266   3.306
 2595TIP3    H2 7729   0.982   7.220   3.340
 2596TIP3   OH2 7730   1.496   6.382   5.250
 2596TIP3    H1 7731   1.476   6.291   5.268
 2596TIP3    H2 7732   1.539   6.414   5.329
 2597TIP3   OH2 7733   3.803   1.818   3.305
 2597TIP3    H1 7734   3.717   1.856   3.287
 2597TIP3    H2 7735   3.786   1.724   3.316
 2598TIP3   OH2 7736   0.624   2.755   5.059
 2598TIP3    H1 7737   0.604   2.824   4.996
 2598TIP3    H2 7738   0.543   2.704   5.066
 2599TIP3   OH2 7739   5.044   5.319   0.730
 2599TIP3    H1 7740   5.124   5.300   0.779
 2599TIP3    H2 7741   5.062   5.284   0.642
 2600TIP3   OH2 7742   5.018   1.198   2.548
 2600TIP3    H1 7743   5.038   1.111   2.515
 2600TIP3    H2 7744   4.954   1.183   2.618
 2601TIP3   OH2 7745   2.546   1.585   6.358
 2601TIP3    H1 7746   2.634   1.623   6.359
 2601TIP3    H2 7747   2.528   1.569   6.265
 2602TIP3   OH2 7748   7.857   2.997   2.953
 2602TIP3    H1 7749   7.762   3.006   2.946
 2602TIP3    H2 7750   7.870   2.949   3.035
 2603TIP3   OH2 7751   7.107   0.957   5.460
 2603TIP3    H1 7752   7.148   1.022   5.404
 2603TIP3    H2 7753   7.033   1.003   5.500
 2604TIP3   OH2 7754   4.593   0.427   5.863
 2604TIP3    H1 7755   4.510   0.460   5.895
 2604TIP3    H2 7756   4.626   0.496   5.806
 2605TIP3   OH2 7757   7.719   6.541   3.206
 2605TIP3    H1 7758   7.624   6.547   3.218
 2605TIP3    H2 7759   7.755   6.548   3.294
 2606TIP3   OH2 7760   3.738   5.889   5.908
 2606TIP3    H1 7761   3.668   5.941   5.868
 2606TIP3    H2 7762   3.818   5.936   5.884
 2607TIP3   OH2 7763   6.957   0.936   5.828
 2607TIP3    H1 7764   7.042   0.900   5.802
 2607TIP3    H2 7765   6.949   0.914   5.921
 2608TIP3   OH2 7766   4.437   3.423   2.264
 2608TIP3    H1 7767   4.443   3.445   2.170
 2608TIP3    H2 7768   4.344   3.409   2.279
 2609TIP3   OH2 7769   6.368   1.521   0.316
 2609TIP3    H1 7770   6.460   1.545   0.326
 2609TIP3    H2 7771   6.321   1.604   0.326
 2610TIP3   OH2 7772   4.245   4.641   2.152
 2610TIP3    H1 7773   4.242   4.575   2.082
 2610TIP3    H2 7774   4.156   4.678   2.154
 2611TIP3   OH2 7775   3.313   4.866   0.401
 2611TIP3    H1 7776   3.300   4.898   0.311
 2611TIP3    H2 7777   3.227   4.877   0.442
 2612TIP3   OH2 7778   6.244   3.623   5.787
 2612TIP3    H1 7779   6.309   3.647   5.853
 2612TIP3    H2 7780   6.167   3.675   5.810
 2613TIP3   OH2 7781   0.292   5.983   4.548
 2613TIP3    H1 7782   0.237   6.037   4.604
 2613TIP3    H2 7783   0.315   5.908   4.603
 2614TIP3   OH2 7784   1.765   1.751   3.024
 2614TIP3    H1 7785   1.785   1.690   3.095
 2614TIP3    H2 7786   1.673   1.774   3.038
 2615TIP3   OH2 7787   4.108   7.596   2.717
 2615TIP3    H1 7788   4.159   7.524   2.753
 2615TIP3    H2 7789   4.136   7.602   2.625
 2616TIP3   OH2 7790   7.772   3.170   3.483
 2616TIP3    H1 7791   7.816   3.206   3.405
 2616TIP3    H2 7792   7.781   3.238   3.549
 2617TIP3   OH2 7793   1.973   6.822   1.705
 2617TIP3    H1 7794   2.012   6.903   1.674
 2617TIP3    H2 7795   2.012   6.754   1.651
 2618TIP3   OH2 7796   7.446   3.557   5.591
 2618TIP3    H1 7797   7.443   3.579   5.498
 2618TIP3    H2 7798   7.452   3.641   5.636
 2619TIP3   OH2 7799   0.718   2.929   6.647
 2619TIP3    H1 7800   0.656   2.881   6.592
 2619TIP3    H2 7801   0.718   2.882   6.731
 2620TIP3   OH2 7802   8.234   3.164   5.143
 2620TIP3    H1 7803   8.255   3.193   5.231
 2620TIP3    H2 7804   8.234   3.069   5.148
 2621TIP3   OH2 7805   3.848   2.963   3.168
 2621TIP3    H1 7806   3.774   3.018   3.144
 2621TIP3    H2 7807   3.907   2.966   3.094
 2622TIP3   OH2 7808   5.969   5.295   3.788
 2622TIP3    H1 7809   5.920   5.213   3.776
 2622TIP3    H2 7810   6.061   5.268   3.792
 2623TIP3   OH2 7811   5.299   1.481   0.621
 2623TIP3    H1 7812   5.217   1.472   0.669
 2623TIP3    H2 7813   5.344   1.398   0.634
 2624TIP3   OH2 7814   5.225   3.824   0.391
 2624TIP3    H1 7815   5.195   3.914   0.397
 2624TIP3    H2 7816   5.144   3.772   0.390
 2625TIP3   OH2 7817   7.410   0.696   6.541
 2625TIP3    H1 7818   7.503   0.672   6.547
 2625TIP3    H2 7819   7.371   0.625   6.490
 2626TIP3   OH2 7820   6.877   2.189   5.367
 2626TIP3    H1 7821   6.837   2.274   5.384
 2626TIP3    H2 7822   6.808   2.126   5.386
 2627TIP3   OH2 7823   5.837   4.124   1.101
 2627TIP3    H1 7824   5.808   4.105   1.012
 2627TIP3    H2 7825   5.849   4.038   1.141
 2628TIP3   OH2 7826   1.910   0.945   2.602
 2628TIP3    H1 7827   1.947   0.996   2.530
 2628TIP3    H2 7828   1.840   0.893   2.562
 2629TIP3   OH2 7829   2.392   6.091   0.461
 2629TIP3    H1 7830   2.385   6.168   0.405
 2629TIP3    H2 7831   2.344   6.114   0.540
 2630TIP3   OH2 7832   3.815   7.709   2.389
 2630TIP3    H1 7833   3.879   7.646   2.422
 2630TIP3    H2 7834   3.730   7.666   2.404
 2631TIP3   OH2 7835   3.788   5.849   2.531
 2631TIP3    H1 7836   3.853   5.875   2.596
 2631TIP3    H2 7837   3.720   5.916   2.537
 2632TIP3   OH2 7838   4.719   7.049   3.544
 2632TIP3    H1 7839   4.637   7.037   3.496
 2632TIP3    H2 7840   4.787   7.036   3.478
 2633TIP3   OH2 7841   8.030   3.490   6.717
 2633TIP3    H1 7842   8.035   3.404   6.760
 2633TIP3    H2 7843   8.012   3.551   6.789
 2634TIP3   OH2 7844   1.067   4.833   1.751
 2634TIP3    H1 7845   1.127   4.792   1.812
 2634TIP3    H2 7846   1.103   4.812   1.664
 2635TIP3   OH2 7847   8.276   4.571   5.815
 2635TIP3    H1 7848   8.287   4.663   5.793
 2635TIP3    H2 7849   8.223   4.571   5.894
 2636TIP3   OH2 7850   0.072   1.350   0.268
 2636TIP3    H1 7851   0.045   1.334   0.177
 2636TIP3    H2 7852   0.068   1.264   0.310
 2637TIP3   OH2 7853   3.985   7.530   0.924
 2637TIP3    H1 7854   3.984   7.435   0.922
 2637TIP3    H2 7855   4.027   7.552   1.007
 2638TIP3   OH2 7856   4.175   0.592   0.852
 2638TIP3    H1 7857   4.243   0.546   0.901
 2638TIP3    H2 7858   4.212   0.677   0.831
 2639TIP3   OH2 7859   0.757   7.342   2.338
 2639TIP3    H1 7860   0.728   7.389   2.416
 2639TIP3    H2 7861   0.678   7.333   2.285
 2640TIP3   OH2 7862   1.313   0.653   2.157
 2640TIP3    H1 7863   1.334   0.561   2.139
 2640TIP3    H2 7864   1.355   0.701   2.085
 2641TIP3   OH2 7865   0.347   1.183   0.308
 2641TIP3    H1 7866   0.423   1.139   0.271
 2641TIP3    H2 7867   0.279   1.175   0.240
 2642TIP3   OH2 7868   7.120   3.123   0.690
 2642TIP3    H1 7869   7.144   3.215   0.699
 2642TIP3    H2 7870   7.061   3.121   0.614
 2643TIP3   OH2 7871   6.288   7.097   6.281
 2643TIP3    H1 7872   6.262   7.186   6.307
 2643TIP3    H2 7873   6.364   7.077   6.336
 2644TIP3   OH2 7874   7.035   1.696   4.520
 2644TIP3    H1 7875   7.093   1.689   4.595
 2644TIP3    H2 7876   6.988   1.779   4.533
 2645TIP3   OH2 7877   2.929   2.504   6.353
 2645TIP3    H1 7878   2.943   2.492   6.260
 2645TIP3    H2 7879   2.871   2.580   6.359
 2646TIP3   OH2 7880   6.338   1.007   4.434
 2646TIP3    H1 7881   6.279   0.958   4.490
 2646TIP3    H2 7882   6.425   0.990   4.470
 2647TIP3   OH2 7883   4.429   3.591   5.695
 2647TIP3    H1 7884   4.524   3.579   5.704
 2647TIP3    H2 7885   4.408   3.547   5.612
 2648TIP3   OH2 7886   1.440   2.914   6.008
 2648TIP3    H1 7887   1.439   2.962   6.091
 2648TIP3    H2 7888   1.349   2.885   5.996
 2649TIP3   OH2 7889   3.653   0.429   5.863
 2649TIP3    H1 7890   3.643   0.338   5.834
 2649TIP3    H2 7891   3.748   0.444   5.864
 2650TIP3   OH2 7892   2.381   6.887   1.980
 2650TIP3    H1 7893   2.366   6.871   2.074
 2650TIP3    H2 7894   2.347   6.975   1.965
 2651TIP3   OH2 7895   5.253   4.702   4.614
 2651TIP3    H1 7896   5.251   4.651   4.695
 2651TIP3    H2 7897   5.336   4.749   4.617
 2652TIP3   OH2 7898   0.961   1.156   5.337
 2652TIP3    H1 7899   0.937   1.134   5.427
 2652TIP3    H2 7900   0.882   1.141   5.286
 2653TIP3   OH2 7901   5.413   1.974   3.978
 2653TIP3    H1 7902   5.426   1.977   3.883
 2653TIP3    H2 7903   5.492   1.933   4.012
 2654TIP3   OH2 7904   6.330   4.802   4.723
 2654TIP3    H1 7905   6.340   4.745   4.799
 2654TIP3    H2 7906   6.408   4.858   4.725
 2655TIP3   OH2 7907   5.461   0.651   1.468
 2655TIP3    H1 7908   5.487   0.726   1.414
 2655TIP3    H2 7909   5.500   0.576   1.423
 2656TIP3   OH2 7910   4.557   7.202   1.220
 2656TIP3    H1 7911   4.623   7.135   1.204
 2656TIP3    H2 7912   4.503   7.201   1.142
 2657TIP3   OH2 7913   3.198   2.644   5.828
 2657TIP3    H1 7914   3.194   2.657   5.923
 2657TIP3    H2 7915   3.278   2.593   5.814
 2658TIP3   OH2 7916   0.508   2.890   1.585
 2658TIP3    H1 7917   0.421   2.864   1.554
 2658TIP3    H2 7918   0.494   2.975   1.626
 2659TIP3   OH2 7919   4.838   1.834   6.221
 2659TIP3    H1 7920   4.814   1.919   6.259
 2659TIP3    H2 7921   4.774   1.820   6.151
 2660TIP3   OH2 7922   4.555   2.717   4.657
 2660TIP3    H1 7923   4.503   2.639   4.643
 2660TIP3    H2 7924   4.549   2.734   4.751
 2661TIP3   OH2 7925   8.170   5.422   3.399
 2661TIP3    H1 7926   8.170   5.516   3.385
 2661TIP3    H2 7927   8.151   5.410   3.492
 2662TIP3   OH2 7928   3.101   2.231   6.695
 2662TIP3    H1 7929   3.087   2.137   6.679
 2662TIP3    H2 7930   3.019   2.273   6.671
 2663TIP3   OH2 7931   5.707   1.620   0.681
 2663TIP3    H1 7932   5.758   1.672   0.742
 2663TIP3    H2 7933   5.618   1.623   0.716
 2664TIP3   OH2 7934   5.253   0.919   3.953
 2664TIP3    H1 7935   5.293   0.930   3.867
 2664TIP3    H2 7936   5.177   0.862   3.936
 2665TIP3   OH2 7937   0.612   4.543   1.537
 2665TIP3    H1 7938   0.589   4.573   1.625
 2665TIP3    H2 7939   0.528   4.531   1.493
 2666TIP3   OH2 7940   7.996   0.899   2.754
 2666TIP3    H1 7941   7.925   0.959   2.774
 2666TIP3    H2 7942   8.075   0.943   2.787
 2667TIP3   OH2 7943   3.034   3.353   2.671
 2667TIP3    H1 7944   2.978   3.289   2.626
 2667TIP3    H2 7945   3.123   3.322   2.656
 2668TIP3   OH2 7946   6.291   0.594   1.944
 2668TIP3    H1 7947   6.246   0.525   1.993
 2668TIP3    H2 7948   6.370   0.552   1.910
 2669TIP3   OH2 7949   4.253   1.043   0.195
 2669TIP3    H1 7950   4.176   1.035   0.252
 2669TIP3    H2 7951   4.293   1.127   0.220
 2670TIP3   OH2 7952   3.327   1.111   1.201
 2670TIP3    H1 7953   3.399   1.112   1.139
 2670TIP3    H2 7954   3.270   1.183   1.173
 2671TIP3   OH2 7955   1.777   3.920   6.106
 2671TIP3    H1 7956   1.689   3.953   6.090
 2671TIP3    H2 7957   1.779   3.835   6.062
 2672TIP3   OH2 7958   2.595   4.770   4.707
 2672TIP3    H1 7959   2.597   4.769   4.803
 2672TIP3    H2 7960   2.639   4.852   4.684
 2673TIP3   OH2 7961   2.212   1.274   4.202
 2673TIP3    H1 7962   2.289   1.241   4.248
 2673TIP3    H2 7963   2.150   1.201   4.202
 2674TIP3   OH2 7964   2.977   5.437   0.737
 2674TIP3    H1 7965   2.926   5.493   0.678
 2674TIP3    H2 7966   3.044   5.495   0.773
 2675TIP3   OH2 7967   6.981   6.885   1.231
 2675TIP3    H1 7968   7.041   6.948   1.190
 2675TIP3    H2 7969   6.942   6.839   1.157
 2676TIP3   OH2 7970   0.551   1.222   4.654
 2676TIP3    H1 7971   0.630   1.261   4.692
 2676TIP3    H2 7972   0.491   1.210   4.727
 2677TIP3   OH2 7973   3.182   0.705   4.100
 2677TIP3    H1 7974   3.253   0.652   4.135
 2677TIP3    H2 7975   3.147   0.652   4.028
 2678TIP3   OH2 7976   6.026   1.108   0.588
 2678TIP3    H1 7977   6.096   1.166   0.562
 2678TIP3    H2 7978   6.028   1.109   0.684
 2679TIP3   OH2 7979   3.394   0.564   6.078
 2679TIP3    H1 7980   3.442   0.644   6.101
 2679TIP3    H2 7981   3.327   0.593   6.016
 2680TIP3   OH2 7982   5.010   7.035   4.957
 2680TIP3    H1 7983   5.064   7.054   4.880
 2680TIP3    H2 7984   5.068   6.987   5.016
 2681TIP3   OH2 7985   5.769   3.201   0.142
 2681TIP3    H1 7986   5.834   3.200   0.212
 2681TIP3    H2 7987   5.715   3.278   0.160
 2682TIP3   OH2 7988   1.701   1.839   4.514
 2682TIP3    H1 7989   1.628   1.892   4.547
 2682TIP3    H2 7990   1.772   1.856   4.576
 2683TIP3   OH2 7991   1.120   3.367   4.659
 2683TIP3    H1 7992   1.088   3.445   4.614
 2683TIP3    H2 7993   1.214   3.383   4.671
 2684TIP3   OH2 7994   0.395   1.175   2.449
 2684TIP3    H1 7995   0.475   1.123   2.450
 2684TIP3    H2 7996   0.422   1.261   2.419
 2685TIP3   OH2 7997   7.938   3.086   0.402
 2685TIP3    H1 7998   7.971   3.166   0.442
 2685TIP3    H2 7999   7.983   3.081   0.317
 2686TIP3   OH2 8000   6.085   2.093   0.675
 2686TIP3    H1 8001   6.057   2.111   0.765
 2686TIP3    H2 8002   6.086   2.180   0.634
 2687TIP3   OH2 8003   1.412   7.349   5.333
 2687TIP3    H1 8004   1.364   7.334   5.414
 2687TIP3    H2 8005   1.381   7.281   5.274
 2688TIP3   OH2 8006   4.036   6.231   4.049
 2688TIP3    H1 8007   3.970   6.199   4.111
 2688TIP3    H2 8008   4.115   6.182   4.071
 2689TIP3   OH2 8009   3.544   2.741   0.728
 2689TIP3    H1 8010   3.611   2.802   0.698
 2689TIP3    H2 8011   3.472   2.751   0.665
 2690TIP3   OH2 8012   7.411   7.152   3.050
 2690TIP3    H1 8013   7.473   7.216   3.085
 2690TIP3    H2 8014   7.376   7.108   3.128
 2691TIP3   OH2 8015   4.658   2.431   2.477
 2691TIP3    H1 8016   4.666   2.526   2.476
 2691TIP3    H2 8017   4.607   2.411   2.398
 2692TIP3   OH2 8018   4.054   6.592   0.985
 2692TIP3    H1 8019   4.115   6.532   1.027
 2692TIP3    H2 8020   3.984   6.537   0.951
 2693TIP3   OH2 8021   7.106   3.584   5.425
 2693TIP3    H1 8022   7.167   3.587   5.351
 2693TIP3    H2 8023   7.094   3.676   5.450
 2694TIP3   OH2 8024   0.329   7.613   3.920
 2694TIP3    H1 8025   0.411   7.634   3.875
 2694TIP3    H2 8026   0.355   7.596   4.010
 2695TIP3   OH2 8027   7.889   5.732   3.532
 2695TIP3    H1 8028   7.808   5.690   3.504
 2695TIP3    H2 8029   7.909   5.794   3.463
 2696TIP3   OH2 8030   1.587   7.750   5.139
 2696TIP3    H1 8031   1.556   7.708   5.220
 2696TIP3    H2 8032   1.682   7.736   5.139
 2697TIP3   OH2 8033   8.053   4.767   2.657
 2697TIP3    H1 8034   8.008   4.695   2.700
 2697TIP3    H2 8035   7.984   4.826   2.628
 2698TIP3   OH2 8036   1.487   2.220   3.128
 2698TIP3    H1 8037   1.459   2.260   3.046
 2698TIP3    H2 8038   1.440   2.269   3.195
 2699TIP3   OH2 8039   1.073   3.958   1.953
 2699TIP3    H1 8040   1.164   3.946   1.980
 2699TIP3    H2 8041   1.034   3.871   1.959
 2700TIP3   OH2 8042   4.561   4.248   4.840
 2700TIP3    H1 8043   4.606   4.328   4.814
 2700TIP3    H2 8044   4.480   4.247   4.789
 2701TIP3   OH2 8045   4.536   0.920   2.987
 2701TIP3    H1 8046   4.520   1.000   2.939
 2701TIP3    H2 8047   4.467   0.860   2.957
 2702TIP3   OH2 8048   7.743   5.903   5.296
 2702TIP3    H1 8049   7.653   5.870   5.303
 2702TIP3    H2 8050   7.734   5.998   5.303
 2703TIP3   OH2 8051   6.643   4.641   5.586
 2703TIP3    H1 8052   6.685   4.726   5.574
 2703TIP3    H2 8053   6.620   4.638   5.679
 2704TIP3   OH2 8054   4.097   2.719   4.470
 2704TIP3    H1 8055   4.146   2.794   4.436
 2704TIP3    H2 8056   4.012   2.725   4.428
 2705TIP3   OH2 8057   7.247   2.974   5.242
 2705TIP3    H1 8058   7.299   2.919   5.183
 2705TIP3    H2 8059   7.248   2.925   5.325
 2706TIP3   OH2 8060   3.640   7.744   3.545
 2706TIP3    H1 8061   3.646   7.744   3.450
 2706TIP3    H2 8062   3.568   7.803   3.565
 2707TIP3   OH2 8063   4.246   1.203   6.611
 2707TIP3    H1 8064   4.326   1.254   6.601
 2707TIP3    H2 8065   4.181   1.249   6.558
 2708TIP3   OH2 8066   5.577   0.551   2.062
 2708TIP3    H1 8067   5.564   0.618   2.129
 2708TIP3    H2 8068   5.491   0.509   2.054
 2709TIP3   OH2 8069   3.128   2.072   0.755
 2709TIP3    H1 8070   3.072   2.114   0.689
 2709TIP3    H2 8071   3.200   2.134   0.767
 2710TIP3   OH2 8072   3.239   0.029   6.179
 2710TIP3    H1 8073   3.224  -0.017   6.262
 2710TIP3    H2 8074   3.332   0.019   6.162
 2711TIP3   OH2 8075   4.390   1.785   0.100
 2711TIP3    H1 8076   4.451   1.711   0.095
 2711TIP3    H2 8077   4.326   1.757   0.166
 2712TIP3   OH2 8078   7.834   6.264   4.643
 2712TIP3    H1 8079   7.788   6.255   4.560
 2712TIP3    H2 8080   7.804   6.189   4.695
 2713TIP3   OH2 8081   2.241   7.368   1.880
 2713TIP3    H1 8082   2.156   7.326   1.867
 2713TIP3    H2 8083   2.237   7.402   1.969
 2714TIP3   OH2 8084   5.214   5.567   5.086
 2714TIP3    H1 8085   5.217   5.588   4.993
 2714TIP3    H2 8086   5.196   5.473   5.089
 2715TIP3   OH2 8087   5.310   5.429   3.802
 2715TIP3    H1 8088   5.236   5.394   3.753
 2715TIP3    H2 8089   5.271   5.490   3.865
 2716TIP3   OH2 8090   4.206   1.628   1.313
 2716TIP3    H1 8091   4.240   1.672   1.235
 2716TIP3    H2 8092   4.246   1.674   1.386
 2717TIP3   OH2 8093   1.704   3.567   0.933
 2717TIP3    H1 8094   1.704   3.634   1.002
 2717TIP3    H2 8095   1.748   3.610   0.859
 2718TIP3   OH2 8096   1.752   6.797   3.809
 2718TIP3    H1 8097   1.721   6.729   3.869
 2718TIP3    H2 8098   1.684   6.864   3.812
 2719TIP3   OH2 8099   1.809   2.763   0.567
 2719TIP3    H1 8100   1.859   2.794   0.642
 2719TIP3    H2 8101   1.759   2.839   0.538
 2720TIP3   OH2 8102   7.271   5.520   3.905
 2720TIP3    H1 8103   7.231   5.575   3.837
 2720TIP3    H2 8104   7.253   5.431   3.878
 2721TIP3   OH2 8105   1.090   0.039   1.405
 2721TIP3    H1 8106   1.039   0.117   1.426
 2721TIP3    H2 8107   1.025  -0.029   1.386
 2722TIP3   OH2 8108   5.124   1.013   5.140
 2722TIP3    H1 8109   5.046   1.056   5.176
 2722TIP3    H2 8110   5.124   1.037   5.047
 2723TIP3   OH2 8111   7.412   2.878   6.365
 2723TIP3    H1 8112   7.359   2.824   6.424
 2723TIP3    H2 8113   7.490   2.899   6.416
 2724TIP3   OH2 8114   0.850   0.730   2.265
 2724TIP3    H1 8115   0.800   0.666   2.214
 2724TIP3    H2 8116   0.858   0.691   2.352
 2725TIP3   OH2 8117   6.033   0.099   0.800
 2725TIP3    H1 8118   6.016   0.119   0.892
 2725TIP3    H2 8119   6.070   0.011   0.801
 2726TIP3   OH2 8120   4.044   7.596   5.179
 2726TIP3    H1 8121   3.951   7.590   5.197
 2726TIP3    H2 8122   4.051   7.599   5.083
 2727TIP3   OH2 8123   4.342   7.636   5.112
 2727TIP3    H1 8124   4.351   7.554   5.161
 2727TIP3    H2 8125   4.373   7.615   5.024
 2728TIP3   OH2 8126   0.643   2.795   2.947
 2728TIP3    H1 8127   0.687   2.717   2.913
 2728TIP3    H2 8128   0.565   2.763   2.990
 2729TIP3   OH2 8129   6.280   4.030   2.381
 2729TIP3    H1 8130   6.348   4.096   2.391
 2729TIP3    H2 8131   6.219   4.046   2.453
 2730TIP3   OH2 8132   6.206   7.775   0.980
 2730TIP3    H1 8133   6.152   7.808   0.908
 2730TIP3    H2 8134   6.166   7.812   1.059
 2731TIP3   OH2 8135   5.879   6.898   3.510
 2731TIP3    H1 8136   5.887   6.983   3.552
 2731TIP3    H2 8137   5.867   6.836   3.582
 2732TIP3   OH2 8138   5.225   0.386   1.746
 2732TIP3    H1 8139   5.320   0.374   1.741
 2732TIP3    H2 8140   5.209   0.468   1.699
 2733TIP3   OH2 8141   0.596   3.573   3.611
 2733TIP3    H1 8142   0.666   3.576   3.677
 2733TIP3    H2 8143   0.633   3.522   3.539
 2734TIP3   OH2 8144   4.742   3.348   5.005
 2734TIP3    H1 8145   4.808   3.365   5.073
 2734TIP3    H2 8146   4.777   3.273   4.957
 2735TIP3   OH2 8147   1.641   2.629   5.999
 2735TIP3    H1 8148   1.620   2.540   5.971
 2735TIP3    H2 8149   1.561   2.661   6.041
 2736TIP3   OH2 8150   3.163   4.591   3.474
 2736TIP3    H1 8151   3.182   4.512   3.524
 2736TIP3    H2 8152   3.244   4.642   3.477
 2737TIP3   OH2 8153   6.830   1.376   2.847
 2737TIP3    H1 8154   6.767   1.354   2.915
 2737TIP3    H2 8155   6.876   1.452   2.880
 2738TIP3   OH2 8156   3.395   6.359   4.846
 2738TIP3    H1 8157   3.356   6.365   4.934
 2738TIP3    H2 8158   3.380   6.268   4.820
 2739TIP3   OH2 8159   1.142   6.076   4.388
 2739TIP3    H1 8160   1.168   6.010   4.452
 2739TIP3    H2 8161   1.207   6.145   4.395
 2740TIP3   OH2 8162   4.702   3.215   4.342
 2740TIP3    H1 8163   4.610   3.204   4.319
 2740TIP3    H2 8164   4.743   3.246   4.261
 2741TIP3   OH2 8165   7.713   7.107   5.322
 2741TIP3    H1 8166   7.651   7.170   5.357
 2741TIP3    H2 8167   7.717   7.125   5.229
 2742TIP3   OH2 8168   6.980   6.063   3.348
 2742TIP3    H1 8169   7.049   6.063   3.415
 2742TIP3    H2 8170   6.990   6.148   3.304
 2743TIP3   OH2 8171   7.600   3.901   3.602
 2743TIP3    H1 8172   7.634   3.983   3.565
 2743TIP3    H2 8173   7.677   3.844   3.607
 2744TIP3   OH2 8174   4.298   3.881   3.396
 2744TIP3    H1 8175   4.353   3.831   3.457
 2744TIP3    H2 8176   4.229   3.821   3.371
 2745TIP3   OH2 8177   5.734   6.559   0.643
 2745TIP3    H1 8178   5.786   6.482   0.619
 2745TIP3    H2 8179   5.798   6.631   0.647
 2746TIP3   OH2 8180   6.160   2.723   3.224
 2746TIP3    H1 8181   6.073   2.750   3.195
 2746TIP3    H2 8182   6.201   2.686   3.146
 2747TIP3   OH2 8183   5.353   3.684   5.140
 2747TIP3    H1 8184   5.272   3.731   5.163
 2747TIP3    H2 8185   5.404   3.685   5.221
 2748TIP3   OH2 8186   2.607   3.688   5.727
 2748TIP3    H1 8187   2.614   3.784   5.730
 2748TIP3    H2 8188   2.682   3.657   5.777
 2749TIP3   OH2 8189   2.105   3.547   2.728
 2749TIP3    H1 8190   2.142   3.462   2.704
 2749TIP3    H2 8191   2.152   3.571   2.808
 2750TIP3   OH2 8192   6.048   6.512   3.104
 2750TIP3    H1 8193   5.982   6.448   3.076
 2750TIP3    H2 8194   6.002   6.596   3.101
 2751TIP3   OH2 8195   0.502   0.731   1.307
 2751TIP3    H1 8196   0.492   0.817   1.266
 2751TIP3    H2 8197   0.486   0.669   1.236
 2752TIP3   OH2 8198   8.206   6.799   5.224
 2752TIP3    H1 8199   8.223   6.710   5.256
 2752TIP3    H2 8200   8.252   6.803   5.140
 2753TIP3   OH2 8201   7.829   0.361   3.405
 2753TIP3    H1 8202   7.766   0.299   3.442
 2753TIP3    H2 8203   7.913   0.314   3.406
 2754TIP3   OH2 8204   2.926   1.088   6.178
 2754TIP3    H1 8205   2.845   1.108   6.225
 2754TIP3    H2 8206   2.897   1.045   6.098
 2755TIP3   OH2 8207   5.960   3.829   4.833
 2755TIP3    H1 8208   5.916   3.744   4.837
 2755TIP3    H2 8209   6.032   3.821   4.895
 2756TIP3   OH2 8210   4.176   5.984   0.698
 2756TIP3    H1 8211   4.190   5.890   0.691
 2756TIP3    H2 8212   4.162   6.000   0.792
 2757TIP3   OH2 8213   6.607   7.395   5.218
 2757TIP3    H1 8214   6.555   7.321   5.187
 2757TIP3    H2 8215   6.683   7.397   5.159
 2758TIP3   OH2 8216   3.807   5.859   5.517
 2758TIP3    H1 8217   3.788   5.770   5.547
 2758TIP3    H2 8218   3.837   5.848   5.427
 2759TIP3   OH2 8219   1.722   7.444   5.847
 2759TIP3    H1 8220   1.766   7.445   5.933
 2759TIP3    H2 8221   1.693   7.354   5.836
 2760TIP3   OH2 8222   5.050   0.935   0.825
 2760TIP3    H1 8223   4.957   0.949   0.845
 2760TIP3    H2 8224   5.061   0.971   0.737
 2761TIP3   OH2 8225   6.576   3.616   2.342
 2761TIP3    H1 8226   6.506   3.561   2.378
 2761TIP3    H2 8227   6.533   3.699   2.324
 2762TIP3   OH2 8228   4.458   7.562   1.439
 2762TIP3    H1 8229   4.500   7.632   1.489
 2762TIP3    H2 8230   4.366   7.588   1.435
 2763TIP3   OH2 8231   3.823   7.123   2.040
 2763TIP3    H1 8232   3.901   7.115   1.986
 2763TIP3    H2 8233   3.791   7.033   2.049
 2764TIP3   OH2 8234   5.386   0.654   2.620
 2764TIP3    H1 8235   5.358   0.638   2.710
 2764TIP3    H2 8236   5.374   0.571   2.575
 2765TIP3   OH2 8237   3.923   3.113   5.701
 2765TIP3    H1 8238   3.893   3.024   5.718
 2765TIP3    H2 8239   3.905   3.160   5.782
 2766TIP3   OH2 8240   5.773   5.439   6.605
 2766TIP3    H1 8241   5.767   5.367   6.542
 2766TIP3    H2 8242   5.767   5.397   6.690
 2767TIP3   OH2 8243   0.080   7.446   5.727
 2767TIP3    H1 8244   0.013   7.510   5.702
 2767TIP3    H2 8245   0.032   7.364   5.737
 2768TIP3   OH2 8246   6.142   0.367   3.457
 2768TIP3    H1 8247   6.146   0.463   3.455
 2768TIP3    H2 8248   6.112   0.346   3.545
 2769TIP3   OH2 8249   2.711   3.243   6.237
 2769TIP3    H1 8250   2.742   3.328   6.269
 2769TIP3    H2 8251   2.779   3.181   6.264
 2770TIP3   OH2 8252   1.737   4.506   5.658
 2770TIP3    H1 8253   1.663   4.451   5.681
 2770TIP3    H2 8254   1.792   4.451   5.603
 2771TIP3   OH2 8255   4.129   4.667   5.233
 2771TIP3    H1 8256   4.219   4.681   5.262
 2771TIP3    H2 8257   4.076   4.706   5.301
 2772TIP3   OH2 8258   3.528   4.521   4.632
 2772TIP3    H1 8259   3.469   4.548   4.562
 2772TIP3    H2 8260   3.470   4.494   4.703
 2773TIP3   OH2 8261   7.710   4.764   2.865
 2773TIP3    H1 8262   7.764   4.819   2.921
 2773TIP3    H2 8263   7.748   4.676   2.875
 2774TIP3   OH2 8264   7.765   6.609   6.404
 2774TIP3    H1 8265   7.780   6.580   6.314
 2774TIP3    H2 8266   7.852   6.630   6.438
 2775TIP3   OH2 8267   6.159   1.772   0.301
 2775TIP3    H1 8268   6.068   1.746   0.314
 2775TIP3    H2 8269   6.159   1.867   0.316
 2776TIP3   OH2 8270   4.157   0.080   5.507
 2776TIP3    H1 8271   4.239   0.094   5.460
 2776TIP3    H2 8272   4.090   0.119   5.451
 2777TIP3   OH2 8273   5.210   6.906   1.863
 2777TIP3    H1 8274   5.169   6.830   1.822
 2777TIP3    H2 8275   5.158   6.981   1.833
 2778TIP3   OH2 8276   6.594   3.353   3.142
 2778TIP3    H1 8277   6.588   3.306   3.059
 2778TIP3    H2 8278   6.556   3.439   3.124
 2779TIP3   OH2 8279   2.061   6.118   2.073
 2779TIP3    H1 8280   1.985   6.060   2.068
 2779TIP3    H2 8281   2.060   6.151   2.163
 2780TIP3   OH2 8282   3.662   3.343   0.587
 2780TIP3    H1 8283   3.634   3.370   0.674
 2780TIP3    H2 8284   3.719   3.268   0.602
 2781TIP3   OH2 8285   1.613   2.040   2.260
 2781TIP3    H1 8286   1.656   2.125   2.253
 2781TIP3    H2 8287   1.683   1.976   2.246
 2782TIP3   OH2 8288   1.768   6.371   3.083
 2782TIP3    H1 8289   1.694   6.341   3.135
 2782TIP3    H2 8290   1.729   6.402   3.001
 2783TIP3   OH2 8291   0.916   3.603   2.680
 2783TIP3    H1 8292   0.957   3.564   2.603
 2783TIP3    H2 8293   0.854   3.537   2.710
 2784TIP3   OH2 8294   7.270   4.439   0.271
 2784TIP3    H1 8295   7.274   4.467   0.363
 2784TIP3    H2 8296   7.236   4.350   0.274
 2785TIP3   OH2 8297   4.568   5.267   6.162
 2785TIP3    H1 8298   4.486   5.236   6.124
 2785TIP3    H2 8299   4.615   5.188   6.187
 2786TIP3   OH2 8300   0.556   3.475   5.757
 2786TIP3    H1 8301   0.617   3.460   5.830
 2786TIP3    H2 8302   0.561   3.395   5.705
 2787TIP3   OH2 8303   5.555   6.505   6.145
 2787TIP3    H1 8304   5.537   6.434   6.207
 2787TIP3    H2 8305   5.631   6.550   6.182
 2788TIP3   OH2 8306   7.625   0.596   1.895
 2788TIP3    H1 8307   7.589   0.561   1.976
 2788TIP3    H2 8308   7.709   0.635   1.920
 2789TIP3   OH2 8309   8.038   4.619   2.239
 2789TIP3    H1 8310   7.947   4.644   2.255
 2789TIP3    H2 8311   8.085   4.649   2.317
 2790TIP3   OH2 8312   8.285   3.129   0.479
 2790TIP3    H1 8313   8.247   3.053   0.523
 2790TIP3    H2 8314   8.241   3.204   0.519
 2791TIP3   OH2 8315   0.656   5.054   0.278
 2791TIP3    H1 8316   0.661   5.030   0.185
 2791TIP3    H2 8317   0.693   4.979   0.324
 2792TIP3   OH2 8318   4.171   5.674   2.650
 2792TIP3    H1 8319   4.122   5.691   2.731
 2792TIP3    H2 8320   4.152   5.749   2.594
 2793TIP3   OH2 8321   7.758   2.577   1.029
 2793TIP3    H1 8322   7.833   2.562   1.086
 2793TIP3    H2 8323   7.704   2.499   1.039
 2794TIP3   OH2 8324   3.537   5.800   5.691
 2794TIP3    H1 8325   3.568   5.829   5.606
 2794TIP3    H2 8326   3.493   5.876   5.729
 2795TIP3   OH2 8327   7.845   3.592   3.264
 2795TIP3    H1 8328   7.823   3.545   3.345
 2795TIP3    H2 8329   7.776   3.658   3.255
 2796TIP3   OH2 8330   4.088   1.218   2.423
 2796TIP3    H1 8331   4.171   1.233   2.378
 2796TIP3    H2 8332   4.038   1.162   2.363
 2797TIP3   OH2 8333   5.432   6.398   3.172
 2797TIP3    H1 8334   5.373   6.329   3.202
 2797TIP3    H2 8335   5.464   6.367   3.087
 2798TIP3   OH2 8336   6.476   0.736   4.804
 2798TIP3    H1 8337   6.563   0.713   4.838
 2798TIP3    H2 8338   6.486   0.730   4.709
 2799TIP3   OH2 8339   3.732   7.668   6.668
 2799TIP3    H1 8340   3.654   7.660   6.723
 2799TIP3    H2 8341   3.761   7.577   6.655
 2800TIP3   OH2 8342   5.843   4.073   3.571
 2800TIP3    H1 8343   5.893   4.128   3.631
 2800TIP3    H2 8344   5.901   4.000   3.552
 2801TIP3   OH2 8345   7.164   6.286   4.424
 2801TIP3    H1 8346   7.204   6.199   4.424
 2801TIP3    H2 8347   7.086   6.277   4.370
 2802TIP3   OH2 8348   3.690   7.652   1.261
 2802TIP3    H1 8349   3.727   7.574   1.220
 2802TIP3    H2 8350   3.726   7.653   1.349
 2803TIP3   OH2 8351   1.007   3.386   3.030
 2803TIP3    H1 8352   0.968   3.395   2.943
 2803TIP3    H2 8353   0.979   3.299   3.060
 2804TIP3   OH2 8354   6.527   4.788   1.395
 2804TIP3    H1 8355   6.529   4.808   1.488
 2804TIP3    H2 8356   6.468   4.713   1.387
 2805TIP3   OH2 8357   0.664   7.490   5.090
 2805TIP3    H1 8358   0.682   7.396   5.095
 2805TIP3    H2 8359   0.751   7.531   5.088
 2806TIP3   OH2 8360   4.066   0.189   4.518
 2806TIP3    H1 8361   4.123   0.128   4.565
 2806TIP3    H2 8362   4.057   0.151   4.431
 2807TIP3   OH2 8363   3.514   0.034   3.425
 2807TIP3    H1 8364   3.546   0.114   3.382
 2807TIP3    H2 8365   3.591  -0.001   3.470
 2808TIP3   OH2 8366   2.701   7.048   5.724
 2808TIP3    H1 8367   2.688   7.001   5.807
 2808TIP3    H2 8368   2.731   6.981   5.663
 2809TIP3   OH2 8369   6.566   4.982   4.450
 2809TIP3    H1 8370   6.568   5.064   4.400
 2809TIP3    H2 8371   6.498   4.930   4.407
 2810TIP3   OH2 8372   6.267   0.859   1.777
 2810TIP3    H1 8373   6.307   0.930   1.827
 2810TIP3    H2 8374   6.258   0.788   1.841
 2811TIP3   OH2 8375   2.935   3.221   5.242
 2811TIP3    H1 8376   3.004   3.253   5.183
 2811TIP3    H2 8377   2.974   3.145   5.285
 2812TIP3   OH2 8378   2.972   4.769   1.124
 2812TIP3    H1 8379   2.926   4.852   1.114
 2812TIP3    H2 8380   2.997   4.767   1.217
 2813TIP3   OH2 8381   1.158   0.949   0.429
 2813TIP3    H1 8382   1.105   0.969   0.506
 2813TIP3    H2 8383   1.234   0.902   0.465
 2814TIP3   OH2 8384   7.128   7.052   2.024
 2814TIP3    H1 8385   7.054   7.109   2.046
 2814TIP3    H2 8386   7.138   7.063   1.929
 2815TIP3   OH2 8387   5.918   1.528   6.347
 2815TIP3    H1 8388   5.871   1.544   6.429
 2815TIP3    H2 8389   5.939   1.616   6.314
 2816TIP3   OH2 8390   4.903   4.474   3.312
 2816TIP3    H1 8391   4.944   4.516   3.387
 2816TIP3    H2 8392   4.855   4.399   3.350
 2817TIP3   OH2 8393   0.757   7.140   1.140
 2817TIP3    H1 8394   0.771   7.183   1.225
 2817TIP3    H2 8395   0.662   7.133   1.132
 2818TIP3   OH2 8396   6.114   1.887   1.079
 2818TIP3    H1 8397   6.109   1.843   0.995
 2818TIP3    H2 8398   6.056   1.838   1.137
 2819TIP3   OH2 8399   7.705   6.302   2.660
 2819TIP3    H1 8400   7.787   6.337   2.626
 2819TIP3    H2 8401   7.686   6.356   2.737
 2820TIP3   OH2 8402   5.287   1.744   4.040
 2820TIP3    H1 8403   5.317   1.832   4.018
 2820TIP3    H2 8404   5.216   1.727   3.979
 2821TIP3   OH2 8405   2.637   0.223   4.665
 2821TIP3    H1 8406   2.632   0.288   4.735
 2821TIP3    H2 8407   2.653   0.275   4.586
 2822TIP3   OH2 8408   0.787   3.758   2.154
 2822TIP3    H1 8409   0.879   3.731   2.151
 2822TIP3    H2 8410   0.769   3.773   2.246
 2823TIP3   OH2 8411   4.678   2.698   3.160
 2823TIP3    H1 8412   4.674   2.709   3.255
 2823TIP3    H2 8413   4.763   2.657   3.145
 2824TIP3   OH2 8414   1.158   4.028   5.352
 2824TIP3    H1 8415   1.104   4.106   5.336
 2824TIP3    H2 8416   1.247   4.057   5.333
 2825TIP3   OH2 8417   2.273   6.383   0.889
 2825TIP3    H1 8418   2.361   6.419   0.898
 2825TIP3    H2 8419   2.270   6.348   0.800
 2826TIP3   OH2 8420   2.024   2.354   6.226
 2826TIP3    H1 8421   1.937   2.341   6.265
 2826TIP3    H2 8422   2.018   2.440   6.183
 2827TIP3   OH2 8423   7.674   4.947   2.639
 2827TIP3    H1 8424   7.592   4.994   2.652
 2827TIP3    H2 8425   7.667   4.870   2.696
 2828TIP3   OH2 8426   6.898   2.167   0.158
 2828TIP3    H1 8427   6.820   2.206   0.118
 2828TIP3    H2 8428   6.966   2.235   0.150
 2829TIP3   OH2 8429   5.855   5.583   4.540
 2829TIP3    H1 8430   5.832   5.670   4.508
 2829TIP3    H2 8431   5.791   5.525   4.499
 2830TIP3   OH2 8432   3.218   6.107   5.985
 2830TIP3    H1 8433   3.218   6.137   5.894
 2830TIP3    H2 8434   3.309   6.086   6.003
 2831TIP3   OH2 8435   0.284   0.266   6.623
 2831TIP3    H1 8436   0.196   0.252   6.590
 2831TIP3    H2 8437   0.273   0.282   6.717
 2832TIP3   OH2 8438   1.601   6.655   1.882
 2832TIP3    H1 8439   1.653   6.714   1.827
 2832TIP3    H2 8440   1.610   6.569   1.840
 2833TIP3   OH2 8441   5.872   5.106   6.211
 2833TIP3    H1 8442   5.855   5.192   6.172
 2833TIP3    H2 8443   5.957   5.080   6.175
 2834TIP3   OH2 8444   2.207   0.565   1.773
 2834TIP3    H1 8445   2.207   0.527   1.862
 2834TIP3    H2 8446   2.260   0.644   1.781
 2835TIP3   OH2 8447   4.832   7.087   3.045
 2835TIP3    H1 8448   4.872   7.162   3.089
 2835TIP3    H2 8449   4.865   7.091   2.956
 2836TIP3   OH2 8450   5.668   4.481   0.716
 2836TIP3    H1 8451   5.734   4.538   0.756
 2836TIP3    H2 8452   5.647   4.523   0.633
 2837TIP3   OH2 8453   7.897   6.720   0.581
 2837TIP3    H1 8454   7.821   6.668   0.554
 2837TIP3    H2 8455   7.927   6.678   0.662
 2838TIP3   OH2 8456   6.589   5.274   4.713
 2838TIP3    H1 8457   6.608   5.356   4.759
 2838TIP3    H2 8458   6.631   5.284   4.627
 2839TIP3   OH2 8459   4.136   1.832   5.253
 2839TIP3    H1 8460   4.098   1.818   5.340
 2839TIP3    H2 8461   4.174   1.920   5.256
 2840TIP3   OH2 8462   5.563   1.545   1.715
 2840TIP3    H1 8463   5.616   1.519   1.640
 2840TIP3    H2 8464   5.584   1.638   1.729
 2841TIP3   OH2 8465   8.111   3.653   0.157
 2841TIP3    H1 8466   8.041   3.711   0.184
 2841TIP3    H2 8467   8.087   3.568   0.193
 2842TIP3   OH2 8468   3.553   7.493   5.382
 2842TIP3    H1 8469   3.495   7.566   5.360
 2842TIP3    H2 8470   3.524   7.421   5.326
 2843TIP3   OH2 8471   4.027   2.474   3.615
 2843TIP3    H1 8472   4.029   2.385   3.651
 2843TIP3    H2 8473   4.119   2.499   3.606
 2844TIP3   OH2 8474   3.040   0.918   6.366
 2844TIP3    H1 8475   3.135   0.905   6.370
 2844TIP3    H2 8476   3.028   0.995   6.310
 2845TIP3   OH2 8477   0.044   4.928   4.250
 2845TIP3    H1 8478   0.097   4.848   4.245
 2845TIP3    H2 8479   0.041   4.949   4.343
 2846TIP3   OH2 8480   6.848   5.374   4.882
 2846TIP3    H1 8481   6.903   5.412   4.813
 2846TIP3    H2 8482   6.766   5.425   4.877
 2847TIP3   OH2 8483   5.415   2.874   0.714
 2847TIP3    H1 8484   5.461   2.942   0.763
 2847TIP3    H2 8485   5.472   2.855   0.640
 2848TIP3   OH2 8486   5.501   3.082   0.060
 2848TIP3    H1 8487   5.583   3.108   0.102
 2848TIP3    H2 8488   5.510   2.988   0.046
 2849TIP3   OH2 8489   2.373   6.059   1.333
 2849TIP3    H1 8490   2.463   6.086   1.351
 2849TIP3    H2 8491   2.327   6.072   1.416
 2850TIP3   OH2 8492   7.844   4.818   3.648
 2850TIP3    H1 8493   7.937   4.817   3.672
 2850TIP3    H2 8494   7.829   4.907   3.615
 2851TIP3   OH2 8495   3.974   7.730   4.629
 2851TIP3    H1 8496   3.884   7.745   4.658
 2851TIP3    H2 8497   3.977   7.638   4.606
 2852TIP3   OH2 8498   2.365   0.544   0.973
 2852TIP3    H1 8499   2.273   0.548   0.949
 2852TIP3    H2 8500   2.366   0.498   1.057
 2853TIP3   OH2 8501   6.374   3.721   6.014
 2853TIP3    H1 8502   6.437   3.654   6.042
 2853TIP3    H2 8503   6.424   3.802   6.016
 2854TIP3   OH2 8504   3.478   2.796   6.015
 2854TIP3    H1 8505   3.389   2.824   6.035
 2854TIP3    H2 8506   3.472   2.759   5.926
 2855TIP3   OH2 8507   7.530   6.952   0.482
 2855TIP3    H1 8508   7.508   7.045   0.471
 2855TIP3    H2 8509   7.583   6.932   0.404
 2856TIP3   OH2 8510   6.869   7.259   1.255
 2856TIP3    H1 8511   6.853   7.187   1.315
 2856TIP3    H2 8512   6.964   7.259   1.243
 2857TIP3   OH2 8513   5.423   5.128   6.219
 2857TIP3    H1 8514   5.330   5.154   6.221
 2857TIP3    H2 8515   5.465   5.197   6.168
 2858TIP3   OH2 8516   5.062   1.376   4.413
 2858TIP3    H1 8517   5.047   1.424   4.331
 2858TIP3    H2 8518   5.003   1.301   4.407
 2859TIP3   OH2 8519   6.030   0.223   2.811
 2859TIP3    H1 8520   6.000   0.136   2.783
 2859TIP3    H2 8521   6.079   0.256   2.736
 2860TIP3   OH2 8522   5.074   3.820   2.378
 2860TIP3    H1 8523   5.023   3.741   2.359
 2860TIP3    H2 8524   5.114   3.843   2.295
 2861TIP3   OH2 8525   7.171   3.891   2.143
 2861TIP3    H1 8526   7.169   3.968   2.199
 2861TIP3    H2 8527   7.170   3.817   2.204
 2862TIP3   OH2 8528   0.663   7.341   0.934
 2862TIP3    H1 8529   0.569   7.325   0.941
 2862TIP3    H2 8530   0.704   7.260   0.962
 2863TIP3   OH2 8531   8.250   6.823   2.386
 2863TIP3    H1 8532   8.262   6.812   2.292
 2863TIP3    H2 8533   8.231   6.736   2.419
 2864TIP3   OH2 8534   6.321   3.174   4.531
 2864TIP3    H1 8535   6.325   3.134   4.617
 2864TIP3    H2 8536   6.296   3.265   4.548
 2865TIP3   OH2 8537   1.144   0.374   5.347
 2865TIP3    H1 8538   1.098   0.290   5.342
 2865TIP3    H2 8539   1.137   0.410   5.258
 2866TIP3   OH2 8540   3.446   2.505   3.088
 2866TIP3    H1 8541   3.380   2.570   3.066
 2866TIP3    H2 8542   3.403   2.420   3.076
 2867TIP3   OH2 8543   0.589   4.994   4.743
 2867TIP3    H1 8544   0.577   4.902   4.720
 2867TIP3    H2 8545   0.501   5.031   4.744
 2868TIP3   OH2 8546   7.446   0.982   1.919
 2868TIP3    H1 8547   7.516   0.943   1.866
 2868TIP3    H2 8548   7.365   0.957   1.875
 2869TIP3   OH2 8549   5.457   4.866   5.560
 2869TIP3    H1 8550   5.395   4.839   5.491
 2869TIP3    H2 8551   5.533   4.899   5.512
 2870TIP3   OH2 8552   6.683   4.432   2.884
 2870TIP3    H1 8553   6.776   4.444   2.903
 2870TIP3    H2 8554   6.680   4.419   2.789
 2871TIP3   OH2 8555   0.942   2.440   4.461
 2871TIP3    H1 8556   0.851   2.444   4.432
 2871TIP3    H2 8557   0.978   2.364   4.415
 2872TIP3   OH2 8558   2.020   5.977   0.444
 2872TIP3    H1 8559   2.023   5.911   0.514
 2872TIP3    H2 8560   1.957   6.042   0.475
 2873TIP3   OH2 8561   2.266   3.723   5.254
 2873TIP3    H1 8562   2.281   3.816   5.270
 2873TIP3    H2 8563   2.274   3.713   5.159
 2874TIP3   OH2 8564   3.811   2.042   2.704
 2874TIP3    H1 8565   3.851   2.060   2.619
 2874TIP3    H2 8566   3.722   2.012   2.682
 2875TIP3   OH2 8567   7.698   4.019   5.416
 2875TIP3    H1 8568   7.691   4.024   5.321
 2875TIP3    H2 8569   7.791   4.030   5.434
 2876TIP3   OH2 8570   8.037   3.554   2.070
 2876TIP3    H1 8571   8.125   3.585   2.050
 2876TIP3    H2 8572   8.047   3.508   2.154
 2877TIP3   OH2 8573   3.592   5.080   4.700
 2877TIP3    H1 8574   3.560   4.994   4.728
 2877TIP3    H2 8575   3.565   5.139   4.770
 2878TIP3   OH2 8576   4.658   0.428   1.721
 2878TIP3    H1 8577   4.608   0.483   1.660
 2878TIP3    H2 8578   4.595   0.407   1.790
 2879TIP3   OH2 8579   1.292   3.895   1.146
 2879TIP3    H1 8580   1.320   3.942   1.225
 2879TIP3    H2 8581   1.242   3.820   1.179
 2880TIP3   OH2 8582   5.832   4.027   6.349
 2880TIP3    H1 8583   5.887   3.950   6.333
 2880TIP3    H2 8584   5.759   3.995   6.400
 2881TIP3   OH2 8585   7.457   0.334   2.743
 2881TIP3    H1 8586   7.463   0.395   2.669
 2881TIP3    H2 8587   7.488   0.250   2.707
 2882TIP3   OH2 8588   1.833   2.810   1.006
 2882TIP3    H1 8589   1.899   2.740   1.009
 2882TIP3    H2 8590   1.798   2.812   1.095
 2883TIP3   OH2 8591   4.858   2.943   6.174
 2883TIP3    H1 8592   4.923   3.006   6.141
 2883TIP3    H2 8593   4.897   2.857   6.157
 2884TIP3   OH2 8594   2.408   6.759   0.541
 2884TIP3    H1 8595   2.369   6.794   0.621
 2884TIP3    H2 8596   2.452   6.834   0.500
 2885TIP3   OH2 8597   2.067   4.178   6.764
 2885TIP3    H1 8598   2.050   4.132   6.681
 2885TIP3    H2 8599   1.990   4.234   6.776
 2886TIP3   OH2 8600   4.580   0.984   5.736
 2886TIP3    H1 8601   4.517   1.053   5.756
 2886TIP3    H2 8602   4.631   0.974   5.816
 2887TIP3   OH2 8603   3.980   4.914   3.013
 2887TIP3    H1 8604   3.965   4.959   3.096
 2887TIP3    H2 8605   3.993   4.822   3.037
 2888TIP3   OH2 8606   7.140   2.550   6.414
 2888TIP3    H1 8607   7.048   2.542   6.388
 2888TIP3    H2 8608   7.159   2.644   6.408
 2889TIP3   OH2 8609   2.593   1.415   2.615
 2889TIP3    H1 8610   2.501   1.422   2.641
 2889TIP3    H2 8611   2.641   1.457   2.686
 2890TIP3   OH2 8612   0.158   5.183   6.466
 2890TIP3    H1 8613   0.112   5.261   6.435
 2890TIP3    H2 8614   0.226   5.217   6.525
 2891TIP3   OH2 8615   1.025   5.914   5.959
 2891TIP3    H1 8616   1.058   5.825   5.965
 2891TIP3    H2 8617   0.930   5.904   5.950
 2892TIP3   OH2 8618   2.970   7.171   2.791
 2892TIP3    H1 8619   3.017   7.167   2.708
 2892TIP3    H2 8620   3.004   7.249   2.834
 2893TIP3   OH2 8621   4.851   6.808   0.302
 2893TIP3    H1 8622   4.793   6.734   0.285
 2893TIP3    H2 8623   4.907   6.778   0.374
 2894TIP3   OH2 8624   3.580   5.853   4.327
 2894TIP3    H1 8625   3.505   5.831   4.272
 2894TIP3    H2 8626   3.655   5.851   4.267
 2895TIP3   OH2 8627   3.930   1.668   1.038
 2895TIP3    H1 8628   3.864   1.675   1.107
 2895TIP3    H2 8629   3.982   1.747   1.045
 2896TIP3   OH2 8630   8.160   4.291   4.097
 2896TIP3    H1 8631   8.145   4.276   4.190
 2896TIP3    H2 8632   8.129   4.210   4.055
 2897TIP3   OH2 8633   1.976   5.111   2.383
 2897TIP3    H1 8634   2.065   5.136   2.407
 2897TIP3    H2 8635   1.954   5.038   2.441
 2898TIP3   OH2 8636   7.763   3.471   5.417
 2898TIP3    H1 8637   7.699   3.469   5.346
 2898TIP3    H2 8638   7.724   3.528   5.483
 2899TIP3   OH2 8639   3.884   3.780   5.798
 2899TIP3    H1 8640   3.877   3.805   5.890
 2899TIP3    H2 8641   3.890   3.863   5.750
 2900TIP3   OH2 8642   7.970   7.007   5.020
 2900TIP3    H1 8643   8.046   7.024   4.963
 2900TIP3    H2 8644   7.970   7.081   5.081
 2901TIP3   OH2 8645   7.696   0.059   3.846
 2901TIP3    H1 8646   7.699  -0.019   3.792
 2901TIP3    H2 8647   7.779   0.104   3.829
 2902TIP3   OH2 8648   3.561   2.349   1.362
 2902TIP3    H1 8649   3.619   2.319   1.432
 2902TIP3    H2 8650   3.475   2.356   1.404
 2903TIP3   OH2 8651   4.677   3.606   4.878
 2903TIP3    H1 8652   4.736   3.533   4.894
 2903TIP3    H2 8653   4.646   3.594   4.788
 2904TIP3   OH2 8654   5.726   5.047   1.809
 2904TIP3    H1 8655   5.741   5.011   1.897
 2904TIP3    H2 8656   5.776   5.129   1.808
 2905TIP3   OH2 8657   2.554   0.938   0.651
 2905TIP3    H1 8658   2.643   0.973   0.660
 2905TIP3    H2 8659   2.543   0.881   0.727
 2906TIP3   OH2 8660   2.748   5.633   1.338
 2906TIP3    H1 8661   2.769   5.714   1.292
 2906TIP3    H2 8662   2.831   5.586   1.345
 2907TIP3   OH2 8663   7.993   5.756   3.862
 2907TIP3    H1 8664   7.946   5.684   3.819
 2907TIP3    H2 8665   8.026   5.809   3.790
 2908TIP3   OH2 8666   2.661   4.879   5.747
 2908TIP3    H1 8667   2.659   4.795   5.793
 2908TIP3    H2 8668   2.663   4.855   5.654
 2909TIP3   OH2 8669   7.813   5.564   0.660
 2909TIP3    H1 8670   7.792   5.506   0.734
 2909TIP3    H2 8671   7.908   5.569   0.660
 2910TIP3   OH2 8672   4.338   0.310   1.524
 2910TIP3    H1 8673   4.426   0.336   1.497
 2910TIP3    H2 8674   4.282   0.334   1.450
 2911TIP3   OH2 8675   2.975   0.656   2.646
 2911TIP3    H1 8676   2.974   0.604   2.726
 2911TIP3    H2 8677   2.989   0.746   2.675
 2912TIP3   OH2 8678   4.145   0.795  -0.003
 2912TIP3    H1 8679   4.193   0.751   0.067
 2912TIP3    H2 8680   4.126   0.882   0.031
 2913TIP3   OH2 8681   6.249   6.151   1.982
 2913TIP3    H1 8682   6.319   6.204   1.943
 2913TIP3    H2 8683   6.288   6.065   1.995
 2914TIP3   OH2 8684   4.132   5.249   4.663
 2914TIP3    H1 8685   4.043   5.221   4.683
 2914TIP3    H2 8686   4.151   5.317   4.728
 2915TIP3   OH2 8687   3.862   4.803   4.803
 2915TIP3    H1 8688   3.939   4.803   4.860
 2915TIP3    H2 8689   3.854   4.712   4.773
 2916TIP3   OH2 8690   1.488   1.585   6.252
 2916TIP3    H1 8691   1.493   1.493   6.226
 2916TIP3    H2 8692   1.562   1.596   6.313
 2917TIP3   OH2 8693   3.275   3.849   3.185
 2917TIP3    H1 8694   3.367   3.825   3.171
 2917TIP3    H2 8695   3.252   3.902   3.108
 2918TIP3   OH2 8696   0.365   6.250   2.329
 2918TIP3    H1 8697   0.320   6.333   2.344
 2918TIP3    H2 8698   0.417   6.265   2.250
 2919TIP3   OH2 8699   3.776   6.307   4.743
 2919TIP3    H1 8700   3.736   6.249   4.808
 2919TIP3    H2 8701   3.710   6.376   4.729
 2920TIP3   OH2 8702   5.085   3.661   4.364
 2920TIP3    H1 8703   5.064   3.747   4.328
 2920TIP3    H2 8704   5.024   3.651   4.438
 2921TIP3   OH2 8705   5.542   0.992   2.760
 2921TIP3    H1 8706   5.525   0.992   2.854
 2921TIP3    H2 8707   5.456   0.999   2.720
 2922TIP3   OH2 8708   7.749   7.702   0.281
 2922TIP3    H1 8709   7.698   7.635   0.237
 2922TIP3    H2 8710   7.793   7.749   0.210
 2923TIP3   OH2 8711   1.650   4.820   5.534
 2923TIP3    H1 8712   1.730   4.784   5.573
 2923TIP3    H2 8713   1.586   4.819   5.606
 2924TIP3   OH2 8714   0.568   7.426   0.580
 2924TIP3    H1 8715   0.497   7.440   0.517
 2924TIP3    H2 8716   0.568   7.332   0.597
 2925TIP3   OH2 8717   5.438   4.490   6.246
 2925TIP3    H1 8718   5.423   4.529   6.332
 2925TIP3    H2 8719   5.358   4.441   6.228
 2926TIP3   OH2 8720   0.812   2.130   1.051
 2926TIP3    H1 8721   0.757   2.155   1.125
 2926TIP3    H2 8722   0.801   2.201   0.988
 2927TIP3   OH2 8723   3.623   5.360   4.260
 2927TIP3    H1 8724   3.595   5.342   4.170
 2927TIP3    H2 8725   3.589   5.287   4.311
 2928TIP3   OH2 8726   6.243   6.044   3.414
 2928TIP3    H1 8727   6.322   5.997   3.387
 2928TIP3    H2 8728   6.204   6.075   3.332
 2929TIP3   OH2 8729   1.521   7.582   0.802
 2929TIP3    H1 8730   1.474   7.569   0.719
 2929TIP3    H2 8731   1.488   7.665   0.836
 2930TIP3   OH2 8732   0.803   1.617   0.402
 2930TIP3    H1 8733   0.805   1.711   0.419
 2930TIP3    H2 8734   0.779   1.579   0.486
 2931TIP3   OH2 8735   2.831   6.263   3.333
 2931TIP3    H1 8736   2.889   6.196   3.368
 2931TIP3    H2 8737   2.771   6.283   3.405
 2932TIP3   OH2 8738   5.566   5.014   4.555
 2932TIP3    H1 8739   5.481   5.005   4.513
 2932TIP3    H2 8740   5.628   4.973   4.494
 2933TIP3   OH2 8741   7.753   1.368   1.054
 2933TIP3    H1 8742   7.802   1.447   1.078
 2933TIP3    H2 8743   7.802   1.330   0.981
 2934TIP3   OH2 8744   1.107   4.458   1.913
 2934TIP3    H1 8745   1.044   4.500   1.854
 2934TIP3    H2 8746   1.104   4.365   1.888
 2935TIP3   OH2 8747   4.804   5.319   0.920
 2935TIP3    H1 8748   4.768   5.408   0.923
 2935TIP3    H2 8749   4.887   5.328   0.874
 2936TIP3   OH2 8750   1.070   5.882   3.425
 2936TIP3    H1 8751   1.029   5.968   3.415
 2936TIP3    H2 8752   1.078   5.870   3.520
 2937TIP3   OH2 8753   4.774   4.249   3.407
 2937TIP3    H1 8754   4.755   4.278   3.496
 2937TIP3    H2 8755   4.741   4.159   3.404
 2938TIP3   OH2 8756   8.207   2.412   2.355
 2938TIP3    H1 8757   8.169   2.499   2.352
 2938TIP3    H2 8758   8.133   2.354   2.372
 2939TIP3   OH2 8759   8.080   1.053   0.647
 2939TIP3    H1 8760   8.159   1.097   0.681
 2939TIP3    H2 8761   8.038   1.119   0.592
 2940TIP3   OH2 8762   6.497   2.468   3.999
 2940TIP3    H1 8763   6.581   2.422   4.007
 2940TIP3    H2 8764   6.439   2.406   3.957
 2941TIP3   OH2 8765   3.492   6.910   4.177
 2941TIP3    H1 8766   3.410   6.878   4.215
 2941TIP3    H2 8767   3.514   6.987   4.229
 2942TIP3   OH2 8768   7.814  -0.016   0.626
 2942TIP3    H1 8769   7.906  -0.031   0.652
 2942TIP3    H2 8770   7.784   0.053   0.685
 2943TIP3   OH2 8771   7.787   4.443   6.218
 2943TIP3    H1 8772   7.772   4.399   6.134
 2943TIP3    H2 8773   7.709   4.496   6.231
 2944TIP3   OH2 8774   0.867   0.174   2.631
 2944TIP3    H1 8775   0.956   0.146   2.608
 2944TIP3    H2 8776   0.835   0.218   2.552
 2945TIP3   OH2 8777   0.362   3.315   6.336
 2945TIP3    H1 8778   0.386   3.297   6.245
 2945TIP3    H2 8779   0.267   3.302   6.339
 2946TIP3   OH2 8780   6.415   0.435   2.877
 2946TIP3    H1 8781   6.367   0.353   2.887
 2946TIP3    H2 8782   6.484   0.414   2.814
 2947TIP3   OH2 8783   5.051   3.140   3.400
 2947TIP3    H1 8784   5.077   3.111   3.487
 2947TIP3    H2 8785   5.083   3.230   3.394
 2948TIP3   OH2 8786   4.694   6.285   5.557
 2948TIP3    H1 8787   4.612   6.255   5.518
 2948TIP3    H2 8788   4.744   6.321   5.483
 2949TIP3   OH2 8789   8.086   7.301   1.469
 2949TIP3    H1 8790   8.094   7.267   1.380
 2949TIP3    H2 8791   8.073   7.223   1.523
 2950TIP3   OH2 8792   0.147   6.010   5.310
 2950TIP3    H1 8793   0.134   5.936   5.251
 2950TIP3    H2 8794   0.103   6.083   5.266
 2951TIP3   OH2 8795   3.834   2.178   5.296
 2951TIP3    H1 8796   3.878   2.191   5.380
 2951TIP3    H2 8797   3.770   2.108   5.313
 2952TIP3   OH2 8798   1.570   4.644   6.407
 2952TIP3    H1 8799   1.491   4.621   6.356
 2952TIP3    H2 8800   1.541   4.714   6.465
 2953TIP3   OH2 8801   4.991   5.815   5.099
 2953TIP3    H1 8802   5.047   5.884   5.135
 2953TIP3    H2 8803   4.985   5.750   5.169
 2954TIP3   OH2 8804   5.710   4.466   2.749
 2954TIP3    H1 8805   5.760   4.385   2.738
 2954TIP3    H2 8806   5.690   4.470   2.842
 2955TIP3   OH2 8807   7.023   3.544   5.945
 2955TIP3    H1 8808   7.095   3.525   5.886
 2955TIP3    H2 8809   7.032   3.638   5.964
 2956TIP3   OH2 8810   6.472   6.894   3.603
 2956TIP3    H1 8811   6.478   6.833   3.677
 2956TIP3    H2 8812   6.559   6.932   3.596
 2957TIP3   OH2 8813   3.803   1.763   3.807
 2957TIP3    H1 8814   3.757   1.695   3.758
 2957TIP3    H2 8815   3.895   1.753   3.783
 2958TIP3   OH2 8816   3.082   6.990   2.125
 2958TIP3    H1 8817   3.172   7.019   2.134
 2958TIP3    H2 8818   3.057   6.959   2.212
 2959TIP3   OH2 8819   4.209   6.070   2.762
 2959TIP3    H1 8820   4.283   6.049   2.704
 2959TIP3    H2 8821   4.206   6.166   2.763
 2960TIP3   OH2 8822   6.459   3.433   1.355
 2960TIP3    H1 8823   6.489   3.399   1.270
 2960TIP3    H2 8824   6.512   3.511   1.369
 2961TIP3   OH2 8825   4.208   2.086   4.848
 2961TIP3    H1 8826   4.265   2.034   4.791
 2961TIP3    H2 8827   4.120   2.069   4.815
 2962TIP3   OH2 8828   2.457   5.181   4.936
 2962TIP3    H1 8829   2.409   5.163   4.855
 2962TIP3    H2 8830   2.480   5.273   4.931
 2963TIP3   OH2 8831   0.998   4.096  -0.014
 2963TIP3    H1 8832   1.051   4.172   0.011
 2963TIP3    H2 8833   0.997   4.041   0.064
 2964TIP3   OH2 8834   5.879   6.543   4.133
 2964TIP3    H1 8835   5.801   6.551   4.079
 2964TIP3    H2 8836   5.916   6.458   4.109
 2965TIP3   OH2 8837   3.195   1.075   1.599
 2965TIP3    H1 8838   3.185   1.169   1.614
 2965TIP3    H2 8839   3.233   1.042   1.680
 2966TIP3   OH2 8840   4.064   5.474   2.479
 2966TIP3    H1 8841   4.121   5.403   2.449
 2966TIP3    H2 8842   4.123   5.532   2.527
 2967TIP3   OH2 8843   4.932   0.157   3.689
 2967TIP3    H1 8844   4.861   0.107   3.648
 2967TIP3    H2 8845   4.909   0.161   3.781
 2968TIP3   OH2 8846   8.266   3.536   5.369
 2968TIP3    H1 8847   8.222   3.604   5.420
 2968TIP3    H2 8848   8.330   3.498   5.429
 2969TIP3   OH2 8849   7.492   0.813   6.267
 2969TIP3    H1 8850   7.541   0.749   6.215
 2969TIP3    H2 8851   7.473   0.767   6.349
 2970TIP3   OH2 8852   3.001   0.546   2.879
 2970TIP3    H1 8853   3.037   0.549   2.968
 2970TIP3    H2 8854   2.914   0.585   2.888
 2971TIP3   OH2 8855   1.183   7.260   6.009
 2971TIP3    H1 8856   1.214   7.317   5.938
 2971TIP3    H2 8857   1.135   7.319   6.067
 2972TIP3   OH2 8858   3.506   4.124   3.095
 2972TIP3    H1 8859   3.586   4.108   3.045
 2972TIP3    H2 8860   3.513   4.066   3.170
 2973TIP3   OH2 8861   1.851   6.438   0.764
 2973TIP3    H1 8862   1.767   6.457   0.722
 2973TIP3    H2 8863   1.843   6.475   0.852
 2974TIP3   OH2 8864   1.700   3.174   5.697
 2974TIP3    H1 8865   1.712   3.108   5.765
 2974TIP3    H2 8866   1.754   3.143   5.624
 2975TIP3   OH2 8867   4.877   4.681   1.108
 2975TIP3    H1 8868   4.890   4.763   1.155
 2975TIP3    H2 8869   4.833   4.706   1.027
 2976TIP3   OH2 8870   7.695   7.056   2.846
 2976TIP3    H1 8871   7.724   7.056   2.755
 2976TIP3    H2 8872   7.633   6.983   2.852
 2977TIP3   OH2 8873   7.081   0.704   1.737
 2977TIP3    H1 8874   7.032   0.726   1.816
 2977TIP3    H2 8875   7.139   0.778   1.723
 2978TIP3   OH2 8876   3.360   2.292   2.728
 2978TIP3    H1 8877   3.277   2.328   2.759
 2978TIP3    H2 8878   3.336   2.240   2.652
 2979TIP3   OH2 8879   7.851   2.829   6.665
 2979TIP3    H1 8880   7.905   2.763   6.621
 2979TIP3    H2 8881   7.836   2.792   6.752
 2980TIP3   OH2 8882   1.791   7.202   1.444
 2980TIP3    H1 8883   1.731   7.226   1.374
 2980TIP3    H2 8884   1.871   7.252   1.425
 2981TIP3   OH2 8885   3.076   3.656   1.296
 2981TIP3    H1 8886   3.024   3.640   1.375
 2981TIP3    H2 8887   3.020   3.628   1.224
 2982TIP3   OH2 8888   2.068   7.672   1.182
 2982TIP3    H1 8889   2.087   7.731   1.255
 2982TIP3    H2 8890   2.050   7.588   1.224
 2983TIP3   OH2 8891   4.920   5.862   3.985
 2983TIP3    H1 8892   4.964   5.890   3.905
 2983TIP3    H2 8893   4.990   5.829   4.041
 2984TIP3   OH2 8894   0.828   1.255   0.119
 2984TIP3    H1 8895   0.843   1.224   0.208
 2984TIP3    H2 8896   0.879   1.196   0.064
 2985TIP3   OH2 8897   8.222   5.376   0.810
 2985TIP3    H1 8898   8.205   5.283   0.825
 2985TIP3    H2 8899   8.178   5.396   0.728
 2986TIP3   OH2 8900   2.693   1.266   0.266
 2986TIP3    H1 8901   2.655   1.187   0.304
 2986TIP3    H2 8902   2.631   1.292   0.197
 2987TIP3   OH2 8903   3.574   6.695   3.101
 2987TIP3    H1 8904   3.640   6.741   3.153
 2987TIP3    H2 8905   3.491   6.735   3.127
 2988TIP3   OH2 8906   8.226   2.172   5.970
 2988TIP3    H1 8907   8.186   2.125   6.043
 2988TIP3    H2 8908   8.187   2.134   5.892
 2989TIP3   OH2 8909   5.023   7.009   0.154
 2989TIP3    H1 8910   4.981   7.008   0.240
 2989TIP3    H2 8911   4.960   7.055   0.098
 2990TIP3   OH2 8912   2.818   6.706   1.896
 2990TIP3    H1 8913   2.754   6.771   1.926
 2990TIP3    H2 8914   2.816   6.638   1.963
 2991TIP3   OH2 8915   1.708   3.798   1.721
 2991TIP3    H1 8916   1.779   3.858   1.742
 2991TIP3    H2 8917   1.692   3.811   1.628
 2992TIP3   OH2 8918   7.441   7.715   0.605
 2992TIP3    H1 8919   7.354   7.717   0.645
 2992TIP3    H2 8920   7.465   7.807   0.593
 2993TIP3   OH2 8921   3.426   6.501   4.272
 2993TIP3    H1 8922   3.508   6.477   4.229
 2993TIP3    H2 8923   3.370   6.424   4.262
 2994TIP3   OH2 8924   2.233   7.009   3.032
 2994TIP3    H1 8925   2.294   6.963   2.974
 2994TIP3    H2 8926   2.172   6.941   3.062
 2995TIP3   OH2 8927   2.008   3.115   5.527
 2995TIP3    H1 8928   1.955   3.187   5.491
 2995TIP3    H2 8929   2.068   3.158   5.588
 2996TIP3   OH2 8930   5.504   0.566   3.355
 2996TIP3    H1 8931   5.490   0.472   3.365
 2996TIP3    H2 8932   5.557   0.573   3.275
 2997TIP3   OH2 8933   1.401   6.759   2.039
 2997TIP3    H1 8934   1.358   6.687   2.085
 2997TIP3    H2 8935   1.451   6.717   1.969
 2998TIP3   OH2 8936   5.301   0.091   1.530
 2998TIP3    H1 8937   5.345   0.031   1.591
 2998TIP3    H2 8938   5.274   0.035   1.457
 2999TIP3   OH2 8939   7.282   0.260   2.178
 2999TIP3    H1 8940   7.247   0.172   2.165
 2999TIP3    H2 8941   7.208   0.311   2.211
 3000TIP3   OH2 8942   0.329   2.670   4.017
 3000TIP3    H1 8943   0.257   2.693   4.076
 3000TIP3    H2 8944   0.355   2.752   3.977
 3001TIP3   OH2 8945   4.562   5.335   2.142
 3001TIP3    H1 8946   4.585   5.292   2.060
 3001TIP3    H2 8947   4.638   5.320   2.199
 3002TIP3   OH2 8948   7.915   2.891   2.026
 3002TIP3    H1 8949   7.848   2.956   2.002
 3002TIP3    H2 8950   7.922   2.835   1.949
 3003TIP3   OH2 8951   0.753   6.600   5.481
 3003TIP3    H1 8952   0.735   6.625   5.571
 3003TIP3    H2 8953   0.799   6.674   5.443
 3004TIP3   OH2 8954   5.958   7.695   2.039
 3004TIP3    H1 8955   6.014   7.706   2.116
 3004TIP3    H2 8956   5.878   7.743   2.061
 3005TIP3   OH2 8957   8.095   1.095   5.551
 3005TIP3    H1 8958   8.155   1.040   5.500
 3005TIP3    H2 8959   8.135   1.182   5.549
 3006TIP3   OH2 8960   2.406   6.842   3.544
 3006TIP3    H1 8961   2.455   6.831   3.625
 3006TIP3    H2 8962   2.320   6.874   3.572
 3007TIP3   OH2 8963   4.484   4.509   5.763
 3007TIP3    H1 8964   4.570   4.497   5.804
 3007TIP3    H2 8965   4.473   4.432   5.708
 3008TIP3   OH2 8966   2.687   2.378   2.279
 3008TIP3    H1 8967   2.693   2.315   2.207
 3008TIP3    H2 8968   2.680   2.463   2.236
 3009TIP3   OH2 8969   5.271   7.770   2.950
 3009TIP3    H1 8970   5.332   7.696   2.944
 3009TIP3    H2 8971   5.325   7.846   2.926
 3010TIP3   OH2 8972   4.722   4.438   6.536
 3010TIP3    H1 8973   4.813   4.425   6.561
 3010TIP3    H2 8974   4.673   4.430   6.618
 3011TIP3   OH2 8975   6.664   2.296   1.348
 3011TIP3    H1 8976   6.753   2.290   1.384
 3011TIP3    H2 8977   6.642   2.389   1.351
 3012TIP3   OH2 8978   5.389   6.856   1.225
 3012TIP3    H1 8979   5.368   6.822   1.312
 3012TIP3    H2 8980   5.452   6.926   1.242
 3013TIP3   OH2 8981   1.101   5.526   0.716
 3013TIP3    H1 8982   1.123   5.617   0.699
 3013TIP3    H2 8983   1.015   5.514   0.675
 3014TIP3   OH2 8984   1.912   3.774   3.964
 3014TIP3    H1 8985   1.860   3.734   3.894
 3014TIP3    H2 8986   1.857   3.765   4.042
 3015TIP3   OH2 8987   6.087   2.057   0.287
 3015TIP3    H1 8988   5.995   2.050   0.261
 3015TIP3    H2 8989   6.134   2.071   0.205
 3016TIP3   OH2 8990   3.402   6.071   3.186
 3016TIP3    H1 8991   3.466   6.081   3.257
 3016TIP3    H2 8992   3.339   6.141   3.201
 3017TIP3   OH2 8993   0.488   7.080   3.395
 3017TIP3    H1 8994   0.462   7.012   3.457
 3017TIP3    H2 8995   0.578   7.103   3.421
 3018TIP3   OH2 8996   7.528   7.728   1.830
 3018TIP3    H1 8997   7.518   7.707   1.923
 3018TIP3    H2 8998   7.623   7.728   1.815
 3019TIP3   OH2 8999   3.728   4.654   2.960
 3019TIP3    H1 9000   3.816   4.619   2.949
 3019TIP3    H2 9001   3.709   4.697   2.876
 3020TIP3   OH2 9002   0.142   4.530   4.733
 3020TIP3    H1 9003   0.091   4.469   4.787
 3020TIP3    H2 9004   0.231   4.524   4.769
 3021TIP3   OH2 9005   4.000   5.946   1.590
 3021TIP3    H1 9006   3.947   5.996   1.528
 3021TIP3    H2 9007   4.066   6.009   1.622
 3022TIP3   OH2 9008   1.096   4.125   1.545
 3022TIP3    H1 9009   1.064   4.141   1.634
 3022TIP3    H2 9010   1.191   4.116   1.555
 3023TIP3   OH2 9011   7.559   2.744   4.063
 3023TIP3    H1 9012   7.484   2.801   4.044
 3023TIP3    H2 9013   7.530   2.691   4.137
 3024TIP3   OH2 9014   6.549   0.548   5.666
 3024TIP3    H1 9015   6.629   0.518   5.707
 3024TIP3    H2 9016   6.568   0.638   5.638
 3025TIP3   OH2 9017   7.258   7.392   5.405
 3025TIP3    H1 9018   7.182   7.445   5.381
 3025TIP3    H2 9019   7.311   7.388   5.325
 3026TIP3   OH2 9020   1.235   0.177   3.931
 3026TIP3    H1 9021   1.183   0.161   3.852
 3026TIP3    H2 9022   1.290   0.100   3.941
 3027TIP3   OH2 9023   7.661   2.892   6.488
 3027TIP3    H1 9024   7.676   2.983   6.460
 3027TIP3    H2 9025   7.744   2.865   6.526
 3028TIP3   OH2 9026   4.504   2.923   2.492
 3028TIP3    H1 9027   4.538   2.997   2.441
 3028TIP3    H2 9028   4.412   2.918   2.468
 3029TIP3   OH2 9029   7.858   4.544   2.905
 3029TIP3    H1 9030   7.918   4.524   2.977
 3029TIP3    H2 9031   7.880   4.479   2.838
 3030TIP3   OH2 9032   6.149   7.473   1.621
 3030TIP3    H1 9033   6.236   7.504   1.598
 3030TIP3    H2 9034   6.109   7.546   1.668
 3031TIP3   OH2 9035   3.303   3.860   0.806
 3031TIP3    H1 9036   3.378   3.899   0.852
 3031TIP3    H2 9037   3.333   3.851   0.715
 3032TIP3   OH2 9038   6.108   0.170   3.095
 3032TIP3    H1 9039   6.016   0.189   3.111
 3032TIP3    H2 9040   6.115   0.165   3.000
 3033TIP3   OH2 9041   6.025   3.594   5.978
 3033TIP3    H1 9042   5.963   3.631   5.915
 3033TIP3    H2 9043   5.989   3.620   6.064
 3034TIP3   OH2 9044   3.148   1.742   3.119
 3034TIP3    H1 9045   3.056   1.719   3.133
 3034TIP3    H2 9046   3.148   1.837   3.105
 3035TIP3   OH2 9047   7.760   1.092   2.046
 3035TIP3    H1 9048   7.703   1.041   2.105
 3035TIP3    H2 9049   7.835   1.115   2.101
 3036TIP3   OH2 9050   4.608   4.294   3.174
 3036TIP3    H1 9051   4.514   4.286   3.189
 3036TIP3    H2 9052   4.647   4.241   3.244
 3037TIP3   OH2 9053   2.876   5.496   1.628
 3037TIP3    H1 9054   2.899   5.488   1.535
 3037TIP3    H2 9055   2.783   5.474   1.631
 3038TIP3   OH2 9056   5.265   7.562   4.148
 3038TIP3    H1 9057   5.228   7.478   4.121
 3038TIP3    H2 9058   5.360   7.548   4.144
 3039TIP3   OH2 9059   3.107   6.388   5.848
 3039TIP3    H1 9060   3.081   6.414   5.937
 3039TIP3    H2 9061   3.039   6.326   5.821
 3040TIP3   OH2 9062   7.787   6.798   0.145
 3040TIP3    H1 9063   7.832   6.840   0.071
 3040TIP3    H2 9064   7.818   6.847   0.222
 3041TIP3   OH2 9065   0.412   6.015   1.764
 3041TIP3    H1 9066   0.381   6.103   1.741
 3041TIP3    H2 9067   0.502   6.029   1.793
 3042TIP3   OH2 9068   1.128   6.299   2.028
 3042TIP3    H1 9069   1.124   6.208   2.056
 3042TIP3    H2 9070   1.206   6.304   1.973
 3043TIP3   OH2 9071   7.961   0.492   4.779
 3043TIP3    H1 9072   7.941   0.399   4.794
 3043TIP3    H2 9073   7.941   0.506   4.687
 3044TIP3   OH2 9074   4.208   7.338   0.369
 3044TIP3    H1 9075   4.158   7.277   0.424
 3044TIP3    H2 9076   4.289   7.352   0.417
 3045TIP3   OH2 9077   7.988   4.080   5.456
 3045TIP3    H1 9078   8.058   4.128   5.499
 3045TIP3    H2 9079   8.021   3.990   5.450
 3046TIP3   OH2 9080   6.389   7.154   4.602
 3046TIP3    H1 9081   6.394   7.250   4.600
 3046TIP3    H2 9082   6.425   7.130   4.688
 3047TIP3   OH2 9083   8.135   4.001   6.729
 3047TIP3    H1 9084   8.171   3.953   6.804
 3047TIP3    H2 9085   8.165   4.091   6.740
 3048TIP3   OH2 9086   2.923   6.584   6.658
 3048TIP3    H1 9087   2.943   6.608   6.567
 3048TIP3    H2 9088   2.958   6.495   6.667
 3049TIP3   OH2 9089   7.563   6.613   5.202
 3049TIP3    H1 9090   7.541   6.524   5.174
 3049TIP3    H2 9091   7.650   6.629   5.164
 3050TIP3   OH2 9092   2.341   1.713   6.595
 3050TIP3    H1 9093   2.261   1.661   6.602
 3050TIP3    H2 9094   2.325   1.789   6.651
 3051TIP3   OH2 9095   3.332   2.561   1.725
 3051TIP3    H1 9096   3.380   2.542   1.806
 3051TIP3    H2 9097   3.346   2.654   1.710
 3052TIP3   OH2 9098   2.791   0.673   3.086
 3052TIP3    H1 9099   2.792   0.607   3.156
 3052TIP3    H2 9100   2.699   0.698   3.078
 3053TIP3   OH2 9101   1.206   2.380   6.440
 3053TIP3    H1 9102   1.238   2.328   6.366
 3053TIP3    H2 9103   1.279   2.439   6.461
 3054TIP3   OH2 9104   2.361   0.071   2.871
 3054TIP3    H1 9105   2.281   0.082   2.922
 3054TIP3    H2 9106   2.370  -0.024   2.861
 3055TIP3   OH2 9107   6.259   4.404   3.520
 3055TIP3    H1 9108   6.302   4.383   3.437
 3055TIP3    H2 9109   6.261   4.323   3.570
 3056TIP3   OH2 9110   3.730   1.384   1.302
 3056TIP3    H1 9111   3.809   1.437   1.314
 3056TIP3    H2 9112   3.665   1.424   1.360
 3057TIP3   OH2 9113   5.841   4.425   6.532
 3057TIP3    H1 9114   5.898   4.367   6.481
 3057TIP3    H2 9115   5.900   4.491   6.568
 3058TIP3   OH2 9116   0.844   3.355   0.560
 3058TIP3    H1 9117   0.768   3.411   0.542
 3058TIP3    H2 9118   0.811   3.290   0.622
 3059TIP3   OH2 9119   0.434   5.625   2.608
 3059TIP3    H1 9120   0.382   5.567   2.663
 3059TIP3    H2 9121   0.524   5.596   2.620
 3060TIP3   OH2 9122   8.142   6.004   3.780
 3060TIP3    H1 9123   8.151   6.043   3.694
 3060TIP3    H2 9124   8.233   5.990   3.809
 3061TIP3   OH2 9125   2.263   0.394   2.414
 3061TIP3    H1 9126   2.210   0.325   2.375
 3061TIP3    H2 9127   2.322   0.422   2.343
 3062TIP3   OH2 9128   4.679   5.042   5.778
 3062TIP3    H1 9129   4.710   5.031   5.868
 3062TIP3    H2 9130   4.631   4.961   5.760
 3063TIP3   OH2 9131   0.835   0.783   6.161
 3063TIP3    H1 9132   0.777   0.743   6.226
 3063TIP3    H2 9133   0.919   0.740   6.175
 3064TIP3   OH2 9134   4.237   2.136   6.735
 3064TIP3    H1 9135   4.232   2.223   6.696
 3064TIP3    H2 9136   4.330   2.114   6.732
 3065TIP3   OH2 9137   4.630   7.519   6.286
 3065TIP3    H1 9138   4.622   7.521   6.381
 3065TIP3    H2 9139   4.671   7.602   6.264
 3066TIP3   OH2 9140   5.050   3.100   3.135
 3066TIP3    H1 9141   4.978   3.052   3.094
 3066TIP3    H2 9142   5.037   3.088   3.229
 3067TIP3   OH2 9143   2.149   2.484   5.264
 3067TIP3    H1 9144   2.070   2.433   5.242
 3067TIP3    H2 9145   2.215   2.418   5.283
 3068TIP3   OH2 9146   4.674   2.119   4.340
 3068TIP3    H1 9147   4.691   2.104   4.433
 3068TIP3    H2 9148   4.591   2.074   4.323
 3069TIP3   OH2 9149   0.900   3.228   1.773
 3069TIP3    H1 9150   0.866   3.223   1.863
 3069TIP3    H2 9151   0.967   3.160   1.770
 3070TIP3   OH2 9152   0.323   0.722   1.642
 3070TIP3    H1 9153   0.239   0.758   1.613
 3070TIP3    H2 9154   0.389   0.778   1.599
 3071TIP3   OH2 9155   1.818   1.403   2.631
 3071TIP3    H1 9156   1.812   1.312   2.660
 3071TIP3    H2 9157   1.781   1.453   2.703
 3072TIP3   OH2 9158   8.238   3.992   6.084
 3072TIP3    H1 9159   8.315   3.949   6.047
 3072TIP3    H2 9160   8.229   4.073   6.034
 3073TIP3   OH2 9161   7.939   6.713   3.266
 3073TIP3    H1 9162   7.995   6.779   3.306
 3073TIP3    H2 9163   7.922   6.649   3.335
 3074TIP3   OH2 9164   3.863   6.290   3.828
 3074TIP3    H1 9165   3.903   6.318   3.746
 3074TIP3    H2 9166   3.935   6.285   3.890
 3075TIP3   OH2 9167   2.620   3.579   4.072
 3075TIP3    H1 9168   2.703   3.619   4.049
 3075TIP3    H2 9169   2.644   3.496   4.113
 3076TIP3   OH2 9170   2.960   3.775   2.949
 3076TIP3    H1 9171   2.933   3.758   2.859
 3076TIP3    H2 9172   3.055   3.789   2.943
 3077TIP3   OH2 9173   4.870   7.240   4.758
 3077TIP3    H1 9174   4.850   7.151   4.790
 3077TIP3    H2 9175   4.834   7.298   4.825
 3078TIP3   OH2 9176   7.833   0.712   2.952
 3078TIP3    H1 9177   7.893   0.781   2.979
 3078TIP3    H2 9178   7.862   0.635   3.000
 3079TIP3   OH2 9179   5.643   5.900   2.090
 3079TIP3    H1 9180   5.573   5.845   2.126
 3079TIP3    H2 9181   5.651   5.870   1.999
 3080TIP3   OH2 9182   7.630   3.850   4.830
 3080TIP3    H1 9183   7.618   3.755   4.833
 3080TIP3    H2 9184   7.725   3.862   4.830
 3081TIP3   OH2 9185   2.787   2.186   3.420
 3081TIP3    H1 9186   2.804   2.233   3.338
 3081TIP3    H2 9187   2.785   2.255   3.487
 3082TIP3   OH2 9188   1.381   1.389   1.759
 3082TIP3    H1 9189   1.364   1.394   1.665
 3082TIP3    H2 9190   1.349   1.472   1.794
 3083TIP3   OH2 9191   1.890   3.172   3.078
 3083TIP3    H1 9192   1.846   3.217   3.150
 3083TIP3    H2 9193   1.978   3.154   3.111
 3084TIP3   OH2 9194   2.014   1.730   3.535
 3084TIP3    H1 9195   2.029   1.754   3.444
 3084TIP3    H2 9196   1.926   1.692   3.536
 3085TIP3   OH2 9197   6.952   5.950   1.507
 3085TIP3    H1 9198   6.896   6.027   1.497
 3085TIP3    H2 9199   6.970   5.945   1.601
 3086TIP3   OH2 9200   1.357   5.975   6.254
 3086TIP3    H1 9201   1.407   5.989   6.334
 3086TIP3    H2 9202   1.303   5.898   6.272
 3087TIP3   OH2 9203   4.834   2.619   0.968
 3087TIP3    H1 9204   4.769   2.604   0.899
 3087TIP3    H2 9205   4.870   2.533   0.986
 3088TIP3   OH2 9206   0.586   6.851   4.054
 3088TIP3    H1 9207   0.657   6.907   4.085
 3088TIP3    H2 9208   0.560   6.890   3.970
 3089TIP3   OH2 9209   0.629   3.205   2.647
 3089TIP3    H1 9210   0.541   3.210   2.686
 3089TIP3    H2 9211   0.683   3.168   2.716
 3090TIP3   OH2 9212   4.841   6.353   4.509
 3090TIP3    H1 9213   4.912   6.295   4.482
 3090TIP3    H2 9214   4.791   6.370   4.429
 3091TIP3   OH2 9215   2.372   0.692   2.248
 3091TIP3    H1 9216   2.345   0.781   2.270
 3091TIP3    H2 9217   2.463   0.687   2.276
 3092TIP3   OH2 9218   1.999   7.160   4.230
 3092TIP3    H1 9219   1.927   7.136   4.172
 3092TIP3    H2 9220   1.968   7.139   4.318
 3093TIP3   OH2 9221   5.414   1.337   6.584
 3093TIP3    H1 9222   5.450   1.415   6.542
 3093TIP3    H2 9223   5.488   1.276   6.587
 3094TIP3   OH2 9224   1.636   7.309   6.441
 3094TIP3    H1 9225   1.613   7.376   6.377
 3094TIP3    H2 9226   1.727   7.288   6.421
 3095TIP3   OH2 9227   3.439   3.150   5.655
 3095TIP3    H1 9228   3.456   3.244   5.658
 3095TIP3    H2 9229   3.491   3.120   5.580
 3096TIP3   OH2 9230   2.290   4.842   1.457
 3096TIP3    H1 9231   2.331   4.757   1.472
 3096TIP3    H2 9232   2.214   4.822   1.401
 3097TIP3   OH2 9233   8.152   5.337   4.675
 3097TIP3    H1 9234   8.182   5.358   4.763
 3097TIP3    H2 9235   8.116   5.248   4.682
 3098TIP3   OH2 9236   0.694   1.155   1.427
 3098TIP3    H1 9237   0.658   1.183   1.343
 3098TIP3    H2 9238   0.786   1.138   1.410
 3099TIP3   OH2 9239   6.085   1.235   0.271
 3099TIP3    H1 9240   6.082   1.292   0.195
 3099TIP3    H2 9241   6.080   1.295   0.346
 3100TIP3   OH2 9242   7.480   7.130   1.938
 3100TIP3    H1 9243   7.565   7.172   1.938
 3100TIP3    H2 9244   7.441   7.153   2.022
 3101TIP3   OH2 9245   0.338   1.217   0.613
 3101TIP3    H1 9246   0.358   1.129   0.644
 3101TIP3    H2 9247   0.345   1.211   0.518
 3102TIP3   OH2 9248   8.265   1.940   1.357
 3102TIP3    H1 9249   8.256   2.034   1.347
 3102TIP3    H2 9250   8.349   1.928   1.401
 3103TIP3   OH2 9251   7.966   4.273   0.664
 3103TIP3    H1 9252   7.902   4.303   0.599
 3103TIP3    H2 9253   7.938   4.314   0.746
 3104TIP3   OH2 9254   5.348   4.438   2.276
 3104TIP3    H1 9255   5.363   4.343   2.272
 3104TIP3    H2 9256   5.294   4.451   2.353
 3105TIP3   OH2 9257   6.324   3.199   6.203
 3105TIP3    H1 9258   6.411   3.175   6.172
 3105TIP3    H2 9259   6.293   3.123   6.251
 3106TIP3   OH2 9260   7.225   5.654   3.634
 3106TIP3    H1 9261   7.257   5.692   3.552
 3106TIP3    H2 9262   7.267   5.706   3.703
 3107TIP3   OH2 9263   8.083   1.840   5.904
 3107TIP3    H1 9264   8.169   1.872   5.930
 3107TIP3    H2 9265   8.084   1.747   5.927
 3108TIP3   OH2 9266   5.463   4.807   2.194
 3108TIP3    H1 9267   5.462   4.836   2.286
 3108TIP3    H2 9268   5.414   4.875   2.147
 3109TIP3   OH2 9269   6.098   6.341   4.027
 3109TIP3    H1 9270   6.102   6.257   3.980
 3109TIP3    H2 9271   6.189   6.359   4.049
 3110TIP3   OH2 9272   3.610   2.924   4.585
 3110TIP3    H1 9273   3.637   2.935   4.494
 3110TIP3    H2 9274   3.692   2.918   4.634
 3111TIP3   OH2 9275   8.107   3.128   1.863
 3111TIP3    H1 9276   8.015   3.145   1.885
 3111TIP3    H2 9277   8.137   3.068   1.930
 3112TIP3   OH2 9278   4.713   0.164   4.544
 3112TIP3    H1 9279   4.732   0.234   4.481
 3112TIP3    H2 9280   4.636   0.119   4.508
 3113TIP3   OH2 9281   0.172   1.714   3.397
 3113TIP3    H1 9282   0.082   1.748   3.402
 3113TIP3    H2 9283   0.192   1.687   3.487
 3114TIP3   OH2 9284   4.163   7.844   4.271
 3114TIP3    H1 9285   4.240   7.826   4.217
 3114TIP3    H2 9286   4.133   7.758   4.299
 3115TIP3   OH2 9287   6.481   6.541   1.783
 3115TIP3    H1 9288   6.515   6.623   1.819
 3115TIP3    H2 9289   6.478   6.556   1.688
 3116TIP3   OH2 9290   7.975   7.019   1.479
 3116TIP3    H1 9291   7.888   6.982   1.492
 3116TIP3    H2 9292   8.008   6.976   1.401
 3117TIP3   OH2 9293   6.923   6.769   4.561
 3117TIP3    H1 9294   6.989   6.743   4.498
 3117TIP3    H2 9295   6.891   6.854   4.530
 3118TIP3   OH2 9296   4.912   5.357   3.114
 3118TIP3    H1 9297   4.879   5.380   3.201
 3118TIP3    H2 9298   5.007   5.368   3.120
 3119TIP3   OH2 9299   1.574   1.184   1.725
 3119TIP3    H1 9300   1.510   1.252   1.702
 3119TIP3    H2 9301   1.644   1.232   1.769
 3120TIP3   OH2 9302   4.621   2.897   6.295
 3120TIP3    H1 9303   4.604   2.931   6.383
 3120TIP3    H2 9304   4.710   2.924   6.275
 3121TIP3   OH2 9305   4.382   2.205   0.974
 3121TIP3    H1 9306   4.351   2.120   1.006
 3121TIP3    H2 9307   4.332   2.269   1.025
 3122TIP3   OH2 9308   7.845   2.216   0.822
 3122TIP3    H1 9309   7.839   2.120   0.826
 3122TIP3    H2 9310   7.863   2.243   0.912
 3123TIP3   OH2 9311   4.491   3.096   0.727
 3123TIP3    H1 9312   4.459   3.177   0.766
 3123TIP3    H2 9313   4.426   3.030   0.751
 3124TIP3   OH2 9314   3.422   1.255   1.423
 3124TIP3    H1 9315   3.376   1.202   1.358
 3124TIP3    H2 9316   3.511   1.219   1.425
 3125TIP3   OH2 9317   7.098   3.805   1.582
 3125TIP3    H1 9318   7.193   3.816   1.571
 3125TIP3    H2 9319   7.090   3.744   1.655
 3126TIP3   OH2 9320   1.578   3.803   3.541
 3126TIP3    H1 9321   1.604   3.862   3.471
 3126TIP3    H2 9322   1.513   3.745   3.501
 3127TIP3   OH2 9323   1.777   0.519   5.862
 3127TIP3    H1 9324   1.810   0.429   5.872
 3127TIP3    H2 9325   1.700   0.510   5.805
 3128TIP3   OH2 9326   3.233   7.758   4.555
 3128TIP3    H1 9327   3.160   7.764   4.493
 3128TIP3    H2 9328   3.211   7.685   4.612
 3129TIP3   OH2 9329   1.761   1.025   0.053
 3129TIP3    H1 9330   1.744   1.085   0.125
 3129TIP3    H2 9331   1.803   1.079  -0.014
 3130TIP3   OH2 9332   2.207   6.734   4.773
 3130TIP3    H1 9333   2.236   6.736   4.681
 3130TIP3    H2 9334   2.278   6.688   4.818
 3131TIP3   OH2 9335   5.897   1.756   3.208
 3131TIP3    H1 9336   5.935   1.829   3.159
 3131TIP3    H2 9337   5.939   1.761   3.294
 3132TIP3   OH2 9338   3.047   5.732   3.011
 3132TIP3    H1 9339   3.140   5.729   3.033
 3132TIP3    H2 9340   3.041   5.798   2.942
 3133TIP3   OH2 9341   5.281   1.302   5.243
 3133TIP3    H1 9342   5.217   1.310   5.172
 3133TIP3    H2 9343   5.228   1.292   5.322
 3134TIP3   OH2 9344   7.701   3.194   1.650
 3134TIP3    H1 9345   7.773   3.200   1.587
 3134TIP3    H2 9346   7.732   3.241   1.727
 3135TIP3   OH2 9347   1.251   2.292   6.193
 3135TIP3    H1 9348   1.293   2.340   6.122
 3135TIP3    H2 9349   1.159   2.286   6.167
 3136TIP3   OH2 9350   0.280   0.975   2.079
 3136TIP3    H1 9351   0.231   0.897   2.053
 3136TIP3    H2 9352   0.335   0.946   2.152
 3137TIP3   OH2 9353   6.975   3.491   0.183
 3137TIP3    H1 9354   7.032   3.531   0.118
 3137TIP3    H2 9355   6.917   3.433   0.133
 3138TIP3   OH2 9356   6.649   6.208   4.253
 3138TIP3    H1 9357   6.693   6.257   4.322
 3138TIP3    H2 9358   6.662   6.116   4.276
 3139TIP3   OH2 9359   3.564   7.523   0.193
 3139TIP3    H1 9360   3.493   7.530   0.257
 3139TIP3    H2 9361   3.632   7.582   0.227
 3140TIP3   OH2 9362   7.041   2.918   0.856
 3140TIP3    H1 9363   7.031   2.894   0.763
 3140TIP3    H2 9364   7.080   3.005   0.854
 3141TIP3   OH2 9365   3.751   5.353   2.958
 3141TIP3    H1 9366   3.794   5.345   2.873
 3141TIP3    H2 9367   3.717   5.265   2.976
 3142TIP3   OH2 9368   1.565   0.904   1.410
 3142TIP3    H1 9369   1.581   0.829   1.466
 3142TIP3    H2 9370   1.643   0.910   1.355
 3143TIP3   OH2 9371   7.332   5.713   5.952
 3143TIP3    H1 9372   7.319   5.677   6.040
 3143TIP3    H2 9373   7.266   5.668   5.898
 3144TIP3   OH2 9374   7.305   5.699   3.001
 3144TIP3    H1 9375   7.233   5.655   2.956
 3144TIP3    H2 9376   7.381   5.645   2.982
 3145TIP3   OH2 9377   6.271   1.509   4.013
 3145TIP3    H1 9378   6.299   1.500   4.104
 3145TIP3    H2 9379   6.192   1.562   4.017
 3146TIP3   OH2 9380   2.974   7.166   2.382
 3146TIP3    H1 9381   3.034   7.150   2.455
 3146TIP3    H2 9382   2.906   7.099   2.392
 3147TIP3   OH2 9383   8.123   2.706   3.361
 3147TIP3    H1 9384   8.065   2.706   3.438
 3147TIP3    H2 9385   8.096   2.783   3.311
 3148TIP3   OH2 9386   5.496   6.335   6.349
 3148TIP3    H1 9387   5.439   6.334   6.426
 3148TIP3    H2 9388   5.525   6.244   6.340
 3149TIP3   OH2 9389   5.549   1.244   0.916
 3149TIP3    H1 9390   5.572   1.304   0.987
 3149TIP3    H2 9391   5.631   1.228   0.870
 3150TIP3   OH2 9392   0.510   6.350   1.607
 3150TIP3    H1 9393   0.462   6.372   1.527
 3150TIP3    H2 9394   0.591   6.401   1.601
 3151TIP3   OH2 9395   0.859   6.353   1.183
 3151TIP3    H1 9396   0.899   6.324   1.265
 3151TIP3    H2 9397   0.780   6.299   1.175
 3152TIP3   OH2 9398   7.948   3.122   2.724
 3152TIP3    H1 9399   7.945   3.090   2.814
 3152TIP3    H2 9400   7.981   3.212   2.731
 3153TIP3   OH2 9401   6.247   0.846   4.655
 3153TIP3    H1 9402   6.175   0.790   4.684
 3153TIP3    H2 9403   6.321   0.819   4.710
 3154TIP3   OH2 9404   2.438   7.058   3.201
 3154TIP3    H1 9405   2.360   7.041   3.148
 3154TIP3    H2 9406   2.511   7.026   3.148
 3155TIP3   OH2 9407   2.233   2.317   3.288
 3155TIP3    H1 9408   2.296   2.376   3.327
 3155TIP3    H2 9409   2.169   2.300   3.357
 3156TIP3   OH2 9410   4.329   6.312   3.398
 3156TIP3    H1 9411   4.238   6.294   3.373
 3156TIP3    H2 9412   4.379   6.295   3.318
 3157TIP3   OH2 9413   2.029   0.840   3.974
 3157TIP3    H1 9414   1.977   0.873   3.901
 3157TIP3    H2 9415   1.967   0.833   4.047
 3158TIP3   OH2 9416  -0.022   1.007   1.071
 3158TIP3    H1 9417  -0.097   0.948   1.068
 3158TIP3    H2 9418   0.051   0.953   1.040
 3159TIP3   OH2 9419   7.514   1.800   3.120
 3159TIP3    H1 9420   7.524   1.711   3.087
 3159TIP3    H2 9421   7.555   1.855   3.053
 3160TIP3   OH2 9422   1.517   4.801   0.328
 3160TIP3    H1 9423   1.591   4.817   0.270
 3160TIP3    H2 9424   1.503   4.884   0.374
 3161TIP3   OH2 9425   0.986   6.717   6.118
 3161TIP3    H1 9426   1.029   6.739   6.201
 3161TIP3    H2 9427   0.893   6.731   6.134
 3162TIP3   OH2 9428   4.956   2.305   1.352
 3162TIP3    H1 9429   4.903   2.229   1.375
 3162TIP3    H2 9430   5.046   2.276   1.363
 3163TIP3   OH2 9431   2.975   1.575   6.306
 3163TIP3    H1 9432   2.985   1.637   6.379
 3163TIP3    H2 9433   3.009   1.492   6.340
 3164TIP3   OH2 9434   7.735   0.631   2.681
 3164TIP3    H1 9435   7.770   0.692   2.745
 3164TIP3    H2 9436   7.799   0.560   2.679
 3165TIP3   OH2 9437   6.627   0.861   5.190
 3165TIP3    H1 9438   6.677   0.935   5.224
 3165TIP3    H2 9439   6.602   0.887   5.102
 3166TIP3   OH2 9440   4.256   4.606   1.282
 3166TIP3    H1 9441   4.226   4.536   1.224
 3166TIP3    H2 9442   4.303   4.562   1.352
 3167TIP3   OH2 9443   7.118   1.341   3.197
 3167TIP3    H1 9444   7.023   1.348   3.185
 3167TIP3    H2 9445   7.133   1.376   3.285
 3168TIP3   OH2 9446   0.644   2.841   4.429
 3168TIP3    H1 9447   0.636   2.790   4.509
 3168TIP3    H2 9448   0.647   2.775   4.359
 3169TIP3   OH2 9449   7.547   4.285   4.163
 3169TIP3    H1 9450   7.562   4.350   4.231
 3169TIP3    H2 9451   7.613   4.217   4.180
 3170TIP3   OH2 9452   2.356   3.922   0.886
 3170TIP3    H1 9453   2.378   3.834   0.855
 3170TIP3    H2 9454   2.427   3.945   0.946
 3171TIP3   OH2 9455   6.869   6.830   0.298
 3171TIP3    H1 9456   6.958   6.859   0.280
 3171TIP3    H2 9457   6.840   6.885   0.371
 3172TIP3   OH2 9458   5.998   6.930   2.749
 3172TIP3    H1 9459   6.018   6.926   2.842
 3172TIP3    H2 9460   5.914   6.975   2.744
 3173TIP3   OH2 9461   5.455   2.662   2.634
 3173TIP3    H1 9462   5.491   2.751   2.627
 3173TIP3    H2 9463   5.506   2.621   2.704
 3174TIP3   OH2 9464   4.699   2.338   3.138
 3174TIP3    H1 9465   4.627   2.280   3.114
 3174TIP3    H2 9466   4.729   2.306   3.223
 3175TIP3   OH2 9467   7.055   1.997   6.658
 3175TIP3    H1 9468   7.068   2.056   6.584
 3175TIP3    H2 9469   7.056   2.055   6.734
 3176TIP3   OH2 9470   4.885   0.420   3.860
 3176TIP3    H1 9471   4.936   0.500   3.872
 3176TIP3    H2 9472   4.848   0.403   3.947
 3177TIP3   OH2 9473   6.916   1.231   4.263
 3177TIP3    H1 9474   6.909   1.142   4.298
 3177TIP3    H2 9475   6.826   1.257   4.244
 3178TIP3   OH2 9476   3.859   2.908   0.352
 3178TIP3    H1 9477   3.815   2.948   0.427
 3178TIP3    H2 9478   3.938   2.961   0.340
 3179TIP3   OH2 9479   2.633   6.714   1.331
 3179TIP3    H1 9480   2.593   6.627   1.323
 3179TIP3    H2 9481   2.578   6.771   1.277
 3180TIP3   OH2 9482   4.716   7.818   6.065
 3180TIP3    H1 9483   4.621   7.829   6.060
 3180TIP3    H2 9484   4.739   7.766   5.988
 3181TIP3   OH2 9485   0.185   4.677   0.468
 3181TIP3    H1 9486   0.249   4.613   0.497
 3181TIP3    H2 9487   0.237   4.745   0.424
 3182TIP3   OH2 9488   6.375   2.102   6.614
 3182TIP3    H1 9489   6.416   2.188   6.620
 3182TIP3    H2 9490   6.417   2.060   6.540
 3183TIP3   OH2 9491   1.881   6.517   1.352
 3183TIP3    H1 9492   1.855   6.437   1.307
 3183TIP3    H2 9493   1.814   6.581   1.327
 3184TIP3   OH2 9494   0.817   4.711   6.696
 3184TIP3    H1 9495   0.882   4.780   6.706
 3184TIP3    H2 9496   0.866   4.636   6.663
 3185TIP3   OH2 9497   7.542   6.464   0.683
 3185TIP3    H1 9498   7.546   6.559   0.673
 3185TIP3    H2 9499   7.630   6.434   0.660
 3186TIP3   OH2 9500   6.246   6.563   4.398
 3186TIP3    H1 9501   6.293   6.496   4.347
 3186TIP3    H2 9502   6.299   6.642   4.387
 3187TIP3   OH2 9503   7.543   0.520   6.333
 3187TIP3    H1 9504   7.632   0.536   6.302
 3187TIP3    H2 9505   7.513   0.444   6.283
 3188TIP3   OH2 9506   4.742   3.330   0.145
 3188TIP3    H1 9507   4.798   3.253   0.143
 3188TIP3    H2 9508   4.655   3.297   0.169
 3189TIP3   OH2 9509   6.072   7.170   5.386
 3189TIP3    H1 9510   6.019   7.174   5.467
 3189TIP3    H2 9511   6.116   7.086   5.390
 3190TIP3   OH2 9512   0.509   5.864   3.677
 3190TIP3    H1 9513   0.480   5.821   3.597
 3190TIP3    H2 9514   0.544   5.948   3.648
 3191TIP3   OH2 9515   5.473   3.291   2.590
 3191TIP3    H1 9516   5.400   3.304   2.529
 3191TIP3    H2 9517   5.443   3.329   2.672
 3192TIP3   OH2 9518   1.075   4.560   0.078
 3192TIP3    H1 9519   0.992   4.606   0.064
 3192TIP3    H2 9520   1.141   4.628   0.076
 3193TIP3   OH2 9521   7.571   1.298   2.003
 3193TIP3    H1 9522   7.656   1.267   1.970
 3193TIP3    H2 9523   7.569   1.271   2.094
 3194TIP3   OH2 9524   7.477   3.761   4.003
 3194TIP3    H1 9525   7.398   3.811   4.026
 3194TIP3    H2 9526   7.445   3.672   3.988
 3195TIP3   OH2 9527   6.682   1.628   3.560
 3195TIP3    H1 9528   6.623   1.703   3.565
 3195TIP3    H2 9529   6.726   1.626   3.645
 3196TIP3   OH2 9530   5.387   1.862   4.859
 3196TIP3    H1 9531   5.380   1.809   4.780
 3196TIP3    H2 9532   5.474   1.841   4.894
 3197TIP3   OH2 9533   7.905   6.859   0.985
 3197TIP3    H1 9534   8.000   6.848   0.983
 3197TIP3    H2 9535   7.885   6.909   0.906
 3198TIP3   OH2 9536   6.479   5.921   3.312
 3198TIP3    H1 9537   6.506   6.012   3.301
 3198TIP3    H2 9538   6.462   5.890   3.223
 3199TIP3   OH2 9539   7.373   3.052   2.780
 3199TIP3    H1 9540   7.279   3.062   2.765
 3199TIP3    H2 9541   7.413   3.074   2.696
 3200TIP3   OH2 9542   3.402   4.568   5.808
 3200TIP3    H1 9543   3.449   4.491   5.776
 3200TIP3    H2 9544   3.471   4.626   5.840
 3201TIP3   OH2 9545   4.539   3.860   2.776
 3201TIP3    H1 9546   4.485   3.870   2.855
 3201TIP3    H2 9547   4.487   3.899   2.706
 3202TIP3   OH2 9548   4.156   3.756   2.788
 3202TIP3    H1 9549   4.214   3.824   2.822
 3202TIP3    H2 9550   4.214   3.692   2.747
 3203TIP3   OH2 9551   6.318   3.892   1.301
 3203TIP3    H1 9552   6.358   3.937   1.376
 3203TIP3    H2 9553   6.248   3.839   1.340
 3204TIP3   OH2 9554   4.224   1.686   5.859
 3204TIP3    H1 9555   4.192   1.774   5.841
 3204TIP3    H2 9556   4.230   1.644   5.772
 3205TIP3   OH2 9557   3.582   2.348   3.954
 3205TIP3    H1 9558   3.642   2.371   3.884
 3205TIP3    H2 9559   3.588   2.421   4.016
 3206TIP3   OH2 9560   3.847   7.398   0.549
 3206TIP3    H1 9561   3.781   7.460   0.582
 3206TIP3    H2 9562   3.804   7.353   0.476
 3207TIP3   OH2 9563   2.026   3.393   0.201
 3207TIP3    H1 9564   1.942   3.438   0.210
 3207TIP3    H2 9565   2.015   3.311   0.249
 3208TIP3   OH2 9566   2.168   4.728   6.557
 3208TIP3    H1 9567   2.247   4.772   6.525
 3208TIP3    H2 9568   2.100   4.754   6.495
 3209TIP3   OH2 9569   7.722   3.154   6.388
 3209TIP3    H1 9570   7.807   3.134   6.349
 3209TIP3    H2 9571   7.743   3.188   6.475
 3210TIP3   OH2 9572   6.552   1.179   2.834
 3210TIP3    H1 9573   6.601   1.165   2.753
 3210TIP3    H2 9574   6.516   1.268   2.825
 3211TIP3   OH2 9575   6.193   6.246   0.801
 3211TIP3    H1 9576   6.223   6.181   0.865
 3211TIP3    H2 9577   6.125   6.201   0.751
 3212TIP3   OH2 9578   6.588   7.710   0.910
 3212TIP3    H1 9579   6.536   7.790   0.894
 3212TIP3    H2 9580   6.533   7.657   0.967
 3213TIP3   OH2 9581   2.535   4.904   1.065
 3213TIP3    H1 9582   2.509   4.951   1.144
 3213TIP3    H2 9583   2.553   4.815   1.095
 3214TIP3   OH2 9584   1.899   0.359   0.764
 3214TIP3    H1 9585   1.990   0.390   0.759
 3214TIP3    H2 9586   1.846   0.437   0.747
 3215TIP3   OH2 9587   1.252   6.891   3.349
 3215TIP3    H1 9588   1.205   6.944   3.413
 3215TIP3    H2 9589   1.277   6.953   3.280
 3216TIP3   OH2 9590   1.482   0.255   5.240
 3216TIP3    H1 9591   1.429   0.176   5.246
 3216TIP3    H2 9592   1.422   0.322   5.208
 3217TIP3   OH2 9593   5.542   2.608   1.771
 3217TIP3    H1 9594   5.584   2.530   1.807
 3217TIP3    H2 9595   5.587   2.681   1.814
 3218TIP3   OH2 9596   4.090   1.050   2.690
 3218TIP3    H1 9597   4.149   1.062   2.616
 3218TIP3    H2 9598   4.024   1.119   2.681
 3219TIP3   OH2 9599  -0.010   3.133   4.754
 3219TIP3    H1 9600   0.022   3.149   4.665
 3219TIP3    H2 9601  -0.080   3.198   4.766
 3220TIP3   OH2 9602   4.623   0.045   2.814
 3220TIP3    H1 9603   4.701   0.088   2.850
 3220TIP3    H2 9604   4.575   0.016   2.892
 3221TIP3   OH2 9605   6.022   1.683   5.224
 3221TIP3    H1 9606   6.003   1.598   5.185
 3221TIP3    H2 9607   5.974   1.746   5.170
 3222TIP3   OH2 9608   5.502   2.701   3.806
 3222TIP3    H1 9609   5.429   2.655   3.763
 3222TIP3    H2 9610   5.514   2.655   3.888
 3223TIP3   OH2 9611   7.006   2.487   4.769
 3223TIP3    H1 9612   6.912   2.475   4.762
 3223TIP3    H2 9613   7.016   2.571   4.814
 3224TIP3   OH2 9614   0.386   7.066   2.639
 3224TIP3    H1 9615   0.326   7.035   2.571
 3224TIP3    H2 9616   0.465   7.091   2.592
 3225TIP3   OH2 9617   7.719   4.691   5.147
 3225TIP3    H1 9618   7.639   4.694   5.095
 3225TIP3    H2 9619   7.779   4.751   5.102
 3226TIP3   OH2 9620   5.340   3.700   4.505
 3226TIP3    H1 9621   5.254   3.716   4.466
 3226TIP3    H2 9622   5.360   3.779   4.554
 3227TIP3   OH2 9623   6.571   2.607   2.886
 3227TIP3    H1 9624   6.551   2.673   2.951
 3227TIP3    H2 9625   6.501   2.542   2.895
 3228TIP3   OH2 9626   4.737   2.955   5.732
 3228TIP3    H1 9627   4.643   2.972   5.741
 3228TIP3    H2 9628   4.760   2.909   5.812
 3229TIP3   OH2 9629   6.417   7.550   1.598
 3229TIP3    H1 9630   6.448   7.472   1.643
 3229TIP3    H2 9631   6.446   7.623   1.653
 3230TIP3   OH2 9632   8.133   5.846   1.700
 3230TIP3    H1 9633   8.096   5.902   1.768
 3230TIP3    H2 9634   8.218   5.819   1.734
 3231TIP3   OH2 9635   0.441   7.588   6.383
 3231TIP3    H1 9636   0.450   7.596   6.478
 3231TIP3    H2 9637   0.372   7.524   6.370
 3232TIP3   OH2 9638   7.312   4.810   1.416
 3232TIP3    H1 9639   7.218   4.827   1.423
 3232TIP3    H2 9640   7.321   4.758   1.336
 3233TIP3   OH2 9641   3.686   5.267   2.626
 3233TIP3    H1 9642   3.620   5.212   2.668
 3233TIP3    H2 9643   3.638   5.346   2.598
 3234TIP3   OH2 9644   3.070   3.004   0.602
 3234TIP3    H1 9645   2.989   3.054   0.590
 3234TIP3    H2 9646   3.140   3.066   0.581
 3235TIP3   OH2 9647   7.872   4.081   5.189
 3235TIP3    H1 9648   7.946   4.020   5.184
 3235TIP3    H2 9649   7.898   4.145   5.255
 3236TIP3   OH2 9650   0.487   5.293   2.471
 3236TIP3    H1 9651   0.466   5.322   2.560
 3236TIP3    H2 9652   0.416   5.327   2.417
 3237TIP3   OH2 9653   5.100   5.120   3.517
 3237TIP3    H1 9654   5.160   5.122   3.443
 3237TIP3    H2 9655   5.104   5.030   3.549
 3238TIP3   OH2 9656   0.979   5.339   2.314
 3238TIP3    H1 9657   0.959   5.248   2.335
 3238TIP3    H2 9658   1.071   5.350   2.339
 3239TIP3   OH2 9659   6.341   0.247   0.800
 3239TIP3    H1 9660   6.400   0.319   0.779
 3239TIP3    H2 9661   6.312   0.264   0.889
 3240TIP3   OH2 9662   4.248   6.640   2.038
 3240TIP3    H1 9663   4.293   6.605   1.960
 3240TIP3    H2 9664   4.155   6.637   2.015
 3241TIP3   OH2 9665   3.143   0.095   6.548
 3241TIP3    H1 9666   3.059   0.104   6.592
 3241TIP3    H2 9667   3.121   0.059   6.462
 3242TIP3   OH2 9668   2.678   3.885   5.271
 3242TIP3    H1 9669   2.703   3.834   5.194
 3242TIP3    H2 9670   2.653   3.820   5.336
 3243TIP3   OH2 9671   7.874   6.203   0.221
 3243TIP3    H1 9672   7.923   6.213   0.140
 3243TIP3    H2 9673   7.782   6.212   0.196
 3244TIP3   OH2 9674   2.058   6.456   5.398
 3244TIP3    H1 9675   2.148   6.489   5.402
 3244TIP3    H2 9676   2.041   6.422   5.486
 3245TIP3   OH2 9677   5.021   5.587   0.791
 3245TIP3    H1 9678   5.028   5.493   0.774
 3245TIP3    H2 9679   5.023   5.627   0.705
 3246TIP3   OH2 9680   2.245   0.113   0.607
 3246TIP3    H1 9681   2.161   0.124   0.562
 3246TIP3    H2 9682   2.281   0.031   0.572
 3247TIP3   OH2 9683   0.009   7.139   3.382
 3247TIP3    H1 9684   0.007   7.143   3.287
 3247TIP3    H2 9685   0.092   7.181   3.406
 3248TIP3   OH2 9686   1.955   5.855   5.318
 3248TIP3    H1 9687   1.892   5.859   5.391
 3248TIP3    H2 9688   2.024   5.916   5.343
 3249TIP3   OH2 9689   6.295   6.163   5.446
 3249TIP3    H1 9690   6.323   6.215   5.521
 3249TIP3    H2 9691   6.224   6.214   5.407
 3250TIP3   OH2 9692   4.144   1.074   5.007
 3250TIP3    H1 9693   4.101   1.072   5.092
 3250TIP3    H2 9694   4.174   1.165   4.998
 3251TIP3   OH2 9695   0.260   4.326   3.007
 3251TIP3    H1 9696   0.179   4.301   3.051
 3251TIP3    H2 9697   0.231   4.367   2.926
 3252TIP3   OH2 9698   6.541   7.232   4.984
 3252TIP3    H1 9699   6.538   7.328   4.992
 3252TIP3    H2 9700   6.634   7.212   4.979
 3253TIP3   OH2 9701   7.721   1.408   3.740
 3253TIP3    H1 9702   7.675   1.341   3.689
 3253TIP3    H2 9703   7.765   1.461   3.674
 3254TIP3   OH2 9704   8.217   2.894   5.132
 3254TIP3    H1 9705   8.247   2.820   5.185
 3254TIP3    H2 9706   8.122   2.891   5.138
 3255TIP3   OH2 9707   1.873   7.023   3.968
 3255TIP3    H1 9708   1.859   6.934   3.936
 3255TIP3    H2 9709   1.948   7.056   3.919
 3256TIP3   OH2 9710   3.292   5.432   1.434
 3256TIP3    H1 9711   3.383   5.456   1.447
 3256TIP3    H2 9712   3.242   5.499   1.481
 3257TIP3   OH2 9713   4.134   5.482   5.156
 3257TIP3    H1 9714   4.222   5.499   5.191
 3257TIP3    H2 9715   4.115   5.557   5.101
 3258TIP3   OH2 9716   6.201   7.582   4.396
 3258TIP3    H1 9717   6.190   7.662   4.345
 3258TIP3    H2 9718   6.199   7.512   4.331
 3259TIP3   OH2 9719   4.128   6.252   3.065
 3259TIP3    H1 9720   4.193   6.183   3.080
 3259TIP3    H2 9721   4.161   6.300   2.989
 3260TIP3   OH2 9722   5.008   6.802   2.758
 3260TIP3    H1 9723   5.005   6.887   2.715
 3260TIP3    H2 9724   4.973   6.817   2.845
 3261TIP3   OH2 9725   3.274   3.860   4.509
 3261TIP3    H1 9726   3.181   3.880   4.523
 3261TIP3    H2 9727   3.319   3.942   4.530
 3262TIP3   OH2 9728   8.242   5.560   5.055
 3262TIP3    H1 9729   8.199   5.528   5.134
 3262TIP3    H2 9730   8.270   5.482   5.008
 3263TIP3   OH2 9731   6.764   5.698   5.167
 3263TIP3    H1 9732   6.806   5.717   5.251
 3263TIP3    H2 9733   6.740   5.606   5.172
 3264TIP3   OH2 9734   2.988   5.218   4.291
 3264TIP3    H1 9735   3.008   5.228   4.384
 3264TIP3    H2 9736   2.949   5.302   4.266
 3265TIP3   OH2 9737   4.089   3.120   1.977
 3265TIP3    H1 9738   4.035   3.045   2.005
 3265TIP3    H2 9739   4.026   3.188   1.956
 3266TIP3   OH2 9740   2.383   0.651   4.276
 3266TIP3    H1 9741   2.334   0.689   4.203
 3266TIP3    H2 9742   2.453   0.714   4.294
 3267TIP3   OH2 9743   6.119   4.871   3.100
 3267TIP3    H1 9744   6.169   4.885   3.180
 3267TIP3    H2 9745   6.172   4.910   3.031
 3268TIP3   OH2 9746   5.582   0.780   0.127
 3268TIP3    H1 9747   5.512   0.723   0.160
 3268TIP3    H2 9748   5.637   0.723   0.075
 3269TIP3   OH2 9749   7.677   3.503   2.186
 3269TIP3    H1 9750   7.595   3.489   2.234
 3269TIP3    H2 9751   7.658   3.575   2.126
 3270TIP3   OH2 9752   7.902   4.476   0.890
 3270TIP3    H1 9753   7.877   4.473   0.982
 3270TIP3    H2 9754   7.996   4.497   0.891
 3271TIP3   OH2 9755   6.929   2.104   6.278
 3271TIP3    H1 9756   6.851   2.127   6.329
 3271TIP3    H2 9757   6.896   2.091   6.189
 3272TIP3   OH2 9758   5.172   4.143   0.369
 3272TIP3    H1 9759   5.116   4.191   0.309
 3272TIP3    H2 9760   5.111   4.101   0.431
 3273TIP3   OH2 9761   5.854   7.099   1.518
 3273TIP3    H1 9762   5.878   7.173   1.573
 3273TIP3    H2 9763   5.771   7.124   1.477
 3274TIP3   OH2 9764   8.340   4.497   4.054
 3274TIP3    H1 9765   8.304   4.583   4.076
 3274TIP3    H2 9766   8.266   4.437   4.063
 3275TIP3   OH2 9767   3.841   3.702   2.457
 3275TIP3    H1 9768   3.872   3.691   2.547
 3275TIP3    H2 9769   3.818   3.613   2.429
 3276TIP3   OH2 9770   7.206   5.475   6.069
 3276TIP3    H1 9771   7.198   5.472   6.165
 3276TIP3    H2 9772   7.300   5.466   6.053
 3277TIP3   OH2 9773   2.627   3.102   0.282
 3277TIP3    H1 9774   2.619   3.121   0.376
 3277TIP3    H2 9775   2.654   3.185   0.243
 3278TIP3   OH2 9776   0.258   6.288   6.443
 3278TIP3    H1 9777   0.227   6.199   6.457
 3278TIP3    H2 9778   0.259   6.328   6.530
 3279TIP3   OH2 9779   1.088   2.852   5.598
 3279TIP3    H1 9780   1.148   2.790   5.556
 3279TIP3    H2 9781   1.136   2.935   5.597
 3280TIP3   OH2 9782   7.559   4.821   1.499
 3280TIP3    H1 9783   7.468   4.792   1.489
 3280TIP3    H2 9784   7.557   4.876   1.577
 3281TIP3   OH2 9785   7.244   0.877   1.376
 3281TIP3    H1 9786   7.153   0.898   1.355
 3281TIP3    H2 9787   7.271   0.815   1.308
 3282TIP3   OH2 9788   4.929   6.243   6.253
 3282TIP3    H1 9789   4.908   6.266   6.163
 3282TIP3    H2 9790   5.024   6.249   6.258
 3283TIP3   OH2 9791   7.194   0.516   4.895
 3283TIP3    H1 9792   7.180   0.556   4.809
 3283TIP3    H2 9793   7.255   0.443   4.878
 3284TIP3   OH2 9794   7.659   1.891   6.100
 3284TIP3    H1 9795   7.634   1.980   6.078
 3284TIP3    H2 9796   7.639   1.840   6.021
 3285TIP3   OH2 9797   0.036   0.224   1.861
 3285TIP3    H1 9798   0.111   0.164   1.860
 3285TIP3    H2 9799   0.075   0.311   1.865
 3286TIP3   OH2 9800   8.190   3.542   5.095
 3286TIP3    H1 9801   8.135   3.464   5.084
 3286TIP3    H2 9802   8.212   3.543   5.188
 3287TIP3   OH2 9803   2.086   3.154   0.315
 3287TIP3    H1 9804   2.178   3.136   0.293
 3287TIP3    H2 9805   2.072   3.104   0.396
 3288TIP3   OH2 9806   1.080   3.757   5.392
 3288TIP3    H1 9807   1.118   3.845   5.388
 3288TIP3    H2 9808   1.136   3.704   5.336
 3289TIP3   OH2 9809   6.031   1.663   3.998
 3289TIP3    H1 9810   5.954   1.709   4.032
 3289TIP3    H2 9811   6.074   1.727   3.941
 3290TIP3   OH2 9812   2.680   4.774   3.284
 3290TIP3    H1 9813   2.774   4.758   3.282
 3290TIP3    H2 9814   2.661   4.802   3.374
 3291TIP3   OH2 9815   4.017   1.758   2.282
 3291TIP3    H1 9816   4.038   1.683   2.226
 3291TIP3    H2 9817   3.922   1.764   2.280
 3292TIP3   OH2 9818   3.587   1.314   6.011
 3292TIP3    H1 9819   3.680   1.327   5.993
 3292TIP3    H2 9820   3.554   1.401   6.033
 3293TIP3   OH2 9821   1.145   0.194   4.484
 3293TIP3    H1 9822   1.086   0.173   4.412
 3293TIP3    H2 9823   1.088   0.211   4.559
 3294TIP3   OH2 9824   6.732   0.109   5.594
 3294TIP3    H1 9825   6.667   0.171   5.561
 3294TIP3    H2 9826   6.687   0.061   5.664
 3295TIP3   OH2 9827   7.310   6.831   3.070
 3295TIP3    H1 9828   7.328   6.893   3.141
 3295TIP3    H2 9829   7.230   6.786   3.098
 3296TIP3   OH2 9830   8.198   3.978   0.058
 3296TIP3    H1 9831   8.214   4.002   0.149
 3296TIP3    H2 9832   8.268   4.022   0.009
 3297TIP3   OH2 9833   8.202   0.723   3.580
 3297TIP3    H1 9834   8.225   0.814   3.598
 3297TIP3    H2 9835   8.188   0.684   3.667
 3298TIP3   OH2 9836   6.262   0.194   3.873
 3298TIP3    H1 9837   6.224   0.250   3.805
 3298TIP3    H2 9838   6.201   0.121   3.881
 3299TIP3   OH2 9839   7.226   2.694   4.325
 3299TIP3    H1 9840   7.302   2.651   4.365
 3299TIP3    H2 9841   7.263   2.758   4.264
 3300TIP3   OH2 9842   7.694   1.553   0.152
 3300TIP3    H1 9843   7.750   1.510   0.086
 3300TIP3    H2 9844   7.606   1.523   0.130
 3301TIP3   OH2 9845   7.359   7.124   2.202
 3301TIP3    H1 9846   7.276   7.126   2.154
 3301TIP3    H2 9847   7.339   7.077   2.283
 3302TIP3   OH2 9848   3.105   3.298   5.756
 3302TIP3    H1 9849   3.026   3.281   5.807
 3302TIP3    H2 9850   3.169   3.329   5.821
 3303TIP3   OH2 9851   7.148   3.072   0.378
 3303TIP3    H1 9852   7.238   3.040   0.370
 3303TIP3    H2 9853   7.150   3.160   0.340
 3304TIP3   OH2 9854   1.644   4.707   1.827
 3304TIP3    H1 9855   1.669   4.796   1.853
 3304TIP3    H2 9856   1.581   4.720   1.756
 3305TIP3   OH2 9857   0.870   5.840   5.478
 3305TIP3    H1 9858   0.901   5.821   5.389
 3305TIP3    H2 9859   0.835   5.929   5.472
 3306TIP3   OH2 9860   8.151   2.541   5.965
 3306TIP3    H1 9861   8.158   2.605   6.036
 3306TIP3    H2 9862   8.104   2.587   5.895
 3307TIP3   OH2 9863   2.970   3.235   4.541
 3307TIP3    H1 9864   2.952   3.325   4.515
 3307TIP3    H2 9865   2.939   3.230   4.632
 3308TIP3   OH2 9866   4.879   0.035   5.492
 3308TIP3    H1 9867   4.886  -0.060   5.504
 3308TIP3    H2 9868   4.937   0.072   5.558
 3309TIP3   OH2 9869   2.361   2.238   2.544
 3309TIP3    H1 9870   2.354   2.208   2.635
 3309TIP3    H2 9871   2.348   2.332   2.548
 3310TIP3   OH2 9872   1.243   4.816   3.021
 3310TIP3    H1 9873   1.330   4.774   3.022
 3310TIP3    H2 9874   1.220   4.824   3.114
 3311TIP3   OH2 9875   3.743   4.238   0.473
 3311TIP3    H1 9876   3.730   4.183   0.396
 3311TIP3    H2 9877   3.794   4.184   0.533
 3312TIP3   OH2 9878   1.773   1.754   2.622
 3312TIP3    H1 9879   1.693   1.703   2.614
 3312TIP3    H2 9880   1.803   1.766   2.532
 3313TIP3   OH2 9881   8.139   1.924   6.665
 3313TIP3    H1 9882   8.172   1.840   6.696
 3313TIP3    H2 9883   8.213   1.984   6.673
 3314TIP3   OH2 9884   4.724   4.125   5.516
 3314TIP3    H1 9885   4.803   4.121   5.461
 3314TIP3    H2 9886   4.688   4.037   5.513
 3315TIP3   OH2 9887   1.759   0.499   4.723
 3315TIP3    H1 9888   1.731   0.538   4.640
 3315TIP3    H2 9889   1.848   0.530   4.735
 3316TIP3   OH2 9890   5.285   3.075   4.009
 3316TIP3    H1 9891   5.221   3.026   4.061
 3316TIP3    H2 9892   5.366   3.024   4.017
 3317TIP3   OH2 9893   4.885   2.485   3.949
 3317TIP3    H1 9894   4.883   2.534   3.866
 3317TIP3    H2 9895   4.955   2.526   3.999
 3318TIP3   OH2 9896   6.974   5.024   2.678
 3318TIP3    H1 9897   7.052   5.029   2.623
 3318TIP3    H2 9898   6.966   4.931   2.700
 3319TIP3   OH2 9899   4.942   3.762   0.336
 3319TIP3    H1 9900   4.893   3.680   0.335
 3319TIP3    H2 9901   4.892   3.822   0.280
 3320TIP3   OH2 9902   0.221   2.157   3.286
 3320TIP3    H1 9903   0.199   2.109   3.207
 3320TIP3    H2 9904   0.189   2.246   3.270
 3321TIP3   OH2 9905   0.314   4.351   2.447
 3321TIP3    H1 9906   0.300   4.269   2.401
 3321TIP3    H2 9907   0.244   4.409   2.416
 3322TIP3   OH2 9908   6.932   2.775   3.304
 3322TIP3    H1 9909   7.009   2.730   3.338
 3322TIP3    H2 9910   6.962   2.819   3.225
 3323TIP3   OH2 9911   3.136   1.921   2.078
 3323TIP3    H1 9912   3.107   1.937   2.167
 3323TIP3    H2 9913   3.130   1.826   2.067
 3324TIP3   OH2 9914   2.311   6.182   4.960
 3324TIP3    H1 9915   2.233   6.235   4.942
 3324TIP3    H2 9916   2.327   6.135   4.878
 3325TIP3   OH2 9917   5.226   5.446   4.261
 3325TIP3    H1 9918   5.161   5.434   4.330
 3325TIP3    H2 9919   5.286   5.372   4.270
 3326TIP3   OH2 9920   1.759   4.452   2.424
 3326TIP3    H1 9921   1.669   4.480   2.403
 3326TIP3    H2 9922   1.793   4.418   2.341
 3327TIP3   OH2 9923   0.552   3.837   3.656
 3327TIP3    H1 9924   0.529   3.863   3.745
 3327TIP3    H2 9925   0.604   3.758   3.667
 3328TIP3   OH2 9926   4.372   4.952   2.572
 3328TIP3    H1 9927   4.455   4.965   2.526
 3328TIP3    H2 9928   4.390   4.884   2.637
 3329TIP3   OH2 9929   5.667   6.286   2.604
 3329TIP3    H1 9930   5.671   6.222   2.533
 3329TIP3    H2 9931   5.602   6.250   2.664
 3330TIP3   OH2 9932   2.152   1.459   3.625
 3330TIP3    H1 9933   2.137   1.553   3.623
 3330TIP3    H2 9934   2.099   1.425   3.553
 3331TIP3   OH2 9935   8.121   3.715   2.585
 3331TIP3    H1 9936   8.050   3.727   2.648
 3331TIP3    H2 9937   8.115   3.623   2.560
 3332TIP3   OH2 9938   5.008   3.947   4.311
 3332TIP3    H1 9939   5.100   3.973   4.319
 3332TIP3    H2 9940   4.959   4.024   4.339
 3333TIP3   OH2 9941   1.117   7.731   5.853
 3333TIP3    H1 9942   1.106   7.652   5.801
 3333TIP3    H2 9943   1.038   7.736   5.907
 3334TIP3   OH2 9944   2.009   3.074   1.269
 3334TIP3    H1 9945   2.015   3.046   1.360
 3334TIP3    H2 9946   2.030   2.996   1.218
 3335TIP3   OH2 9947   4.537   1.647   5.107
 3335TIP3    H1 9948   4.558   1.713   5.172
 3335TIP3    H2 9949   4.621   1.616   5.075
 3336TIP3   OH2 9950   5.988   7.029   0.244
 3336TIP3    H1 9951   5.965   6.978   0.167
 3336TIP3    H2 9952   5.906   7.042   0.291
 3337TIP3   OH2 9953   2.207   5.323   0.340
 3337TIP3    H1 9954   2.163   5.348   0.421
 3337TIP3    H2 9955   2.198   5.399   0.283
 3338TIP3   OH2 9956   5.824   6.475   2.770
 3338TIP3    H1 9957   5.786   6.413   2.706
 3338TIP3    H2 9958   5.908   6.500   2.731
 3339TIP3   OH2 9959   4.331   2.790   4.917
 3339TIP3    H1 9960   4.407   2.741   4.949
 3339TIP3    H2 9961   4.256   2.750   4.960
 3340TIP3   OH2 9962   3.688   5.154   1.314
 3340TIP3    H1 9963   3.675   5.189   1.402
 3340TIP3    H2 9964   3.641   5.071   1.313
 3341TIP3   OH2 9965   7.224   3.572   3.063
 3341TIP3    H1 9966   7.215   3.482   3.095
 3341TIP3    H2 9967   7.294   3.610   3.117
 3342TIP3   OH2 9968   3.719   0.579   4.779
 3342TIP3    H1 9969   3.809   0.554   4.796
 3342TIP3    H2 9970   3.723   0.672   4.758
 3343TIP3   OH2 9971   8.107   5.090   0.207
 3343TIP3    H1 9972   8.192   5.112   0.244
 3343TIP3    H2 9973   8.125   5.016   0.149
 3344TIP3   OH2 9974   3.793   2.690   2.617
 3344TIP3    H1 9975   3.754   2.672   2.532
 3344TIP3    H2 9976   3.795   2.786   2.624
 3345TIP3   OH2 9977   5.604   2.109   3.474
 3345TIP3    H1 9978   5.557   2.192   3.478
 3345TIP3    H2 9979   5.669   2.122   3.404
 3346TIP3   OH2 9980   6.724   3.551   2.602
 3346TIP3    H1 9981   6.650   3.517   2.552
 3346TIP3    H2 9982   6.801   3.521   2.554
 3347TIP3   OH2 9983   7.396   2.953   2.475
 3347TIP3    H1 9984   7.379   2.969   2.382
 3347TIP3    H2 9985   7.490   2.936   2.479
 3348TIP3   OH2 9986   6.675   6.084   0.131
 3348TIP3    H1 9987   6.731   6.109   0.205
 3348TIP3    H2 9988   6.593   6.056   0.172
 3349TIP3   OH2 9989   4.554   2.915   4.307
 3349TIP3    H1 9990   4.558   2.823   4.334
 3349TIP3    H2 9991   4.542   2.911   4.212
 3350TIP3   OH2 9992   1.094   2.707   1.869
 3350TIP3    H1 9993   1.176   2.745   1.900
 3350TIP3    H2 9994   1.039   2.703   1.948
 3351TIP3   OH2 9995   5.243   7.499   5.817
 3351TIP3    H1 9996   5.233   7.587   5.851
 3351TIP3    H2 9997   5.237   7.509   5.722
 3352TIP3   OH2 9998   8.020   1.988   0.682
 3352TIP3    H1 9999   8.082   1.919   0.659
 3352TIP3    H210000   8.075   2.060   0.713
 3353TIP3   OH210001   2.484   6.594   3.662
 3353TIP3    H110002   2.473   6.651   3.738
 3353TIP3    H210003   2.442   6.641   3.590
 3354TIP3   OH210004   2.274   0.403   4.833
 3354TIP3    H110005   2.322   0.451   4.765
 3354TIP3    H210006   2.311   0.315   4.831
 3355TIP3   OH210007   3.522   4.375   1.084
 3355TIP3    H110008   3.543   4.441   1.018
 3355TIP3    H210009   3.428   4.360   1.074
 3356TIP3   OH210010   3.206   1.832   5.733
 3356TIP3    H110011   3.240   1.743   5.744
 3356TIP3    H210012   3.120   1.830   5.774
 3357TIP3   OH210013   5.095   5.634   6.688
 3357TIP3    H110014   5.172   5.581   6.710
 3357TIP3    H210015   5.117   5.676   6.605
 3358TIP3   OH210016   0.128   0.847   5.055
 3358TIP3    H110017   0.098   0.760   5.083
 3358TIP3    H210018   0.086   0.908   5.116
 3359TIP3   OH210019   0.931   7.543   2.892
 3359TIP3    H110020   0.980   7.546   2.974
 3359TIP3    H210021   0.895   7.631   2.882
 3360TIP3   OH210022   7.457   0.177   5.457
 3360TIP3    H110023   7.401   0.107   5.423
 3360TIP3    H210024   7.452   0.246   5.392
 3361TIP3   OH210025   3.549   7.583   2.387
 3361TIP3    H110026   3.499   7.531   2.450
 3361TIP3    H210027   3.497   7.661   2.373
 3362TIP3   OH210028   3.680   7.138   2.324
 3362TIP3    H110029   3.626   7.214   2.301
 3362TIP3    H210030   3.675   7.134   2.420
 3363TIP3   OH210031   1.903   1.578   0.374
 3363TIP3    H110032   1.823   1.576   0.321
 3363TIP3    H210033   1.876   1.617   0.457
 3364TIP3   OH210034   2.856   1.853   4.118
 3364TIP3    H110035   2.834   1.945   4.101
 3364TIP3    H210036   2.779   1.818   4.162
 3365TIP3   OH210037   5.293   7.544   1.949
 3365TIP3    H110038   5.285   7.485   2.023
 3365TIP3    H210039   5.274   7.490   1.872
 3366TIP3   OH210040   5.594   7.145   1.443
 3366TIP3    H110041   5.544   7.154   1.362
 3366TIP3    H210042   5.533   7.172   1.512
 3367TIP3   OH210043   4.806   7.046   0.474
 3367TIP3    H110044   4.896   7.060   0.503
 3367TIP3    H210045   4.812   6.979   0.406
 3368TIP3   OH210046   0.101   7.203   3.880
 3368TIP3    H110047   0.078   7.245   3.963
 3368TIP3    H210048   0.064   7.260   3.813
 3369TIP3   OH210049   5.077   3.435   5.171
 3369TIP3    H110050   5.105   3.344   5.158
 3369TIP3    H210051   5.014   3.451   5.101
 3370TIP3   OH210052   5.507   2.148   5.497
 3370TIP3    H110053   5.421   2.178   5.526
 3370TIP3    H210054   5.489   2.091   5.422
 3371TIP3   OH210055   1.877   6.842   4.316
 3371TIP3    H110056   1.856   6.761   4.363
 3371TIP3    H210057   1.905   6.813   4.229
 3372TIP3   OH210058   2.629   4.830   1.410
 3372TIP3    H110059   2.637   4.777   1.330
 3372TIP3    H210060   2.627   4.765   1.480
 3373TIP3   OH210061   5.440   2.446   4.252
 3373TIP3    H110062   5.439   2.469   4.345
 3373TIP3    H210063   5.371   2.380   4.243
 3374TIP3   OH210064   3.810   6.747   5.188
 3374TIP3    H110065   3.779   6.809   5.254
 3374TIP3    H210066   3.876   6.694   5.232
 3375TIP3   OH210067   1.308   4.322   2.372
 3375TIP3    H110068   1.276   4.341   2.460
 3375TIP3    H210069   1.263   4.386   2.317
 3376TIP3   OH210070   1.690   5.895   2.905
 3376TIP3    H110071   1.703   5.961   2.837
 3376TIP3    H210072   1.670   5.945   2.984
 3377TIP3   OH210073   3.595   6.049   2.498
 3377TIP3    H110074   3.675   6.101   2.511
 3377TIP3    H210075   3.533   6.086   2.560
 3378TIP3   OH210076   6.200   5.755   6.120
 3378TIP3    H110077   6.116   5.759   6.075
 3378TIP3    H210078   6.251   5.827   6.082
 3379TIP3   OH210079   4.788   5.062   6.201
 3379TIP3    H110080   4.794   5.049   6.296
 3379TIP3    H210081   4.729   4.992   6.171
 3380TIP3   OH210082   8.238   1.065   3.348
 3380TIP3    H110083   8.208   1.122   3.277
 3380TIP3    H210084   8.198   0.980   3.329
 3381TIP3   OH210085   4.241   1.237   6.071
 3381TIP3    H110086   4.336   1.221   6.069
 3381TIP3    H210087   4.208   1.199   5.990
 3382TIP3   OH210088   2.152   3.614   6.103
 3382TIP3    H110089   2.074   3.569   6.135
 3382TIP3    H210090   2.120   3.699   6.071
 3383TIP3   OH210091   0.147   1.193   1.968
 3383TIP3    H110092   0.207   1.142   2.022
 3383TIP3    H210093   0.060   1.156   1.988
 3384TIP3   OH210094   0.283   7.764   1.714
 3384TIP3    H110095   0.367   7.734   1.750
 3384TIP3    H210096   0.217   7.718   1.766
 3385TIP3   OH210097   2.717   5.487   0.237
 3385TIP3    H110098   2.633   5.468   0.278
 3385TIP3    H210099   2.782   5.461   0.302
 3386TIP3   OH210100   0.017   5.714   5.412
 3386TIP3    H110101   0.097   5.746   5.371
 3386TIP3    H210102   0.031   5.725   5.505
 3387TIP3   OH210103   6.927   4.762   4.471
 3387TIP3    H110104   6.991   4.721   4.529
 3387TIP3    H210105   6.871   4.813   4.530
 3388TIP3   OH210106   4.865   0.541   2.195
 3388TIP3    H110107   4.900   0.606   2.134
 3388TIP3    H210108   4.863   0.586   2.279
 3389TIP3   OH210109   7.331   7.141   1.371
 3389TIP3    H110110   7.269   7.084   1.417
 3389TIP3    H210111   7.416   7.123   1.413
 3390TIP3   OH210112   3.273   6.425   5.128
 3390TIP3    H110113   3.181   6.444   5.144
 3390TIP3    H210114   3.320   6.495   5.175
 3391TIP3   OH210115   4.319   0.355   3.733
 3391TIP3    H110116   4.370   0.280   3.703
 3391TIP3    H210117   4.324   0.418   3.661
 3392TIP3   OH210118   1.527   5.461   3.204
 3392TIP3    H110119   1.513   5.555   3.193
 3392TIP3    H210120   1.621   5.449   3.194
 3393TIP3   OH210121   5.250   3.260   5.973
 3393TIP3    H110122   5.313   3.193   6.000
 3393TIP3    H210123   5.302   3.321   5.921
 3394TIP3   OH210124   1.128   7.019   5.333
 3394TIP3    H110125   1.131   6.963   5.255
 3394TIP3    H210126   1.219   7.043   5.349
 3395TIP3   OH210127   7.554   7.728   4.145
 3395TIP3    H110128   7.585   7.719   4.235
 3395TIP3    H210129   7.539   7.822   4.134
 3396TIP3   OH210130   5.728   4.884   6.152
 3396TIP3    H110131   5.769   4.970   6.162
 3396TIP3    H210132   5.767   4.847   6.073
 3397TIP3   OH210133   5.673   1.633   0.417
 3397TIP3    H110134   5.697   1.639   0.509
 3397TIP3    H210135   5.607   1.701   0.405
 3398TIP3   OH210136   0.603   3.941   2.036
 3398TIP3    H110137   0.522   3.920   2.081
 3398TIP3    H210138   0.670   3.891   2.083
 3399TIP3   OH210139   6.619   2.949   1.130
 3399TIP3    H110140   6.611   2.874   1.071
 3399TIP3    H210141   6.563   2.927   1.204
 3400TIP3   OH210142   7.615   7.112   1.486
 3400TIP3    H110143   7.620   7.178   1.555
 3400TIP3    H210144   7.680   7.046   1.511
 3401TIP3   OH210145   7.948   0.532   5.699
 3401TIP3    H110146   7.915   0.612   5.658
 3401TIP3    H210147   7.925   0.462   5.638
 3402TIP3   OH210148   4.229   2.814   2.640
 3402TIP3    H110149   4.224   2.761   2.720
 3402TIP3    H210150   4.158   2.781   2.585
 3403TIP3   OH210151   7.170   1.211   6.055
 3403TIP3    H110152   7.228   1.287   6.049
 3403TIP3    H210153   7.150   1.189   5.965
 3404TIP3   OH210154   5.501   3.813   6.322
 3404TIP3    H110155   5.406   3.806   6.313
 3404TIP3    H210156   5.527   3.733   6.367
 3405TIP3   OH210157   4.341   4.455   3.082
 3405TIP3    H110158   4.286   4.427   3.009
 3405TIP3    H210159   4.289   4.522   3.127
 3406TIP3   OH210160   1.852   2.702   3.872
 3406TIP3    H110161   1.795   2.632   3.839
 3406TIP3    H210162   1.797   2.752   3.932
 3407TIP3   OH210163   3.585   0.644   2.437
 3407TIP3    H110164   3.552   0.687   2.516
 3407TIP3    H210165   3.662   0.696   2.413
 3408TIP3   OH210166   5.586   3.839   0.791
 3408TIP3    H110167   5.548   3.921   0.824
 3408TIP3    H210168   5.665   3.827   0.843
 3409TIP3   OH210169   6.886   0.472   2.128
 3409TIP3    H110170   6.900   0.412   2.202
 3409TIP3    H210171   6.969   0.472   2.080
 3410TIP3   OH210172   5.673   3.127   1.067
 3410TIP3    H110173   5.609   3.154   1.132
 3410TIP3    H210174   5.624   3.124   0.985
 3411TIP3   OH210175   1.242   0.581   3.168
 3411TIP3    H110176   1.338   0.587   3.178
 3411TIP3    H210177   1.225   0.488   3.155
 3412TIP3   OH210178   3.600   6.512   6.013
 3412TIP3    H110179   3.565   6.451   5.948
 3412TIP3    H210180   3.548   6.495   6.092
 3413TIP3   OH210181   5.224   0.346   3.754
 3413TIP3    H110182   5.279   0.377   3.682
 3413TIP3    H210183   5.136   0.376   3.732
 3414TIP3   OH210184   0.375   5.804   3.060
 3414TIP3    H110185   0.319   5.762   2.994
 3414TIP3    H210186   0.458   5.757   3.054
 3415TIP3   OH210187   4.707   1.423   3.319
 3415TIP3    H110188   4.759   1.353   3.359
 3415TIP3    H210189   4.646   1.378   3.260
 3416TIP3   OH210190   6.897   1.548   0.871
 3416TIP3    H110191   6.886   1.626   0.926
 3416TIP3    H210192   6.990   1.545   0.851
 3417TIP3   OH210193   6.048   6.442   3.372
 3417TIP3    H110194   6.036   6.480   3.285
 3417TIP3    H210195   6.098   6.507   3.421
 3418TIP3   OH210196   5.907   2.793   3.166
 3418TIP3    H110197   5.917   2.872   3.218
 3418TIP3    H210198   5.887   2.824   3.078
 3419TIP3   OH210199   7.573   2.968   2.064
 3419TIP3    H110200   7.569   2.981   1.970
 3419TIP3    H210201   7.569   3.056   2.101
 3420TIP3   OH210202   5.337   3.110   1.003
 3420TIP3    H110203   5.368   3.119   0.913
 3420TIP3    H210204   5.254   3.158   1.004
 3421TIP3   OH210205   2.670   4.607   5.845
 3421TIP3    H110206   2.663   4.579   5.937
 3421TIP3    H210207   2.697   4.529   5.798
 3422TIP3   OH210208   8.062   0.306   5.993
 3422TIP3    H110209   8.028   0.377   6.048
 3422TIP3    H210210   8.091   0.239   6.055
 3423TIP3   OH210211   7.915   6.348   5.934
 3423TIP3    H110212   7.845   6.391   5.885
 3423TIP3    H210213   7.936   6.409   6.005
 3424TIP3   OH210214   6.815   4.568   1.714
 3424TIP3    H110215   6.737   4.529   1.674
 3424TIP3    H210216   6.815   4.658   1.682
 3425TIP3   OH210217   5.548   3.219   4.868
 3425TIP3    H110218   5.626   3.228   4.923
 3425TIP3    H210219   5.505   3.304   4.871
 3426TIP3   OH210220   7.973   6.128   2.544
 3426TIP3    H110221   7.956   6.139   2.450
 3426TIP3    H210222   7.974   6.033   2.557
 3427TIP3   OH210223   1.417   6.435   6.601
 3427TIP3    H110224   1.351   6.452   6.533
 3427TIP3    H210225   1.485   6.499   6.584
 3428TIP3   OH210226   7.409   2.221   4.713
 3428TIP3    H110227   7.464   2.292   4.749
 3428TIP3    H210228   7.320   2.255   4.719
 3429TIP3   OH210229   2.745   1.779   6.418
 3429TIP3    H110230   2.667   1.815   6.462
 3429TIP3    H210231   2.812   1.778   6.486
 3430TIP3   OH210232   3.475   2.415   5.521
 3430TIP3    H110233   3.519   2.435   5.438
 3430TIP3    H210234   3.456   2.322   5.516
 3431TIP3   OH210235   1.945   0.873   1.857
 3431TIP3    H110236   1.974   0.924   1.782
 3431TIP3    H210237   1.866   0.828   1.827
 3432TIP3   OH210238   1.234   1.612   1.855
 3432TIP3    H110239   1.234   1.708   1.863
 3432TIP3    H210240   1.167   1.582   1.916
 3433TIP3   OH210241   1.995   0.849   6.300
 3433TIP3    H110242   2.015   0.941   6.282
 3433TIP3    H210243   2.081   0.809   6.314
 3434TIP3   OH210244   4.349   4.212   0.349
 3434TIP3    H110245   4.282   4.168   0.297
 3434TIP3    H210246   4.306   4.291   0.381
 3435TIP3   OH210247   7.651   4.731   0.914
 3435TIP3    H110248   7.700   4.759   0.991
 3435TIP3    H210249   7.604   4.652   0.942
 3436TIP3   OH210250   5.290   0.691   6.420
 3436TIP3    H110251   5.257   0.702   6.331
 3436TIP3    H210252   5.220   0.645   6.466
 3437TIP3   OH210253   5.493   3.753   3.914
 3437TIP3    H110254   5.490   3.663   3.946
 3437TIP3    H210255   5.459   3.806   3.986
 3438TIP3   OH210256   2.374   4.174   0.409
 3438TIP3    H110257   2.446   4.193   0.349
 3438TIP3    H210258   2.318   4.112   0.362
 3439TIP3   OH210259   7.587   2.979   4.954
 3439TIP3    H110260   7.561   3.031   4.878
 3439TIP3    H210261   7.659   3.029   4.992
 3440TIP3   OH210262   5.337   0.928   4.324
 3440TIP3    H110263   5.252   0.971   4.309
 3440TIP3    H210264   5.337   0.853   4.265
 3441TIP3   OH210265   4.334   3.936   5.374
 3441TIP3    H110266   4.380   3.970   5.297
 3441TIP3    H210267   4.252   3.900   5.340
 3442TIP3   OH210268   7.484   1.411   3.163
 3442TIP3    H110269   7.499   1.320   3.137
 3442TIP3    H210270   7.513   1.462   3.088
 3443TIP3   OH210271   2.581   5.010   6.437
 3443TIP3    H110272   2.656   5.042   6.387
 3443TIP3    H210273   2.598   5.038   6.527
 3444TIP3   OH210274   6.125   2.578   1.811
 3444TIP3    H110275   6.105   2.499   1.761
 3444TIP3    H210276   6.106   2.553   1.902
 3445TIP3   OH210277   1.642   5.565   1.744
 3445TIP3    H110278   1.571   5.593   1.686
 3445TIP3    H210279   1.720   5.569   1.689
 3446TIP3   OH210280   0.149   5.557   0.503
 3446TIP3    H110281   0.214   5.542   0.434
 3446TIP3    H210282   0.178   5.636   0.547
 3447TIP3   OH210283   5.014   7.544   0.940
 3447TIP3    H110284   4.972   7.630   0.947
 3447TIP3    H210285   5.101   7.556   0.977
 3448TIP3   OH210286   2.655   4.866   0.185
 3448TIP3    H110287   2.743   4.861   0.222
 3448TIP3    H210288   2.599   4.822   0.250
 3449TIP3   OH210289   4.841   1.461   2.923
 3449TIP3    H110290   4.765   1.443   2.868
 3449TIP3    H210291   4.913   1.469   2.860
 3450TIP3   OH210292   7.519   5.445   4.701
 3450TIP3    H110293   7.548   5.461   4.611
 3450TIP3    H210294   7.491   5.354   4.702
 3451TIP3   OH210295   8.239   3.315   3.328
 3451TIP3    H110296   8.329   3.298   3.301
 3451TIP3    H210297   8.243   3.318   3.424
 3452TIP3   OH210298   6.355   3.383   5.784
 3452TIP3    H110299   6.320   3.469   5.763
 3452TIP3    H210300   6.331   3.329   5.709
 3453TIP3   OH210301   4.215   0.137   5.004
 3453TIP3    H110302   4.246   0.066   5.061
 3453TIP3    H210303   4.249   0.217   5.045
 3454TIP3   OH210304   2.351   6.583   5.749
 3454TIP3    H110305   2.301   6.601   5.829
 3454TIP3    H210306   2.429   6.536   5.780
 3455TIP3   OH210307   3.484   3.721   5.906
 3455TIP3    H110308   3.410   3.734   5.846
 3455TIP3    H210309   3.523   3.808   5.915
 3456TIP3   OH210310   1.000   1.479   4.668
 3456TIP3    H110311   1.029   1.432   4.746
 3456TIP3    H210312   1.040   1.566   4.676
 3457TIP3   OH210313   7.947   0.069   2.595
 3457TIP3    H110314   7.981   0.158   2.585
 3457TIP3    H210315   8.019   0.019   2.633
 3458TIP3   OH210316   1.107   4.887   0.293
 3458TIP3    H110317   1.119   4.964   0.348
 3458TIP3    H210318   1.062   4.919   0.216
 3459TIP3   OH210319   3.066   2.146   3.501
 3459TIP3    H110320   3.095   2.055   3.501
 3459TIP3    H210321   2.999   2.150   3.434
 3460TIP3   OH210322   6.359   5.554   3.857
 3460TIP3    H110323   6.353   5.618   3.928
 3460TIP3    H210324   6.437   5.502   3.879
 3461TIP3   OH210325   0.719   2.615   6.507
 3461TIP3    H110326   0.770   2.686   6.470
 3461TIP3    H210327   0.782   2.544   6.519
 3462TIP3   OH210328   7.951   7.512   4.447
 3462TIP3    H110329   7.953   7.477   4.358
 3462TIP3    H210330   8.043   7.530   4.468
 3463TIP3   OH210331   5.480   2.819   5.936
 3463TIP3    H110332   5.565   2.817   5.980
 3463TIP3    H210333   5.426   2.756   5.985
 3464TIP3   OH210334   2.376   6.544   2.748
 3464TIP3    H110335   2.311   6.474   2.739
 3464TIP3    H210336   2.353   6.588   2.829
 3465TIP3   OH210337   3.822   1.391   0.561
 3465TIP3    H110338   3.763   1.373   0.488
 3465TIP3    H210339   3.778   1.353   0.637
 3466TIP3   OH210340   6.478   7.073   2.236
 3466TIP3    H110341   6.441   7.068   2.148
 3466TIP3    H210342   6.572   7.063   2.224
 3467TIP3   OH210343   8.152   1.187   4.227
 3467TIP3    H110344   8.211   1.154   4.294
 3467TIP3    H210345   8.096   1.112   4.206
 3468TIP3   OH210346   2.372   2.868   5.724
 3468TIP3    H110347   2.366   2.785   5.677
 3468TIP3    H210348   2.375   2.844   5.816
 3469TIP3   OH210349   0.117   5.641   6.612
 3469TIP3    H110350   0.124   5.667   6.520
 3469TIP3    H210351   0.025   5.652   6.634
 3470TIP3   OH210352   6.285   2.183   6.006
 3470TIP3    H110353   6.310   2.231   5.928
 3470TIP3    H210354   6.218   2.121   5.977
 3471TIP3   OH210355   2.840   6.040   5.066
 3471TIP3    H110356   2.920   6.060   5.017
 3471TIP3    H210357   2.866   6.047   5.158
 3472TIP3   OH210358   5.615   2.042   0.000
 3472TIP3    H110359   5.630   1.952   0.027
 3472TIP3    H210360   5.583   2.086   0.079
 3473TIP3   OH210361   0.171   3.405   5.532
 3473TIP3    H110362   0.110   3.382   5.603
 3473TIP3    H210363   0.250   3.434   5.577
 3474TIP3   OH210364   4.934   6.364   0.532
 3474TIP3    H110365   4.868   6.346   0.465
 3474TIP3    H210366   4.968   6.278   0.556
 3475TIP3   OH210367   6.180   6.931   1.170
 3475TIP3    H110368   6.161   6.843   1.139
 3475TIP3    H210369   6.117   6.946   1.240
 3476TIP3   OH210370   5.463   2.842   3.535
 3476TIP3    H110371   5.482   2.929   3.569
 3476TIP3    H210372   5.420   2.796   3.608
 3477TIP3   OH210373   7.368   2.411   4.135
 3477TIP3    H110374   7.393   2.344   4.072
 3477TIP3    H210375   7.368   2.366   4.219
 3478TIP3   OH210376   6.063   6.718   6.353
 3478TIP3    H110377   6.138   6.672   6.391
 3478TIP3    H210378   6.076   6.809   6.376
 3479TIP3   OH210379   5.998   5.456   1.261
 3479TIP3    H110380   5.948   5.499   1.191
 3479TIP3    H210381   6.048   5.388   1.215
 3480TIP3   OH210382   7.798   1.040   0.940
 3480TIP3    H110383   7.830   1.011   1.026
 3480TIP3    H210384   7.849   1.119   0.921
 3481TIP3   OH210385   5.476   7.597   1.576
 3481TIP3    H110386   5.509   7.588   1.665
 3481TIP3    H210387   5.535   7.543   1.523
 3482TIP3   OH210388   2.568   3.129   4.157
 3482TIP3    H110389   2.507   3.151   4.087
 3482TIP3    H210390   2.654   3.152   4.123
 3483TIP3   OH210391   3.703   2.667   4.703
 3483TIP3    H110392   3.622   2.713   4.681
 3483TIP3    H210393   3.766   2.737   4.723
 3484TIP3   OH210394   4.677   5.431   5.958
 3484TIP3    H110395   4.730   5.356   5.933
 3484TIP3    H210396   4.649   5.411   6.048
 3485TIP3   OH210397   1.050   4.204   2.934
 3485TIP3    H110398   0.996   4.267   2.886
 3485TIP3    H210399   1.066   4.247   3.019
 3486TIP3   OH210400   7.051   7.000   1.460
 3486TIP3    H110401   6.965   7.043   1.463
 3486TIP3    H210402   7.038   6.927   1.400
 3487TIP3   OH210403   2.547   6.619   5.227
 3487TIP3    H110404   2.620   6.658   5.179
 3487TIP3    H210405   2.480   6.605   5.159
 3488TIP3   OH210406   7.728   6.555   0.268
 3488TIP3    H110407   7.712   6.639   0.225
 3488TIP3    H210408   7.814   6.527   0.236
 3489TIP3   OH210409   3.012   3.899   4.731
 3489TIP3    H110410   3.038   3.810   4.755
 3489TIP3    H210411   3.024   3.903   4.636
 3490TIP3   OH210412   7.896   2.926   2.307
 3490TIP3    H110413   7.971   2.982   2.330
 3490TIP3    H210414   7.907   2.908   2.214
 3491TIP3   OH210415   3.387   0.719   1.396
 3491TIP3    H110416   3.332   0.769   1.335
 3491TIP3    H210417   3.464   0.774   1.408
 3492TIP3   OH210418   6.725   5.986   4.580
 3492TIP3    H110419   6.770   6.070   4.579
 3492TIP3    H210420   6.698   5.972   4.490
 3493TIP3   OH210421   2.336   4.484   0.402
 3493TIP3    H110422   2.419   4.518   0.437
 3493TIP3    H210423   2.273   4.554   0.417
 3494TIP3   OH210424   1.009   3.652   4.692
 3494TIP3    H110425   0.985   3.744   4.705
 3494TIP3    H210426   1.053   3.627   4.773
 3495TIP3   OH210427   1.964   2.007   3.993
 3495TIP3    H110428   2.050   1.983   3.957
 3495TIP3    H210429   1.981   2.086   4.044
 3496TIP3   OH210430   6.885   3.892   2.383
 3496TIP3    H110431   6.930   3.886   2.468
 3496TIP3    H210432   6.892   3.804   2.346
 3497TIP3   OH210433   1.372   6.163   2.924
 3497TIP3    H110434   1.339   6.075   2.941
 3497TIP3    H210435   1.293   6.214   2.903
 3498TIP3   OH210436   5.783   2.673   0.958
 3498TIP3    H110437   5.743   2.744   1.008
 3498TIP3    H210438   5.871   2.664   0.996
 3499TIP3   OH210439   2.072   7.021   1.555
 3499TIP3    H110440   2.152   6.968   1.564
 3499TIP3    H210441   2.102   7.101   1.509
 3500TIP3   OH210442   1.462   2.289   2.379
 3500TIP3    H110443   1.480   2.221   2.445
 3500TIP3    H210444   1.401   2.348   2.422
 3501TIP3   OH210445   5.841   4.316   4.810
 3501TIP3    H110446   5.900   4.350   4.877
 3501TIP3    H210447   5.877   4.230   4.787
 3502TIP3   OH210448   5.727   6.695   5.263
 3502TIP3    H110449   5.684   6.612   5.243
 3502TIP3    H210450   5.659   6.748   5.306
 3503TIP3   OH210451   3.748   4.056   4.259
 3503TIP3    H110452   3.799   3.976   4.256
 3503TIP3    H210453   3.711   4.059   4.347
 3504TIP3   OH210454   4.467   5.107   3.289
 3504TIP3    H110455   4.400   5.039   3.299
 3504TIP3    H210456   4.427   5.172   3.232
 3505TIP3   OH210457   4.554   7.085   5.097
 3505TIP3    H110458   4.492   7.025   5.054
 3505TIP3    H210459   4.503   7.128   5.166
 3506TIP3   OH210460   4.147   1.968   0.407
 3506TIP3    H110461   4.090   1.944   0.480
 3506TIP3    H210462   4.167   2.060   0.421
 3507TIP3   OH210463   5.479   3.734   4.264
 3507TIP3    H110464   5.459   3.718   4.357
 3507TIP3    H210465   5.538   3.662   4.240
 3508TIP3   OH210466   1.827   0.209   2.654
 3508TIP3    H110467   1.801   0.253   2.574
 3508TIP3    H210468   1.775   0.129   2.656
 3509TIP3   OH210469   2.289   2.295   1.635
 3509TIP3    H110470   2.230   2.224   1.610
 3509TIP3    H210471   2.360   2.252   1.683
 3510TIP3   OH210472   3.916   7.261   2.462
 3510TIP3    H110473   4.002   7.232   2.492
 3510TIP3    H210474   3.863   7.263   2.542
 3511TIP3   OH210475   1.235   4.254   3.494
 3511TIP3    H110476   1.325   4.226   3.478
 3511TIP3    H210477   1.189   4.174   3.518
 3512TIP3   OH210478   3.902   3.794   3.079
 3512TIP3    H110479   3.876   3.716   3.031
 3512TIP3    H210480   3.998   3.789   3.083
 3513TIP3   OH210481   6.490   7.113   5.922
 3513TIP3    H110482   6.420   7.170   5.956
 3513TIP3    H210483   6.570   7.162   5.935
 3514TIP3   OH210484   6.171   3.465   4.154
 3514TIP3    H110485   6.141   3.399   4.091
 3514TIP3    H210486   6.236   3.516   4.106
 3515TIP3   OH210487   0.915   2.545   5.619
 3515TIP3    H110488   0.976   2.514   5.552
 3515TIP3    H210489   0.930   2.640   5.623
 3516TIP3   OH210490   7.087   4.593   5.535
 3516TIP3    H110491   7.080   4.608   5.629
 3516TIP3    H210492   7.012   4.537   5.515
 3517TIP3   OH210493   3.019   3.339   2.973
 3517TIP3    H110494   3.022   3.342   2.877
 3517TIP3    H210495   2.984   3.252   2.993
 3518TIP3   OH210496   3.491   4.854   3.031
 3518TIP3    H110497   3.547   4.841   2.955
 3518TIP3    H210498   3.507   4.777   3.086
 3519TIP3   OH210499   4.429   0.575   5.633
 3519TIP3    H110500   4.426   0.481   5.616
 3519TIP3    H210501   4.507   0.588   5.686
 3520TIP3   OH210502   5.850   4.586   1.268
 3520TIP3    H110503   5.829   4.629   1.351
 3520TIP3    H210504   5.946   4.589   1.263
 3521TIP3   OH210505   5.624   3.970   3.439
 3521TIP3    H110506   5.579   3.928   3.513
 3521TIP3    H210507   5.703   4.008   3.477
 3522TIP3   OH210508   2.973   0.991   1.052
 3522TIP3    H110509   2.907   0.952   0.996
 3522TIP3    H210510   2.927   1.010   1.134
 3523TIP3   OH210511   1.193   5.791   0.755
 3523TIP3    H110512   1.139   5.854   0.803
 3523TIP3    H210513   1.273   5.783   0.807
 3524TIP3   OH210514   6.505   6.202   5.263
 3524TIP3    H110515   6.437   6.139   5.285
 3524TIP3    H210516   6.578   6.179   5.321
 3525TIP3   OH210517   0.991   6.046   3.921
 3525TIP3    H110518   0.986   6.023   3.828
 3525TIP3    H210519   0.999   6.142   3.921
 3526TIP3   OH210520   3.900   3.282   1.380
 3526TIP3    H110521   3.987   3.310   1.409
 3526TIP3    H210522   3.896   3.189   1.404
 3527TIP3   OH210523   1.048   2.201   0.815
 3527TIP3    H110524   0.970   2.253   0.835
 3527TIP3    H210525   1.094   2.193   0.898
 3528TIP3   OH210526   6.332   3.805   3.038
 3528TIP3    H110527   6.349   3.898   3.048
 3528TIP3    H210528   6.319   3.773   3.128
 3529TIP3   OH210529   0.746   7.320   5.514
 3529TIP3    H110530   0.834   7.282   5.513
 3529TIP3    H210531   0.689   7.249   5.541
 3530TIP3   OH210532   0.775   1.685   1.846
 3530TIP3    H110533   0.695   1.648   1.809
 3530TIP3    H210534   0.776   1.655   1.936
 3531TIP3   OH210535   7.058   4.447   1.679
 3531TIP3    H110536   7.108   4.526   1.699
 3531TIP3    H210537   6.967   4.471   1.699
 3532TIP3   OH210538   1.485   6.768   6.771
 3532TIP3    H110539   1.504   6.715   6.693
 3532TIP3    H210540   1.570   6.798   6.801
 3533TIP3   OH210541   4.036   4.158   2.261
 3533TIP3    H110542   3.947   4.193   2.266
 3533TIP3    H210543   4.031   4.076   2.311
 3534TIP3   OH210544   5.683   4.803   0.186
 3534TIP3    H110545   5.721   4.718   0.164
 3534TIP3    H210546   5.645   4.790   0.273
 3535TIP3   OH210547   2.481   4.901   6.149
 3535TIP3    H110548   2.465   4.887   6.056
 3535TIP3    H210549   2.519   4.989   6.154
 3536TIP3   OH210550   6.555   4.382   6.046
 3536TIP3    H110551   6.480   4.434   6.075
 3536TIP3    H210552   6.615   4.446   6.008
 3537TIP3   OH210553   1.509   5.692   2.069
 3537TIP3    H110554   1.446   5.653   2.007
 3537TIP3    H210555   1.460   5.697   2.152
 3538TIP3   OH210556   4.353   1.972   3.932
 3538TIP3    H110557   4.426   1.961   3.871
 3538TIP3    H210558   4.340   1.886   3.970
 3539TIP3   OH210559   4.055   6.304   3.320
 3539TIP3    H110560   4.089   6.290   3.231
 3539TIP3    H210561   4.002   6.383   3.314
 3540TIP3   OH210562   3.422   3.872   2.556
 3540TIP3    H110563   3.478   3.854   2.632
 3540TIP3    H210564   3.473   3.842   2.481
 3541TIP3   OH210565   0.289   1.870   2.838
 3541TIP3    H110566   0.225   1.814   2.882
 3541TIP3    H210567   0.242   1.908   2.764
 3542TIP3   OH210568   8.212   3.969   0.326
 3542TIP3    H110569   8.220   4.047   0.380
 3542TIP3    H210570   8.262   3.902   0.372
 3543TIP3   OH210571   0.553   6.279   4.688
 3543TIP3    H110572   0.624   6.329   4.729
 3543TIP3    H210573   0.581   6.188   4.694
 3544TIP3   OH210574   4.594   5.386   4.509
 3544TIP3    H110575   4.671   5.343   4.545
 3544TIP3    H210576   4.604   5.478   4.533
 3545TIP3   OH210577   7.920   1.919   2.970
 3545TIP3    H110578   7.915   1.865   3.049
 3545TIP3    H210579   7.835   1.906   2.927
 3546TIP3   OH210580   5.091   4.682   0.465
 3546TIP3    H110581   5.038   4.634   0.530
 3546TIP3    H210582   5.149   4.737   0.517
 3547TIP3   OH210583   6.661   1.913   4.778
 3547TIP3    H110584   6.576   1.907   4.734
 3547TIP3    H210585   6.658   1.844   4.844
 3548TIP3   OH210586   4.713   7.226   5.797
 3548TIP3    H110587   4.634   7.175   5.780
 3548TIP3    H210588   4.774   7.165   5.836
 3549TIP3   OH210589   6.973   4.218   1.005
 3549TIP3    H110590   6.928   4.302   1.009
 3549TIP3    H210591   6.933   4.173   0.931
 3550TIP3   OH210592   3.047   6.021   3.698
 3550TIP3    H110593   3.109   5.955   3.667
 3550TIP3    H210594   3.102   6.082   3.748
 3551TIP3   OH210595   3.950   0.600   3.757
 3551TIP3    H110596   3.963   0.517   3.801
 3551TIP3    H210597   3.946   0.578   3.664
 3552TIP3   OH210598   0.366   3.976   5.549
 3552TIP3    H110599   0.397   4.057   5.588
 3552TIP3    H210600   0.327   3.927   5.621
 3553TIP3   OH210601   3.232   3.066   3.735
 3553TIP3    H110602   3.161   3.024   3.687
 3553TIP3    H210603   3.285   3.109   3.667
 3554TIP3   OH210604   4.372   4.676   6.145
 3554TIP3    H110605   4.372   4.584   6.117
 3554TIP3    H210606   4.346   4.673   6.237
 3555TIP3   OH210607   2.373   5.360   6.747
 3555TIP3    H110608   2.336   5.288   6.696
 3555TIP3    H210609   2.409   5.419   6.681
 3556TIP3   OH210610   1.464   3.767   0.464
 3556TIP3    H110611   1.415   3.784   0.545
 3556TIP3    H210612   1.555   3.757   0.492
 3557TIP3   OH210613   0.511   3.820   2.540
 3557TIP3    H110614   0.442   3.886   2.544
 3557TIP3    H210615   0.542   3.812   2.630
 3558TIP3   OH210616   7.072   4.308   6.286
 3558TIP3    H110617   7.031   4.226   6.259
 3558TIP3    H210618   7.087   4.355   6.204
 3559TIP3   OH210619   0.146   5.949   0.856
 3559TIP3    H110620   0.146   6.019   0.922
 3559TIP3    H210621   0.230   5.903   0.871
 3560TIP3   OH210622   6.360   6.306   6.198
 3560TIP3    H110623   6.349   6.228   6.253
 3560TIP3    H210624   6.272   6.327   6.169
 3561TIP3   OH210625   3.974   6.742   0.089
 3561TIP3    H110626   4.048   6.790   0.053
 3561TIP3    H210627   3.904   6.807   0.096
 3562TIP3   OH210628   3.411   4.662   4.103
 3562TIP3    H110629   3.332   4.717   4.104
 3562TIP3    H210630   3.409   4.619   4.017
 3563TIP3   OH210631   3.559   0.371   2.542
 3563TIP3    H110632   3.625   0.309   2.512
 3563TIP3    H210633   3.578   0.451   2.493
 3564TIP3   OH210634   0.394   2.039   2.329
 3564TIP3    H110635   0.315   2.088   2.309
 3564TIP3    H210636   0.364   1.950   2.345
 3565TIP3   OH210637   6.818   4.499   6.087
 3565TIP3    H110638   6.777   4.475   6.170
 3565TIP3    H210639   6.832   4.594   6.093
 3566TIP3   OH210640   2.747   7.458   6.381
 3566TIP3    H110641   2.790   7.544   6.384
 3566TIP3    H210642   2.776   7.421   6.298
 3567TIP3   OH210643   5.050   1.295   5.097
 3567TIP3    H110644   4.958   1.273   5.084
 3567TIP3    H210645   5.098   1.236   5.040
 3568TIP3   OH210646   3.060   2.654   1.522
 3568TIP3    H110647   3.055   2.725   1.586
 3568TIP3    H210648   3.127   2.683   1.460
 3569TIP3   OH210649   4.826   3.630   3.474
 3569TIP3    H110650   4.905   3.584   3.500
 3569TIP3    H210651   4.766   3.618   3.548
 3570TIP3   OH210652   0.789   6.430   1.560
 3570TIP3    H110653   0.834   6.487   1.622
 3570TIP3    H210654   0.784   6.480   1.479
 3571TIP3   OH210655   0.700   6.737   4.609
 3571TIP3    H110656   0.697   6.828   4.639
 3571TIP3    H210657   0.635   6.733   4.539
 3572TIP3   OH210658   1.834   5.178   3.648
 3572TIP3    H110659   1.903   5.139   3.702
 3572TIP3    H210660   1.881   5.240   3.591
 3573TIP3   OH210661   8.118   1.271   2.329
 3573TIP3    H110662   8.059   1.299   2.259
 3573TIP3    H210663   8.205   1.269   2.288
 3574TIP3   OH210664   0.728   1.942   5.494
 3574TIP3    H110665   0.723   1.926   5.400
 3574TIP3    H210666   0.808   1.898   5.523
 3575TIP3   OH210667   5.964   5.564   3.691
 3575TIP3    H110668   6.056   5.590   3.686
 3575TIP3    H210669   5.966   5.476   3.728
 3576TIP3   OH210670   0.975   3.014   1.271
 3576TIP3    H110671   0.928   2.957   1.331
 3576TIP3    H210672   0.987   2.960   1.192
 3577TIP3   OH210673   7.959   4.426   2.676
 3577TIP3    H110674   7.933   4.352   2.621
 3577TIP3    H210675   8.051   4.440   2.654
 3578TIP3   OH210676   1.993   4.478   2.008
 3578TIP3    H110677   2.000   4.573   2.014
 3578TIP3    H210678   1.969   4.450   2.096
 3579TIP3   OH210679   1.659   2.487   5.593
 3579TIP3    H110680   1.600   2.558   5.617
 3579TIP3    H210681   1.739   2.531   5.564
 3580TIP3   OH210682   8.196   2.299   4.397
 3580TIP3    H110683   8.216   2.332   4.310
 3580TIP3    H210684   8.121   2.352   4.426
 3581TIP3   OH210685   7.404   2.520   1.212
 3581TIP3    H110686   7.419   2.542   1.304
 3581TIP3    H210687   7.474   2.458   1.191
 3582TIP3   OH210688   6.109   2.936   6.776
 3582TIP3    H110689   6.066   2.971   6.698
 3582TIP3    H210690   6.038   2.922   6.839
 3583TIP3   OH210691   4.432   4.247   4.334
 3583TIP3    H110692   4.500   4.314   4.333
 3583TIP3    H210693   4.431   4.214   4.424
 3584TIP3   OH210694   7.344   1.664   5.888
 3584TIP3    H110695   7.270   1.711   5.927
 3584TIP3    H210696   7.320   1.653   5.796
 3585TIP3   OH210697   7.486   3.606   3.680
 3585TIP3    H110698   7.549   3.637   3.615
 3585TIP3    H210699   7.406   3.655   3.661
 3586TIP3   OH210700   2.357   2.131   2.810
 3586TIP3    H110701   2.336   2.152   2.901
 3586TIP3    H210702   2.396   2.043   2.814
 3587TIP3   OH210703   4.959   5.487   1.384
 3587TIP3    H110704   5.016   5.512   1.311
 3587TIP3    H210705   4.891   5.554   1.385
 3588TIP3   OH210706   7.213   7.521   4.224
 3588TIP3    H110707   7.230   7.496   4.133
 3588TIP3    H210708   7.125   7.558   4.222
 3589TIP3   OH210709   3.186   7.107   0.591
 3589TIP3    H110710   3.256   7.045   0.573
 3589TIP3    H210711   3.111   7.075   0.540
 3590TIP3   OH210712   2.477   7.126   3.495
 3590TIP3    H110713   2.557   7.075   3.486
 3590TIP3    H210714   2.415   7.083   3.436
 3591TIP3   OH210715   0.165   3.888   6.411
 3591TIP3    H110716   0.146   3.835   6.489
 3591TIP3    H210717   0.223   3.833   6.358
 3592TIP3   OH210718   7.140   6.794   5.188
 3592TIP3    H110719   7.189   6.836   5.258
 3592TIP3    H210720   7.075   6.741   5.233
 3593TIP3   OH210721   4.736   6.303   6.487
 3593TIP3    H110722   4.780   6.302   6.572
 3593TIP3    H210723   4.765   6.224   6.444
 3594TIP3   OH210724   6.648   4.053   1.429
 3594TIP3    H110725   6.741   4.072   1.434
 3594TIP3    H210726   6.623   4.077   1.340
 3595TIP3   OH210727   3.699   0.296   2.915
 3595TIP3    H110728   3.663   0.218   2.956
 3595TIP3    H210729   3.774   0.320   2.969
 3596TIP3   OH210730   3.193   1.176   2.213
 3596TIP3    H110731   3.244   1.232   2.272
 3596TIP3    H210732   3.103   1.189   2.240
 3597TIP3   OH210733   7.073   3.181   3.737
 3597TIP3    H110734   7.091   3.224   3.820
 3597TIP3    H210735   7.044   3.093   3.761
 3598TIP3   OH210736   0.734   3.664   0.647
 3598TIP3    H110737   0.726   3.633   0.556
 3598TIP3    H210738   0.681   3.602   0.698
 3599TIP3   OH210739   7.419   2.807   5.093
 3599TIP3    H110740   7.479   2.855   5.036
 3599TIP3    H210741   7.474   2.743   5.138
 3600TIP3   OH210742   2.473   2.487   6.757
 3600TIP3    H110743   2.559   2.523   6.780
 3600TIP3    H210744   2.469   2.494   6.662
 3601TIP3   OH210745   1.570   1.577   5.784
 3601TIP3    H110746   1.616   1.555   5.703
 3601TIP3    H210747   1.632   1.631   5.833
 3602TIP3   OH210748   4.811   3.105   4.892
 3602TIP3    H110749   4.906   3.113   4.885
 3602TIP3    H210750   4.780   3.109   4.801
 3603TIP3   OH210751   4.420   0.770   4.498
 3603TIP3    H110752   4.349   0.767   4.434
 3603TIP3    H210753   4.394   0.708   4.566
 3604TIP3   OH210754   2.540   1.765   3.208
 3604TIP3    H110755   2.588   1.779   3.290
 3604TIP3    H210756   2.509   1.675   3.213
 3605TIP3   OH210757   5.315   5.234   4.411
 3605TIP3    H110758   5.318   5.139   4.419
 3605TIP3    H210759   5.261   5.263   4.484
 3606TIP3   OH210760   3.042   2.192   1.014
 3606TIP3    H110761   3.136   2.188   1.031
 3606TIP3    H210762   3.027   2.126   0.946
 3607TIP3   OH210763   4.814   3.744   1.409
 3607TIP3    H110764   4.748   3.812   1.424
 3607TIP3    H210765   4.887   3.790   1.368
 3608TIP3   OH210766   3.422   7.317   1.965
 3608TIP3    H110767   3.328   7.333   1.960
 3608TIP3    H210768   3.438   7.249   1.900
 3609TIP3   OH210769   1.400   7.337   1.748
 3609TIP3    H110770   1.489   7.347   1.715
 3609TIP3    H210771   1.393   7.244   1.770
 3610TIP3   OH210772   4.091   5.057   4.953
 3610TIP3    H110773   4.079   5.117   4.880
 3610TIP3    H210774   4.180   5.076   4.985
 3611TIP3   OH210775   3.550   3.562   4.717
 3611TIP3    H110776   3.500   3.513   4.652
 3611TIP3    H210777   3.572   3.645   4.675
 3612TIP3   OH210778   7.328   5.465   5.025
 3612TIP3    H110779   7.236   5.487   5.039
 3612TIP3    H210780   7.344   5.389   5.082
 3613TIP3   OH210781   1.383   5.053   1.397
 3613TIP3    H110782   1.406   5.056   1.490
 3613TIP3    H210783   1.409   4.966   1.369
 3614TIP3   OH210784   3.923   4.796   2.166
 3614TIP3    H110785   3.876   4.713   2.174
 3614TIP3    H210786   3.931   4.827   2.257
 3615TIP3   OH210787   0.791   5.557   2.424
 3615TIP3    H110788   0.842   5.476   2.420
 3615TIP3    H210789   0.853   5.626   2.401
 3616TIP3   OH210790   5.362   7.265   0.835
 3616TIP3    H110791   5.350   7.177   0.870
 3616TIP3    H210792   5.451   7.266   0.801
 3617TIP3   OH210793   1.404   5.730   1.665
 3617TIP3    H110794   1.350   5.748   1.742
 3617TIP3    H210795   1.393   5.637   1.649
 3618TIP3   OH210796   7.841   1.181   5.835
 3618TIP3    H110797   7.805   1.093   5.822
 3618TIP3    H210798   7.888   1.176   5.918
 3619TIP3   OH210799   1.054   4.857   6.247
 3619TIP3    H110800   1.058   4.948   6.277
 3619TIP3    H210801   1.031   4.864   6.154
 3620TIP3   OH210802   7.409   2.009   1.408
 3620TIP3    H110803   7.443   1.947   1.344
 3620TIP3    H210804   7.341   1.961   1.455
 3621TIP3   OH210805   5.077   1.661   3.858
 3621TIP3    H110806   5.089   1.712   3.778
 3621TIP3    H210807   5.067   1.571   3.827
 3622TIP3   OH210808   0.334   0.359   2.576
 3622TIP3    H110809   0.379   0.275   2.587
 3622TIP3    H210810   0.271   0.343   2.506
 3623TIP3   OH210811   1.029   7.416   4.499
 3623TIP3    H110812   1.065   7.479   4.561
 3623TIP3    H210813   1.053   7.330   4.535
 3624TIP3   OH210814   6.271   3.135   5.241
 3624TIP3    H110815   6.278   3.144   5.146
 3624TIP3    H210816   6.185   3.095   5.255
 3625TIP3   OH210817   8.165   3.122   0.985
 3625TIP3    H110818   8.145   3.051   0.924
 3625TIP3    H210819   8.216   3.081   1.055
 3626TIP3   OH210820   5.870   2.087   2.198
 3626TIP3    H110821   5.858   1.996   2.224
 3626TIP3    H210822   5.948   2.086   2.142
 3627TIP3   OH210823   6.005   6.264   2.079
 3627TIP3    H110824   6.074   6.213   2.037
 3627TIP3    H210825   5.923   6.228   2.044
 3628TIP3   OH210826   0.117   0.102   3.523
 3628TIP3    H110827   0.087   0.171   3.463
 3628TIP3    H210828   0.062   0.112   3.601
 3629TIP3   OH210829   2.545   2.582   1.685
 3629TIP3    H110830   2.607   2.644   1.646
 3629TIP3    H210831   2.468   2.585   1.628
 3630TIP3   OH210832   2.053   5.476   1.781
 3630TIP3    H110833   2.050   5.552   1.839
 3630TIP3    H210834   1.989   5.495   1.713
 3631TIP3   OH210835   5.513   0.882   4.511
 3631TIP3    H110836   5.583   0.904   4.450
 3631TIP3    H210837   5.436   0.927   4.477
 3632TIP3   OH210838   4.596   7.023   4.544
 3632TIP3    H110839   4.573   7.091   4.607
 3632TIP3    H210840   4.656   7.066   4.482
 3633TIP3   OH210841   5.296   5.064   2.595
 3633TIP3    H110842   5.342   5.027   2.670
 3633TIP3    H210843   5.360   5.063   2.524
 3634TIP3   OH210844   0.147   4.314   1.599
 3634TIP3    H110845   0.205   4.239   1.598
 3634TIP3    H210846   0.087   4.298   1.672
 3635TIP3   OH210847   6.719   0.689   2.239
 3635TIP3    H110848   6.773   0.624   2.194
 3635TIP3    H210849   6.638   0.692   2.189
 3636TIP3   OH210850   3.348   2.222   4.043
 3636TIP3    H110851   3.369   2.214   4.136
 3636TIP3    H210852   3.409   2.288   4.010
 3637TIP3   OH210853   6.478   3.853   2.258
 3637TIP3    H110854   6.495   3.859   2.164
 3637TIP3    H210855   6.416   3.923   2.275
 3638TIP3   OH210856   5.375   4.287   5.765
 3638TIP3    H110857   5.313   4.238   5.710
 3638TIP3    H210858   5.454   4.233   5.764
 3639TIP3   OH210859   4.073   3.456   0.582
 3639TIP3    H110860   4.042   3.366   0.572
 3639TIP3    H210861   4.007   3.510   0.538
 3640TIP3   OH210862   3.809   4.298   3.108
 3640TIP3    H110863   3.739   4.337   3.161
 3640TIP3    H210864   3.844   4.227   3.163
 3641TIP3   OH210865   5.688   6.114   5.821
 3641TIP3    H110866   5.651   6.054   5.755
 3641TIP3    H210867   5.781   6.091   5.824
 3642TIP3   OH210868   3.636   4.886   2.102
 3642TIP3    H110869   3.668   4.921   2.186
 3642TIP3    H210870   3.715   4.876   2.049
 3643TIP3   OH210871   6.298   1.819   6.085
 3643TIP3    H110872   6.210   1.788   6.065
 3643TIP3    H210873   6.285   1.886   6.153
 3644TIP3   OH210874   4.001   1.873   6.104
 3644TIP3    H110875   3.908   1.857   6.122
 3644TIP3    H210876   4.048   1.820   6.167
 3645TIP3   OH210877   5.269   2.711   4.255
 3645TIP3    H110878   5.226   2.673   4.332
 3645TIP3    H210879   5.360   2.683   4.262
 3646TIP3   OH210880   2.776   3.480   4.866
 3646TIP3    H110881   2.871   3.473   4.877
 3646TIP3    H210882   2.765   3.501   4.773
 3647TIP3   OH210883   7.127   4.102   1.576
 3647TIP3    H110884   7.098   4.013   1.594
 3647TIP3    H210885   7.056   4.140   1.523
 3648TIP3   OH210886   1.967   5.526   5.835
 3648TIP3    H110887   1.973   5.486   5.748
 3648TIP3    H210888   2.020   5.470   5.891
 3649TIP3   OH210889   0.728   3.751   4.945
 3649TIP3    H110890   0.808   3.801   4.964
 3649TIP3    H210891   0.754   3.659   4.958
 3650TIP3   OH210892   7.398   0.384   5.205
 3650TIP3    H110893   7.452   0.461   5.183
 3650TIP3    H210894   7.360   0.358   5.121
 3651TIP3   OH210895   7.089   1.293   1.395
 3651TIP3    H110896   7.036   1.234   1.341
 3651TIP3    H210897   7.141   1.343   1.332
 3652TIP3   OH210898   2.821   1.984   2.838
 3652TIP3    H110899   2.879   1.939   2.777
 3652TIP3    H210900   2.779   1.914   2.887
 3653TIP3   OH210901   4.611   0.053   6.590
 3653TIP3    H110902   4.683   0.040   6.528
 3653TIP3    H210903   4.571   0.135   6.562
 3654TIP3   OH210904   3.959   1.465   3.107
 3654TIP3    H110905   3.986   1.529   3.041
 3654TIP3    H210906   3.865   1.454   3.094
 3655TIP3   OH210907   5.224   2.390   4.678
 3655TIP3    H110908   5.237   2.338   4.599
 3655TIP3    H210909   5.258   2.335   4.749
 3656TIP3   OH210910   3.187   4.048   1.057
 3656TIP3    H110911   3.124   3.976   1.057
 3656TIP3    H210912   3.132   4.127   1.056
 3657TIP3   OH210913   7.844   5.903   2.231
 3657TIP3    H110914   7.918   5.960   2.252
 3657TIP3    H210915   7.785   5.912   2.306
 3658TIP3   OH210916   0.453   7.185   2.383
 3658TIP3    H110917   0.394   7.261   2.391
 3658TIP3    H210918   0.411   7.129   2.319
 3659TIP3   OH210919   6.256   6.778   0.533
 3659TIP3    H110920   6.335   6.814   0.493
 3659TIP3    H210921   6.272   6.684   0.539
 3660TIP3   OH210922   7.604   6.851   6.358
 3660TIP3    H110923   7.591   6.926   6.415
 3660TIP3    H210924   7.642   6.784   6.415
 3661TIP3   OH210925   4.327   5.595   6.042
 3661TIP3    H110926   4.422   5.602   6.039
 3661TIP3    H210927   4.295   5.676   6.004
 3662TIP3   OH210928   4.569   3.795   1.666
 3662TIP3    H110929   4.494   3.853   1.676
 3662TIP3    H210930   4.610   3.822   1.584
 3663TIP3   OH210931   3.820   2.986   6.191
 3663TIP3    H110932   3.900   2.967   6.142
 3663TIP3    H210933   3.756   2.925   6.157
 3664TIP3   OH210934   3.345   5.735   3.247
 3664TIP3    H110935   3.420   5.775   3.202
 3664TIP3    H210936   3.316   5.666   3.188
 3665TIP3   OH210937   6.306   1.224   4.659
 3665TIP3    H110938   6.396   1.212   4.628
 3665TIP3    H210939   6.253   1.221   4.580
 3666TIP3   OH210940   0.400   4.063   2.506
 3666TIP3    H110941   0.315   4.090   2.541
 3666TIP3    H210942   0.464   4.111   2.559
 3667TIP3   OH210943   4.356   6.955   4.190
 3667TIP3    H110944   4.320   6.998   4.113
 3667TIP3    H210945   4.299   6.980   4.261
 3668TIP3   OH210946   4.708   4.175   0.447
 3668TIP3    H110947   4.791   4.139   0.416
 3668TIP3    H210948   4.726   4.201   0.538
 3669TIP3   OH210949   5.220   2.293   4.196
 3669TIP3    H110950   5.132   2.265   4.222
 3669TIP3    H210951   5.214   2.306   4.101
 3670TIP3   OH210952   4.781   5.131   1.630
 3670TIP3    H110953   4.699   5.082   1.630
 3670TIP3    H210954   4.775   5.187   1.708
 3671TIP3   OH210955   5.786   4.565   0.111
 3671TIP3    H110956   5.785   4.537   0.020
 3671TIP3    H210957   5.814   4.487   0.159
 3672TIP3   OH210958   1.050   7.762   5.500
 3672TIP3    H110959   1.131   7.711   5.499
 3672TIP3    H210960   0.981   7.697   5.512
 3673TIP3   OH210961   4.334   2.338   5.327
 3673TIP3    H110962   4.384   2.302   5.254
 3673TIP3    H210963   4.396   2.395   5.373
 3674TIP3   OH210964   2.773   1.983   3.190
 3674TIP3    H110965   2.814   2.030   3.262
 3674TIP3    H210966   2.682   2.013   3.191
 3675TIP3   OH210967   4.077   3.442   5.478
 3675TIP3    H110968   4.152   3.461   5.422
 3675TIP3    H210969   4.067   3.521   5.531
 3676TIP3   OH210970   7.341   2.896   0.419
 3676TIP3    H110971   7.406   2.873   0.485
 3676TIP3    H210972   7.366   2.847   0.341
 3677TIP3   OH210973   0.283   5.980   4.199
 3677TIP3    H110974   0.352   6.016   4.254
 3677TIP3    H210975   0.235   5.921   4.257
 3678TIP3   OH210976   2.637   2.826   4.193
 3678TIP3    H110977   2.544   2.843   4.211
 3678TIP3    H210978   2.637   2.749   4.136
 3679TIP3   OH210979   7.954   1.259   0.894
 3679TIP3    H110980   8.036   1.290   0.932
 3679TIP3    H210981   7.971   1.257   0.799
 3680TIP3   OH210982   4.827   4.154   6.101
 3680TIP3    H110983   4.812   4.232   6.155
 3680TIP3    H210984   4.800   4.081   6.157
 3681TIP3   OH210985   0.451   0.928   2.275
 3681TIP3    H110986   0.445   0.953   2.367
 3681TIP3    H210987   0.544   0.936   2.254
 3682TIP3   OH210988   0.486   3.447   1.811
 3682TIP3    H110989   0.480   3.542   1.820
 3682TIP3    H210990   0.509   3.433   1.719
 3683TIP3   OH210991   3.997   6.869   3.966
 3683TIP3    H110992   3.970   6.954   4.001
 3683TIP3    H210993   4.033   6.823   4.042
 3684TIP3   OH210994   1.079   5.912   1.646
 3684TIP3    H110995   1.125   5.877   1.569
 3684TIP3    H210996   1.117   5.999   1.658
 3685TIP3   OH210997   7.344   6.625   1.922
 3685TIP3    H110998   7.287   6.690   1.883
 3685TIP3    H210999   7.299   6.598   2.002
 3686TIP3   OH211000   6.178   3.664   1.112
 3686TIP3    H111001   6.179   3.570   1.129
 3686TIP3    H211002   6.211   3.703   1.194
 3687TIP3   OH211003   0.887   1.505   6.282
 3687TIP3    H111004   0.907   1.582   6.229
 3687TIP3    H211005   0.972   1.466   6.300
 3688TIP3   OH211006   3.302   6.766   1.337
 3688TIP3    H111007   3.211   6.775   1.365
 3688TIP3    H211008   3.307   6.679   1.299
 3689TIP3   OH211009   5.488   4.970   4.151
 3689TIP3    H111010   5.562   5.030   4.155
 3689TIP3    H211011   5.509   4.910   4.079
 3690TIP3   OH211012   5.426   5.392   1.357
 3690TIP3    H111013   5.374   5.471   1.375
 3690TIP3    H211014   5.373   5.321   1.392
 3691TIP3   OH211015   3.391   0.783   3.722
 3691TIP3    H111016   3.321   0.831   3.677
 3691TIP3    H211017   3.407   0.707   3.667
 3692TIP3   OH211018   4.251   4.924   2.963
 3692TIP3    H111019   4.270   5.017   2.952
 3692TIP3    H211020   4.157   4.920   2.983
 3693TIP3   OH211021   0.431   2.897   3.523
 3693TIP3    H111022   0.480   2.824   3.561
 3693TIP3    H211023   0.352   2.903   3.577
 3694TIP3   OH211024   6.281   2.789   3.451
 3694TIP3    H111025   6.228   2.780   3.372
 3694TIP3    H211026   6.351   2.725   3.441
 3695TIP3   OH211027   7.917   6.510   2.570
 3695TIP3    H111028   7.994   6.517   2.514
 3695TIP3    H211029   7.940   6.561   2.648
 3696TIP3   OH211030   6.156   6.876   4.958
 3696TIP3    H111031   6.145   6.913   4.870
 3696TIP3    H211032   6.243   6.836   4.957
 3697TIP3   OH211033   5.185   3.536   2.858
 3697TIP3    H111034   5.149   3.466   2.912
 3697TIP3    H211035   5.190   3.611   2.916
 3698TIP3   OH211036   4.708   4.612   2.806
 3698TIP3    H111037   4.707   4.524   2.766
 3698TIP3    H211038   4.643   4.662   2.756
 3699TIP3   OH211039   4.090   4.345   3.332
 3699TIP3    H111040   4.147   4.420   3.348
 3699TIP3    H211041   4.013   4.360   3.387
 3700TIP3   OH211042   0.071   3.753   4.427
 3700TIP3    H111043   0.086   3.812   4.353
 3700TIP3    H211044   0.130   3.679   4.410
 3701TIP3   OH211045   4.575   1.741   1.467
 3701TIP3    H111046   4.586   1.715   1.558
 3701TIP3    H211047   4.516   1.815   1.469
 3702TIP3   OH211048   3.854   5.027   5.478
 3702TIP3    H111049   3.808   5.104   5.444
 3702TIP3    H211050   3.825   4.955   5.423
 3703TIP3   OH211051   4.183   6.990   5.443
 3703TIP3    H111052   4.172   6.895   5.443
 3703TIP3    H211053   4.104   7.023   5.486
 3704TIP3   OH211054   4.305   5.189   2.953
 3704TIP3    H111055   4.253   5.267   2.934
 3704TIP3    H211056   4.385   5.222   2.993
 3705TIP3   OH211057   6.006   3.592   2.741
 3705TIP3    H111058   5.930   3.607   2.686
 3705TIP3    H211059   6.069   3.660   2.714
 3706TIP3   OH211060   1.016   4.216   1.837
 3706TIP3    H111061   1.040   4.129   1.869
 3706TIP3    H211062   0.928   4.204   1.802
 3707TIP3   OH211063   4.141   4.081   4.454
 3707TIP3    H111064   4.071   4.052   4.513
 3707TIP3    H211065   4.099   4.146   4.398
 3708TIP3   OH211066   8.067   0.934   4.246
 3708TIP3    H111067   8.110   0.862   4.199
 3708TIP3    H211068   7.974   0.918   4.234
 3709TIP3   OH211069   4.356   7.505   2.611
 3709TIP3    H111070   4.422   7.442   2.580
 3709TIP3    H211071   4.396   7.590   2.595
 3710TIP3   OH211072   1.339   0.798   6.601
 3710TIP3    H111073   1.385   0.758   6.674
 3710TIP3    H211074   1.327   0.890   6.628
 3711TIP3   OH211075   1.127   5.548   0.044
 3711TIP3    H111076   1.062   5.563  -0.025
 3711TIP3    H211077   1.119   5.455   0.065
 3712TIP3   OH211078   1.534   4.294   5.002
 3712TIP3    H111079   1.528   4.305   4.907
 3712TIP3    H211080   1.540   4.199   5.015
 3713TIP3   OH211081   4.472   7.223   4.330
 3713TIP3    H111082   4.387   7.254   4.362
 3713TIP3    H211083   4.466   7.128   4.338
 3714TIP3   OH211084   2.305   2.252   5.220
 3714TIP3    H111085   2.388   2.250   5.172
 3714TIP3    H211086   2.287   2.160   5.240
 3715TIP3   OH211087   6.546   5.825   5.022
 3715TIP3    H111088   6.465   5.848   5.068
 3715TIP3    H211089   6.612   5.819   5.091
 3716TIP3   OH211090   0.788   5.534   0.555
 3716TIP3    H111091   0.704   5.527   0.600
 3716TIP3    H211092   0.819   5.622   0.577
 3717TIP3   OH211093   0.087   2.553   2.197
 3717TIP3    H111094   0.148   2.546   2.270
 3717TIP3    H211095   0.010   2.503   2.225
 3718TIP3   OH211096   2.259   0.747   6.305
 3718TIP3    H111097   2.271   0.813   6.237
 3718TIP3    H211098   2.279   0.664   6.262
 3719TIP3   OH211099   7.220   4.771   0.881
 3719TIP3    H111100   7.129   4.773   0.850
 3719TIP3    H211101   7.272   4.753   0.803
 3720TIP3   OH211102   1.857   7.675   4.156
 3720TIP3    H111103   1.788   7.721   4.107
 3720TIP3    H211104   1.840   7.582   4.141
 3721TIP3   OH211105   7.439   4.456   2.570
 3721TIP3    H111106   7.515   4.402   2.593
 3721TIP3    H211107   7.429   4.444   2.476
 3722TIP3   OH211108   1.583   6.764   2.662
 3722TIP3    H111109   1.567   6.671   2.645
 3722TIP3    H211110   1.546   6.809   2.586
 3723TIP3   OH211111   0.615   2.072   2.129
 3723TIP3    H111112   0.657   2.009   2.187
 3723TIP3    H211113   0.524   2.075   2.158
 3724TIP3   OH211114   7.216   0.881   5.735
 3724TIP3    H111115   7.228   0.929   5.653
 3724TIP3    H211116   7.248   0.793   5.716
 3725TIP3   OH211117   1.011   5.215   0.740
 3725TIP3    H111118   0.928   5.229   0.785
 3725TIP3    H211119   1.071   5.277   0.781
 3726TIP3   OH211120   4.122   6.687   2.657
 3726TIP3    H111121   4.192   6.749   2.678
 3726TIP3    H211122   4.068   6.733   2.592
 3727TIP3   OH211123   2.752   0.982   5.977
 3727TIP3    H111124   2.679   1.035   5.946
 3727TIP3    H211125   2.733   0.966   6.069
 3728TIP3   OH211126   6.751   4.900   5.585
 3728TIP3    H111127   6.832   4.869   5.626
 3728TIP3    H211128   6.746   4.993   5.609
 3729TIP3   OH211129   3.954   5.086   3.225
 3729TIP3    H111130   3.864   5.062   3.246
 3729TIP3    H211131   3.958   5.181   3.236
 3730TIP3   OH211132   0.601   3.458   5.146
 3730TIP3    H111133   0.614   3.441   5.239
 3730TIP3    H211134   0.690   3.462   5.110
 3731TIP3   OH211135   2.998   1.091   5.049
 3731TIP3    H111136   2.949   1.015   5.081
 3731TIP3    H211137   2.932   1.145   5.005
 3732TIP3   OH211138   7.185   7.451   0.560
 3732TIP3    H111139   7.196   7.515   0.490
 3732TIP3    H211140   7.148   7.500   0.633
 3733TIP3   OH211141   7.497   0.966   2.756
 3733TIP3    H111142   7.466   1.055   2.769
 3733TIP3    H211143   7.458   0.915   2.828
 3734TIP3   OH211144   5.614   1.805   1.762
 3734TIP3    H111145   5.671   1.863   1.712
 3734TIP3    H211146   5.671   1.767   1.829
 3735TIP3   OH211147   2.405   0.800   4.898
 3735TIP3    H111148   2.342   0.784   4.969
 3735TIP3    H211149   2.395   0.724   4.840
 3736TIP3   OH211150   0.841   3.178   6.572
 3736TIP3    H111151   0.781   3.103   6.581
 3736TIP3    H211152   0.800   3.248   6.622
 3737TIP3   OH211153   5.321   0.683   3.032
 3737TIP3    H111154   5.247   0.729   2.993
 3737TIP3    H211155   5.337   0.609   2.973
 3738TIP3   OH211156   2.482   7.618   3.160
 3738TIP3    H111157   2.400   7.659   3.134
 3738TIP3    H211158   2.457   7.553   3.225
 3739TIP3   OH211159   5.778   0.720   2.739
 3739TIP3    H111160   5.790   0.626   2.725
 3739TIP3    H211161   5.765   0.728   2.834
 3740TIP3   OH211162   3.816   2.493   1.090
 3740TIP3    H111163   3.760   2.436   1.036
 3740TIP3    H211164   3.755   2.543   1.143
 3741TIP3   OH211165   0.813   2.391   3.083
 3741TIP3    H111166   0.869   2.422   3.012
 3741TIP3    H211167   0.728   2.374   3.042
 3742TIP3   OH211168   1.371   4.505   0.637
 3742TIP3    H111169   1.306   4.546   0.694
 3742TIP3    H211170   1.383   4.417   0.673
 3743TIP3   OH211171   2.771   6.343   2.701
 3743TIP3    H111172   2.822   6.347   2.620
 3743TIP3    H211173   2.827   6.384   2.767
 3744TIP3   OH211174   4.783   3.476   1.954
 3744TIP3    H111175   4.762   3.456   1.863
 3744TIP3    H211176   4.711   3.438   2.004
 3745TIP3   OH211177   0.119   1.294   2.522
 3745TIP3    H111178   0.052   1.283   2.455
 3745TIP3    H211179   0.199   1.263   2.481
 3746TIP3   OH211180   4.203   3.520   5.819
 3746TIP3    H111181   4.290   3.550   5.795
 3746TIP3    H211182   4.151   3.531   5.739
 3747TIP3   OH211183   0.254   7.261   3.400
 3747TIP3    H111184   0.287   7.209   3.473
 3747TIP3    H211185   0.287   7.349   3.416
 3748TIP3   OH211186   4.055   4.180   6.070
 3748TIP3    H111187   4.125   4.119   6.091
 3748TIP3    H211188   4.079   4.216   5.984
 3749TIP3   OH211189   4.532   7.583   4.348
 3749TIP3    H111190   4.493   7.559   4.431
 3749TIP3    H211191   4.579   7.664   4.366
 3750TIP3   OH211192   1.691   2.188   5.124
 3750TIP3    H111193   1.611   2.189   5.177
 3750TIP3    H211194   1.678   2.257   5.059
 3751TIP3   OH211195   5.942   4.858   0.800
 3751TIP3    H111196   6.010   4.803   0.761
 3751TIP3    H211197   5.973   4.948   0.787
 3752TIP3   OH211198   5.589   3.887   1.256
 3752TIP3    H111199   5.563   3.796   1.265
 3752TIP3    H211200   5.637   3.906   1.337
 3753TIP3   OH211201   6.570   0.547   0.691
 3753TIP3    H111202   6.652   0.508   0.661
 3753TIP3    H211203   6.543   0.605   0.621
 3754TIP3   OH211204   2.992   3.744   3.219
 3754TIP3    H111205   2.965   3.744   3.127
 3754TIP3    H211206   3.085   3.768   3.216
 3755TIP3   OH211207   0.313   2.984   3.925
 3755TIP3    H111208   0.352   3.071   3.935
 3755TIP3    H211209   0.357   2.931   3.992
 3756TIP3   OH211210   2.786   1.126   5.683
 3756TIP3    H111211   2.741   1.059   5.735
 3756TIP3    H211212   2.832   1.077   5.615
 3757TIP3   OH211213   2.192   3.393   0.474
 3757TIP3    H111214   2.175   3.325   0.408
 3757TIP3    H211215   2.106   3.424   0.500
 3758TIP3   OH211216   7.361   6.917   4.431
 3758TIP3    H111217   7.452   6.945   4.440
 3758TIP3    H211218   7.319   6.942   4.513
 3759TIP3   OH211219   1.404   0.313   4.417
 3759TIP3    H111220   1.382   0.388   4.361
 3759TIP3    H211221   1.321   0.268   4.430
 3760TIP3   OH211222   6.527   7.747   6.631
 3760TIP3    H111223   6.448   7.752   6.577
 3760TIP3    H211224   6.598   7.738   6.567
 3761TIP3   OH211225   0.101   0.133   6.455
 3761TIP3    H111226   0.026   0.084   6.490
 3761TIP3    H211227   0.154   0.067   6.411
 3762TIP3   OH211228   1.044   5.187   4.680
 3762TIP3    H111229   1.026   5.210   4.771
 3762TIP3    H211230   0.974   5.124   4.658
 3763TIP3   OH211231   3.712   6.187   6.702
 3763TIP3    H111232   3.759   6.268   6.682
 3763TIP3    H211233   3.684   6.154   6.617
 3764TIP3   OH211234   3.833   0.192   3.149
 3764TIP3    H111235   3.759   0.132   3.135
 3764TIP3    H211236   3.801   0.255   3.214
 3765TIP3   OH211237   5.403   5.608   2.686
 3765TIP3    H111238   5.350   5.528   2.686
 3765TIP3    H211239   5.487   5.581   2.648
 3766TIP3   OH211240   4.547   6.592   5.492
 3766TIP3    H111241   4.522   6.616   5.402
 3766TIP3    H211242   4.642   6.607   5.494
 3767TIP3   OH211243   5.260   4.560   0.843
 3767TIP3    H111244   5.312   4.494   0.798
 3767TIP3    H211245   5.254   4.528   0.933
 3768TIP3   OH211246   6.467   5.986   2.154
 3768TIP3    H111247   6.463   5.891   2.154
 3768TIP3    H211248   6.551   6.006   2.112
 3769TIP3   OH211249   6.020   3.877   3.468
 3769TIP3    H111250   5.977   3.794   3.447
 3769TIP3    H211251   6.046   3.913   3.384
 3770TIP3   OH211252   0.498   7.146   0.615
 3770TIP3    H111253   0.470   7.054   0.617
 3770TIP3    H211254   0.592   7.141   0.597
 3771TIP3   OH211255   3.197   1.447   3.105
 3771TIP3    H111256   3.134   1.422   3.172
 3771TIP3    H211257   3.209   1.541   3.118
 3772TIP3   OH211258   4.961   5.796   0.004
 3772TIP3    H111259   4.996   5.732   0.067
 3772TIP3    H211260   4.871   5.812   0.034
 3773TIP3   OH211261   1.358   4.988   5.256
 3773TIP3    H111262   1.440   4.976   5.208
 3773TIP3    H211263   1.355   4.913   5.316
 3774TIP3   OH211264   2.476   5.239   0.025
 3774TIP3    H111265   2.547   5.203   0.078
 3774TIP3    H211266   2.476   5.332   0.045
 3775TIP3   OH211267   0.604   1.096   0.200
 3775TIP3    H111268   0.639   1.184   0.185
 3775TIP3    H211269   0.627   1.076   0.291
 3776TIP3   OH211270   3.214   3.943   5.510
 3776TIP3    H111271   3.170   4.016   5.553
 3776TIP3    H211272   3.143   3.884   5.485
 3777TIP3   OH211273   2.778   6.989   3.493
 3777TIP3    H111274   2.805   7.063   3.548
 3777TIP3    H211275   2.860   6.948   3.468
 3778TIP3   OH211276   0.834   5.645   3.956
 3778TIP3    H111277   0.910   5.625   3.902
 3778TIP3    H211278   0.856   5.727   4.000
 3779TIP3   OH211279   7.883   0.722   3.564
 3779TIP3    H111280   7.977   0.706   3.566
 3779TIP3    H211281   7.871   0.803   3.614
 3780TIP3   OH211282   0.652   0.455   3.263
 3780TIP3    H111283   0.714   0.504   3.316
 3780TIP3    H211284   0.586   0.519   3.236
 3781TIP3   OH211285   7.020   5.229   6.191
 3781TIP3    H111286   6.935   5.194   6.217
 3781TIP3    H211287   7.024   5.316   6.230
 3782TIP3   OH211288   0.207   7.820   6.336
 3782TIP3    H111289   0.192   7.739   6.384
 3782TIP3    H211290   0.158   7.809   6.254
 3783TIP3   OH211291   0.266   0.069   5.607
 3783TIP3    H111292   0.171   0.063   5.601
 3783TIP3    H211293   0.287   0.033   5.693
 3784TIP3   OH211294   6.907   6.084   2.255
 3784TIP3    H111295   6.826   6.081   2.204
 3784TIP3    H211296   6.975   6.055   2.193
 3785TIP3   OH211297   6.394   0.702   3.695
 3785TIP3    H111298   6.341   0.696   3.775
 3785TIP3    H211299   6.417   0.612   3.674
 3786TIP3   OH211300   5.797   0.452   6.751
 3786TIP3    H111301   5.766   0.512   6.819
 3786TIP3    H211302   5.864   0.501   6.704
 3787TIP3   OH211303   3.320   5.935   4.936
 3787TIP3    H111304   3.290   5.947   5.026
 3787TIP3    H211305   3.278   5.854   4.908
 3788TIP3   OH211306   3.672   1.505   3.081
 3788TIP3    H111307   3.602   1.565   3.056
 3788TIP3    H211308   3.628   1.432   3.124
 3789TIP3   OH211309   2.545   1.983   4.969
 3789TIP3    H111310   2.520   2.068   5.004
 3789TIP3    H211311   2.462   1.941   4.945
 3790TIP3   OH211312   7.965   3.426   1.537
 3790TIP3    H111313   7.998   3.514   1.521
 3790TIP3    H211314   7.978   3.411   1.631
 3791TIP3   OH211315   6.446   2.225   5.027
 3791TIP3    H111316   6.400   2.275   5.094
 3791TIP3    H211317   6.538   2.230   5.052
 3792TIP3   OH211318   2.072   5.070   5.238
 3792TIP3    H111319   2.048   5.001   5.176
 3792TIP3    H211320   2.140   5.120   5.192
 3793TIP3   OH211321   4.000   1.944   5.778
 3793TIP3    H111322   3.931   2.010   5.781
 3793TIP3    H211323   3.959   1.865   5.813
 3794TIP3   OH211324   0.700   6.356   5.645
 3794TIP3    H111325   0.720   6.404   5.565
 3794TIP3    H211326   0.654   6.277   5.614
 3795TIP3   OH211327   4.267   0.886   5.252
 3795TIP3    H111328   4.345   0.831   5.254
 3795TIP3    H211329   4.206   0.844   5.314
 3796TIP3   OH211330   0.497   7.102   0.331
 3796TIP3    H111331   0.451   7.135   0.408
 3796TIP3    H211332   0.529   7.015   0.357
 3797TIP3   OH211333   5.025   2.527   5.446
 3797TIP3    H111334   4.946   2.578   5.464
 3797TIP3    H211335   5.037   2.532   5.351
 3798TIP3   OH211336   7.886   1.097   4.923
 3798TIP3    H111337   7.822   1.169   4.916
 3798TIP3    H211338   7.851   1.029   4.865
 3799TIP3   OH211339   7.255   5.297   0.330
 3799TIP3    H111340   7.174   5.266   0.288
 3799TIP3    H211341   7.318   5.227   0.313
 3800TIP3   OH211342   1.569   1.664   6.632
 3800TIP3    H111343   1.512   1.612   6.689
 3800TIP3    H211344   1.509   1.718   6.581
 3801TIP3   OH211345   6.080   0.308   1.843
 3801TIP3    H111346   6.123   0.340   1.923
 3801TIP3    H211347   6.129   0.229   1.820
 3802TIP3   OH211348   3.732   0.827   0.564
 3802TIP3    H111349   3.742   0.753   0.505
 3802TIP3    H211350   3.640   0.852   0.555
 3803TIP3   OH211351   6.451   1.920   6.418
 3803TIP3    H111352   6.376   1.870   6.452
 3803TIP3    H211353   6.515   1.854   6.393
 3804TIP3   OH211354   6.985   4.096   5.936
 3804TIP3    H111355   6.906   4.074   5.887
 3804TIP3    H211356   6.954   4.127   6.021
 3805TIP3   OH211357   6.500   6.984   2.666
 3805TIP3    H111358   6.541   6.942   2.591
 3805TIP3    H211359   6.407   6.959   2.659
 3806TIP3   OH211360   6.245   0.066   4.519
 3806TIP3    H111361   6.153   0.041   4.528
 3806TIP3    H211362   6.263   0.055   4.425
 3807TIP3   OH211363   2.074   4.502   3.421
 3807TIP3    H111364   2.123   4.583   3.434
 3807TIP3    H211365   1.999   4.510   3.481
 3808TIP3   OH211366   0.142   3.129   0.260
 3808TIP3    H111367   0.223   3.131   0.311
 3808TIP3    H211368   0.072   3.129   0.325
 3809TIP3   OH211369   7.360   1.103   3.401
 3809TIP3    H111370   7.384   1.012   3.384
 3809TIP3    H211371   7.266   1.099   3.418
 3810TIP3   OH211372   5.315   3.379   6.710
 3810TIP3    H111373   5.255   3.418   6.775
 3810TIP3    H211374   5.401   3.387   6.751
 3811TIP3   OH211375   3.379   4.909   2.239
 3811TIP3    H111376   3.454   4.899   2.180
 3811TIP3    H211377   3.344   4.821   2.248
 3812TIP3   OH211378   0.950   0.505   0.488
 3812TIP3    H111379   0.982   0.569   0.424
 3812TIP3    H211380   0.890   0.449   0.438
 3813TIP3   OH211381   1.914   1.242   5.460
 3813TIP3    H111382   1.951   1.328   5.441
 3813TIP3    H211383   1.991   1.187   5.480
 3814TIP3   OH211384   3.385   0.154   2.847
 3814TIP3    H111385   3.376   0.188   2.936
 3814TIP3    H211386   3.363   0.061   2.855
 3815TIP3   OH211387   0.398   6.887   5.152
 3815TIP3    H111388   0.336   6.932   5.094
 3815TIP3    H211389   0.350   6.810   5.183
 3816TIP3   OH211390   6.319   0.981   6.088
 3816TIP3    H111391   6.334   0.927   6.011
 3816TIP3    H211392   6.236   0.950   6.124
 3817TIP3   OH211393   6.578   7.585   4.636
 3817TIP3    H111394   6.634   7.564   4.711
 3817TIP3    H211395   6.639   7.614   4.568
 3818TIP3   OH211396   8.089   4.434   1.996
 3818TIP3    H111397   8.063   4.513   2.042
 3818TIP3    H211398   8.185   4.438   1.994
 3819TIP3   OH211399   5.886   0.824   3.882
 3819TIP3    H111400   5.797   0.849   3.859
 3819TIP3    H211401   5.922   0.901   3.927
 3820TIP3   OH211402   0.339   6.396   5.412
 3820TIP3    H111403   0.365   6.435   5.495
 3820TIP3    H211404   0.258   6.348   5.433
 3821TIP3   OH211405   4.224   7.804   2.925
 3821TIP3    H111406   4.237   7.898   2.933
 3821TIP3    H211407   4.245   7.784   2.834
 3822TIP3   OH211408   4.635   3.617   2.688
 3822TIP3    H111409   4.599   3.705   2.695
 3822TIP3    H211410   4.720   3.622   2.732
 3823TIP3   OH211411   3.696   1.674   5.545
 3823TIP3    H111412   3.731   1.757   5.576
 3823TIP3    H211413   3.738   1.661   5.460
 3824TIP3   OH211414   0.363   3.701   6.312
 3824TIP3    H111415   0.392   3.694   6.403
 3824TIP3    H211416   0.442   3.723   6.263
 3825TIP3   OH211417   6.660   1.721   1.577
 3825TIP3    H111418   6.629   1.657   1.640
 3825TIP3    H211419   6.612   1.702   1.497
 3826TIP3   OH211420   2.743   2.197   0.336
 3826TIP3    H111421   2.708   2.139   0.403
 3826TIP3    H211422   2.675   2.199   0.268
 3827TIP3   OH211423   4.218   6.047   4.175
 3827TIP3    H111424   4.209   5.980   4.107
 3827TIP3    H211425   4.304   6.086   4.158
 3828TIP3   OH211426   6.514   4.926   5.345
 3828TIP3    H111427   6.528   5.015   5.311
 3828TIP3    H211428   6.459   4.938   5.422
 3829TIP3   OH211429   5.564   0.776   5.094
 3829TIP3    H111430   5.497   0.844   5.093
 3829TIP3    H211431   5.618   0.797   5.170
 3830TIP3   OH211432   5.595   4.648   2.026
 3830TIP3    H111433   5.601   4.730   1.977
 3830TIP3    H211434   5.562   4.674   2.112
 3831TIP3   OH211435   3.137   3.319   0.982
 3831TIP3    H111436   3.190   3.293   1.058
 3831TIP3    H211437   3.069   3.252   0.976
 3832TIP3   OH211438   7.497   2.408   0.942
 3832TIP3    H111439   7.564   2.428   0.877
 3832TIP3    H211440   7.431   2.477   0.931
 3833TIP3   OH211441   4.588   6.031   4.342
 3833TIP3    H111442   4.556   6.064   4.257
 3833TIP3    H211443   4.513   5.986   4.380
 3834TIP3   OH211444   0.870   7.480   1.629
 3834TIP3    H111445   0.835   7.483   1.540
 3834TIP3    H211446   0.855   7.390   1.658
 3835TIP3   OH211447   6.837   1.064   5.226
 3835TIP3    H111448   6.807   1.139   5.277
 3835TIP3    H211449   6.930   1.057   5.246
 3836TIP3   OH211450   2.222   0.950   1.664
 3836TIP3    H111451   2.270   0.971   1.584
 3836TIP3    H211452   2.137   0.992   1.653
 3837TIP3   OH211453   4.321   6.631   0.072
 3837TIP3    H111454   4.348   6.702   0.130
 3837TIP3    H211455   4.374   6.643  -0.007
 3838TIP3   OH211456   0.973   4.032   2.725
 3838TIP3    H111457   1.002   4.106   2.778
 3838TIP3    H211458   1.053   3.997   2.686
 3839TIP3   OH211459   2.257   4.171   1.708
 3839TIP3    H111460   2.247   4.142   1.799
 3839TIP3    H211461   2.209   4.254   1.703
 3840TIP3   OH211462   4.384   3.885   0.200
 3840TIP3    H111463   4.397   3.792   0.182
 3840TIP3    H211464   4.322   3.886   0.273
 3841TIP3   OH211465   6.500   1.872   5.070
 3841TIP3    H111466   6.500   1.827   4.985
 3841TIP3    H211467   6.427   1.833   5.118
 3842TIP3   OH211468   4.827   6.392   5.761
 3842TIP3    H111469   4.773   6.453   5.811
 3842TIP3    H211470   4.767   6.354   5.696
 3843TIP3   OH211471   2.524   4.994   1.948
 3843TIP3    H111472   2.502   4.950   1.867
 3843TIP3    H211473   2.604   5.043   1.929
 3844TIP3   OH211474   3.944   0.431   5.775
 3844TIP3    H111475   3.945   0.458   5.683
 3844TIP3    H211476   3.981   0.342   5.774
 3845TIP3   OH211477   2.837   6.595   2.137
 3845TIP3    H111478   2.914   6.554   2.177
 3845TIP3    H211479   2.789   6.633   2.211
 3846TIP3   OH211480   3.732   5.828   3.574
 3846TIP3    H111481   3.695   5.788   3.653
 3846TIP3    H211482   3.716   5.765   3.505
 3847TIP3   OH211483   3.202   7.591   0.041
 3847TIP3    H111484   3.175   7.660   0.102
 3847TIP3    H211485   3.121   7.548   0.015
 3848TIP3   OH211486   4.385   0.214   2.886
 3848TIP3    H111487   4.389   0.132   2.936
 3848TIP3    H211488   4.454   0.268   2.924
 3849TIP3   OH211489   5.431   4.112   0.282
 3849TIP3    H111490   5.343   4.118   0.319
 3849TIP3    H211491   5.431   4.178   0.211
 3850TIP3   OH211492   4.412   6.340   2.064
 3850TIP3    H111493   4.456   6.380   1.989
 3850TIP3    H211494   4.435   6.395   2.138
 3851TIP3   OH211495   1.901   3.305   4.764
 3851TIP3    H111496   1.898   3.210   4.778
 3851TIP3    H211497   1.923   3.315   4.671
 3852TIP3   OH211498   2.670   4.128   3.558
 3852TIP3    H111499   2.659   4.119   3.464
 3852TIP3    H211500   2.585   4.101   3.595
 3853TIP3   OH211501   2.581   2.939   2.358
 3853TIP3    H111502   2.502   2.940   2.411
 3853TIP3    H211503   2.646   2.892   2.411
 3854TIP3   OH211504   1.210   0.349   3.545
 3854TIP3    H111505   1.118   0.378   3.542
 3854TIP3    H211506   1.257   0.425   3.579
 3855TIP3   OH211507   0.079   2.677   5.275
 3855TIP3    H111508   0.173   2.694   5.283
 3855TIP3    H211509   0.072   2.605   5.214
 3856TIP3   OH211510   1.985   6.289   5.628
 3856TIP3    H111511   1.973   6.208   5.678
 3856TIP3    H211512   1.953   6.358   5.687
 3857TIP3   OH211513   3.365   2.736   0.519
 3857TIP3    H111514   3.304   2.757   0.448
 3857TIP3    H211515   3.450   2.729   0.477
 3858TIP3   OH211516   5.997   5.995   2.769
 3858TIP3    H111517   6.079   5.985   2.816
 3858TIP3    H211518   6.001   5.930   2.699
 3859TIP3   OH211519   1.197   4.040   6.302
 3859TIP3    H111520   1.271   4.095   6.327
 3859TIP3    H211521   1.176   3.992   6.382
 3860TIP3   OH211522   7.620   1.752   5.857
 3860TIP3    H111523   7.684   1.682   5.847
 3860TIP3    H211524   7.538   1.715   5.826
 3861TIP3   OH211525   8.041   3.175   0.154
 3861TIP3    H111526   8.039   3.207   0.064
 3861TIP3    H211527   8.066   3.083   0.146
 3862TIP3   OH211528   3.235   3.642   4.314
 3862TIP3    H111529   3.183   3.699   4.371
 3862TIP3    H211530   3.272   3.701   4.248
 3863TIP3   OH211531   4.759   5.477   4.938
 3863TIP3    H111532   4.853   5.490   4.944
 3863TIP3    H211533   4.723   5.520   5.015
 3864TIP3   OH211534   6.990   0.902   1.247
 3864TIP3    H111535   7.019   0.929   1.159
 3864TIP3    H211536   6.944   0.820   1.233
 3865TIP3   OH211537   2.201   6.716   0.372
 3865TIP3    H111538   2.284   6.724   0.418
 3865TIP3    H211539   2.186   6.803   0.334
 3866TIP3   OH211540   3.023   3.897   3.641
 3866TIP3    H111541   3.077   3.851   3.705
 3866TIP3    H211542   3.084   3.921   3.571
 3867TIP3   OH211543   0.802   4.876   4.333
 3867TIP3    H111544   0.890   4.858   4.367
 3867TIP3    H211545   0.803   4.839   4.244
 3868TIP3   OH211546   6.989   4.287   4.574
 3868TIP3    H111547   6.957   4.251   4.491
 3868TIP3    H211548   7.019   4.375   4.551
 3869TIP3   OH211549   7.939   0.611   4.277
 3869TIP3    H111550   8.016   0.642   4.229
 3869TIP3    H211551   7.973   0.546   4.337
 3870TIP3   OH211552   5.048   1.870   0.203
 3870TIP3    H111553   5.055   1.777   0.182
 3870TIP3    H211554   5.034   1.913   0.119
 3871TIP3   OH211555   3.358   5.370   4.453
 3871TIP3    H111556   3.389   5.450   4.496
 3871TIP3    H211557   3.266   5.387   4.434
 3872TIP3   OH211558   1.963   6.483   6.498
 3872TIP3    H111559   1.933   6.503   6.409
 3872TIP3    H211560   2.023   6.554   6.519
 3873TIP3   OH211561   0.173   2.070   5.636
 3873TIP3    H111562   0.251   2.037   5.591
 3873TIP3    H211563   0.205   2.097   5.722
 3874TIP3   OH211564   3.797   6.537   2.745
 3874TIP3    H111565   3.831   6.521   2.833
 3874TIP3    H211566   3.720   6.592   2.759
 3875TIP3   OH211567   1.508  -0.019   5.432
 3875TIP3    H111568   1.539   0.039   5.502
 3875TIP3    H211569   1.575  -0.013   5.364
 3876TIP3   OH211570   0.040   5.343   4.236
 3876TIP3    H111571   0.097   5.399   4.183
 3876TIP3    H211572  -0.013   5.295   4.172
 3877TIP3   OH211573   8.224   7.106   4.916
 3877TIP3    H111574   8.192   7.170   4.980
 3877TIP3    H211575   8.288   7.155   4.864
 3878TIP3   OH211576   1.203   6.336   1.330
 3878TIP3    H111577   1.295   6.356   1.349
 3878TIP3    H211578   1.206   6.260   1.273
 3879TIP3   OH211579   3.949   0.138   6.371
 3879TIP3    H111580   4.004   0.167   6.298
 3879TIP3    H211581   3.860   0.159   6.343
 3880TIP3   OH211582   2.329   0.237   3.094
 3880TIP3    H111583   2.394   0.222   3.026
 3880TIP3    H211584   2.333   0.159   3.149
 3881TIP3   OH211585   2.769   4.606   3.715
 3881TIP3    H111586   2.762   4.555   3.634
 3881TIP3    H211587   2.844   4.664   3.699
 3882TIP3   OH211588   1.240   3.404   3.414
 3882TIP3    H111589   1.163   3.455   3.439
 3882TIP3    H211590   1.206   3.316   3.399
 3883TIP3   OH211591   1.048   1.599   0.587
 3883TIP3    H111592   1.004   1.638   0.511
 3883TIP3    H211593   0.991   1.619   0.661
 3884TIP3   OH211594   4.213   2.217   3.114
 3884TIP3    H111595   4.140   2.276   3.129
 3884TIP3    H211596   4.211   2.200   3.020
 3885TIP3   OH211597   0.623   1.761   4.536
 3885TIP3    H111598   0.708   1.734   4.502
 3885TIP3    H211599   0.569   1.771   4.457
 3886TIP3   OH211600   3.807   6.317   5.284
 3886TIP3    H111601   3.776   6.229   5.265
 3886TIP3    H211602   3.900   6.315   5.260
 3887TIP3   OH211603   7.561   3.295   4.567
 3887TIP3    H111604   7.588   3.294   4.475
 3887TIP3    H211605   7.558   3.203   4.592
 3888TIP3   OH211606   6.571   0.959   0.541
 3888TIP3    H111607   6.571   0.869   0.509
 3888TIP3    H211608   6.662   0.986   0.535
 3889TIP3   OH211609   3.669   2.725   3.090
 3889TIP3    H111610   3.658   2.633   3.116
 3889TIP3    H211611   3.705   2.767   3.168
 3890TIP3   OH211612   1.049   4.764   2.832
 3890TIP3    H111613   1.101   4.759   2.752
 3890TIP3    H211614   1.109   4.799   2.898
 3891TIP3   OH211615   2.242   5.907   4.082
 3891TIP3    H111616   2.281   5.907   3.995
 3891TIP3    H211617   2.279   5.830   4.125
 3892TIP3   OH211618   6.584   0.900   6.251
 3892TIP3    H111619   6.591   0.819   6.301
 3892TIP3    H211620   6.531   0.958   6.306
 3893TIP3   OH211621   3.842   0.811   2.992
 3893TIP3    H111622   3.752   0.809   2.959
 3893TIP3    H211623   3.886   0.741   2.944
 3894TIP3   OH211624   0.080   3.727   0.272
 3894TIP3    H111625   0.024   3.716   0.195
 3894TIP3    H211626   0.039   3.672   0.339
 3895TIP3   OH211627   7.731   0.972   6.508
 3895TIP3    H111628   7.752   1.035   6.576
 3895TIP3    H211629   7.686   0.901   6.553
 3896TIP3   OH211630   2.302   5.986   6.524
 3896TIP3    H111631   2.238   5.994   6.595
 3896TIP3    H211632   2.316   6.076   6.494
 3897TIP3   OH211633   0.416   3.485   4.217
 3897TIP3    H111634   0.409   3.484   4.121
 3897TIP3    H211635   0.470   3.561   4.237
 3898TIP3   OH211636   6.278   1.646   2.794
 3898TIP3    H111637   6.193   1.602   2.801
 3898TIP3    H211638   6.276   1.712   2.863
 3899TIP3   OH211639   3.219   6.168   0.543
 3899TIP3    H111640   3.168   6.249   0.534
 3899TIP3    H211641   3.208   6.124   0.458
 3900TIP3   OH211642   6.188   6.215   1.123
 3900TIP3    H111643   6.100   6.249   1.106
 3900TIP3    H211644   6.188   6.129   1.082
 3901TIP3   OH211645   1.783   3.083   6.165
 3901TIP3    H111646   1.837   3.085   6.086
 3901TIP3    H211647   1.846   3.094   6.237
 3902TIP3   OH211648   3.842   7.225   2.748
 3902TIP3    H111649   3.859   7.132   2.733
 3902TIP3    H211650   3.871   7.241   2.838
 3903TIP3   OH211651   0.444   7.307   5.006
 3903TIP3    H111652   0.501   7.278   4.936
 3903TIP3    H211653   0.486   7.385   5.042
 3904TIP3   OH211654   5.819   5.155   5.029
 3904TIP3    H111655   5.854   5.078   5.074
 3904TIP3    H211656   5.881   5.225   5.050
 3905TIP3   OH211657   7.802   7.001   5.623
 3905TIP3    H111658   7.789   6.955   5.706
 3905TIP3    H211659   7.776   6.938   5.556
 3906TIP3   OH211660   8.121   2.849   0.531
 3906TIP3    H111661   8.155   2.860   0.442
 3906TIP3    H211662   8.143   2.758   0.554
 3907TIP3   OH211663   4.496   3.161   6.077
 3907TIP3    H111664   4.422   3.154   6.018
 3907TIP3    H211665   4.468   3.114   6.156
 3908TIP3   OH211666   3.478   0.621   1.157
 3908TIP3    H111667   3.432   0.626   1.242
 3908TIP3    H211668   3.423   0.563   1.104
 3909TIP3   OH211669   5.322   2.652   5.630
 3909TIP3    H111670   5.316   2.680   5.539
 3909TIP3    H211671   5.410   2.616   5.639
 3910TIP3   OH211672   1.430   2.054   3.512
 3910TIP3    H111673   1.384   1.986   3.561
 3910TIP3    H211674   1.495   2.006   3.460
 3911TIP3   OH211675   3.470   1.094   2.899
 3911TIP3    H111676   3.458   1.027   2.966
 3911TIP3    H211677   3.387   1.142   2.898
 3912TIP3   OH211678   1.787   6.759   2.380
 3912TIP3    H111679   1.694   6.762   2.402
 3912TIP3    H211680   1.818   6.849   2.395
 3913TIP3   OH211681   5.340   7.310   0.436
 3913TIP3    H111682   5.330   7.223   0.473
 3913TIP3    H211683   5.435   7.324   0.429
 3914TIP3   OH211684   5.125   7.141   1.456
 3914TIP3    H111685   5.083   7.128   1.541
 3914TIP3    H211686   5.210   7.097   1.464
 3915TIP3   OH211687   5.774   2.272   0.810
 3915TIP3    H111688   5.829   2.212   0.861
 3915TIP3    H211689   5.836   2.332   0.770
 3916TIP3   OH211690   4.821   0.740   0.456
 3916TIP3    H111691   4.772   0.688   0.519
 3916TIP3    H211692   4.762   0.748   0.380
 3917TIP3   OH211693   7.073   3.170   2.406
 3917TIP3    H111694   7.107   3.137   2.323
 3917TIP3    H211695   7.142   3.229   2.438
 3918TIP3   OH211696   5.181   6.956   6.669
 3918TIP3    H111697   5.094   6.955   6.710
 3918TIP3    H211698   5.219   7.040   6.695
 3919TIP3   OH211699   6.362   2.735   2.315
 3919TIP3    H111700   6.272   2.705   2.310
 3919TIP3    H211701   6.355   2.831   2.322
 3920TIP3   OH211702   8.274   2.033   2.466
 3920TIP3    H111703   8.189   2.016   2.425
 3920TIP3    H211704   8.256   2.101   2.531
 3921TIP3   OH211705   7.456   3.109   5.662
 3921TIP3    H111706   7.481   3.195   5.696
 3921TIP3    H211707   7.537   3.057   5.666
 3922TIP3   OH211708   0.579   0.205   3.169
 3922TIP3    H111709   0.607   0.161   3.249
 3922TIP3    H211710   0.584   0.299   3.190
 3923TIP3   OH211711   3.611   0.782   2.862
 3923TIP3    H111712   3.627   0.795   2.769
 3923TIP3    H211713   3.518   0.760   2.868
 3924TIP3   OH211714   3.418   6.214   1.760
 3924TIP3    H111715   3.482   6.272   1.802
 3924TIP3    H211716   3.446   6.210   1.669
 3925TIP3   OH211717   6.675   0.685   6.020
 3925TIP3    H111718   6.639   0.771   6.041
 3925TIP3    H211719   6.629   0.625   6.078
 3926TIP3   OH211720   2.458   5.202   6.182
 3926TIP3    H111721   2.519   5.244   6.121
 3926TIP3    H211722   2.380   5.185   6.130
 3927TIP3   OH211723   2.821   1.654   6.072
 3927TIP3    H111724   2.859   1.626   6.156
 3927TIP3    H211725   2.796   1.572   6.029
 3928TIP3   OH211726   5.547   1.740   3.568
 3928TIP3    H111727   5.465   1.691   3.563
 3928TIP3    H211728   5.594   1.717   3.488
 3929TIP3   OH211729   6.908   5.645   6.103
 3929TIP3    H111730   6.917   5.594   6.183
 3929TIP3    H211731   6.960   5.598   6.038
 3930TIP3   OH211732   7.379   2.934   4.763
 3930TIP3    H111733   7.349   2.864   4.821
 3930TIP3    H211734   7.323   3.009   4.786
 3931TIP3   OH211735   2.579   6.074   1.700
 3931TIP3    H111736   2.615   6.007   1.757
 3931TIP3    H211737   2.630   6.153   1.720
 3932TIP3   OH211738   5.624   5.968   4.591
 3932TIP3    H111739   5.627   6.008   4.504
 3932TIP3    H211740   5.582   5.883   4.577
 3933TIP3   OH211741   0.826   3.186   1.096
 3933TIP3    H111742   0.846   3.279   1.106
 3933TIP3    H211743   0.880   3.143   1.161
 3934TIP3   OH211744   5.748   6.736   4.987
 3934TIP3    H111745   5.735   6.643   4.968
 3934TIP3    H211746   5.737   6.743   5.082
 3935TIP3   OH211747   2.648   6.583   1.650
 3935TIP3    H111748   2.659   6.649   1.718
 3935TIP3    H211749   2.682   6.625   1.571
 3936TIP3   OH211750   0.088   0.890   1.581
 3936TIP3    H111751   0.016   0.916   1.525
 3936TIP3    H211752   0.154   0.958   1.570
 3937TIP3   OH211753   7.798   2.753   3.459
 3937TIP3    H111754   7.769   2.734   3.549
 3937TIP3    H211755   7.870   2.815   3.470
 3938TIP3   OH211756   4.998   0.886   5.429
 3938TIP3    H111757   4.938   0.874   5.355
 3938TIP3    H211758   5.018   0.979   5.428
 3939TIP3   OH211759   5.499   4.179   2.207
 3939TIP3    H111760   5.562   4.122   2.249
 3939TIP3    H211761   5.552   4.238   2.153
 3940TIP3   OH211762   4.565   0.173   3.798
 3940TIP3    H111763   4.567   0.267   3.818
 3940TIP3    H211764   4.518   0.167   3.715
 3941TIP3   OH211765   0.284   3.444   1.400
 3941TIP3    H111766   0.261   3.371   1.458
 3941TIP3    H211767   0.272   3.522   1.453
 3942TIP3   OH211768   0.778   3.769   6.678
 3942TIP3    H111769   0.828   3.827   6.735
 3942TIP3    H211770   0.755   3.694   6.733
 3943TIP3   OH211771   0.259   4.620   5.999
 3943TIP3    H111772   0.181   4.652   6.044
 3943TIP3    H211773   0.298   4.557   6.059
 3944TIP3   OH211774   6.038   5.721   3.313
 3944TIP3    H111775   6.058   5.787   3.246
 3944TIP3    H211776   5.977   5.765   3.372
 3945TIP3   OH211777   4.151   4.771   0.629
 3945TIP3    H111778   4.103   4.689   0.642
 3945TIP3    H211779   4.086   4.832   0.594
 3946TIP3   OH211780   2.964   0.356   4.976
 3946TIP3    H111781   2.945   0.444   5.009
 3946TIP3    H211782   3.041   0.328   5.026
 3947TIP3   OH211783   0.059   1.581   2.481
 3947TIP3    H111784   0.108   1.508   2.444
 3947TIP3    H211785  -0.028   1.545   2.500
 3948TIP3   OH211786   4.376   0.853   5.644
 3948TIP3    H111787   4.461   0.894   5.661
 3948TIP3    H211788   4.397   0.761   5.626
 3949TIP3   OH211789   1.280   6.644   3.426
 3949TIP3    H111790   1.302   6.730   3.390
 3949TIP3    H211791   1.193   6.624   3.391
 3950TIP3   OH211792   2.203   1.643   5.279
 3950TIP3    H111793   2.200   1.684   5.365
 3950TIP3    H211794   2.288   1.670   5.242
 3951TIP3   OH211795   0.061   4.092   0.981
 3951TIP3    H111796   0.000   4.025   1.014
 3951TIP3    H211797   0.027   4.174   1.016
 3952TIP3   OH211798   7.934   4.099   4.055
 3952TIP3    H111799   7.915   4.006   4.068
 3952TIP3    H211800   7.906   4.141   4.136
 3953TIP3   OH211801   1.723   2.134   1.672
 3953TIP3    H111802   1.696   2.075   1.742
 3953TIP3    H211803   1.642   2.170   1.636
 3954TIP3   OH211804   0.947   5.647   4.803
 3954TIP3    H111805   0.994   5.656   4.720
 3954TIP3    H211806   0.855   5.636   4.778
 3955TIP3   OH211807   3.832   6.458   2.166
 3955TIP3    H111808   3.889   6.393   2.125
 3955TIP3    H211809   3.773   6.485   2.096
 3956TIP3   OH211810   1.927   5.075   3.954
 3956TIP3    H111811   1.962   5.036   3.874
 3956TIP3    H211812   1.832   5.065   3.946
 3957TIP3   OH211813   0.643   1.375   5.441
 3957TIP3    H111814   0.565   1.322   5.458
 3957TIP3    H211815   0.699   1.318   5.389
 3958TIP3   OH211816   4.252   5.734   4.655
 3958TIP3    H111817   4.233   5.755   4.747
 3958TIP3    H211818   4.191   5.788   4.605
 3959TIP3   OH211819   2.867   0.252   6.368
 3959TIP3    H111820   2.955   0.270   6.335
 3959TIP3    H211821   2.855   0.158   6.356
 3960TIP3   OH211822   6.352   7.774   4.717
 3960TIP3    H111823   6.405   7.703   4.680
 3960TIP3    H211824   6.295   7.730   4.781
 3961TIP3   OH211825   0.020   2.944  -0.002
 3961TIP3    H111826   0.105   2.976   0.028
 3961TIP3    H211827   0.041   2.867  -0.055
 3962TIP3   OH211828   4.673   4.190   1.312
 3962TIP3    H111829   4.678   4.285   1.317
 3962TIP3    H211830   4.670   4.171   1.219
 3963TIP3   OH211831   2.464   3.343   6.372
 3963TIP3    H111832   2.520   3.398   6.427
 3963TIP3    H211833   2.522   3.272   6.343
 3964TIP3   OH211834   0.086   4.780   5.003
 3964TIP3    H111835   0.117   4.793   5.092
 3964TIP3    H211836   0.019   4.712   5.010
 3965TIP3   OH211837   0.979   1.726   3.178
 3965TIP3    H111838   0.948   1.638   3.196
 3965TIP3    H211839   1.047   1.714   3.111
 3966TIP3   OH211840   5.829   7.649   0.965
 3966TIP3    H111841   5.911   7.689   0.936
 3966TIP3    H211842   5.818   7.679   1.055
 3967TIP3   OH211843   1.353   1.966   3.106
 3967TIP3    H111844   1.316   1.956   3.193
 3967TIP3    H211845   1.405   2.046   3.111
 3968TIP3   OH211846   7.498   5.102   3.986
 3968TIP3    H111847   7.458   5.188   3.977
 3968TIP3    H211848   7.472   5.073   4.074
 3969TIP3   OH211849   0.869   0.837   0.481
 3969TIP3    H111850   0.838   0.759   0.526
 3969TIP3    H211851   0.892   0.807   0.394
 3970TIP3   OH211852   6.694   6.428   4.078
 3970TIP3    H111853   6.646   6.360   4.125
 3970TIP3    H211854   6.768   6.450   4.135
 3971TIP3   OH211855   4.980   5.026   5.262
 3971TIP3    H111856   4.891   5.013   5.229
 3971TIP3    H211857   4.969   5.038   5.357
 3972TIP3   OH211858   1.912   2.298   0.330
 3972TIP3    H111859   1.926   2.290   0.425
 3972TIP3    H211860   1.924   2.210   0.296
 3973TIP3   OH211861   4.719   2.863   2.760
 3973TIP3    H111862   4.651   2.805   2.726
 3973TIP3    H211863   4.768   2.891   2.683
 3974TIP3   OH211864   1.957   0.211   3.754
 3974TIP3    H111865   1.954   0.304   3.735
 3974TIP3    H211866   1.867   0.187   3.775
 3975TIP3   OH211867   0.945   1.840   2.128
 3975TIP3    H111868   0.956   1.848   2.033
 3975TIP3    H211869   1.023   1.881   2.165
 3976TIP3   OH211870   5.213   3.866   2.125
 3976TIP3    H111871   5.295   3.822   2.149
 3976TIP3    H211872   5.183   3.821   2.046
 3977TIP3   OH211873   5.843   0.342   5.950
 3977TIP3    H111874   5.827   0.310   6.039
 3977TIP3    H211875   5.841   0.264   5.895
 3978TIP3   OH211876   3.033   6.131   5.674
 3978TIP3    H111877   3.051   6.037   5.674
 3978TIP3    H211878   3.118   6.171   5.656
 3979TIP3   OH211879   0.416   0.787   3.776
 3979TIP3    H111880   0.394   0.877   3.800
 3979TIP3    H211881   0.390   0.779   3.685
 3980TIP3   OH211882   0.441   5.469   0.434
 3980TIP3    H111883   0.472   5.518   0.510
 3980TIP3    H211884   0.472   5.379   0.449
 3981TIP3   OH211885   1.264   0.721   3.429
 3981TIP3    H111886   1.347   0.749   3.393
 3981TIP3    H211887   1.233   0.653   3.369
 3982TIP3   OH211888   0.800   2.359   0.889
 3982TIP3    H111889   0.800   2.438   0.835
 3982TIP3    H211890   0.723   2.369   0.945
 3983TIP3   OH211891   0.707   0.631   5.380
 3983TIP3    H111892   0.787   0.627   5.432
 3983TIP3    H211893   0.653   0.560   5.414
 3984TIP3   OH211894   2.653   5.986   0.496
 3984TIP3    H111895   2.639   5.895   0.473
 3984TIP3    H211896   2.568   6.028   0.484
 3985TIP3   OH211897   7.980   0.101   5.652
 3985TIP3    H111898   7.963   0.038   5.722
 3985TIP3    H211899   8.028   0.172   5.694
 3986TIP3   OH211900   2.943   4.337   2.977
 3986TIP3    H111901   2.924   4.243   2.971
 3986TIP3    H211902   2.859   4.377   3.000
 3987TIP3   OH211903   6.002   3.921   6.007
 3987TIP3    H111904   6.072   3.904   5.944
 3987TIP3    H211905   5.988   4.016   6.002
 3988TIP3   OH211906   0.124   2.239   2.888
 3988TIP3    H111907   0.149   2.311   2.945
 3988TIP3    H211908   0.079   2.280   2.814
 3989TIP3   OH211909   2.199   7.795   1.400
 3989TIP3    H111910   2.166   7.746   1.475
 3989TIP3    H211911   2.202   7.886   1.431
 3990TIP3   OH211912   5.644   6.510   4.779
 3990TIP3    H111913   5.734   6.479   4.793
 3990TIP3    H211914   5.653   6.577   4.711
 3991TIP3   OH211915   0.110   5.091   0.206
 3991TIP3    H111916   0.095   5.007   0.163
 3991TIP3    H211917   0.205   5.097   0.215
 3992TIP3   OH211918   4.859   3.675   5.427
 3992TIP3    H111919   4.793   3.744   5.434
 3992TIP3    H211920   4.817   3.607   5.374
 3993TIP3   OH211921   5.451   3.940   6.072
 3993TIP3    H111922   5.514   3.948   6.001
 3993TIP3    H211923   5.500   3.963   6.150
 3994TIP3   OH211924   7.154   4.962   5.371
 3994TIP3    H111925   7.137   4.950   5.464
 3994TIP3    H211926   7.235   5.014   5.367
 3995TIP3   OH211927   2.215   4.773   2.551
 3995TIP3    H111928   2.251   4.761   2.463
 3995TIP3    H211929   2.244   4.695   2.599
 3996TIP3   OH211930   2.614   2.654   2.245
 3996TIP3    H111931   2.629   2.679   2.154
 3996TIP3    H211932   2.521   2.674   2.261
 3997TIP3   OH211933   2.926   2.771   0.815
 3997TIP3    H111934   2.903   2.806   0.729
 3997TIP3    H211935   2.953   2.681   0.799
 3998TIP3   OH211936   2.040   0.813   0.382
 3998TIP3    H111937   1.954   0.824   0.423
 3998TIP3    H211938   2.032   0.853   0.296
 3999TIP3   OH211939   5.247   4.159   4.866
 3999TIP3    H111940   5.232   4.143   4.959
 3999TIP3    H211941   5.332   4.120   4.848
 4000TIP3   OH211942   0.648   6.967   5.255
 4000TIP3    H111943   0.564   6.922   5.245
 4000TIP3    H211944   0.655   6.982   5.350
 4001TIP3   OH211945   1.725   6.116   4.041
 4001TIP3    H111946   1.805   6.130   3.991
 4001TIP3    H211947   1.655   6.129   3.977
 4002TIP3   OH211948   0.339   3.751   5.761
 4002TIP3    H111949   0.407   3.700   5.804
 4002TIP3    H211950   0.346   3.726   5.669
 4003TIP3   OH211951   4.539   1.156   4.796
 4003TIP3    H111952   4.526   1.249   4.776
 4003TIP3    H211953   4.486   1.110   4.731
 4004TIP3   OH211954   0.265   5.516   5.960
 4004TIP3    H111955   0.341   5.504   6.017
 4004TIP3    H211956   0.300   5.558   5.882
 4005TIP3   OH211957   6.071   5.187   1.953
 4005TIP3    H111958   5.988   5.226   1.923
 4005TIP3    H211959   6.109   5.253   2.011
 4006TIP3   OH211960   0.973   5.675   1.696
 4006TIP3    H111961   1.023   5.593   1.691
 4006TIP3    H211962   1.038   5.743   1.676
 4007TIP3   OH211963   3.593   5.923   0.144
 4007TIP3    H111964   3.598   5.839   0.190
 4007TIP3    H211965   3.504   5.925   0.108
 4008TIP3   OH211966   5.228   1.959   1.830
 4008TIP3    H111967   5.261   1.910   1.754
 4008TIP3    H211968   5.287   1.934   1.901
 4009TIP3   OH211969   1.001   6.436   5.681
 4009TIP3    H111970   0.909   6.417   5.661
 4009TIP3    H211971   1.048   6.412   5.601
 4010TIP3   OH211972   4.195   6.812   2.234
 4010TIP3    H111973   4.195   6.760   2.154
 4010TIP3    H211974   4.104   6.814   2.262
 4011TIP3   OH211975   0.920   1.297   0.698
 4011TIP3    H111976   0.872   1.225   0.658
 4011TIP3    H211977   1.004   1.299   0.652
 4012TIP3   OH211978   4.656   0.922   5.459
 4012TIP3    H111979   4.620   1.008   5.441
 4012TIP3    H211980   4.687   0.927   5.550
 4013TIP3   OH211981   7.822   0.706   2.057
 4013TIP3    H111982   7.895   0.667   2.009
 4013TIP3    H211983   7.854   0.791   2.086
 4014TIP3   OH211984   1.483   1.936   1.516
 4014TIP3    H111985   1.513   1.876   1.448
 4014TIP3    H211986   1.408   1.891   1.556
 4015TIP3   OH211987   7.472   4.092   5.184
 4015TIP3    H111988   7.476   4.150   5.260
 4015TIP3    H211989   7.381   4.062   5.182
 4016TIP3   OH211990   6.852   3.788   1.497
 4016TIP3    H111991   6.943   3.803   1.522
 4016TIP3    H211992   6.801   3.821   1.571
 4017TIP3   OH211993   0.439   3.812   3.939
 4017TIP3    H111994   0.447   3.824   4.033
 4017TIP3    H211995   0.420   3.719   3.928
 4018TIP3   OH211996   2.809   3.158   0.870
 4018TIP3    H111997   2.863   3.090   0.911
 4018TIP3    H211998   2.719   3.132   0.887
 4019TIP3   OH211999   2.593   7.688   5.826
 4019TIP3    H112000   2.525   7.634   5.786
 4019TIP3    H212001   2.660   7.695   5.758
 4020TIP3   OH212002   1.075   0.844   3.737
 4020TIP3    H112003   1.114   0.830   3.651
 4020TIP3    H212004   0.982   0.827   3.725
 4021TIP3   OH212005   5.113   2.006   4.652
 4021TIP3    H112006   5.194   1.966   4.619
 4021TIP3    H212007   5.044   1.965   4.601
 4022TIP3   OH212008   0.620   5.664   2.999
 4022TIP3    H112009   0.611   5.568   2.994
 4022TIP3    H212010   0.699   5.683   2.948
 4023TIP3   OH212011   5.998   7.437   6.487
 4023TIP3    H112012   6.054   7.467   6.558
 4023TIP3    H212013   5.941   7.372   6.528
 4024TIP3   OH212014   6.971   6.700   3.322
 4024TIP3    H112015   7.030   6.630   3.352
 4024TIP3    H212016   7.028   6.759   3.272
 4025TIP3   OH212017   1.679   5.449   6.628
 4025TIP3    H112018   1.632   5.369   6.652
 4025TIP3    H212019   1.668   5.456   6.533
 4026TIP3   OH212020   8.138   7.104   2.924
 4026TIP3    H112021   8.213   7.088   2.982
 4026TIP3    H212022   8.161   7.184   2.877
 4027TIP3   OH212023   6.077   0.884   0.439
 4027TIP3    H112024   6.163   0.883   0.480
 4027TIP3    H212025   6.031   0.956   0.484
 4028TIP3   OH212026   3.434   7.617   1.354
 4028TIP3    H112027   3.399   7.550   1.295
 4028TIP3    H212028   3.515   7.645   1.312
 4029TIP3   OH212029   5.584   7.272   4.478
 4029TIP3    H112030   5.537   7.230   4.551
 4029TIP3    H212031   5.533   7.249   4.401
 4030TIP3   OH212032   7.211   1.193   5.747
 4030TIP3    H112033   7.190   1.192   5.653
 4030TIP3    H212034   7.284   1.131   5.755
 4031TIP3   OH212035   5.359   2.654   6.681
 4031TIP3    H112036   5.356   2.567   6.721
 4031TIP3    H212037   5.383   2.638   6.590
 4032TIP3   OH212038   0.742   4.406   4.860
 4032TIP3    H112039   0.705   4.366   4.781
 4032TIP3    H212040   0.711   4.497   4.857
 4033TIP3   OH212041   2.411   1.691   1.087
 4033TIP3    H112042   2.351   1.642   1.031
 4033TIP3    H212043   2.466   1.624   1.127
 4034TIP3   OH212044   4.019   0.712   5.870
 4034TIP3    H112045   3.923   0.718   5.874
 4034TIP3    H212046   4.037   0.618   5.874
 4035TIP3   OH212047   0.521   4.542   0.242
 4035TIP3    H112048   0.562   4.456   0.255
 4035TIP3    H212049   0.592   4.597   0.210
 4036TIP3   OH212050   7.991   4.243   6.057
 4036TIP3    H112051   7.977   4.175   5.992
 4036TIP3    H212052   7.904   4.282   6.070
 4037TIP3   OH212053   5.468   6.555   2.273
 4037TIP3    H112054   5.452   6.607   2.194
 4037TIP3    H212055   5.501   6.472   2.241
 4038TIP3   OH212056   4.120   6.721   5.504
 4038TIP3    H112057   4.188   6.657   5.525
 4038TIP3    H212058   4.052   6.671   5.460
 4039TIP3   OH212059   5.419   7.360   6.004
 4039TIP3    H112060   5.354   7.400   5.946
 4039TIP3    H212061   5.484   7.322   5.945
 4040TIP3   OH212062   0.282   6.174   2.606
 4040TIP3    H112063   0.308   6.170   2.514
 4040TIP3    H212064   0.196   6.216   2.605
 4041TIP3   OH212065   7.310   6.201   5.834
 4041TIP3    H112066   7.220   6.232   5.824
 4041TIP3    H212067   7.311   6.156   5.918
 4042TIP3   OH212068   1.661   4.138   1.900
 4042TIP3    H112069   1.749   4.146   1.865
 4042TIP3    H212070   1.642   4.226   1.935
 4043TIP3   OH212071   5.391   6.506   4.129
 4043TIP3    H112072   5.426   6.493   4.218
 4043TIP3    H212073   5.297   6.491   4.139
 4044TIP3   OH212074   2.579   2.005   3.413
 4044TIP3    H112075   2.671   2.030   3.420
 4044TIP3    H212076   2.538   2.043   3.491
 4045TIP3   OH212077   7.467   5.897   1.347
 4045TIP3    H112078   7.547   5.950   1.349
 4045TIP3    H212079   7.495   5.812   1.315
 4046TIP3   OH212080   2.216   7.800   3.126
 4046TIP3    H112081   2.150   7.731   3.124
 4046TIP3    H212082   2.209   7.837   3.214
 4047TIP3   OH212083   0.459   3.282   3.335
 4047TIP3    H112084   0.515   3.357   3.353
 4047TIP3    H212085   0.515   3.206   3.349
 4048TIP3   OH212086   4.061   0.916   1.557
 4048TIP3    H112087   4.034   1.000   1.522
 4048TIP3    H212088   4.100   0.870   1.483
 4049TIP3   OH212089   0.185   3.158   1.847
 4049TIP3    H112090   0.118   3.222   1.873
 4049TIP3    H212091   0.147   3.073   1.870
 4050TIP3   OH212092   1.682   4.077   3.952
 4050TIP3    H112093   1.639   4.065   4.036
 4050TIP3    H212094   1.615   4.058   3.887
 4051TIP3   OH212095   7.287   0.369   5.607
 4051TIP3    H112096   7.229   0.387   5.533
 4051TIP3    H212097   7.339   0.293   5.579
 4052TIP3   OH212098   7.669   3.900   1.913
 4052TIP3    H112099   7.734   3.878   1.980
 4052TIP3    H212100   7.585   3.893   1.958
 4053TIP3   OH212101   4.124   5.496   0.036
 4053TIP3    H112102   4.086   5.582   0.016
 4053TIP3    H212103   4.059   5.455   0.094
 4054TIP3   OH212104   3.940   0.547   6.737
 4054TIP3    H112105   3.904   0.482   6.676
 4054TIP3    H212106   3.897   0.528   6.821
 4055TIP3   OH212107   5.439   0.516   0.785
 4055TIP3    H112108   5.426   0.534   0.691
 4055TIP3    H212109   5.524   0.555   0.805
 4056TIP3   OH212110   3.390   3.561   5.456
 4056TIP3    H112111   3.296   3.544   5.459
 4056TIP3    H212112   3.431   3.476   5.477
 4057TIP3   OH212113   3.575   4.754   5.601
 4057TIP3    H112114   3.553   4.845   5.579
 4057TIP3    H212115   3.547   4.704   5.524
 4058TIP3   OH212116   0.814   7.218   1.697
 4058TIP3    H112117   0.733   7.179   1.664
 4058TIP3    H212118   0.842   7.159   1.767
 4059TIP3   OH212119   3.270   3.154   3.993
 4059TIP3    H112120   3.261   3.151   3.897
 4059TIP3    H212121   3.364   3.144   4.008
 4060TIP3   OH212122   5.062   3.558   2.082
 4060TIP3    H112123   5.096   3.536   1.995
 4060TIP3    H212124   4.967   3.546   2.075
 4061TIP3   OH212125   1.042   0.493   4.248
 4061TIP3    H112126   0.990   0.473   4.325
 4061TIP3    H212127   0.982   0.538   4.189
 4062TIP3   OH212128   2.977   6.107   4.045
 4062TIP3    H112129   2.955   6.122   4.137
 4062TIP3    H212130   3.052   6.164   4.028
 4063TIP3   OH212131   3.665   5.717   6.657
 4063TIP3    H112132   3.658   5.758   6.743
 4063TIP3    H212133   3.594   5.653   6.655
 4064TIP3   OH212134   7.459   5.000   6.764
 4064TIP3    H112135   7.502   4.940   6.702
 4064TIP3    H212136   7.379   4.955   6.790
 4065TIP3   OH212137   8.205   1.830   4.135
 4065TIP3    H112138   8.221   1.912   4.182
 4065TIP3    H212139   8.147   1.780   4.193
 4066TIP3   OH212140   5.861   1.828   2.290
 4066TIP3    H112141   5.866   1.748   2.239
 4066TIP3    H212142   5.948   1.838   2.328
 4067TIP3   OH212143   0.539   5.521   6.039
 4067TIP3    H112144   0.630   5.551   6.028
 4067TIP3    H212145   0.542   5.427   6.022
 4068TIP3   OH212146   5.856   5.975   6.459
 4068TIP3    H112147   5.905   6.056   6.445
 4068TIP3    H212148   5.919   5.906   6.438
 4069TIP3   OH212149   2.513   0.657   1.750
 4069TIP3    H112150   2.499   0.746   1.783
 4069TIP3    H212151   2.547   0.609   1.826
 4070TIP3   OH212152   8.016   5.110   4.734
 4070TIP3    H112153   7.954   5.158   4.789
 4070TIP3    H212154   7.999   5.018   4.754
 4071TIP3   OH212155   6.756   4.694   0.297
 4071TIP3    H112156   6.832   4.648   0.260
 4071TIP3    H212157   6.778   4.705   0.390
 4072TIP3   OH212158   7.551   3.436   3.343
 4072TIP3    H112159   7.586   3.356   3.306
 4072TIP3    H212160   7.456   3.422   3.346
 4073TIP3   OH212161   3.861   5.049   5.111
 4073TIP3    H112162   3.893   5.111   5.176
 4073TIP3    H212163   3.925   5.053   5.040
 4074TIP3   OH212164   0.291   6.985   3.959
 4074TIP3    H112165   0.282   7.039   3.880
 4074TIP3    H212166   0.321   6.900   3.927
 4075TIP3   OH212167   3.294   7.424   5.599
 4075TIP3    H112168   3.241   7.488   5.550
 4075TIP3    H212169   3.307   7.352   5.537
 4076TIP3   OH212170   5.861   2.402   5.134
 4076TIP3    H112171   5.782   2.363   5.172
 4076TIP3    H212172   5.925   2.331   5.133
 4077TIP3   OH212173   1.304   2.686   0.462
 4077TIP3    H112174   1.218   2.684   0.503
 4077TIP3    H212175   1.363   2.652   0.529
 4078TIP3   OH212176   2.803   0.317   0.110
 4078TIP3    H112177   2.858   0.291   0.036
 4078TIP3    H212178   2.801   0.412   0.106
 4079TIP3   OH212179   5.770   5.082   4.140
 4079TIP3    H112180   5.774   5.138   4.063
 4079TIP3    H212181   5.860   5.082   4.174
 4080TIP3   OH212182   2.044   4.488   2.838
 4080TIP3    H112183   2.045   4.502   2.744
 4080TIP3    H212184   2.122   4.533   2.870
 4081TIP3   OH212185   0.423   0.921   0.471
 4081TIP3    H112186   0.433   0.945   0.563
 4081TIP3    H212187   0.512   0.916   0.436
 4082TIP3   OH212188   2.376   4.239   5.195
 4082TIP3    H112189   2.378   4.311   5.259
 4082TIP3    H212190   2.468   4.216   5.182
 4083TIP3   OH212191   7.839   5.501   0.084
 4083TIP3    H112192   7.927   5.466   0.068
 4083TIP3    H212193   7.851   5.566   0.153
 4084TIP3   OH212194   0.286   1.914   1.147
 4084TIP3    H112195   0.291   1.925   1.051
 4084TIP3    H212196   0.349   1.846   1.167
 4085TIP3   OH212197   1.397   4.373   6.690
 4085TIP3    H112198   1.351   4.289   6.699
 4085TIP3    H212199   1.350   4.419   6.620
 4086TIP3   OH212200   6.350   1.067   1.947
 4086TIP3    H112201   6.292   1.139   1.969
 4086TIP3    H212202   6.422   1.073   2.011
 4087TIP3   OH212203   2.529   1.635   2.119
 4087TIP3    H112204   2.549   1.626   2.212
 4087TIP3    H212205   2.537   1.729   2.101
 4088TIP3   OH212206   7.680   2.437   0.735
 4088TIP3    H112207   7.747   2.378   0.770
 4088TIP3    H212208   7.716   2.465   0.651
 4089TIP3   OH212209   5.111   4.024   6.347
 4089TIP3    H112210   5.048   4.095   6.338
 4089TIP3    H212211   5.134   4.000   6.257
 4090TIP3   OH212212   6.929   3.412   5.022
 4090TIP3    H112213   7.021   3.388   5.028
 4090TIP3    H212214   6.907   3.400   4.929
 4091TIP3   OH212215   1.093   0.085   4.919
 4091TIP3    H112216   1.121   0.137   4.844
 4091TIP3    H212217   1.094  -0.006   4.887
 4092TIP3   OH212218   4.888   0.135   3.992
 4092TIP3    H112219   4.821   0.200   4.011
 4092TIP3    H212220   4.887   0.075   4.067
 4093TIP3   OH212221   7.867   7.705   0.548
 4093TIP3    H112222   7.874   7.622   0.596
 4093TIP3    H212223   7.846   7.679   0.458
 4094TIP3   OH212224   4.382   2.622   3.194
 4094TIP3    H112225   4.381   2.531   3.163
 4094TIP3    H212226   4.433   2.669   3.129
 4095TIP3   OH212227   0.511   6.713   6.708
 4095TIP3    H112228   0.574   6.648   6.678
 4095TIP3    H212229   0.538   6.795   6.666
 4096TIP3   OH212230   5.354   0.371   2.062
 4096TIP3    H112231   5.338   0.277   2.069
 4096TIP3    H212232   5.267   0.411   2.065
 4097TIP3   OH212233   6.769   2.880   6.257
 4097TIP3    H112234   6.705   2.894   6.327
 4097TIP3    H212235   6.807   2.795   6.277
 4098TIP3   OH212236   8.065   5.105   2.093
 4098TIP3    H112237   8.067   5.194   2.129
 4098TIP3    H212238   7.998   5.061   2.145
 4099TIP3   OH212239   6.735   4.876   4.627
 4099TIP3    H112240   6.667   4.888   4.562
 4099TIP3    H212241   6.692   4.827   4.698
 4100TIP3   OH212242   8.110   5.969   2.019
 4100TIP3    H112243   8.029   6.017   2.004
 4100TIP3    H212244   8.099   5.929   2.105
 4101TIP3   OH212245   7.177   6.530   5.576
 4101TIP3    H112246   7.222   6.592   5.633
 4101TIP3    H212247   7.097   6.574   5.549
 4102TIP3   OH212248   3.216   6.949   4.263
 4102TIP3    H112249   3.158   6.931   4.337
 4102TIP3    H212250   3.226   6.865   4.219
 4103TIP3   OH212251   4.037   4.844   4.328
 4103TIP3    H112252   4.096   4.905   4.283
 4103TIP3    H212253   4.022   4.884   4.414
 4104TIP3   OH212254   6.418   1.910   1.622
 4104TIP3    H112255   6.497   1.859   1.635
 4104TIP3    H212256   6.414   1.969   1.697
 4105TIP3   OH212257   6.583   4.572   6.630
 4105TIP3    H112258   6.645   4.614   6.570
 4105TIP3    H212259   6.576   4.633   6.703
 4106TIP3   OH212260   2.113   1.265   2.600
 4106TIP3    H112261   2.050   1.337   2.607
 4106TIP3    H212262   2.079   1.210   2.529
 4107TIP3   OH212263   6.816   5.148   3.484
 4107TIP3    H112264   6.864   5.206   3.426
 4107TIP3    H212265   6.796   5.071   3.429
 4108TIP3   OH212266   6.836   3.183   2.944
 4108TIP3    H112267   6.802   3.240   2.874
 4108TIP3    H212268   6.916   3.226   2.973
 4109TIP3   OH212269   8.203   3.151   1.605
 4109TIP3    H112270   8.119   3.153   1.559
 4109TIP3    H212271   8.181   3.124   1.694
 4110TIP3   OH212272   5.963   0.136   1.050
 4110TIP3    H112273   5.908   0.213   1.062
 4110TIP3    H212274   5.971   0.098   1.137
 4111TIP3   OH212275   7.532   2.282   1.795
 4111TIP3    H112276   7.511   2.274   1.702
 4111TIP3    H212277   7.625   2.261   1.801
 4112TIP3   OH212278   3.561   4.940   3.482
 4112TIP3    H112279   3.557   4.953   3.577
 4112TIP3    H212280   3.553   5.028   3.446
 4113TIP3   OH212281   1.884   5.529   1.546
 4113TIP3    H112282   1.906   5.606   1.494
 4113TIP3    H212283   1.869   5.459   1.482
 4114TIP3   OH212284   6.581   0.924   5.538
 4114TIP3    H112285   6.639   0.981   5.589
 4114TIP3    H212286   6.492   0.949   5.566
 4115TIP3   OH212287   2.900   0.867   1.676
 4115TIP3    H112288   2.860   0.782   1.696
 4115TIP3    H212289   2.965   0.846   1.608
 4116TIP3   OH212290   1.990   2.275   0.626
 4116TIP3    H112291   1.910   2.325   0.645
 4116TIP3    H212292   2.039   2.278   0.708
 4117TIP3   OH212293   7.834   1.595   1.158
 4117TIP3    H112294   7.790   1.658   1.101
 4117TIP3    H212295   7.773   1.579   1.230
 4118TIP3   OH212296   4.206   1.887   4.645
 4118TIP3    H112297   4.218   1.899   4.550
 4118TIP3    H212298   4.294   1.871   4.678
 4119TIP3   OH212299   1.027   5.433   6.718
 4119TIP3    H112300   1.100   5.463   6.664
 4119TIP3    H212301   1.056   5.349   6.754
 4120TIP3   OH212302   4.290   2.463   3.733
 4120TIP3    H112303   4.293   2.537   3.794
 4120TIP3    H212304   4.243   2.394   3.780
 4121TIP3   OH212305   4.019   4.873   1.783
 4121TIP3    H112306   4.036   4.928   1.707
 4121TIP3    H212307   4.093   4.812   1.786
 4122TIP3   OH212308   2.896   0.150   3.403
 4122TIP3    H112309   2.808   0.145   3.441
 4122TIP3    H212310   2.922   0.059   3.391
 4123TIP3   OH212311   1.557   6.804   5.365
 4123TIP3    H112312   1.539   6.796   5.459
 4123TIP3    H212313   1.645   6.839   5.360
 4124TIP3   OH212314   3.345   1.266   1.870
 4124TIP3    H112315   3.330   1.340   1.928
 4124TIP3    H212316   3.376   1.306   1.788
 4125TIP3   OH212317   0.285   0.325   5.036
 4125TIP3    H112318   0.330   0.331   4.952
 4125TIP3    H212319   0.353   0.337   5.102
 4126TIP3   OH212320   0.489   6.575   0.680
 4126TIP3    H112321   0.525   6.601   0.765
 4126TIP3    H212322   0.483   6.479   0.685
 4127TIP3   OH212323   3.542   3.773   4.555
 4127TIP3    H112324   3.571   3.798   4.467
 4127TIP3    H212325   3.447   3.781   4.553
 4128TIP3   OH212326   6.431   2.283   4.743
 4128TIP3    H112327   6.516   2.251   4.712
 4128TIP3    H212328   6.422   2.247   4.831
 4129TIP3   OH212329   4.468   3.262   6.737
 4129TIP3    H112330   4.444   3.345   6.695
 4129TIP3    H212331   4.390   3.206   6.727
 4130TIP3   OH212332   6.679   6.021   5.485
 4130TIP3    H112333   6.650   5.943   5.438
 4130TIP3    H212334   6.640   6.012   5.572
 4131TIP3   OH212335   6.034   4.118   5.558
 4131TIP3    H112336   6.032   4.165   5.474
 4131TIP3    H212337   6.125   4.126   5.588
 4132TIP3   OH212338   1.507   7.177   0.977
 4132TIP3    H112339   1.548   7.223   1.050
 4132TIP3    H212340   1.517   7.084   0.999
 4133TIP3   OH212341   5.871   7.099   5.770
 4133TIP3    H112342   5.812   7.038   5.816
 4133TIP3    H212343   5.856   7.082   5.677
 4134TIP3   OH212344   0.756   0.652   3.432
 4134TIP3    H112345   0.803   0.732   3.410
 4134TIP3    H212346   0.750   0.654   3.528
 4135TIP3   OH212347   0.965   7.550   2.329
 4135TIP3    H112348   0.903   7.602   2.379
 4135TIP3    H212349   0.919   7.467   2.312
 4136TIP3   OH212350   5.629   7.784   4.201
 4136TIP3    H112351   5.652   7.852   4.264
 4136TIP3    H212352   5.713   7.745   4.177
 4137TIP3   OH212353   0.603   3.181   2.359
 4137TIP3    H112354   0.582   3.163   2.451
 4137TIP3    H212355   0.529   3.233   2.327
 4138TIP3   OH212356   3.881   0.338   3.581
 4138TIP3    H112357   3.906   0.264   3.526
 4138TIP3    H212358   3.938   0.330   3.658
 4139TIP3   OH212359   8.001   6.628   0.805
 4139TIP3    H112360   8.004   6.606   0.898
 4139TIP3    H212361   8.093   6.638   0.780
 4140TIP3   OH212362   6.182   1.279   5.234
 4140TIP3    H112363   6.118   1.208   5.243
 4140TIP3    H212364   6.260   1.237   5.198
 4141TIP3   OH212365   3.565   3.041   0.350
 4141TIP3    H112366   3.578   3.032   0.444
 4141TIP3    H212367   3.470   3.041   0.339
 4142TIP3   OH212368   7.513   5.653   1.264
 4142TIP3    H112369   7.542   5.602   1.188
 4142TIP3    H212370   7.542   5.603   1.340
 4143TIP3   OH212371   2.121   1.821   0.845
 4143TIP3    H112372   2.090   1.799   0.757
 4143TIP3    H212373   2.168   1.743   0.873
 4144TIP3   OH212374   2.239   0.987   4.104
 4144TIP3    H112375   2.268   1.058   4.046
 4144TIP3    H212376   2.195   0.925   4.045
 4145TIP3   OH212377   7.154   2.871   1.184
 4145TIP3    H112378   7.147   2.832   1.271
 4145TIP3    H212379   7.230   2.928   1.189
 4146TIP3   OH212380   8.168   4.197   0.466
 4146TIP3    H112381   8.108   4.216   0.538
 4146TIP3    H212382   8.246   4.248   0.487
 4147TIP3   OH212383   0.481   6.512   1.994
 4147TIP3    H112384   0.439   6.433   1.959
 4147TIP3    H212385   0.511   6.558   1.916
 4148TIP3   OH212386   0.204   2.167  -0.005
 4148TIP3    H112387   0.256   2.088  -0.021
 4148TIP3    H212388   0.168   2.154   0.083
 4149TIP3   OH212389   4.232   4.887   0.357
 4149TIP3    H112390   4.142   4.858   0.338
 4149TIP3    H212391   4.256   4.940   0.281
 4150TIP3   OH212392   4.187   4.878   6.550
 4150TIP3    H112393   4.161   4.834   6.469
 4150TIP3    H212394   4.270   4.921   6.527
 4151TIP3   OH212395   7.901   4.078   5.837
 4151TIP3    H112396   7.861   4.007   5.787
 4151TIP3    H212397   7.843   4.153   5.824
 4152TIP3   OH212398   2.135   2.044   0.980
 4152TIP3    H112399   2.146   1.966   0.926
 4152TIP3    H212400   2.212   2.045   1.036
 4153TIP3   OH212401   5.288   7.608   2.489
 4153TIP3    H112402   5.240   7.541   2.536
 4153TIP3    H212403   5.236   7.626   2.411
 4154TIP3   OH212404   2.340   1.976   0.041
 4154TIP3    H112405   2.338   1.903  -0.022
 4154TIP3    H212406   2.405   2.036   0.005
 4155TIP3   OH212407   6.902   4.128   6.185
 4155TIP3    H112408   6.918   4.038   6.214
 4155TIP3    H212409   6.806   4.136   6.185
 4156TIP3   OH212410   3.574   0.901   1.495
 4156TIP3    H112411   3.596   0.980   1.446
 4156TIP3    H212412   3.560   0.932   1.585
 4157TIP3   OH212413   3.344   0.168   5.628
 4157TIP3    H112414   3.367   0.243   5.683
 4157TIP3    H212415   3.354   0.200   5.539
 4158TIP3   OH212416   3.194   3.229   1.291
 4158TIP3    H112417   3.107   3.190   1.282
 4158TIP3    H212418   3.247   3.183   1.225
 4159TIP3   OH212419   8.208   1.359   5.534
 4159TIP3    H112420   8.121   1.384   5.567
 4159TIP3    H212421   8.269   1.411   5.586
 4160TIP3   OH212422   6.455   0.427   3.625
 4160TIP3    H112423   6.503   0.365   3.571
 4160TIP3    H212424   6.363   0.402   3.615
 4161TIP3   OH212425   4.986   6.042   4.230
 4161TIP3    H112426   4.986   6.113   4.166
 4161TIP3    H212427   4.975   6.085   4.315
 4162TIP3   OH212428   4.036   1.385   4.229
 4162TIP3    H112429   3.950   1.344   4.224
 4162TIP3    H212430   4.097   1.311   4.229
 4163TIP3   OH212431   2.555   3.331   1.997
 4163TIP3    H112432   2.621   3.335   2.067
 4163TIP3    H212433   2.513   3.417   2.000
 4164TIP3   OH212434   7.662   4.689   4.050
 4164TIP3    H112435   7.697   4.631   3.983
 4164TIP3    H212436   7.567   4.680   4.042
 4165TIP3   OH212437   5.268   0.730   5.860
 4165TIP3    H112438   5.224   0.653   5.896
 4165TIP3    H212439   5.358   0.723   5.891
 4166TIP3   OH212440   4.379   2.713   6.051
 4166TIP3    H112441   4.408   2.710   6.142
 4166TIP3    H212442   4.416   2.634   6.012
 4167TIP3   OH212443   0.381   1.466   3.948
 4167TIP3    H112444   0.331   1.384   3.945
 4167TIP3    H212445   0.381   1.497   3.857
 4168TIP3   OH212446   0.008   1.646   6.466
 4168TIP3    H112447   0.012   1.672   6.558
 4168TIP3    H212448   0.070   1.574   6.459
 4169TIP3   OH212449   0.581   5.584   4.445
 4169TIP3    H112450   0.558   5.494   4.421
 4169TIP3    H212451   0.538   5.638   4.379
 4170TIP3   OH212452   6.839   3.245   2.227
 4170TIP3    H112453   6.809   3.156   2.244
 4170TIP3    H212454   6.760   3.292   2.199
 4171TIP3   OH212455   6.093   1.112   3.795
 4171TIP3    H112456   6.075   1.090   3.703
 4171TIP3    H212457   6.153   1.043   3.824
 4172TIP3   OH212458   7.616   3.541   5.152
 4172TIP3    H112459   7.696   3.519   5.103
 4172TIP3    H212460   7.552   3.561   5.084
 4173TIP3   OH212461   0.538   1.609   5.404
 4173TIP3    H112462   0.575   1.523   5.424
 4173TIP3    H212463   0.583   1.637   5.325
 4174TIP3   OH212464   1.598   5.238   4.840
 4174TIP3    H112465   1.648   5.193   4.772
 4174TIP3    H212466   1.511   5.250   4.802
 4175TIP3   OH212467   0.412   6.225   1.333
 4175TIP3    H112468   0.456   6.148   1.370
 4175TIP3    H212469   0.319   6.212   1.354
 4176TIP3   OH212470   1.913   7.011   0.612
 4176TIP3    H112471   1.895   7.088   0.666
 4176TIP3    H212472   1.929   7.046   0.524
 4177TIP3   OH212473   0.446   5.508   3.248
 4177TIP3    H112474   0.351   5.510   3.236
 4177TIP3    H212475   0.481   5.501   3.159
 4178TIP3   OH212476   2.171   5.266   2.488
 4178TIP3    H112477   2.252   5.277   2.440
 4178TIP3    H212478   2.160   5.348   2.536
 4179TIP3   OH212479   1.033   3.105   2.541
 4179TIP3    H112480   1.035   3.154   2.623
 4179TIP3    H212481   0.970   3.153   2.486
 4180TIP3   OH212482   0.506   4.440   3.023
 4180TIP3    H112483   0.490   4.509   2.958
 4180TIP3    H212484   0.441   4.373   3.003
 4181TIP3   OH212485   7.832   6.501   1.729
 4181TIP3    H112486   7.821   6.508   1.635
 4181TIP3    H212487   7.920   6.464   1.741
 4182TIP3   OH212488   4.498   6.451   2.803
 4182TIP3    H112489   4.592   6.465   2.809
 4182TIP3    H212490   4.488   6.356   2.806
 4183TIP3   OH212491   7.622   5.858   3.962
 4183TIP3    H112492   7.645   5.796   4.031
 4183TIP3    H212493   7.692   5.924   3.964
 4184TIP3   OH212494   7.344   2.701   0.744
 4184TIP3    H112495   7.408   2.750   0.693
 4184TIP3    H212496   7.381   2.696   0.832
 4185TIP3   OH212497   8.228   4.265   1.799
 4185TIP3    H112498   8.156   4.240   1.741
 4185TIP3    H212499   8.186   4.309   1.873
 4186TIP3   OH212500   3.469   7.189   6.736
 4186TIP3    H112501   3.523   7.114   6.709
 4186TIP3    H212502   3.424   7.216   6.656
 4187TIP3   OH212503   3.003   6.481   3.546
 4187TIP3    H112504   2.917   6.498   3.507
 4187TIP3    H212505   2.983   6.449   3.634
 4188TIP3   OH212506   5.381   4.697   3.181
 4188TIP3    H112507   5.342   4.658   3.259
 4188TIP3    H212508   5.444   4.760   3.216
 4189TIP3   OH212509   3.800   2.465   4.528
 4189TIP3    H112510   3.843   2.424   4.603
 4189TIP3    H212511   3.766   2.548   4.563
 4190TIP3   OH212512   3.888   7.298   1.432
 4190TIP3    H112513   3.846   7.337   1.355
 4190TIP3    H212514   3.834   7.326   1.505
 4191TIP3   OH212515   7.910   4.907   3.035
 4191TIP3    H112516   7.857   4.986   3.024
 4191TIP3    H212517   8.000   4.937   3.028
 4192TIP3   OH212518   4.348   3.603   1.972
 4192TIP3    H112519   4.280   3.641   1.916
 4192TIP3    H212520   4.299   3.560   2.042
 4193TIP3   OH212521   1.004   0.264   6.412
 4193TIP3    H112522   0.976   0.267   6.320
 4193TIP3    H212523   0.970   0.345   6.450
 4194TIP3   OH212524   1.821   0.213   5.807
 4194TIP3    H112525   1.813   0.120   5.788
 4194TIP3    H212526   1.908   0.237   5.774
 4195TIP3   OH212527   6.005   5.029   6.468
 4195TIP3    H112528   6.064   5.083   6.416
 4195TIP3    H212529   5.918   5.064   6.448
 4196TIP3   OH212530   5.511   7.601   0.362
 4196TIP3    H112531   5.424   7.574   0.332
 4196TIP3    H212532   5.504   7.695   0.377
 4197TIP3   OH212533   5.190   0.297   6.228
 4197TIP3    H112534   5.279   0.334   6.229
 4197TIP3    H212535   5.194   0.223   6.289
 4198TIP3   OH212536   3.190   4.000   2.569
 4198TIP3    H112537   3.276   3.959   2.563
 4198TIP3    H212538   3.207   4.092   2.589
 4199TIP3   OH212539   3.158   0.598   3.520
 4199TIP3    H112540   3.069   0.572   3.543
 4199TIP3    H212541   3.213   0.526   3.553
 4200TIP3   OH212542   0.989   3.750   6.239
 4200TIP3    H112543   0.942   3.811   6.296
 4200TIP3    H212544   0.957   3.770   6.151
 4201TIP3   OH212545   6.292   1.654   6.503
 4201TIP3    H112546   6.249   1.588   6.448
 4201TIP3    H212547   6.256   1.640   6.591
 4202TIP3   OH212548   1.205   0.959   1.129
 4202TIP3    H112549   1.214   0.903   1.051
 4202TIP3    H212550   1.173   0.900   1.197
 4203TIP3   OH212551   4.275   7.493   1.053
 4203TIP3    H112552   4.293   7.423   0.990
 4203TIP3    H212553   4.361   7.525   1.079
 4204TIP3   OH212554   1.034   2.432   2.279
 4204TIP3    H112555   0.958   2.385   2.244
 4204TIP3    H212556   1.059   2.382   2.357
 4205TIP3   OH212557   3.669   4.451   0.673
 4205TIP3    H112558   3.671   4.378   0.612
 4205TIP3    H212559   3.687   4.528   0.619
 4206TIP3   OH212560   6.767   5.104   4.181
 4206TIP3    H112561   6.703   5.172   4.205
 4206TIP3    H212562   6.748   5.085   4.090
 4207TIP3   OH212563   7.505   4.690   0.678
 4207TIP3    H112564   7.535   4.771   0.636
 4207TIP3    H212565   7.559   4.682   0.756
 4208TIP3   OH212566   2.545   5.080   1.300
 4208TIP3    H112567   2.572   5.028   1.376
 4208TIP3    H212568   2.603   5.156   1.301
 4209TIP3   OH212569   0.377   5.163   0.110
 4209TIP3    H112570   0.436   5.188   0.038
 4209TIP3    H212571   0.384   5.234   0.173
 4210TIP3   OH212572   6.569   4.390   1.048
 4210TIP3    H112573   6.589   4.361   0.960
 4210TIP3    H212574   6.653   4.415   1.085
 4211TIP3   OH212575   7.418   5.104   5.470
 4211TIP3    H112576   7.404   5.190   5.509
 4211TIP3    H212577   7.477   5.059   5.531
 4212TIP3   OH212578   0.561   6.635   4.975
 4212TIP3    H112579   0.640   6.679   5.006
 4212TIP3    H212580   0.489   6.682   5.017
 4213TIP3   OH212581   5.324   7.028   1.001
 4213TIP3    H112582   5.312   6.949   1.053
 4213TIP3    H212583   5.239   7.071   1.001
 4214TIP3   OH212584   0.951   1.771   5.588
 4214TIP3    H112585   1.011   1.825   5.537
 4214TIP3    H212586   1.002   1.742   5.664
 4215TIP3   OH212587   8.242   1.778   0.627
 4215TIP3    H112588   8.287   1.823   0.555
 4215TIP3    H212589   8.313   1.752   0.686
 4216TIP3   OH212590   8.183   2.091   0.252
 4216TIP3    H112591   8.190   2.149   0.328
 4216TIP3    H212592   8.101   2.115   0.210
 4217TIP3   OH212593   7.319   3.256   5.204
 4217TIP3    H112594   7.270   3.312   5.144
 4217TIP3    H212595   7.276   3.170   5.197
 4218TIP3   OH212596   5.085   4.771   3.291
 4218TIP3    H112597   4.999   4.794   3.326
 4218TIP3    H212598   5.130   4.730   3.365
 4219TIP3   OH212599   6.693   0.283   1.223
 4219TIP3    H112600   6.635   0.353   1.191
 4219TIP3    H212601   6.636   0.229   1.279
 4220TIP3   OH212602   5.896   4.824   0.469
 4220TIP3    H112603   5.905   4.819   0.564
 4220TIP3    H212604   5.926   4.739   0.438
 4221TIP3   OH212605   3.903   5.194   4.358
 4221TIP3    H112606   3.853   5.119   4.326
 4221TIP3    H212607   3.849   5.232   4.427
 4222TIP3   OH212608   0.812   7.727   5.896
 4222TIP3    H112609   0.813   7.632   5.885
 4222TIP3    H212610   0.773   7.742   5.982
 4223TIP3   OH212611   6.026   7.670   1.763
 4223TIP3    H112612   6.012   7.674   1.858
 4223TIP3    H212613   5.994   7.755   1.731
 4224TIP3   OH212614   4.576   5.689   6.022
 4224TIP3    H112615   4.605   5.606   5.986
 4224TIP3    H212616   4.649   5.719   6.076
 4225TIP3   OH212617   6.833   4.032   0.097
 4225TIP3    H112618   6.855   3.948   0.137
 4225TIP3    H212619   6.817   4.091   0.171
 4226TIP3   OH212620   1.023   3.434   6.188
 4226TIP3    H112621   1.025   3.376   6.264
 4226TIP3    H212622   1.011   3.521   6.225
 4227TIP3   OH212623   4.314   4.370   5.392
 4227TIP3    H112624   4.300   4.465   5.388
 4227TIP3    H212625   4.336   4.345   5.302
 4228TIP3   OH212626   6.960   7.684   3.067
 4228TIP3    H112627   6.907   7.757   3.036
 4228TIP3    H212628   6.913   7.651   3.144
 4229TIP3   OH212629   3.770   0.402   0.961
 4229TIP3    H112630   3.751   0.471   1.025
 4229TIP3    H212631   3.786   0.450   0.879
 4230TIP3   OH212632   5.350   2.533   3.663
 4230TIP3    H112633   5.315   2.551   3.576
 4230TIP3    H212634   5.359   2.438   3.666
 4231TIP3   OH212635   7.406   0.338   4.636
 4231TIP3    H112636   7.367   0.425   4.627
 4231TIP3    H212637   7.462   0.329   4.558
 4232TIP3   OH212638   0.819   1.231   2.963
 4232TIP3    H112639   0.807   1.199   3.052
 4232TIP3    H212640   0.755   1.301   2.954
 4233TIP3   OH212641   7.653   4.730   1.852
 4233TIP3    H112642   7.625   4.791   1.784
 4233TIP3    H212643   7.572   4.708   1.899
 4234TIP3   OH212644   6.373   7.719   5.481
 4234TIP3    H112645   6.396   7.653   5.415
 4234TIP3    H212646   6.291   7.757   5.449
 4235TIP3   OH212647   5.642   3.505   5.258
 4235TIP3    H112648   5.557   3.480   5.223
 4235TIP3    H212649   5.637   3.600   5.268
 4236TIP3   OH212650   3.271   5.963   6.377
 4236TIP3    H112651   3.261   5.871   6.404
 4236TIP3    H212652   3.336   5.998   6.437
 4237TIP3   OH212653   6.161   2.680   4.159
 4237TIP3    H112654   6.188   2.593   4.188
 4237TIP3    H212655   6.234   2.711   4.105
 4238TIP3   OH212656   6.488   2.852   2.044
 4238TIP3    H112657   6.494   2.768   2.091
 4238TIP3    H212658   6.409   2.894   2.079
 4239TIP3   OH212659   5.032   0.260   6.003
 4239TIP3    H112660   5.001   0.170   5.992
 4239TIP3    H212661   5.093   0.255   6.076
 4240TIP3   OH212662   0.964   6.104   4.665
 4240TIP3    H112663   0.901   6.157   4.713
 4240TIP3    H212664   1.040   6.161   4.655
 4241TIP3   OH212665   5.946   5.658   5.392
 4241TIP3    H112666   5.873   5.696   5.343
 4241TIP3    H212667   6.011   5.637   5.326
 4242TIP3   OH212668   6.089   2.681   2.344
 4242TIP3    H112669   6.068   2.754   2.402
 4242TIP3    H212670   6.013   2.623   2.351
 4243TIP3   OH212671   2.092   3.678   0.760
 4243TIP3    H112672   2.178   3.649   0.789
 4243TIP3    H212673   2.088   3.770   0.787
 4244TIP3   OH212674  -0.021   5.141   0.438
 4244TIP3    H112675   0.032   5.114   0.363
 4244TIP3    H212676   0.043   5.166   0.505
 4245TIP3   OH212677   7.740   7.330   2.893
 4245TIP3    H112678   7.700   7.244   2.878
 4245TIP3    H212679   7.809   7.336   2.828
 4246TIP3   OH212680   2.196   6.599   0.093
 4246TIP3    H112681   2.188   6.580   0.186
 4246TIP3    H212682   2.151   6.683   0.082
 4247TIP3   OH212683   8.156   0.667   2.176
 4247TIP3    H112684   8.084   0.677   2.238
 4247TIP3    H212685   8.150   0.577   2.146
 4248TIP3   OH212686   4.593   3.277   1.354
 4248TIP3    H112687   4.652   3.218   1.401
 4248TIP3    H212688   4.648   3.351   1.330
 4249TIP3   OH212689   3.964   0.678   0.242
 4249TIP3    H112690   3.961   0.602   0.185
 4249TIP3    H212691   4.057   0.696   0.253
 4250TIP3   OH212692   1.817   4.628   0.998
 4250TIP3    H112693   1.880   4.593   1.061
 4250TIP3    H212694   1.870   4.655   0.923
 4251TIP3   OH212695   3.340   6.882   0.204
 4251TIP3    H112696   3.319   6.956   0.148
 4251TIP3    H212697   3.347   6.808   0.143
 4252TIP3   OH212698   0.680   4.944   5.023
 4252TIP3    H112699   0.709   5.029   4.990
 4252TIP3    H212700   0.648   4.898   4.946
 4253TIP3   OH212701   4.714   3.904   2.159
 4253TIP3    H112702   4.657   3.862   2.095
 4253TIP3    H212703   4.759   3.973   2.111
 4254TIP3   OH212704   5.723   6.697   2.879
 4254TIP3    H112705   5.786   6.692   2.950
 4254TIP3    H212706   5.736   6.617   2.829
 4255TIP3   OH212707   4.110   1.306   0.128
 4255TIP3    H112708   4.179   1.295   0.193
 4255TIP3    H212709   4.097   1.401   0.122
 4256TIP3   OH212710   0.422   2.178   3.481
 4256TIP3    H112711   0.364   2.185   3.557
 4256TIP3    H212712   0.363   2.185   3.406
 4257TIP3   OH212713   4.884   0.191   2.982
 4257TIP3    H112714   4.902   0.114   3.036
 4257TIP3    H212715   4.929   0.173   2.899
 4258TIP3   OH212716   0.168   1.646   0.313
 4258TIP3    H112717   0.147   1.660   0.220
 4258TIP3    H212718   0.165   1.551   0.325
 4259TIP3   OH212719   4.211   4.370   4.815
 4259TIP3    H112720   4.237   4.462   4.806
 4259TIP3    H212721   4.148   4.356   4.744
 4260TIP3   OH212722   5.922   7.408   2.200
 4260TIP3    H112723   5.971   7.489   2.213
 4260TIP3    H212724   5.834   7.427   2.232
 4261TIP3   OH212725   0.087   5.775   1.806
 4261TIP3    H112726   0.120   5.838   1.871
 4261TIP3    H212727   0.164   5.754   1.753
 4262TIP3   OH212728   0.281   6.997   2.197
 4262TIP3    H112729   0.340   6.977   2.124
 4262TIP3    H212730   0.257   7.089   2.184
 4263TIP3   OH212731   3.708   0.560   6.109
 4263TIP3    H112732   3.741   0.487   6.161
 4263TIP3    H212733   3.639   0.521   6.055
 4264TIP3   OH212734   6.159   6.774   5.989
 4264TIP3    H112735   6.186   6.754   6.079
 4264TIP3    H212736   6.232   6.745   5.935
 4265TIP3   OH212737   1.128   5.463   3.450
 4265TIP3    H112738   1.164   5.375   3.463
 4265TIP3    H212739   1.033   5.449   3.447
 4266TIP3   OH212740   1.162   3.829   5.702
 4266TIP3    H112741   1.249   3.838   5.665
 4266TIP3    H212742   1.102   3.850   5.630
 4267TIP3   OH212743   0.196   6.888   1.570
 4267TIP3    H112744   0.186   6.941   1.649
 4267TIP3    H212745   0.194   6.798   1.601
 4268TIP3   OH212746   5.146   2.568   4.429
 4268TIP3    H112747   5.122   2.629   4.500
 4268TIP3    H212748   5.081   2.498   4.436
 4269TIP3   OH212749   0.882   0.437   3.896
 4269TIP3    H112750   0.971   0.472   3.901
 4269TIP3    H212751   0.868   0.422   3.802
 4270TIP3   OH212752   1.327   4.584   4.713
 4270TIP3    H112753   1.235   4.591   4.690
 4270TIP3    H212754   1.328   4.539   4.797
 4271TIP3   OH212755   0.361   7.122   5.334
 4271TIP3    H112756   0.267   7.112   5.346
 4271TIP3    H212757   0.386   7.047   5.279
 4272TIP3   OH212758   5.521   5.101   2.813
 4272TIP3    H112759   5.483   5.187   2.829
 4272TIP3    H212760   5.613   5.109   2.840
 4273TIP3   OH212761   5.580   0.748   2.258
 4273TIP3    H112762   5.588   0.766   2.352
 4273TIP3    H212763   5.659   0.786   2.219
 4274TIP3   OH212764   5.041   5.061   6.104
 4274TIP3    H112765   5.053   4.966   6.103
 4274TIP3    H212766   4.957   5.074   6.148
 4275TIP3   OH212767   3.258   3.727   1.954
 4275TIP3    H112768   3.257   3.780   1.874
 4275TIP3    H212769   3.254   3.791   2.025
 4276TIP3   OH212770   3.210   3.122   4.437
 4276TIP3    H112771   3.133   3.173   4.463
 4276TIP3    H212772   3.182   3.074   4.359
 4277TIP3   OH212773   5.323   2.343   0.004
 4277TIP3    H112774   5.391   2.308   0.061
 4277TIP3    H212775   5.284   2.266  -0.037
 4278TIP3   OH212776   7.228   3.854   6.671
 4278TIP3    H112777   7.145   3.859   6.719
 4278TIP3    H212778   7.234   3.938   6.624
 4279TIP3   OH212779   4.337   3.681   6.067
 4279TIP3    H112780   4.276   3.721   6.005
 4279TIP3    H212781   4.321   3.587   6.059
 4280TIP3   OH212782   0.341   5.070   3.479
 4280TIP3    H112783   0.320   5.156   3.516
 4280TIP3    H212784   0.431   5.053   3.506
 4281TIP3   OH212785   7.991   3.696   3.059
 4281TIP3    H112786   8.023   3.606   3.053
 4281TIP3    H212787   7.918   3.692   3.120
 4282TIP3   OH212788   1.681   6.257   5.910
 4282TIP3    H112789   1.701   6.340   5.954
 4282TIP3    H212790   1.610   6.219   5.961
 4283TIP3   OH212791   8.052   6.479   0.514
 4283TIP3    H112792   8.117   6.488   0.444
 4283TIP3    H212793   8.052   6.565   0.557
 4284TIP3   OH212794   1.891   6.623   4.546
 4284TIP3    H112795   1.914   6.568   4.621
 4284TIP3    H212796   1.935   6.582   4.471
 4285TIP3   OH212797   5.294   7.636   5.579
 4285TIP3    H112798   5.214   7.593   5.549
 4285TIP3    H212799   5.277   7.729   5.565
 4286TIP3   OH212800   5.905   3.850   1.199
 4286TIP3    H112801   5.862   3.819   1.278
 4286TIP3    H212802   5.999   3.836   1.216
 4287TIP3   OH212803   4.726   0.418   3.647
 4287TIP3    H112804   4.755   0.333   3.614
 4287TIP3    H212805   4.778   0.432   3.726
 4288TIP3   OH212806   2.295   1.062   6.471
 4288TIP3    H112807   2.319   1.015   6.551
 4288TIP3    H212808   2.373   1.113   6.449
 4289TIP3   OH212809   1.452   2.867   3.595
 4289TIP3    H112810   1.505   2.790   3.576
 4289TIP3    H212811   1.365   2.833   3.616
 4290TIP3   OH212812   6.005   1.289   3.028
 4290TIP3    H112813   6.065   1.216   3.014
 4290TIP3    H212814   5.933   1.252   3.079
 4291TIP3   OH212815   1.873   1.879   0.980
 4291TIP3    H112816   1.936   1.878   0.908
 4291TIP3    H212817   1.790   1.852   0.939
 4292TIP3   OH212818   1.527   2.630   5.292
 4292TIP3    H112819   1.521   2.621   5.197
 4292TIP3    H212820   1.503   2.544   5.327
 4293TIP3   OH212821   8.191   0.194   0.671
 4293TIP3    H112822   8.118   0.246   0.636
 4293TIP3    H212823   8.161   0.104   0.662
 4294TIP3   OH212824   1.305   1.741   0.269
 4294TIP3    H112825   1.215   1.716   0.245
 4294TIP3    H212826   1.319   1.701   0.355
 4295TIP3   OH212827   3.924   5.668   1.603
 4295TIP3    H112828   3.832   5.693   1.603
 4295TIP3    H212829   3.972   5.749   1.616
 4296TIP3   OH212830   6.434   7.330   1.307
 4296TIP3    H112831   6.519   7.373   1.317
 4296TIP3    H212832   6.455   7.236   1.310
 4297TIP3   OH212833   0.543   2.384   2.960
 4297TIP3    H112834   0.455   2.420   2.949
 4297TIP3    H212835   0.530   2.289   2.964
 4298TIP3   OH212836   5.689   7.802   2.098
 4298TIP3    H112837   5.610   7.786   2.150
 4298TIP3    H212838   5.736   7.870   2.145
 4299TIP3   OH212839   5.998   0.032   3.371
 4299TIP3    H112840   6.016  -0.062   3.379
 4299TIP3    H212841   6.062   0.063   3.308
 4300TIP3   OH212842   0.458   0.349   0.077
 4300TIP3    H112843   0.474   0.317  -0.012
 4300TIP3    H212844   0.546   0.361   0.114
 4301TIP3   OH212845   1.464   2.649   4.597
 4301TIP3    H112846   1.410   2.582   4.556
 4301TIP3    H212847   1.456   2.633   4.691
 4302TIP3   OH212848   2.167   7.490   0.240
 4302TIP3    H112849   2.141   7.568   0.289
 4302TIP3    H212850   2.173   7.519   0.149
 4303TIP3   OH212851   3.094   3.766   6.377
 4303TIP3    H112852   3.184   3.788   6.401
 4303TIP3    H212853   3.075   3.686   6.425
 4304TIP3   OH212854   4.806   4.154   4.898
 4304TIP3    H112855   4.797   4.063   4.926
 4304TIP3    H212856   4.720   4.193   4.913
 4305TIP3   OH212857   4.716   0.825   6.286
 4305TIP3    H112858   4.803   0.789   6.269
 4305TIP3    H212859   4.661   0.748   6.302
 4306TIP3   OH212860   3.274   3.827   3.683
 4306TIP3    H112861   3.334   3.901   3.677
 4306TIP3    H212862   3.300   3.780   3.762
 4307TIP3   OH212863   7.612   1.139   0.673
 4307TIP3    H112864   7.701   1.105   0.675
 4307TIP3    H212865   7.614   1.218   0.727
 4308TIP3   OH212866   3.288   2.697   6.490
 4308TIP3    H112867   3.262   2.616   6.535
 4308TIP3    H212868   3.293   2.672   6.398
 4309TIP3   OH212869   4.369   2.249   4.538
 4309TIP3    H112870   4.384   2.183   4.470
 4309TIP3    H212871   4.283   2.229   4.573
 4310TIP3   OH212872   3.496   3.553   3.643
 4310TIP3    H112873   3.511   3.617   3.713
 4310TIP3    H212874   3.462   3.605   3.570
 4311TIP3   OH212875   1.779   2.390   6.614
 4311TIP3    H112876   1.691   2.354   6.619
 4311TIP3    H212877   1.829   2.342   6.681
 4312TIP3   OH212878   2.552   2.088   2.348
 4312TIP3    H112879   2.477   2.099   2.290
 4312TIP3    H212880   2.558   2.169   2.397
 4313TIP3   OH212881   1.693   6.449   3.627
 4313TIP3    H112882   1.648   6.478   3.706
 4313TIP3    H212883   1.654   6.501   3.557
 4314TIP3   OH212884   0.393   6.154   3.972
 4314TIP3    H112885   0.460   6.088   3.952
 4314TIP3    H212886   0.357   6.128   4.056
 4315TIP3   OH212887   6.548   6.304   3.528
 4315TIP3    H112888   6.481   6.300   3.597
 4315TIP3    H212889   6.572   6.397   3.524
 4316TIP3   OH212890   4.827   1.288   4.229
 4316TIP3    H112891   4.738   1.317   4.251
 4316TIP3    H212892   4.822   1.193   4.234
 4317TIP3   OH212893   2.552   3.187   1.420
 4317TIP3    H112894   2.489   3.217   1.355
 4317TIP3    H212895   2.539   3.244   1.495
 4318TIP3   OH212896   0.918   2.923   4.460
 4318TIP3    H112897   0.958   2.837   4.449
 4318TIP3    H212898   0.826   2.909   4.437
 4319TIP3   OH212899   3.748   5.054   6.671
 4319TIP3    H112900   3.722   5.078   6.582
 4319TIP3    H212901   3.844   5.048   6.666
 4320TIP3   OH212902   6.390   7.551   5.268
 4320TIP3    H112903   6.482   7.550   5.243
 4320TIP3    H212904   6.366   7.459   5.275
 4321TIP3   OH212905   6.728   4.017   6.530
 4321TIP3    H112906   6.695   3.939   6.576
 4321TIP3    H212907   6.698   4.006   6.440
 4322TIP3   OH212908   1.345   1.927   1.165
 4322TIP3    H112909   1.407   1.988   1.207
 4322TIP3    H212910   1.307   1.878   1.237
 4323TIP3   OH212911   2.963   6.109   4.336
 4323TIP3    H112912   3.026   6.040   4.317
 4323TIP3    H212913   3.013   6.172   4.390
 4324TIP3   OH212914   4.684   5.193   4.947
 4324TIP3    H112915   4.679   5.156   4.859
 4324TIP3    H212916   4.708   5.284   4.933
 4325TIP3   OH212917   1.455   4.651   2.066
 4325TIP3    H112918   1.470   4.561   2.093
 4325TIP3    H212919   1.531   4.674   2.013
 4326TIP3   OH212920   4.300   0.808   2.939
 4326TIP3    H112921   4.255   0.780   2.859
 4326TIP3    H212922   4.242   0.875   2.977
 4327TIP3   OH212923   7.401   6.859   3.633
 4327TIP3    H112924   7.421   6.855   3.727
 4327TIP3    H212925   7.331   6.924   3.627
 4328TIP3   OH212926   0.338   2.732   5.331
 4328TIP3    H112927   0.367   2.752   5.242
 4328TIP3    H212928   0.417   2.699   5.375
 4329TIP3   OH212929   4.532   3.529   1.593
 4329TIP3    H112930   4.543   3.623   1.578
 4329TIP3    H212931   4.463   3.503   1.533
 4330TIP3   OH212932   7.299   6.181   6.556
 4330TIP3    H112933   7.310   6.214   6.645
 4330TIP3    H212934   7.248   6.249   6.512
 4331TIP3   OH212935   4.885   4.210   6.442
 4331TIP3    H112936   4.856   4.277   6.379
 4331TIP3    H212937   4.804   4.164   6.466
 4332TIP3   OH212938   2.948   2.976   1.000
 4332TIP3    H112939   2.916   2.927   1.076
 4332TIP3    H212940   2.993   2.911   0.946
 4333TIP3   OH212941   6.176   7.287   1.400
 4333TIP3    H112942   6.267   7.297   1.374
 4333TIP3    H212943   6.180   7.260   1.491
 4334TIP3   OH212944   2.266   7.356   2.170
 4334TIP3    H112945   2.306   7.393   2.248
 4334TIP3    H212946   2.242   7.267   2.194
 4335TIP3   OH212947   3.702   1.067   5.264
 4335TIP3    H112948   3.653   1.051   5.345
 4335TIP3    H212949   3.666   1.006   5.201
 4336TIP3   OH212950   3.987   7.170   6.347
 4336TIP3    H112951   3.946   7.100   6.296
 4336TIP3    H212952   4.024   7.125   6.423
 4337TIP3   OH212953   2.205   7.639   2.884
 4337TIP3    H112954   2.264   7.638   2.809
 4337TIP3    H212955   2.253   7.689   2.951
 4338TIP3   OH212956   7.734   4.270   3.904
 4338TIP3    H112957   7.819   4.228   3.921
 4338TIP3    H212958   7.708   4.305   3.988
 4339TIP3   OH212959   3.082   0.459   1.243
 4339TIP3    H112960   2.992   0.429   1.257
 4339TIP3    H212961   3.076   0.555   1.244
 4340TIP3   OH212962   0.125   0.000   1.549
 4340TIP3    H112963   0.098   0.092   1.552
 4340TIP3    H212964   0.046  -0.048   1.526
 4341TIP3   OH212965   4.268   5.293   2.425
 4341TIP3    H112966   4.349   5.298   2.476
 4341TIP3    H212967   4.288   5.233   2.354
 4342TIP3   OH212968   2.363   5.004   2.166
 4342TIP3    H112969   2.390   5.006   2.074
 4342TIP3    H212970   2.267   5.008   2.163
 4343TIP3   OH212971   0.611   1.696   3.457
 4343TIP3    H112972   0.603   1.657   3.370
 4343TIP3    H212973   0.522   1.724   3.479
 4344TIP3   OH212974   4.072   3.672   5.604
 4344TIP3    H112975   4.015   3.707   5.673
 4344TIP3    H212976   4.073   3.741   5.537
 4345TIP3   OH212977   4.362   4.452   5.980
 4345TIP3    H112978   4.405   4.469   5.896
 4345TIP3    H212979   4.382   4.360   5.999
 4346TIP3   OH212980   6.724   1.415   0.191
 4346TIP3    H112981   6.809   1.456   0.175
 4346TIP3    H212982   6.666   1.489   0.209
 4347TIP3   OH212983   2.161   0.038   1.279
 4347TIP3    H112984   2.200   0.021   1.194
 4347TIP3    H212985   2.082  -0.016   1.281
 4348TIP3   OH212986   6.295   3.823   4.546
 4348TIP3    H112987   6.316   3.879   4.471
 4348TIP3    H212988   6.208   3.851   4.573
 4349TIP3   OH212989   4.982   7.183   5.248
 4349TIP3    H112990   5.052   7.248   5.252
 4349TIP3    H212991   4.984   7.151   5.158
 4350TIP3   OH212992   5.496   1.771   1.359
 4350TIP3    H112993   5.439   1.697   1.342
 4350TIP3    H212994   5.554   1.775   1.283
 4351TIP3   OH212995   1.980   6.828   5.637
 4351TIP3    H112996   1.900   6.866   5.673
 4351TIP3    H212997   2.049   6.856   5.697
 4352TIP3   OH212998   7.856   1.300   2.189
 4352TIP3    H112999   7.778   1.253   2.217
 4352TIP3    H213000   7.822   1.368   2.130
 4353TIP3   OH213001   7.689   4.526   0.224
 4353TIP3    H113002   7.642   4.448   0.195
 4353TIP3    H213003   7.624   4.597   0.216
 4354TIP3   OH213004   0.931   5.955   2.191
 4354TIP3    H113005   0.957   5.942   2.100
 4354TIP3    H213006   0.997   6.014   2.226
 4355TIP3   OH213007   3.970   4.211   6.328
 4355TIP3    H113008   4.050   4.215   6.379
 4355TIP3    H213009   3.999   4.204   6.237
 4356TIP3   OH213010   4.610   4.037   3.476
 4356TIP3    H113011   4.604   3.947   3.445
 4356TIP3    H213012   4.643   4.030   3.565
 4357TIP3   OH213013   0.962   1.790   1.437
 4357TIP3    H113014   0.923   1.709   1.472
 4357TIP3    H213015   0.904   1.815   1.365
 4358TIP3   OH213016   0.709   6.763   1.528
 4358TIP3    H113017   0.641   6.819   1.489
 4358TIP3    H213018   0.739   6.709   1.456
 4359TIP3   OH213019   3.817   6.755   2.499
 4359TIP3    H113020   3.760   6.730   2.427
 4359TIP3    H213021   3.807   6.685   2.563
 4360TIP3   OH213022   4.215   4.388   2.045
 4360TIP3    H113023   4.182   4.319   2.102
 4360TIP3    H213024   4.174   4.369   1.960
 4361TIP3   OH213025   0.811   6.410   3.331
 4361TIP3    H113026   0.806   6.348   3.404
 4361TIP3    H213027   0.736   6.468   3.343
 4362TIP3   OH213028   1.426   3.637   0.232
 4362TIP3    H113029   1.415   3.727   0.199
 4362TIP3    H213030   1.449   3.649   0.324
 4363TIP3   OH213031   5.256   0.023   4.534
 4363TIP3    H113032   5.164   0.042   4.519
 4363TIP3    H213033   5.284  -0.025   4.456
 4364TIP3   OH213034   7.153   7.338   3.787
 4364TIP3    H113035   7.197   7.278   3.727
 4364TIP3    H213036   7.088   7.284   3.832
 4365TIP3   OH213037   5.757   7.825   5.306
 4365TIP3    H113038   5.825   7.768   5.269
 4365TIP3    H213039   5.792   7.852   5.391
 4366TIP3   OH213040  -0.023   3.567   0.476
 4366TIP3    H113041  -0.013   3.627   0.550
 4366TIP3    H213042  -0.065   3.490   0.514
 4367TIP3   OH213043   3.472   0.448   1.566
 4367TIP3    H113044   3.387   0.492   1.571
 4367TIP3    H213045   3.453   0.356   1.581
 4368TIP3   OH213046   7.090   2.275   6.018
 4368TIP3    H113047   7.131   2.342   6.073
 4368TIP3    H213048   7.163   2.228   5.978
 4369TIP3   OH213049   3.142   7.563   0.584
 4369TIP3    H113050   3.108   7.478   0.610
 4369TIP3    H213051   3.067   7.622   0.590
 4370TIP3   OH213052   5.510   2.911   4.317
 4370TIP3    H113053   5.528   2.832   4.267
 4370TIP3    H213054   5.593   2.958   4.320
 4371TIP3   OH213055   6.967   5.126   5.164
 4371TIP3    H113056   7.037   5.177   5.205
 4371TIP3    H213057   7.007   5.093   5.083
 4372TIP3   OH213058   4.020   2.943   5.443
 4372TIP3    H113059   4.045   3.019   5.496
 4372TIP3    H213060   4.099   2.889   5.440
 4373TIP3   OH213061   1.173   3.596   3.120
 4373TIP3    H113062   1.131   3.637   3.195
 4373TIP3    H213063   1.105   3.540   3.081
 4374TIP3   OH213064   0.408   2.590   2.113
 4374TIP3    H113065   0.445   2.582   2.201
 4374TIP3    H213066   0.382   2.500   2.090
 4375TIP3   OH213067   0.272   5.559   0.081
 4375TIP3    H113068   0.201   5.512   0.123
 4375TIP3    H213069   0.350   5.506   0.098
 4376TIP3   OH213070   7.725   6.444   4.396
 4376TIP3    H113071   7.652   6.382   4.394
 4376TIP3    H213072   7.684   6.528   4.418
 4377TIP3   OH213073   1.973   1.339   3.431
 4377TIP3    H113074   1.906   1.365   3.494
 4377TIP3    H213075   1.926   1.329   3.348
 4378TIP3   OH213076   4.709   0.760   0.791
 4378TIP3    H113077   4.723   0.676   0.835
 4378TIP3    H213078   4.730   0.825   0.858
 4379TIP3   OH213079   5.006   6.479   3.573
 4379TIP3    H113080   4.931   6.426   3.544
 4379TIP3    H213081   5.073   6.415   3.596
 4380TIP3   OH213082   3.831   2.381   5.767
 4380TIP3    H113083   3.827   2.465   5.811
 4380TIP3    H213084   3.761   2.329   5.807
 4381TIP3   OH213085   3.396   1.503   1.300
 4381TIP3    H113086   3.437   1.575   1.348
 4381TIP3    H213087   3.427   1.424   1.343
 4382TIP3   OH213088   5.009   3.646   3.070
 4382TIP3    H113089   4.985   3.560   3.036
 4382TIP3    H213090   4.936   3.703   3.044
 4383TIP3   OH213091   7.074   6.219   0.848
 4383TIP3    H113092   7.108   6.146   0.795
 4383TIP3    H213093   7.149   6.277   0.860
 4384TIP3   OH213094   7.745   0.957   3.397
 4384TIP3    H113095   7.725   0.942   3.304
 4384TIP3    H213096   7.754   0.869   3.433
 4385TIP3   OH213097   0.349   3.183   4.606
 4385TIP3    H113098   0.330   3.100   4.650
 4385TIP3    H213099   0.346   3.248   4.677
 4386TIP3   OH213100   3.547   2.378   4.922
 4386TIP3    H113101   3.549   2.351   5.014
 4386TIP3    H213102   3.630   2.424   4.908
 4387TIP3   OH213103   1.886   7.654   5.376
 4387TIP3    H113104   1.912   7.577   5.326
 4387TIP3    H213105   1.824   7.621   5.442
 4388TIP3   OH213106   6.249   7.547   3.929
 4388TIP3    H113107   6.302   7.515   4.002
 4388TIP3    H213108   6.218   7.468   3.886
 4389TIP3   OH213109   4.710   5.404   2.921
 4389TIP3    H113110   4.731   5.458   2.845
 4389TIP3    H213111   4.790   5.404   2.973
 4390TIP3   OH213112   2.633   4.138   5.162
 4390TIP3    H113113   2.674   4.054   5.183
 4390TIP3    H213114   2.685   4.173   5.090
 4391TIP3   OH213115   0.995   5.584   5.308
 4391TIP3    H113116   1.000   5.586   5.403
 4391TIP3    H213117   1.009   5.675   5.281
 4392TIP3   OH213118   4.406   2.011   0.598
 4392TIP3    H113119   4.479   2.072   0.587
 4392TIP3    H213120   4.332   2.053   0.556
 4393TIP3   OH213121   7.627   5.846   3.224
 4393TIP3    H113122   7.587   5.888   3.148
 4393TIP3    H213123   7.682   5.914   3.264
 4394TIP3   OH213124   0.694   6.904   3.216
 4394TIP3    H113125   0.650   6.953   3.147
 4394TIP3    H213126   0.653   6.934   3.297
 4395TIP3   OH213127   6.965   3.899   1.948
 4395TIP3    H113128   7.040   3.870   2.001
 4395TIP3    H213129   6.919   3.819   1.925
 4396TIP3   OH213130   3.395   3.913   4.829
 4396TIP3    H113131   3.362   3.826   4.848
 4396TIP3    H213132   3.393   3.960   4.912
 4397TIP3   OH213133   4.256   6.438   5.341
 4397TIP3    H113134   4.328   6.495   5.369
 4397TIP3    H213135   4.259   6.440   5.245
 4398TIP3   OH213136   2.333   2.977   0.575
 4398TIP3    H113137   2.244   2.989   0.544
 4398TIP3    H213138   2.334   2.890   0.615
 4399TIP3   OH213139   4.159   5.409   4.890
 4399TIP3    H113140   4.246   5.448   4.888
 4399TIP3    H213141   4.136   5.405   4.983
 4400TIP3   OH213142   4.479   0.441   3.463
 4400TIP3    H113143   4.515   0.361   3.425
 4400TIP3    H213144   4.548   0.473   3.521
 4401TIP3   OH213145   6.243   1.329   3.732
 4401TIP3    H113146   6.188   1.254   3.753
 4401TIP3    H213147   6.277   1.359   3.816
 4402TIP3   OH213148   1.454   3.637   3.362
 4402TIP3    H113149   1.486   3.637   3.272
 4402TIP3    H213150   1.417   3.550   3.375
 4403TIP3   OH213151   0.210   6.964   2.458
 4403TIP3    H113152   0.221   6.983   2.365
 4403TIP3    H213153   0.118   6.942   2.468
 4404TIP3   OH213154   0.936   6.463   1.916
 4404TIP3    H113155   1.019   6.420   1.937
 4404TIP3    H213156   0.870   6.416   1.967
 4405TIP3   OH213157   2.080   3.908   5.985
 4405TIP3    H113158   2.048   3.998   5.981
 4405TIP3    H213159   2.175   3.916   5.972
 4406TIP3   OH213160   6.539   4.281   2.397
 4406TIP3    H113161   6.568   4.296   2.307
 4406TIP3    H213162   6.583   4.200   2.423
 4407TIP3   OH213163   0.032   1.763   4.988
 4407TIP3    H113164   0.085   1.794   4.914
 4407TIP3    H213165   0.051   1.825   5.059
 4408TIP3   OH213166   4.699   4.189   2.912
 4408TIP3    H113167   4.680   4.214   3.003
 4408TIP3    H213168   4.780   4.139   2.918
 4409TIP3   OH213169   4.728   3.388   1.702
 4409TIP3    H113170   4.778   3.451   1.651
 4409TIP3    H213171   4.637   3.411   1.685
 4410TIP3   OH213172   2.373   3.647   3.905
 4410TIP3    H113173   2.453   3.619   3.950
 4410TIP3    H213174   2.405   3.694   3.828
 4411TIP3   OH213175   2.789   6.489   5.040
 4411TIP3    H113176   2.845   6.505   5.116
 4411TIP3    H213177   2.765   6.576   5.008
 4412TIP3   OH213178   7.588   6.198   5.075
 4412TIP3    H113179   7.623   6.238   4.995
 4412TIP3    H213180   7.514   6.254   5.099
 4413TIP3   OH213181   5.218   7.869   4.574
 4413TIP3    H113182   5.306   7.866   4.537
 4413TIP3    H213183   5.211   7.787   4.624
 4414TIP3   OH213184   7.566   3.586   0.995
 4414TIP3    H113185   7.656   3.589   1.029
 4414TIP3    H213186   7.569   3.517   0.928
 4415TIP3   OH213187   3.823   3.924   6.687
 4415TIP3    H113188   3.812   3.856   6.621
 4415TIP3    H213189   3.735   3.958   6.702
 4416TIP3   OH213190   5.441   6.617   6.377
 4416TIP3    H113191   5.389   6.546   6.415
 4416TIP3    H213192   5.485   6.577   6.302
 4417TIP3   OH213193   1.754   7.381   0.457
 4417TIP3    H113194   1.669   7.337   0.458
 4417TIP3    H213195   1.765   7.414   0.547
 4418TIP3   OH213196   1.034   4.981   1.475
 4418TIP3    H113197   1.096   4.909   1.485
 4418TIP3    H213198   1.011   4.980   1.382
 4419TIP3   OH213199   1.143   6.402   5.919
 4419TIP3    H113200   1.172   6.312   5.937
 4419TIP3    H213201   1.092   6.394   5.838
 4420TIP3   OH213202   7.352   7.176   6.329
 4420TIP3    H113203   7.280   7.228   6.365
 4420TIP3    H213204   7.426   7.237   6.326
 4421TIP3   OH213205   6.433   1.358   6.399
 4421TIP3    H113206   6.361   1.402   6.355
 4421TIP3    H213207   6.468   1.298   6.333
 4422TIP3   OH213208   2.416   0.264   3.706
 4422TIP3    H113209   2.380   0.276   3.618
 4422TIP3    H213210   2.413   0.169   3.719
 4423TIP3   OH213211   7.951   0.256   3.696
 4423TIP3    H113212   7.908   0.331   3.737
 4423TIP3    H213213   7.936   0.268   3.602
 4424TIP3   OH213214   2.013   3.928   4.613
 4424TIP3    H113215   2.055   3.969   4.688
 4424TIP3    H213216   2.041   3.980   4.538
 4425TIP3   OH213217   5.330   2.166   6.161
 4425TIP3    H113218   5.310   2.076   6.133
 4425TIP3    H213219   5.355   2.211   6.080
 4426TIP3   OH213220   8.266   4.492   1.483
 4426TIP3    H113221   8.317   4.420   1.521
 4426TIP3    H213222   8.175   4.464   1.493
 4427TIP3   OH213223   8.155   0.013   0.440
 4427TIP3    H113224   8.131   0.105   0.425
 4427TIP3    H213225   8.090  -0.020   0.501
 4428TIP3   OH213226   3.128   5.454   3.857
 4428TIP3    H113227   3.158   5.387   3.795
 4428TIP3    H213228   3.046   5.419   3.891
 4429TIP3   OH213229   7.773   1.360   6.122
 4429TIP3    H113230   7.719   1.383   6.198
 4429TIP3    H213231   7.714   1.310   6.065
 4430TIP3   OH213232   2.274   7.282   4.199
 4430TIP3    H113233   2.296   7.191   4.179
 4430TIP3    H213234   2.180   7.288   4.180
 4431TIP3   OH213235   0.249   7.166   6.062
 4431TIP3    H113236   0.300   7.092   6.027
 4431TIP3    H213237   0.187   7.188   5.993
 4432TIP3   OH213238   6.847   6.719   4.821
 4432TIP3    H113239   6.932   6.713   4.864
 4432TIP3    H213240   6.867   6.749   4.732
 4433TIP3   OH213241   3.726   6.257   0.147
 4433TIP3    H113242   3.798   6.295   0.198
 4433TIP3    H213243   3.672   6.212   0.212
 4434TIP3   OH213244   3.397   1.528   5.148
 4434TIP3    H113245   3.461   1.502   5.214
 4434TIP3    H213246   3.316   1.484   5.175
 4435TIP3   OH213247   6.659   3.763   6.311
 4435TIP3    H113248   6.582   3.792   6.360
 4435TIP3    H213249   6.679   3.676   6.346
 4436TIP3   OH213250   2.703   3.757   1.114
 4436TIP3    H113251   2.708   3.661   1.111
 4436TIP3    H213252   2.651   3.780   1.037
 4437TIP3   OH213253   3.625   4.540   0.291
 4437TIP3    H113254   3.628   4.507   0.201
 4437TIP3    H213255   3.636   4.461   0.345
 4438TIP3   OH213256   6.509   7.266   4.033
 4438TIP3    H113257   6.477   7.176   4.025
 4438TIP3    H213258   6.539   7.289   3.945
 4439TIP3   OH213259   4.511   1.181   6.051
 4439TIP3    H113260   4.577   1.112   6.049
 4439TIP3    H213261   4.560   1.262   6.067
 4440TIP3   OH213262   2.619   2.514   6.197
 4440TIP3    H113263   2.590   2.599   6.229
 4440TIP3    H213264   2.572   2.501   6.115
 4441TIP3   OH213265   6.679   7.459   1.333
 4441TIP3    H113266   6.733   7.391   1.292
 4441TIP3    H213267   6.732   7.492   1.405
 4442TIP3   OH213268   4.445   0.074   0.638
 4442TIP3    H113269   4.370   0.018   0.616
 4442TIP3    H213270   4.444   0.078   0.734
 4443TIP3   OH213271   3.705   6.897   3.891
 4443TIP3    H113272   3.711   6.992   3.898
 4443TIP3    H213273   3.791   6.870   3.861
 4444TIP3   OH213274   1.377   1.554   4.597
 4444TIP3    H113275   1.470   1.560   4.620
 4444TIP3    H213276   1.345   1.478   4.645
 4445TIP3   OH213277   8.110   3.379   2.669
 4445TIP3    H113278   8.204   3.392   2.653
 4445TIP3    H213279   8.067   3.429   2.600
 4446TIP3   OH213280   4.688   3.167   2.140
 4446TIP3    H113281   4.718   3.078   2.123
 4446TIP3    H213282   4.642   3.193   2.060
 4447TIP3   OH213283   2.781   1.916   0.518
 4447TIP3    H113284   2.765   1.938   0.610
 4447TIP3    H213285   2.825   1.831   0.521
 4448TIP3   OH213286   3.509   5.027   3.788
 4448TIP3    H113287   3.525   5.110   3.743
 4448TIP3    H213288   3.571   5.028   3.861
 4449TIP3   OH213289   6.901   5.888   5.964
 4449TIP3    H113290   6.954   5.823   6.011
 4449TIP3    H213291   6.896   5.854   5.875
 4450TIP3   OH213292   0.834   7.719   1.764
 4450TIP3    H113293   0.896   7.764   1.707
 4450TIP3    H213294   0.842   7.627   1.739
 4451TIP3   OH213295   5.366   5.282   1.948
 4451TIP3    H113296   5.423   5.357   1.964
 4451TIP3    H213297   5.395   5.247   1.864
 4452TIP3   OH213298   1.776   4.686   5.878
 4452TIP3    H113299   1.720   4.634   5.937
 4452TIP3    H213300   1.762   4.647   5.792
 4453TIP3   OH213301   1.772   6.001   2.527
 4453TIP3    H113302   1.725   6.080   2.556
 4453TIP3    H213303   1.713   5.960   2.464
 4454TIP3   OH213304   6.676   2.525   5.233
 4454TIP3    H113305   6.658   2.545   5.141
 4454TIP3    H213306   6.621   2.587   5.282
 4455TIP3   OH213307   0.557   2.223   0.664
 4455TIP3    H113308   0.563   2.306   0.713
 4455TIP3    H213309   0.634   2.174   0.693
 4456TIP3   OH213310   5.371   3.312   4.528
 4456TIP3    H113311   5.282   3.317   4.561
 4456TIP3    H213312   5.369   3.244   4.460
 4457TIP3   OH213313   3.039   6.817   4.940
 4457TIP3    H113314   3.006   6.783   5.023
 4457TIP3    H213315   3.082   6.900   4.963
 4458TIP3   OH213316   7.322   7.438   3.976
 4458TIP3    H113317   7.378   7.373   4.019
 4458TIP3    H213318   7.260   7.387   3.924
 4459TIP3   OH213319   6.790   7.509   3.721
 4459TIP3    H113320   6.713   7.551   3.683
 4459TIP3    H213321   6.809   7.561   3.800
 4460TIP3   OH213322   3.553   6.401   3.093
 4460TIP3    H113323   3.594   6.487   3.098
 4460TIP3    H213324   3.501   6.404   3.013
 4461TIP3   OH213325   1.665   4.051   3.256
 4461TIP3    H113326   1.724   4.127   3.257
 4461TIP3    H213327   1.703   3.993   3.191
 4462TIP3   OH213328   6.655   7.007   0.556
 4462TIP3    H113329   6.636   7.089   0.602
 4462TIP3    H213330   6.654   6.940   0.624
 4463TIP3   OH213331   6.981   3.341   3.275
 4463TIP3    H113332   6.957   3.299   3.358
 4463TIP3    H213333   7.018   3.270   3.222
 4464TIP3   OH213334   1.932   2.618   1.303
 4464TIP3    H113335   1.952   2.539   1.353
 4464TIP3    H213336   2.003   2.623   1.238
 4465TIP3   OH213337   2.881   3.205   0.486
 4465TIP3    H113338   2.913   3.293   0.507
 4465TIP3    H213339   2.803   3.219   0.433
 4466TIP3   OH213340   7.449   0.774   4.893
 4466TIP3    H113341   7.451   0.722   4.974
 4466TIP3    H213342   7.507   0.848   4.911
 4467TIP3   OH213343   2.234   2.014   6.085
 4467TIP3    H113344   2.299   1.955   6.121
 4467TIP3    H213345   2.283   2.072   6.026
 4468TIP3   OH213346   6.769   1.953   1.979
 4468TIP3    H113347   6.729   2.032   2.015
 4468TIP3    H213348   6.792   1.901   2.055
 4469TIP3   OH213349   0.720   1.769   4.069
 4469TIP3    H113350   0.710   1.844   4.011
 4469TIP3    H213351   0.643   1.715   4.051
 4470TIP3   OH213352   7.046   5.545   1.530
 4470TIP3    H113353   7.130   5.508   1.500
 4470TIP3    H213354   7.018   5.487   1.601
 4471TIP3   OH213355   0.181   2.449   1.359
 4471TIP3    H113356   0.175   2.477   1.267
 4471TIP3    H213357   0.270   2.413   1.367
 4472TIP3   OH213358   0.405   6.504   6.388
 4472TIP3    H113359   0.351   6.426   6.388
 4472TIP3    H213360   0.495   6.471   6.381
 4473TIP3   OH213361   1.816   6.333   1.036
 4473TIP3    H113362   1.742   6.378   1.076
 4473TIP3    H213363   1.779   6.250   1.004
 4474TIP3   OH213364   7.767   1.635   6.564
 4474TIP3    H113365   7.711   1.686   6.505
 4474TIP3    H213366   7.849   1.623   6.516
 4475TIP3   OH213367   3.365   2.048   4.570
 4475TIP3    H113368   3.370   1.986   4.642
 4475TIP3    H213369   3.455   2.060   4.541
 4476TIP3   OH213370   1.678   5.642   6.139
 4476TIP3    H113371   1.668   5.709   6.206
 4476TIP3    H213372   1.772   5.623   6.139
 4477TIP3   OH213373   3.151   6.187   2.810
 4477TIP3    H113374   3.105   6.110   2.777
 4477TIP3    H213375   3.155   6.173   2.905
 4478TIP3   OH213376   7.539   5.525   3.326
 4478TIP3    H113377   7.457   5.566   3.301
 4478TIP3    H213378   7.531   5.434   3.296
 4479TIP3   OH213379   4.593   7.199   2.121
 4479TIP3    H113380   4.508   7.223   2.158
 4479TIP3    H213381   4.577   7.187   2.028
 4480TIP3   OH213382   2.109   0.587   1.125
 4480TIP3    H113383   2.025   0.602   1.168
 4480TIP3    H213384   2.152   0.520   1.178
 4481TIP3   OH213385   4.965   4.745   2.771
 4481TIP3    H113386   4.891   4.694   2.737
 4481TIP3    H213387   4.936   4.773   2.858
 4482TIP3   OH213388   3.303   7.095   3.777
 4482TIP3    H113389   3.343   7.142   3.850
 4482TIP3    H213390   3.359   7.116   3.702
 4483TIP3   OH213391   5.825   2.473   3.871
 4483TIP3    H113392   5.783   2.402   3.822
 4483TIP3    H213393   5.812   2.449   3.963
 4484TIP3   OH213394   4.011   2.238   1.291
 4484TIP3    H113395   3.949   2.220   1.361
 4484TIP3    H213396   4.081   2.288   1.333
 4485TIP3   OH213397   6.062   1.674   6.039
 4485TIP3    H113398   5.975   1.708   6.061
 4485TIP3    H213399   6.058   1.581   6.064
 4486TIP3   OH213400   2.611   7.278   6.560
 4486TIP3    H113401   2.660   7.358   6.539
 4486TIP3    H213402   2.531   7.310   6.603
 4487TIP3   OH213403   5.170   5.173   6.413
 4487TIP3    H113404   5.121   5.092   6.400
 4487TIP3    H213405   5.111   5.229   6.464
 4488TIP3   OH213406   2.381   6.464   4.120
 4488TIP3    H113407   2.383   6.448   4.026
 4488TIP3    H213408   2.454   6.412   4.155
 4489TIP3   OH213409   4.583   6.604   4.455
 4489TIP3    H113410   4.632   6.573   4.378
 4489TIP3    H213411   4.525   6.671   4.420
 4490TIP3   OH213412   1.217   6.091   2.220
 4490TIP3    H113413   1.306   6.103   2.186
 4490TIP3    H213414   1.197   6.174   2.264
 4491TIP3   OH213415   8.316   0.647   6.220
 4491TIP3    H113416   8.234   0.693   6.239
 4491TIP3    H213417   8.297   0.555   6.237
 4492TIP3   OH213418   5.309   6.642   4.896
 4492TIP3    H113419   5.362   6.707   4.849
 4492TIP3    H213420   5.253   6.604   4.828
 4493TIP3   OH213421   5.842   3.558   4.088
 4493TIP3    H113422   5.915   3.600   4.133
 4493TIP3    H213423   5.828   3.611   4.010
 4494TIP3   OH213424   5.122   7.438   5.239
 4494TIP3    H113425   5.217   7.441   5.224
 4494TIP3    H213426   5.086   7.503   5.179
 4495TIP3   OH213427   2.139   7.034   1.898
 4495TIP3    H113428   2.151   7.069   1.987
 4495TIP3    H213429   2.094   6.950   1.912
 4496TIP3   OH213430   1.797   0.256   1.013
 4496TIP3    H113431   1.793   0.313   1.090
 4496TIP3    H213432   1.831   0.312   0.944
 4497TIP3   OH213433   7.097   2.463   2.236
 4497TIP3    H113434   7.056   2.543   2.204
 4497TIP3    H213435   7.174   2.451   2.181
 4498TIP3   OH213436   0.372   6.723   2.590
 4498TIP3    H113437   0.422   6.778   2.651
 4498TIP3    H213438   0.433   6.703   2.519
 4499TIP3   OH213439   2.854   1.546   4.489
 4499TIP3    H113440   2.846   1.505   4.575
 4499TIP3    H213441   2.800   1.492   4.432
 4500TIP3   OH213442   1.024   0.142   5.278
 4500TIP3    H113443   1.105   0.092   5.287
 4500TIP3    H213444   0.966   0.084   5.229
 4501TIP3   OH213445   4.546   0.175   0.373
 4501TIP3    H113446   4.500   0.098   0.340
 4501TIP3    H213447   4.610   0.140   0.435
 4502TIP3   OH213448   5.535   3.280   4.192
 4502TIP3    H113449   5.470   3.224   4.234
 4502TIP3    H213450   5.603   3.219   4.161
 4503TIP3   OH213451   0.569   1.383   4.396
 4503TIP3    H113452   0.640   1.447   4.384
 4503TIP3    H213453   0.595   1.333   4.474
 4504TIP3   OH213454   1.609   5.294   5.294
 4504TIP3    H113455   1.655   5.218   5.329
 4504TIP3    H213456   1.527   5.296   5.343
 4505TIP3   OH213457   0.722   0.704   4.555
 4505TIP3    H113458   0.801   0.659   4.525
 4505TIP3    H213459   0.697   0.761   4.482
 4506TIP3   OH213460   6.457   1.494   5.252
 4506TIP3    H113461   6.487   1.479   5.342
 4506TIP3    H213462   6.412   1.413   5.228
 4507TIP3   OH213463   5.519   0.192   2.279
 4507TIP3    H113464   5.446   0.252   2.261
 4507TIP3    H213465   5.478   0.112   2.311
 4508TIP3   OH213466   4.247   5.681   3.782
 4508TIP3    H113467   4.207   5.595   3.771
 4508TIP3    H213468   4.263   5.711   3.693
 4509TIP3   OH213469   4.993   6.753   3.640
 4509TIP3    H113470   5.011   6.800   3.558
 4509TIP3    H213471   5.003   6.661   3.618
 4510TIP3   OH213472   6.395   2.570   1.717
 4510TIP3    H113473   6.322   2.585   1.777
 4510TIP3    H213474   6.407   2.475   1.716
 4511TIP3   OH213475   7.768   7.570   5.954
 4511TIP3    H113476   7.812   7.604   6.032
 4511TIP3    H213477   7.713   7.499   5.988
 4512TIP3   OH213478   3.670   7.685   4.407
 4512TIP3    H113479   3.699   7.727   4.488
 4512TIP3    H213480   3.723   7.726   4.339
 4513TIP3   OH213481   4.027   5.007   3.502
 4513TIP3    H113482   3.992   5.050   3.425
 4513TIP3    H213483   3.995   5.059   3.576
 4514TIP3   OH213484   0.204   0.168   0.853
 4514TIP3    H113485   0.164   0.081   0.852
 4514TIP3    H213486   0.206   0.195   0.761
 4515TIP3   OH213487   5.222   5.502   5.543
 4515TIP3    H113488   5.127   5.492   5.546
 4515TIP3    H213489   5.254   5.416   5.515
 4516TIP3   OH213490   6.892   6.396   1.674
 4516TIP3    H113491   6.882   6.397   1.769
 4516TIP3    H213492   6.987   6.402   1.659
 4517TIP3   OH213493   0.159   2.666   6.588
 4517TIP3    H113494   0.147   2.579   6.627
 4517TIP3    H213495   0.153   2.651   6.494
 4518TIP3   OH213496   4.109   4.286   0.684
 4518TIP3    H113497   4.098   4.247   0.771
 4518TIP3    H213498   4.050   4.236   0.627
 4519TIP3   OH213499   0.045   5.336   4.895
 4519TIP3    H113500   0.112   5.348   4.827
 4519TIP3    H213501   0.090   5.285   4.963
 4520TIP3   OH213502   0.349   2.101   1.681
 4520TIP3    H113503   0.280   2.052   1.725
 4520TIP3    H213504   0.428   2.083   1.732
 4521TIP3   OH213505   2.331   6.928   1.535
 4521TIP3    H113506   2.341   6.842   1.578
 4521TIP3    H213507   2.421   6.957   1.520
 4522TIP3   OH213508   4.985   1.439   2.699
 4522TIP3    H113509   5.019   1.382   2.630
 4522TIP3    H213510   4.983   1.526   2.659
 4523TIP3   OH213511   0.275   3.199   1.136
 4523TIP3    H113512   0.320   3.278   1.165
 4523TIP3    H213513   0.243   3.221   1.048
 4524TIP3   OH213514   4.320   1.268   2.280
 4524TIP3    H113515   4.377   1.201   2.244
 4524TIP3    H213516   4.378   1.326   2.329
 4525TIP3   OH213517   7.165   2.000   0.142
 4525TIP3    H113518   7.254   1.975   0.116
 4525TIP3    H213519   7.109   1.953   0.081
 4526TIP3   OH213520   1.328   7.158   3.160
 4526TIP3    H113521   1.379   7.225   3.116
 4526TIP3    H213522   1.356   7.075   3.121
 4527TIP3   OH213523   3.650   5.214   3.575
 4527TIP3    H113524   3.580   5.258   3.527
 4527TIP3    H213525   3.668   5.273   3.648
 4528TIP3   OH213526   6.086   1.042   0.851
 4528TIP3    H113527   6.169   0.995   0.843
 4528TIP3    H213528   6.043   1.001   0.926
 4529TIP3   OH213529   7.332   3.895   0.355
 4529TIP3    H113530   7.409   3.932   0.312
 4529TIP3    H213531   7.354   3.893   0.448
 4530TIP3   OH213532   6.964   6.490   2.227
 4530TIP3    H113533   6.897   6.503   2.160
 4530TIP3    H213534   7.043   6.466   2.178
 4531TIP3   OH213535   1.633   3.374   5.870
 4531TIP3    H113536   1.634   3.303   5.806
 4531TIP3    H213537   1.716   3.421   5.854
 4532TIP3   OH213538   0.046   0.129   4.675
 4532TIP3    H113539  -0.004   0.103   4.753
 4532TIP3    H213540   0.117   0.065   4.670
 4533TIP3   OH213541   8.057   1.710   5.619
 4533TIP3    H113542   8.123   1.649   5.651
 4533TIP3    H213543   8.099   1.796   5.624
 4534TIP3   OH213544   1.541   0.464   4.869
 4534TIP3    H113545   1.567   0.409   4.943
 4534TIP3    H213546   1.621   0.479   4.820
 4535TIP3   OH213547   1.474   1.929   4.805
 4535TIP3    H113548   1.395   1.908   4.754
 4535TIP3    H213549   1.440   1.960   4.889
 4536TIP3   OH213550   5.491   4.547   5.414
 4536TIP3    H113551   5.513   4.505   5.330
 4536TIP3    H213552   5.576   4.564   5.455
 4537TIP3   OH213553   3.499   0.680   0.162
 4537TIP3    H113554   3.515   0.767   0.128
 4537TIP3    H213555   3.576   0.629   0.136
 4538TIP3   OH213556   5.642   0.371   2.540
 4538TIP3    H113557   5.639   0.315   2.463
 4538TIP3    H213558   5.716   0.430   2.524
 4539TIP3   OH213559   7.640   3.003   4.676
 4539TIP3    H113560   7.559   2.965   4.707
 4539TIP3    H213561   7.670   2.943   4.607
 4540TIP3   OH213562   3.333   6.373   0.285
 4540TIP3    H113563   3.410   6.416   0.321
 4540TIP3    H213564   3.261   6.433   0.305
 4541TIP3   OH213565   4.977   3.771   0.727
 4541TIP3    H113566   5.030   3.818   0.792
 4541TIP3    H213567   4.887   3.798   0.745
 4542TIP3   OH213568   0.333   0.239   1.081
 4542TIP3    H113569   0.275   0.194   1.019
 4542TIP3    H213570   0.324   0.332   1.058
 4543TIP3   OH213571   2.177   4.899   5.052
 4543TIP3    H113572   2.270   4.922   5.054
 4543TIP3    H213573   2.174   4.809   5.086
 4544TIP3   OH213574   6.955   0.686   2.995
 4544TIP3    H113575   6.927   0.683   2.904
 4544TIP3    H213576   6.874   0.701   3.044
 4545TIP3   OH213577   6.691   1.103   0.958
 4545TIP3    H113578   6.742   1.036   1.004
 4545TIP3    H213579   6.757   1.153   0.910
 4546TIP3   OH213580   5.523   1.621   1.094
 4546TIP3    H113581   5.515   1.683   1.022
 4546TIP3    H213582   5.442   1.569   1.089
 4547TIP3   OH213583   1.829   3.616   2.891
 4547TIP3    H113584   1.871   3.531   2.872
 4547TIP3    H213585   1.883   3.654   2.960
 4548TIP3   OH213586   2.674   1.614   5.770
 4548TIP3    H113587   2.607   1.653   5.825
 4548TIP3    H213588   2.642   1.526   5.750
 4549TIP3   OH213589   1.801   6.232   2.201
 4549TIP3    H113590   1.779   6.325   2.202
 4549TIP3    H213591   1.873   6.224   2.264
 4550TIP3   OH213592   0.428   1.747   5.610
 4550TIP3    H113593   0.461   1.722   5.524
 4550TIP3    H213594   0.361   1.682   5.630
 4551TIP3   OH213595   2.821   3.944   0.861
 4551TIP3    H113596   2.894   3.927   0.921
 4551TIP3    H213597   2.861   3.942   0.774
 4552TIP3   OH213598   4.603   3.546   4.619
 4552TIP3    H113599   4.554   3.593   4.551
 4552TIP3    H213600   4.569   3.457   4.615
 4553TIP3   OH213601   4.739   0.347   4.088
 4553TIP3    H113602   4.762   0.438   4.107
 4553TIP3    H213603   4.644   0.343   4.102
 4554TIP3   OH213604   7.309   4.805   6.276
 4554TIP3    H113605   7.281   4.790   6.186
 4554TIP3    H213606   7.273   4.891   6.298
 4555TIP3   OH213607   1.713   6.903   6.206
 4555TIP3    H113608   1.728   6.988   6.165
 4555TIP3    H213609   1.639   6.917   6.265
 4556TIP3   OH213610   8.243   3.683   0.772
 4556TIP3    H113611   8.221   3.597   0.808
 4556TIP3    H213612   8.200   3.745   0.831
 4557TIP3   OH213613   0.606   5.572   3.817
 4557TIP3    H113614   0.686   5.604   3.858
 4557TIP3    H213615   0.538   5.587   3.882
 4558TIP3   OH213616   4.007   2.939   2.936
 4558TIP3    H113617   4.100   2.945   2.959
 4558TIP3    H213618   3.996   2.850   2.903
 4559TIP3   OH213619   4.494   1.131   0.985
 4559TIP3    H113620   4.536   1.123   0.899
 4559TIP3    H213621   4.519   1.219   1.015
 4560TIP3   OH213622   8.130   0.622   3.854
 4560TIP3    H113623   8.046   0.659   3.826
 4560TIP3    H213624   8.106   0.543   3.903
 4561TIP3   OH213625   0.675   1.067   4.878
 4561TIP3    H113626   0.661   0.998   4.814
 4561TIP3    H213627   0.770   1.075   4.884
 4562TIP3   OH213628   7.055   5.620   3.362
 4562TIP3    H113629   7.038   5.699   3.312
 4562TIP3    H213630   6.973   5.570   3.357
 4563TIP3   OH213631   8.092   7.578   2.073
 4563TIP3    H113632   8.098   7.629   1.993
 4563TIP3    H213633   8.138   7.496   2.053
 4564TIP3   OH213634   1.756   1.429   2.375
 4564TIP3    H113635   1.687   1.365   2.362
 4564TIP3    H213636   1.783   1.417   2.466
 4565TIP3   OH213637   7.145   1.358   4.046
 4565TIP3    H113638   7.218   1.340   3.987
 4565TIP3    H213639   7.106   1.439   4.013
 4566TIP3   OH213640   7.810   4.152   1.099
 4566TIP3    H113641   7.843   4.073   1.141
 4566TIP3    H213642   7.756   4.194   1.166
 4567TIP3   OH213643   1.281   6.118   4.089
 4567TIP3    H113644   1.261   6.137   4.180
 4567TIP3    H213645   1.376   6.127   4.083
 4568TIP3   OH213646   2.358   0.553   2.606
 4568TIP3    H113647   2.348   0.492   2.679
 4568TIP3    H213648   2.309   0.513   2.535
 4569TIP3   OH213649   5.273   0.736   4.142
 4569TIP3    H113650   5.249   0.820   4.103
 4569TIP3    H213651   5.226   0.671   4.090
 4570TIP3   OH213652   6.266   1.658   4.294
 4570TIP3    H113653   6.194   1.699   4.341
 4570TIP3    H213654   6.343   1.708   4.321
 4571TIP3   OH213655   4.577   1.959   3.757
 4571TIP3    H113656   4.547   1.879   3.714
 4571TIP3    H213657   4.652   1.931   3.809
 4572TIP3   OH213658   1.866   4.231   4.900
 4572TIP3    H113659   1.831   4.293   4.836
 4572TIP3    H213660   1.932   4.281   4.947
 4573TIP3   OH213661   7.275   1.302   5.117
 4573TIP3    H113662   7.299   1.345   5.199
 4573TIP3    H213663   7.295   1.368   5.050
 4574TIP3   OH213664   3.733   7.277   6.285
 4574TIP3    H113665   3.750   7.265   6.191
 4574TIP3    H213666   3.817   7.261   6.327
 4575TIP3   OH213667   7.250   1.218   5.418
 4575TIP3    H113668   7.227   1.305   5.384
 4575TIP3    H213669   7.345   1.219   5.424
 4576TIP3   OH213670   2.836   4.496   6.442
 4576TIP3    H113671   2.820   4.422   6.501
 4576TIP3    H213672   2.770   4.560   6.466
 4577TIP3   OH213673   3.317   7.368   0.145
 4577TIP3    H113674   3.282   7.457   0.141
 4577TIP3    H213675   3.385   7.366   0.078
 4578TIP3   OH213676   0.453   0.724   5.646
 4578TIP3    H113677   0.367   0.699   5.679
 4578TIP3    H213678   0.506   0.644   5.652
 4579TIP3   OH213679   0.772   0.867   2.902
 4579TIP3    H113680   0.702   0.922   2.867
 4579TIP3    H213681   0.764   0.785   2.855
 4580TIP3   OH213682   4.529   3.925   1.204
 4580TIP3    H113683   4.604   3.976   1.174
 4580TIP3    H213684   4.493   3.975   1.277
 4581TIP3   OH213685   0.459   2.478   3.333
 4581TIP3    H113686   0.500   2.410   3.280
 4581TIP3    H213687   0.367   2.477   3.307
 4582TIP3   OH213688   4.596   7.344   2.456
 4582TIP3    H113689   4.625   7.341   2.547
 4582TIP3    H213690   4.623   7.259   2.420
 4583TIP3   OH213691   5.892   3.680   5.759
 4583TIP3    H113692   5.843   3.598   5.763
 4583TIP3    H213693   5.838   3.742   5.806
 4584TIP3   OH213694   7.448   2.875   1.764
 4584TIP3    H113695   7.538   2.902   1.784
 4584TIP3    H213696   7.456   2.784   1.734
 4585TIP3   OH213697   0.374   4.970   5.979
 4585TIP3    H113698   0.356   5.064   5.978
 4585TIP3    H213699   0.438   4.959   6.050
 4586TIP3   OH213700   2.175   1.497   2.416
 4586TIP3    H113701   2.162   1.514   2.509
 4586TIP3    H213702   2.197   1.404   2.412
 4587TIP3   OH213703   5.533   6.742   6.593
 4587TIP3    H113704   5.468   6.705   6.533
 4587TIP3    H213705   5.565   6.667   6.643
 4588TIP3   OH213706   5.452   4.931   3.776
 4588TIP3    H113707   5.503   5.011   3.780
 4588TIP3    H213708   5.501   4.868   3.830
 4589TIP3   OH213709   3.915   5.223   6.145
 4589TIP3    H113710   3.935   5.266   6.062
 4589TIP3    H213711   3.936   5.288   6.212
 4590TIP3   OH213712   3.526   1.792   3.568
 4590TIP3    H113713   3.506   1.843   3.647
 4590TIP3    H213714   3.540   1.857   3.500
 4591TIP3   OH213715   4.444   0.880   1.075
 4591TIP3    H113716   4.379   0.915   1.136
 4591TIP3    H213717   4.484   0.957   1.036
 4592TIP3   OH213718   7.021   0.850   2.489
 4592TIP3    H113719   7.042   0.817   2.401
 4592TIP3    H213720   6.932   0.818   2.505
 4593TIP3   OH213721   6.731   2.480   4.724
 4593TIP3    H113722   6.759   2.472   4.633
 4593TIP3    H213723   6.703   2.392   4.749
 4594TIP3   OH213724   2.843   1.413   4.741
 4594TIP3    H113725   2.918   1.353   4.749
 4594TIP3    H213726   2.792   1.397   4.821
 4595TIP3   OH213727   4.257   7.380   6.547
 4595TIP3    H113728   4.217   7.381   6.461
 4595TIP3    H213729   4.298   7.293   6.553
 4596TIP3   OH213730   6.055   7.743   0.226
 4596TIP3    H113731   6.124   7.733   0.160
 4596TIP3    H213732   5.987   7.795   0.183
 4597TIP3   OH213733   7.223   1.798   6.558
 4597TIP3    H113734   7.188   1.875   6.602
 4597TIP3    H213735   7.263   1.832   6.477
 4598TIP3   OH213736   1.433   3.768   6.458
 4598TIP3    H113737   1.355   3.713   6.452
 4598TIP3    H213738   1.505   3.706   6.474
 4599TIP3   OH213739   1.033   0.097   2.030
 4599TIP3    H113740   1.054   0.052   2.113
 4599TIP3    H213741   0.959   0.154   2.052
 4600TIP3   OH213742   5.845   1.977   5.297
 4600TIP3    H113743   5.881   2.044   5.239
 4600TIP3    H213744   5.921   1.938   5.339
 4601TIP3   OH213745   7.389   0.195   3.348
 4601TIP3    H113746   7.380   0.290   3.346
 4601TIP3    H213747   7.367   0.166   3.260
 4602TIP3   OH213748   3.249   2.309   3.395
 4602TIP3    H113749   3.193   2.236   3.421
 4602TIP3    H213750   3.207   2.386   3.431
 4603TIP3   OH213751   4.064   0.779   5.428
 4603TIP3    H113752   3.974   0.802   5.402
 4603TIP3    H213753   4.075   0.820   5.514
 4604TIP3   OH213754   5.000   2.825   1.070
 4604TIP3    H113755   4.999   2.899   1.009
 4604TIP3    H213756   4.976   2.750   1.016
 4605TIP3   OH213757   7.737   2.555   0.459
 4605TIP3    H113758   7.792   2.571   0.382
 4605TIP3    H213759   7.696   2.471   0.444
 4606TIP3   OH213760   4.463   4.546   4.516
 4606TIP3    H113761   4.370   4.529   4.526
 4606TIP3    H213762   4.502   4.514   4.597
 4607TIP3   OH213763   6.825   6.477   5.242
 4607TIP3    H113764   6.815   6.494   5.148
 4607TIP3    H213765   6.818   6.382   5.250
 4608TIP3   OH213766   4.878   3.767   3.810
 4608TIP3    H113767   4.965   3.727   3.812
 4608TIP3    H213768   4.822   3.700   3.769
 4609TIP3   OH213769   5.310   1.653   0.393
 4609TIP3    H113770   5.287   1.615   0.477
 4609TIP3    H213771   5.384   1.600   0.362
 4610TIP3   OH213772   5.664   5.269   0.970
 4610TIP3    H113773   5.632   5.345   1.018
 4610TIP3    H213774   5.749   5.250   1.009
 4611TIP3   OH213775   1.273   5.539   5.055
 4611TIP3    H113776   1.226   5.482   5.116
 4611TIP3    H213777   1.366   5.526   5.075
 4612TIP3   OH213778   1.241   2.996   0.664
 4612TIP3    H113779   1.300   3.007   0.589
 4612TIP3    H213780   1.284   3.043   0.735
 4613TIP3   OH213781   3.481   0.340   6.225
 4613TIP3    H113782   3.412   0.309   6.283
 4613TIP3    H213783   3.437   0.398   6.163
 4614TIP3   OH213784   4.786   5.223   2.257
 4614TIP3    H113785   4.853   5.154   2.260
 4614TIP3    H213786   4.769   5.242   2.349
 4615TIP3   OH213787   1.624   6.185   5.640
 4615TIP3    H113788   1.605   6.276   5.618
 4615TIP3    H213789   1.679   6.190   5.718
 4616TIP3   OH213790   0.063   3.097   3.952
 4616TIP3    H113791   0.037   3.076   3.862
 4616TIP3    H213792   0.145   3.050   3.965
 4617TIP3   OH213793   2.237   4.016   4.985
 4617TIP3    H113794   2.233   4.105   5.020
 4617TIP3    H213795   2.193   3.963   5.051
 4618TIP3   OH213796   0.920   2.303   3.658
 4618TIP3    H113797   0.833   2.336   3.633
 4618TIP3    H213798   0.970   2.303   3.577
 4619TIP3   OH213799   4.591   3.816   5.442
 4619TIP3    H113800   4.530   3.742   5.448
 4619TIP3    H213801   4.536   3.889   5.412
 4620TIP3   OH213802   7.995   6.161   1.759
 4620TIP3    H113803   7.984   6.148   1.854
 4620TIP3    H213804   8.006   6.255   1.749
 4621TIP3   OH213805   5.292   2.964   5.099
 4621TIP3    H113806   5.297   2.869   5.096
 4621TIP3    H213807   5.316   2.992   5.011
 4622TIP3   OH213808   0.150   2.207   2.252
 4622TIP3    H113809   0.111   2.294   2.257
 4622TIP3    H213810   0.076   2.147   2.252
 4623TIP3   OH213811   0.841   3.131   5.046
 4623TIP3    H113812   0.924   3.173   5.067
 4623TIP3    H213813   0.846   3.113   4.952
 4624TIP3   OH213814   4.306   6.996   3.925
 4624TIP3    H113815   4.224   7.020   3.881
 4624TIP3    H213816   4.372   7.053   3.886
 4625TIP3   OH213817   1.275   7.458   4.951
 4625TIP3    H113818   1.334   7.518   4.997
 4625TIP3    H213819   1.303   7.371   4.978
 4626TIP3   OH213820   1.733   0.784   6.734
 4626TIP3    H113821   1.820   0.793   6.771
 4626TIP3    H213822   1.741   0.819   6.645
 4627TIP3   OH213823   3.280   7.643   3.052
 4627TIP3    H113824   3.237   7.634   3.137
 4627TIP3    H213825   3.372   7.627   3.069
 4628TIP3   OH213826   5.922   5.533   1.808
 4628TIP3    H113827   5.973   5.578   1.876
 4628TIP3    H213828   5.984   5.471   1.769
 4629TIP3   OH213829   0.923   7.065   3.766
 4629TIP3    H113830   0.927   7.154   3.802
 4629TIP3    H213831   0.997   7.061   3.705
 4630TIP3   OH213832   5.594   2.095   5.997
 4630TIP3    H113833   5.640   2.068   5.918
 4630TIP3    H213834   5.509   2.050   5.992
 4631TIP3   OH213835   4.096   0.302   1.375
 4631TIP3    H113836   4.054   0.376   1.418
 4631TIP3    H213837   4.044   0.288   1.295
 4632TIP3   OH213838   3.904   1.150   1.422
 4632TIP3    H113839   3.953   1.225   1.388
 4632TIP3    H213840   3.918   1.081   1.357
 4633TIP3   OH213841   6.056   0.764   1.326
 4633TIP3    H113842   6.046   0.742   1.418
 4633TIP3    H213843   6.056   0.679   1.281
 4634TIP3   OH213844   5.347   4.951   1.220
 4634TIP3    H113845   5.274   4.934   1.161
 4634TIP3    H213846   5.419   4.977   1.163
 4635TIP3   OH213847   0.846   4.895   3.091
 4635TIP3    H113848   0.769   4.862   3.044
 4635TIP3    H213849   0.921   4.857   3.044
 4636TIP3   OH213850   0.194   4.963   3.802
 4636TIP3    H113851   0.174   5.047   3.760
 4636TIP3    H213852   0.166   4.976   3.893
 4637TIP3   OH213853   6.346   1.170   0.235
 4637TIP3    H113854   6.264   1.203   0.271
 4637TIP3    H213855   6.347   1.077   0.258
 4638TIP3   OH213856   7.991   4.832   5.691
 4638TIP3    H113857   8.052   4.888   5.740
 4638TIP3    H213858   7.984   4.753   5.743
 4639TIP3   OH213859   4.815   6.116   2.376
 4639TIP3    H113860   4.829   6.211   2.369
 4639TIP3    H213861   4.901   6.082   2.400
 4640TIP3   OH213862   4.476   1.418   0.701
 4640TIP3    H113863   4.399   1.471   0.719
 4640TIP3    H213864   4.550   1.478   0.712
 4641TIP3   OH213865   7.635   5.529   1.068
 4641TIP3    H113866   7.723   5.563   1.083
 4641TIP3    H213867   7.644   5.434   1.079
 4642TIP3   OH213868   4.769   3.921   6.212
 4642TIP3    H113869   4.778   3.891   6.302
 4642TIP3    H213870   4.695   3.871   6.177
 4643TIP3   OH213871   6.007   0.689   1.579
 4643TIP3    H113872   6.008   0.596   1.599
 4643TIP3    H213873   6.009   0.733   1.664
 4644TIP3   OH213874   5.537   4.297   3.212
 4644TIP3    H113875   5.478   4.301   3.137
 4644TIP3    H213876   5.482   4.273   3.286
 4645TIP3   OH213877   6.812   1.705   0.481
 4645TIP3    H113878   6.824   1.789   0.526
 4645TIP3    H213879   6.799   1.642   0.552
 4646TIP3   OH213880   0.673   5.048   5.670
 4646TIP3    H113881   0.727   5.023   5.745
 4646TIP3    H213882   0.593   4.996   5.681
 4647TIP3   OH213883   8.086   6.799   5.778
 4647TIP3    H113884   8.009   6.777   5.831
 4647TIP3    H213885   8.065   6.884   5.740
 4648TIP3   OH213886   2.044   1.285   5.787
 4648TIP3    H113887   1.998   1.211   5.749
 4648TIP3    H213888   2.103   1.246   5.852
 4649TIP3   OH213889   1.583   7.137   5.566
 4649TIP3    H113890   1.516   7.082   5.525
 4649TIP3    H213891   1.609   7.199   5.497
 4650TIP3   OH213892   8.242   4.692   1.805
 4650TIP3    H113893   8.156   4.690   1.763
 4650TIP3    H213894   8.225   4.729   1.892
 4651TIP3   OH213895   4.075   0.071   0.912
 4651TIP3    H113896   4.007   0.027   0.859
 4651TIP3    H213897   4.094   0.151   0.863
 4652TIP3   OH213898   2.158   6.624   0.935
 4652TIP3    H113899   2.184   6.535   0.910
 4652TIP3    H213900   2.134   6.666   0.852
 4653TIP3   OH213901   7.508   7.559   0.990
 4653TIP3    H113902   7.536   7.640   0.946
 4653TIP3    H213903   7.554   7.489   0.944
 4654TIP3   OH213904   1.218   0.673   5.453
 4654TIP3    H113905   1.198   0.583   5.426
 4654TIP3    H213906   1.276   0.706   5.384
 4655TIP3   OH213907   5.014   7.581   1.377
 4655TIP3    H113908   5.069   7.506   1.352
 4655TIP3    H213909   5.070   7.657   1.365
 4656TIP3   OH213910   4.710   2.712   5.210
 4656TIP3    H113911   4.760   2.716   5.292
 4656TIP3    H213912   4.711   2.802   5.177
 4657TIP3   OH213913   0.952   4.150   4.928
 4657TIP3    H113914   0.857   4.138   4.932
 4657TIP3    H213915   0.965   4.244   4.936
 4658TIP3   OH213916   5.416   4.265   2.635
 4658TIP3    H113917   5.493   4.208   2.633
 4658TIP3    H213918   5.452   4.354   2.632
 4659TIP3   OH213919   3.351   7.751   5.538
 4659TIP3    H113920   3.270   7.706   5.513
 4659TIP3    H213921   3.342   7.839   5.501
 4660TIP3   OH213922   1.821   3.319   0.828
 4660TIP3    H113923   1.911   3.341   0.805
 4660TIP3    H213924   1.827   3.278   0.914
 4661TIP3   OH213925   2.948   4.141   2.058
 4661TIP3    H113926   3.031   4.112   2.096
 4661TIP3    H213927   2.881   4.091   2.106
 4662TIP3   OH213928   1.027   2.456   1.372
 4662TIP3    H113929   0.935   2.480   1.372
 4662TIP3    H213930   1.027   2.360   1.372
 4663TIP3   OH213931   0.247   3.873   1.852
 4663TIP3    H113932   0.186   3.924   1.906
 4663TIP3    H213933   0.230   3.782   1.877
 4664TIP3   OH213934   5.329   3.395   1.250
 4664TIP3    H113935   5.328   3.396   1.155
 4664TIP3    H213936   5.382   3.472   1.274
 4665TIP3   OH213937   2.546   4.103   2.282
 4665TIP3    H113938   2.618   4.068   2.231
 4665TIP3    H213939   2.500   4.026   2.315
 4666TIP3   OH213940   0.722   7.439   3.060
 4666TIP3    H113941   0.809   7.469   3.035
 4666TIP3    H213942   0.724   7.436   3.156
 4667TIP3   OH213943   0.787   7.479   3.572
 4667TIP3    H113944   0.863   7.460   3.628
 4667TIP3    H213945   0.713   7.447   3.623
 4668TIP3   OH213946   4.409   2.999   2.196
 4668TIP3    H113947   4.453   3.059   2.256
 4668TIP3    H213948   4.425   3.036   2.109
 4669TIP3   OH213949   3.694   5.868   6.164
 4669TIP3    H113950   3.732   5.871   6.077
 4669TIP3    H213951   3.768   5.848   6.222
 4670TIP3   OH213952   2.613   1.985   1.204
 4670TIP3    H113953   2.698   2.027   1.220
 4670TIP3    H213954   2.614   1.908   1.261
 4671TIP3   OH213955   2.417   3.131   3.934
 4671TIP3    H113956   2.334   3.084   3.936
 4671TIP3    H213957   2.402   3.204   3.874
 4672TIP3   OH213958   0.578   5.955   3.947
 4672TIP3    H113959   0.655   5.921   3.992
 4672TIP3    H213960   0.578   5.910   3.862
 4673TIP3   OH213961   5.038   2.081   4.401
 4673TIP3    H113962   4.999   1.994   4.413
 4673TIP3    H213963   4.976   2.128   4.346
 4674TIP3   OH213964   5.410   2.534   1.519
 4674TIP3    H113965   5.467   2.550   1.594
 4674TIP3    H213966   5.376   2.621   1.497
 4675TIP3   OH213967   1.364   2.702   6.244
 4675TIP3    H113968   1.413   2.770   6.290
 4675TIP3    H213969   1.425   2.629   6.237
 4676TIP3   OH213970   5.805   7.376   3.897
 4676TIP3    H113971   5.786   7.374   3.803
 4676TIP3    H213972   5.720   7.357   3.938
 4677TIP3   OH213973   2.806   1.182   3.079
 4677TIP3    H113974   2.840   1.188   2.990
 4677TIP3    H213975   2.819   1.270   3.115
 4678TIP3   OH213976   1.096   4.051   4.278
 4678TIP3    H113977   1.096   4.050   4.183
 4678TIP3    H213978   1.081   4.142   4.302
 4679TIP3   OH213979   0.920   6.416   6.464
 4679TIP3    H113980   0.963   6.488   6.511
 4679TIP3    H213981   0.960   6.417   6.377
 4680TIP3   OH213982   7.646   2.337   3.278
 4680TIP3    H113983   7.676   2.382   3.357
 4680TIP3    H213984   7.716   2.276   3.257
 4681TIP3   OH213985   5.169   2.488   6.447
 4681TIP3    H113986   5.213   2.423   6.501
 4681TIP3    H213987   5.140   2.440   6.370
 4682TIP3   OH213988   2.670   1.113   6.678
 4682TIP3    H113989   2.684   1.022   6.705
 4682TIP3    H213990   2.701   1.165   6.752
 4683TIP3   OH213991   2.719   5.516   1.864
 4683TIP3    H113992   2.705   5.529   1.958
 4683TIP3    H213993   2.684   5.596   1.824
 4684TIP3   OH213994   3.407   4.051   5.067
 4684TIP3    H113995   3.352   4.106   5.123
 4684TIP3    H213996   3.480   4.025   5.124
 4685TIP3   OH213997   4.928   7.594   6.403
 4685TIP3    H113998   4.923   7.575   6.309
 4685TIP3    H213999   4.845   7.563   6.438
 4686TIP3   OH214000   5.485   0.439   3.871
 4686TIP3    H114001   5.536   0.385   3.931
 4686TIP3    H214002   5.395   0.410   3.883
 4687TIP3   OH214003   0.460   2.021   0.513
 4687TIP3    H114004   0.403   1.978   0.576
 4687TIP3    H214005   0.476   2.108   0.550
 4688TIP3   OH214006   8.200   2.574   0.611
 4688TIP3    H114007   8.200   2.519   0.690
 4688TIP3    H214008   8.292   2.590   0.592
 4689TIP3   OH214009   1.543   0.961   1.005
 4689TIP3    H114010   1.522   0.892   1.067
 4689TIP3    H214011   1.634   0.943   0.979
 4690TIP3   OH214012   0.856   7.363   6.357
 4690TIP3    H114013   0.851   7.407   6.441
 4690TIP3    H214014   0.783   7.399   6.306
 4691TIP3   OH214015   4.498   1.567   1.932
 4691TIP3    H114016   4.414   1.566   1.978
 4691TIP3    H214017   4.484   1.622   1.855
 4692TIP3   OH214018   3.401   2.894   3.875
 4692TIP3    H114019   3.449   2.895   3.792
 4692TIP3    H214020   3.328   2.954   3.861
 4693TIP3   OH214021   2.198   1.124   5.050
 4693TIP3    H114022   2.160   1.042   5.019
 4693TIP3    H214023   2.168   1.190   4.987
 4694TIP3   OH214024   8.090   5.566   0.996
 4694TIP3    H114025   8.165   5.613   1.034
 4694TIP3    H214026   8.128   5.487   0.957
 4695TIP3   OH214027   0.427   1.701   0.864
 4695TIP3    H114028   0.487   1.630   0.886
 4695TIP3    H214029   0.483   1.778   0.851
 4696TIP3   OH214030   4.456   5.084   0.597
 4696TIP3    H114031   4.437   5.139   0.673
 4696TIP3    H214032   4.465   5.145   0.525
 4697TIP3   OH214033   7.962   2.526   2.281
 4697TIP3    H114034   7.933   2.438   2.303
 4697TIP3    H214035   7.920   2.582   2.347
 4698TIP3   OH214036   7.186   5.045   2.501
 4698TIP3    H114037   7.244   4.972   2.524
 4698TIP3    H214038   7.174   5.038   2.407
 4699TIP3   OH214039   0.267   4.667   5.730
 4699TIP3    H114040   0.258   4.657   5.825
 4699TIP3    H214041   0.177   4.681   5.699
 4700TIP3   OH214042   7.264   3.529   1.557
 4700TIP3    H114043   7.223   3.444   1.539
 4700TIP3    H214044   7.319   3.546   1.481
 4701TIP3   OH214045   5.914   1.883   0.610
 4701TIP3    H114046   5.965   1.959   0.637
 4701TIP3    H214047   5.877   1.849   0.692
 4702TIP3   OH214048   1.410   1.121   3.552
 4702TIP3    H114049   1.451   1.198   3.512
 4702TIP3    H214050   1.354   1.157   3.621
 4703TIP3   OH214051   5.827   7.383   2.819
 4703TIP3    H114052   5.871   7.424   2.744
 4703TIP3    H214053   5.779   7.454   2.860
 4704TIP3   OH214054   1.592   4.771   1.436
 4704TIP3    H114055   1.650   4.795   1.364
 4704TIP3    H214056   1.558   4.685   1.411
 4705TIP3   OH214057   8.207   2.492   3.851
 4705TIP3    H114058   8.303   2.493   3.843
 4705TIP3    H214059   8.185   2.399   3.852
 4706TIP3   OH214060   0.092   1.520   3.174
 4706TIP3    H114061   0.085   1.551   3.084
 4706TIP3    H214062   0.061   1.593   3.227
 4707TIP3   OH214063   7.913   4.682   0.177
 4707TIP3    H114064   7.872   4.765   0.152
 4707TIP3    H214065   7.840   4.628   0.207
 4708TIP3   OH214066   7.563   2.790   0.566
 4708TIP3    H114067   7.582   2.698   0.549
 4708TIP3    H214068   7.647   2.835   0.555
 4709TIP3   OH214069   3.457   6.305   2.339
 4709TIP3    H114070   3.551   6.323   2.337
 4709TIP3    H214071   3.436   6.280   2.249
 4710TIP3   OH214072   4.214   7.403   5.278
 4710TIP3    H114073   4.155   7.474   5.252
 4710TIP3    H214074   4.156   7.338   5.319
 4711TIP3   OH214075   4.240   0.652   0.232
 4711TIP3    H114076   4.282   0.579   0.187
 4711TIP3    H214077   4.287   0.660   0.315
 4712TIP3   OH214078   5.030   6.665   1.828
 4712TIP3    H114079   4.972   6.589   1.836
 4712TIP3    H214080   5.117   6.627   1.811
 4713TIP3   OH214081   6.428   0.905   0.292
 4713TIP3    H114082   6.466   0.950   0.368
 4713TIP3    H214083   6.502   0.860   0.251
 4714TIP3   OH214084   2.701   6.866   2.639
 4714TIP3    H114085   2.795   6.852   2.634
 4714TIP3    H214086   2.665   6.781   2.662
 4715TIP3   OH214087   5.331   6.819   5.207
 4715TIP3    H114088   5.306   6.885   5.142
 4715TIP3    H214089   5.410   6.855   5.249
 4716TIP3   OH214090   5.444   4.874   6.704
 4716TIP3    H114091   5.408   4.786   6.690
 4716TIP3    H214092   5.369   4.933   6.695
 4717TIP3   OH214093   6.131   7.332   2.784
 4717TIP3    H114094   6.040   7.316   2.808
 4717TIP3    H214095   6.143   7.283   2.702
 4718TIP3   OH214096   0.068   4.028   1.611
 4718TIP3    H114097   0.159   4.003   1.628
 4718TIP3    H214098   0.045   4.087   1.683
 4719TIP3   OH214099   3.545   0.956   5.836
 4719TIP3    H114100   3.483   0.898   5.791
 4719TIP3    H214101   3.629   0.911   5.827
 4720TIP3   OH214102   4.017   2.201   4.276
 4720TIP3    H114103   3.939   2.158   4.240
 4720TIP3    H214104   4.087   2.179   4.215
 4721TIP3   OH214105   3.298   0.917   6.807
 4721TIP3    H114106   3.210   0.898   6.777
 4721TIP3    H214107   3.344   0.833   6.802
 4722TIP3   OH214108   7.067   0.112   1.643
 4722TIP3    H114109   6.979   0.076   1.655
 4722TIP3    H214110   7.054   0.207   1.648
 4723TIP3   OH214111   4.584   1.261   4.382
 4723TIP3    H114112   4.502   1.259   4.431
 4723TIP3    H214113   4.560   1.232   4.294
 4724TIP3   OH214114   3.419   4.686   5.012
 4724TIP3    H114115   3.474   4.612   4.990
 4724TIP3    H214116   3.478   4.749   5.053
 4725TIP3   OH214117   7.609   6.008   2.035
 4725TIP3    H114118   7.552   5.967   2.101
 4725TIP3    H214119   7.655   5.934   1.995
 4726TIP3   OH214120   6.799   0.651   1.359
 4726TIP3    H114121   6.738   0.709   1.314
 4726TIP3    H214122   6.840   0.706   1.426
 4727TIP3   OH214123   0.196   3.227   1.534
 4727TIP3    H114124   0.186   3.182   1.451
 4727TIP3    H214125   0.113   3.211   1.580
 4728TIP3   OH214126   2.865   4.737   2.671
 4728TIP3    H114127   2.894   4.828   2.670
 4728TIP3    H214128   2.942   4.687   2.697
 4729TIP3   OH214129   0.373   2.903   6.745
 4729TIP3    H114130   0.366   2.822   6.796
 4729TIP3    H214131   0.407   2.876   6.660
 4730TIP3   OH214132   6.011   2.487   4.471
 4730TIP3    H114133   6.056   2.526   4.546
 4730TIP3    H214134   5.984   2.400   4.501
 4731TIP3   OH214135   6.117   7.603   3.165
 4731TIP3    H114136   6.201   7.620   3.122
 4731TIP3    H214137   6.112   7.508   3.171
 4732TIP3   OH214138   7.401   6.339   3.244
 4732TIP3    H114139   7.375   6.402   3.311
 4732TIP3    H214140   7.438   6.266   3.292
 4733TIP3   OH214141   0.449   5.532   1.262
 4733TIP3    H114142   0.530   5.584   1.258
 4733TIP3    H214143   0.380   5.597   1.279
 4734TIP3   OH214144   5.532   3.777   5.335
 4734TIP3    H114145   5.581   3.806   5.258
 4734TIP3    H214146   5.510   3.857   5.381
 4735TIP3   OH214147   7.827   5.954   0.341
 4735TIP3    H114148   7.855   6.032   0.294
 4735TIP3    H214149   7.762   5.986   0.403
 4736TIP3   OH214150   7.984   5.981   0.081
 4736TIP3    H114151   8.065   5.938   0.055
 4736TIP3    H214152   7.981   5.971   0.176
 4737TIP3   OH214153   7.909   6.196   6.220
 4737TIP3    H114154   7.849   6.170   6.290
 4737TIP3    H214155   7.865   6.169   6.140
 4738TIP3   OH214156   5.991   5.570   6.542
 4738TIP3    H114157   5.911   5.521   6.557
 4738TIP3    H214158   5.991   5.638   6.609
 4739TIP3   OH214159   5.567   5.662   3.179
 4739TIP3    H114160   5.505   5.729   3.208
 4739TIP3    H214161   5.592   5.689   3.091
 4740TIP3   OH214162   7.575   7.100   0.899
 4740TIP3    H114163   7.545   7.076   0.987
 4740TIP3    H214164   7.599   7.017   0.858
 4741TIP3   OH214165   3.655   0.652   3.884
 4741TIP3    H114166   3.635   0.620   3.796
 4741TIP3    H214167   3.590   0.721   3.899
 4742TIP3   OH214168   5.285   6.196   5.051
 4742TIP3    H114169   5.205   6.223   5.097
 4742TIP3    H214170   5.327   6.279   5.027
 4743TIP3   OH214171   2.008   6.783   6.511
 4743TIP3    H114172   2.086   6.839   6.500
 4743TIP3    H214173   1.956   6.828   6.578
 4744TIP3   OH214174   6.103   7.120   2.589
 4744TIP3    H114175   6.082   7.052   2.652
 4744TIP3    H214176   6.157   7.077   2.523
 4745TIP3   OH214177   4.040   5.652   6.342
 4745TIP3    H114178   3.953   5.634   6.378
 4745TIP3    H214179   4.029   5.643   6.248
 4746TIP3   OH214180   8.254   6.517   1.086
 4746TIP3    H114181   8.164   6.547   1.095
 4746TIP3    H214182   8.265   6.452   1.156
 4747TIP3   OH214183   4.651   1.897   2.655
 4747TIP3    H114184   4.646   1.974   2.710
 4747TIP3    H214185   4.669   1.931   2.567
 4748TIP3   OH214186   3.120   4.049   0.724
 4748TIP3    H114187   3.051   4.000   0.680
 4748TIP3    H214188   3.167   3.983   0.776
 4749TIP3   OH214189   3.614   3.934   5.996
 4749TIP3    H114190   3.691   3.907   6.046
 4749TIP3    H214191   3.581   4.012   6.043
 4750TIP3   OH214192   7.203   5.314   3.229
 4750TIP3    H114193   7.204   5.360   3.313
 4750TIP3    H214194   7.154   5.371   3.170
 4751TIP3   OH214195   0.390   5.636   6.258
 4751TIP3    H114196   0.459   5.615   6.196
 4751TIP3    H214197   0.436   5.661   6.338
 4752TIP3   OH214198   3.513   4.962   1.281
 4752TIP3    H114199   3.497   4.881   1.329
 4752TIP3    H214200   3.543   4.933   1.195
 4753TIP3   OH214201   3.306   2.631   3.958
 4753TIP3    H114202   3.380   2.612   4.015
 4753TIP3    H214203   3.325   2.718   3.922
 4754TIP3   OH214204   6.561   4.324   2.108
 4754TIP3    H114205   6.618   4.391   2.069
 4754TIP3    H214206   6.598   4.241   2.078
 4755TIP3   OH214207   0.744   0.627   2.801
 4755TIP3    H114208   0.657   0.599   2.771
 4755TIP3    H214209   0.786   0.546   2.830
 4756TIP3   OH214210   7.917   4.985   0.362
 4756TIP3    H114211   7.949   4.942   0.442
 4756TIP3    H214212   7.991   5.038   0.333
 4757TIP3   OH214213   1.403   7.527   1.083
 4757TIP3    H114214   1.377   7.482   1.003
 4757TIP3    H214215   1.459   7.464   1.129
 4758TIP3   OH214216   2.793   3.649   5.938
 4758TIP3    H114217   2.837   3.577   5.984
 4758TIP3    H214218   2.862   3.714   5.923
 4759TIP3   OH214219   5.207   5.609   2.230
 4759TIP3    H114220   5.159   5.675   2.180
 4759TIP3    H214221   5.227   5.541   2.165
 4760TIP3   OH214222   7.138   7.532   2.920
 4760TIP3    H114223   7.095   7.458   2.878
 4760TIP3    H214224   7.069   7.598   2.928
 4761TIP3   OH214225   5.476   6.147   6.605
 4761TIP3    H114226   5.525   6.085   6.551
 4761TIP3    H214227   5.441   6.094   6.677
 4762TIP3   OH214228   7.893   6.813   4.500
 4762TIP3    H114229   7.986   6.839   4.502
 4762TIP3    H214230   7.892   6.722   4.529
 4763TIP3   OH214231   5.004   6.528   1.271
 4763TIP3    H114232   5.019   6.553   1.363
 4763TIP3    H214233   4.910   6.517   1.264
 4764TIP3   OH214234   4.849   0.373   4.702
 4764TIP3    H114235   4.791   0.412   4.768
 4764TIP3    H214236   4.797   0.302   4.663
 4765TIP3   OH214237   1.490   6.947   2.451
 4765TIP3    H114238   1.408   6.994   2.466
 4765TIP3    H214239   1.513   6.967   2.360
 4766TIP3   OH214240   0.276   7.760   3.303
 4766TIP3    H114241   0.367   7.734   3.314
 4766TIP3    H214242   0.247   7.714   3.225
 4767TIP3   OH214243   6.528   6.721   3.799
 4767TIP3    H114244   6.510   6.734   3.892
 4767TIP3    H214245   6.523   6.626   3.787
 4768TIP3   OH214246   6.929   6.643   1.076
 4768TIP3    H114247   6.872   6.586   1.025
 4768TIP3    H214248   6.941   6.597   1.159
 4769TIP3   OH214249   4.180   0.044   1.402
 4769TIP3    H114250   4.272   0.050   1.429
 4769TIP3    H214251   4.148   0.134   1.407
 4770TIP3   OH214252   5.647   1.200   6.614
 4770TIP3    H114253   5.725   1.238   6.574
 4770TIP3    H214254   5.669   1.108   6.627
 4771TIP3   OH214255   6.347   0.487   4.819
 4771TIP3    H114256   6.375   0.578   4.813
 4771TIP3    H214257   6.413   0.437   4.771
 4772TIP3   OH214258   1.826   0.579   3.981
 4772TIP3    H114259   1.917   0.570   3.953
 4772TIP3    H214260   1.786   0.494   3.963
 4773TIP3   OH214261   2.906   2.303   3.202
 4773TIP3    H114262   2.820   2.338   3.177
 4773TIP3    H214263   2.926   2.238   3.135
 4774TIP3   OH214264   3.641   2.661   5.378
 4774TIP3    H114265   3.674   2.715   5.306
 4774TIP3    H214266   3.629   2.574   5.340
 4775TIP3   OH214267   1.906   4.106   2.407
 4775TIP3    H114268   1.847   4.037   2.437
 4775TIP3    H214269   1.910   4.095   2.312
 4776TIP3   OH214270   1.576   0.143   0.616
 4776TIP3    H114271   1.629   0.098   0.682
 4776TIP3    H214272   1.602   0.102   0.533
 4777TIP3   OH214273   4.339   6.514   2.275
 4777TIP3    H114274   4.283   6.458   2.328
 4777TIP3    H214275   4.278   6.565   2.221
 4778TIP3   OH214276   6.954   1.001   2.875
 4778TIP3    H114277   6.879   1.007   2.934
 4778TIP3    H214278   7.015   0.942   2.920
 4779TIP3   OH214279   7.352   1.598   3.308
 4779TIP3    H114280   7.435   1.644   3.316
 4779TIP3    H214281   7.369   1.529   3.243
 4780TIP3   OH214282   0.523   1.712   2.358
 4780TIP3    H114283   0.553   1.658   2.431
 4780TIP3    H214284   0.599   1.764   2.334
 4781TIP3   OH214285   5.129   3.793   4.740
 4781TIP3    H114286   5.053   3.776   4.685
 4781TIP3    H214287   5.171   3.708   4.751
 4782TIP3   OH214288   2.084   0.989   3.627
 4782TIP3    H114289   2.000   0.998   3.673
 4782TIP3    H214290   2.150   0.995   3.696
 4783TIP3   OH214291   5.090   6.474   5.465
 4783TIP3    H114292   5.014   6.421   5.442
 4783TIP3    H214293   5.095   6.468   5.561
 4784TIP3   OH214294   5.570   1.665   4.394
 4784TIP3    H114295   5.544   1.603   4.325
 4784TIP3    H214296   5.660   1.640   4.416
 4785TIP3   OH214297   1.688   2.963   0.142
 4785TIP3    H114298   1.666   2.871   0.160
 4785TIP3    H214299   1.742   2.960   0.064
 4786TIP3   OH214300   4.655   0.949   6.006
 4786TIP3    H114301   4.588   0.895   6.047
 4786TIP3    H214302   4.737   0.917   6.044
 4787TIP3   OH214303   2.963   4.521   4.858
 4787TIP3    H114304   3.022   4.586   4.897
 4787TIP3    H214305   2.922   4.567   4.785
 4788TIP3   OH214306   5.483   5.363   6.421
 4788TIP3    H114307   5.552   5.352   6.356
 4788TIP3    H214308   5.490   5.284   6.476
 4789TIP3   OH214309   4.654   5.930   2.760
 4789TIP3    H114310   4.672   5.939   2.854
 4789TIP3    H214311   4.739   5.910   2.722
 4790TIP3   OH214312   2.957   6.923   1.871
 4790TIP3    H114313   3.014   6.938   1.947
 4790TIP3    H214314   2.904   6.847   1.895
 4791TIP3   OH214315   2.624   4.695   2.556
 4791TIP3    H114316   2.628   4.677   2.462
 4791TIP3    H214317   2.715   4.700   2.583
 4792TIP3   OH214318   6.237   0.534   5.916
 4792TIP3    H114319   6.195   0.487   5.988
 4792TIP3    H214320   6.308   0.477   5.888
 4793TIP3   OH214321   5.116   5.959   2.072
 4793TIP3    H114322   5.197   5.935   2.027
 4793TIP3    H214323   5.068   5.877   2.081
 4794TIP3   OH214324   7.949   2.432   2.619
 4794TIP3    H114325   7.880   2.478   2.571
 4794TIP3    H214326   7.915   2.426   2.708
 4795TIP3   OH214327   2.354   3.276   5.515
 4795TIP3    H114328   2.288   3.287   5.584
 4795TIP3    H214329   2.394   3.191   5.535
 4796TIP3   OH214330   7.163   5.326   5.313
 4796TIP3    H114331   7.111   5.288   5.384
 4796TIP3    H214332   7.158   5.421   5.328
 4797TIP3   OH214333   0.772   1.361   4.751
 4797TIP3    H114334   0.764   1.372   4.846
 4797TIP3    H214335   0.847   1.415   4.727
 4798TIP3   OH214336   7.451   6.287   6.222
 4798TIP3    H114337   7.462   6.316   6.312
 4798TIP3    H214338   7.364   6.318   6.197
 4799TIP3   OH214339   5.641   7.225   6.366
 4799TIP3    H114340   5.627   7.140   6.323
 4799TIP3    H214341   5.570   7.231   6.430
 4800TIP3   OH214342   6.589   2.568   1.334
 4800TIP3    H114343   6.508   2.618   1.343
 4800TIP3    H214344   6.658   2.629   1.359
 4801TIP3   OH214345   7.590   0.028   3.262
 4801TIP3    H114346   7.608   0.065   3.176
 4801TIP3    H214347   7.545   0.098   3.310
 4802TIP3   OH214348   0.908   6.790   4.841
 4802TIP3    H114349   0.873   6.797   4.929
 4802TIP3    H214350   0.837   6.750   4.790
 4803TIP3   OH214351   6.648   2.441   1.965
 4803TIP3    H114352   6.622   2.473   2.051
 4803TIP3    H214353   6.739   2.469   1.955
 4804TIP3   OH214354   8.069   5.899   1.451
 4804TIP3    H114355   8.009   5.827   1.429
 4804TIP3    H214356   8.104   5.876   1.537
 4805TIP3   OH214357   6.801   1.330   4.537
 4805TIP3    H114358   6.872   1.375   4.491
 4805TIP3    H214359   6.742   1.300   4.467
 4806TIP3   OH214360   6.103   0.278   0.569
 4806TIP3    H114361   6.082   0.243   0.656
 4806TIP3    H214362   6.197   0.266   0.561
 4807TIP3   OH214363   4.327   3.911   4.282
 4807TIP3    H114364   4.259   3.947   4.340
 4807TIP3    H214365   4.279   3.852   4.223
 4808TIP3   OH214366   4.973   0.699   2.025
 4808TIP3    H114367   4.997   0.782   2.067
 4808TIP3    H214368   5.036   0.689   1.954
 4809TIP3   OH214369   1.773   0.359   2.881
 4809TIP3    H114370   1.789   0.305   2.803
 4809TIP3    H214371   1.679   0.373   2.882
 4810TIP3   OH214372   0.526   3.949   5.090
 4810TIP3    H114373   0.602   3.896   5.112
 4810TIP3    H214374   0.460   3.924   5.155
 4811TIP3   OH214375  -0.031   4.580   4.361
 4811TIP3    H114376  -0.006   4.494   4.396
 4811TIP3    H214377   0.052   4.624   4.344
 4812TIP3   OH214378   1.715   2.336   2.933
 4812TIP3    H114379   1.764   2.325   2.852
 4812TIP3    H214380   1.783   2.346   3.000
 4813TIP3   OH214381   6.905   5.449   3.881
 4813TIP3    H114382   6.903   5.363   3.839
 4813TIP3    H214383   6.973   5.442   3.947
 4814TIP3   OH214384   1.058   0.993   4.209
 4814TIP3    H114385   1.090   1.029   4.126
 4814TIP3    H214386   0.969   1.027   4.216
 4815TIP3   OH214387   3.827   6.937   5.613
 4815TIP3    H114388   3.780   6.859   5.584
 4815TIP3    H214389   3.883   6.907   5.685
 4816TIP3   OH214390   3.732   4.787   5.812
 4816TIP3    H114391   3.683   4.764   5.733
 4816TIP3    H214392   3.785   4.862   5.786
 4817TIP3   OH214393   4.676   7.735   0.094
 4817TIP3    H114394   4.760   7.689   0.093
 4817TIP3    H214395   4.621   7.685   0.034
 4818TIP3   OH214396   5.945   6.143   0.705
 4818TIP3    H114397   5.878   6.150   0.773
 4818TIP3    H214398   5.970   6.051   0.704
 4819TIP3   OH214399   3.286   1.112   3.291
 4819TIP3    H114400   3.361   1.095   3.348
 4819TIP3    H214401   3.310   1.190   3.241
 4820TIP3   OH214402   3.048   1.526   2.323
 4820TIP3    H114403   2.972   1.550   2.375
 4820TIP3    H214404   3.104   1.476   2.383
 4821TIP3   OH214405   1.809   0.995   1.240
 4821TIP3    H114406   1.754   1.063   1.278
 4821TIP3    H214407   1.889   1.041   1.214
 4822TIP3   OH214408   7.132   5.847   2.484
 4822TIP3    H114409   7.138   5.906   2.559
 4822TIP3    H214410   7.180   5.892   2.414
 4823TIP3   OH214411   3.223   0.460   1.868
 4823TIP3    H114412   3.210   0.486   1.777
 4823TIP3    H214413   3.313   0.484   1.887
 4824TIP3   OH214414   8.339   7.546   3.418
 4824TIP3    H114415   8.392   7.600   3.359
 4824TIP3    H214416   8.273   7.507   3.361
 4825TIP3   OH214417   3.912   4.602   0.945
 4825TIP3    H114418   3.985   4.578   0.888
 4825TIP3    H214419   3.935   4.569   1.031
 4826TIP3   OH214420   2.820   7.445   0.840
 4826TIP3    H114421   2.884   7.432   0.770
 4826TIP3    H214422   2.828   7.538   0.862
 4827TIP3   OH214423   5.455   0.517   5.477
 4827TIP3    H114424   5.516   0.510   5.550
 4827TIP3    H214425   5.506   0.490   5.401
 4828TIP3   OH214426   7.654   2.201   4.292
 4828TIP3    H114427   7.574   2.208   4.343
 4828TIP3    H214428   7.703   2.129   4.333
 4829TIP3   OH214429   5.029   6.589   0.424
 4829TIP3    H114430   4.972   6.522   0.460
 4829TIP3    H214431   5.055   6.555   0.338
 4830TIP3   OH214432   0.088   3.594   3.228
 4830TIP3    H114433   0.118   3.506   3.251
 4830TIP3    H214434   0.062   3.634   3.311
 4831TIP3   OH214435   1.075   7.433   6.199
 4831TIP3    H114436   1.048   7.513   6.243
 4831TIP3    H214437   1.024   7.364   6.242
 4832TIP3   OH214438   5.167   6.170   3.990
 4832TIP3    H114439   5.243   6.196   4.042
 4832TIP3    H214440   5.175   6.075   3.983
 4833TIP3   OH214441   3.706   0.769   2.099
 4833TIP3    H114442   3.745   0.798   2.182
 4833TIP3    H214443   3.782   0.744   2.046
 4834TIP3   OH214444   5.846   3.712   0.688
 4834TIP3    H114445   5.927   3.660   0.688
 4834TIP3    H214446   5.843   3.751   0.775
 4835TIP3   OH214447   5.130   1.362   0.069
 4835TIP3    H114448   5.109   1.269   0.075
 4835TIP3    H214449   5.066   1.397   0.007
 4836TIP3   OH214450   4.034   2.737   0.238
 4836TIP3    H114451   4.104   2.755   0.300
 4836TIP3    H214452   3.958   2.782   0.274
 4837TIP3   OH214453   2.136   3.148   1.528
 4837TIP3    H114454   2.199   3.090   1.486
 4837TIP3    H214455   2.164   3.153   1.619
 4838TIP3   OH214456   6.810   2.929   6.593
 4838TIP3    H114457   6.719   2.935   6.565
 4838TIP3    H214458   6.841   3.020   6.595
 4839TIP3   OH214459   6.302   7.778   2.072
 4839TIP3    H114460   6.381   7.789   2.019
 4839TIP3    H214461   6.232   7.768   2.008
 4840TIP3   OH214462   7.269   2.768   2.968
 4840TIP3    H114463   7.250   2.812   2.886
 4840TIP3    H214464   7.364   2.763   2.973
 4841TIP3   OH214465   1.028   2.040   5.088
 4841TIP3    H114466   1.090   2.063   5.158
 4841TIP3    H214467   1.065   1.961   5.049
 4842TIP3   OH214468   1.554   1.617   2.322
 4842TIP3    H114469   1.638   1.579   2.348
 4842TIP3    H214470   1.517   1.554   2.260
 4843TIP3   OH214471   3.007   2.101   2.272
 4843TIP3    H114472   2.916   2.106   2.241
 4843TIP3    H214473   3.019   2.182   2.322
 4844TIP3   OH214474   5.544   5.489   1.923
 4844TIP3    H114475   5.575   5.469   1.835
 4844TIP3    H214476   5.622   5.518   1.970
 4845TIP3   OH214477   4.653   2.535   1.706
 4845TIP3    H114478   4.725   2.594   1.729
 4845TIP3    H214479   4.684   2.488   1.628
 4846TIP3   OH214480   2.015   6.460   3.122
 4846TIP3    H114481   1.928   6.421   3.115
 4846TIP3    H214482   2.055   6.445   3.036
 4847TIP3   OH214483   4.777   0.631   6.665
 4847TIP3    H114484   4.769   0.591   6.578
 4847TIP3    H214485   4.871   0.640   6.678
 4848TIP3   OH214486   3.356   6.770   1.897
 4848TIP3    H114487   3.355   6.810   1.810
 4848TIP3    H214488   3.329   6.840   1.956
 4849TIP3   OH214489   1.086   2.699   4.363
 4849TIP3    H114490   1.136   2.677   4.284
 4849TIP3    H214491   1.049   2.615   4.392
 4850TIP3   OH214492   3.783   2.573   0.739
 4850TIP3    H114493   3.853   2.628   0.704
 4850TIP3    H214494   3.710   2.634   0.755
 4851TIP3   OH214495   7.195   6.413   6.115
 4851TIP3    H114496   7.255   6.480   6.082
 4851TIP3    H214497   7.138   6.394   6.041
 4852TIP3   OH214498   6.482   3.007   4.760
 4852TIP3    H114499   6.517   2.984   4.846
 4852TIP3    H214500   6.416   2.941   4.741
 4853TIP3   OH214501   2.766   4.965   1.641
 4853TIP3    H114502   2.751   5.055   1.610
 4853TIP3    H214503   2.861   4.953   1.633
 4854TIP3   OH214504   3.615   7.621   2.101
 4854TIP3    H114505   3.640   7.573   2.180
 4854TIP3    H214506   3.605   7.711   2.130
 4855TIP3   OH214507   5.698   4.997   6.624
 4855TIP3    H114508   5.615   4.956   6.602
 4855TIP3    H214509   5.762   4.926   6.618
 4856TIP3   OH214510   0.819   5.369   5.266
 4856TIP3    H114511   0.862   5.452   5.288
 4856TIP3    H214512   0.786   5.382   5.177
 4857TIP3   OH214513   7.174   5.986   1.720
 4857TIP3    H114514   7.212   6.073   1.705
 4857TIP3    H214515   7.185   5.940   1.637
 4858TIP3   OH214516   0.307   3.867   0.250
 4858TIP3    H114517   0.232   3.808   0.259
 4858TIP3    H214518   0.337   3.880   0.340
 4859TIP3   OH214519   2.061   0.925   4.885
 4859TIP3    H114520   2.044   0.831   4.886
 4859TIP3    H214521   2.000   0.959   4.820
 4860TIP3   OH214522   2.136   5.858   0.204
 4860TIP3    H114523   2.106   5.925   0.142
 4860TIP3    H214524   2.096   5.883   0.287
 4861TIP3   OH214525   7.374   0.508   2.549
 4861TIP3    H114526   7.351   0.582   2.605
 4861TIP3    H214527   7.422   0.546   2.476
 4862TIP3   OH214528   1.348   3.071   5.140
 4862TIP3    H114529   1.442   3.085   5.149
 4862TIP3    H214530   1.336   3.047   5.048
 4863TIP3   OH214531   3.976   2.725   6.329
 4863TIP3    H114532   3.893   2.762   6.299
 4863TIP3    H214533   4.037   2.739   6.256
 4864TIP3   OH214534   4.392   7.814   3.558
 4864TIP3    H114535   4.439   7.807   3.475
 4864TIP3    H214536   4.358   7.726   3.574
 4865TIP3   OH214537   5.729   3.465   5.754
 4865TIP3    H114538   5.801   3.402   5.765
 4865TIP3    H214539   5.663   3.417   5.705
 4866TIP3   OH214540   4.684   2.319   5.873
 4866TIP3    H114541   4.750   2.336   5.805
 4866TIP3    H214542   4.668   2.225   5.866
 4867TIP3   OH214543  -0.006   4.365   4.895
 4867TIP3    H114544  -0.032   4.385   4.985
 4867TIP3    H214545   0.012   4.271   4.895
 4868TIP3   OH214546   5.480   0.255   3.318
 4868TIP3    H114547   5.508   0.261   3.227
 4868TIP3    H214548   5.549   0.207   3.363
 4869TIP3   OH214549   5.251   7.568   4.651
 4869TIP3    H114550   5.181   7.512   4.685
 4869TIP3    H214551   5.246   7.557   4.556
 4870TIP3   OH214552   2.208   3.692   0.417
 4870TIP3    H114553   2.128   3.720   0.463
 4870TIP3    H214554   2.215   3.599   0.437
 4871TIP3   OH214555   5.187   4.702   2.183
 4871TIP3    H114556   5.267   4.685   2.134
 4871TIP3    H214557   5.193   4.794   2.208
 4872TIP3   OH214558   4.281   2.662   1.449
 4872TIP3    H114559   4.337   2.690   1.522
 4872TIP3    H214560   4.267   2.742   1.399
 4873TIP3   OH214561   7.922   7.374   4.197
 4873TIP3    H114562   8.006   7.338   4.169
 4873TIP3    H214563   7.878   7.401   4.116
 4874TIP3   OH214564   8.291   3.870   2.465
 4874TIP3    H114565   8.252   3.941   2.414
 4874TIP3    H214566   8.218   3.810   2.482
 4875TIP3   OH214567   2.744   6.318   1.134
 4875TIP3    H114568   2.717   6.287   1.048
 4875TIP3    H214569   2.751   6.413   1.126
 4876TIP3   OH214570   2.082   4.022   6.518
 4876TIP3    H114571   2.057   4.091   6.457
 4876TIP3    H214572   2.167   3.990   6.485
 4877TIP3   OH214573   2.497   4.044   0.052
 4877TIP3    H114574   2.535   3.958   0.038
 4877TIP3    H214575   2.412   4.040   0.007
 4878TIP3   OH214576   3.716   6.686   2.267
 4878TIP3    H114577   3.764   6.608   2.242
 4878TIP3    H214578   3.630   6.675   2.227
 4879TIP3   OH214579   3.600   0.294   2.083
 4879TIP3    H114580   3.671   0.290   2.020
 4879TIP3    H214581   3.586   0.388   2.098
 4880TIP3   OH214582   0.777   7.725   6.631
 4880TIP3    H114583   0.683   7.704   6.633
 4880TIP3    H214584   0.807   7.708   6.720
 4881TIP3   OH214585   5.825   1.565   4.438
 4881TIP3    H114586   5.893   1.628   4.461
 4881TIP3    H214587   5.842   1.490   4.495
 4882TIP3   OH214588   1.790   3.387   4.040
 4882TIP3    H114589   1.727   3.347   4.100
 4882TIP3    H214590   1.752   3.375   3.953
 4883TIP3   OH214591   7.215   4.463   3.302
 4883TIP3    H114592   7.128   4.461   3.342
 4883TIP3    H214593   7.235   4.371   3.284
 4884TIP3   OH214594   6.534   5.618   2.769
 4884TIP3    H114595   6.548   5.695   2.713
 4884TIP3    H214596   6.541   5.652   2.858
 4885TIP3   OH214597   1.205   2.961   6.526
 4885TIP3    H114598   1.261   2.888   6.552
 4885TIP3    H214599   1.116   2.925   6.527
 4886TIP3   OH214600   2.109   3.425   1.907
 4886TIP3    H114601   2.113   3.340   1.951
 4886TIP3    H214602   2.168   3.416   1.831
 4887TIP3   OH214603   0.346   2.838   6.298
 4887TIP3    H114604   0.300   2.755   6.286
 4887TIP3    H214605   0.366   2.868   6.209
 4888TIP3   OH214606   3.508   0.019   1.014
 4888TIP3    H114607   3.567   0.049   1.083
 4888TIP3    H214608   3.424   0.007   1.058
 4889TIP3   OH214609   0.097   2.075   3.530
 4889TIP3    H114610   0.016   2.123   3.547
 4889TIP3    H214611   0.120   2.097   3.440
 4890TIP3   OH214612   6.881   3.411   5.445
 4890TIP3    H114613   6.884   3.334   5.389
 4890TIP3    H214614   6.958   3.462   5.421
 4891TIP3   OH214615   6.102   5.045   1.674
 4891TIP3    H114616   6.062   5.006   1.751
 4891TIP3    H214617   6.189   5.072   1.702
 4892TIP3   OH214618   4.119   2.646   3.103
 4892TIP3    H114619   4.068   2.674   3.179
 4892TIP3    H214620   4.210   2.665   3.127
 4893TIP3   OH214621   2.492   4.418   1.350
 4893TIP3    H114622   2.576   4.415   1.304
 4893TIP3    H214623   2.433   4.366   1.295
 4894TIP3   OH214624   2.598   2.617   4.599
 4894TIP3    H114625   2.533   2.671   4.554
 4894TIP3    H214626   2.552   2.536   4.620
 4895TIP3   OH214627   4.749   6.757   4.060
 4895TIP3    H114628   4.735   6.805   3.979
 4895TIP3    H214629   4.662   6.751   4.100
 4896TIP3   OH214630   2.733   5.910   1.895
 4896TIP3    H114631   2.786   5.832   1.880
 4896TIP3    H214632   2.791   5.968   1.944
 4897TIP3   OH214633   3.146   1.420   4.882
 4897TIP3    H114634   3.159   1.433   4.976
 4897TIP3    H214635   3.103   1.500   4.852
 4898TIP3   OH214636   3.811   7.775   4.196
 4898TIP3    H114637   3.846   7.708   4.138
 4898TIP3    H214638   3.795   7.850   4.139
 4899TIP3   OH214639   1.167   0.310   2.575
 4899TIP3    H114640   1.212   0.327   2.657
 4899TIP3    H214641   1.222   0.351   2.508
 4900TIP3   OH214642   2.093   6.343   1.102
 4900TIP3    H114643   2.009   6.368   1.062
 4900TIP3    H214644   2.156   6.352   1.031
 4901TIP3   OH214645   6.891   5.777   5.703
 4901TIP3    H114646   6.890   5.846   5.637
 4901TIP3    H214647   6.983   5.751   5.708
 4902TIP3   OH214648   3.863   5.194   2.145
 4902TIP3    H114649   3.945   5.229   2.111
 4902TIP3    H214650   3.851   5.111   2.100
 4903TIP3   OH214651   7.362   1.416   6.047
 4903TIP3    H114652   7.383   1.491   5.991
 4903TIP3    H214653   7.442   1.363   6.045
 4904TIP3   OH214654   1.438   0.745   4.602
 4904TIP3    H114655   1.515   0.693   4.577
 4904TIP3    H214656   1.470   0.801   4.673
 4905TIP3   OH214657   5.486   3.556   2.289
 4905TIP3    H114658   5.511   3.488   2.227
 4905TIP3    H214659   5.398   3.531   2.318
 4906TIP3   OH214660   0.533   0.340   5.179
 4906TIP3    H114661   0.621   0.349   5.216
 4906TIP3    H214662   0.527   0.248   5.153
 4907TIP3   OH214663   4.507   0.671   3.742
 4907TIP3    H114664   4.602   0.661   3.745
 4907TIP3    H214665   4.475   0.627   3.820
 4908TIP3   OH214666   7.455   5.412   6.372
 4908TIP3    H114667   7.471   5.384   6.282
 4908TIP3    H214668   7.416   5.499   6.364
 4909TIP3   OH214669   6.560   6.547   0.474
 4909TIP3    H114670   6.508   6.583   0.402
 4909TIP3    H214671   6.649   6.545   0.440
 4910TIP3   OH214672   5.337   2.109   2.423
 4910TIP3    H114673   5.266   2.114   2.359
 4910TIP3    H214674   5.417   2.109   2.370
 4911TIP3   OH214675   8.153   5.395   1.455
 4911TIP3    H114676   8.089   5.341   1.409
 4911TIP3    H214677   8.228   5.337   1.467
 4912TIP3   OH214678   4.781   1.003   4.242
 4912TIP3    H114679   4.701   1.030   4.196
 4912TIP3    H214680   4.750   0.967   4.325
 4913TIP3   OH214681   3.177   4.540   1.659
 4913TIP3    H114682   3.254   4.504   1.616
 4913TIP3    H214683   3.110   4.472   1.650
 4914TIP3   OH214684   6.139   2.121   2.531
 4914TIP3    H114685   6.218   2.082   2.568
 4914TIP3    H214686   6.109   2.057   2.467
 4915TIP3   OH214687   0.845   2.554   2.038
 4915TIP3    H114688   0.913   2.533   2.103
 4915TIP3    H214689   0.813   2.469   2.009
 4916TIP3   OH214690   2.499   1.359   4.724
 4916TIP3    H114691   2.438   1.336   4.654
 4916TIP3    H214692   2.586   1.342   4.687
 4917TIP3   OH214693   4.965   3.259   1.950
 4917TIP3    H114694   4.928   3.347   1.962
 4917TIP3    H214695   4.900   3.214   1.896
 4918TIP3   OH214696   7.134   1.106   0.852
 4918TIP3    H114697   7.207   1.071   0.802
 4918TIP3    H214698   7.110   1.037   0.913
 4919TIP3   OH214699   2.252   1.048   0.296
 4919TIP3    H114700   2.327   1.005   0.254
 4919TIP3    H214701   2.266   1.141   0.278
 4920TIP3   OH214702   3.879   2.446   6.275
 4920TIP3    H114703   3.913   2.533   6.255
 4920TIP3    H214704   3.894   2.396   6.195
 4921TIP3   OH214705   2.914   2.943   4.954
 4921TIP3    H114706   2.986   2.919   5.012
 4921TIP3    H214707   2.836   2.908   4.997
 4922TIP3   OH214708   4.409   5.488   3.342
 4922TIP3    H114709   4.326   5.471   3.297
 4922TIP3    H214710   4.407   5.433   3.420
 4923TIP3   OH214711   4.315   1.472   1.604
 4923TIP3    H114712   4.244   1.534   1.592
 4923TIP3    H214713   4.350   1.458   1.516
 4924TIP3   OH214714   2.476   1.016   1.507
 4924TIP3    H114715   2.533   1.000   1.582
 4924TIP3    H214716   2.476   1.111   1.496
 4925TIP3   OH214717   7.240   1.011   4.837
 4925TIP3    H114718   7.146   1.010   4.821
 4925TIP3    H214719   7.274   0.935   4.789
 4926TIP3   OH214720   0.754   0.395   6.153
 4926TIP3    H114721   0.749   0.379   6.059
 4926TIP3    H214722   0.833   0.448   6.164
 4927TIP3   OH214723   3.103   2.826   6.312
 4927TIP3    H114724   3.084   2.827   6.406
 4927TIP3    H214725   3.170   2.893   6.299
 4928TIP3   OH214726   7.454   3.210   6.289
 4928TIP3    H114727   7.533   3.171   6.325
 4928TIP3    H214728   7.460   3.303   6.314
 4929TIP3   OH214729   2.486   0.741   3.547
 4929TIP3    H114730   2.555   0.695   3.595
 4929TIP3    H214731   2.405   0.714   3.590
 4930TIP3   OH214732   7.628   2.045   6.392
 4930TIP3    H114733   7.598   1.966   6.347
 4930TIP3    H214734   7.685   2.088   6.329
 4931TIP3   OH214735   6.172   4.053   1.873
 4931TIP3    H114736   6.128   4.019   1.795
 4931TIP3    H214737   6.163   3.982   1.937
 4932TIP3   OH214738   0.960   5.947   1.207
 4932TIP3    H114739   0.973   5.886   1.280
 4932TIP3    H214740   1.013   5.910   1.136
 4933TIP3   OH214741   0.499   2.311   1.872
 4933TIP3    H114742   0.446   2.342   1.799
 4933TIP3    H214743   0.444   2.322   1.949
 4934TIP3   OH214744   7.628   0.280   2.471
 4934TIP3    H114745   7.665   0.364   2.444
 4934TIP3    H214746   7.667   0.216   2.411
 4935TIP3   OH214747   7.240   2.217   0.987
 4935TIP3    H114748   7.170   2.165   0.947
 4935TIP3    H214749   7.193   2.286   1.035
 4936TIP3   OH214750   7.998   1.684   2.469
 4936TIP3    H114751   7.997   1.664   2.376
 4936TIP3    H214752   8.049   1.613   2.509
 4937TIP3   OH214753   5.505   7.662   2.622
 4937TIP3    H114754   5.424   7.643   2.575
 4937TIP3    H214755   5.528   7.579   2.665
 4938TIP3   OH214756   5.616   4.417   5.198
 4938TIP3    H114757   5.685   4.370   5.151
 4938TIP3    H214758   5.543   4.355   5.200
 4939TIP3   OH214759   1.479   5.197   2.999
 4939TIP3    H114760   1.491   5.290   3.021
 4939TIP3    H214761   1.421   5.164   3.068
 4940TIP3   OH214762   6.507   1.602   5.004
 4940TIP3    H114763   6.507   1.581   5.098
 4940TIP3    H214764   6.429   1.557   4.970
 4941TIP3   OH214765   3.259   3.448   6.228
 4941TIP3    H114766   3.293   3.529   6.266
 4941TIP3    H214767   3.170   3.441   6.264
 4942TIP3   OH214768   6.614   1.314   5.896
 4942TIP3    H114769   6.613   1.406   5.922
 4942TIP3    H214770   6.703   1.284   5.914
 4943TIP3   OH214771   6.722   5.946   4.277
 4943TIP3    H114772   6.680   5.866   4.310
 4943TIP3    H214773   6.812   5.920   4.258
 4944TIP3   OH214774   3.137   7.186   4.569
 4944TIP3    H114775   3.060   7.244   4.568
 4944TIP3    H214776   3.159   7.179   4.662
 4945TIP3   OH214777   6.071   0.466   6.129
 4945TIP3    H114778   6.062   0.546   6.181
 4945TIP3    H214779   5.994   0.465   6.072
 4946TIP3   OH214780   1.679   4.988   1.946
 4946TIP3    H114781   1.745   5.037   1.897
 4946TIP3    H214782   1.615   5.054   1.971
 4947TIP3   OH214783   0.314   4.802   4.855
 4947TIP3    H114784   0.281   4.821   4.768
 4947TIP3    H214785   0.235   4.792   4.909
 4948TIP3   OH214786   6.939   5.437   6.333
 4948TIP3    H114787   7.009   5.462   6.393
 4948TIP3    H214788   6.858   5.448   6.384
 4949TIP3   OH214789   0.848   7.537   0.822
 4949TIP3    H114790   0.762   7.509   0.854
 4949TIP3    H214791   0.861   7.488   0.741
 4950TIP3   OH214792   4.009   7.607   5.553
 4950TIP3    H114793   3.927   7.567   5.526
 4950TIP3    H214794   3.983   7.678   5.612
 4951TIP3   OH214795   5.881   5.359   6.064
 4951TIP3    H114796   5.804   5.347   6.007
 4951TIP3    H214797   5.890   5.454   6.072
 4952TIP3   OH214798   4.296   2.649   2.334
 4952TIP3    H114799   4.205   2.661   2.306
 4952TIP3    H214800   4.289   2.605   2.419
 4953TIP3   OH214801   8.283   2.134   5.394
 4953TIP3    H114802   8.202   2.152   5.347
 4953TIP3    H214803   8.284   2.039   5.404
 4954TIP3   OH214804   6.181   5.051   5.303
 4954TIP3    H114805   6.090   5.053   5.332
 4954TIP3    H214806   6.232   5.043   5.385
 4955TIP3   OH214807   1.369   1.126   3.982
 4955TIP3    H114808   1.283   1.086   3.987
 4955TIP3    H214809   1.367   1.180   3.903
 4956TIP3   OH214810   0.244   6.571   0.295
 4956TIP3    H114811   0.226   6.616   0.377
 4956TIP3    H214812   0.302   6.499   0.319
 4957TIP3   OH214813   7.171   3.808   0.164
 4957TIP3    H114814   7.233   3.771   0.101
 4957TIP3    H214815   7.225   3.834   0.239
 4958TIP3   OH214816   7.643   4.929   6.490
 4958TIP3    H114817   7.560   4.890   6.516
 4958TIP3    H214818   7.708   4.861   6.504
 4959TIP3   OH214819   8.243   6.310   4.700
 4959TIP3    H114820   8.237   6.312   4.605
 4959TIP3    H214821   8.193   6.233   4.727
 4960TIP3   OH214822   6.234   6.176   3.644
 4960TIP3    H114823   6.312   6.150   3.693
 4960TIP3    H214824   6.236   6.123   3.564
 4961TIP3   OH214825   7.642   1.185   2.289
 4961TIP3    H114826   7.647   1.240   2.367
 4961TIP3    H214827   7.653   1.096   2.321
 4962TIP3   OH214828   2.932   3.869   0.599
 4962TIP3    H114829   2.851   3.895   0.555
 4962TIP3    H214830   2.995   3.854   0.528
 4963TIP3   OH214831   2.930   7.232   2.112
 4963TIP3    H114832   2.915   7.153   2.059
 4963TIP3    H214833   2.932   7.200   2.202
 4964TIP3   OH214834   7.778   0.554   0.859
 4964TIP3    H114835   7.728   0.481   0.823
 4964TIP3    H214836   7.869   0.531   0.841
 4965TIP3   OH214837   2.067   4.015   4.269
 4965TIP3    H114838   2.076   3.948   4.202
 4965TIP3    H214839   2.149   4.009   4.319
 4966TIP3   OH214840   0.246   7.485   6.706
 4966TIP3    H114841   0.202   7.560   6.747
 4966TIP3    H214842   0.338   7.513   6.699
 4967TIP3   OH214843   0.644   1.276   6.546
 4967TIP3    H114844   0.685   1.338   6.605
 4967TIP3    H214845   0.594   1.217   6.603
 4968TIP3   OH214846   0.076   5.830   1.294
 4968TIP3    H114847   0.090   5.747   1.249
 4968TIP3    H214848  -0.005   5.817   1.344
 4969TIP3   OH214849   4.204   4.328   1.239
 4969TIP3    H114850   4.129   4.269   1.228
 4969TIP3    H214851   4.278   4.279   1.203
 4970TIP3   OH214852   7.516   6.449   1.290
 4970TIP3    H114853   7.435   6.484   1.253
 4970TIP3    H214854   7.519   6.358   1.261
 4971TIP3   OH214855   3.464   3.344   3.287
 4971TIP3    H114856   3.423   3.283   3.225
 4971TIP3    H214857   3.391   3.398   3.319
 4972TIP3   OH214858   7.591   7.028   1.171
 4972TIP3    H114859   7.567   6.938   1.192
 4972TIP3    H214860   7.554   7.080   1.242
 4973TIP3   OH214861   1.468   3.381   1.895
 4973TIP3    H114862   1.496   3.473   1.899
 4973TIP3    H214863   1.549   3.332   1.879
 4974TIP3   OH214864   7.258   2.606   3.983
 4974TIP3    H114865   7.168   2.637   3.991
 4974TIP3    H214866   7.259   2.523   4.031
 4975TIP3   OH214867   4.237   3.286   5.968
 4975TIP3    H114868   4.227   3.346   5.895
 4975TIP3    H214869   4.267   3.342   6.040
 4976TIP3   OH214870   1.286   0.917   1.838
 4976TIP3    H114871   1.304   0.978   1.909
 4976TIP3    H214872   1.251   0.972   1.767
 4977TIP3   OH214873   3.818   6.292   4.294
 4977TIP3    H114874   3.852   6.205   4.312
 4977TIP3    H214875   3.895   6.349   4.300
 4978TIP3   OH214876   4.406   1.157   3.468
 4978TIP3    H114877   4.491   1.158   3.513
 4978TIP3    H214878   4.342   1.143   3.538
 4979TIP3   OH214879   1.779   5.836   0.212
 4979TIP3    H114880   1.823   5.751   0.213
 4979TIP3    H214881   1.839   5.894   0.167
 4980TIP3   OH214882   2.234   1.328   5.311
 4980TIP3    H114883   2.179   1.391   5.265
 4980TIP3    H214884   2.235   1.359   5.402
 4981TIP3   OH214885   1.873   4.687   6.680
 4981TIP3    H114886   1.862   4.765   6.627
 4981TIP3    H214887   1.809   4.625   6.646
 4982TIP3   OH214888   2.939   4.163   6.370
 4982TIP3    H114889   2.905   4.076   6.348
 4982TIP3    H214890   2.892   4.188   6.450
 4983TIP3   OH214891   4.264   6.038   1.723
 4983TIP3    H114892   4.298   5.964   1.773
 4983TIP3    H214893   4.341   6.092   1.705
 4984TIP3   OH214894   0.127   6.697   0.970
 4984TIP3    H114895   0.088   6.631   1.027
 4984TIP3    H214896   0.189   6.648   0.917
 4985TIP3   OH214897   6.532   2.318   2.519
 4985TIP3    H114898   6.592   2.350   2.587
 4985TIP3    H214899   6.446   2.351   2.544
 4986TIP3   OH214900   2.201   6.509   1.325
 4986TIP3    H114901   2.136   6.454   1.283
 4986TIP3    H214902   2.286   6.476   1.294
 4987TIP3   OH214903   3.151   2.424   2.839
 4987TIP3    H114904   3.083   2.419   2.772
 4987TIP3    H214905   3.159   2.517   2.857
 4988TIP3   OH214906   0.365   6.640   1.539
 4988TIP3    H114907   0.286   6.606   1.497
 4988TIP3    H214908   0.388   6.717   1.488
 4989TIP3   OH214909   6.787   0.352   3.428
 4989TIP3    H114910   6.698   0.316   3.419
 4989TIP3    H214911   6.781   0.440   3.392
 4990TIP3   OH214912   1.940   2.981   4.506
 4990TIP3    H114913   1.910   2.929   4.432
 4990TIP3    H214914   1.961   3.067   4.469
 4991TIP3   OH214915   3.196   6.678   3.464
 4991TIP3    H114916   3.219   6.727   3.542
 4991TIP3    H214917   3.168   6.592   3.496
 4992TIP3   OH214918   6.735   7.711   6.412
 4992TIP3    H114919   6.790   7.679   6.340
 4992TIP3    H214920   6.659   7.748   6.368
 4993TIP3   OH214921   1.805   0.667   0.216
 4993TIP3    H114922   1.814   0.723   0.293
 4993TIP3    H214923   1.723   0.620   0.230
 4994TIP3   OH214924   2.439   6.944   2.572
 4994TIP3    H114925   2.531   6.960   2.594
 4994TIP3    H214926   2.436   6.852   2.547
 4995TIP3   OH214927   2.466   6.726   6.042
 4995TIP3    H114928   2.403   6.667   6.083
 4995TIP3    H214929   2.465   6.804   6.097
 4996TIP3   OH214930   3.751   4.554   1.412
 4996TIP3    H114931   3.771   4.629   1.467
 4996TIP3    H214932   3.789   4.479   1.459
 4997TIP3   OH214933   1.505   1.142   5.934
 4997TIP3    H114934   1.498   1.236   5.953
 4997TIP3    H214935   1.430   1.104   5.980
 4998TIP3   OH214936   1.593   3.105   1.049
 4998TIP3    H114937   1.685   3.132   1.048
 4998TIP3    H214938   1.580   3.064   0.963
 4999TIP3   OH214939   3.231   0.410   6.665
 4999TIP3    H114940   3.185   0.328   6.681
 4999TIP3    H214941   3.167   0.465   6.621
 5000TIP3   OH214942   5.659   4.731   3.182
 5000TIP3    H114943   5.721   4.772   3.121
 5000TIP3    H214944   5.687   4.639   3.186
 5001TIP3   OH214945   3.490   5.216   0.387
 5001TIP3    H114946   3.497   5.133   0.340
 5001TIP3    H214947   3.441   5.194   0.467
 5002TIP3   OH214948   2.807   5.436   3.676
 5002TIP3    H114949   2.853   5.490   3.739
 5002TIP3    H214950   2.714   5.450   3.696
 5003TIP3   OH214951   6.512   6.868   6.027
 5003TIP3    H114952   6.447   6.858   6.096
 5003TIP3    H214953   6.508   6.961   6.003
 5004TIP3   OH214954   6.185   2.034   1.344
 5004TIP3    H114955   6.246   2.108   1.338
 5004TIP3    H214956   6.161   2.016   1.253
 5005TIP3   OH214957   5.480   4.876   6.338
 5005TIP3    H114958   5.542   4.861   6.267
 5005TIP3    H214959   5.452   4.967   6.328
 5006TIP3   OH214960   6.724   7.151   5.659
 5006TIP3    H114961   6.711   7.231   5.710
 5006TIP3    H214962   6.793   7.104   5.705
 5007TIP3   OH214963   3.300   7.480   2.543
 5007TIP3    H114964   3.283   7.574   2.534
 5007TIP3    H214965   3.308   7.466   2.637
 5008TIP3   OH214966   6.774   1.122   6.338
 5008TIP3    H114967   6.857   1.156   6.307
 5008TIP3    H214968   6.798   1.045   6.391
 5009TIP3   OH214969   6.980   4.850   3.880
 5009TIP3    H114970   7.017   4.804   3.805
 5009TIP3    H214971   6.929   4.783   3.926
 5010TIP3   OH214972   6.588   0.984   5.945
 5010TIP3    H114973   6.525   0.915   5.920
 5010TIP3    H214974   6.586   1.045   5.871
 5011TIP3   OH214975   3.586   3.558   2.669
 5011TIP3    H114976   3.510   3.617   2.662
 5011TIP3    H214977   3.606   3.535   2.578
 5012TIP3   OH214978   4.075   2.262   6.345
 5012TIP3    H114979   4.087   2.357   6.355
 5012TIP3    H214980   4.053   2.250   6.253
 5013TIP3   OH214981   3.566   6.077   4.903
 5013TIP3    H114982   3.504   6.007   4.924
 5013TIP3    H214983   3.636   6.033   4.856
 5014TIP3   OH214984   7.966   0.242   6.428
 5014TIP3    H114985   7.912   0.299   6.372
 5014TIP3    H214986   7.904   0.202   6.489
 5015TIP3   OH214987   7.080   2.231   4.856
 5015TIP3    H114988   6.999   2.181   4.843
 5015TIP3    H214989   7.057   2.320   4.829
 5016TIP3   OH214990   5.500   6.006   5.066
 5016TIP3    H114991   5.535   5.921   5.041
 5016TIP3    H214992   5.487   6.052   4.983
 5017TIP3   OH214993   5.296   0.762   3.310
 5017TIP3    H114994   5.343   0.702   3.368
 5017TIP3    H214995   5.305   0.724   3.223
 5018TIP3   OH214996   2.120   2.561   1.859
 5018TIP3    H114997   2.205   2.575   1.901
 5018TIP3    H214998   2.092   2.475   1.891
 5019TIP3   OH214999   7.904   3.670   6.415
 5019TIP3    H115000   7.860   3.734   6.359
 5019TIP3    H215001   7.981   3.716   6.450
 5020TIP3   OH215002   7.437   0.599   0.589
 5020TIP3    H115003   7.351   0.636   0.567
 5020TIP3    H215004   7.483   0.595   0.505
 5021TIP3   OH215005   3.778   0.027   5.244
 5021TIP3    H115006   3.727   0.095   5.287
 5021TIP3    H215007   3.794  -0.038   5.313
 5022TIP3   OH215008   2.831   7.030   2.968
 5022TIP3    H115009   2.758   7.092   2.979
 5022TIP3    H215010   2.877   7.062   2.891
 5023TIP3   OH215011   2.785   5.895   5.410
 5023TIP3    H115012   2.704   5.869   5.454
 5023TIP3    H215013   2.837   5.815   5.404
 5024TIP3   OH215014   1.184   4.521   3.447
 5024TIP3    H115015   1.212   4.429   3.444
 5024TIP3    H215016   1.089   4.517   3.444
 5025TIP3   OH215017   6.324   3.491   2.403
 5025TIP3    H115018   6.265   3.443   2.460
 5025TIP3    H215019   6.273   3.566   2.373
 5026TIP3   OH215020   7.480   0.028   0.838
 5026TIP3    H115021   7.471   0.123   0.841
 5026TIP3    H215022   7.437   0.003   0.756
 5027TIP3   OH215023   6.531   3.713   4.576
 5027TIP3    H115024   6.579   3.775   4.522
 5027TIP3    H215025   6.442   3.749   4.580
 5028TIP3   OH215026   4.573   5.451   4.011
 5028TIP3    H115027   4.660   5.455   3.972
 5028TIP3    H215028   4.587   5.416   4.099
 5029TIP3   OH215029   1.703   6.399   1.764
 5029TIP3    H115030   1.731   6.333   1.826
 5029TIP3    H215031   1.777   6.409   1.704
 5030TIP3   OH215032   6.538   3.903   3.698
 5030TIP3    H115033   6.517   3.827   3.644
 5030TIP3    H215034   6.470   3.967   3.678
 5031TIP3   OH215035   4.976   4.552   4.768
 5031TIP3    H115036   5.055   4.497   4.765
 5031TIP3    H215037   4.979   4.603   4.687
 5032TIP3   OH215038   0.584   7.511   1.834
 5032TIP3    H115039   0.656   7.511   1.771
 5032TIP3    H215040   0.591   7.596   1.878
 5033TIP3   OH215041   6.677   2.849   4.616
 5033TIP3    H115042   6.685   2.780   4.682
 5033TIP3    H215043   6.617   2.912   4.656
 5034TIP3   OH215044   2.275   6.157   6.182
 5034TIP3    H115045   2.246   6.186   6.269
 5034TIP3    H215046   2.195   6.147   6.132
 5035TIP3   OH215047   0.219   0.845   2.984
 5035TIP3    H115048   0.165   0.825   2.907
 5035TIP3    H215049   0.193   0.933   3.009
 5036TIP3   OH215050   4.621   5.321   4.242
 5036TIP3    H115051   4.602   5.325   4.336
 5036TIP3    H215052   4.717   5.318   4.237
 5037TIP3   OH215053   7.111   3.632   4.873
 5037TIP3    H115054   7.124   3.629   4.967
 5037TIP3    H215055   7.018   3.613   4.860
 5038TIP3   OH215056   3.427   6.650   0.060
 5038TIP3    H115057   3.481   6.631   0.137
 5038TIP3    H215058   3.381   6.568   0.041
 5039TIP3   OH215059   1.621   3.296   6.159
 5039TIP3    H115060   1.604   3.357   6.087
 5039TIP3    H215061   1.693   3.241   6.127
 5040TIP3   OH215062   3.872   0.948   1.237
 5040TIP3    H115063   3.816   0.946   1.315
 5040TIP3    H215064   3.816   0.914   1.167
 5041TIP3   OH215065   3.722   3.347   4.828
 5041TIP3    H115066   3.677   3.429   4.804
 5041TIP3    H215067   3.654   3.280   4.820
 5042TIP3   OH215068   0.074   0.628   6.556
 5042TIP3    H115069   0.073   0.703   6.615
 5042TIP3    H215070  -0.018   0.614   6.533
 5043TIP3   OH215071   6.565   0.876   3.947
 5043TIP3    H115072   6.554   0.947   3.884
 5043TIP3    H215073   6.517   0.906   4.024
 5044TIP3   OH215074   2.934   6.796   3.872
 5044TIP3    H115075   3.017   6.749   3.882
 5044TIP3    H215076   2.948   6.852   3.796
 5045TIP3   OH215077   5.550   5.008   3.174
 5045TIP3    H115078   5.563   4.916   3.195
 5045TIP3    H215079   5.614   5.026   3.105
 5046TIP3   OH215080   3.810   3.678   5.417
 5046TIP3    H115081   3.832   3.603   5.362
 5046TIP3    H215082   3.892   3.726   5.427
 5047TIP3   OH215083   1.728   4.248   2.819
 5047TIP3    H115084   1.801   4.271   2.761
 5047TIP3    H215085   1.700   4.332   2.856
 5048TIP3   OH215086   3.872   4.912   1.165
 5048TIP3    H115087   3.817   4.835   1.150
 5048TIP3    H215088   3.855   4.968   1.089
 5049TIP3   OH215089   5.952   6.329   1.099
 5049TIP3    H115090   5.892   6.299   1.167
 5049TIP3    H215091   5.901   6.326   1.018
 5050TIP3   OH215092   5.386   7.263   6.468
 5050TIP3    H115093   5.311   7.277   6.410
 5050TIP3    H215094   5.348   7.224   6.547
 5051TIP3   OH215095   0.512   6.220   5.936
 5051TIP3    H115096   0.522   6.188   6.025
 5051TIP3    H215097   0.441   6.167   5.899
 5052TIP3   OH215098   5.598   7.771   6.099
 5052TIP3    H115099   5.622   7.860   6.071
 5052TIP3    H215100   5.598   7.720   6.019
 5053TIP3   OH215101   3.551   2.244   0.820
 5053TIP3    H115102   3.619   2.182   0.792
 5053TIP3    H215103   3.567   2.256   0.914
 5054TIP3   OH215104   2.888   2.554   1.315
 5054TIP3    H115105   2.935   2.565   1.397
 5054TIP3    H215106   2.828   2.481   1.331
 5055TIP3   OH215107   3.147   5.061   2.714
 5055TIP3    H115108   3.163   5.022   2.628
 5055TIP3    H215109   3.054   5.083   2.714
 5056TIP3   OH215110   7.936   0.917   2.218
 5056TIP3    H115111   7.965   0.946   2.304
 5056TIP3    H215112   7.999   0.954   2.157
 5057TIP3   OH215113   1.745   7.408   4.526
 5057TIP3    H115114   1.676   7.379   4.467
 5057TIP3    H215115   1.806   7.334   4.531
 5058TIP3   OH215116   0.998   4.624   6.368
 5058TIP3    H115117   1.034   4.560   6.307
 5058TIP3    H215118   1.015   4.709   6.327
 5059TIP3   OH215119   2.331   6.104   3.330
 5059TIP3    H115120   2.241   6.133   3.316
 5059TIP3    H215121   2.382   6.184   3.337
 5060TIP3   OH215122   6.279   6.591   5.580
 5060TIP3    H115123   6.329   6.539   5.517
 5060TIP3    H215124   6.190   6.558   5.574
 5061TIP3   OH215125   3.145   7.254   6.147
 5061TIP3    H115126   3.162   7.290   6.234
 5061TIP3    H215127   3.154   7.330   6.088
 5062TIP3   OH215128   1.208   5.887   4.581
 5062TIP3    H115129   1.292   5.867   4.539
 5062TIP3    H215130   1.165   5.802   4.591
 5063TIP3   OH215131   6.177   0.235   4.715
 5063TIP3    H115132   6.217   0.189   4.641
 5063TIP3    H215133   6.251   0.261   4.769
 5064TIP3   OH215134   3.567   6.243   1.512
 5064TIP3    H115135   3.652   6.199   1.522
 5064TIP3    H215136   3.588   6.336   1.517
 5065TIP3   OH215137   4.268   3.317   1.744
 5065TIP3    H115138   4.199   3.263   1.782
 5065TIP3    H215139   4.344   3.301   1.799
 5066TIP3   OH215140   7.775   0.038   6.086
 5066TIP3    H115141   7.679   0.036   6.088
 5066TIP3    H215142   7.799   0.092   6.160
 5067TIP3   OH215143   0.968   5.105   2.924
 5067TIP3    H115144   0.946   5.069   3.009
 5067TIP3    H215145   0.907   5.062   2.863
 5068TIP3   OH215146   4.045   2.653   3.373
 5068TIP3    H115147   4.001   2.571   3.395
 5068TIP3    H215148   4.123   2.653   3.429
 5069TIP3   OH215149   3.155   5.370   2.303
 5069TIP3    H115150   3.164   5.365   2.208
 5069TIP3    H215151   3.244   5.367   2.336
 5070TIP3   OH215152   1.174   0.468   2.804
 5070TIP3    H115153   1.097   0.438   2.757
 5070TIP3    H215154   1.229   0.508   2.737
 5071TIP3   OH215155   3.359   4.444   0.827
 5071TIP3    H115156   3.432   4.504   0.808
 5071TIP3    H215157   3.383   4.362   0.783
 5072TIP3   OH215158   3.394   0.564   4.201
 5072TIP3    H115159   3.432   0.589   4.284
 5072TIP3    H215160   3.466   0.525   4.152
 5073TIP3   OH215161   7.297   3.174   4.039
 5073TIP3    H115162   7.215   3.222   4.023
 5073TIP3    H215163   7.365   3.232   4.006
 5074TIP3   OH215164   0.016   0.782   6.784
 5074TIP3    H115165   0.028   0.701   6.832
 5074TIP3    H215166  -0.057   0.826   6.828
 5075TIP3   OH215167   2.116   2.520   5.966
 5075TIP3    H115168   2.130   2.577   6.042
 5075TIP3    H215169   2.032   2.547   5.930
 5076TIP3   OH215170   1.671   1.222   0.273
 5076TIP3    H115171   1.666   1.193   0.364
 5076TIP3    H215172   1.655   1.316   0.277
 5077TIP3   OH215173   5.466   4.333   0.077
 5077TIP3    H115174   5.464   4.272   0.003
 5077TIP3    H215175   5.494   4.417   0.038
 5078TIP3   OH215176   0.235   3.094   5.665
 5078TIP3    H115177   0.149   3.123   5.635
 5078TIP3    H215178   0.220   3.006   5.701
 5079TIP3   OH215179   1.040   7.872   4.954
 5079TIP3    H115180   1.131   7.881   4.925
 5079TIP3    H215181   1.043   7.891   5.048
 5080TIP3   OH215182   1.691   1.913   1.842
 5080TIP3    H115183   1.628   1.899   1.912
 5080TIP3    H215184   1.679   1.839   1.783
 5081TIP3   OH215185   4.117   2.480   5.234
 5081TIP3    H115186   4.200   2.432   5.234
 5081TIP3    H215187   4.130   2.550   5.298
 5082TIP3   OH215188   4.800   1.119   1.162
 5082TIP3    H115189   4.719   1.111   1.212
 5082TIP3    H215190   4.864   1.152   1.224
 5083TIP3   OH215191   0.063   6.367   2.408
 5083TIP3    H115192   0.135   6.427   2.431
 5083TIP3    H215193  -0.011   6.397   2.461
 5084TIP3   OH215194   3.223   7.194   0.870
 5084TIP3    H115195   3.243   7.154   0.785
 5084TIP3    H215196   3.287   7.265   0.878
 5085TIP3   OH215197   7.779   2.922   3.969
 5085TIP3    H115198   7.690   2.916   4.002
 5085TIP3    H215199   7.831   2.951   4.044
 5086TIP3   OH215200   3.967   2.674   1.279
 5086TIP3    H115201   3.981   2.766   1.302
 5086TIP3    H215202   3.873   2.660   1.292
 5087TIP3   OH215203   4.233   5.732   3.520
 5087TIP3    H115204   4.212   5.824   3.504
 5087TIP3    H215205   4.321   5.720   3.484
 5088TIP3   OH215206   6.180   0.063   0.344
 5088TIP3    H115207   6.156   0.083   0.253
 5088TIP3    H215208   6.245   0.130   0.367
 5089TIP3   OH215209   0.526   7.132   5.568
 5089TIP3    H115210   0.477   7.151   5.488
 5089TIP3    H215211   0.553   7.040   5.559
 5090TIP3   OH215212   3.243   6.693   4.169
 5090TIP3    H115213   3.179   6.655   4.109
 5090TIP3    H215214   3.311   6.627   4.179
 5091TIP3   OH215215   0.020   7.151   5.812
 5091TIP3    H115216   0.051   7.095   5.741
 5091TIP3    H215217  -0.074   7.134   5.816
 5092TIP3   OH215218   0.567   0.759   4.308
 5092TIP3    H115219   0.527   0.787   4.226
 5092TIP3    H215220   0.500   0.774   4.375
 5093TIP3   OH215221   3.204   5.685   4.809
 5093TIP3    H115222   3.112   5.712   4.802
 5093TIP3    H215223   3.201   5.597   4.846
 5094TIP3   OH215224   1.903   2.541   3.505
 5094TIP3    H115225   1.945   2.521   3.589
 5094TIP3    H215226   1.972   2.582   3.453
 5095TIP3   OH215227   0.521   3.037   0.602
 5095TIP3    H115228   0.602   2.992   0.623
 5095TIP3    H215229   0.538   3.129   0.624
 5096TIP3   OH215230   8.088   0.380   3.997
 5096TIP3    H115231   8.005   0.335   4.015
 5096TIP3    H215232   8.145   0.356   4.070
 5097TIP3   OH215233   7.358   1.406   4.697
 5097TIP3    H115234   7.421   1.456   4.645
 5097TIP3    H215235   7.314   1.472   4.750
 5098TIP3   OH215236   0.467   0.151   2.826
 5098TIP3    H115237   0.392   0.091   2.823
 5098TIP3    H215238   0.542   0.095   2.844
 5099TIP3   OH215239   2.058   4.938   5.841
 5099TIP3    H115240   2.047   4.856   5.793
 5099TIP3    H215241   2.018   4.921   5.927
 5100TIP3   OH215242   3.308   4.002   2.013
 5100TIP3    H115243   3.344   4.090   2.022
 5100TIP3    H215244   3.231   4.014   1.957
 5101TIP3   OH215245   6.039   3.311   3.376
 5101TIP3    H115246   6.076   3.253   3.443
 5101TIP3    H215247   6.058   3.266   3.293
 5102TIP3   OH215248   1.809   5.076   5.340
 5102TIP3    H115249   1.891   5.108   5.301
 5102TIP3    H215250   1.833   5.052   5.429
 5103TIP3   OH215251   1.379   3.842   0.735
 5103TIP3    H115252   1.321   3.913   0.706
 5103TIP3    H215253   1.326   3.763   0.726
 5104TIP3   OH215254   6.698   6.191   4.868
 5104TIP3    H115255   6.712   6.101   4.897
 5104TIP3    H215256   6.756   6.200   4.792
 5105TIP3   OH215257   8.165   2.212   1.333
 5105TIP3    H115258   8.073   2.222   1.358
 5105TIP3    H215259   8.175   2.266   1.254
 5106TIP3   OH215260   7.409   0.892   5.937
 5106TIP3    H115261   7.337   0.923   5.881
 5106TIP3    H215262   7.372   0.894   6.026
 5107TIP3   OH215263   1.806   2.959   2.871
 5107TIP3    H115264   1.727   2.910   2.894
 5107TIP3    H215265   1.807   3.034   2.930
 5108TIP3   OH215266   2.533   1.952   6.137
 5108TIP3    H115267   2.511   2.043   6.117
 5108TIP3    H215268   2.602   1.958   6.203
 5109TIP3   OH215269   3.490   1.731   2.211
 5109TIP3    H115270   3.427   1.686   2.155
 5109TIP3    H215271   3.446   1.736   2.297
 5110TIP3   OH215272   4.522   5.055   3.863
 5110TIP3    H115273   4.492   5.023   3.948
 5110TIP3    H215274   4.485   4.995   3.799
 5111TIP3   OH215275   3.531   7.131   3.237
 5111TIP3    H115276   3.484   7.048   3.247
 5111TIP3    H215277   3.604   7.109   3.178
 5112TIP3   OH215278   3.803   1.977   1.695
 5112TIP3    H115279   3.812   2.015   1.783
 5112TIP3    H215280   3.711   1.952   1.689
 5113TIP3   OH215281   7.800   5.915   1.084
 5113TIP3    H115282   7.815   6.008   1.067
 5113TIP3    H215283   7.705   5.907   1.090
 5114TIP3   OH215284   2.084   5.257   1.916
 5114TIP3    H115285   2.158   5.222   1.866
 5114TIP3    H215286   2.063   5.340   1.873
 5115TIP3   OH215287   2.357   4.846   6.749
 5115TIP3    H115288   2.352   4.858   6.844
 5115TIP3    H215289   2.269   4.816   6.724
 5116TIP3   OH215290   0.186   0.442   2.799
 5116TIP3    H115291   0.225   0.451   2.713
 5116TIP3    H215292   0.255   0.404   2.853
 5117TIP3   OH215293   7.352   4.359   6.102
 5117TIP3    H115294   7.419   4.323   6.044
 5117TIP3    H215295   7.271   4.354   6.051
 5118TIP3   OH215296   4.205   5.806   5.866
 5118TIP3    H115297   4.240   5.895   5.864
 5118TIP3    H215298   4.180   5.788   5.775
 5119TIP3   OH215299   5.218   6.268   0.405
 5119TIP3    H115300   5.260   6.190   0.369
 5119TIP3    H215301   5.212   6.252   0.499
 5120TIP3   OH215302   3.921   3.481   5.892
 5120TIP3    H115303   3.897   3.573   5.910
 5120TIP3    H215304   4.015   3.484   5.875
 5121TIP3   OH215305   1.632   3.316   4.260
 5121TIP3    H115306   1.643   3.280   4.348
 5121TIP3    H215307   1.553   3.369   4.265
 5122TIP3   OH215308   0.526   0.279   0.673
 5122TIP3    H115309   0.620   0.275   0.656
 5122TIP3    H215310   0.488   0.218   0.610
 5123TIP3   OH215311   0.350   1.569   3.246
 5123TIP3    H115312   0.394   1.484   3.251
 5123TIP3    H215313   0.257   1.548   3.253
 5124TIP3   OH215314   1.820   4.740   0.572
 5124TIP3    H115315   1.738   4.733   0.621
 5124TIP3    H215316   1.802   4.700   0.487
 5125TIP3   OH215317   3.477   0.788   6.223
 5125TIP3    H115318   3.571   0.798   6.238
 5125TIP3    H215319   3.440   0.769   6.309
 5126TIP3   OH215320   6.299   2.670   0.105
 5126TIP3    H115321   6.339   2.744   0.060
 5126TIP3    H215322   6.370   2.606   0.114
 5127TIP3   OH215323   1.390   1.765   6.474
 5127TIP3    H115324   1.440   1.788   6.395
 5127TIP3    H215325   1.333   1.694   6.446
 5128TIP3   OH215326   0.288   0.478   3.632
 5128TIP3    H115327   0.242   0.396   3.651
 5128TIP3    H215328   0.318   0.508   3.718
 5129TIP3   OH215329   6.753   1.898   2.268
 5129TIP3    H115330   6.785   1.905   2.358
 5129TIP3    H215331   6.668   1.942   2.269
 5130TIP3   OH215332   7.726   1.668   4.197
 5130TIP3    H115333   7.735   1.582   4.237
 5130TIP3    H215334   7.797   1.720   4.235
 5131TIP3   OH215335   6.786   4.652   3.996
 5131TIP3    H115336   6.776   4.568   4.041
 5131TIP3    H215337   6.719   4.708   4.035
 5132TIP3   OH215338   2.941   4.282   3.929
 5132TIP3    H115339   2.891   4.222   3.874
 5132TIP3    H215340   2.876   4.341   3.967
 5133TIP3   OH215341   2.845   3.181   2.534
 5133TIP3    H115342   2.926   3.137   2.506
 5133TIP3    H215343   2.791   3.186   2.455
 5134TIP3   OH215344   0.880   3.802   5.981
 5134TIP3    H115345   0.925   3.865   5.925
 5134TIP3    H215346   0.824   3.752   5.921
 5135TIP3   OH215347   6.291   5.717   4.104
 5135TIP3    H115348   6.199   5.737   4.123
 5135TIP3    H215349   6.340   5.791   4.142
 5136TIP3   OH215350   3.258   1.548   4.649
 5136TIP3    H115351   3.334   1.549   4.707
 5136TIP3    H215352   3.188   1.587   4.700
 5137TIP3   OH215353   0.414   4.993   6.661
 5137TIP3    H115354   0.498   5.007   6.704
 5137TIP3    H215355   0.386   4.906   6.691
 5138TIP3   OH215356   4.029   6.221   5.707
 5138TIP3    H115357   4.013   6.310   5.676
 5138TIP3    H215358   3.964   6.167   5.661
 5139TIP3   OH215359   3.607   1.448   0.790
 5139TIP3    H115360   3.569   1.531   0.817
 5139TIP3    H215361   3.569   1.384   0.850
 5140TIP3   OH215362   1.319   4.822   5.788
 5140TIP3    H115363   1.312   4.732   5.757
 5140TIP3    H215364   1.231   4.857   5.781
 5141TIP3   OH215365   1.128   5.323   6.418
 5141TIP3    H115366   1.126   5.282   6.505
 5141TIP3    H215367   1.121   5.249   6.357
 5142TIP3   OH215368   0.850   0.344   0.684
 5142TIP3    H115369   0.908   0.416   0.661
 5142TIP3    H215370   0.796   0.331   0.606
 5143TIP3   OH215371   6.296   4.145   3.683
 5143TIP3    H115372   6.280   4.070   3.625
 5143TIP3    H215373   6.244   4.127   3.761
 5144TIP3   OH215374   2.736   3.029   3.722
 5144TIP3    H115375   2.768   3.118   3.741
 5144TIP3    H215376   2.705   3.034   3.632
 5145TIP3   OH215377   4.265   3.835   3.849
 5145TIP3    H115378   4.268   3.766   3.914
 5145TIP3    H215379   4.184   3.882   3.867
 5146TIP3   OH215380   6.021   1.771   3.460
 5146TIP3    H115381   6.043   1.686   3.499
 5146TIP3    H215382   5.944   1.800   3.508
 5147TIP3   OH215383   2.754   2.965   5.924
 5147TIP3    H115384   2.760   2.904   5.852
 5147TIP3    H215385   2.669   2.947   5.964
 5148TIP3   OH215386   8.165   4.754   6.499
 5148TIP3    H115387   8.111   4.719   6.570
 5148TIP3    H215388   8.198   4.837   6.533
 5149TIP3   OH215389   4.154   2.113   5.382
 5149TIP3    H115390   4.072   2.132   5.428
 5149TIP3    H215391   4.170   2.192   5.330
 5150TIP3   OH215392   0.812   1.576   3.620
 5150TIP3    H115393   0.885   1.627   3.656
 5150TIP3    H215394   0.775   1.632   3.552
 5151TIP3   OH215395   0.809   0.121   0.332
 5151TIP3    H115396   0.763   0.040   0.356
 5151TIP3    H215397   0.900   0.105   0.358
 5152TIP3   OH215398   1.546   4.567   6.068
 5152TIP3    H115399   1.457   4.585   6.098
 5152TIP3    H215400   1.548   4.473   6.053
 5153TIP3   OH215401   5.553   7.268   3.939
 5153TIP3    H115402   5.483   7.305   3.885
 5153TIP3    H215403   5.579   7.188   3.893
 5154TIP3   OH215404   1.323   5.558   4.521
 5154TIP3    H115405   1.315   5.493   4.590
 5154TIP3    H215406   1.412   5.547   4.488
 5155TIP3   OH215407   3.944   5.848   0.264
 5155TIP3    H115408   4.033   5.880   0.279
 5155TIP3    H215409   3.895   5.878   0.341
 5156TIP3   OH215410   6.369   6.224   5.892
 5156TIP3    H115411   6.463   6.224   5.877
 5156TIP3    H215412   6.359   6.208   5.986
 5157TIP3   OH215413   1.410   6.909   3.063
 5157TIP3    H115414   1.378   6.952   2.984
 5157TIP3    H215415   1.502   6.937   3.070
 5158TIP3   OH215416   4.280   0.511   4.265
 5158TIP3    H115417   4.210   0.447   4.276
 5158TIP3    H215418   4.235   0.590   4.234
 5159TIP3   OH215419   5.938   0.576   2.229
 5159TIP3    H115420   5.928   0.485   2.200
 5159TIP3    H215421   5.989   0.618   2.160
 5160TIP3   OH215422   7.632   2.261   6.667
 5160TIP3    H115423   7.575   2.195   6.705
 5160TIP3    H215424   7.710   2.261   6.722
 5161TIP3   OH215425   1.670   4.975   3.901
 5161TIP3    H115426   1.641   5.027   3.976
 5161TIP3    H215427   1.626   4.890   3.912
 5162TIP3   OH215428   2.642   5.631   4.858
 5162TIP3    H115429   2.708   5.562   4.849
 5162TIP3    H215430   2.693   5.712   4.857
 5163TIP3   OH215431   4.980   1.067   6.402
 5163TIP3    H115432   4.946   1.059   6.313
 5163TIP3    H215433   5.048   1.134   6.396
 5164TIP3   OH215434   7.412   3.560   0.720
 5164TIP3    H115435   7.455   3.645   0.734
 5164TIP3    H215436   7.482   3.496   0.725
 5165TIP3   OH215437   4.765   4.382   5.849
 5165TIP3    H115438   4.717   4.343   5.923
 5165TIP3    H215439   4.806   4.308   5.805
 5166TIP3   OH215440   1.675   2.003   5.454
 5166TIP3    H115441   1.730   1.930   5.424
 5166TIP3    H215442   1.640   1.974   5.538
 5167TIP3   OH215443   1.905   7.703   0.664
 5167TIP3    H115444   1.895   7.793   0.635
 5167TIP3    H215445   1.931   7.710   0.756
 5168TIP3   OH215446   2.744   0.059   2.331
 5168TIP3    H115447   2.713   0.122   2.397
 5168TIP3    H215448   2.668   0.046   2.274
 5169TIP3   OH215449   3.639   1.103   1.322
 5169TIP3    H115450   3.634   1.038   1.252
 5169TIP3    H215451   3.712   1.159   1.297
 5170TIP3   OH215452   6.945   7.247   2.837
 5170TIP3    H115453   6.884   7.310   2.877
 5170TIP3    H215454   7.009   7.229   2.905
 5171TIP3   OH215455   1.399   3.216   3.938
 5171TIP3    H115456   1.420   3.308   3.924
 5171TIP3    H215457   1.445   3.169   3.869
 5172TIP3   OH215458   2.503   2.507   6.478
 5172TIP3    H115459   2.441   2.435   6.490
 5172TIP3    H215460   2.554   2.482   6.401
 5173TIP3   OH215461   8.068   6.427   1.806
 5173TIP3    H115462   8.144   6.467   1.763
 5173TIP3    H215463   8.075   6.453   1.897
 5174TIP3   OH215464   7.058   7.383   0.220
 5174TIP3    H115465   7.053   7.444   0.294
 5174TIP3    H215466   7.122   7.422   0.160
 5175TIP3   OH215467   2.606   5.346   5.924
 5175TIP3    H115468   2.662   5.418   5.953
 5175TIP3    H215469   2.655   5.306   5.852
 5176TIP3   OH215470   6.698   2.800   0.216
 5176TIP3    H115471   6.764   2.828   0.280
 5176TIP3    H215472   6.726   2.838   0.133
 5177TIP3   OH215473   4.357   5.898   4.948
 5177TIP3    H115474   4.424   5.863   5.006
 5177TIP3    H215475   4.405   5.926   4.870
 5178TIP3   OH215476   7.178   0.320   6.710
 5178TIP3    H115477   7.218   0.296   6.626
 5178TIP3    H215478   7.085   0.298   6.699
 5179TIP3   OH215479   2.266   3.340   6.118
 5179TIP3    H115480   2.353   3.305   6.135
 5179TIP3    H215481   2.266   3.362   6.025
 5180TIP3   OH215482   8.155   1.843   1.768
 5180TIP3    H115483   8.158   1.748   1.759
 5180TIP3    H215484   8.243   1.872   1.743
 5181TIP3   OH215485   5.647   5.933   2.682
 5181TIP3    H115486   5.634   6.009   2.625
 5181TIP3    H215487   5.720   5.886   2.642
 5182TIP3   OH215488   7.369   4.858   2.564
 5182TIP3    H115489   7.393   4.932   2.619
 5182TIP3    H215490   7.388   4.781   2.618
 5183TIP3   OH215491   1.173   3.420   3.932
 5183TIP3    H115492   1.250   3.404   3.986
 5183TIP3    H215493   1.107   3.453   3.993
 5184TIP3   OH215494   1.000   3.670   6.522
 5184TIP3    H115495   0.909   3.642   6.529
 5184TIP3    H215496   1.012   3.690   6.429
 5185TIP3   OH215497   4.698   2.976   5.118
 5185TIP3    H115498   4.721   3.038   5.048
 5185TIP3    H215499   4.603   2.981   5.125
 5186TIP3   OH215500   6.995   6.795   2.121
 5186TIP3    H115501   7.017   6.784   2.213
 5186TIP3    H215502   7.026   6.883   2.099
 5187TIP3   OH215503   4.338   2.554   0.581
 5187TIP3    H115504   4.254   2.514   0.558
 5187TIP3    H215505   4.339   2.551   0.677
 5188TIP3   OH215506   1.492   7.300   3.004
 5188TIP3    H115507   1.494   7.395   2.992
 5188TIP3    H215508   1.509   7.264   2.917
 5189TIP3   OH215509   2.284   7.095   6.293
 5189TIP3    H115510   2.282   7.010   6.336
 5189TIP3    H215511   2.376   7.123   6.300
 5190TIP3   OH215512   8.124   4.925   0.563
 5190TIP3    H115513   8.189   4.988   0.530
 5190TIP3    H215514   8.172   4.842   0.569
 5191TIP3   OH215515   3.697   0.138   4.726
 5191TIP3    H115516   3.745   0.220   4.708
 5191TIP3    H215517   3.731   0.109   4.810
 5192TIP3   OH215518   2.686   1.719   3.446
 5192TIP3    H115519   2.775   1.750   3.427
 5192TIP3    H215520   2.660   1.767   3.524
 5193TIP3   OH215521   7.914   1.153   6.397
 5193TIP3    H115522   7.922   1.142   6.302
 5193TIP3    H215523   7.851   1.087   6.424
 5194TIP3   OH215524   0.211   4.650   2.763
 5194TIP3    H115525   0.231   4.668   2.671
 5194TIP3    H215526   0.214   4.554   2.770
 5195TIP3   OH215527   3.944   6.976   2.342
 5195TIP3    H115528   3.874   6.920   2.377
 5195TIP3    H215529   4.008   6.981   2.414
 5196TIP3   OH215530   0.269   4.250   1.129
 5196TIP3    H115531   0.262   4.342   1.101
 5196TIP3    H215532   0.213   4.202   1.068
 5197TIP3   OH215533   6.745   5.326   2.202
 5197TIP3    H115534   6.823   5.298   2.248
 5197TIP3    H215535   6.674   5.316   2.265
 5198TIP3   OH215536   2.985   0.576   6.608
 5198TIP3    H115537   2.960   0.615   6.524
 5198TIP3    H215538   2.933   0.496   6.613
 5199TIP3   OH215539   1.771   2.154   1.997
 5199TIP3    H115540   1.805   2.148   2.087
 5199TIP3    H215541   1.785   2.067   1.960
 5200TIP3   OH215542   5.248   6.208   2.891
 5200TIP3    H115543   5.198   6.126   2.885
 5200TIP3    H215544   5.201   6.261   2.955
 5201TIP3   OH215545   7.194   6.060   2.649
 5201TIP3    H115546   7.150   6.066   2.734
 5201TIP3    H215547   7.160   6.135   2.600
 5202TIP3   OH215548   6.632   6.770   0.707
 5202TIP3    H115549   6.598   6.714   0.637
 5202TIP3    H215550   6.566   6.765   0.776
 5203TIP3   OH215551   3.605   0.864   6.475
 5203TIP3    H115552   3.613   0.957   6.457
 5203TIP3    H215553   3.694   0.831   6.473
 5204TIP3   OH215554   7.127   5.143   3.646
 5204TIP3    H115555   7.141   5.069   3.587
 5204TIP3    H215556   7.032   5.153   3.651
 5205TIP3   OH215557   0.777   2.606   1.350
 5205TIP3    H115558   0.702   2.599   1.410
 5205TIP3    H215559   0.784   2.699   1.331
 5206TIP3   OH215560   5.999   4.649   4.393
 5206TIP3    H115561   5.951   4.620   4.470
 5206TIP3    H215562   6.091   4.650   4.422
 5207TIP3   OH215563   1.001   3.744   0.608
 5207TIP3    H115564   1.044   3.738   0.693
 5207TIP3    H215565   0.914   3.707   0.622
 5208TIP3   OH215566   6.945   1.931   3.880
 5208TIP3    H115567   6.885   1.937   3.806
 5208TIP3    H215568   6.890   1.905   3.954
 5209TIP3   OH215569   1.305   1.341   1.473
 5209TIP3    H115570   1.302   1.421   1.420
 5209TIP3    H215571   1.325   1.272   1.410
 5210TIP3   OH215572   3.893   6.973   4.649
 5210TIP3    H115573   3.911   6.880   4.663
 5210TIP3    H215574   3.812   6.990   4.697
 5211TIP3   OH215575   5.326   5.950   0.077
 5211TIP3    H115576   5.293   5.903   0.154
 5211TIP3    H215577   5.394   5.893   0.042
 5212TIP3   OH215578   6.714   5.627   6.423
 5212TIP3    H115579   6.790   5.642   6.478
 5212TIP3    H215580   6.651   5.584   6.480
 5213TIP3   OH215581   2.738   2.799   3.506
 5213TIP3    H115582   2.696   2.733   3.452
 5213TIP3    H215583   2.680   2.808   3.582
 5214TIP3   OH215584   1.572   4.114   4.219
 5214TIP3    H115585   1.515   4.165   4.277
 5214TIP3    H215586   1.656   4.114   4.264
 5215TIP3   OH215587   1.294   7.385   0.082
 5215TIP3    H115588   1.352   7.357   0.011
 5215TIP3    H215589   1.288   7.480   0.071
 5216TIP3   OH215590   3.932   3.938   2.761
 5216TIP3    H115591   3.947   3.845   2.780
 5216TIP3    H215592   4.019   3.971   2.736
 5217TIP3   OH215593   1.199   1.292   4.534
 5217TIP3    H115594   1.152   1.375   4.543
 5217TIP3    H215595   1.213   1.262   4.624
 5218TIP3   OH215596   4.179   5.118   4.425
 5218TIP3    H115597   4.206   5.181   4.491
 5218TIP3    H215598   4.084   5.110   4.437
 5219TIP3   OH215599   1.583   5.229   3.779
 5219TIP3    H115600   1.648   5.257   3.715
 5219TIP3    H215601   1.614   5.144   3.810
 5220TIP3   OH215602   2.476   0.295   1.210
 5220TIP3    H115603   2.539   0.312   1.280
 5220TIP3    H215604   2.514   0.223   1.160
 5221TIP3   OH215605   6.470   3.598   3.179
 5221TIP3    H115606   6.496   3.648   3.256
 5221TIP3    H215607   6.377   3.580   3.191
 5222TIP3   OH215608   1.130   5.598   3.942
 5222TIP3    H115609   1.152   5.689   3.962
 5222TIP3    H215610   1.109   5.559   4.027
 5223TIP3   OH215611   4.986   0.863   6.567
 5223TIP3    H115612   4.989   0.949   6.527
 5223TIP3    H215613   4.926   0.872   6.641
 5224TIP3   OH215614   2.908   3.571   3.777
 5224TIP3    H115615   2.950   3.616   3.850
 5224TIP3    H215616   2.861   3.639   3.730
 5225TIP3   OH215617   6.721   1.040   4.221
 5225TIP3    H115618   6.675   1.015   4.301
 5225TIP3    H215619   6.769   0.962   4.195
 5226TIP3   OH215620   4.156   7.182   2.184
 5226TIP3    H115621   4.198   7.267   2.196
 5226TIP3    H215622   4.228   7.119   2.182
 5227TIP3   OH215623   4.867   3.312   3.815
 5227TIP3    H115624   4.846   3.329   3.906
 5227TIP3    H215625   4.899   3.221   3.814
 5228TIP3   OH215626   4.218   1.307   2.691
 5228TIP3    H115627   4.256   1.351   2.767
 5228TIP3    H215628   4.125   1.326   2.697
 5229TIP3   OH215629   5.577   2.583   5.714
 5229TIP3    H115630   5.552   2.514   5.776
 5229TIP3    H215631   5.615   2.651   5.769
 5230TIP3   OH215632   2.834   1.139   2.775
 5230TIP3    H115633   2.912   1.134   2.720
 5230TIP3    H215634   2.790   1.055   2.762
 5231TIP3   OH215635   4.640   3.394   6.520
 5231TIP3    H115636   4.721   3.342   6.524
 5231TIP3    H215637   4.582   3.345   6.462
 5232TIP3   OH215638   5.907   3.280   4.766
 5232TIP3    H115639   5.855   3.253   4.842
 5232TIP3    H215640   5.851   3.261   4.691
 5233TIP3   OH215641   3.926   6.891   4.956
 5233TIP3    H115642   3.894   6.832   5.025
 5233TIP3    H215643   3.882   6.974   4.973
 5234TIP3   OH215644   7.842   3.596   1.037
 5234TIP3    H115645   7.856   3.584   0.943
 5234TIP3    H215646   7.897   3.530   1.079
 5235TIP3   OH215647   2.247   0.897   6.039
 5235TIP3    H115648   2.250   0.984   6.000
 5235TIP3    H215649   2.298   0.842   5.979
 5236TIP3   OH215650   4.815   5.627   6.668
 5236TIP3    H115651   4.812   5.606   6.761
 5236TIP3    H215652   4.898   5.673   6.657
 5237TIP3   OH215653   2.490   4.540   4.560
 5237TIP3    H115654   2.549   4.598   4.607
 5237TIP3    H215655   2.542   4.508   4.486
 5238TIP3   OH215656   3.862   3.120   4.941
 5238TIP3    H115657   3.794   3.186   4.931
 5238TIP3    H215658   3.873   3.109   5.035
 5239TIP3   OH215659   2.939   6.280   5.397
 5239TIP3    H115660   2.879   6.355   5.388
 5239TIP3    H215661   2.929   6.253   5.489
 5240TIP3   OH215662   6.257   6.549   5.174
 5240TIP3    H115663   6.302   6.632   5.190
 5240TIP3    H215664   6.247   6.546   5.078
 5241TIP3   OH215665   6.596   5.746   4.413
 5241TIP3    H115666   6.523   5.697   4.451
 5241TIP3    H215667   6.673   5.692   4.429
 5242TIP3   OH215668   7.958   0.945   3.705
 5242TIP3    H115669   7.945   1.031   3.745
 5242TIP3    H215670   8.050   0.946   3.677
 5243TIP3   OH215671   2.360   4.982   4.691
 5243TIP3    H115672   2.275   4.992   4.648
 5243TIP3    H215673   2.384   4.891   4.678
 5244TIP3   OH215674   3.107   3.927   1.353
 5244TIP3    H115675   3.021   3.889   1.365
 5244TIP3    H215676   3.156   3.861   1.304
 5245TIP3   OH215677   2.307   3.937   1.989
 5245TIP3    H115678   2.273   4.002   2.050
 5245TIP3    H215679   2.308   3.855   2.038
 5246TIP3   OH215680   0.093   6.588   5.093
 5246TIP3    H115681   0.029   6.534   5.046
 5246TIP3    H215682   0.093   6.671   5.045
 5247TIP3   OH215683   8.163   0.476   1.673
 5247TIP3    H115684   8.227   0.464   1.603
 5247TIP3    H215685   8.174   0.567   1.700
 5248TIP3   OH215686   3.889   7.285   3.342
 5248TIP3    H115687   3.842   7.202   3.350
 5248TIP3    H215688   3.977   7.267   3.376
 5249TIP3   OH215689   2.716   2.063   4.759
 5249TIP3    H115690   2.668   2.062   4.842
 5249TIP3    H215691   2.763   1.979   4.758
 5250TIP3   OH215692   6.558   1.652   1.329
 5250TIP3    H115693   6.463   1.639   1.325
 5250TIP3    H215694   6.579   1.697   1.247
 5251TIP3   OH215695   1.809   1.755   1.517
 5251TIP3    H115696   1.760   1.796   1.446
 5251TIP3    H215697   1.894   1.734   1.478
 5252TIP3   OH215698   2.997   2.461   5.402
 5252TIP3    H115699   3.057   2.389   5.381
 5252TIP3    H215700   2.910   2.421   5.403
 5253TIP3   OH215701   4.527   0.289   5.299
 5253TIP3    H115702   4.567   0.332   5.224
 5253TIP3    H215703   4.433   0.294   5.283
 5254TIP3   OH215704   2.631   2.825   0.680
 5254TIP3    H115705   2.620   2.731   0.697
 5254TIP3    H215706   2.646   2.831   0.586
 5255TIP3   OH215707   6.546   5.941   1.330
 5255TIP3    H115708   6.483   5.996   1.284
 5255TIP3    H215709   6.578   5.880   1.263
 5256TIP3   OH215710   2.264   0.921   4.380
 5256TIP3    H115711   2.239   0.943   4.290
 5256TIP3    H215712   2.186   0.941   4.432
 5257TIP3   OH215713   3.856   3.288   6.135
 5257TIP3    H115714   3.887   3.198   6.147
 5257TIP3    H215715   3.919   3.327   6.075
 5258TIP3   OH215716   3.332   0.663   2.847
 5258TIP3    H115717   3.358   0.575   2.817
 5258TIP3    H215718   3.255   0.648   2.902
 5259TIP3   OH215719   3.269   1.448   6.325
 5259TIP3    H115720   3.257   1.507   6.400
 5259TIP3    H215721   3.191   1.393   6.325
 5260TIP3   OH215722   5.692   1.909   6.264
 5260TIP3    H115723   5.702   1.815   6.249
 5260TIP3    H215724   5.774   1.947   6.233
 5261TIP3   OH215725   4.294   3.414   6.216
 5261TIP3    H115726   4.339   3.461   6.287
 5261TIP3    H215727   4.227   3.362   6.259
 5262TIP3   OH215728   0.850   1.047   4.567
 5262TIP3    H115729   0.939   1.015   4.552
 5262TIP3    H215730   0.856   1.100   4.646
 5263TIP3   OH215731   5.717   0.465   5.348
 5263TIP3    H115732   5.704   0.387   5.293
 5263TIP3    H215733   5.792   0.444   5.403
 5264TIP3   OH215734   0.086   6.220   5.787
 5264TIP3    H115735   0.001   6.262   5.771
 5264TIP3    H215736   0.067   6.153   5.853
 5265TIP3   OH215737   3.137   0.288   5.422
 5265TIP3    H115738   3.214   0.316   5.372
 5265TIP3    H215739   3.139   0.193   5.417
 5266TIP3   OH215740   6.485   1.141   5.714
 5266TIP3    H115741   6.398   1.167   5.685
 5266TIP3    H215742   6.518   1.217   5.762
 5267TIP3   OH215743   5.467   2.195   0.208
 5267TIP3    H115744   5.387   2.143   0.218
 5267TIP3    H215745   5.494   2.215   0.298
 5268TIP3   OH215746   2.879   0.677   6.358
 5268TIP3    H115747   2.923   0.616   6.300
 5268TIP3    H215748   2.924   0.760   6.344
 5269TIP3   OH215749   3.233   6.132   0.181
 5269TIP3    H115750   3.294   6.191   0.224
 5269TIP3    H215751   3.283   6.052   0.166
 5270TIP3   OH215752   0.464   2.204   2.672
 5270TIP3    H115753   0.434   2.173   2.758
 5270TIP3    H215754   0.558   2.215   2.682
 5271TIP3   OH215755   2.102   5.814   4.338
 5271TIP3    H115756   2.101   5.724   4.371
 5271TIP3    H215757   2.147   5.807   4.253
 5272TIP3   OH215758   3.575   1.181   2.585
 5272TIP3    H115759   3.522   1.150   2.658
 5272TIP3    H215760   3.604   1.101   2.541
 5273TIP3   OH215761   4.001   6.032   6.754
 5273TIP3    H115762   3.945   6.029   6.831
 5273TIP3    H215763   3.988   5.948   6.711
 5274TIP3   OH215764   0.433   6.596   4.324
 5274TIP3    H115765   0.482   6.675   4.346
 5274TIP3    H215766   0.501   6.532   4.301
 5275TIP3   OH215767   6.414   4.875   2.186
 5275TIP3    H115768   6.497   4.913   2.160
 5275TIP3    H215769   6.438   4.801   2.242
 5276TIP3   OH215770   8.116   5.182   1.722
 5276TIP3    H115771   8.186   5.120   1.740
 5276TIP3    H215772   8.037   5.128   1.717
 5277TIP3   OH215773   0.046   0.333   3.848
 5277TIP3    H115774   0.014   0.266   3.787
 5277TIP3    H215775  -0.031   0.389   3.864
 5278TIP3   OH215776   4.998   5.252   1.745
 5278TIP3    H115777   5.090   5.234   1.763
 5278TIP3    H215778   4.976   5.194   1.673
 5279TIP3   OH215779   3.338   7.234   6.480
 5279TIP3    H115780   3.374   7.198   6.399
 5279TIP3    H215781   3.274   7.299   6.450
 5280TIP3   OH215782   6.036   2.821   1.044
 5280TIP3    H115783   6.093   2.786   1.113
 5280TIP3    H215784   6.061   2.913   1.037
 5281TIP3   OH215785   1.969   7.301   2.512
 5281TIP3    H115786   2.049   7.249   2.503
 5281TIP3    H215787   1.991   7.386   2.475
 5282TIP3   OH215788   3.311   3.017   0.291
 5282TIP3    H115789   3.285   2.927   0.269
 5282TIP3    H215790   3.235   3.070   0.266
 5283TIP3   OH215791   0.212   3.060   2.718
 5283TIP3    H115792   0.237   3.049   2.626
 5283TIP3    H215793   0.229   3.153   2.736
 5284TIP3   OH215794   1.557   0.498   5.629
 5284TIP3    H115795   1.477   0.447   5.636
 5284TIP3    H215796   1.602   0.462   5.553
 5285TIP3   OH215797   0.583   6.305   1.102
 5285TIP3    H115798   0.597   6.227   1.048
 5285TIP3    H215799   0.568   6.270   1.190
 5286TIP3   OH215800   5.368   0.662   3.595
 5286TIP3    H115801   5.360   0.579   3.641
 5286TIP3    H215802   5.413   0.640   3.514
 5287TIP3   OH215803   4.182   0.201   3.170
 5287TIP3    H115804   4.112   0.199   3.235
 5287TIP3    H215805   4.242   0.269   3.201
 5288TIP3   OH215806   0.325   1.044   2.668
 5288TIP3    H115807   0.232   1.019   2.669
 5288TIP3    H215808   0.336   1.092   2.585
 5289TIP3   OH215809   1.725   6.040   1.695
 5289TIP3    H115810   1.710   5.952   1.729
 5289TIP3    H215811   1.760   6.089   1.770
 5290TIP3   OH215812   0.834   3.287   2.457
 5290TIP3    H115813   0.786   3.273   2.539
 5290TIP3    H215814   0.772   3.260   2.389
 5291TIP3   OH215815   2.905   2.286   4.659
 5291TIP3    H115816   2.863   2.208   4.622
 5291TIP3    H215817   2.990   2.290   4.615
 5292TIP3   OH215818   2.505   7.050   5.426
 5292TIP3    H115819   2.414   7.042   5.396
 5292TIP3    H215820   2.531   6.961   5.448
 5293TIP3   OH215821   6.748   0.772   2.497
 5293TIP3    H115822   6.691   0.847   2.511
 5293TIP3    H215823   6.743   0.755   2.403
 5294TIP3   OH215824   3.469   3.401   4.179
 5294TIP3    H115825   3.383   3.385   4.139
 5294TIP3    H215826   3.516   3.318   4.168
 5295TIP3   OH215827   6.891   2.750   1.194
 5295TIP3    H115828   6.969   2.805   1.185
 5295TIP3    H215829   6.838   2.794   1.260
 5296TIP3   OH215830   4.826   5.913   0.549
 5296TIP3    H115831   4.767   5.879   0.616
 5296TIP3    H215832   4.814   6.008   0.554
 5297TIP3   OH215833   0.245   1.930   1.461
 5297TIP3    H115834   0.275   1.841   1.481
 5297TIP3    H215835   0.306   1.987   1.508
 5298TIP3   OH215836   6.895   5.092   4.857
 5298TIP3    H115837   6.924   5.183   4.848
 5298TIP3    H215838   6.833   5.080   4.784
 5299TIP3   OH215839   2.877   6.848   4.713
 5299TIP3    H115840   2.844   6.758   4.713
 5299TIP3    H215841   2.938   6.852   4.787
 5300TIP3   OH215842   5.602   2.790   0.525
 5300TIP3    H115843   5.671   2.833   0.476
 5300TIP3    H215844   5.566   2.726   0.464
 5301TIP3   OH215845   8.114   0.618   0.643
 5301TIP3    H115846   8.073   0.704   0.644
 5301TIP3    H215847   8.160   0.613   0.559
 5302TIP3   OH215848   6.868   0.958   0.514
 5302TIP3    H115849   6.894   0.910   0.592
 5302TIP3    H215850   6.898   0.905   0.440
 5303TIP3   OH215851   2.686   6.904   2.051
 5303TIP3    H115852   2.597   6.880   2.077
 5303TIP3    H215853   2.695   6.995   2.079
 5304TIP3   OH215854   1.261   3.499   5.568
 5304TIP3    H115855   1.357   3.496   5.576
 5304TIP3    H215856   1.243   3.586   5.532
 5305TIP3   OH215857   6.535   6.041   4.021
 5305TIP3    H115858   6.576   6.104   4.081
 5305TIP3    H215859   6.476   5.990   4.077
 5306TIP3   OH215860   3.260   1.715   0.288
 5306TIP3    H115861   3.204   1.638   0.280
 5306TIP3    H215862   3.201   1.789   0.278
 5307TIP3   OH215863   2.281   5.664   4.998
 5307TIP3    H115864   2.261   5.624   4.914
 5307TIP3    H215865   2.271   5.758   4.983
 5308TIP3   OH215866   1.444   1.341   2.638
 5308TIP3    H115867   1.412   1.276   2.701
 5308TIP3    H215868   1.482   1.288   2.567
 5309TIP3   OH215869   2.584   0.694   6.145
 5309TIP3    H115870   2.583   0.687   6.240
 5309TIP3    H215871   2.676   0.678   6.121
 5310TIP3   OH215872   1.798   0.243   4.382
 5310TIP3    H115873   1.878   0.213   4.340
 5310TIP3    H215874   1.812   0.228   4.475
 5311TIP3   OH215875   6.229   1.039   3.069
 5311TIP3    H115876   6.262   0.971   3.010
 5311TIP3    H215877   6.280   1.117   3.048
 5312TIP3   OH215878   4.089   4.764   4.973
 5312TIP3    H115879   4.113   4.744   5.064
 5312TIP3    H215880   4.083   4.859   4.970
 5313TIP3   OH215881   3.309   3.063   1.090
 5313TIP3    H115882   3.390   3.013   1.092
 5313TIP3    H215883   3.264   3.033   1.011
 5314TIP3   OH215884   6.069   5.371   1.668
 5314TIP3    H115885   6.089   5.278   1.656
 5314TIP3    H215886   6.146   5.417   1.633
 5315TIP3   OH215887   2.286   4.334   3.435
 5315TIP3    H115888   2.219   4.398   3.410
 5315TIP3    H215889   2.319   4.366   3.520
 5316TIP3   OH215890   0.500   0.531   2.718
 5316TIP3    H115891   0.473   0.485   2.798
 5316TIP3    H215892   0.467   0.476   2.647
 5317TIP3   OH215893   3.275   6.479   3.749
 5317TIP3    H115894   3.368   6.475   3.772
 5317TIP3    H215895   3.269   6.429   3.667
 5318TIP3   OH215896   2.723   6.562   0.516
 5318TIP3    H115897   2.659   6.492   0.506
 5318TIP3    H215898   2.771   6.540   0.596
 5319TIP3   OH215899   2.476   3.767   4.758
 5319TIP3    H115900   2.566   3.793   4.779
 5319TIP3    H215901   2.486   3.694   4.697
 5320TIP3   OH215902   7.689   6.028   1.395
 5320TIP3    H115903   7.709   6.002   1.485
 5320TIP3    H215904   7.764   6.082   1.369
 5321TIP3   OH215905   1.120   1.043   6.489
 5321TIP3    H115906   1.081   1.114   6.539
 5321TIP3    H215907   1.049   1.013   6.432
 5322TIP3   OH215908   7.171   6.801   0.042
 5322TIP3    H115909   7.085   6.778   0.009
 5322TIP3    H215910   7.214   6.717   0.058
 5323TIP3   OH215911   2.294   1.746   2.541
 5323TIP3    H115912   2.243   1.826   2.557
 5323TIP3    H215913   2.231   1.685   2.503
 5324TIP3   OH215914   0.758   2.272   1.267
 5324TIP3    H115915   0.724   2.351   1.224
 5324TIP3    H215916   0.704   2.262   1.345
 5325TIP3   OH215917   1.195   6.123   5.957
 5325TIP3    H115918   1.263   6.062   5.929
 5325TIP3    H215919   1.114   6.073   5.950
 5326TIP3   OH215920   3.672   6.416   4.106
 5326TIP3    H115921   3.732   6.389   4.176
 5326TIP3    H215922   3.717   6.488   4.062
 5327TIP3   OH215923   5.824   0.582   1.929
 5327TIP3    H115924   5.780   0.552   1.849
 5327TIP3    H215925   5.753   0.588   1.994
 5328TIP3   OH215926   6.373   7.727   1.393
 5328TIP3    H115927   6.374   7.679   1.476
 5328TIP3    H215928   6.286   7.769   1.391
 5329TIP3   OH215929   1.077   7.069   2.729
 5329TIP3    H115930   1.114   6.990   2.769
 5329TIP3    H215931   1.091   7.138   2.795
 5330TIP3   OH215932   1.912   3.447   1.453
 5330TIP3    H115933   1.832   3.396   1.467
 5330TIP3    H215934   1.953   3.452   1.540
 5331TIP3   OH215935   2.721   6.493   5.415
 5331TIP3    H115936   2.783   6.559   5.384
 5331TIP3    H215937   2.641   6.509   5.365
 5332TIP3   OH215938   1.479   7.261   5.027
 5332TIP3    H115939   1.490   7.178   4.979
 5332TIP3    H215940   1.563   7.306   5.016
 5333TIP3   OH215941   0.979   2.105   0.156
 5333TIP3    H115942   0.968   2.151   0.072
 5333TIP3    H215943   1.015   2.171   0.215
 5334TIP3   OH215944   7.738   3.211   4.965
 5334TIP3    H115945   7.830   3.196   4.946
 5334TIP3    H215946   7.723   3.302   4.941
 5335TIP3   OH215947   5.197   4.400   4.762
 5335TIP3    H115948   5.275   4.424   4.712
 5335TIP3    H215949   5.225   4.327   4.816
 5336TIP3   OH215950   2.673   2.428   0.473
 5336TIP3    H115951   2.671   2.348   0.420
 5336TIP3    H215952   2.727   2.404   0.549
 5337TIP3   OH215953   0.252   6.758   3.022
 5337TIP3    H115954   0.175   6.739   2.968
 5337TIP3    H215955   0.309   6.810   2.965
 5338TIP3   OH215956   4.289   2.208   1.602
 5338TIP3    H115957   4.196   2.218   1.623
 5338TIP3    H215958   4.333   2.226   1.685
 5339TIP3   OH215959   7.213   3.232   1.752
 5339TIP3    H115960   7.305   3.234   1.726
 5339TIP3    H215961   7.164   3.251   1.671
 5340TIP3   OH215962   7.013   3.800   5.969
 5340TIP3    H115963   7.004   3.849   5.887
 5340TIP3    H215964   6.963   3.851   6.033
 5341TIP3   OH215965   1.052   0.444   4.811
 5341TIP3    H115966   1.140   0.425   4.781
 5341TIP3    H215967   0.998   0.372   4.778
 5342TIP3   OH215968   4.044   5.704   2.892
 5342TIP3    H115969   3.959   5.669   2.918
 5342TIP3    H215970   4.096   5.703   2.972
 5343TIP3   OH215971   0.682   4.113   3.923
 5343TIP3    H115972   0.592   4.099   3.953
 5343TIP3    H215973   0.674   4.174   3.850
 5344TIP3   OH215974   3.066   4.404   5.108
 5344TIP3    H115975   3.106   4.317   5.117
 5344TIP3    H215976   3.047   4.411   5.014
 5345TIP3   OH215977   6.283   1.280   5.624
 5345TIP3    H115978   6.194   1.264   5.655
 5345TIP3    H215979   6.272   1.332   5.544
 5346TIP3   OH215980   3.803   3.659   0.956
 5346TIP3    H115981   3.716   3.667   0.919
 5346TIP3    H215982   3.860   3.709   0.897
 5347TIP3   OH215983   4.539   3.033   2.893
 5347TIP3    H115984   4.592   3.035   2.973
 5347TIP3    H215985   4.580   2.965   2.840
 5348TIP3   OH215986   5.517   6.654   5.930
 5348TIP3    H115987   5.514   6.731   5.987
 5348TIP3    H215988   5.543   6.582   5.987
 5349TIP3   OH215989   4.646   2.659   3.649
 5349TIP3    H115990   4.636   2.688   3.740
 5349TIP3    H215991   4.611   2.569   3.649
 5350TIP3   OH215992   6.073   7.497   5.382
 5350TIP3    H115993   6.150   7.452   5.417
 5350TIP3    H215994   6.016   7.509   5.458
 5351TIP3   OH215995   5.064   7.627   2.784
 5351TIP3    H115996   5.078   7.556   2.847
 5351TIP3    H215997   5.113   7.701   2.820
 5352TIP3   OH215998   5.954   3.816   0.161
 5352TIP3    H115999   5.991   3.891   0.115
 5352TIP3    H216000   5.872   3.797   0.115
 5353TIP3   OH216001   5.230   3.503   2.334
 5353TIP3    H116002   5.212   3.558   2.257
 5353TIP3    H216003   5.147   3.501   2.381
 5354TIP3   OH216004   5.543   7.080   5.034
 5354TIP3    H116005   5.578   7.050   4.950
 5354TIP3    H216006   5.620   7.089   5.091
 5355TIP3   OH216007   3.714   3.727   3.458
 5355TIP3    H116008   3.627   3.716   3.497
 5355TIP3    H216009   3.725   3.651   3.402
 5356TIP3   OH216010   4.833   3.954   5.893
 5356TIP3    H116011   4.893   3.887   5.926
 5356TIP3    H216012   4.844   4.028   5.953
 5357TIP3   OH216013   1.572   2.676   0.889
 5357TIP3    H116014   1.546   2.765   0.911
 5357TIP3    H216015   1.558   2.626   0.970
 5358TIP3   OH216016   1.525   6.552   1.560
 5358TIP3    H116017   1.594   6.617   1.574
 5358TIP3    H216018   1.472   6.557   1.639
 5359TIP3   OH216019   7.413   1.133   4.619
 5359TIP3    H116020   7.377   1.220   4.607
 5359TIP3    H216021   7.404   1.115   4.712
 5360TIP3   OH216022   7.626   7.089   2.318
 5360TIP3    H116023   7.607   7.001   2.352
 5360TIP3    H216024   7.575   7.094   2.237
 5361TIP3   OH216025   6.130   2.294   2.244
 5361TIP3    H116026   6.223   2.283   2.264
 5361TIP3    H216027   6.085   2.267   2.325
 5362TIP3   OH216028   6.448   4.507   4.154
 5362TIP3    H116029   6.402   4.432   4.118
 5362TIP3    H216030   6.431   4.503   4.248
 5363TIP3   OH216031   5.265   3.772   2.581
 5363TIP3    H116032   5.188   3.811   2.623
 5363TIP3    H216033   5.254   3.793   2.488
 5364TIP3   OH216034   4.280   0.832   0.836
 5364TIP3    H116035   4.203   0.886   0.856
 5364TIP3    H216036   4.340   0.846   0.909
 5365TIP3   OH216037   5.897   5.852   0.116
 5365TIP3    H116038   5.871   5.761   0.107
 5365TIP3    H216039   5.822   5.894   0.158
 5366TIP3   OH216040   6.224   5.912   2.952
 5366TIP3    H116041   6.250   5.924   2.861
 5366TIP3    H216042   6.278   5.838   2.983
 5367TIP3   OH216043   1.284   2.478   1.477
 5367TIP3    H116044   1.309   2.429   1.398
 5367TIP3    H216045   1.191   2.459   1.489
 5368TIP3   OH216046   0.168   7.552   5.984
 5368TIP3    H116047   0.088   7.537   6.036
 5368TIP3    H216048   0.145   7.521   5.896
 5369TIP3   OH216049   5.957   6.796   0.788
 5369TIP3    H116050   5.916   6.808   0.874
 5369TIP3    H216051   5.967   6.701   0.780
 5370TIP3   OH216052   2.770   2.725   1.569
 5370TIP3    H116053   2.836   2.674   1.522
 5370TIP3    H216054   2.732   2.782   1.503
 5371TIP3   OH216055   6.017   4.520   3.675
 5371TIP3    H116056   6.087   4.483   3.621
 5371TIP3    H216057   6.044   4.504   3.765
 5372TIP3   OH216058   3.750   0.317   6.246
 5372TIP3    H116059   3.801   0.298   6.167
 5372TIP3    H216060   3.659   0.310   6.218
 5373TIP3   OH216061   1.131   1.547   5.364
 5373TIP3    H116062   1.163   1.552   5.453
 5373TIP3    H216063   1.179   1.475   5.324
 5374TIP3   OH216064   2.402   2.958   3.371
 5374TIP3    H116065   2.449   2.907   3.305
 5374TIP3    H216066   2.325   2.991   3.326
 5375TIP3   OH216067   4.923   6.546   5.040
 5375TIP3    H116068   4.908   6.538   4.946
 5375TIP3    H216069   4.849   6.597   5.072
 5376TIP3   OH216070   5.498   1.485   5.104
 5376TIP3    H116071   5.537   1.550   5.162
 5376TIP3    H216072   5.498   1.404   5.155
 5377TIP3   OH216073   1.329   5.115   4.827
 5377TIP3    H116074   1.273   5.129   4.903
 5377TIP3    H216075   1.383   5.039   4.850
 5378TIP3   OH216076   3.881   0.978   6.023
 5378TIP3    H116077   3.826   0.961   6.100
 5378TIP3    H216078   3.830   1.041   5.971
 5379TIP3   OH216079   6.819   4.736   1.452
 5379TIP3    H116080   6.896   4.703   1.406
 5379TIP3    H216081   6.754   4.751   1.383
 5380TIP3   OH216082   7.014   2.191   4.017
 5380TIP3    H116083   7.007   2.101   3.985
 5380TIP3    H216084   7.062   2.237   3.948
 5381TIP3   OH216085   4.191   1.247   1.455
 5381TIP3    H116086   4.265   1.281   1.505
 5381TIP3    H216087   4.221   1.246   1.364
 5382TIP3   OH216088   2.154   7.374   0.994
 5382TIP3    H116089   2.201   7.413   0.920
 5382TIP3    H216090   2.111   7.297   0.958
 5383TIP3   OH216091   2.793   7.764   1.204
 5383TIP3    H116092   2.718   7.710   1.229
 5383TIP3    H216093   2.825   7.725   1.123
 5384TIP3   OH216094   3.668   3.568   5.793
 5384TIP3    H116095   3.715   3.640   5.752
 5384TIP3    H216096   3.592   3.610   5.835
 5385TIP3   OH216097   2.721   2.960   5.219
 5385TIP3    H116098   2.810   2.949   5.252
 5385TIP3    H216099   2.676   2.880   5.245
 5386TIP3   OH216100   0.098   1.965   1.736
 5386TIP3    H116101   0.113   2.029   1.805
 5386TIP3    H216102   0.099   2.017   1.655
 5387TIP3   OH216103   7.239   0.074   0.599
 5387TIP3    H116104   7.151   0.051   0.627
 5387TIP3    H216105   7.233   0.165   0.572
 5388TIP3   OH216106   1.483   3.850   4.441
 5388TIP3    H116107   1.425   3.794   4.492
 5388TIP3    H216108   1.454   3.840   4.351
 5389TIP3   OH216109   4.247   4.967   4.723
 5389TIP3    H116110   4.288   5.048   4.691
 5389TIP3    H216111   4.295   4.945   4.802
 5390TIP3   OH216112   4.693   7.736   5.794
 5390TIP3    H116113   4.628   7.734   5.724
 5390TIP3    H216114   4.770   7.776   5.753
 5391TIP3   OH216115   4.818   5.205   5.957
 5391TIP3    H116116   4.840   5.183   6.047
 5391TIP3    H216117   4.894   5.176   5.906
 5392TIP3   OH216118   5.612   5.890   1.819
 5392TIP3    H116119   5.686   5.830   1.814
 5392TIP3    H216120   5.620   5.943   1.740
 5393TIP3   OH216121   1.407   1.456   1.214
 5393TIP3    H116122   1.422   1.375   1.167
 5393TIP3    H216123   1.331   1.495   1.170
 5394TIP3   OH216124   3.428   5.488   3.913
 5394TIP3    H116125   3.333   5.491   3.903
 5394TIP3    H216126   3.442   5.489   4.008
 5395TIP3   OH216127   2.176   7.001   5.470
 5395TIP3    H116128   2.146   6.930   5.413
 5395TIP3    H216129   2.096   7.046   5.497
 5396TIP3   OH216130   0.379   5.613   4.255
 5396TIP3    H116131   0.407   5.645   4.170
 5396TIP3    H216132   0.361   5.520   4.241
 5397TIP3   OH216133   5.884   7.801   1.379
 5397TIP3    H116134   5.839   7.753   1.309
 5397TIP3    H216135   5.819   7.809   1.448
 5398TIP3   OH216136   0.228   5.267   0.565
 5398TIP3    H116137   0.215   5.356   0.533
 5398TIP3    H216138   0.214   5.273   0.660
 5399TIP3   OH216139   0.618   3.440   5.446
 5399TIP3    H116140   0.648   3.365   5.497
 5399TIP3    H216141   0.683   3.508   5.463
 5400TIP3   OH216142   2.055   1.998   5.639
 5400TIP3    H116143   2.025   2.086   5.664
 5400TIP3    H216144   2.010   1.940   5.700
 5401TIP3   OH216145   6.552   2.384   6.755
 5401TIP3    H116146   6.580   2.300   6.792
 5401TIP3    H216147   6.590   2.450   6.813
 5402TIP3   OH216148   7.702   6.243   3.755
 5402TIP3    H116149   7.752   6.241   3.673
 5402TIP3    H216150   7.656   6.159   3.756
 5403TIP3   OH216151   7.765   2.841  -0.001
 5403TIP3    H116152   7.842   2.859   0.053
 5403TIP3    H216153   7.707   2.916   0.013
 5404TIP3   OH216154   4.343   2.874   1.874
 5404TIP3    H116155   4.390   2.822   1.939
 5404TIP3    H216156   4.408   2.893   1.807
 5405TIP3   OH216157   6.433   2.264   1.657
 5405TIP3    H116158   6.525   2.244   1.670
 5405TIP3    H216159   6.387   2.208   1.720
 5406TIP3   OH216160   1.142   0.667   5.960
 5406TIP3    H116161   1.164   0.671   5.867
 5406TIP3    H216162   1.124   0.758   5.985
 5407TIP3   OH216163   5.565   3.481   1.814
 5407TIP3    H116164   5.556   3.425   1.737
 5407TIP3    H216165   5.503   3.553   1.800
 5408TIP3   OH216166   5.778   5.315   3.994
 5408TIP3    H116167   5.843   5.313   3.924
 5408TIP3    H216168   5.704   5.364   3.957
 5409TIP3   OH216169   6.427   0.154   0.134
 5409TIP3    H116170   6.514   0.195   0.131
 5409TIP3    H216171   6.398   0.166   0.224
 5410TIP3   OH216172   4.921   1.624   2.388
 5410TIP3    H116173   4.930   1.632   2.482
 5410TIP3    H216174   4.996   1.570   2.361
 5411TIP3   OH216175   8.242   5.371   3.038
 5411TIP3    H116176   8.147   5.372   3.048
 5411TIP3    H216177   8.275   5.366   3.128
 5412TIP3   OH216178   5.091   7.753   1.817
 5412TIP3    H116179   5.160   7.819   1.820
 5412TIP3    H216180   5.127   7.679   1.867
 5413TIP3   OH216181   7.683   0.235   1.048
 5413TIP3    H116182   7.632   0.305   1.090
 5413TIP3    H216183   7.766   0.234   1.096
 5414TIP3   OH216184   3.411   3.418   5.194
 5414TIP3    H116185   3.423   3.480   5.267
 5414TIP3    H216186   3.442   3.466   5.117
 5415TIP3   OH216187   5.560   0.685   6.541
 5415TIP3    H116188   5.531   0.653   6.627
 5415TIP3    H216189   5.483   0.680   6.486
 5416TIP3   OH216190   7.131   1.742   3.971
 5416TIP3    H116191   7.079   1.822   3.964
 5416TIP3    H216192   7.080   1.676   3.922
 5417TIP3   OH216193   1.108   3.744   1.451
 5417TIP3    H116194   1.151   3.805   1.511
 5417TIP3    H216195   1.109   3.660   1.498
 5418TIP3   OH216196   4.401   1.138   2.551
 5418TIP3    H116197   4.360   1.177   2.628
 5418TIP3    H216198   4.459   1.207   2.518
 5419TIP3   OH216199   2.695   0.817   4.966
 5419TIP3    H116200   2.639   0.739   4.970
 5419TIP3    H216201   2.684   0.849   4.876
 5420TIP3   OH216202   2.097   1.972   3.390
 5420TIP3    H116203   2.187   1.945   3.408
 5420TIP3    H216204   2.094   2.064   3.416
 5421TIP3   OH216205   0.096   7.200   6.293
 5421TIP3    H116206   0.166   7.190   6.228
 5421TIP3    H216207   0.024   7.147   6.259
 5422TIP3   OH216208   5.685   1.773   0.131
 5422TIP3    H116209   5.606   1.737   0.090
 5422TIP3    H216210   5.656   1.802   0.218
 5423TIP3   OH216211   6.570   6.617   5.901
 5423TIP3    H116212   6.492   6.568   5.874
 5423TIP3    H216213   6.541   6.708   5.901
 5424TIP3   OH216214   0.962   7.230   0.350
 5424TIP3    H116215   0.996   7.238   0.261
 5424TIP3    H216216   1.040   7.225   0.405
 5425TIP3   OH216217   1.737   6.186   3.521
 5425TIP3    H116218   1.806   6.248   3.545
 5425TIP3    H216219   1.655   6.232   3.540
 5426TIP3   OH216220   5.418   2.627   0.374
 5426TIP3    H116221   5.354   2.637   0.304
 5426TIP3    H216222   5.395   2.545   0.417
 5427TIP3   OH216223   2.687   3.957   3.969
 5427TIP3    H116224   2.716   4.012   3.896
 5427TIP3    H216225   2.715   4.005   4.047
 5428TIP3   OH216226   6.509   6.459   6.363
 5428TIP3    H116227   6.473   6.429   6.447
 5428TIP3    H216228   6.497   6.385   6.304
 5429TIP3   OH216229   1.944   5.821   0.659
 5429TIP3    H116230   1.865   5.806   0.607
 5429TIP3    H216231   1.922   5.786   0.746
 5430TIP3   OH216232   0.303   2.759   1.462
 5430TIP3    H116233   0.351   2.712   1.394
 5430TIP3    H216234   0.321   2.710   1.542
 5431TIP3   OH216235   1.648   5.476   6.359
 5431TIP3    H116236   1.642   5.546   6.293
 5431TIP3    H216237   1.743   5.461   6.368
 5432TIP3   OH216238   3.780   5.624   3.017
 5432TIP3    H116239   3.705   5.674   2.985
 5432TIP3    H216240   3.767   5.536   2.982
 5433TIP3   OH216241   4.454   7.125   2.994
 5433TIP3    H116242   4.387   7.121   3.062
 5433TIP3    H216243   4.513   7.195   3.022
 5434TIP3   OH216244   3.511   6.733   3.940
 5434TIP3    H116245   3.469   6.779   4.013
 5434TIP3    H216246   3.585   6.789   3.917
 5435TIP3   OH216247   4.631   6.240   1.475
 5435TIP3    H116248   4.696   6.235   1.545
 5435TIP3    H216249   4.662   6.310   1.418
 5436TIP3   OH216250   1.719   0.104   3.903
 5436TIP3    H116251   1.680   0.058   3.978
 5436TIP3    H216252   1.649   0.107   3.838
 5437TIP3   OH216253   5.892   1.540   2.266
 5437TIP3    H116254   5.883   1.543   2.361
 5437TIP3    H216255   5.896   1.447   2.245
 5438TIP3   OH216256   0.828   7.607   3.927
 5438TIP3    H116257   0.879   7.620   4.007
 5438TIP3    H216258   0.821   7.695   3.889
 5439TIP3   OH216259   3.206   3.581   0.521
 5439TIP3    H116260   3.227   3.534   0.602
 5439TIP3    H216261   3.234   3.521   0.451
 5440TIP3   OH216262   4.045   7.007   5.933
 5440TIP3    H116263   4.043   6.956   6.014
 5440TIP3    H216264   4.097   6.955   5.872
 5441TIP3   OH216265   4.031   2.253   1.640
 5441TIP3    H116266   4.016   2.345   1.662
 5441TIP3    H216267   4.007   2.205   1.719
 5442TIP3   OH216268   4.779   3.020   1.786
 5442TIP3    H116269   4.790   3.001   1.879
 5442TIP3    H216270   4.863   2.997   1.747
 5443TIP3   OH216271   4.196   0.203   3.931
 5443TIP3    H116272   4.164   0.116   3.910
 5443TIP3    H216273   4.269   0.217   3.870
 5444TIP3   OH216274   5.660   0.491   3.135
 5444TIP3    H116275   5.703   0.552   3.075
 5444TIP3    H216276   5.730   0.435   3.166
 5445TIP3   OH216277   6.352   4.603   2.372
 5445TIP3    H116278   6.442   4.632   2.390
 5445TIP3    H216279   6.297   4.668   2.416
 5446TIP3   OH216280   2.556   5.914   4.765
 5446TIP3    H116281   2.532   5.822   4.761
 5446TIP3    H216282   2.494   5.952   4.828
 5447TIP3   OH216283   4.575   4.928   0.182
 5447TIP3    H116284   4.649   4.911   0.124
 5447TIP3    H216285   4.498   4.921   0.127
 5448TIP3   OH216286   3.608   6.907   1.080
 5448TIP3    H116287   3.579   6.945   0.998
 5448TIP3    H216288   3.579   6.816   1.077
 5449TIP3   OH216289   4.054   1.102   0.669
 5449TIP3    H116290   4.013   1.094   0.755
 5449TIP3    H216291   4.062   1.012   0.638
 5450TIP3   OH216292   1.616   0.880   2.830
 5450TIP3    H116293   1.588   0.904   2.742
 5450TIP3    H216294   1.576   0.946   2.887
 5451TIP3   OH216295   0.148   7.233   6.658
 5451TIP3    H116296   0.152   7.327   6.671
 5451TIP3    H216297   0.177   7.196   6.742
 5452TIP3   OH216298   1.271   5.357   2.383
 5452TIP3    H116299   1.308   5.433   2.426
 5452TIP3    H216300   1.335   5.333   2.316
 5453TIP3   OH216301   8.251   0.264   0.934
 5453TIP3    H116302   8.322   0.203   0.956
 5453TIP3    H216303   8.252   0.267   0.838
 5454TIP3   OH216304   4.605   3.728   6.040
 5454TIP3    H116305   4.513   3.737   6.062
 5454TIP3    H216306   4.616   3.636   6.016
 5455TIP3   OH216307  -0.022   5.734   3.662
 5455TIP3    H116308   0.056   5.790   3.668
 5455TIP3    H216309  -0.054   5.747   3.573
 5456TIP3   OH216310   5.551   3.606   6.512
 5456TIP3    H116311   5.586   3.533   6.562
 5456TIP3    H216312   5.486   3.646   6.570
 5457TIP3   OH216313   4.405   0.878   6.442
 5457TIP3    H116314   4.491   0.921   6.443
 5457TIP3    H216315   4.391   0.850   6.532
 5458TIP3   OH216316   3.228   3.907   6.709
 5458TIP3    H116317   3.263   3.990   6.677
 5458TIP3    H216318   3.234   3.848   6.633
 5459TIP3   OH216319   4.503   6.738   5.963
 5459TIP3    H116320   4.460   6.678   6.024
 5459TIP3    H216321   4.568   6.683   5.918
 5460TIP3   OH216322   5.188   4.035   6.095
 5460TIP3    H116323   5.278   4.011   6.074
 5460TIP3    H216324   5.156   4.077   6.015
 5461TIP3   OH216325   4.174   3.577   5.249
 5461TIP3    H116326   4.174   3.670   5.225
 5461TIP3    H216327   4.083   3.550   5.240
 5462TIP3   OH216328   0.519   2.425   6.507
 5462TIP3    H116329   0.509   2.427   6.602
 5462TIP3    H216330   0.602   2.470   6.490
 5463TIP3   OH216331   7.078   6.159   6.229
 5463TIP3    H116332   7.116   6.241   6.262
 5463TIP3    H216333   7.123   6.143   6.146
 5464TIP3   OH216334   6.656   7.038   1.869
 5464TIP3    H116335   6.574   7.087   1.874
 5464TIP3    H216336   6.720   7.101   1.839
 5465TIP3   OH216337   3.162   2.240   4.528
 5465TIP3    H116338   3.164   2.206   4.439
 5465TIP3    H216339   3.224   2.185   4.576
 5466TIP3   OH216340   0.607   7.655   4.368
 5466TIP3    H116341   0.556   7.635   4.447
 5466TIP3    H216342   0.685   7.601   4.375
 5467TIP3   OH216343   1.570   3.506   1.602
 5467TIP3    H116344   1.566   3.590   1.647
 5467TIP3    H216345   1.628   3.452   1.656
 5468TIP3   OH216346   2.874   3.055   6.404
 5468TIP3    H116347   2.928   2.977   6.415
 5468TIP3    H216348   2.799   3.042   6.462
 5469TIP3   OH216349   2.786   1.025   1.267
 5469TIP3    H116350   2.792   0.940   1.309
 5469TIP3    H216351   2.844   1.082   1.318
 5470TIP3   OH216352   7.866   2.498   6.102
 5470TIP3    H116353   7.885   2.585   6.066
 5470TIP3    H216354   7.904   2.437   6.039
 5471TIP3   OH216355   2.130   5.250   0.809
 5471TIP3    H116356   2.151   5.163   0.776
 5471TIP3    H216357   2.203   5.271   0.868
 5472TIP3   OH216358   4.042   1.109   6.234
 5472TIP3    H116359   3.991   1.050   6.178
 5472TIP3    H216360   4.114   1.138   6.178
 5473TIP3   OH216361   5.736   5.085   2.939
 5473TIP3    H116362   5.812   5.143   2.931
 5473TIP3    H216363   5.766   5.000   2.908
 5474TIP3   OH216364   4.231   2.788   0.408
 5474TIP3    H116365   4.297   2.729   0.445
 5474TIP3    H216366   4.281   2.861   0.371
 5475TIP3   OH216367   5.080   0.794   0.109
 5475TIP3    H116368   4.987   0.788   0.088
 5475TIP3    H216369   5.102   0.886   0.094
 5476TIP3   OH216370   7.617   2.868   1.393
 5476TIP3    H116371   7.527   2.885   1.422
 5476TIP3    H216372   7.622   2.909   1.307
 5477TIP3   OH216373   5.096   5.323   3.696
 5477TIP3    H116374   5.111   5.266   3.620
 5477TIP3    H216375   5.038   5.272   3.752
 5478TIP3   OH216376   2.088   3.278   2.394
 5478TIP3    H116377   2.116   3.365   2.366
 5478TIP3    H216378   2.107   3.276   2.488
 5479TIP3   OH216379   2.767   4.430   0.468
 5479TIP3    H116380   2.757   4.355   0.526
 5479TIP3    H216381   2.862   4.445   0.464
 5480TIP3   OH216382   4.597   6.926   2.873
 5480TIP3    H116383   4.567   6.999   2.927
 5480TIP3    H216384   4.671   6.962   2.823
 5481TIP3   OH216385   5.158   4.362   1.982
 5481TIP3    H116386   5.188   4.288   2.035
 5481TIP3    H216387   5.229   4.377   1.920
 5482TIP3   OH216388   2.887   4.730   0.876
 5482TIP3    H116389   2.944   4.665   0.835
 5482TIP3    H216390   2.916   4.734   0.967
 5483TIP3   OH216391   7.335   4.515   3.725
 5483TIP3    H116392   7.315   4.457   3.799
 5483TIP3    H216393   7.377   4.459   3.660
 5484TIP3   OH216394   4.007   6.618   1.944
 5484TIP3    H116395   3.961   6.563   1.880
 5484TIP3    H216396   4.022   6.701   1.899
 5485TIP3   OH216397   6.902   0.815   1.548
 5485TIP3    H116398   6.915   0.903   1.583
 5485TIP3    H216399   6.959   0.759   1.601
 5486TIP3   OH216400   5.494   3.535   3.522
 5486TIP3    H116401   5.424   3.591   3.489
 5486TIP3    H216402   5.571   3.559   3.470
 5487TIP3   OH216403   1.041   2.190   4.375
 5487TIP3    H116404   1.003   2.119   4.324
 5487TIP3    H216405   1.116   2.220   4.322
 5488TIP3   OH216406   3.641   7.035   4.773
 5488TIP3    H116407   3.676   7.120   4.797
 5488TIP3    H216408   3.560   7.027   4.825
 5489TIP3   OH216409   1.583   3.884   5.354
 5489TIP3    H116410   1.643   3.813   5.329
 5489TIP3    H216411   1.608   3.957   5.298
 5490TIP3   OH216412   4.370   3.167   3.408
 5490TIP3    H116413   4.369   3.075   3.383
 5490TIP3    H216414   4.459   3.197   3.385
 5491TIP3   OH216415   4.674   6.978   3.243
 5491TIP3    H116416   4.721   7.013   3.168
 5491TIP3    H216417   4.725   6.901   3.270
 5492TIP3   OH216418   6.930   7.590   2.198
 5492TIP3    H116419   6.934   7.496   2.181
 5492TIP3    H216420   6.853   7.602   2.253
 5493TIP3   OH216421   0.404   0.862   4.552
 5493TIP3    H116422   0.468   0.932   4.539
 5493TIP3    H216423   0.322   0.897   4.517
 5494TIP3   OH216424   6.597   2.914   4.003
 5494TIP3    H116425   6.603   2.953   3.916
 5494TIP3    H216426   6.584   2.988   4.062
 5495TIP3   OH216427   5.598   3.426   2.078
 5495TIP3    H116428   5.574   3.449   1.988
 5495TIP3    H216429   5.603   3.330   2.078
 5496TIP3   OH216430   0.616   4.446   6.635
 5496TIP3    H116431   0.660   4.428   6.552
 5496TIP3    H216432   0.688   4.459   6.698
 5497TIP3   OH216433   4.220   4.596   5.672
 5497TIP3    H116434   4.207   4.689   5.653
 5497TIP3    H216435   4.314   4.588   5.691
 5498TIP3   OH216436   5.394   1.088   2.040
 5498TIP3    H116437   5.405   1.097   2.135
 5498TIP3    H216438   5.301   1.103   2.025
 5499TIP3   OH216439   0.591   5.549   1.744
 5499TIP3    H116440   0.668   5.529   1.691
 5499TIP3    H216441   0.612   5.631   1.787
 5500TIP3   OH216442   7.146   4.802   5.134
 5500TIP3    H116443   7.093   4.837   5.206
 5500TIP3    H216444   7.150   4.874   5.071
 5501TIP3   OH216445   0.339   3.053   0.871
 5501TIP3    H116446   0.290   3.135   0.869
 5501TIP3    H216447   0.430   3.080   0.888
 5502TIP3   OH216448   8.039   1.613   4.278
 5502TIP3    H116449   8.023   1.577   4.365
 5502TIP3    H216450   8.117   1.568   4.246
 5503TIP3   OH216451   2.082   2.577   3.998
 5503TIP3    H116452   2.013   2.638   3.971
 5503TIP3    H216453   2.042   2.524   4.067
 5504TIP3   OH216454   7.830   7.479   3.353
 5504TIP3    H116455   7.783   7.517   3.428
 5504TIP3    H216456   7.920   7.510   3.363
 5505TIP3   OH216457   2.045   2.435   5.586
 5505TIP3    H116458   1.994   2.383   5.647
 5505TIP3    H216459   2.126   2.387   5.574
 5506TIP3   OH216460   4.311   2.657   3.473
 5506TIP3    H116461   4.392   2.647   3.422
 5506TIP3    H216462   4.340   2.698   3.555
 5507TIP3   OH216463   2.665   5.751   2.817
 5507TIP3    H116464   2.729   5.781   2.751
 5507TIP3    H216465   2.591   5.811   2.807
 5508TIP3   OH216466   5.440   1.060   1.381
 5508TIP3    H116467   5.441   1.003   1.458
 5508TIP3    H216468   5.527   1.100   1.379
 5509TIP3   OH216469   5.865   3.368   3.615
 5509TIP3    H116470   5.771   3.358   3.632
 5509TIP3    H216471   5.871   3.379   3.520
 5510TIP3   OH216472   1.427   2.980   5.406
 5510TIP3    H116473   1.370   2.903   5.400
 5510TIP3    H216474   1.402   3.034   5.331
 5511TIP3   OH216475   8.048   2.435   4.640
 5511TIP3    H116476   7.993   2.511   4.621
 5511TIP3    H216477   8.134   2.472   4.663
 5512TIP3   OH216478   2.413   1.690   5.002
 5512TIP3    H116479   2.380   1.603   4.978
 5512TIP3    H216480   2.426   1.735   4.918
 5513TIP3   OH216481   0.722   0.360   0.401
 5513TIP3    H116482   0.700   0.412   0.324
 5513TIP3    H216483   0.768   0.284   0.366
 5514TIP3   OH216484   5.251   4.076   0.010
 5514TIP3    H116485   5.240   4.051  -0.082
 5514TIP3    H216486   5.174   4.040   0.053
 5515TIP3   OH216487   1.701   1.149   6.370
 5515TIP3    H116488   1.690   1.098   6.290
 5515TIP3    H216489   1.615   1.147   6.412
 5516TIP3   OH216490   6.420  -0.024   6.433
 5516TIP3    H116491   6.403  -0.076   6.354
 5516TIP3    H216492   6.437  -0.089   6.501
 5517TIP3   OH216493   1.349   5.645   3.776
 5517TIP3    H116494   1.408   5.654   3.850
 5517TIP3    H216495   1.271   5.604   3.812
 5518TIP3   OH216496   4.445   7.029   0.443
 5518TIP3    H116497   4.383   7.073   0.502
 5518TIP3    H216498   4.511   6.993   0.502
 5519TIP3   OH216499   6.113   3.559   5.320
 5519TIP3    H116500   6.178   3.511   5.371
 5519TIP3    H216501   6.133   3.651   5.338
 5520TIP3   OH216502   2.807   1.898   5.027
 5520TIP3    H116503   2.838   1.807   5.027
 5520TIP3    H216504   2.717   1.892   5.057
 5521TIP3   OH216505   3.894   6.817   0.926
 5521TIP3    H116506   3.966   6.758   0.947
 5521TIP3    H216507   3.896   6.885   0.993
 5522TIP3   OH216508   5.680   5.946   0.278
 5522TIP3    H116509   5.624   6.024   0.270
 5522TIP3    H216510   5.743   5.969   0.346
 5523TIP3   OH216511   3.411   5.228   2.358
 5523TIP3    H116512   3.418   5.240   2.453
 5523TIP3    H216513   3.494   5.262   2.324
 5524TIP3   OH216514   5.811   3.456   3.133
 5524TIP3    H116515   5.866   3.443   3.056
 5524TIP3    H216516   5.800   3.368   3.170
 5525TIP3   OH216517   5.919   5.764   1.408
 5525TIP3    H116518   5.829   5.731   1.415
 5525TIP3    H216519   5.974   5.689   1.432
 5526TIP3   OH216520   2.479   0.793   5.916
 5526TIP3    H116521   2.497   0.887   5.926
 5526TIP3    H216522   2.523   0.752   5.990
 5527TIP3   OH216523   8.007   1.707   0.445
 5527TIP3    H116524   8.068   1.707   0.372
 5527TIP3    H216525   8.061   1.691   0.522
 5528TIP3   OH216526   3.052   3.550   5.234
 5528TIP3    H116527   3.108   3.492   5.182
 5528TIP3    H216528   2.971   3.502   5.247
 5529TIP3   OH216529   3.761   0.625   0.412
 5529TIP3    H116530   3.833   0.644   0.351
 5529TIP3    H216531   3.734   0.536   0.390
 5530TIP3   OH216532   2.227   3.397   0.968
 5530TIP3    H116533   2.195   3.351   1.045
 5530TIP3    H216534   2.276   3.330   0.919
 5531TIP3   OH216535   7.104   1.620   1.181
 5531TIP3    H116536   7.086   1.608   1.274
 5531TIP3    H216537   7.022   1.653   1.145
 5532TIP3   OH216538   2.728   0.556   4.244
 5532TIP3    H116539   2.816   0.593   4.241
 5532TIP3    H216540   2.690   0.581   4.160
 5533TIP3   OH216541   3.733   3.418   2.128
 5533TIP3    H116542   3.653   3.448   2.171
 5533TIP3    H216543   3.771   3.355   2.189
 5534TIP3   OH216544   7.438   4.106   2.109
 5534TIP3    H116545   7.522   4.139   2.076
 5534TIP3    H216546   7.390   4.079   2.031
 5535TIP3   OH216547   6.745   6.356   1.924
 5535TIP3    H116548   6.725   6.381   2.014
 5535TIP3    H216549   6.815   6.291   1.932
 5536TIP3   OH216550   7.771   0.503   0.132
 5536TIP3    H116551   7.695   0.556   0.107
 5536TIP3    H216552   7.760   0.421   0.083
 5537TIP3   OH216553   5.868   4.793   3.020
 5537TIP3    H116554   5.944   4.813   3.074
 5537TIP3    H216555   5.901   4.734   2.952
 5538TIP3   OH216556   3.582   1.760   6.728
 5538TIP3    H116557   3.513   1.818   6.759
 5538TIP3    H216558   3.650   1.765   6.795
 5539TIP3   OH216559   1.656   5.394   6.012
 5539TIP3    H116560   1.735   5.345   5.990
 5539TIP3    H216561   1.689   5.473   6.057
 5540TIP3   OH216562   5.118   2.387   3.195
 5540TIP3    H116563   5.197   2.387   3.141
 5540TIP3    H216564   5.131   2.314   3.256
 5541TIP3   OH216565   5.189   5.017   6.746
 5541TIP3    H116566   5.098   5.005   6.720
 5541TIP3    H216567   5.197   4.968   6.828
 5542TIP3   OH216568   1.281   2.414   4.509
 5542TIP3    H116569   1.301   2.326   4.540
 5542TIP3    H216570   1.260   2.402   4.417
 5543TIP3   OH216571   7.336   1.728   1.200
 5543TIP3    H116572   7.259   1.672   1.195
 5543TIP3    H216573   7.302   1.817   1.187
 5544TIP3   OH216574   2.059   5.191   6.646
 5544TIP3    H116575   2.061   5.198   6.742
 5544TIP3    H216576   2.137   5.141   6.624
 5545TIP3   OH216577   4.388   6.698   5.682
 5545TIP3    H116578   4.398   6.619   5.736
 5545TIP3    H216579   4.439   6.679   5.603
 5546TIP3   OH216580   3.960   0.772   1.809
 5546TIP3    H116581   3.966   0.856   1.765
 5546TIP3    H216582   4.009   0.712   1.753
 5547TIP3   OH216583   7.437   1.064   0.059
 5547TIP3    H116584   7.523   1.105   0.067
 5547TIP3    H216585   7.456   0.972   0.044
 5548TIP3   OH216586   4.541   1.308   1.928
 5548TIP3    H116587   4.546   1.276   1.838
 5548TIP3    H216588   4.494   1.391   1.921
 5549TIP3   OH216589   8.221   6.683   0.629
 5549TIP3    H116590   8.279   6.759   0.633
 5549TIP3    H216591   8.278   6.611   0.599
 5550TIP3   OH216592   4.200   7.664   1.511
 5550TIP3    H116593   4.163   7.683   1.598
 5550TIP3    H216594   4.158   7.582   1.485
 5551TIP3   OH216595   8.264   0.358   1.319
 5551TIP3    H116596   8.199   0.373   1.250
 5551TIP3    H216597   8.306   0.276   1.294
 5552TIP3   OH216598   2.552   1.720   4.699
 5552TIP3    H116599   2.510   1.793   4.744
 5552TIP3    H216600   2.482   1.655   4.688
 5553TIP3   OH216601   8.224   5.489   3.742
 5553TIP3    H116602   8.130   5.502   3.732
 5553TIP3    H216603   8.262   5.576   3.734
 5554TIP3   OH216604   8.037   1.251   0.435
 5554TIP3    H116605   8.025   1.329   0.381
 5554TIP3    H216606   8.128   1.256   0.465
 5555TIP3   OH216607   1.789   5.224   2.232
 5555TIP3    H116608   1.869   5.211   2.283
 5555TIP3    H216609   1.718   5.214   2.296
 5556TIP3   OH216610   7.360   2.485   0.584
 5556TIP3    H116611   7.368   2.408   0.641
 5556TIP3    H216612   7.366   2.560   0.643
 5557TIP3   OH216613   0.085   0.669   3.979
 5557TIP3    H116614   0.019   0.673   3.909
 5557TIP3    H216615   0.149   0.606   3.948
 5558TIP3   OH216616   0.077   7.089   3.084
 5558TIP3    H116617   0.152   7.041   3.119
 5558TIP3    H216618   0.100   7.107   2.993
 5559TIP3   OH216619   7.721   4.639   4.752
 5559TIP3    H116620   7.665   4.639   4.674
 5559TIP3    H216621   7.690   4.565   4.803
 5560TIP3   OH216622   0.524   0.197   3.973
 5560TIP3    H116623   0.546   0.106   3.995
 5560TIP3    H216624   0.437   0.210   4.011
 5561TIP3   OH216625   5.604   2.694   4.168
 5561TIP3    H116626   5.592   2.600   4.154
 5561TIP3    H216627   5.678   2.700   4.228
 5562TIP3   OH216628   2.483   5.208   4.555
 5562TIP3    H116629   2.434   5.135   4.593
 5562TIP3    H216630   2.531   5.169   4.482
 5563TIP3   OH216631   0.032   6.137   2.259
 5563TIP3    H116632  -0.003   6.202   2.198
 5563TIP3    H216633   0.067   6.188   2.332
 5564TIP3   OH216634   3.670   4.603   3.756
 5564TIP3    H116635   3.590   4.583   3.805
 5564TIP3    H216636   3.647   4.589   3.664
 5565TIP3   OH216637   4.231   3.974   6.157
 5565TIP3    H116638   4.266   3.923   6.083
 5565TIP3    H216639   4.179   3.910   6.206
 5566TIP3   OH216640   2.023   3.116   4.220
 5566TIP3    H116641   2.062   3.203   4.220
 5566TIP3    H216642   1.952   3.121   4.156
 5567TIP3   OH216643   5.928   1.536   1.352
 5567TIP3    H116644   5.979   1.456   1.338
 5567TIP3    H216645   5.863   1.512   1.418
 5568TIP3   OH216646   3.525   1.200   0.996
 5568TIP3    H116647   3.475   1.279   1.015
 5568TIP3    H216648   3.503   1.178   0.906
 5569TIP3   OH216649   3.155   2.524   3.551
 5569TIP3    H116650   3.195   2.470   3.618
 5569TIP3    H216651   3.099   2.585   3.600
 5570TIP3   OH216652   1.677  -0.028   5.229
 5570TIP3    H116653   1.694   0.061   5.197
 5570TIP3    H216654   1.763  -0.069   5.233
 5571TIP3   OH216655   5.905   1.217   6.363
 5571TIP3    H116656   5.872   1.142   6.312
 5571TIP3    H216657   5.899   1.291   6.302
 5572TIP3   OH216658   1.128   3.444   5.000
 5572TIP3    H116659   1.133   3.396   4.917
 5572TIP3    H216660   1.121   3.376   5.067
 5573TIP3   OH216661   6.109   4.189   4.491
 5573TIP3    H116662   6.030   4.237   4.467
 5573TIP3    H216663   6.131   4.221   4.578
 5574TIP3   OH216664   3.226   6.327   2.495
 5574TIP3    H116665   3.185   6.242   2.480
 5574TIP3    H216666   3.299   6.330   2.433
 5575TIP3   OH216667   0.759   0.344   4.450
 5575TIP3    H116668   0.809   0.420   4.481
 5575TIP3    H216669   0.732   0.369   4.361
 5576TIP3   OH216670   4.601   6.756   1.315
 5576TIP3    H116671   4.605   6.777   1.409
 5576TIP3    H216672   4.616   6.839   1.271
 5577TIP3   OH216673   2.736   4.434   2.160
 5577TIP3    H116674   2.805   4.457   2.222
 5577TIP3    H216675   2.753   4.343   2.138
 5578TIP3   OH216676   6.023   4.339   2.095
 5578TIP3    H116677   6.116   4.320   2.083
 5578TIP3    H216678   5.989   4.263   2.142
 5579TIP3   OH216679   2.760   3.469   2.904
 5579TIP3    H116680   2.728   3.383   2.876
 5579TIP3    H216681   2.851   3.453   2.930
 5580TIP3   OH216682   6.997   7.426   1.683
 5580TIP3    H116683   7.012   7.447   1.591
 5580TIP3    H216684   6.999   7.510   1.728
 5581TIP3   OH216685   7.462   3.821   5.516
 5581TIP3    H116686   7.471   3.884   5.587
 5581TIP3    H216687   7.551   3.809   5.483
 5582TIP3   OH216688   1.611   5.696   6.674
 5582TIP3    H116689   1.604   5.601   6.663
 5582TIP3    H216690   1.699   5.710   6.709
 5583TIP3   OH216691   6.866   4.693   4.942
 5583TIP3    H116692   6.879   4.688   5.036
 5583TIP3    H216693   6.814   4.772   4.928
 5584TIP3   OH216694   4.687   0.869   5.164
 5584TIP3    H116695   4.616   0.917   5.121
 5584TIP3    H216696   4.643   0.817   5.230
 5585TIP3   OH216697   1.681   5.701   3.789
 5585TIP3    H116698   1.657   5.611   3.813
 5585TIP3    H216699   1.631   5.719   3.710
 5586TIP3   OH216700   4.154   6.159   5.383
 5586TIP3    H116701   4.123   6.194   5.467
 5586TIP3    H216702   4.146   6.232   5.322
 5587TIP3   OH216703   3.029   4.336   4.678
 5587TIP3    H116704   2.982   4.377   4.751
 5587TIP3    H216705   2.967   4.337   4.605
 5588TIP3   OH216706   2.310   0.690   5.511
 5588TIP3    H116707   2.352   0.740   5.442
 5588TIP3    H216708   2.304   0.601   5.476
 5589TIP3   OH216709   4.490   2.457   4.665
 5589TIP3    H116710   4.428   2.398   4.621
 5589TIP3    H216711   4.551   2.398   4.709
 5590TIP3   OH216712   1.641   7.614   3.687
 5590TIP3    H116713   1.578   7.686   3.679
 5590TIP3    H216714   1.695   7.621   3.609
 5591TIP3   OH216715   8.148   3.887   1.887
 5591TIP3    H116716   8.171   3.925   1.971
 5591TIP3    H216717   8.063   3.925   1.866
 5592TIP3   OH216718   6.595   4.460   2.596
 5592TIP3    H116719   6.616   4.423   2.511
 5592TIP3    H216720   6.503   4.436   2.611
 5593TIP3   OH216721   7.963   0.112   3.957
 5593TIP3    H116722   8.051   0.093   3.987
 5593TIP3    H216723   7.974   0.144   3.868
 5594TIP3   OH216724   3.326   7.610   4.908
 5594TIP3    H116725   3.285   7.614   4.994
 5594TIP3    H216726   3.315   7.697   4.871
 5595TIP3   OH216727   4.634   7.746   2.982
 5595TIP3    H116728   4.617   7.836   3.010
 5595TIP3    H216729   4.654   7.753   2.889
 5596TIP3   OH216730   6.916   5.706   5.419
 5596TIP3    H116731   6.885   5.722   5.508
 5596TIP3    H216732   6.970   5.627   5.427
 5597TIP3   OH216733   7.268   6.408   0.734
 5597TIP3    H116734   7.361   6.397   0.753
 5597TIP3    H216735   7.266   6.471   0.661
 5598TIP3   OH216736   3.883   6.497   3.036
 5598TIP3    H116737   3.963   6.550   3.024
 5598TIP3    H216738   3.867   6.500   3.130
 5599TIP3   OH216739   0.459   1.333   2.018
 5599TIP3    H116740   0.401   1.273   1.971
 5599TIP3    H216741   0.545   1.291   2.014
 5600TIP3   OH216742   4.855   3.040   6.440
 5600TIP3    H116743   4.838   3.134   6.443
 5600TIP3    H216744   4.867   3.021   6.347
 5601TIP3   OH216745   1.858   3.457   3.137
 5601TIP3    H116746   1.786   3.451   3.199
 5601TIP3    H216747   1.936   3.436   3.189
 5602TIP3   OH216748   7.703   2.871   6.192
 5602TIP3    H116749   7.661   2.818   6.125
 5602TIP3    H216750   7.668   2.837   6.274
 5603TIP3   OH216751   7.662   2.233   1.095
 5603TIP3    H116752   7.754   2.218   1.070
 5603TIP3    H216753   7.616   2.245   1.012
 5604TIP3   OH216754   4.578   4.850   0.444
 5604TIP3    H116755   4.547   4.876   0.357
 5604TIP3    H216756   4.671   4.832   0.432
 5605TIP3   OH216757   3.500   6.511   2.514
 5605TIP3    H116758   3.482   6.440   2.453
 5605TIP3    H216759   3.465   6.480   2.598
 5606TIP3   OH216760   6.899   0.852   4.100
 5606TIP3    H116761   6.983   0.819   4.132
 5606TIP3    H216762   6.839   0.778   4.107
 5607TIP3   OH216763   6.430   3.974   1.587
 5607TIP3    H116764   6.404   3.885   1.564
 5607TIP3    H216765   6.525   3.975   1.573
 5608TIP3   OH216766   7.752   1.581   0.422
 5608TIP3    H116767   7.842   1.613   0.414
 5608TIP3    H216768   7.724   1.566   0.331
 5609TIP3   OH216769   1.875   3.069   3.991
 5609TIP3    H116770   1.836   3.130   3.929
 5609TIP3    H216771   1.822   2.990   3.984
 5610TIP3   OH216772   0.184   1.453   1.002
 5610TIP3    H116773   0.251   1.386   0.985
 5610TIP3    H216774   0.101   1.407   0.994
 5611TIP3   OH216775   7.443   7.373   1.211
 5611TIP3    H116776   7.357   7.333   1.220
 5611TIP3    H216777   7.429   7.447   1.152
 5612TIP3   OH216778   1.181   6.784   2.457
 5612TIP3    H116779   1.224   6.869   2.453
 5612TIP3    H216780   1.090   6.804   2.479
 5613TIP3   OH216781   4.463   3.054   5.765
 5613TIP3    H116782   4.404   3.004   5.820
 5613TIP3    H216783   4.440   3.030   5.676
 5614TIP3   OH216784   4.602   6.664   4.937
 5614TIP3    H116785   4.602   6.757   4.915
 5614TIP3    H216786   4.509   6.641   4.944
 5615TIP3   OH216787   5.189   4.169   4.510
 5615TIP3    H116788   5.109   4.143   4.557
 5615TIP3    H216789   5.250   4.196   4.579
 5616TIP3   OH216790   5.092   0.589   1.241
 5616TIP3    H116791   5.115   0.656   1.177
 5616TIP3    H216792   5.175   0.547   1.264
 5617TIP3   OH216793   2.826   7.629   5.073
 5617TIP3    H116794   2.880   7.701   5.042
 5617TIP3    H216795   2.806   7.577   4.995
 5618TIP3   OH216796   0.807   2.859   1.882
 5618TIP3    H116797   0.735   2.802   1.908
 5618TIP3    H216798   0.767   2.945   1.871
 5619TIP3   OH216799   0.533   7.336   2.104
 5619TIP3    H116800   0.471   7.409   2.111
 5619TIP3    H216801   0.594   7.364   2.035
 5620TIP3   OH216802   5.867   1.388   0.637
 5620TIP3    H116803   5.851   1.299   0.668
 5620TIP3    H216804   5.793   1.439   0.670
 5621TIP3   OH216805   1.281   4.733   4.179
 5621TIP3    H116806   1.294   4.821   4.213
 5621TIP3    H216807   1.220   4.744   4.106
 5622TIP3   OH216808   5.256   1.710   3.535
 5622TIP3    H116809   5.222   1.621   3.538
 5622TIP3    H216810   5.201   1.759   3.596
 5623TIP3   OH216811   7.034   0.577   0.149
 5623TIP3    H116812   7.041   0.514   0.221
 5623TIP3    H216813   6.987   0.529   0.080
 5624TIP3   OH216814   4.550   4.844   6.401
 5624TIP3    H116815   4.632   4.801   6.428
 5624TIP3    H216816   4.562   4.863   6.308
 5625TIP3   OH216817   0.718   1.616   6.472
 5625TIP3    H116818   0.772   1.678   6.521
 5625TIP3    H216819   0.780   1.570   6.415
 5626TIP3   OH216820   1.794   1.380   4.793
 5626TIP3    H116821   1.719   1.321   4.803
 5626TIP3    H216822   1.756   1.465   4.772
 5627TIP3   OH216823   7.194   3.409   2.511
 5627TIP3    H116824   7.193   3.481   2.448
 5627TIP3    H216825   7.227   3.448   2.591
 5628TIP3   OH216826   7.559   1.578   2.941
 5628TIP3    H116827   7.548   1.628   2.861
 5628TIP3    H216828   7.620   1.508   2.919
 5629TIP3   OH216829   4.759   6.476   3.987
 5629TIP3    H116830   4.778   6.568   4.003
 5629TIP3    H216831   4.839   6.440   3.949
 5630TIP3   OH216832   0.469   3.650   2.821
 5630TIP3    H116833   0.383   3.684   2.844
 5630TIP3    H216834   0.530   3.712   2.859
 5631TIP3   OH216835   7.163   0.048   5.302
 5631TIP3    H116836   7.225  -0.015   5.265
 5631TIP3    H216837   7.082  -0.002   5.312
 5632TIP3   OH216838   5.190   0.549   5.631
 5632TIP3    H116839   5.250   0.510   5.567
 5632TIP3    H216840   5.247   0.603   5.687
 5633TIP3   OH216841   0.070   6.501   1.840
 5633TIP3    H116842   0.126   6.579   1.842
 5633TIP3    H216843   0.086   6.459   1.925
 5634TIP3   OH216844   5.117   2.365   0.602
 5634TIP3    H116845   5.038   2.414   0.576
 5634TIP3    H216846   5.103   2.344   0.694
 5635TIP3   OH216847   5.583   6.275   5.531
 5635TIP3    H116848   5.525   6.291   5.605
 5635TIP3    H216849   5.543   6.200   5.485
 5636TIP3   OH216850   4.860   6.820   4.314
 5636TIP3    H116851   4.809   6.772   4.249
 5636TIP3    H216852   4.801   6.889   4.344
 5637TIP3   OH216853   1.177   4.340   0.920
 5637TIP3    H116854   1.141   4.251   0.920
 5637TIP3    H216855   1.100   4.396   0.905
 5638TIP3   OH216856   3.544   1.044   0.503
 5638TIP3    H116857   3.501   0.966   0.469
 5638TIP3    H216858   3.591   1.081   0.428
 5639TIP3   OH216859   7.887   5.453   4.489
 5639TIP3    H116860   7.804   5.406   4.490
 5639TIP3    H216861   7.914   5.457   4.581
 5640TIP3   OH216862   8.003   4.561   3.703
 5640TIP3    H116863   8.009   4.597   3.614
 5640TIP3    H216864   8.072   4.605   3.752
 5641TIP3   OH216865   7.323   3.462   6.216
 5641TIP3    H116866   7.381   3.504   6.153
 5641TIP3    H216867   7.299   3.379   6.176
 5642TIP3   OH216868   5.180   1.176   4.032
 5642TIP3    H116869   5.159   1.157   4.123
 5642TIP3    H216870   5.217   1.094   3.998
 5643TIP3   OH216871   5.423   0.911   0.868
 5643TIP3    H116872   5.370   0.908   0.788
 5643TIP3    H216873   5.512   0.892   0.838
 5644TIP3   OH216874   3.717   5.736   4.554
 5644TIP3    H116875   3.651   5.776   4.496
 5644TIP3    H216876   3.765   5.676   4.497
 5645TIP3   OH216877   1.555  -0.010   0.065
 5645TIP3    H116878   1.628  -0.017   0.003
 5645TIP3    H216879   1.518   0.077   0.048
 5646TIP3   OH216880   7.542   0.230   5.894
 5646TIP3    H116881   7.590   0.160   5.850
 5646TIP3    H216882   7.578   0.231   5.983
 5647TIP3   OH216883   6.026   7.061   3.724
 5647TIP3    H116884   6.070   7.104   3.651
 5647TIP3    H216885   6.080   6.985   3.744
 5648TIP3   OH216886   7.405   3.527   1.934
 5648TIP3    H116887   7.397   3.439   1.970
 5648TIP3    H216888   7.410   3.584   2.011
 5649TIP3   OH216889   4.629   4.499   4.758
 5649TIP3    H116890   4.658   4.566   4.697
 5649TIP3    H216891   4.677   4.517   4.838
 5650TIP3   OH216892   8.207   0.989   3.613
 5650TIP3    H116893   8.221   1.033   3.529
 5650TIP3    H216894   8.230   1.055   3.679
 5651TIP3   OH216895   7.804   2.715   2.417
 5651TIP3    H116896   7.756   2.686   2.339
 5651TIP3    H216897   7.834   2.803   2.395
 5652TIP3   OH216898   0.847   3.463   5.049
 5652TIP3    H116899   0.808   3.414   4.977
 5652TIP3    H216900   0.941   3.461   5.032
 5653TIP3   OH216901   2.830   2.155   5.204
 5653TIP3    H116902   2.810   2.062   5.195
 5653TIP3    H216903   2.897   2.172   5.138
 5654TIP3   OH216904   3.354   6.823   1.623
 5654TIP3    H116905   3.436   6.865   1.596
 5654TIP3    H216906   3.333   6.763   1.551
 5655TIP3   OH216907   5.886   6.338   6.436
 5655TIP3    H116908   5.839   6.421   6.440
 5655TIP3    H216909   5.857   6.299   6.353
 5656TIP3   OH216910   1.904   1.387   1.196
 5656TIP3    H116911   1.816   1.402   1.231
 5656TIP3    H216912   1.930   1.472   1.158
 5657TIP3   OH216913   1.719   5.784   1.882
 5657TIP3    H116914   1.703   5.731   1.805
 5657TIP3    H216915   1.651   5.756   1.945
 5658TIP3   OH216916   7.064   3.223   4.275
 5658TIP3    H116917   7.132   3.274   4.318
 5658TIP3    H216918   6.987   3.233   4.332
 5659TIP3   OH216919   6.971   7.263   6.420
 5659TIP3    H116920   7.060   7.281   6.452
 5659TIP3    H216921   6.935   7.349   6.399
 5660TIP3   OH216922   3.462   5.505   2.659
 5660TIP3    H116923   3.427   5.417   2.646
 5660TIP3    H216924   3.385   5.559   2.677
 5661TIP3   OH216925   1.300   3.160   2.614
 5661TIP3    H116926   1.284   3.182   2.522
 5661TIP3    H216927   1.215   3.129   2.646
 5662TIP3   OH216928   7.192   7.339   2.438
 5662TIP3    H116929   7.170   7.341   2.345
 5662TIP3    H216930   7.222   7.249   2.454
 5663TIP3   OH216931   6.946   6.016   5.504
 5663TIP3    H116932   6.972   5.987   5.417
 5663TIP3    H216933   6.853   6.033   5.498
 5664TIP3   OH216934   1.400   4.325   1.105
 5664TIP3    H116935   1.331   4.270   1.143
 5664TIP3    H216936   1.364   4.353   1.020
 5665TIP3   OH216937   2.785   6.723   2.396
 5665TIP3    H116938   2.766   6.814   2.372
 5665TIP3    H216939   2.824   6.730   2.484
 5666TIP3   OH216940   7.738   1.737   3.701
 5666TIP3    H116941   7.647   1.747   3.726
 5666TIP3    H216942   7.772   1.827   3.699
 5667TIP3   OH216943   6.402   4.805   0.020
 5667TIP3    H116944   6.377   4.722  -0.021
 5667TIP3    H216945   6.409   4.866  -0.053
 5668TIP3   OH216946   2.708   6.235   4.904
 5668TIP3    H116947   2.725   6.162   4.964
 5668TIP3    H216948   2.751   6.310   4.944
 5669TIP3   OH216949   5.879   3.397   1.814
 5669TIP3    H116950   5.884   3.340   1.737
 5669TIP3    H216951   5.786   3.417   1.824
 5670TIP3   OH216952   1.679   1.117   6.685
 5670TIP3    H116953   1.604   1.092   6.739
 5670TIP3    H216954   1.686   1.211   6.696
 5671TIP3   OH216955   4.299   6.922   0.208
 5671TIP3    H116956   4.389   6.902   0.185
 5671TIP3    H216957   4.298   6.921   0.304
 5672TIP3   OH216958   3.148   6.300  -0.010
 5672TIP3    H116959   3.241   6.320  -0.019
 5672TIP3    H216960   3.144   6.229   0.054
 5673TIP3   OH216961   8.074   2.023   3.311
 5673TIP3    H116962   8.149   2.082   3.305
 5673TIP3    H216963   7.998   2.079   3.296
 5674TIP3   OH216964   0.171   4.120   2.662
 5674TIP3    H116965   0.122   4.086   2.738
 5674TIP3    H216966   0.111   4.109   2.588
 5675TIP3   OH216967   5.025   4.053   1.755
 5675TIP3    H116968   5.020   4.020   1.666
 5675TIP3    H216969   4.935   4.073   1.779
 5676TIP3   OH216970   1.836   2.746   3.171
 5676TIP3    H116971   1.817   2.752   3.265
 5676TIP3    H216972   1.751   2.752   3.129
 5677TIP3   OH216973   7.326   4.937   3.837
 5677TIP3    H116974   7.391   4.975   3.896
 5677TIP3    H216975   7.243   4.975   3.865
 5678TIP3   OH216976   0.718   5.771   1.411
 5678TIP3    H116977   0.806   5.771   1.373
 5678TIP3    H216978   0.704   5.680   1.439
 5679TIP3   OH216979   7.967   3.453   2.909
 5679TIP3    H116980   8.033   3.434   2.976
 5679TIP3    H216981   8.012   3.437   2.826
 5680TIP3   OH216982   7.821   7.239   2.451
 5680TIP3    H116983   7.794   7.329   2.432
 5680TIP3    H216984   7.750   7.185   2.416
 5681TIP3   OH216985   6.390   4.982   1.257
 5681TIP3    H116986   6.302   4.951   1.279
 5681TIP3    H216987   6.449   4.924   1.306
 5682TIP3   OH216988   3.925   2.187   1.871
 5682TIP3    H116989   3.830   2.188   1.885
 5682TIP3    H216990   3.959   2.252   1.932
 5683TIP3   OH216991   2.893   0.967   3.270
 5683TIP3    H116992   2.841   0.886   3.267
 5683TIP3    H216993   2.860   1.019   3.196
 5684TIP3   OH216994   4.947   5.910   3.546
 5684TIP3    H116995   4.886   5.840   3.568
 5684TIP3    H216996   5.030   5.883   3.584
 5685TIP3   OH216997   6.720   7.573   4.913
 5685TIP3    H116998   6.761   7.598   4.996
 5685TIP3    H216999   6.764   7.492   4.889
 5686TIP3   OH217000   2.502   0.644   3.035
 5686TIP3    H117001   2.417   0.627   2.995
 5686TIP3    H217002   2.488   0.721   3.090
 5687TIP3   OH217003   4.797   1.197   4.988
 5687TIP3    H117004   4.833   1.212   4.901
 5687TIP3    H217005   4.720   1.143   4.972
 5688TIP3   OH217006   7.929   5.685   1.374
 5688TIP3    H117007   7.893   5.597   1.360
 5688TIP3    H217008   7.932   5.723   1.286
 5689TIP3   OH217009   2.145   3.627   1.105
 5689TIP3    H117010   2.171   3.563   1.038
 5689TIP3    H217011   2.160   3.581   1.188
 5690TIP3   OH217012   4.771   4.186   0.023
 5690TIP3    H117013   4.733   4.155  -0.059
 5690TIP3    H217014   4.695   4.201   0.080
 5691TIP3   OH217015   2.121   7.770   4.192
 5691TIP3    H117016   2.144   7.762   4.285
 5691TIP3    H217017   2.030   7.741   4.187
 5692TIP3   OH217018   5.524   3.349   0.581
 5692TIP3    H117019   5.431   3.328   0.571
 5692TIP3    H217020   5.570   3.270   0.552
 5693TIP3   OH217021   6.894   1.336   1.118
 5693TIP3    H117022   6.983   1.311   1.141
 5693TIP3    H217023   6.860   1.378   1.196
 5694TIP3   OH217024   6.905   3.753   3.508
 5694TIP3    H117025   6.846   3.817   3.548
 5694TIP3    H217026   6.904   3.776   3.415
 5695TIP3   OH217027   4.793   5.034   3.721
 5695TIP3    H117028   4.716   5.058   3.772
 5695TIP3    H217029   4.865   5.086   3.759
 5696TIP3   OH217030   4.559   6.116   6.152
 5696TIP3    H117031   4.579   6.198   6.107
 5696TIP3    H217032   4.474   6.131   6.192
 5697TIP3   OH217033   3.992   6.314   0.237
 5697TIP3    H117034   4.035   6.265   0.307
 5697TIP3    H217035   3.987   6.253   0.164
 5698TIP3   OH217036   1.343   7.506   2.930
 5698TIP3    H117037   1.307   7.595   2.935
 5698TIP3    H217038   1.394   7.505   2.849
 5699TIP3   OH217039   4.019   3.685   2.104
 5699TIP3    H117040   3.958   3.696   2.177
 5699TIP3    H217041   4.015   3.768   2.057
 5700TIP3   OH217042   4.047   5.340   4.170
 5700TIP3    H117043   4.142   5.326   4.174
 5700TIP3    H217044   4.014   5.305   4.253
 5701TIP3   OH217045   5.668   7.687   4.800
 5701TIP3    H117046   5.666   7.611   4.743
 5701TIP3    H217047   5.746   7.674   4.854
 5702TIP3   OH217048   5.588   2.028   1.504
 5702TIP3    H117049   5.518   1.963   1.500
 5702TIP3    H217050   5.547   2.105   1.543
 5703TIP3   OH217051   3.021   0.510   2.391
 5703TIP3    H117052   3.078   0.574   2.348
 5703TIP3    H217053   3.013   0.542   2.481
 5704TIP3   OH217054   8.080   4.855   0.952
 5704TIP3    H117055   8.176   4.848   0.953
 5704TIP3    H217056   8.051   4.789   1.015
 5705TIP3   OH217057   7.478   5.313   3.155
 5705TIP3    H117058   7.461   5.341   3.066
 5705TIP3    H217059   7.406   5.254   3.176
 5706TIP3   OH217060   6.976   4.936   4.273
 5706TIP3    H117061   6.960   4.869   4.340
 5706TIP3    H217062   6.892   4.980   4.263
 5707TIP3   OH217063   0.458   5.313   4.515
 5707TIP3    H117064   0.387   5.264   4.556
 5707TIP3    H217065   0.519   5.332   4.586
 5708TIP3   OH217066   4.909   1.427   0.448
 5708TIP3    H117067   4.833   1.373   0.425
 5708TIP3    H217068   4.979   1.394   0.392
 5709TIP3   OH217069   5.366   1.504   4.170
 5709TIP3    H117070   5.357   1.595   4.141
 5709TIP3    H217071   5.381   1.455   4.089
 5710TIP3   OH217072   6.212   3.117   0.505
 5710TIP3    H117073   6.261   3.040   0.475
 5710TIP3    H217074   6.240   3.128   0.596
 5711TIP3   OH217075   7.832   0.656   3.858
 5711TIP3    H117076   7.823   0.563   3.838
 5711TIP3    H217077   7.798   0.701   3.781
 5712TIP3   OH217078   2.643   1.926   0.952
 5712TIP3    H117079   2.712   1.861   0.957
 5712TIP3    H217080   2.613   1.936   1.042
 5713TIP3   OH217081   6.768   2.690   4.138
 5713TIP3    H117082   6.690   2.690   4.192
 5713TIP3    H217083   6.742   2.739   4.059
 5714TIP3   OH217084   5.728   3.953   4.694
 5714TIP3    H117085   5.790   3.891   4.732
 5714TIP3    H217086   5.724   3.927   4.601
 5715TIP3   OH217087   5.896   2.712   1.276
 5715TIP3    H117088   5.804   2.734   1.264
 5715TIP3    H217089   5.944   2.775   1.221
 5716TIP3   OH217090   2.157   2.859   4.201
 5716TIP3    H117091   2.161   2.840   4.108
 5716TIP3    H217092   2.122   2.949   4.206
 5717TIP3   OH217093   1.293   7.477   3.819
 5717TIP3    H117094   1.317   7.430   3.739
 5717TIP3    H217095   1.374   7.482   3.870
 5718TIP3   OH217096   6.990   7.029   6.277
 5718TIP3    H117097   6.921   6.969   6.304
 5718TIP3    H217098   6.983   7.103   6.338
 5719TIP3   OH217099   0.714   4.858   6.086
 5719TIP3    H117100   0.731   4.803   6.010
 5719TIP3    H217101   0.767   4.936   6.072
 5720TIP3   OH217102   0.950   0.152   0.878
 5720TIP3    H117103   0.881   0.164   0.943
 5720TIP3    H217104   0.935   0.221   0.814
 5721TIP3   OH217105   0.405   5.548   6.557
 5721TIP3    H117106   0.413   5.456   6.531
 5721TIP3    H217107   0.478   5.592   6.513
 5722TIP3   OH217108   2.388   5.713   4.511
 5722TIP3    H117109   2.425   5.631   4.546
 5722TIP3    H217110   2.318   5.736   4.572
 5723TIP3   OH217111   2.500   0.806   2.538
 5723TIP3    H117112   2.473   0.714   2.541
 5723TIP3    H217113   2.419   0.855   2.552
 5724TIP3   OH217114   1.932   4.743   5.589
 5724TIP3    H117115   1.983   4.805   5.537
 5724TIP3    H217116   1.994   4.710   5.654
 5725TIP3   OH217117   7.324   2.597   0.350
 5725TIP3    H117118   7.236   2.633   0.338
 5725TIP3    H217119   7.325   2.569   0.442
 5726TIP3   OH217120   7.477   3.978   6.389
 5726TIP3    H117121   7.558   4.029   6.387
 5726TIP3    H217122   7.468   3.943   6.301
 5727TIP3   OH217123   3.712   0.993   5.535
 5727TIP3    H117124   3.789   1.033   5.493
 5727TIP3    H217125   3.736   0.900   5.545
 5728TIP3   OH217126   3.000   2.940   2.133
 5728TIP3    H117127   3.090   2.907   2.140
 5728TIP3    H217128   2.978   2.966   2.222
 5729TIP3   OH217129   8.099   7.106   1.755
 5729TIP3    H117130   8.040   7.105   1.831
 5729TIP3    H217131   8.088   7.019   1.716
 5730TIP3   OH217132   7.704   6.404   6.174
 5730TIP3    H117133   7.625   6.352   6.185
 5730TIP3    H217134   7.776   6.341   6.183
 5731TIP3   OH217135   7.235   6.885   5.490
 5731TIP3    H117136   7.295   6.811   5.483
 5731TIP3    H217137   7.148   6.848   5.471
 5732TIP3   OH217138   5.455   2.854   2.343
 5732TIP3    H117139   5.375   2.866   2.394
 5732TIP3    H217140   5.523   2.901   2.391
 5733TIP3   OH217141   6.963   3.824   4.563
 5733TIP3    H117142   7.044   3.855   4.603
 5733TIP3    H217143   6.897   3.835   4.631
 5734TIP3   OH217144  -0.022   1.002   5.342
 5734TIP3    H117145   0.054   1.055   5.320
 5734TIP3    H217146   0.014   0.915   5.361
 5735TIP3   OH217147   7.739   2.831   4.464
 5735TIP3    H117148   7.705   2.742   4.462
 5735TIP3    H217149   7.829   2.823   4.430
 5736TIP3   OH217150   6.599   2.023   1.345
 5736TIP3    H117151   6.539   1.999   1.415
 5736TIP3    H217152   6.619   2.115   1.361
 5737TIP3   OH217153   3.975   6.343   3.590
 5737TIP3    H117154   3.987   6.304   3.504
 5737TIP3    H217155   4.022   6.427   3.586
 5738TIP3   OH217156   4.963   2.028   0.785
 5738TIP3    H117157   5.001   2.112   0.810
 5738TIP3    H217158   4.969   1.975   0.864
 5739TIP3   OH217159   0.214   3.593   5.262
 5739TIP3    H117160   0.119   3.576   5.261
 5739TIP3    H217161   0.251   3.524   5.208
 5740TIP3   OH217162   1.957   2.247   4.491
 5740TIP3    H117163   1.980   2.338   4.474
 5740TIP3    H217164   1.889   2.251   4.559
 5741TIP3   OH217165   1.379   3.865   2.328
 5741TIP3    H117166   1.455   3.865   2.270
 5741TIP3    H217167   1.345   3.955   2.325
 5742TIP3   OH217168   1.586   1.293   4.423
 5742TIP3    H117169   1.543   1.371   4.387
 5742TIP3    H217170   1.557   1.222   4.366
 5743TIP3   OH217171   5.948   1.798   1.271
 5743TIP3    H117172   5.945   1.707   1.302
 5743TIP3    H217173   5.860   1.815   1.238
 5744TIP3   OH217174   7.073   2.927   2.080
 5744TIP3    H117175   7.098   2.937   1.988
 5744TIP3    H217176   7.067   3.016   2.113
 5745TIP3   OH217177   1.457   4.279   0.757
 5745TIP3    H117178   1.529   4.332   0.793
 5745TIP3    H217179   1.432   4.221   0.828
 5746TIP3   OH217180   5.539   4.132   4.759
 5746TIP3    H117181   5.575   4.219   4.777
 5746TIP3    H217182   5.616   4.078   4.740
 5747TIP3   OH217183   7.674   2.311   0.385
 5747TIP3    H117184   7.584   2.289   0.410
 5747TIP3    H217185   7.725   2.233   0.407
 5748TIP3   OH217186   1.793   2.250   4.708
 5748TIP3    H117187   1.759   2.191   4.774
 5748TIP3    H217188   1.773   2.338   4.741
 5749TIP3   OH217189   7.708   4.141   0.815
 5749TIP3    H117190   7.728   4.047   0.809
 5749TIP3    H217191   7.742   4.166   0.901
 5750TIP3   OH217192   6.016   2.175   5.160
 5750TIP3    H117193   6.040   2.188   5.252
 5750TIP3    H217194   6.095   2.137   5.120
 5751TIP3   OH217195   7.154   1.346   4.494
 5751TIP3    H117196   7.233   1.348   4.548
 5751TIP3    H217197   7.094   1.289   4.543
 5752TIP3   OH217198   4.382   4.412   0.895
 5752TIP3    H117199   4.327   4.491   0.895
 5752TIP3    H217200   4.377   4.379   0.806
 5753TIP3   OH217201   1.975   5.914   1.528
 5753TIP3    H117202   2.022   5.919   1.612
 5753TIP3    H217203   1.890   5.953   1.546
 5754TIP3   OH217204   1.452   0.950   0.730
 5754TIP3    H117205   1.378   1.010   0.724
 5754TIP3    H217206   1.472   0.944   0.823
 5755TIP3   OH217207   3.064   7.040   1.044
 5755TIP3    H117208   3.125   7.093   0.993
 5755TIP3    H217209   3.031   7.100   1.112
 5756TIP3   OH217210   1.547   7.545   4.908
 5756TIP3    H117211   1.557   7.592   4.991
 5756TIP3    H217212   1.636   7.518   4.885
 5757TIP3   OH217213   5.704   5.830   1.100
 5757TIP3    H117214   5.684   5.820   1.193
 5757TIP3    H217215   5.777   5.892   1.097
 5758TIP3   OH217216   3.187   7.178   1.756
 5758TIP3    H117217   3.234   7.178   1.673
 5758TIP3    H217218   3.096   7.158   1.732
 5759TIP3   OH217219   5.863   2.996   2.121
 5759TIP3    H117220   5.921   2.935   2.076
 5759TIP3    H217221   5.918   3.072   2.139
 5760TIP3   OH217222   8.160   2.725   6.208
 5760TIP3    H117223   8.137   2.787   6.276
 5760TIP3    H217224   8.233   2.766   6.161
 5761TIP3   OH217225   6.190   4.951   3.829
 5761TIP3    H117226   6.106   4.981   3.795
 5761TIP3    H217227   6.180   4.856   3.837
 5762TIP3   OH217228   7.376   0.537   1.430
 5762TIP3    H117229   7.331   0.455   1.411
 5762TIP3    H217230   7.434   0.517   1.503
 5763TIP3   OH217231   3.518   5.909   1.852
 5763TIP3    H117232   3.499   5.852   1.927
 5763TIP3    H217233   3.529   5.996   1.890
 5764TIP3   OH217234   3.141   2.201   2.582
 5764TIP3    H117235   3.151   2.272   2.518
 5764TIP3    H217236   3.048   2.202   2.604
 5765TIP3   OH217237   4.776   6.359   0.939
 5765TIP3    H117238   4.751   6.288   0.879
 5765TIP3    H217239   4.704   6.422   0.932
 5766TIP3   OH217240   6.579   3.072   0.637
 5766TIP3    H117241   6.549   2.982   0.622
 5766TIP3    H217242   6.572   3.084   0.731
 5767TIP3   OH217243   8.209   5.435   5.492
 5767TIP3    H117244   8.287   5.469   5.449
 5767TIP3    H217245   8.165   5.512   5.528
 5768TIP3   OH217246   3.025   6.351   0.792
 5768TIP3    H117247   2.993   6.261   0.797
 5768TIP3    H217248   3.071   6.365   0.875
 5769TIP3   OH217249   1.181   2.351   5.067
 5769TIP3    H117250   1.166   2.406   5.145
 5769TIP3    H217251   1.097   2.353   5.021
 5770TIP3   OH217252   6.811   3.031   5.922
 5770TIP3    H117253   6.809   2.944   5.963
 5770TIP3    H217254   6.826   3.013   5.829
 5771TIP3   OH217255   8.272   4.788   2.849
 5771TIP3    H117256   8.210   4.787   2.776
 5771TIP3    H217257   8.357   4.767   2.808
 5772TIP3   OH217258   3.358   2.089   5.969
 5772TIP3    H117259   3.316   2.171   5.993
 5772TIP3    H217260   3.288   2.024   5.972
 5773TIP3   OH217261   6.646   3.722   0.054
 5773TIP3    H117262   6.650   3.746  -0.039
 5773TIP3    H217263   6.734   3.739   0.086
 5774TIP3   OH217264   3.169   7.103   2.600
 5774TIP3    H117265   3.256   7.117   2.563
 5774TIP3    H217266   3.179   7.027   2.657
 5775TIP3   OH217267   3.157   6.187   6.260
 5775TIP3    H117268   3.186   6.115   6.316
 5775TIP3    H217269   3.201   6.172   6.177
 5776TIP3   OH217270   7.120   7.723   2.371
 5776TIP3    H117271   7.048   7.670   2.336
 5776TIP3    H217272   7.164   7.759   2.294
 5777TIP3   OH217273   4.930   7.479   3.458
 5777TIP3    H117274   4.874   7.496   3.383
 5777TIP3    H217275   4.875   7.426   3.517
 5778TIP3   OH217276   6.135   2.421   4.912
 5778TIP3    H117277   6.066   2.382   4.965
 5778TIP3    H217278   6.195   2.460   4.976
 5779TIP3   OH217279   6.803   3.916   0.368
 5779TIP3    H117280   6.751   3.859   0.425
 5779TIP3    H217281   6.887   3.871   0.360
 5780TIP3   OH217282   1.282   7.750   6.089
 5780TIP3    H117283   1.247   7.746   6.000
 5780TIP3    H217284   1.358   7.692   6.087
 5781TIP3   OH217285   5.221   1.784   0.932
 5781TIP3    H117286   5.222   1.701   0.981
 5781TIP3    H217287   5.128   1.804   0.922
 5782TIP3   OH217288   1.115   1.747   4.689
 5782TIP3    H117289   1.187   1.797   4.651
 5782TIP3    H217290   1.048   1.813   4.709
 5783TIP3   OH217291   1.785   3.690   3.729
 5783TIP3    H117292   1.832   3.624   3.679
 5783TIP3    H217293   1.714   3.718   3.672
 5784TIP3   OH217294   7.849   6.880   2.648
 5784TIP3    H117295   7.861   6.874   2.553
 5784TIP3    H217296   7.932   6.850   2.684
 5785TIP3   OH217297   3.232   3.665   2.549
 5785TIP3    H117298   3.254   3.758   2.558
 5785TIP3    H217299   3.226   3.652   2.454
 5786TIP3   OH217300   6.138   2.852   5.994
 5786TIP3    H117301   6.143   2.882   6.085
 5786TIP3    H217302   6.214   2.892   5.952
 5787TIP3   OH217303   3.465   0.416   4.797
 5787TIP3    H117304   3.547   0.456   4.769
 5787TIP3    H217305   3.481   0.388   4.887
 5788TIP3   OH217306   0.185   1.475   6.352
 5788TIP3    H117307   0.169   1.381   6.354
 5788TIP3    H217308   0.273   1.485   6.389
 5789TIP3   OH217309   3.040   7.628   3.506
 5789TIP3    H117310   3.039   7.709   3.556
 5789TIP3    H217311   2.952   7.622   3.468
 5790TIP3   OH217312   4.609   5.514   1.209
 5790TIP3    H117313   4.700   5.542   1.195
 5790TIP3    H217314   4.611   5.469   1.294
 5791TIP3   OH217315   0.955   4.784   4.735
 5791TIP3    H117316   0.993   4.800   4.821
 5791TIP3    H217317   0.912   4.866   4.712
 5792TIP3   OH217318   0.316   5.035   4.120
 5792TIP3    H117319   0.358   5.036   4.206
 5792TIP3    H217320   0.222   5.035   4.139
 5793TIP3   OH217321   1.525   0.345   3.986
 5793TIP3    H117322   1.432   0.348   4.008
 5793TIP3    H217323   1.562   0.282   4.048
 5794TIP3   OH217324   7.112   4.197   0.663
 5794TIP3    H117325   7.147   4.121   0.709
 5794TIP3    H217326   7.125   4.270   0.725
 5795TIP3   OH217327   2.917   1.669   1.823
 5795TIP3    H117328   2.891   1.602   1.887
 5795TIP3    H217329   2.882   1.751   1.858
 5796TIP3   OH217330   1.545   0.884   4.332
 5796TIP3    H117331   1.485   0.850   4.398
 5796TIP3    H217332   1.547   0.816   4.265
 5797TIP3   OH217333   8.230   2.467   6.297
 5797TIP3    H117334   8.173   2.403   6.340
 5797TIP3    H217335   8.176   2.545   6.287
 5798TIP3   OH217336   6.626   4.312   0.497
 5798TIP3    H117337   6.647   4.404   0.516
 5798TIP3    H217338   6.543   4.317   0.449
 5799TIP3   OH217339   2.273   1.270   0.675
 5799TIP3    H117340   2.223   1.206   0.624
 5799TIP3    H217341   2.364   1.256   0.650
 5800TIP3   OH217342   2.603   6.056   3.114
 5800TIP3    H117343   2.636   6.016   3.034
 5800TIP3    H217344   2.659   6.133   3.127
 5801TIP3   OH217345   7.476   7.257   2.530
 5801TIP3    H117346   7.497   7.178   2.481
 5801TIP3    H217347   7.430   7.224   2.608
 5802TIP3   OH217348   1.447   1.931   6.058
 5802TIP3    H117349   1.381   1.931   5.988
 5802TIP3    H217350   1.511   1.865   6.030
 5803TIP3   OH217351   0.186   6.504   4.506
 5803TIP3    H117352   0.214   6.416   4.482
 5803TIP3    H217353   0.188   6.554   4.425
 5804TIP3   OH217354   5.945   5.807   5.941
 5804TIP3    H117355   5.935   5.771   5.852
 5804TIP3    H217356   5.899   5.744   5.997
 5805TIP3   OH217357   4.769   7.680   1.436
 5805TIP3    H117358   4.724   7.605   1.477
 5805TIP3    H217359   4.858   7.648   1.420
 5806TIP3   OH217360   8.089   0.515   4.492
 5806TIP3    H117361   8.115   0.423   4.492
 5806TIP3    H217362   8.159   0.560   4.540
 5807TIP3   OH217363   1.207   3.230   6.125
 5807TIP3    H117364   1.139   3.236   6.193
 5807TIP3    H217365   1.287   3.209   6.172
 5808TIP3   OH217366   6.495   3.268   3.863
 5808TIP3    H117367   6.558   3.337   3.882
 5808TIP3    H217368   6.546   3.201   3.818
 5809TIP3   OH217369   1.983   0.854   0.091
 5809TIP3    H117370   1.916   0.920   0.110
 5809TIP3    H217371   1.946   0.772   0.125
 5810TIP3   OH217372   3.097   6.502   2.280
 5810TIP3    H117373   3.151   6.434   2.321
 5810TIP3    H217374   3.147   6.582   2.290
 5811TIP3   OH217375   5.756   2.553   5.935
 5811TIP3    H117376   5.689   2.487   5.921
 5811TIP3    H217377   5.802   2.559   5.852
 5812TIP3   OH217378   1.841   0.203   5.304
 5812TIP3    H117379   1.897   0.204   5.226
 5812TIP3    H217380   1.897   0.171   5.374
 5813TIP3   OH217381   3.331   3.673   1.130
 5813TIP3    H117382   3.256   3.676   1.190
 5813TIP3    H217383   3.291   3.668   1.043
 5814TIP3   OH217384   6.204   6.481   1.529
 5814TIP3    H117385   6.226   6.477   1.622
 5814TIP3    H217386   6.109   6.489   1.526
 5815TIP3   OH217387   2.572   0.587   5.053
 5815TIP3    H117388   2.488   0.618   5.087
 5815TIP3    H217389   2.635   0.611   5.121
 5816TIP3   OH217390   1.546   3.035   2.647
 5816TIP3    H117391   1.581   3.087   2.720
 5816TIP3    H217392   1.459   3.072   2.631
 5817TIP3   OH217393   7.362   4.348   3.950
 5817TIP3    H117394   7.401   4.282   3.892
 5817TIP3    H217395   7.409   4.338   4.033
 5818TIP3   OH217396   3.508   3.452   0.836
 5818TIP3    H117397   3.413   3.453   0.830
 5818TIP3    H217398   3.527   3.390   0.907
 5819TIP3   OH217399   1.467   4.372   4.303
 5819TIP3    H117400   1.381   4.411   4.285
 5819TIP3    H217401   1.471   4.366   4.399
 5820TIP3   OH217402   4.679   1.708   2.225
 5820TIP3    H117403   4.769   1.704   2.191
 5820TIP3    H217404   4.648   1.618   2.221
 5821TIP3   OH217405   5.655   3.270   4.589
 5821TIP3    H117406   5.574   3.284   4.540
 5821TIP3    H217407   5.633   3.203   4.654
 5822TIP3   OH217408   6.536   4.477   3.655
 5822TIP3    H117409   6.524   4.540   3.725
 5822TIP3    H217410   6.547   4.393   3.699
 5823TIP3   OH217411   3.264   0.480   1.028
 5823TIP3    H117412   3.277   0.390   0.996
 5823TIP3    H217413   3.211   0.470   1.107
 5824TIP3   OH217414   0.874   4.378   6.009
 5824TIP3    H117415   0.872   4.373   5.914
 5824TIP3    H217416   0.782   4.377   6.035
 5825TIP3   OH217417   7.795   5.790   5.566
 5825TIP3    H117418   7.803   5.845   5.488
 5825TIP3    H217419   7.702   5.766   5.568
 5826TIP3   OH217420   7.988   0.713   1.814
 5826TIP3    H117421   7.934   0.792   1.806
 5826TIP3    H217422   8.025   0.701   1.726
 5827TIP3   OH217423   6.499   2.928   1.757
 5827TIP3    H117424   6.582   2.887   1.734
 5827TIP3    H217425   6.483   2.900   1.848
 5828TIP3   OH217426   0.452   0.739   5.193
 5828TIP3    H117427   0.502   0.680   5.137
 5828TIP3    H217428   0.403   0.680   5.251
 5829TIP3   OH217429   5.370   4.299   3.001
 5829TIP3    H117430   5.454   4.336   2.975
 5829TIP3    H217431   5.309   4.323   2.931
 5830TIP3   OH217432   7.946   6.142   2.820
 5830TIP3    H117433   7.863   6.129   2.866
 5830TIP3    H217434   7.922   6.183   2.737
 5831TIP3   OH217435   5.328   1.220   0.696
 5831TIP3    H117436   5.389   1.229   0.769
 5831TIP3    H217437   5.348   1.135   0.657
 5832TIP3   OH217438   1.511   5.931   4.437
 5832TIP3    H117439   1.586   5.875   4.454
 5832TIP3    H217440   1.465   5.890   4.364
 5833TIP3   OH217441   3.843   5.572   5.243
 5833TIP3    H117442   3.904   5.639   5.275
 5833TIP3    H217443   3.808   5.608   5.162
 5834TIP3   OH217444   3.563   0.719   0.852
 5834TIP3    H117445   3.648   0.676   0.837
 5834TIP3    H217446   3.498   0.655   0.822
 5835TIP3   OH217447   7.171   6.053   3.557
 5835TIP3    H117448   7.222   6.120   3.602
 5835TIP3    H217449   7.090   6.046   3.608
 5836TIP3   OH217450   6.606   5.345   3.300
 5836TIP3    H117451   6.586   5.358   3.393
 5836TIP3    H217452   6.671   5.412   3.280
 5837TIP3   OH217453   5.307   2.122   4.831
 5837TIP3    H117454   5.333   2.035   4.803
 5837TIP3    H217455   5.212   2.116   4.845
 5838TIP3   OH217456   3.754   2.446   3.743
 5838TIP3    H117457   3.717   2.504   3.676
 5838TIP3    H217458   3.808   2.385   3.695
 5839TIP3   OH217459   5.491   5.779   0.392
 5839TIP3    H117460   5.570   5.797   0.340
 5839TIP3    H217461   5.433   5.734   0.331
 5840TIP3   OH217462   8.107   6.023   4.158
 5840TIP3    H117463   8.121   5.962   4.230
 5840TIP3    H217464   8.195   6.054   4.135
 5841TIP3   OH217465   6.350   0.966   3.617
 5841TIP3    H117466   6.373   1.033   3.681
 5841TIP3    H217467   6.341   0.886   3.668
 5842TIP3   OH217468   4.883   2.265   0.025
 5842TIP3    H117469   4.929   2.270   0.109
 5842TIP3    H217470   4.856   2.356   0.007
 5843TIP3   OH217471   2.183   4.219   2.042
 5843TIP3    H117472   2.149   4.304   2.013
 5843TIP3    H217473   2.271   4.239   2.075
 5844TIP3   OH217474   7.323   5.350   2.016
 5844TIP3    H117475   7.363   5.371   1.931
 5844TIP3    H217476   7.239   5.396   2.015
 5845TIP3   OH217477   5.322  -0.021   3.468
 5845TIP3    H117478   5.288   0.057   3.424
 5845TIP3    H217479   5.293  -0.012   3.558
 5846TIP3   OH217480   1.537   4.929   6.575
 5846TIP3    H117481   1.568   5.010   6.534
 5846TIP3    H217482   1.577   4.929   6.662
 5847TIP3   OH217483   1.555   5.214   6.436
 5847TIP3    H117484   1.576   5.146   6.372
 5847TIP3    H217485   1.588   5.294   6.397
 5848TIP3   OH217486   2.994   5.790   1.976
 5848TIP3    H117487   3.089   5.803   1.983
 5848TIP3    H217488   2.975   5.718   2.035
 5849TIP3   OH217489   0.875   6.859   1.165
 5849TIP3    H117490   0.952   6.883   1.217
 5849TIP3    H217491   0.812   6.929   1.181
 5850TIP3   OH217492   2.761   2.207   5.488
 5850TIP3    H117493   2.766   2.218   5.393
 5850TIP3    H217494   2.842   2.160   5.511
 5851TIP3   OH217495   7.544   4.955   1.722
 5851TIP3    H117496   7.611   5.001   1.774
 5851TIP3    H217497   7.468   5.013   1.725
 5852TIP3   OH217498   2.317   5.022   2.608
 5852TIP3    H117499   2.290   4.931   2.604
 5852TIP3    H217500   2.256   5.068   2.551
 5853TIP3   OH217501   7.695   5.889   2.454
 5853TIP3    H117502   7.643   5.940   2.516
 5853TIP3    H217503   7.778   5.873   2.500
 5854TIP3   OH217504   5.381   2.368   0.552
 5854TIP3    H117505   5.289   2.363   0.527
 5854TIP3    H217506   5.383   2.343   0.644
 5855TIP3   OH217507   4.303   0.914   2.455
 5855TIP3    H117508   4.294   0.928   2.361
 5855TIP3    H217509   4.334   0.998   2.488
 5856TIP3   OH217510   7.304   6.035   6.062
 5856TIP3    H117511   7.379   6.022   6.119
 5856TIP3    H217512   7.282   5.948   6.030
 5857TIP3   OH217513   1.795   6.505   2.227
 5857TIP3    H117514   1.777   6.583   2.279
 5857TIP3    H217515   1.890   6.493   2.234
 5858TIP3   OH217516   0.950   1.988   3.908
 5858TIP3    H117517   0.984   1.903   3.879
 5858TIP3    H217518   0.868   1.999   3.860
 5859TIP3   OH217519   5.836   6.603   6.455
 5859TIP3    H117520   5.838   6.608   6.550
 5859TIP3    H217521   5.908   6.659   6.426
 5860TIP3   OH217522   0.760   0.282   1.052
 5860TIP3    H117523   0.827   0.285   1.120
 5860TIP3    H217524   0.691   0.225   1.088
 5861TIP3   OH217525   5.858   5.860   3.447
 5861TIP3    H117526   5.903   5.919   3.507
 5861TIP3    H217527   5.795   5.813   3.502
 5862TIP3   OH217528   6.155   1.433   6.329
 5862TIP3    H117529   6.189   1.460   6.244
 5862TIP3    H217530   6.064   1.462   6.329
 5863TIP3   OH217531   3.616   4.548   3.479
 5863TIP3    H117532   3.535   4.576   3.435
 5863TIP3    H217533   3.683   4.549   3.411
 5864TIP3   OH217534   1.335   6.976   1.108
 5864TIP3    H117535   1.253   7.024   1.119
 5864TIP3    H217536   1.332   6.908   1.175
 5865TIP3   OH217537   1.159   0.751   4.559
 5865TIP3    H117538   1.253   0.735   4.565
 5865TIP3    H217539   1.151   0.828   4.503
 5866TIP3   OH217540   7.231   6.061   5.011
 5866TIP3    H117541   7.319   6.028   4.994
 5866TIP3    H217542   7.177   6.024   4.941
 5867TIP3   OH217543   8.221   5.750   4.290
 5867TIP3    H117544   8.310   5.763   4.324
 5867TIP3    H217545   8.202   5.657   4.308
 5868TIP3   OH217546   3.946   2.449   6.643
 5868TIP3    H117547   3.960   2.468   6.735
 5868TIP3    H217548   4.022   2.488   6.598
 5869TIP3   OH217549   3.186   6.460   1.840
 5869TIP3    H117550   3.196   6.423   1.752
 5869TIP3    H217551   3.251   6.529   1.844
 5870TIP3   OH217552   3.632   3.323   5.951
 5870TIP3    H117553   3.697   3.321   6.022
 5870TIP3    H217554   3.668   3.383   5.886
 5871TIP3   OH217555   4.491   4.258   5.588
 5871TIP3    H117556   4.445   4.301   5.516
 5871TIP3    H217557   4.579   4.243   5.554
 5872TIP3   OH217558   5.263   2.625   1.874
 5872TIP3    H117559   5.354   2.611   1.845
 5872TIP3    H217560   5.236   2.540   1.908
 5873TIP3   OH217561   6.517   7.582   0.179
 5873TIP3    H117562   6.611   7.588   0.159
 5873TIP3    H217563   6.514   7.549   0.268
 5874TIP3   OH217564   3.503   7.050   3.596
 5874TIP3    H117565   3.591   7.084   3.611
 5874TIP3    H217566   3.511   6.998   3.516
 5875TIP3   OH217567   3.833   3.131   1.144
 5875TIP3    H117568   3.856   3.156   1.054
 5875TIP3    H217569   3.853   3.209   1.196
 5876TIP3   OH217570   0.276   4.443   4.228
 5876TIP3    H117571   0.190   4.483   4.220
 5876TIP3    H217572   0.319   4.461   4.144
 5877TIP3   OH217573   6.949   0.086   5.974
 5877TIP3    H117574   6.956   0.111   5.882
 5877TIP3    H217575   6.962  -0.009   5.975
 5878TIP3   OH217576   3.863   4.351   1.562
 5878TIP3    H117577   3.895   4.270   1.523
 5878TIP3    H217578   3.786   4.325   1.613
 5879TIP3   OH217579   6.436   0.398   2.240
 5879TIP3    H117580   6.497   0.378   2.168
 5879TIP3    H217581   6.493   0.407   2.317
 5880TIP3   OH217582   2.211   6.437   6.117
 5880TIP3    H117583   2.118   6.433   6.142
 5880TIP3    H217584   2.249   6.356   6.152
 5881TIP3   OH217585   0.295   2.203   5.863
 5881TIP3    H117586   0.248   2.286   5.863
 5881TIP3    H217587   0.315   2.187   5.956
 5882TIP3   OH217588   1.008   4.389   0.627
 5882TIP3    H117589   1.061   4.416   0.553
 5882TIP3    H217590   1.030   4.297   0.640
 5883TIP3   OH217591   0.216   0.596   5.702
 5883TIP3    H117592   0.151   0.565   5.640
 5883TIP3    H217593   0.171   0.597   5.787
 5884TIP3   OH217594   2.491   5.476   4.635
 5884TIP3    H117595   2.473   5.471   4.729
 5884TIP3    H217596   2.466   5.390   4.602
 5885TIP3   OH217597   5.372   3.059   2.128
 5885TIP3    H117598   5.460   3.096   2.135
 5885TIP3    H217599   5.346   3.042   2.219
 5886TIP3   OH217600   6.229   6.181   2.662
 5886TIP3    H117601   6.149   6.191   2.610
 5886TIP3    H217602   6.221   6.248   2.730
 5887TIP3   OH217603   4.193   5.614   1.626
 5887TIP3    H117604   4.103   5.619   1.595
 5887TIP3    H217605   4.238   5.557   1.563
 5888TIP3   OH217606   7.630   4.954   0.777
 5888TIP3    H117607   7.622   4.871   0.823
 5888TIP3    H217608   7.714   4.947   0.731
 5889TIP3   OH217609   4.834   7.222   1.021
 5889TIP3    H117610   4.761   7.235   0.961
 5889TIP3    H217611   4.846   7.307   1.064
 5890TIP3   OH217612   3.148   0.166   0.996
 5890TIP3    H117613   3.144   0.070   0.992
 5890TIP3    H217614   3.060   0.193   1.020
 5891TIP3   OH217615   7.504   4.430   3.336
 5891TIP3    H117616   7.419   4.467   3.312
 5891TIP3    H217617   7.554   4.431   3.255
 5892TIP3   OH217618   7.522   7.485   6.156
 5892TIP3    H117619   7.539   7.406   6.207
 5892TIP3    H217620   7.473   7.453   6.080
 5893TIP3   OH217621   7.126   2.420   6.687
 5893TIP3    H117622   7.143   2.425   6.593
 5893TIP3    H217623   7.183   2.350   6.718
 5894TIP3   OH217624   2.668   3.891   0.492
 5894TIP3    H117625   2.622   3.807   0.486
 5894TIP3    H217626   2.621   3.939   0.560
 5895TIP3   OH217627   7.109   6.017   6.726
 5895TIP3    H117628   7.174   6.071   6.682
 5895TIP3    H217629   7.156   5.979   6.801
 5896TIP3   OH217630   6.440   2.031   0.031
 5896TIP3    H117631   6.465   2.052   0.121
 5896TIP3    H217632   6.439   2.115  -0.014
 5897TIP3   OH217633   1.054   4.598   6.028
 5897TIP3    H117634   0.998   4.656   5.975
 5897TIP3    H217635   1.023   4.510   6.009
 5898TIP3   OH217636   0.010   2.195   6.777
 5898TIP3    H117637   0.050   2.271   6.735
 5898TIP3    H217638  -0.005   2.222   6.868
 5899TIP3   OH217639   0.658   2.700   0.900
 5899TIP3    H117640   0.578   2.751   0.912
 5899TIP3    H217641   0.697   2.735   0.820
 5900TIP3   OH217642   3.188   3.690   4.895
 5900TIP3    H117643   3.150   3.603   4.881
 5900TIP3    H217644   3.127   3.734   4.954
 5901TIP3   OH217645   7.846   7.751   4.067
 5901TIP3    H117646   7.761   7.708   4.081
 5901TIP3    H217647   7.862   7.798   4.148
 5902TIP3   OH217648   2.297   4.595   2.876
 5902TIP3    H117649   2.371   4.564   2.927
 5902TIP3    H217650   2.329   4.596   2.785
 5903TIP3   OH217651   1.929   4.985   4.971
 5903TIP3    H117652   2.016   4.945   4.982
 5903TIP3    H217653   1.869   4.911   4.962
 5904TIP3   OH217654   0.731   3.486   3.343
 5904TIP3    H117655   0.768   3.543   3.276
 5904TIP3    H217656   0.747   3.397   3.310
 5905TIP3   OH217657   3.589   5.155   5.036
 5905TIP3    H117658   3.581   5.101   5.114
 5905TIP3    H217659   3.683   5.173   5.029
 5906TIP3   OH217660   0.383   3.305   2.771
 5906TIP3    H117661   0.415   3.303   2.861
 5906TIP3    H217662   0.410   3.391   2.737
 5907TIP3   OH217663   1.825   5.207   4.418
 5907TIP3    H117664   1.781   5.191   4.501
 5907TIP3    H217665   1.895   5.142   4.415
 5908TIP3   OH217666   4.104   2.195   4.541
 5908TIP3    H117667   4.034   2.224   4.600
 5908TIP3    H217668   4.066   2.202   4.453
 5909TIP3   OH217669   0.266   0.376   3.232
 5909TIP3    H117670   0.177   0.360   3.264
 5909TIP3    H217671   0.265   0.466   3.200
 5910TIP3   OH217672   3.141   3.474   0.204
 5910TIP3    H117673   3.123   3.390   0.246
 5910TIP3    H217674   3.225   3.461   0.159
 5911TIP3   OH217675   2.217   2.152   4.341
 5911TIP3    H117676   2.172   2.175   4.422
 5911TIP3    H217677   2.303   2.120   4.370
 5912TIP3   OH217678   3.589   5.785   2.906
 5912TIP3    H117679   3.617   5.785   2.814
 5912TIP3    H217680   3.576   5.877   2.928
 5913TIP3   OH217681   2.668   5.997   2.406
 5913TIP3    H117682   2.600   6.048   2.360
 5913TIP3    H217683   2.702   5.938   2.340
 5914TIP3   OH217684   8.183   7.648   5.632
 5914TIP3    H117685   8.176   7.728   5.579
 5914TIP3    H217686   8.164   7.577   5.572
 5915TIP3   OH217687   5.688   6.945   4.838
 5915TIP3    H117688   5.763   6.970   4.784
 5915TIP3    H217689   5.725   6.889   4.906
 5916TIP3   OH217690   3.789   6.714   1.563
 5916TIP3    H117691   3.757   6.756   1.643
 5916TIP3    H217692   3.880   6.691   1.581
 5917TIP3   OH217693   3.028   2.491   5.685
 5917TIP3    H117694   3.064   2.518   5.600
 5917TIP3    H217695   3.100   2.503   5.746
 5918TIP3   OH217696   1.947   4.783   4.707
 5918TIP3    H117697   1.901   4.782   4.790
 5918TIP3    H217698   2.012   4.713   4.714
 5919TIP3   OH217699   0.691   0.464   0.157
 5919TIP3    H117700   0.724   0.480   0.068
 5919TIP3    H217701   0.646   0.544   0.182
 5920TIP3   OH217702   4.865   6.268   4.954
 5920TIP3    H117703   4.810   6.346   4.959
 5920TIP3    H217704   4.943   6.290   5.004
 5921TIP3   OH217705   5.811   0.199   1.900
 5921TIP3    H117706   5.886   0.254   1.880
 5921TIP3    H217707   5.770   0.240   1.976
 5922TIP3   OH217708   3.878   7.086   6.715
 5922TIP3    H117709   3.914   7.028   6.782
 5922TIP3    H217710   3.784   7.089   6.733
 5923TIP3   OH217711   5.703   4.085   0.241
 5923TIP3    H117712   5.741   4.009   0.285
 5923TIP3    H217713   5.609   4.075   0.252
 5924TIP3   OH217714   1.503   0.522   6.440
 5924TIP3    H117715   1.530   0.590   6.378
 5924TIP3    H217716   1.570   0.523   6.508
 5925TIP3   OH217717   0.214   1.847   4.782
 5925TIP3    H117718   0.254   1.782   4.840
 5925TIP3    H217719   0.287   1.900   4.750
 5926TIP3   OH217720   2.854   4.618   4.615
 5926TIP3    H117721   2.826   4.527   4.619
 5926TIP3    H217722   2.782   4.663   4.571
 5927TIP3   OH217723   5.563   7.654   1.863
 5927TIP3    H117724   5.558   7.687   1.952
 5927TIP3    H217725   5.476   7.618   1.845
 5928TIP3   OH217726   8.032   6.557   6.046
 5928TIP3    H117727   8.109   6.545   6.101
 5928TIP3    H217728   7.999   6.644   6.070
 5929TIP3   OH217729   5.027   0.790   4.275
 5929TIP3    H117730   5.094   0.733   4.239
 5929TIP3    H217731   4.944   0.745   4.257
 5930TIP3   OH217732   2.892   2.421   1.019
 5930TIP3    H117733   2.966   2.359   1.012
 5930TIP3    H217734   2.817   2.366   1.043
 5931TIP3   OH217735   3.226   1.891  -0.055
 5931TIP3    H117736   3.187   1.968  -0.013
 5931TIP3    H217737   3.320   1.907  -0.053
 5932TIP3   OH217738   6.249   1.965   3.543
 5932TIP3    H117739   6.200   1.893   3.505
 5932TIP3    H217740   6.332   1.927   3.572
 5933TIP3   OH217741   5.336   2.814   1.525
 5933TIP3    H117742   5.349   2.856   1.610
 5933TIP3    H217743   5.288   2.879   1.473
 5934TIP3   OH217744   7.868   7.581   6.199
 5934TIP3    H117745   7.837   7.667   6.228
 5934TIP3    H217746   7.930   7.554   6.266
 5935TIP3   OH217747   4.214   0.225   2.652
 5935TIP3    H117748   4.152   0.298   2.653
 5935TIP3    H217749   4.258   0.230   2.737
 5936TIP3   OH217750   7.161   1.015   0.511
 5936TIP3    H117751   7.072   0.985   0.490
 5936TIP3    H217752   7.148   1.104   0.546
 5937TIP3   OH217753   6.236   5.462   6.177
 5937TIP3    H117754   6.325   5.445   6.211
 5937TIP3    H217755   6.225   5.557   6.187
 5938TIP3   OH217756   2.520   7.278   6.222
 5938TIP3    H117757   2.558   7.319   6.300
 5938TIP3    H217758   2.589   7.220   6.190
 5939TIP3   OH217759   7.607   4.062   3.332
 5939TIP3    H117760   7.655   4.119   3.392
 5939TIP3    H217761   7.519   4.055   3.370
 5940TIP3   OH217762   2.910   4.815   5.585
 5940TIP3    H117763   2.902   4.865   5.666
 5940TIP3    H217764   3.005   4.802   5.575
 5941TIP3   OH217765   1.044   0.717   6.330
 5941TIP3    H117766   1.021   0.625   6.313
 5941TIP3    H217767   1.138   0.716   6.346
 5942TIP3   OH217768   5.544   6.524   6.769
 5942TIP3    H117769   5.541   6.478   6.686
 5942TIP3    H217770   5.457   6.563   6.779
 5943TIP3   OH217771   3.423   3.492   4.463
 5943TIP3    H117772   3.374   3.528   4.389
 5943TIP3    H217773   3.485   3.431   4.423
 5944TIP3   OH217774   7.484   1.813   4.202
 5944TIP3    H117775   7.570   1.772   4.211
 5944TIP3    H217776   7.434   1.753   4.147
 5945TIP3   OH217777   8.216   0.999   0.180
 5945TIP3    H117778   8.252   1.035   0.262
 5945TIP3    H217779   8.193   0.909   0.202
 5946TIP3   OH217780   6.653   7.312   2.109
 5946TIP3    H117781   6.644   7.371   2.184
 5946TIP3    H217782   6.627   7.365   2.034
 5947TIP3   OH217783   4.960   2.216   3.038
 5947TIP3    H117784   4.974   2.293   3.093
 5947TIP3    H217785   4.873   2.228   3.000
 5948TIP3   OH217786   0.102   4.487   3.544
 5948TIP3    H117787   0.122   4.494   3.637
 5948TIP3    H217788   0.074   4.575   3.518
 5949TIP3   OH217789   6.874   2.521   4.493
 5949TIP3    H117790   6.917   2.590   4.542
 5949TIP3    H217791   6.924   2.515   4.411
 5950TIP3   OH217792   0.279   7.709   0.985
 5950TIP3    H117793   0.208   7.767   0.956
 5950TIP3    H217794   0.296   7.652   0.909
 5951TIP3   OH217795   5.968   3.815   2.266
 5951TIP3    H117796   5.948   3.785   2.177
 5951TIP3    H217797   5.893   3.870   2.290
 5952TIP3   OH217798   8.131   4.106   5.683
 5952TIP3    H117799   8.209   4.059   5.711
 5952TIP3    H217800   8.062   4.076   5.742
 5953TIP3   OH217801   1.241   7.708   3.543
 5953TIP3    H117802   1.257   7.631   3.488
 5953TIP3    H217803   1.146   7.706   3.559
 5954TIP3   OH217804   6.976   4.757   2.721
 5954TIP3    H117805   7.039   4.737   2.790
 5954TIP3    H217806   6.999   4.699   2.649
 5955TIP3   OH217807   8.132   3.096   5.691
 5955TIP3    H117808   8.094   3.033   5.629
 5955TIP3    H217809   8.057   3.144   5.726
 5956TIP3   OH217810   4.534   6.622   6.329
 5956TIP3    H117811   4.622   6.591   6.307
 5956TIP3    H217812   4.548   6.708   6.367
 5957TIP3   OH217813   0.749   7.131   0.535
 5957TIP3    H117814   0.818   7.170   0.481
 5957TIP3    H217815   0.777   7.041   0.547
 5958TIP3   OH217816   5.437   2.328   3.472
 5958TIP3    H117817   5.385   2.335   3.391
 5958TIP3    H217818   5.514   2.381   3.456
 5959TIP3   OH217819   2.542   1.531   4.327
 5959TIP3    H117820   2.446   1.539   4.321
 5959TIP3    H217821   2.572   1.619   4.348
 5960TIP3   OH217822   4.792   7.394   5.024
 5960TIP3    H117823   4.866   7.454   5.019
 5960TIP3    H217824   4.739   7.426   5.097
 5961TIP3   OH217825   1.709   5.461   5.511
 5961TIP3    H117826   1.659   5.439   5.590
 5961TIP3    H217827   1.657   5.425   5.439
 5962TIP3   OH217828   6.158   6.902   4.674
 5962TIP3    H117829   6.248   6.934   4.674
 5962TIP3    H217830   6.164   6.810   4.647
 5963TIP3   OH217831   4.049   7.163   0.208
 5963TIP3    H117832   4.081   7.233   0.264
 5963TIP3    H217833   4.108   7.164   0.132
 5964TIP3   OH217834   2.283   7.448   1.596
 5964TIP3    H117835   2.286   7.465   1.690
 5964TIP3    H217836   2.373   7.426   1.573
 5965TIP3   OH217837   5.850   6.749   2.190
 5965TIP3    H117838   5.840   6.750   2.285
 5965TIP3    H217839   5.933   6.704   2.175
 5966TIP3   OH217840   2.944   5.654   5.101
 5966TIP3    H117841   2.917   5.707   5.025
 5966TIP3    H217842   3.039   5.657   5.099
 5967TIP3   OH217843   7.656   6.146   6.400
 5967TIP3    H117844   7.691   6.220   6.449
 5967TIP3    H217845   7.590   6.107   6.458
 5968TIP3   OH217846   8.083   3.117   2.381
 5968TIP3    H117847   8.160   3.105   2.436
 5968TIP3    H217848   8.049   3.203   2.405
 5969TIP3   OH217849   2.399   7.448   5.372
 5969TIP3    H117850   2.325   7.396   5.401
 5969TIP3    H217851   2.421   7.413   5.286
 5970TIP3   OH217852   5.279   6.539   1.252
 5970TIP3    H117853   5.186   6.524   1.233
 5970TIP3    H217854   5.279   6.605   1.321
 5971TIP3   OH217855   3.830   4.798   1.521
 5971TIP3    H117856   3.754   4.857   1.514
 5971TIP3    H217857   3.905   4.857   1.527
 5972TIP3   OH217858   5.581   1.954   4.320
 5972TIP3    H117859   5.487   1.967   4.312
 5972TIP3    H217860   5.590   1.876   4.376
 5973TIP3   OH217861   8.097   0.492   3.120
 5973TIP3    H117862   8.094   0.397   3.111
 5973TIP3    H217863   8.190   0.514   3.114
 5974TIP3   OH217864   0.036   1.045   2.752
 5974TIP3    H117865  -0.020   1.121   2.738
 5974TIP3    H217866   0.056   1.046   2.845
 5975TIP3   OH217867   6.518   2.977   0.313
 5975TIP3    H117868   6.457   2.988   0.240
 5975TIP3    H217869   6.596   2.938   0.273
 5976TIP3   OH217870   2.931   5.350   1.899
 5976TIP3    H117871   2.865   5.416   1.878
 5976TIP3    H217872   2.983   5.341   1.820
 5977TIP3   OH217873   8.135   3.448   4.261
 5977TIP3    H117874   8.147   3.382   4.330
 5977TIP3    H217875   8.224   3.470   4.233
 5978TIP3   OH217876   7.832   5.744   2.853
 5978TIP3    H117877   7.740   5.732   2.878
 5978TIP3    H217878   7.878   5.671   2.894
 5979TIP3   OH217879   8.120   5.745   0.287
 5979TIP3    H117880   8.133   5.699   0.204
 5979TIP3    H217881   8.126   5.676   0.353
 5980TIP3   OH217882   4.327   0.764   1.833
 5980TIP3    H117883   4.285   0.764   1.748
 5980TIP3    H217884   4.418   0.788   1.815
 5981TIP3   OH217885   2.750   6.278   3.062
 5981TIP3    H117886   2.698   6.357   3.079
 5981TIP3    H217887   2.805   6.268   3.139
 5982TIP3   OH217888   4.791   7.371   0.204
 5982TIP3    H117889   4.732   7.305   0.240
 5982TIP3    H217890   4.766   7.452   0.249
 5983TIP3   OH217891   2.152   4.186   0.644
 5983TIP3    H117892   2.066   4.227   0.635
 5983TIP3    H217893   2.203   4.219   0.570
 5984TIP3   OH217894   4.547   0.781   1.673
 5984TIP3    H117895   4.641   0.782   1.691
 5984TIP3    H217896   4.540   0.737   1.588
 5985TIP3   OH217897   1.482   5.707   5.744
 5985TIP3    H117898   1.570   5.733   5.771
 5985TIP3    H217899   1.485   5.612   5.743
 5986TIP3   OH217900   2.222   6.612   6.372
 5986TIP3    H117901   2.176   6.593   6.291
 5986TIP3    H217902   2.307   6.569   6.363
 5987TIP3   OH217903   4.544   3.313   1.035
 5987TIP3    H117904   4.512   3.290   1.122
 5987TIP3    H217905   4.622   3.259   1.023
 5988TIP3   OH217906   7.001   4.042   4.772
 5988TIP3    H117907   7.010   4.101   4.697
 5988TIP3    H217908   7.064   4.075   4.836
 5989TIP3   OH217909   3.583   7.672   5.694
 5989TIP3    H117910   3.591   7.580   5.719
 5989TIP3    H217911   3.505   7.675   5.639
 5990TIP3   OH217912   4.862   4.771   4.360
 5990TIP3    H117913   4.923   4.769   4.434
 5990TIP3    H217914   4.799   4.840   4.382
 5991TIP3   OH217915   7.259   7.566   1.109
 5991TIP3    H117916   7.336   7.564   1.051
 5991TIP3    H217917   7.260   7.654   1.146
 5992TIP3   OH217918   0.733   1.332   3.593
 5992TIP3    H117919   0.759   1.424   3.600
 5992TIP3    H217920   0.814   1.283   3.605
 5993TIP3   OH217921   2.523   5.956   5.210
 5993TIP3    H117922   2.572   6.039   5.205
 5993TIP3    H217923   2.570   5.896   5.153
 5994TIP3   OH217924   8.209   6.591   3.693
 5994TIP3    H117925   8.181   6.603   3.783
 5994TIP3    H217926   8.301   6.566   3.700
 5995TIP3   OH217927   3.751   1.710   4.996
 5995TIP3    H117928   3.698   1.729   4.918
 5995TIP3    H217929   3.794   1.627   4.977
 5996TIP3   OH217930   5.383   4.639   0.164
 5996TIP3    H117931   5.343   4.704   0.222
 5996TIP3    H217932   5.417   4.690   0.091
 5997TIP3   OH217933   7.250   3.555   2.735
 5997TIP3    H117934   7.309   3.616   2.691
 5997TIP3    H217935   7.270   3.566   2.828
 5998TIP3   OH217936   1.469   3.261   0.278
 5998TIP3    H117937   1.504   3.251   0.190
 5998TIP3    H217938   1.441   3.352   0.283
 5999TIP3   OH217939   0.423   7.640   2.639
 5999TIP3    H117940   0.415   7.725   2.682
 5999TIP3    H217941   0.394   7.656   2.549
 6000TIP3   OH217942   5.559   4.397   0.332
 6000TIP3    H117943   5.468   4.403   0.361
 6000TIP3    H217944   5.553   4.375   0.239
 6001TIP3   OH217945   4.600   6.340   0.214
 6001TIP3    H117946   4.636   6.289   0.141
 6001TIP3    H217947   4.505   6.336   0.202
 6002TIP3   OH217948   3.720   6.307   2.353
 6002TIP3    H117949   3.760   6.385   2.313
 6002TIP3    H217950   3.752   6.307   2.443
 6003TIP3   OH217951   6.182   6.920   5.394
 6003TIP3    H117952   6.254   6.886   5.340
 6003TIP3    H217953   6.215   6.916   5.483
 6004TIP3   OH217954   6.656   5.201   0.979
 6004TIP3    H117955   6.691   5.149   0.907
 6004TIP3    H217956   6.729   5.209   1.041
 6005TIP3   OH217957   2.334   1.363   6.754
 6005TIP3    H117958   2.241   1.379   6.769
 6005TIP3    H217959   2.348   1.385   6.661
 6006TIP3   OH217960   1.639   1.557   0.299
 6006TIP3    H117961   1.583   1.510   0.237
 6006TIP3    H217962   1.578   1.600   0.359
 6007TIP3   OH217963   1.038   7.714   6.240
 6007TIP3    H117964   1.025   7.767   6.318
 6007TIP3    H217965   1.131   7.725   6.219
 6008TIP3   OH217966   7.112   2.040   5.420
 6008TIP3    H117967   7.080   1.958   5.381
 6008TIP3    H217968   7.049   2.106   5.393
 6009TIP3   OH217969   5.037   0.482   3.570
 6009TIP3    H117970   5.025   0.567   3.529
 6009TIP3    H217971   5.007   0.494   3.660
 6010TIP3   OH217972   7.869   5.992   4.032
 6010TIP3    H117973   7.936   6.036   4.086
 6010TIP3    H217974   7.918   5.926   3.983
 6011TIP3   OH217975   6.881   4.913   5.332
 6011TIP3    H117976   6.941   4.987   5.323
 6011TIP3    H217977   6.820   4.940   5.401
 6012TIP3   OH217978   6.326   2.171   0.818
 6012TIP3    H117979   6.346   2.262   0.842
 6012TIP3    H217980   6.232   2.172   0.798
 6013TIP3   OH217981   1.716   6.915   5.734
 6013TIP3    H117982   1.646   6.899   5.797
 6013TIP3    H217983   1.686   6.990   5.683
 6014TIP3   OH217984   2.345   2.617   6.107
 6014TIP3    H117985   2.377   2.673   6.178
 6014TIP3    H217986   2.315   2.679   6.040
 6015TIP3   OH217987   0.201   6.169   4.703
 6015TIP3    H117988   0.120   6.220   4.701
 6015TIP3    H217989   0.271   6.234   4.711
 6016TIP3   OH217990   6.243   6.879   0.796
 6016TIP3    H117991   6.256   6.869   0.702
 6016TIP3    H217992   6.151   6.858   0.810
 6017TIP3   OH217993   0.210   7.263   2.133
 6017TIP3    H117994   0.152   7.321   2.082
 6017TIP3    H217995   0.297   7.299   2.120
 6018TIP3   OH217996   6.995   0.003   4.574
 6018TIP3    H117997   6.907  -0.013   4.609
 6018TIP3    H217998   7.041   0.050   4.644
 6019TIP3   OH217999   7.410   4.468   6.583
 6019TIP3    H118000   7.377   4.405   6.519
 6019TIP3    H218001   7.503   4.449   6.591
 6020TIP3   OH218002   5.078   2.571   4.111
 6020TIP3    H118003   5.140   2.536   4.176
 6020TIP3    H218004   5.073   2.664   4.132
 6021TIP3   OH218005   6.450   4.847   2.798
 6021TIP3    H118006   6.530   4.842   2.746
 6021TIP3    H218007   6.480   4.840   2.889
 6022TIP3   OH218008   7.949   2.403   3.288
 6022TIP3    H118009   7.961   2.326   3.233
 6022TIP3    H218010   8.000   2.472   3.245
 6023TIP3   OH218011   3.759   1.631   2.381
 6023TIP3    H118012   3.686   1.681   2.346
 6023TIP3    H218013   3.722   1.583   2.456
 6024TIP3   OH218014   5.169   3.517   5.618
 6024TIP3    H118015   5.200   3.565   5.541
 6024TIP3    H218016   5.127   3.583   5.672
 6025TIP3   OH218017   6.825   4.805   3.503
 6025TIP3    H118018   6.784   4.720   3.485
 6025TIP3    H218019   6.791   4.830   3.589
 6026TIP3   OH218020   3.440   1.228   6.344
 6026TIP3    H118021   3.474   1.317   6.331
 6026TIP3    H218022   3.514   1.171   6.320
 6027TIP3   OH218023   2.352   7.379   2.899
 6027TIP3    H118024   2.377   7.303   2.847
 6027TIP3    H218025   2.394   7.453   2.854
 6028TIP3   OH218026   4.957   4.037   3.647
 6028TIP3    H118027   5.027   3.986   3.688
 6028TIP3    H218028   4.877   4.006   3.689
 6029TIP3   OH218029   6.966   2.252   3.326
 6029TIP3    H118030   7.057   2.239   3.296
 6029TIP3    H218031   6.934   2.324   3.272
 6030TIP3   OH218032   6.623   0.252   6.005
 6030TIP3    H118033   6.549   0.292   5.960
 6030TIP3    H218034   6.613   0.158   5.989
 6031TIP3   OH218035   0.658   5.315   5.824
 6031TIP3    H118036   0.739   5.270   5.849
 6031TIP3    H218037   0.611   5.251   5.771
 6032TIP3   OH218038   3.195   5.294   6.163
 6032TIP3    H118039   3.168   5.259   6.247
 6032TIP3    H218040   3.286   5.321   6.176
 6033TIP3   OH218041   4.497   2.656   5.389
 6033TIP3    H118042   4.547   2.591   5.438
 6033TIP3    H218043   4.546   2.667   5.308
 6034TIP3   OH218044   2.936   1.244   5.879
 6034TIP3    H118045   2.997   1.172   5.895
 6034TIP3    H218046   2.882   1.215   5.806
 6035TIP3   OH218047   1.978   4.899   2.549
 6035TIP3    H118048   1.944   4.889   2.638
 6035TIP3    H218049   2.071   4.879   2.556
 6036TIP3   OH218050   3.792   2.762   3.385
 6036TIP3    H118051   3.798   2.851   3.350
 6036TIP3    H218052   3.881   2.729   3.383
 6037TIP3   OH218053   3.294   3.309   5.950
 6037TIP3    H118054   3.289   3.347   6.037
 6037TIP3    H218055   3.386   3.285   5.939
 6038TIP3   OH218056   6.939   1.765   6.738
 6038TIP3    H118057   6.844   1.771   6.751
 6038TIP3    H218058   6.963   1.846   6.693
 6039TIP3   OH218059   4.577   1.309   2.406
 6039TIP3    H118060   4.540   1.384   2.453
 6039TIP3    H218061   4.629   1.348   2.336
 6040TIP3   OH218062   5.451   3.137   1.239
 6040TIP3    H118063   5.429   3.126   1.147
 6040TIP3    H218064   5.417   3.224   1.262
 6041TIP3   OH218065   0.122   7.221   4.774
 6041TIP3    H118066   0.158   7.297   4.820
 6041TIP3    H218067   0.197   7.179   4.733
 6042TIP3   OH218068   7.815   6.838   5.359
 6042TIP3    H118069   7.785   6.927   5.341
 6042TIP3    H218070   7.818   6.796   5.273
 6043TIP3   OH218071   2.156   3.636   6.436
 6043TIP3    H118072   2.156   3.669   6.346
 6043TIP3    H218073   2.098   3.560   6.433
 6044TIP3   OH218074   2.184   4.320   5.019
 6044TIP3    H118075   2.214   4.314   4.928
 6044TIP3    H218076   2.263   4.303   5.071
 6045TIP3   OH218077   5.896   4.752   3.964
 6045TIP3    H118078   5.937   4.774   3.880
 6045TIP3    H218079   5.958   4.783   4.030
 6046TIP3   OH218080   0.072   3.704   6.574
 6046TIP3    H118081   0.016   3.632   6.544
 6046TIP3    H218082   0.130   3.665   6.638
 6047TIP3   OH218083   0.730   2.922   1.433
 6047TIP3    H118084   0.679   3.000   1.410
 6047TIP3    H218085   0.670   2.869   1.486
 6048TIP3   OH218086   4.745   1.369   1.500
 6048TIP3    H118087   4.716   1.418   1.423
 6048TIP3    H218088   4.832   1.404   1.520
 6049TIP3   OH218089   3.952   3.178   2.559
 6049TIP3    H118090   4.036   3.182   2.514
 6049TIP3    H218091   3.888   3.203   2.493
 6050TIP3   OH218092   3.658   1.156   4.788
 6050TIP3    H118093   3.630   1.085   4.731
 6050TIP3    H218094   3.746   1.132   4.816
 6051TIP3   OH218095   2.618   5.037   0.481
 6051TIP3    H118096   2.589   4.958   0.528
 6051TIP3    H218097   2.541   5.094   0.482
 6052TIP3   OH218098   6.896   7.210   1.822
 6052TIP3    H118099   6.918   7.294   1.782
 6052TIP3    H218100   6.963   7.150   1.788
 6053TIP3   OH218101   6.370   3.559   2.019
 6053TIP3    H118102   6.322   3.628   1.973
 6053TIP3    H218103   6.363   3.583   2.111
 6054TIP3   OH218104   2.189   1.581   0.946
 6054TIP3    H118105   2.195   1.488   0.968
 6054TIP3    H218106   2.133   1.618   1.014
 6055TIP3   OH218107   3.211   2.092   4.298
 6055TIP3    H118108   3.203   2.008   4.342
 6055TIP3    H218109   3.162   2.082   4.217
 6056TIP3   OH218110   0.884   1.889   5.951
 6056TIP3    H118111   0.832   1.950   5.899
 6056TIP3    H218112   0.950   1.856   5.890
 6057TIP3   OH218113   7.524   0.109   5.016
 6057TIP3    H118114   7.595   0.137   5.073
 6057TIP3    H218115   7.564   0.045   4.957
 6058TIP3   OH218116   2.262   5.414   2.991
 6058TIP3    H118117   2.211   5.495   2.983
 6058TIP3    H218118   2.260   5.376   2.903
 6059TIP3   OH218119   1.750   4.480   4.494
 6059TIP3    H118120   1.813   4.487   4.422
 6059TIP3    H218121   1.667   4.508   4.456
 6060TIP3   OH218122   2.221   3.418   3.545
 6060TIP3    H118123   2.255   3.507   3.538
 6060TIP3    H218124   2.156   3.411   3.475
 6061TIP3   OH218125   0.749   5.202   4.907
 6061TIP3    H118126   0.747   5.226   4.814
 6061TIP3    H218127   0.729   5.284   4.953
 6062TIP3   OH218128   0.569   4.102   0.675
 6062TIP3    H118129   0.633   4.054   0.728
 6062TIP3    H218130   0.596   4.086   0.585
 6063TIP3   OH218131   7.007   7.464   2.642
 6063TIP3    H118132   6.990   7.389   2.699
 6063TIP3    H218133   7.049   7.425   2.565
 6064TIP3   OH218134   0.178   2.436   3.934
 6064TIP3    H118135   0.225   2.517   3.955
 6064TIP3    H218136   0.181   2.430   3.839
 6065TIP3   OH218137   6.884   0.734   4.395
 6065TIP3    H118138   6.950   0.726   4.327
 6065TIP3    H218139   6.824   0.661   4.379
 6066TIP3   OH218140   0.094   1.919   0.397
 6066TIP3    H118141   0.060   1.951   0.314
 6066TIP3    H218142   0.129   1.832   0.376
 6067TIP3   OH218143   4.569   6.122   3.397
 6067TIP3    H118144   4.623   6.053   3.359
 6067TIP3    H218145   4.569   6.105   3.491
 6068TIP3   OH218146   0.625   0.037   1.439
 6068TIP3    H118147   0.640   0.121   1.483
 6068TIP3    H218148   0.530   0.033   1.427
 6069TIP3   OH218149   4.779   1.901   0.640
 6069TIP3    H118150   4.764   1.940   0.554
 6069TIP3    H218151   4.849   1.953   0.678
 6070TIP3   OH218152   6.671   1.783   6.321
 6070TIP3    H118153   6.665   1.702   6.272
 6070TIP3    H218154   6.750   1.774   6.375
 6071TIP3   OH218155   2.357   0.428   0.077
 6071TIP3    H118156   2.426   0.372   0.042
 6071TIP3    H218157   2.375   0.433   0.170
 6072TIP3   OH218158   0.693   7.206   5.806
 6072TIP3    H118159   0.677   7.170   5.893
 6072TIP3    H218160   0.630   7.161   5.749
 6073TIP3   OH218161   7.917   6.840   2.041
 6073TIP3    H118162   8.000   6.817   2.000
 6073TIP3    H218163   7.852   6.791   1.991
 6074TIP3   OH218164   6.517   4.316   5.269
 6074TIP3    H118165   6.510   4.412   5.265
 6074TIP3    H218166   6.502   4.287   5.179
 6075TIP3   OH218167   5.429   1.660   4.635
 6075TIP3    H118168   5.379   1.599   4.581
 6075TIP3    H218169   5.496   1.696   4.575
 6076TIP3   OH218170   3.577   7.722   4.928
 6076TIP3    H118171   3.617   7.674   5.001
 6076TIP3    H218172   3.490   7.684   4.919
 6077TIP3   OH218173   8.185   7.706   0.895
 6077TIP3    H118174   8.162   7.659   0.976
 6077TIP3    H218175   8.105   7.701   0.842
 6078TIP3   OH218176   6.058   2.620   1.510
 6078TIP3    H118177   5.999   2.654   1.443
 6078TIP3    H218178   6.000   2.579   1.574
 6079TIP3   OH218179   4.919   0.139   0.800
 6079TIP3    H118180   4.944   0.064   0.746
 6079TIP3    H218181   4.998   0.192   0.806
 6080TIP3   OH218182   3.368   4.126   3.764
 6080TIP3    H118183   3.390   4.186   3.835
 6080TIP3    H218184   3.425   4.151   3.692
 6081TIP3   OH218185   7.465   7.097   5.092
 6081TIP3    H118186   7.463   7.070   5.183
 6081TIP3    H218187   7.498   7.021   5.045
 6082TIP3   OH218188   5.341   1.782   6.246
 6082TIP3    H118189   5.261   1.731   6.238
 6082TIP3    H218190   5.316   1.858   6.299
 6083TIP3   OH218191   0.576   1.377   4.115
 6083TIP3    H118192   0.502   1.414   4.068
 6083TIP3    H218193   0.550   1.381   4.207
 6084TIP3   OH218194   3.559   6.931   6.793
 6084TIP3    H118195   3.468   6.900   6.798
 6084TIP3    H218196   3.609   6.853   6.771
 6085TIP3   OH218197   4.820   7.096   4.364
 6085TIP3    H118198   4.799   7.186   4.339
 6085TIP3    H218199   4.872   7.062   4.291
 6086TIP3   OH218200   0.674   6.383   6.355
 6086TIP3    H118201   0.763   6.398   6.387
 6086TIP3    H218202   0.686   6.336   6.272
 6087TIP3   OH218203   4.041   5.676   4.920
 6087TIP3    H118204   3.951   5.693   4.892
 6087TIP3    H218205   4.067   5.598   4.872
 6088TIP3   OH218206   3.050   6.336   2.041
 6088TIP3    H118207   3.037   6.396   2.114
 6088TIP3    H218208   3.085   6.390   1.970
 6089TIP3   OH218209   3.166   5.889   4.334
 6089TIP3    H118210   3.107   5.816   4.316
 6089TIP3    H218211   3.234   5.882   4.267
 6090TIP3   OH218212   1.176   2.021   6.497
 6090TIP3    H118213   1.198   2.089   6.561
 6090TIP3    H218214   1.240   2.033   6.427
 6091TIP3   OH218215   1.266   0.040   5.917
 6091TIP3    H118216   1.342   0.062   5.970
 6091TIP3    H218217   1.302   0.011   5.833
 6092TIP3   OH218218   2.660   1.031   6.231
 6092TIP3    H118219   2.614   1.114   6.219
 6092TIP3    H218220   2.593   0.971   6.263
 6093TIP3   OH218221   4.129   4.920   1.278
 6093TIP3    H118222   4.044   4.910   1.235
 6093TIP3    H218223   4.111   4.900   1.370
 6094TIP3   OH218224   5.828   1.984   4.702
 6094TIP3    H118225   5.781   1.916   4.750
 6094TIP3    H218226   5.920   1.957   4.707
 6095TIP3   OH218227   8.105   4.891   6.259
 6095TIP3    H118228   8.061   4.815   6.220
 6095TIP3    H218229   8.147   4.856   6.338
 6096TIP3   OH218230   7.411   2.907   6.063
 6096TIP3    H118231   7.416   2.874   6.153
 6096TIP3    H218232   7.351   2.982   6.068
 6097TIP3   OH218233   5.194   6.807   5.775
 6097TIP3    H118234   5.221   6.885   5.823
 6097TIP3    H218235   5.207   6.735   5.836
 6098TIP3   OH218236   8.209   6.181   6.206
 6098TIP3    H118237   8.222   6.133   6.288
 6098TIP3    H218238   8.114   6.190   6.199
 6099TIP3   OH218239   5.878   2.178   3.605
 6099TIP3    H118240   5.877   2.137   3.692
 6099TIP3    H218241   5.856   2.106   3.545
 6100TIP3   OH218242   0.825   7.082   6.068
 6100TIP3    H118243   0.754   7.070   6.132
 6100TIP3    H218244   0.903   7.047   6.111
 6101TIP3   OH218245   0.032   5.090   4.025
 6101TIP3    H118246   0.027   5.024   4.093
 6101TIP3    H218247  -0.054   5.132   4.027
 6102TIP3   OH218248   5.871   3.852   5.225
 6102TIP3    H118249   5.892   3.872   5.316
 6102TIP3    H218250   5.874   3.937   5.181
 6103TIP3   OH218251   3.070   3.316   1.691
 6103TIP3    H118252   3.071   3.338   1.598
 6103TIP3    H218253   3.147   3.360   1.727
 6104TIP3   OH218254   5.977   7.315   1.212
 6104TIP3    H118255   6.069   7.287   1.212
 6104TIP3    H218256   5.954   7.321   1.305
 6105TIP3   OH218257   4.003   7.062   1.525
 6105TIP3    H118258   4.039   6.999   1.462
 6105TIP3    H218259   3.963   7.129   1.470
 6106TIP3   OH218260   8.175   7.399   5.466
 6106TIP3    H118261   8.136   7.320   5.428
 6106TIP3    H218262   8.263   7.402   5.430
 6107TIP3   OH218263   5.345   7.396   1.109
 6107TIP3    H118264   5.317   7.432   1.193
 6107TIP3    H218265   5.433   7.363   1.125
 6108TIP3   OH218266   6.367   2.326   3.372
 6108TIP3    H118267   6.347   2.245   3.325
 6108TIP3    H218268   6.462   2.329   3.375
 6109TIP3   OH218269   2.271   3.992   5.311
 6109TIP3    H118270   2.332   3.986   5.385
 6109TIP3    H218271   2.279   4.082   5.281
 6110TIP3   OH218272   4.385   1.735   1.119
 6110TIP3    H118273   4.362   1.677   1.047
 6110TIP3    H218274   4.440   1.682   1.176
 6111TIP3   OH218275   5.560   6.585   4.344
 6111TIP3    H118276   5.545   6.620   4.432
 6111TIP3    H218277   5.637   6.631   4.312
 6112TIP3   OH218278   0.669   5.723   3.252
 6112TIP3    H118279   0.687   5.708   3.159
 6112TIP3    H218280   0.581   5.687   3.266
 6113TIP3   OH218281   6.641   1.515   1.755
 6113TIP3    H118282   6.639   1.558   1.840
 6113TIP3    H218283   6.564   1.459   1.755
 6114TIP3   OH218284   1.759   5.901   4.193
 6114TIP3    H118285   1.733   5.973   4.136
 6114TIP3    H218286   1.753   5.937   4.282
 6115TIP3   OH218287   1.429   7.050   5.309
 6115TIP3    H118288   1.456   6.958   5.308
 6115TIP3    H218289   1.509   7.098   5.287
 6116TIP3   OH218290   7.514   4.349   3.574
 6116TIP3    H118291   7.575   4.421   3.591
 6116TIP3    H218292   7.503   4.347   3.479
 6117TIP3   OH218293   1.226   7.756   2.366
 6117TIP3    H118294   1.169   7.812   2.314
 6117TIP3    H218295   1.174   7.678   2.384
 6118TIP3   OH218296   0.352   2.951   2.066
 6118TIP3    H118297   0.280   3.011   2.087
 6118TIP3    H218298   0.309   2.873   2.031
 6119TIP3   OH218299   2.734   7.555   4.433
 6119TIP3    H118300   2.642   7.571   4.414
 6119TIP3    H218301   2.781   7.593   4.359
 6120TIP3   OH218302   5.596   0.482   4.466
 6120TIP3    H118303   5.670   0.529   4.504
 6120TIP3    H218304   5.623   0.390   4.464
 6121TIP3   OH218305   1.494   7.791   2.279
 6121TIP3    H118306   1.399   7.783   2.289
 6121TIP3    H218307   1.526   7.799   2.369
 6122TIP3   OH218308   6.819   1.413   3.120
 6122TIP3    H118309   6.812   1.475   3.193
 6122TIP3    H218310   6.732   1.373   3.114
 6123TIP3   OH218311   0.432   0.695   0.835
 6123TIP3    H118312   0.344   0.664   0.813
 6123TIP3    H218313   0.488   0.618   0.825
 6124TIP3   OH218314   3.629   2.827   4.323
 6124TIP3    H118315   3.579   2.868   4.253
 6124TIP3    H218316   3.564   2.777   4.374
 6125TIP3   OH218317   5.194   2.633   0.221
 6125TIP3    H118318   5.202   2.725   0.194
 6125TIP3    H218319   5.169   2.587   0.140
 6126TIP3   OH218320   1.770   3.043   1.887
 6126TIP3    H118321   1.809   2.956   1.880
 6126TIP3    H218322   1.681   3.027   1.918
 6127TIP3   OH218323   3.065   4.552   0.791
 6127TIP3    H118324   3.024   4.472   0.760
 6127TIP3    H218325   3.157   4.528   0.805
 6128TIP3   OH218326   4.981   5.864   6.289
 6128TIP3    H118327   4.990   5.870   6.194
 6128TIP3    H218328   4.895   5.901   6.307
 6129TIP3   OH218329   5.545   1.143   4.891
 6129TIP3    H118330   5.603   1.082   4.847
 6129TIP3    H218331   5.500   1.190   4.821
 6130TIP3   OH218332   8.221   0.426   0.293
 6130TIP3    H118333   8.208   0.489   0.223
 6130TIP3    H218334   8.133   0.410   0.328
 6131TIP3   OH218335   5.321   6.308   5.657
 6131TIP3    H118336   5.291   6.386   5.705
 6131TIP3    H218337   5.343   6.245   5.726
 6132TIP3   OH218338   2.434   3.971   1.635
 6132TIP3    H118339   2.393   3.942   1.554
 6132TIP3    H218340   2.382   4.047   1.663
 6133TIP3   OH218341   6.775   7.447   2.951
 6133TIP3    H118342   6.727   7.527   2.929
 6133TIP3    H218343   6.762   7.437   3.045
 6134TIP3   OH218344   7.503   4.988   0.454
 6134TIP3    H118345   7.570   4.934   0.496
 6134TIP3    H218346   7.539   5.076   0.455
 6135TIP3   OH218347   4.352   2.967   5.527
 6135TIP3    H118348   4.301   3.047   5.539
 6135TIP3    H218349   4.315   2.927   5.448
 6136TIP3   OH218350   0.493   4.785   1.162
 6136TIP3    H118351   0.429   4.729   1.206
 6136TIP3    H218352   0.462   4.874   1.179
 6137TIP3   OH218353   4.116   0.480   2.678
 6137TIP3    H118354   4.171   0.471   2.756
 6137TIP3    H218355   4.131   0.570   2.649
 6138TIP3   OH218356   2.068   4.226   2.912
 6138TIP3    H118357   2.077   4.319   2.893
 6138TIP3    H218358   2.019   4.191   2.837
 6139TIP3   OH218359   1.969   5.745   4.898
 6139TIP3    H118360   1.926   5.813   4.950
 6139TIP3    H218361   1.985   5.674   4.960
 6140TIP3   OH218362   6.479   6.589   2.981
 6140TIP3    H118363   6.523   6.504   2.988
 6140TIP3    H218364   6.540   6.644   2.933
 6141TIP3   OH218365   4.229   5.026   1.615
 6141TIP3    H118366   4.258   5.098   1.558
 6141TIP3    H218367   4.243   4.948   1.562
 6142TIP3   OH218368   3.968   4.741   3.543
 6142TIP3    H118369   3.988   4.829   3.513
 6142TIP3    H218370   3.875   4.744   3.568
 6143TIP3   OH218371   5.950   3.360   6.338
 6143TIP3    H118372   5.866   3.372   6.293
 6143TIP3    H218373   6.015   3.392   6.276
 6144TIP3   OH218374   5.268   6.648   4.559
 6144TIP3    H118375   5.276   6.736   4.596
 6144TIP3    H218376   5.215   6.660   4.480
 6145TIP3   OH218377   1.028   4.774   4.473
 6145TIP3    H118378   1.075   4.693   4.452
 6145TIP3    H218379   1.012   4.768   4.567
 6146TIP3   OH218380   7.333   5.515   2.357
 6146TIP3    H118381   7.261   5.475   2.406
 6146TIP3    H218382   7.290   5.567   2.289
 6147TIP3   OH218383   3.223   2.871   1.853
 6147TIP3    H118384   3.145   2.926   1.866
 6147TIP3    H218385   3.278   2.921   1.792
 6148TIP3   OH218386   1.896   4.273   0.614
 6148TIP3    H118387   1.861   4.218   0.545
 6148TIP3    H218388   1.844   4.252   0.691
 6149TIP3   OH218389   6.269   2.837   0.699
 6149TIP3    H118390   6.233   2.863   0.614
 6149TIP3    H218391   6.359   2.812   0.680
 6150TIP3   OH218392   3.108   5.024   2.169
 6150TIP3    H118393   3.045   4.998   2.235
 6150TIP3    H218394   3.193   5.014   2.211
 6151TIP3   OH218395   3.014   6.130   1.187
 6151TIP3    H118396   2.925   6.111   1.158
 6151TIP3    H218397   3.051   6.184   1.118
 6152TIP3   OH218398   3.760   6.385   6.280
 6152TIP3    H118399   3.705   6.315   6.245
 6152TIP3    H218400   3.698   6.451   6.311
 6153TIP3   OH218401   5.990   5.204   2.867
 6153TIP3    H118402   5.999   5.264   2.792
 6153TIP3    H218403   6.062   5.228   2.925
 6154TIP3   OH218404   0.236   1.272   3.591
 6154TIP3    H118405   0.325   1.261   3.625
 6154TIP3    H218406   0.241   1.239   3.501
 6155TIP3   OH218407   2.432   2.860   5.201
 6155TIP3    H118408   2.355   2.806   5.184
 6155TIP3    H218409   2.459   2.892   5.115
 6156TIP3   OH218410   7.212   4.015   5.116
 6156TIP3    H118411   7.124   4.053   5.113
 6156TIP3    H218412   7.247   4.027   5.028
 6157TIP3   OH218413   1.803   2.030   6.188
 6157TIP3    H118414   1.722   1.987   6.218
 6157TIP3    H218415   1.809   2.109   6.241
 6158TIP3   OH218416   3.427   1.123   3.548
 6158TIP3    H118417   3.339   1.136   3.585
 6158TIP3    H218418   3.442   1.029   3.557
 6159TIP3   OH218419   5.062   7.124   2.040
 6159TIP3    H118420   5.020   7.208   2.057
 6159TIP3    H218421   4.991   7.060   2.043
 6160TIP3   OH218422   7.818   0.201   4.722
 6160TIP3    H118423   7.833   0.172   4.812
 6160TIP3    H218424   7.882   0.152   4.670
 6161TIP3   OH218425   0.153   0.900   0.510
 6161TIP3    H118426   0.138   0.844   0.434
 6161TIP3    H218427   0.247   0.919   0.509
 6162TIP3   OH218428   8.058   7.599   4.017
 6162TIP3    H118429   7.971   7.637   4.029
 6162TIP3    H218430   8.045   7.530   3.951
 6163TIP3   OH218431   0.086   3.836   3.068
 6163TIP3    H118432   0.093   3.892   3.145
 6163TIP3    H218433   0.082   3.747   3.103
 6164TIP3   OH218434   5.479   7.661   3.872
 6164TIP3    H118435   5.483   7.744   3.919
 6164TIP3    H218436   5.394   7.623   3.897
 6165TIP3   OH218437   3.944   3.392   3.364
 6165TIP3    H118438   3.860   3.437   3.362
 6165TIP3    H218439   3.944   3.338   3.284
 6166TIP3   OH218440   5.311   7.758   0.719
 6166TIP3    H118441   5.349   7.679   0.682
 6166TIP3    H218442   5.293   7.736   0.811
 6167TIP3   OH218443   2.221   7.112   5.175
 6167TIP3    H118444   2.141   7.145   5.135
 6167TIP3    H218445   2.289   7.175   5.149
 6168TIP3   OH218446   7.978   2.522   5.348
 6168TIP3    H118447   7.977   2.583   5.274
 6168TIP3    H218448   8.025   2.569   5.417
 6169TIP3   OH218449   5.378   1.890   2.056
 6169TIP3    H118450   5.451   1.928   2.105
 6169TIP3    H218451   5.375   1.798   2.084
 6170TIP3   OH218452   1.808   1.246   4.022
 6170TIP3    H118453   1.853   1.202   4.095
 6170TIP3    H218454   1.738   1.186   3.997
 6171TIP3   OH218455   6.805   4.777   6.266
 6171TIP3    H118456   6.830   4.866   6.290
 6171TIP3    H218457   6.751   4.747   6.339
 6172TIP3   OH218458   4.096   2.228   2.486
 6172TIP3    H118459   4.039   2.153   2.505
 6172TIP3    H218460   4.078   2.250   2.395
 6173TIP3   OH218461   6.341   1.703   5.493
 6173TIP3    H118462   6.282   1.777   5.508
 6173TIP3    H218463   6.338   1.653   5.574
 6174TIP3   OH218464   5.446   0.138   5.183
 6174TIP3    H118465   5.364   0.173   5.218
 6174TIP3    H218466   5.430   0.044   5.173
 6175TIP3   OH218467   5.240   1.996   6.407
 6175TIP3    H118468   5.163   1.944   6.430
 6175TIP3    H218469   5.206   2.065   6.350
 6176TIP3   OH218470   4.427   3.812   3.640
 6176TIP3    H118471   4.367   3.799   3.714
 6176TIP3    H218472   4.481   3.886   3.666
 6177TIP3   OH218473   5.642   6.251   0.162
 6177TIP3    H118474   5.664   6.239   0.070
 6177TIP3    H218475   5.713   6.305   0.197
 6178TIP3   OH218476   0.414   2.254   4.853
 6178TIP3    H118477   0.380   2.224   4.769
 6178TIP3    H218478   0.382   2.190   4.917
 6179TIP3   OH218479   7.444   3.328   0.232
 6179TIP3    H118480   7.454   3.258   0.297
 6179TIP3    H218481   7.350   3.346   0.230
 6180TIP3   OH218482   5.054   1.849   1.993
 6180TIP3    H118483   5.103   1.904   1.931
 6180TIP3    H218484   4.986   1.809   1.940
 6181TIP3   OH218485   4.678   3.931   5.187
 6181TIP3    H118486   4.607   3.995   5.187
 6181TIP3    H218487   4.633   3.846   5.191
 6182TIP3   OH218488   7.593   1.979   2.915
 6182TIP3    H118489   7.582   2.074   2.921
 6182TIP3    H218490   7.553   1.955   2.831
 6183TIP3   OH218491   3.028   1.358   0.839
 6183TIP3    H118492   2.938   1.348   0.806
 6183TIP3    H218493   3.076   1.396   0.766
 6184TIP3   OH218494   6.488   7.614   1.155
 6184TIP3    H118495   6.420   7.646   1.213
 6184TIP3    H218496   6.546   7.563   1.211
 6185TIP3   OH218497   6.223   3.749   2.631
 6185TIP3    H118498   6.219   3.740   2.535
 6185TIP3    H218499   6.190   3.837   2.647
 6186TIP3   OH218500   2.088   5.444   2.148
 6186TIP3    H118501   2.123   5.366   2.105
 6186TIP3    H218502   1.996   5.424   2.161
 6187TIP3   OH218503   5.833   0.552   4.866
 6187TIP3    H118504   5.893   0.505   4.808
 6187TIP3    H218505   5.755   0.566   4.813
 6188TIP3   OH218506   5.286   6.898   0.061
 6188TIP3    H118507   5.291   6.822   0.118
 6188TIP3    H218508   5.201   6.938   0.082
 6189TIP3   OH218509   5.532   3.128   5.507
 6189TIP3    H118510   5.573   3.042   5.499
 6189TIP3    H218511   5.488   3.141   5.423
 6190TIP3   OH218512   8.189   1.803   4.478
 6190TIP3    H118513   8.097   1.807   4.453
 6190TIP3    H218514   8.203   1.881   4.532
 6191TIP3   OH218515   7.509   2.541   6.658
 6191TIP3    H118516   7.518   2.446   6.653
 6191TIP3    H218517   7.578   2.568   6.719
 6192TIP3   OH218518   1.297   2.531   3.305
 6192TIP3    H118519   1.240   2.454   3.311
 6192TIP3    H218520   1.236   2.605   3.307
 6193TIP3   OH218521   0.773   7.087   3.459
 6193TIP3    H118522   0.781   6.995   3.483
 6193TIP3    H218523   0.828   7.134   3.522
 6194TIP3   OH218524   7.045   6.209   2.458
 6194TIP3    H118525   6.989   6.184   2.385
 6194TIP3    H218526   7.126   6.240   2.418
 6195TIP3   OH218527   1.903   3.777   6.517
 6195TIP3    H118528   1.952   3.848   6.558
 6195TIP3    H218529   1.953   3.756   6.438
 6196TIP3   OH218530   4.176   7.745   5.356
 6196TIP3    H118531   4.106   7.753   5.421
 6196TIP3    H218532   4.136   7.697   5.284
 6197TIP3   OH218533   2.167   6.639   5.936
 6197TIP3    H118534   2.136   6.718   5.981
 6197TIP3    H218535   2.179   6.575   6.005
 6198TIP3   OH218536   7.276   3.371   3.330
 6198TIP3    H118537   7.225   3.358   3.250
 6198TIP3    H218538   7.216   3.418   3.389
 6199TIP3   OH218539   3.001   2.049   5.490
 6199TIP3    H118540   3.011   1.969   5.437
 6199TIP3    H218541   3.055   2.114   5.445
 6200TIP3   OH218542   3.243   4.739   0.988
 6200TIP3    H118543   3.269   4.648   1.004
 6200TIP3    H218544   3.183   4.759   1.060
 6201TIP3   OH218545   4.526   0.725   5.345
 6201TIP3    H118546   4.569   0.802   5.382
 6201TIP3    H218547   4.534   0.657   5.413
 6202TIP3   OH218548   3.052   6.472   1.278
 6202TIP3    H118549   2.983   6.519   1.232
 6202TIP3    H218550   3.005   6.417   1.341
 6203TIP3   OH218551   4.040   5.493   4.516
 6203TIP3    H118552   4.135   5.501   4.511
 6203TIP3    H218553   4.024   5.401   4.534
 6204TIP3   OH218554   8.152   7.769   4.711
 6204TIP3    H118555   8.150   7.731   4.623
 6204TIP3    H218556   8.180   7.860   4.696
 6205TIP3   OH218557   7.037   1.916   5.659
 6205TIP3    H118558   7.076   1.952   5.738
 6205TIP3    H218559   7.074   1.969   5.588
 6206TIP3   OH218560   5.709   1.959   1.252
 6206TIP3    H118561   5.652   1.950   1.329
 6206TIP3    H218562   5.792   1.991   1.288
 6207TIP3   OH218563   3.074   0.935   3.819
 6207TIP3    H118564   3.055   0.855   3.868
 6207TIP3    H218565   3.064   0.909   3.727
 6208TIP3   OH218566   5.461   6.090   3.969
 6208TIP3    H118567   5.430   6.001   3.954
 6208TIP3    H218568   5.467   6.098   4.064
 6209TIP3   OH218569   5.965   3.138   5.242
 6209TIP3    H118570   5.873   3.111   5.251
 6209TIP3    H218571   5.961   3.226   5.205
 6210TIP3   OH218572   5.269   7.499   3.500
 6210TIP3    H118573   5.268   7.422   3.442
 6210TIP3    H218574   5.342   7.551   3.468
 6211TIP3   OH218575   5.464   6.871   4.167
 6211TIP3    H118576   5.466   6.888   4.073
 6211TIP3    H218577   5.553   6.843   4.188
 6212TIP3   OH218578   1.435   7.071   6.261
 6212TIP3    H118579   1.379   7.136   6.304
 6212TIP3    H218580   1.411   7.076   6.169
 6213TIP3   OH218581   4.473   0.854   0.649
 6213TIP3    H118582   4.552   0.857   0.703
 6213TIP3    H218583   4.407   0.899   0.702
 6214TIP3   OH218584   6.716   2.276   5.116
 6214TIP3    H118585   6.797   2.239   5.152
 6214TIP3    H218586   6.688   2.341   5.181
 6215TIP3   OH218587   6.590   2.535   5.698
 6215TIP3    H118588   6.574   2.503   5.787
 6215TIP3    H218589   6.504   2.559   5.665
 6216TIP3   OH218590   4.013   7.747   3.606
 6216TIP3    H118591   3.987   7.750   3.698
 6216TIP3    H218592   4.044   7.658   3.593
 6217TIP3   OH218593   6.296   0.318   1.061
 6217TIP3    H118594   6.326   0.230   1.084
 6217TIP3    H218595   6.231   0.340   1.127
 6218TIP3   OH218596   5.566   5.965   1.553
 6218TIP3    H118597   5.628   5.966   1.480
 6218TIP3    H218598   5.529   5.877   1.552
 6219TIP3   OH218599   8.083   2.917   0.127
 6219TIP3    H118600   8.066   2.824   0.114
 6219TIP3    H218601   8.164   2.934   0.078
 6220TIP3   OH218602   5.020   4.475   1.005
 6220TIP3    H118603   4.964   4.547   1.033
 6220TIP3    H218604   5.106   4.496   1.042
 6221TIP3   OH218605   7.696   5.107   1.959
 6221TIP3    H118606   7.614   5.083   2.002
 6221TIP3    H218607   7.732   5.178   2.012
 6222TIP3   OH218608   4.645   7.547   3.483
 6222TIP3    H118609   4.640   7.545   3.579
 6222TIP3    H218610   4.623   7.457   3.457
 6223TIP3   OH218611   4.629   2.079   2.854
 6223TIP3    H118612   4.621   2.164   2.810
 6223TIP3    H218613   4.593   2.095   2.942
 6224TIP3   OH218614   4.542   6.816   0.140
 6224TIP3    H118615   4.615   6.828   0.080
 6224TIP3    H218616   4.570   6.746   0.198
 6225TIP3   OH218617   0.044   4.352   4.523
 6225TIP3    H118618   0.107   4.373   4.592
 6225TIP3    H218619  -0.037   4.329   4.569
 6226TIP3   OH218620   1.496   2.488   1.088
 6226TIP3    H118621   1.416   2.447   1.053
 6226TIP3    H218622   1.472   2.514   1.177
 6227TIP3   OH218623   5.458   0.290   3.020
 6227TIP3    H118624   5.426   0.284   2.930
 6227TIP3    H218625   5.542   0.336   3.013
 6228TIP3   OH218626   7.069   0.385   0.353
 6228TIP3    H118627   7.065   0.290   0.348
 6228TIP3    H218628   7.111   0.403   0.437
 6229TIP3   OH218629   5.473   4.814   2.865
 6229TIP3    H118630   5.491   4.908   2.862
 6229TIP3    H218631   5.404   4.800   2.801
 6230TIP3   OH218632   2.835   5.034   0.689
 6230TIP3    H118633   2.801   5.054   0.602
 6230TIP3    H218634   2.764   5.056   0.749
 6231TIP3   OH218635   1.011   4.904   2.122
 6231TIP3    H118636   1.027   4.928   2.213
 6231TIP3    H218637   1.084   4.847   2.099
 6232TIP3   OH218638   6.894   0.945   6.111
 6232TIP3    H118639   6.921   0.858   6.137
 6232TIP3    H218640   6.953   1.004   6.158
 6233TIP3   OH218641   7.453   5.511   5.443
 6233TIP3    H118642   7.362   5.524   5.416
 6233TIP3    H218643   7.504   5.557   5.377
 6234TIP3   OH218644   5.037   7.743   3.444
 6234TIP3    H118645   5.025   7.780   3.356
 6234TIP3    H218646   4.999   7.656   3.438
 6235TIP3   OH218647   0.492   3.404   6.561
 6235TIP3    H118648   0.456   3.334   6.614
 6235TIP3    H218649   0.457   3.389   6.473
 6236TIP3   OH218650   8.202   0.159   2.874
 6236TIP3    H118651   8.240   0.189   2.957
 6236TIP3    H218652   8.219   0.230   2.812
 6237TIP3   OH218653   7.354   2.208   0.725
 6237TIP3    H118654   7.311   2.142   0.671
 6237TIP3    H218655   7.328   2.186   0.815
 6238TIP3   OH218656   4.927   1.114   6.136
 6238TIP3    H118657   4.886   1.199   6.147
 6238TIP3    H218658   4.936   1.103   6.041
 6239TIP3   OH218659   2.273   6.981   0.307
 6239TIP3    H118660   2.309   7.030   0.381
 6239TIP3    H218661   2.238   7.049   0.249
 6240TIP3   OH218662   7.895   0.725   6.419
 6240TIP3    H118663   7.838   0.755   6.489
 6240TIP3    H218664   7.861   0.768   6.340
 6241TIP3   OH218665   3.305   0.607   5.302
 6241TIP3    H118666   3.349   0.690   5.280
 6241TIP3    H218667   3.216   0.633   5.327
 6242TIP3   OH218668   2.358   5.900   5.692
 6242TIP3    H118669   2.330   5.991   5.695
 6242TIP3    H218670   2.354   5.876   5.600
 6243TIP3   OH218671   5.673   3.547   0.475
 6243TIP3    H118672   5.766   3.537   0.456
 6243TIP3    H218673   5.649   3.467   0.522
 6244TIP3   OH218674   4.479   3.932   4.675
 6244TIP3    H118675   4.471   3.888   4.590
 6244TIP3    H218676   4.573   3.932   4.693
 6245TIP3   OH218677   6.669   2.662   2.618
 6245TIP3    H118678   6.746   2.708   2.583
 6245TIP3    H218679   6.698   2.627   2.702
 6246TIP3   OH218680   0.997   1.179   3.495
 6246TIP3    H118681   1.044   1.096   3.483
 6246TIP3    H218682   0.967   1.176   3.586
 6247TIP3   OH218683   4.744   7.330   2.734
 6247TIP3    H118684   4.749   7.377   2.817
 6247TIP3    H218685   4.796   7.382   2.673
 6248TIP3   OH218686   6.727   7.472   0.862
 6248TIP3    H118687   6.667   7.546   0.875
 6248TIP3    H218688   6.675   7.395   0.884
 6249TIP3   OH218689   7.226   1.849   0.810
 6249TIP3    H118690   7.274   1.885   0.735
 6249TIP3    H218691   7.288   1.855   0.883
 6250TIP3   OH218692   2.053   3.337   6.304
 6250TIP3    H118693   2.117   3.335   6.234
 6250TIP3    H218694   1.989   3.404   6.277
 6251TIP3   OH218695   1.774   5.744   5.791
 6251TIP3    H118696   1.798   5.651   5.799
 6251TIP3    H218697   1.806   5.783   5.872
 6252TIP3   OH218698   5.246   4.163   2.137
 6252TIP3    H118699   5.334   4.160   2.175
 6252TIP3    H218700   5.221   4.071   2.127
 6253TIP3   OH218701   6.288   2.468   6.642
 6253TIP3    H118702   6.358   2.442   6.702
 6253TIP3    H218703   6.249   2.545   6.683
 6254TIP3   OH218704   0.376   3.334   2.304
 6254TIP3    H118705   0.388   3.428   2.318
 6254TIP3    H218706   0.371   3.325   2.209
 6255TIP3   OH218707   2.002   2.265   1.118
 6255TIP3    H118708   2.025   2.185   1.072
 6255TIP3    H218709   1.907   2.272   1.107
 6256TIP3   OH218710   5.591   7.754   0.875
 6256TIP3    H118711   5.654   7.698   0.920
 6256TIP3    H218712   5.593   7.724   0.784
 6257TIP3   OH218713   2.969   2.684   3.666
 6257TIP3    H118714   2.924   2.669   3.749
 6257TIP3    H218715   2.899   2.706   3.604
 6258TIP3   OH218716   0.179   5.762   4.375
 6258TIP3    H118717   0.227   5.823   4.431
 6258TIP3    H218718   0.245   5.700   4.345
 6259TIP3   OH218719   5.278   6.516   1.859
 6259TIP3    H118720   5.304   6.426   1.877
 6259TIP3    H218721   5.345   6.570   1.902
 6260TIP3   OH218722   5.835   0.993   6.209
 6260TIP3    H118723   5.814   0.919   6.266
 6260TIP3    H218724   5.767   0.991   6.142
 6261TIP3   OH218725   3.831   1.277   6.358
 6261TIP3    H118726   3.773   1.344   6.322
 6261TIP3    H218727   3.835   1.210   6.290
 6262TIP3   OH218728   7.738   7.246   1.921
 6262TIP3    H118729   7.754   7.331   1.962
 6262TIP3    H218730   7.713   7.267   1.831
 6263TIP3   OH218731   1.978   0.516   2.880
 6263TIP3    H118732   1.951   0.584   2.942
 6263TIP3    H218733   1.901   0.461   2.868
 6264TIP3   OH218734   1.679   6.025   3.169
 6264TIP3    H118735   1.724   6.054   3.249
 6264TIP3    H218736   1.620   6.097   3.147
 6265TIP3   OH218737   2.083   4.485   6.569
 6265TIP3    H118738   2.025   4.499   6.644
 6265TIP3    H218739   2.126   4.570   6.556
 6266TIP3   OH218740   4.488   2.692   2.693
 6266TIP3    H118741   4.477   2.606   2.653
 6266TIP3    H218742   4.411   2.742   2.665
 6267TIP3   OH218743   5.436   4.646   4.880
 6267TIP3    H118744   5.489   4.714   4.838
 6267TIP3    H218745   5.479   4.564   4.855
 6268TIP3   OH218746   4.713   4.703   4.585
 6268TIP3    H118747   4.678   4.785   4.621
 6268TIP3    H218748   4.808   4.716   4.583
 6269TIP3   OH218749   0.743   4.414   6.392
 6269TIP3    H118750   0.834   4.409   6.362
 6269TIP3    H218751   0.692   4.421   6.312
 6270TIP3   OH218752   1.654   4.518   6.679
 6270TIP3    H118753   1.578   4.507   6.736
 6270TIP3    H218754   1.618   4.515   6.590
 6271TIP3   OH218755   3.195   0.950   0.204
 6271TIP3    H118756   3.231   1.023   0.255
 6271TIP3    H218757   3.100   0.960   0.214
 6272TIP3   OH218758   3.170   7.645   5.133
 6272TIP3    H118759   3.085   7.668   5.094
 6272TIP3    H218760   3.194   7.721   5.185
 6273TIP3   OH218761   5.677   1.082   3.393
 6273TIP3    H118762   5.711   1.171   3.406
 6273TIP3    H218763   5.583   1.093   3.381
 6274TIP3   OH218764   6.398   0.941   4.181
 6274TIP3    H118765   6.313   0.903   4.204
 6274TIP3    H218766   6.429   0.982   4.262
 6275TIP3   OH218767   7.667   2.996   0.829
 6275TIP3    H118768   7.746   3.041   0.800
 6275TIP3    H218769   7.664   2.916   0.776
 6276TIP3   OH218770   7.550   4.788   5.525
 6276TIP3    H118771   7.494   4.807   5.449
 6276TIP3    H218772   7.633   4.760   5.487
 6277TIP3   OH218773   7.603   3.377   0.794
 6277TIP3    H118774   7.663   3.401   0.723
 6277TIP3    H218775   7.588   3.283   0.782
 6278TIP3   OH218776   5.854   6.384   5.966
 6278TIP3    H118777   5.792   6.407   5.897
 6278TIP3    H218778   5.899   6.306   5.933
 6279TIP3   OH218779   3.079   3.351   3.677
 6279TIP3    H118780   3.032   3.427   3.712
 6279TIP3    H218781   3.086   3.291   3.750
 6280TIP3   OH218782   4.736   2.305   1.811
 6280TIP3    H118783   4.694   2.390   1.796
 6280TIP3    H218784   4.829   2.326   1.816
 6281TIP3   OH218785   2.127   4.923   5.477
 6281TIP3    H118786   2.128   4.983   5.402
 6281TIP3    H218787   2.141   4.980   5.553
 6282TIP3   OH218788   4.061   5.875   5.652
 6282TIP3    H118789   3.985   5.889   5.596
 6282TIP3    H218790   4.039   5.919   5.734
 6283TIP3   OH218791   0.172   0.672   1.314
 6283TIP3    H118792   0.265   0.681   1.334
 6283TIP3    H218793   0.170   0.631   1.227
 6284TIP3   OH218794   4.199   2.372   1.080
 6284TIP3    H118795   4.177   2.465   1.081
 6284TIP3    H218796   4.198   2.346   1.172
 6285TIP3   OH218797   5.691   3.095   0.558
 6285TIP3    H118798   5.676   3.040   0.481
 6285TIP3    H218799   5.784   3.083   0.578
 6286TIP3   OH218800   1.250   0.189   6.503
 6286TIP3    H118801   1.165   0.204   6.463
 6286TIP3    H218802   1.273   0.099   6.478
 6287TIP3   OH218803   5.165   7.116   2.502
 6287TIP3    H118804   5.205   7.031   2.520
 6287TIP3    H218805   5.089   7.096   2.447
 6288TIP3   OH218806   0.075   4.808   0.907
 6288TIP3    H118807   0.167   4.784   0.916
 6288TIP3    H218808   0.041   4.750   0.839
 6289TIP3   OH218809   2.273   2.902   1.418
 6289TIP3    H118810   2.270   2.824   1.363
 6289TIP3    H218811   2.263   2.869   1.507
 6290TIP3   OH218812   1.468   2.102   5.307
 6290TIP3    H118813   1.516   2.076   5.385
 6290TIP3    H218814   1.376   2.098   5.333
 6291TIP3   OH218815   7.472   5.952   2.257
 6291TIP3    H118816   7.507   6.027   2.306
 6291TIP3    H218817   7.508   5.876   2.303
 6292TIP3   OH218818   3.934   0.414   1.565
 6292TIP3    H118819   3.988   0.365   1.627
 6292TIP3    H218820   3.944   0.505   1.591
 6293TIP3   OH218821   2.633   3.720   1.395
 6293TIP3    H118822   2.709   3.669   1.366
 6293TIP3    H218823   2.620   3.785   1.326
 6294TIP3   OH218824   8.049   5.324   0.058
 6294TIP3    H118825   8.050   5.253   0.122
 6294TIP3    H218826   8.090   5.287  -0.020
 6295TIP3   OH218827   8.013   4.005   3.661
 6295TIP3    H118828   8.055   3.957   3.590
 6295TIP3    H218829   8.038   4.096   3.647
 6296TIP3   OH218830   6.615   6.736   3.211
 6296TIP3    H118831   6.645   6.770   3.127
 6296TIP3    H218832   6.520   6.726   3.201
 6297TIP3   OH218833   1.279   5.761   2.729
 6297TIP3    H118834   1.322   5.689   2.774
 6297TIP3    H218835   1.349   5.803   2.679
 6298TIP3   OH218836   3.233   0.601   1.602
 6298TIP3    H118837   3.291   0.653   1.547
 6298TIP3    H218838   3.145   0.632   1.580
 6299TIP3   OH218839   0.063   3.692   5.643
 6299TIP3    H118840   0.133   3.630   5.663
 6299TIP3    H218841   0.019   3.707   5.727
 6300TIP3   OH218842   2.028   6.793   0.749
 6300TIP3    H118843   1.967   6.803   0.822
 6300TIP3    H218844   2.015   6.871   0.695
 6301TIP3   OH218845   0.955   3.079   3.993
 6301TIP3    H118846   0.970   3.106   4.083
 6301TIP3    H218847   0.892   3.142   3.959
 6302TIP3   OH218848   3.535   5.774   2.153
 6302TIP3    H118849   3.519   5.708   2.221
 6302TIP3    H218850   3.616   5.817   2.180
 6303TIP3   OH218851   7.690   4.311   5.595
 6303TIP3    H118852   7.679   4.389   5.649
 6303TIP3    H218853   7.745   4.340   5.522
 6304TIP3   OH218854   1.310   0.464  -0.043
 6304TIP3    H118855   1.241   0.530  -0.035
 6304TIP3    H218856   1.389   0.516  -0.060
 6305TIP3   OH218857   6.438   2.914   0.035
 6305TIP3    H118858   6.528   2.902   0.006
 6305TIP3    H218859   6.409   2.994  -0.009
 6306TIP3   OH218860   7.387   5.222   4.807
 6306TIP3    H118861   7.371   5.129   4.793
 6306TIP3    H218862   7.345   5.241   4.891
 6307TIP3   OH218863   3.988   1.962   2.890
 6307TIP3    H118864   3.915   2.011   2.851
 6307TIP3    H218865   3.982   1.981   2.984
 6308TIP3   OH218866   0.344   2.737   3.019
 6308TIP3    H118867   0.289   2.807   2.984
 6308TIP3    H218868   0.342   2.750   3.114
 6309TIP3   OH218869   4.508   0.553   3.981
 6309TIP3    H118870   4.507   0.466   4.020
 6309TIP3    H218871   4.515   0.613   4.055
 6310TIP3   OH218872   5.932   6.922   5.062
 6310TIP3    H118873   5.877   6.848   5.036
 6310TIP3    H218874   6.021   6.892   5.050
 6311TIP3   OH218875   3.033   4.968   1.898
 6311TIP3    H118876   3.023   4.882   1.937
 6311TIP3    H218877   3.078   5.020   1.965
 6312TIP3   OH218878   5.306   1.501   2.030
 6312TIP3    H118879   5.245   1.543   1.969
 6312TIP3    H218880   5.326   1.569   2.094
 6313TIP3   OH218881   2.405   5.547   5.709
 6313TIP3    H118882   2.435   5.622   5.761
 6313TIP3    H218883   2.336   5.583   5.654
 6314TIP3   OH218884   1.630   7.505   0.146
 6314TIP3    H118885   1.633   7.501   0.050
 6314TIP3    H218886   1.720   7.495   0.174
 6315TIP3   OH218887   6.746   5.477   0.284
 6315TIP3    H118888   6.669   5.519   0.323
 6315TIP3    H218889   6.709   5.407   0.230
 6316TIP3   OH218890   1.510   1.835   2.022
 6316TIP3    H118891   1.424   1.830   1.979
 6316TIP3    H218892   1.490   1.844   2.115
 6317TIP3   OH218893   4.533   4.916   5.458
 6317TIP3    H118894   4.555   4.879   5.544
 6317TIP3    H218895   4.440   4.895   5.446
 6318TIP3   OH218896   5.638   5.201   1.305
 6318TIP3    H118897   5.601   5.289   1.316
 6318TIP3    H218898   5.605   5.151   1.380
 6319TIP3   OH218899   4.712   7.226   5.339
 6319TIP3    H118900   4.672   7.282   5.272
 6319TIP3    H218901   4.800   7.208   5.306
 6320TIP3   OH218902   6.079   6.918   3.006
 6320TIP3    H118903   6.091   6.907   3.100
 6320TIP3    H218904   6.161   6.959   2.976
 6321TIP3   OH218905   6.958   4.396   3.401
 6321TIP3    H118906   6.901   4.465   3.433
 6321TIP3    H218907   6.899   4.326   3.375
 6322TIP3   OH218908   4.112   2.204   3.733
 6322TIP3    H118909   4.085   2.140   3.800
 6322TIP3    H218910   4.199   2.175   3.706
 6323TIP3   OH218911   0.678   5.619   0.041
 6323TIP3    H118912   0.590   5.618   0.077
 6323TIP3    H218913   0.735   5.598   0.115
 6324TIP3   OH218914   1.468   4.699   2.405
 6324TIP3    H118915   1.529   4.652   2.348
 6324TIP3    H218916   1.516   4.775   2.435
 6325TIP3   OH218917   1.368   6.642   3.018
 6325TIP3    H118918   1.277   6.623   3.037
 6325TIP3    H218919   1.377   6.736   3.033
 6326TIP3   OH218920   2.125   0.529   4.379
 6326TIP3    H118921   2.197   0.592   4.389
 6326TIP3    H218922   2.134   0.497   4.289
 6327TIP3   OH218923   5.903   2.603   2.911
 6327TIP3    H118924   5.958   2.530   2.941
 6327TIP3    H218925   5.952   2.644   2.841
 6328TIP3   OH218926   5.410   1.673   2.215
 6328TIP3    H118927   5.495   1.638   2.243
 6328TIP3    H218928   5.360   1.683   2.296
 6329TIP3   OH218929   4.667   1.040   2.358
 6329TIP3    H118930   4.628   1.125   2.380
 6329TIP3    H218931   4.731   1.026   2.428
 6330TIP3   OH218932   2.519   3.957   5.705
 6330TIP3    H118933   2.585   4.006   5.753
 6330TIP3    H218934   2.436   3.985   5.742
 6331TIP3   OH218935   5.532   3.944   5.116
 6331TIP3    H118936   5.576   4.028   5.104
 6331TIP3    H218937   5.439   3.965   5.117
 6332TIP3   OH218938   1.289   0.680   1.536
 6332TIP3    H118939   1.381   0.671   1.509
 6332TIP3    H218940   1.294   0.711   1.626
 6333TIP3   OH218941   4.625   7.032   2.479
 6333TIP3    H118942   4.573   6.968   2.431
 6333TIP3    H218943   4.708   6.987   2.497
 6334TIP3   OH218944   5.183   6.340   6.275
 6334TIP3    H118945   5.142   6.385   6.349
 6334TIP3    H218946   5.276   6.341   6.296
 6335TIP3   OH218947   0.557   6.024   0.735
 6335TIP3    H118948   0.506   6.103   0.715
 6335TIP3    H218949   0.561   6.021   0.830
 6336TIP3   OH218950   1.898   3.998   3.500
 6336TIP3    H118951   1.813   4.037   3.523
 6336TIP3    H218952   1.877   3.908   3.475
 6337TIP3   OH218953   7.740   1.103   1.231
 6337TIP3    H118954   7.663   1.139   1.188
 6337TIP3    H218955   7.710   1.082   1.320
 6338TIP3   OH218956   3.774   7.686   3.783
 6338TIP3    H118957   3.721   7.696   3.704
 6338TIP3    H218958   3.756   7.765   3.834
 6339TIP3   OH218959   3.222   7.123   0.160
 6339TIP3    H118960   3.199   7.121   0.253
 6339TIP3    H218961   3.246   7.214   0.144
 6340TIP3   OH218962   7.360   1.456   5.329
 6340TIP3    H118963   7.380   1.535   5.278
 6340TIP3    H218964   7.380   1.481   5.420
 6341TIP3   OH218965   6.380   3.551   5.544
 6341TIP3    H118966   6.474   3.543   5.560
 6341TIP3    H218967   6.348   3.603   5.618
 6342TIP3   OH218968   3.674   5.234   1.602
 6342TIP3    H118969   3.586   5.197   1.604
 6342TIP3    H218970   3.714   5.208   1.685
 6343TIP3   OH218971   7.903   4.982   6.834
 6343TIP3    H118972   7.872   5.038   6.763
 6343TIP3    H218973   7.997   4.976   6.821
 6344TIP3   OH218974   3.340   4.635   5.445
 6344TIP3    H118975   3.263   4.607   5.396
 6344TIP3    H218976   3.414   4.606   5.392
 6345TIP3   OH218977   0.578   0.979   5.651
 6345TIP3    H118978   0.614   0.965   5.738
 6345TIP3    H218979   0.534   0.896   5.630
 6346TIP3   OH218980   7.923   1.792   3.219
 6346TIP3    H118981   7.839   1.817   3.258
 6346TIP3    H218982   7.989   1.827   3.278
 6347TIP3   OH218983   2.466   5.856   2.555
 6347TIP3    H118984   2.542   5.909   2.530
 6347TIP3    H218985   2.467   5.856   2.651
 6348TIP3   OH218986   3.589   5.481   1.537
 6348TIP3    H118987   3.621   5.391   1.527
 6348TIP3    H218988   3.580   5.492   1.632
 6349TIP3   OH218989   4.153   3.958   0.989
 6349TIP3    H118990   4.214   3.945   1.061
 6349TIP3    H218991   4.122   3.870   0.967
 6350TIP3   OH218992   4.946   5.516   5.556
 6350TIP3    H118993   4.922   5.601   5.593
 6350TIP3    H218994   4.901   5.452   5.612
 6351TIP3   OH218995   1.066   5.645   5.872
 6351TIP3    H118996   1.070   5.553   5.896
 6351TIP3    H218997   1.049   5.645   5.778
 6352TIP3   OH218998   8.151   1.237   4.592
 6352TIP3    H118999   8.158   1.170   4.661
 6352TIP3    H219000   8.208   1.205   4.522
 6353TIP3   OH219001   3.355   4.586   0.110
 6353TIP3    H119002   3.315   4.634   0.182
 6353TIP3    H219003   3.283   4.568   0.049
 6354TIP3   OH219004   1.429   5.456   0.991
 6354TIP3    H119005   1.441   5.378   1.045
 6354TIP3    H219006   1.465   5.432   0.906
 6355TIP3   OH219007   1.765   3.678   2.370
 6355TIP3    H119008   1.826   3.714   2.433
 6355TIP3    H219009   1.688   3.654   2.421
 6356TIP3   OH219010   3.136   7.764   0.246
 6356TIP3    H119011   3.187   7.818   0.307
 6356TIP3    H219012   3.050   7.756   0.287
 6357TIP3   OH219013   3.373   3.355   1.477
 6357TIP3    H119014   3.318   3.288   1.435
 6357TIP3    H219015   3.394   3.416   1.407
 6358TIP3   OH219016   4.718   5.074   0.867
 6358TIP3    H119017   4.770   5.146   0.902
 6358TIP3    H219018   4.647   5.063   0.930
 6359TIP3   OH219019   7.175   3.645   1.806
 6359TIP3    H119020   7.212   3.649   1.718
 6359TIP3    H219021   7.234   3.588   1.855
 6360TIP3   OH219022   0.265   1.329   2.885
 6360TIP3    H119023   0.181   1.320   2.839
 6360TIP3    H219024   0.254   1.405   2.941
 6361TIP3   OH219025   6.813   5.002   3.209
 6361TIP3    H119026   6.722   5.026   3.224
 6361TIP3    H219027   6.819   4.912   3.241
 6362TIP3   OH219028   1.718   5.182   2.768
 6362TIP3    H119029   1.696   5.255   2.711
 6362TIP3    H219030   1.637   5.165   2.817
 6363TIP3   OH219031   6.211   4.406   2.957
 6363TIP3    H119032   6.135   4.388   3.012
 6363TIP3    H219033   6.179   4.399   2.867
 6364TIP3   OH219034   6.692   3.825   4.410
 6364TIP3    H119035   6.694   3.772   4.330
 6364TIP3    H219036   6.680   3.915   4.378
 6365TIP3   OH219037   5.903   5.189   1.081
 6365TIP3    H119038   5.988   5.227   1.102
 6365TIP3    H219039   5.922   5.100   1.051
 6366TIP3   OH219040   6.598   6.271   1.259
 6366TIP3    H119041   6.549   6.316   1.191
 6366TIP3    H219042   6.684   6.313   1.259
 6367TIP3   OH219043   3.901   3.537   5.194
 6367TIP3    H119044   3.857   3.452   5.194
 6367TIP3    H219045   3.902   3.564   5.103
 6368TIP3   OH219046   7.735   6.010   0.767
 6368TIP3    H119047   7.701   5.927   0.732
 6368TIP3    H219048   7.793   6.043   0.697
 6369TIP3   OH219049   6.038   7.745   0.702
 6369TIP3    H119050   6.061   7.788   0.619
 6369TIP3    H219051   5.970   7.682   0.679
 6370TIP3   OH219052   5.911   4.973   0.242
 6370TIP3    H119053   5.897   4.965   0.336
 6370TIP3    H219054   5.848   4.911   0.203
 6371TIP3   OH219055   0.469   4.041   6.613
 6371TIP3    H119056   0.476   3.946   6.605
 6371TIP3    H219057   0.393   4.063   6.560
 6372TIP3   OH219058   1.916   1.555   4.490
 6372TIP3    H119059   2.004   1.553   4.452
 6372TIP3    H219060   1.864   1.607   4.429
 6373TIP3   OH219061   6.878   4.247   3.656
 6373TIP3    H119062   6.909   4.307   3.724
 6373TIP3    H219063   6.884   4.298   3.575
 6374TIP3   OH219064   6.481   3.908   5.744
 6374TIP3    H119065   6.508   3.974   5.808
 6374TIP3    H219066   6.424   3.849   5.792
 6375TIP3   OH219067   8.153   2.944   6.743
 6375TIP3    H119068   8.064   2.924   6.772
 6375TIP3    H219069   8.186   3.008   6.806
 6376TIP3   OH219070   0.439   0.427   5.567
 6376TIP3    H119071   0.364   0.417   5.625
 6376TIP3    H219072   0.476   0.339   5.560
 6377TIP3   OH219073   5.902   0.344   5.047
 6377TIP3    H119074   5.851   0.343   5.128
 6377TIP3    H219075   5.859   0.410   4.992
 6378TIP3   OH219076   6.572   1.319   2.443
 6378TIP3    H119077   6.580   1.412   2.461
 6378TIP3    H219078   6.651   1.297   2.393
 6379TIP3   OH219079   0.197   7.453   6.317
 6379TIP3    H119080   0.214   7.454   6.223
 6379TIP3    H219081   0.177   7.362   6.337
 6380TIP3   OH219082   0.142   4.425   6.441
 6380TIP3    H119083   0.165   4.504   6.392
 6380TIP3    H219084   0.112   4.457   6.526
 6381TIP3   OH219085   5.436   4.294   4.104
 6381TIP3    H119086   5.510   4.349   4.079
 6381TIP3    H219087   5.418   4.242   4.025
 6382TIP3   OH219088   1.531   5.005   6.240
 6382TIP3    H119089   1.514   5.046   6.155
 6382TIP3    H219090   1.626   4.994   6.242
 6383TIP3   OH219091   6.214   3.777   1.924
 6383TIP3    H119092   6.207   3.816   1.837
 6383TIP3    H219093   6.142   3.715   1.929
 6384TIP3   OH219094   7.124   3.053   6.731
 6384TIP3    H119095   7.149   3.140   6.764
 6384TIP3    H219096   7.155   2.992   6.798
 6385TIP3   OH219097   0.743   4.692   5.564
 6385TIP3    H119098   0.649   4.699   5.545
 6385TIP3    H219099   0.772   4.617   5.512
 6386TIP3   OH219100   7.895   2.166   3.586
 6386TIP3    H119101   7.843   2.244   3.606
 6386TIP3    H219102   7.872   2.104   3.655
 6387TIP3   OH219103   0.445   2.511   1.638
 6387TIP3    H119104   0.369   2.454   1.628
 6387TIP3    H219105   0.516   2.464   1.595
 6388TIP3   OH219106   5.110   7.223   6.349
 6388TIP3    H119107   5.065   7.138   6.343
 6388TIP3    H219108   5.074   7.264   6.427
 6389TIP3   OH219109   0.896   5.875   4.916
 6389TIP3    H119110   0.932   5.795   4.877
 6389TIP3    H219111   0.950   5.945   4.882
 6390TIP3   OH219112   0.335   4.966   0.766
 6390TIP3    H119113   0.318   5.034   0.701
 6390TIP3    H219114   0.428   4.945   0.755
 6391TIP3   OH219115   7.252   0.043   1.008
 6391TIP3    H119116   7.323   0.014   0.951
 6391TIP3    H219117   7.173   0.005   0.969
 6392TIP3   OH219118   7.984   1.606   6.051
 6392TIP3    H119119   7.956   1.523   6.090
 6392TIP3    H219120   8.075   1.616   6.081
 6393TIP3   OH219121   1.013   3.300   5.608
 6393TIP3    H119122   1.071   3.225   5.617
 6393TIP3    H219123   1.060   3.361   5.550
 6394TIP3   OH219124   6.806   2.915   2.821
 6394TIP3    H119125   6.838   3.004   2.839
 6394TIP3    H219126   6.780   2.917   2.729
 6395TIP3   OH219127   1.015   3.054   6.733
 6395TIP3    H119128   0.952   3.082   6.667
 6395TIP3    H219129   1.099   3.054   6.687
 6396TIP3   OH219130   0.094   4.742   3.158
 6396TIP3    H119131   0.124   4.781   3.240
 6396TIP3    H219132   0.126   4.651   3.161
 6397TIP3   OH219133   1.644   2.187   0.807
 6397TIP3    H119134   1.618   2.098   0.831
 6397TIP3    H219135   1.680   2.224   0.888
 6398TIP3   OH219136   3.010   2.145   2.975
 6398TIP3    H119137   2.946   2.085   2.938
 6398TIP3    H219138   3.012   2.219   2.914
 6399TIP3   OH219139   7.081   0.078   2.112
 6399TIP3    H119140   7.018   0.036   2.053
 6399TIP3    H219141   7.108   0.008   2.171
 6400TIP3   OH219142   5.570   5.407   3.764
 6400TIP3    H119143   5.597   5.398   3.672
 6400TIP3    H219144   5.476   5.421   3.760
 6401TIP3   OH219145   6.258   4.440   6.258
 6401TIP3    H119146   6.248   4.493   6.337
 6401TIP3    H219147   6.319   4.371   6.283
 6402TIP3   OH219148   5.315   2.838   5.382
 6402TIP3    H119149   5.242   2.877   5.430
 6402TIP3    H219150   5.334   2.900   5.312
 6403TIP3   OH219151   0.754   4.840   3.356
 6403TIP3    H119152   0.814   4.887   3.415
 6403TIP3    H219153   0.782   4.866   3.268
 6404TIP3   OH219154   4.234   7.241   3.765
 6404TIP3    H119155   4.211   7.249   3.672
 6404TIP3    H219156   4.324   7.274   3.769
 6405TIP3   OH219157   3.305   3.424   2.629
 6405TIP3    H119158   3.393   3.428   2.667
 6405TIP3    H219159   3.277   3.516   2.624
 6406TIP3   OH219160   3.200   6.867   6.157
 6406TIP3    H119161   3.140   6.941   6.158
 6406TIP3    H219162   3.181   6.822   6.075
 6407TIP3   OH219163   5.578   7.297   3.157
 6407TIP3    H119164   5.669   7.324   3.147
 6407TIP3    H219165   5.556   7.255   3.074
 6408TIP3   OH219166   1.763   5.033   1.575
 6408TIP3    H119167   1.806   5.067   1.653
 6408TIP3    H219168   1.669   5.037   1.595
 6409TIP3   OH219169   5.989   6.024   4.869
 6409TIP3    H119170   6.018   6.100   4.818
 6409TIP3    H219171   5.938   6.061   4.941
 6410TIP3   OH219172   3.686   0.263   1.471
 6410TIP3    H119173   3.637   0.344   1.460
 6410TIP3    H219174   3.775   0.291   1.493
 6411TIP3   OH219175   5.044   1.172   2.252
 6411TIP3    H119176   5.032   1.248   2.195
 6411TIP3    H219177   5.025   1.205   2.340
 6412TIP3   OH219178   2.007   1.344   0.448
 6412TIP3    H119179   2.029   1.357   0.540
 6412TIP3    H219180   1.974   1.429   0.420
 6413TIP3   OH219181   5.361   4.674   6.055
 6413TIP3    H119182   5.365   4.613   6.128
 6413TIP3    H219183   5.353   4.617   5.978
 6414TIP3   OH219184   6.103   0.346   1.366
 6414TIP3    H119185   6.051   0.374   1.441
 6414TIP3    H219186   6.107   0.250   1.374
 6415TIP3   OH219187   8.082   3.661   3.511
 6415TIP3    H119188   8.039   3.582   3.479
 6415TIP3    H219189   8.170   3.634   3.534
 6416TIP3   OH219190   5.071   1.518   3.592
 6416TIP3    H119191   5.059   1.468   3.512
 6416TIP3    H219192   5.097   1.453   3.657
 6417TIP3   OH219193   7.628   7.358   3.220
 6417TIP3    H119194   7.704   7.408   3.251
 6417TIP3    H219195   7.589   7.414   3.153
 6418TIP3   OH219196   2.767   3.469   5.188
 6418TIP3    H119197   2.756   3.428   5.274
 6418TIP3    H219198   2.730   3.405   5.126
 6419TIP3   OH219199   3.768   0.715   1.437
 6419TIP3    H119200   3.735   0.645   1.493
 6419TIP3    H219201   3.712   0.790   1.456
 6420TIP3   OH219202   6.198   0.386   2.077
 6420TIP3    H119203   6.266   0.419   2.136
 6420TIP3    H219204   6.150   0.321   2.129
 6421TIP3   OH219205   3.016   6.333   6.687
 6421TIP3    H119206   2.986   6.248   6.719
 6421TIP3    H219207   3.107   6.318   6.660
 6422TIP3   OH219208   6.131   3.840   5.069
 6422TIP3    H119209   6.162   3.917   5.117
 6422TIP3    H219210   6.056   3.809   5.120
 6423TIP3   OH219211   5.066   7.444   2.198
 6423TIP3    H119212   5.125   7.388   2.248
 6423TIP3    H219213   4.978   7.414   2.222
 6424TIP3   OH219214   5.334   0.923   3.689
 6424TIP3    H119215   5.392   0.965   3.626
 6424TIP3    H219216   5.349   0.829   3.675
 6425TIP3   OH219217   2.869   5.740   0.736
 6425TIP3    H119218   2.825   5.696   0.663
 6425TIP3    H219219   2.810   5.813   0.758
 6426TIP3   OH219220   5.739   7.112   0.697
 6426TIP3    H119221   5.680   7.044   0.732
 6426TIP3    H219222   5.812   7.113   0.759
 6427TIP3   OH219223   3.578   2.997   3.083
 6427TIP3    H119224   3.514   2.953   3.138
 6427TIP3    H219225   3.578   2.946   3.001
 6428TIP3   OH219226   4.810   5.524   0.380
 6428TIP3    H119227   4.826   5.619   0.380
 6428TIP3    H219228   4.890   5.486   0.344
 6429TIP3   OH219229   6.852   6.443   3.667
 6429TIP3    H119230   6.869   6.390   3.589
 6429TIP3    H219231   6.758   6.433   3.683
 6430TIP3   OH219232   6.385   2.473   3.635
 6430TIP3    H119233   6.473   2.506   3.619
 6430TIP3    H219234   6.371   2.407   3.567
 6431TIP3   OH219235   0.428   1.558   3.661
 6431TIP3    H119236   0.488   1.632   3.666
 6431TIP3    H219237   0.460   1.507   3.586
 6432TIP3   OH219238   2.157   6.838   3.960
 6432TIP3    H119239   2.180   6.859   3.870
 6432TIP3    H219240   2.187   6.914   4.011
 6433TIP3   OH219241   4.458   5.760   3.351
 6433TIP3    H119242   4.525   5.785   3.287
 6433TIP3    H219243   4.433   5.671   3.326
 6434TIP3   OH219244   0.671   7.419   3.334
 6434TIP3    H119245   0.586   7.382   3.359
 6434TIP3    H219246   0.708   7.452   3.416
 6435TIP3   OH219247   3.723   1.347   5.190
 6435TIP3    H119248   3.781   1.390   5.254
 6435TIP3    H219249   3.736   1.253   5.205
 6436TIP3   OH219250   4.332   2.317   5.616
 6436TIP3    H119251   4.317   2.259   5.541
 6436TIP3    H219252   4.414   2.361   5.596
 6437TIP3   OH219253   6.919   6.595   3.002
 6437TIP3    H119254   6.935   6.684   3.033
 6437TIP3    H219255   6.903   6.604   2.908
 6438TIP3   OH219256   5.044   2.990   1.710
 6438TIP3    H119257   5.096   3.035   1.776
 6438TIP3    H219258   5.060   2.897   1.725
 6439TIP3   OH219259   7.608   1.180   1.720
 6439TIP3    H119260   7.545   1.168   1.791
 6439TIP3    H219261   7.685   1.218   1.763
 6440TIP3   OH219262   6.382   0.390   4.479
 6440TIP3    H119263   6.436   0.430   4.410
 6440TIP3    H219264   6.445   0.347   4.537
 6441TIP3   OH219265   7.576   6.313   1.725
 6441TIP3    H119266   7.546   6.342   1.638
 6441TIP3    H219267   7.655   6.364   1.740
 6442TIP3   OH219268   6.693   1.865   2.870
 6442TIP3    H119269   6.777   1.910   2.866
 6442TIP3    H219270   6.695   1.817   2.953
 6443TIP3   OH219271   6.487   7.323   1.741
 6443TIP3    H119272   6.510   7.272   1.663
 6443TIP3    H219273   6.465   7.257   1.807
 6444TIP3   OH219274   2.468   7.385   4.055
 6444TIP3    H119275   2.535   7.416   4.116
 6444TIP3    H219276   2.399   7.349   4.112
 6445TIP3   OH219277   3.665   3.698   0.096
 6445TIP3    H119278   3.725   3.629   0.067
 6445TIP3    H219279   3.676   3.769   0.033
 6446TIP3   OH219280   6.441   4.881   3.079
 6446TIP3    H119281   6.380   4.873   3.153
 6446TIP3    H219282   6.487   4.964   3.096
 6447TIP3   OH219283   6.423   1.692   2.555
 6447TIP3    H119284   6.389   1.672   2.642
 6447TIP3    H219285   6.502   1.639   2.546
 6448TIP3   OH219286   3.292   2.528   0.702
 6448TIP3    H119287   3.364   2.492   0.754
 6448TIP3    H219288   3.332   2.597   0.650
 6449TIP3   OH219289   7.590   1.295   0.441
 6449TIP3    H119290   7.544   1.356   0.499
 6449TIP3    H219291   7.615   1.222   0.497
 6450TIP3   OH219292   5.502   1.563   6.450
 6450TIP3    H119293   5.574   1.611   6.409
 6450TIP3    H219294   5.426   1.620   6.441
 6451TIP3   OH219295   6.327   6.663   4.892
 6451TIP3    H119296   6.321   6.614   4.810
 6451TIP3    H219297   6.421   6.672   4.908
 6452TIP3   OH219298   4.366   5.293   4.129
 6452TIP3    H119299   4.363   5.361   4.063
 6452TIP3    H219300   4.458   5.290   4.156
 6453TIP3   OH219301   2.387   2.150   4.033
 6453TIP3    H119302   2.394   2.213   3.962
 6453TIP3    H219303   2.376   2.203   4.112
 6454TIP3   OH219304   3.320   6.105   4.322
 6454TIP3    H119305   3.260   6.034   4.344
 6454TIP3    H219306   3.395   6.092   4.380
 6455TIP3   OH219307   6.180   2.191   3.711
 6455TIP3    H119308   6.094   2.231   3.697
 6455TIP3    H219309   6.196   2.141   3.631
 6456TIP3   OH219310   8.200   2.799   2.345
 6456TIP3    H119311   8.288   2.833   2.363
 6456TIP3    H219312   8.144   2.843   2.410
 6457TIP3   OH219313   8.096   1.611   1.082
 6457TIP3    H119314   8.007   1.578   1.091
 6457TIP3    H219315   8.124   1.583   0.995
 6458TIP3   OH219316   5.495   3.133   6.736
 6458TIP3    H119317   5.414   3.098   6.774
 6458TIP3    H219318   5.541   3.055   6.703
 6459TIP3   OH219319   2.381   7.459   5.763
 6459TIP3    H119320   2.363   7.443   5.855
 6459TIP3    H219321   2.407   7.374   5.728
 6460TIP3   OH219322   1.420   3.038   0.459
 6460TIP3    H119323   1.420   2.981   0.382
 6460TIP3    H219324   1.449   3.123   0.425
 6461TIP3   OH219325   5.968   3.194   2.423
 6461TIP3    H119326   6.019   3.265   2.462
 6461TIP3    H219327   5.879   3.208   2.455
 6462TIP3   OH219328   3.296   4.660   2.269
 6462TIP3    H119329   3.358   4.587   2.272
 6462TIP3    H219330   3.243   4.643   2.191
 6463TIP3   OH219331   5.707   2.013   0.965
 6463TIP3    H119332   5.718   1.997   1.059
 6463TIP3    H219333   5.613   2.005   0.949
 6464TIP3   OH219334   5.068   1.836   2.273
 6464TIP3    H119335   5.051   1.853   2.180
 6464TIP3    H219336   5.016   1.759   2.294
 6465TIP3   OH219337   2.079   7.148   3.833
 6465TIP3    H119338   2.072   7.191   3.918
 6465TIP3    H219339   2.160   7.184   3.795
 6466TIP3   OH219340   1.425   2.506   5.043
 6466TIP3    H119341   1.364   2.433   5.047
 6466TIP3    H219342   1.511   2.466   5.031
 6467TIP3   OH219343   6.000   6.952   1.368
 6467TIP3    H119344   5.975   7.029   1.418
 6467TIP3    H219345   5.918   6.917   1.333
 6468TIP3   OH219346   4.249   0.342   0.037
 6468TIP3    H119347   4.306   0.334  -0.040
 6468TIP3    H219348   4.308   0.334   0.112
 6469TIP3   OH219349   2.741   6.233   0.273
 6469TIP3    H119350   2.670   6.230   0.337
 6469TIP3    H219351   2.725   6.314   0.223
 6470TIP3   OH219352   7.303   5.652   3.275
 6470TIP3    H119353   7.297   5.693   3.189
 6470TIP3    H219354   7.213   5.627   3.297
 6471TIP3   OH219355   6.984   4.335   3.082
 6471TIP3    H119356   6.900   4.289   3.079
 6471TIP3    H219357   6.997   4.367   2.993
 6472TIP3   OH219358   7.867   1.007   3.025
 6472TIP3    H119359   7.860   1.080   3.086
 6472TIP3    H219360   7.784   0.960   3.033
 6473TIP3   OH219361   4.544   0.518   2.664
 6473TIP3    H119362   4.459   0.562   2.659
 6473TIP3    H219363   4.583   0.550   2.745
 6474TIP3   OH219364   4.467   5.387   0.752
 6474TIP3    H119365   4.502   5.404   0.839
 6474TIP3    H219366   4.542   5.397   0.693
 6475TIP3   OH219367   2.413   4.446   3.072
 6475TIP3    H119368   2.344   4.383   3.094
 6475TIP3    H219369   2.451   4.470   3.156
 6476TIP3   OH219370   7.692   7.783   4.387
 6476TIP3    H119371   7.709   7.750   4.476
 6476TIP3    H219372   7.775   7.821   4.359
 6477TIP3   OH219373   7.124   0.699   6.395
 6477TIP3    H119374   7.073   0.629   6.435
 6477TIP3    H219375   7.146   0.666   6.307
 6478TIP3   OH219376   1.083   1.636   4.266
 6478TIP3    H119377   1.059   1.628   4.174
 6478TIP3    H219378   1.112   1.548   4.291
 6479TIP3   OH219379   6.965   7.134   4.806
 6479TIP3    H119380   7.040   7.140   4.746
 6479TIP3    H219381   6.997   7.083   4.880
 6480TIP3   OH219382   2.347   2.584   2.265
 6480TIP3    H119383   2.310   2.639   2.196
 6480TIP3    H219384   2.318   2.495   2.243
 6481TIP3   OH219385   2.855   1.641   5.101
 6481TIP3    H119386   2.805   1.594   5.035
 6481TIP3    H219387   2.881   1.574   5.164
 6482TIP3   OH219388   2.036   3.409   4.197
 6482TIP3    H119389   2.079   3.486   4.161
 6482TIP3    H219390   1.952   3.404   4.152
 6483TIP3   OH219391   1.741   4.338   6.484
 6483TIP3    H119392   1.739   4.334   6.580
 6483TIP3    H219393   1.832   4.318   6.462
 6484TIP3   OH219394   6.290   0.151   5.635
 6484TIP3    H119395   6.295   0.056   5.642
 6484TIP3    H219396   6.329   0.171   5.550
 6485TIP3   OH219397   2.413   7.339   5.104
 6485TIP3    H119398   2.504   7.346   5.078
 6485TIP3    H219399   2.364   7.347   5.023
 6486TIP3   OH219400   1.213   3.020   4.005
 6486TIP3    H119401   1.254   3.106   3.999
 6486TIP3    H219402   1.120   3.037   3.989
 6487TIP3   OH219403   7.240   6.545   0.095
 6487TIP3    H119404   7.187   6.466   0.087
 6487TIP3    H219405   7.328   6.513   0.114
 6488TIP3   OH219406   1.203   0.881   0.163
 6488TIP3    H119407   1.152   0.886   0.244
 6488TIP3    H219408   1.262   0.957   0.167
 6489TIP3   OH219409   7.346   0.623   5.725
 6489TIP3    H119410   7.439   0.617   5.747
 6489TIP3    H219411   7.323   0.536   5.692
 6490TIP3   OH219412   3.424   2.649   4.405
 6490TIP3    H119413   3.376   2.588   4.462
 6490TIP3    H219414   3.358   2.712   4.376
 6491TIP3   OH219415   4.383   5.857   0.913
 6491TIP3    H119416   4.300   5.902   0.924
 6491TIP3    H219417   4.388   5.798   0.988
 6492TIP3   OH219418   7.368   5.659   4.466
 6492TIP3    H119419   7.397   5.573   4.499
 6492TIP3    H219420   7.375   5.717   4.542
 6493TIP3   OH219421   6.889   6.076   2.810
 6493TIP3    H119422   6.897   6.043   2.720
 6493TIP3    H219423   6.845   6.006   2.858
 6494TIP3   OH219424   1.334   4.601   5.630
 6494TIP3    H119425   1.407   4.557   5.588
 6494TIP3    H219426   1.258   4.579   5.576
 6495TIP3   OH219427   1.154   6.535   2.617
 6495TIP3    H119428   1.197   6.602   2.565
 6495TIP3    H219429   1.071   6.518   2.571
 6496TIP3   OH219430   5.397   4.244   3.440
 6496TIP3    H119431   5.491   4.243   3.457
 6496TIP3    H219432   5.358   4.223   3.525
 6497TIP3   OH219433   0.362   2.468   5.597
 6497TIP3    H119434   0.335   2.388   5.552
 6497TIP3    H219435   0.429   2.507   5.541
 6498TIP3   OH219436   3.012   4.918   6.040
 6498TIP3    H119437   2.942   4.982   6.024
 6498TIP3    H219438   3.056   4.951   6.118
 6499TIP3   OH219439   7.020   0.856   0.280
 6499TIP3    H119440   7.069   0.782   0.245
 6499TIP3    H219441   7.080   0.930   0.275
 6500TIP3   OH219442   6.029   6.463   5.561
 6500TIP3    H119443   5.936   6.464   5.582
 6500TIP3    H219444   6.066   6.399   5.623
 6501TIP3   OH219445   3.616   0.885   4.419
 6501TIP3    H119446   3.557   0.812   4.402
 6501TIP3    H219447   3.684   0.878   4.352
 6502TIP3   OH219448   1.295   1.107   4.784
 6502TIP3    H119449   1.364   1.065   4.836
 6502TIP3    H219450   1.218   1.052   4.797
 6503TIP3   OH219451   0.236   2.507   4.537
 6503TIP3    H119452   0.250   2.476   4.447
 6503TIP3    H219453   0.141   2.499   4.550
 6504TIP3   OH219454   5.334   4.298   5.457
 6504TIP3    H119455   5.277   4.335   5.390
 6504TIP3    H219456   5.372   4.374   5.501
 6505TIP3   OH219457   5.637   3.988   4.252
 6505TIP3    H119458   5.686   4.012   4.174
 6505TIP3    H219459   5.627   3.893   4.246
 6506TIP3   OH219460   3.004   5.228   1.372
 6506TIP3    H119461   3.092   5.194   1.361
 6506TIP3    H219462   2.948   5.151   1.363
 6507TIP3   OH219463   7.984   0.965   2.478
 6507TIP3    H119464   8.020   0.944   2.565
 6507TIP3    H219465   7.959   1.057   2.485
 6508TIP3   OH219466   7.050   5.970   4.499
 6508TIP3    H119467   7.033   5.974   4.593
 6508TIP3    H219468   7.144   5.986   4.491
 6509TIP3   OH219469   3.491   7.221   1.521
 6509TIP3    H119470   3.509   7.128   1.533
 6509TIP3    H219471   3.556   7.250   1.457
 6510TIP3   OH219472   2.902   7.312   4.539
 6510TIP3    H119473   2.937   7.380   4.481
 6510TIP3    H219474   2.807   7.326   4.537
 6511TIP3   OH219475   8.210   6.429   4.955
 6511TIP3    H119476   8.249   6.425   4.868
 6511TIP3    H219477   8.227   6.342   4.992
 6512TIP3   OH219478   6.587   1.412   5.501
 6512TIP3    H119479   6.574   1.485   5.561
 6512TIP3    H219480   6.532   1.341   5.536
 6513TIP3   OH219481   6.216   5.552   1.432
 6513TIP3    H119482   6.154   5.525   1.364
 6513TIP3    H219483   6.302   5.534   1.394
 6514TIP3   OH219484   5.048   4.011   3.163
 6514TIP3    H119485   5.043   4.049   3.251
 6514TIP3    H219486   5.014   3.922   3.173
 6515TIP3   OH219487   0.745   7.809   0.683
 6515TIP3    H119488   0.762   7.841   0.594
 6515TIP3    H219489   0.655   7.777   0.679
 6516TIP3   OH219490   6.212   5.962   1.273
 6516TIP3    H119491   6.241   5.979   1.363
 6516TIP3    H219492   6.184   6.047   1.240
 6517TIP3   OH219493   3.124   3.297   2.405
 6517TIP3    H119494   3.127   3.205   2.433
 6517TIP3    H219495   3.199   3.337   2.449
 6518TIP3   OH219496   1.987   4.795   3.994
 6518TIP3    H119497   2.003   4.865   3.930
 6518TIP3    H219498   2.066   4.792   4.047
 6519TIP3   OH219499   6.371   6.420   4.049
 6519TIP3    H119500   6.412   6.353   4.104
 6519TIP3    H219501   6.418   6.501   4.072
 6520TIP3   OH219502   7.238   4.222   3.069
 6520TIP3    H119503   7.148   4.254   3.060
 6520TIP3    H219504   7.248   4.204   3.162
 6521TIP3   OH219505   3.197   0.248   5.061
 6521TIP3    H119506   3.252   0.245   4.983
 6521TIP3    H219507   3.251   0.210   5.130
 6522TIP3   OH219508   0.216   7.715   3.572
 6522TIP3    H119509   0.220   7.700   3.478
 6522TIP3    H219510   0.139   7.665   3.601
 6523TIP3   OH219511   3.642   4.785   4.494
 6523TIP3    H119512   3.581   4.805   4.564
 6523TIP3    H219513   3.697   4.714   4.529
 6524TIP3   OH219514   1.489   0.533   0.540
 6524TIP3    H119515   1.454   0.453   0.502
 6524TIP3    H219516   1.542   0.503   0.614
 6525TIP3   OH219517   7.934   5.287   3.828
 6525TIP3    H119518   7.854   5.317   3.872
 6525TIP3    H219519   7.958   5.360   3.771
 6526TIP3   OH219520   2.066   2.769   6.246
 6526TIP3    H119521   2.128   2.831   6.208
 6526TIP3    H219522   2.120   2.706   6.294
 6527TIP3   OH219523   1.283   0.376   4.146
 6527TIP3    H119524   1.210   0.404   4.201
 6527TIP3    H219525   1.254   0.294   4.107
 6528TIP3   OH219526   3.817   1.499   1.624
 6528TIP3    H119527   3.829   1.529   1.714
 6528TIP3    H219528   3.765   1.419   1.632
 6529TIP3   OH219529   7.721   4.564   3.561
 6529TIP3    H119530   7.718   4.654   3.593
 6529TIP3    H219531   7.811   4.553   3.531
 6530TIP3   OH219532   6.634   1.670   2.014
 6530TIP3    H119533   6.619   1.763   1.996
 6530TIP3    H219534   6.558   1.643   2.064
 6531TIP3   OH219535   5.635   7.450   1.424
 6531TIP3    H119536   5.630   7.390   1.350
 6531TIP3    H219537   5.728   7.469   1.434
 6532TIP3   OH219538   5.024   0.234   4.391
 6532TIP3    H119539   5.066   0.319   4.406
 6532TIP3    H219540   4.933   0.256   4.373
 6533TIP3   OH219541   0.962   0.976   3.062
 6533TIP3    H119542   0.905   0.922   3.007
 6533TIP3    H219543   1.035   1.000   3.006
 6534TIP3   OH219544   7.803   4.438   5.295
 6534TIP3    H119545   7.750   4.379   5.240
 6534TIP3    H219546   7.800   4.522   5.250
 6535TIP3   OH219547   2.038   4.036   0.063
 6535TIP3    H119548   2.063   4.027   0.155
 6535TIP3    H219549   1.980   4.112   0.060
 6536TIP3   OH219550   0.363   1.859   5.257
 6536TIP3    H119551   0.291   1.833   5.313
 6536TIP3    H219552   0.435   1.801   5.280
 6537TIP3   OH219553   8.147   7.533   4.857
 6537TIP3    H119554   8.153   7.601   4.789
 6537TIP3    H219555   8.077   7.475   4.827
 6538TIP3   OH219556   0.451   2.522   4.745
 6538TIP3    H119557   0.388   2.515   4.673
 6538TIP3    H219558   0.452   2.435   4.785
 6539TIP3   OH219559   6.873   3.060   0.120
 6539TIP3    H119560   6.924   3.009   0.057
 6539TIP3    H219561   6.888   3.017   0.204
 6540TIP3   OH219562   3.498   7.491   3.601
 6540TIP3    H119563   3.560   7.550   3.558
 6540TIP3    H219564   3.486   7.419   3.539
 6541TIP3   OH219565   7.690   4.112   2.678
 6541TIP3    H119566   7.653   4.183   2.730
 6541TIP3    H219567   7.767   4.150   2.636
 6542TIP3   OH219568   7.303   7.514   5.678
 6542TIP3    H119569   7.349   7.595   5.700
 6542TIP3    H219570   7.315   7.504   5.584
 6543TIP3   OH219571   7.227   3.850   4.105
 6543TIP3    H119572   7.246   3.910   4.177
 6543TIP3    H219573   7.209   3.907   4.031
 6544TIP3   OH219574   7.893   6.753   6.166
 6544TIP3    H119575   7.915   6.819   6.231
 6544TIP3    H219576   7.798   6.745   6.170
 6545TIP3   OH219577   0.691   5.694   2.651
 6545TIP3    H119578   0.763   5.723   2.706
 6545TIP3    H219579   0.733   5.652   2.576
 6546TIP3   OH219580   2.063   3.643   5.503
 6546TIP3    H119581   2.120   3.698   5.556
 6546TIP3    H219582   2.112   3.629   5.422
 6547TIP3   OH219583   1.846   3.209   1.074
 6547TIP3    H119584   1.814   3.272   1.138
 6547TIP3    H219585   1.914   3.160   1.121
 6548TIP3   OH219586   0.986   1.595   5.115
 6548TIP3    H119587   1.015   1.566   5.202
 6548TIP3    H219588   1.041   1.670   5.094
 6549TIP3   OH219589   2.854   0.165   5.954
 6549TIP3    H119590   2.769   0.136   5.922
 6549TIP3    H219591   2.911   0.089   5.943
 6550TIP3   OH219592   3.336   1.381   1.636
 6550TIP3    H119593   3.362   1.317   1.570
 6550TIP3    H219594   3.409   1.443   1.639
 6551TIP3   OH219595   0.268   2.244   5.398
 6551TIP3    H119596   0.174   2.230   5.389
 6551TIP3    H219597   0.298   2.172   5.453
 6552TIP3   OH219598   2.108   6.238   6.378
 6552TIP3    H119599   2.087   6.188   6.457
 6552TIP3    H219600   2.102   6.330   6.405
 6553TIP3   OH219601   2.348   3.663   3.539
 6553TIP3    H119602   2.277   3.727   3.534
 6553TIP3    H219603   2.426   3.716   3.556
 6554TIP3   OH219604   1.341   0.358   6.677
 6554TIP3    H119605   1.293   0.301   6.617
 6554TIP3    H219606   1.286   0.436   6.686
 6555TIP3   OH219607   5.222   5.909   3.901
 6555TIP3    H119608   5.218   5.879   3.810
 6555TIP3    H219609   5.275   5.843   3.945
 6556TIP3   OH219610   3.661   6.700   4.875
 6556TIP3    H119611   3.690   6.649   4.951
 6556TIP3    H219612   3.674   6.791   4.900
 6557TIP3   OH219613   3.497   4.411   2.739
 6557TIP3    H119614   3.431   4.464   2.694
 6557TIP3    H219615   3.575   4.466   2.738
 6558TIP3   OH219616   0.332   3.987   3.526
 6558TIP3    H119617   0.311   4.036   3.606
 6558TIP3    H219618   0.394   3.920   3.555
 6559TIP3   OH219619   1.179   1.949   3.372
 6559TIP3    H119620   1.083   1.955   3.375
 6559TIP3    H219621   1.208   2.038   3.349
 6560TIP3   OH219622   0.463   1.184   5.466
 6560TIP3    H119623   0.371   1.171   5.491
 6560TIP3    H219624   0.511   1.120   5.519
 6561TIP3   OH219625   3.547   6.087   2.923
 6561TIP3    H119626   3.640   6.109   2.924
 6561TIP3    H219627   3.516   6.107   3.011
 6562TIP3   OH219628   3.554   6.113   3.442
 6562TIP3    H119629   3.650   6.105   3.435
 6562TIP3    H219630   3.541   6.160   3.525
 6563TIP3   OH219631   6.402   3.489   1.729
 6563TIP3    H119632   6.420   3.403   1.690
 6563TIP3    H219633   6.440   3.485   1.816
 6564TIP3   OH219634   7.252   0.365   0.583
 6564TIP3    H119635   7.286   0.452   0.560
 6564TIP3    H219636   7.194   0.380   0.657
 6565TIP3   OH219637   6.169   0.961   2.685
 6565TIP3    H119638   6.092   0.961   2.743
 6565TIP3    H219639   6.145   0.901   2.614
 6566TIP3   OH219640   1.710   4.420   1.923
 6566TIP3    H119641   1.684   4.495   1.870
 6566TIP3    H219642   1.799   4.400   1.894
 6567TIP3   OH219643   6.964   5.639   0.192
 6567TIP3    H119644   6.921   5.577   0.251
 6567TIP3    H219645   6.892   5.686   0.150
 6568TIP3   OH219646   4.339   0.282   2.402
 6568TIP3    H119647   4.384   0.269   2.485
 6568TIP3    H219648   4.246   0.289   2.425
 6569TIP3   OH219649   1.764   5.512   3.571
 6569TIP3    H119650   1.851   5.490   3.538
 6569TIP3    H219651   1.772   5.601   3.604
 6570TIP3   OH219652   8.155   7.725   4.247
 6570TIP3    H119653   8.119   7.671   4.178
 6570TIP3    H219654   8.226   7.673   4.284
 6571TIP3   OH219655   4.992   3.140   6.766
 6571TIP3    H119656   5.069   3.156   6.712
 6571TIP3    H219657   4.919   3.141   6.704
 6572TIP3   OH219658   7.408   2.001   3.304
 6572TIP3    H119659   7.322   1.967   3.328
 6572TIP3    H219660   7.431   1.953   3.224
 6573TIP3   OH219661   1.359   2.742   6.606
 6573TIP3    H119662   1.368   2.726   6.699
 6573TIP3    H219663   1.418   2.680   6.564
 6574TIP3   OH219664   7.655   0.849   2.550
 6574TIP3    H119665   7.691   0.766   2.584
 6574TIP3    H219666   7.594   0.878   2.618
 6575TIP3   OH219667   4.042   2.592   1.534
 6575TIP3    H119668   4.128   2.617   1.501
 6575TIP3    H219669   3.986   2.593   1.456
 6576TIP3   OH219670   5.779   6.993   0.425
 6576TIP3    H119671   5.777   7.037   0.510
 6576TIP3    H219672   5.828   6.912   0.440
 6577TIP3   OH219673   1.011   0.035   3.131
 6577TIP3    H119674   1.047   0.089   3.201
 6577TIP3    H219675   0.925   0.072   3.114
 6578TIP3   OH219676   5.124   0.772   2.834
 6578TIP3    H119677   5.054   0.830   2.864
 6578TIP3    H219678   5.094   0.684   2.858
 6579TIP3   OH219679   2.257   6.334   2.650
 6579TIP3    H119680   2.223   6.245   2.662
 6579TIP3    H219681   2.222   6.361   2.565
 6580TIP3   OH219682   3.830   6.425   6.645
 6580TIP3    H119683   3.889   6.459   6.578
 6580TIP3    H219684   3.834   6.489   6.716
 6581TIP3   OH219685   5.637   6.030   4.329
 6581TIP3    H119686   5.567   6.078   4.284
 6581TIP3    H219687   5.707   6.094   4.339
 6582TIP3   OH219688   0.800   3.992   1.857
 6582TIP3    H119689   0.871   3.935   1.886
 6582TIP3    H219690   0.727   3.971   1.915
 6583TIP3   OH219691   4.642   5.554   0.930
 6583TIP3    H119692   4.642   5.614   0.856
 6583TIP3    H219693   4.623   5.609   1.006
 6584TIP3   OH219694   7.192   3.069   6.128
 6584TIP3    H119695   7.238   3.137   6.079
 6584TIP3    H219696   7.099   3.090   6.117
 6585TIP3   OH219697   2.891   2.840   4.286
 6585TIP3    H119698   2.799   2.835   4.258
 6585TIP3    H219699   2.896   2.779   4.360
 6586TIP3   OH219700   0.016   6.295   1.258
 6586TIP3    H119701   0.038   6.255   1.342
 6586TIP3    H219702  -0.022   6.224   1.206
 6587TIP3   OH219703   2.278   3.955   4.446
 6587TIP3    H119704   2.311   4.029   4.497
 6587TIP3    H219705   2.346   3.888   4.453
 6588TIP3   OH219706   0.749   1.097   5.163
 6588TIP3    H119707   0.733   1.011   5.201
 6588TIP3    H219708   0.691   1.102   5.087
 6589TIP3   OH219709   6.034   2.905   2.548
 6589TIP3    H119710   5.939   2.913   2.555
 6589TIP3    H219711   6.065   2.996   2.553
 6590TIP3   OH219712   7.706   7.329   1.335
 6590TIP3    H119713   7.626   7.324   1.283
 6590TIP3    H219714   7.692   7.265   1.406
 6591TIP3   OH219715   7.113   7.587   4.872
 6591TIP3    H119716   7.087   7.581   4.780
 6591TIP3    H219717   7.090   7.676   4.898
 6592TIP3   OH219718   1.763   3.375   5.144
 6592TIP3    H119719   1.722   3.343   5.063
 6592TIP3    H219720   1.690   3.392   5.203
 6593TIP3   OH219721   5.575   0.601   4.870
 6593TIP3    H119722   5.488   0.573   4.898
 6593TIP3    H219723   5.594   0.678   4.924
 6594TIP3   OH219724   2.450   7.834   3.729
 6594TIP3    H119725   2.429   7.856   3.819
 6594TIP3    H219726   2.372   7.859   3.679
 6595TIP3   OH219727   0.993   3.430   5.323
 6595TIP3    H119728   0.993   3.335   5.317
 6595TIP3    H219729   0.931   3.459   5.256
 6596TIP3   OH219730   2.805   1.895   1.932
 6596TIP3    H119731   2.725   1.878   1.882
 6596TIP3    H219732   2.849   1.965   1.884
 6597TIP3   OH219733   1.349   6.636   5.324
 6597TIP3    H119734   1.421   6.692   5.352
 6597TIP3    H219735   1.391   6.555   5.297
 6598TIP3   OH219736   2.036   6.058   3.975
 6598TIP3    H119737   2.009   5.972   3.943
 6598TIP3    H219738   2.102   6.039   4.042
 6599TIP3   OH219739   5.428   7.789   4.416
 6599TIP3    H119740   5.389   7.705   4.390
 6599TIP3    H219741   5.487   7.811   4.344
 6600TIP3   OH219742   2.291   1.682   3.896
 6600TIP3    H119743   2.244   1.600   3.909
 6600TIP3    H219744   2.223   1.749   3.893
 6601TIP3   OH219745   2.244   6.385   4.744
 6601TIP3    H119746   2.239   6.344   4.658
 6601TIP3    H219747   2.157   6.421   4.759
 6602TIP3   OH219748   6.084   3.537   6.800
 6602TIP3    H119749   6.105   3.454   6.842
 6602TIP3    H219750   6.085   3.518   6.706
 6603TIP3   OH219751   6.117   5.927   5.458
 6603TIP3    H119752   6.198   5.940   5.408
 6603TIP3    H219753   6.080   5.847   5.421
 6604TIP3   OH219754   1.778   7.377   4.871
 6604TIP3    H119755   1.718   7.304   4.853
 6604TIP3    H219756   1.861   7.349   4.835
 6605TIP3   OH219757   5.185   4.575   3.015
 6605TIP3    H119758   5.216   4.583   2.925
 6605TIP3    H219759   5.245   4.628   3.067
 6606TIP3   OH219760   5.208   1.393   5.500
 6606TIP3    H119761   5.249   1.440   5.428
 6606TIP3    H219762   5.201   1.457   5.570
 6607TIP3   OH219763   3.232   2.292   3.077
 6607TIP3    H119764   3.232   2.347   3.155
 6607TIP3    H219765   3.160   2.326   3.024
 6608TIP3   OH219766   3.704   2.227   1.596
 6608TIP3    H119767   3.638   2.162   1.622
 6608TIP3    H219768   3.788   2.184   1.612
 6609TIP3   OH219769   0.348   5.265   6.647
 6609TIP3    H119770   0.374   5.173   6.652
 6609TIP3    H219771   0.379   5.302   6.730
 6610TIP3   OH219772   2.984   0.703   1.180
 6610TIP3    H119773   2.958   0.685   1.090
 6610TIP3    H219774   3.030   0.787   1.175
 6611TIP3   OH219775   8.306   2.090   0.752
 6611TIP3    H119776   8.284   2.160   0.691
 6611TIP3    H219777   8.261   2.113   0.833
 6612TIP3   OH219778   1.615   7.024   1.557
 6612TIP3    H119779   1.573   7.028   1.471
 6612TIP3    H219780   1.696   7.075   1.546
 6613TIP3   OH219781   6.992   2.170   1.349
 6613TIP3    H119782   7.006   2.264   1.364
 6613TIP3    H219783   7.019   2.129   1.431
 6614TIP3   OH219784   3.360   5.224   2.627
 6614TIP3    H119785   3.275   5.185   2.651
 6614TIP3    H219786   3.420   5.193   2.695
 6615TIP3   OH219787   2.137   3.849   3.442
 6615TIP3    H119788   2.196   3.893   3.380
 6615TIP3    H219789   2.066   3.911   3.457
 6616TIP3   OH219790   6.032   0.039   4.846
 6616TIP3    H119791   6.039   0.088   4.929
 6616TIP3    H219792   6.041   0.106   4.778
 6617TIP3   OH219793   7.859   6.912   5.896
 6617TIP3    H119794   7.811   6.868   5.966
 6617TIP3    H219795   7.873   7.001   5.928
 6618TIP3   OH219796   5.302   4.888   0.303
 6618TIP3    H119797   5.267   4.897   0.392
 6618TIP3    H219798   5.299   4.976   0.267
 6619TIP3   OH219799   4.708   6.691   2.758
 6619TIP3    H119800   4.743   6.761   2.813
 6619TIP3    H219801   4.782   6.632   2.743
 6620TIP3   OH219802   7.984   5.694   4.765
 6620TIP3    H119803   8.073   5.670   4.789
 6620TIP3    H219804   7.931   5.617   4.786
 6621TIP3   OH219805   1.423   0.152   2.286
 6621TIP3    H119806   1.342   0.114   2.251
 6621TIP3    H219807   1.474   0.076   2.316
 6622TIP3   OH219808   3.513   2.833   2.821
 6622TIP3    H119809   3.554   2.899   2.765
 6622TIP3    H219810   3.585   2.781   2.854
 6623TIP3   OH219811   6.195   5.239   6.353
 6623TIP3    H119812   6.188   5.320   6.303
 6623TIP3    H219813   6.238   5.264   6.435
 6624TIP3   OH219814   7.015   6.533   2.656
 6624TIP3    H119815   7.091   6.489   2.619
 6624TIP3    H219816   6.951   6.463   2.671
 6625TIP3   OH219817   6.881   6.928   2.549
 6625TIP3    H119818   6.793   6.895   2.530
 6625TIP3    H219819   6.927   6.924   2.465
 6626TIP3   OH219820   7.201   6.345   6.375
 6626TIP3    H119821   7.171   6.402   6.446
 6626TIP3    H219822   7.178   6.392   6.295
 6627TIP3   OH219823   7.167   1.056   3.949
 6627TIP3    H119824   7.140   0.992   3.882
 6627TIP3    H219825   7.208   1.127   3.900
 6628TIP3   OH219826   6.632   2.333   3.386
 6628TIP3    H119827   6.641   2.272   3.313
 6628TIP3    H219828   6.691   2.405   3.365
 6629TIP3   OH219829   0.738   2.559   2.793
 6629TIP3    H119830   0.685   2.493   2.838
 6629TIP3    H219831   0.713   2.552   2.701
 6630TIP3   OH219832   4.922   1.616   0.997
 6630TIP3    H119833   4.953   1.538   0.951
 6630TIP3    H219834   4.926   1.592   1.090
 6631TIP3   OH219835   4.034   7.656   2.099
 6631TIP3    H119836   4.033   7.730   2.159
 6631TIP3    H219837   3.968   7.677   2.034
 6632TIP3   OH219838   8.153   7.264   2.166
 6632TIP3    H119839   8.153   7.237   2.257
 6632TIP3    H219840   8.078   7.219   2.127
 6633TIP3   OH219841   3.441   1.576   4.854
 6633TIP3    H119842   3.453   1.564   4.948
 6633TIP3    H219843   3.509   1.522   4.814
 6634TIP3   OH219844   2.497   0.758   6.513
 6634TIP3    H119845   2.491   0.666   6.537
 6634TIP3    H219846   2.421   0.773   6.457
 6635TIP3   OH219847   4.444   5.699   3.968
 6635TIP3    H119848   4.372   5.709   3.906
 6635TIP3    H219849   4.468   5.606   3.961
 6636TIP3   OH219850   1.950   6.046   3.661
 6636TIP3    H119851   1.875   6.057   3.603
 6636TIP3    H219852   1.932   6.105   3.734
 6637TIP3   OH219853   5.620   7.210   0.258
 6637TIP3    H119854   5.659   7.291   0.227
 6637TIP3    H219855   5.660   7.196   0.344
 6638TIP3   OH219856   4.297   0.652   2.509
 6638TIP3    H119857   4.354   0.609   2.445
 6638TIP3    H219858   4.292   0.743   2.480
 6639TIP3   OH219859   0.135   5.507   2.668
 6639TIP3    H119860   0.074   5.443   2.705
 6639TIP3    H219861   0.170   5.464   2.590
 6640TIP3   OH219862   2.353   1.943   1.154
 6640TIP3    H119863   2.442   1.977   1.158
 6640TIP3    H219864   2.363   1.852   1.127
 6641TIP3   OH219865   3.465   4.963   1.901
 6641TIP3    H119866   3.466   5.058   1.911
 6641TIP3    H219867   3.540   4.932   1.952
 6642TIP3   OH219868   0.084   5.232   3.792
 6642TIP3    H119869   0.063   5.197   3.879
 6642TIP3    H219870   0.040   5.317   3.789
 6643TIP3   OH219871   1.494   3.587   5.957
 6643TIP3    H119872   1.409   3.584   6.001
 6643TIP3    H219873   1.515   3.496   5.939
 6644TIP3   OH219874   0.549   2.763   2.693
 6644TIP3    H119875   0.638   2.729   2.696
 6644TIP3    H219876   0.547   2.830   2.762
 6645TIP3   OH219877   0.496   1.669   1.230
 6645TIP3    H119878   0.432   1.606   1.262
 6645TIP3    H219879   0.565   1.669   1.296
 6646TIP3   OH219880   3.684   3.920   4.826
 6646TIP3    H119881   3.590   3.909   4.840
 6646TIP3    H219882   3.693   3.937   4.732
 6647TIP3   OH219883   0.390   4.870   0.092
 6647TIP3    H119884   0.381   4.965   0.092
 6647TIP3    H219885   0.390   4.846  -0.001
 6648TIP3   OH219886   4.727   7.739   2.205
 6648TIP3    H119887   4.786   7.807   2.173
 6648TIP3    H219888   4.683   7.706   2.127
 6649TIP3   OH219889   4.056   6.639   1.555
 6649TIP3    H119890   4.066   6.590   1.473
 6649TIP3    H219891   4.144   6.641   1.593
 6650TIP3   OH219892   1.196   4.736   2.257
 6650TIP3    H119893   1.161   4.813   2.302
 6650TIP3    H219894   1.290   4.740   2.271
 6651TIP3   OH219895   6.364   2.977   3.635
 6651TIP3    H119896   6.360   2.916   3.562
 6651TIP3    H219897   6.299   3.045   3.613
 6652TIP3   OH219898   0.776   0.730   6.459
 6652TIP3    H119899   0.852   0.778   6.493
 6652TIP3    H219900   0.705   0.753   6.519
 6653TIP3   OH219901   1.396   5.028   0.473
 6653TIP3    H119902   1.360   5.112   0.446
 6653TIP3    H219903   1.366   5.017   0.563
 6654TIP3   OH219904   3.882   3.737   3.718
 6654TIP3    H119905   3.838   3.732   3.634
 6654TIP3    H219906   3.854   3.821   3.756
 6655TIP3   OH219907   6.221   4.711   2.810
 6655TIP3    H119908   6.292   4.774   2.798
 6655TIP3    H219909   6.254   4.650   2.876
 6656TIP3   OH219910   3.376   1.413   0.360
 6656TIP3    H119911   3.425   1.442   0.437
 6656TIP3    H219912   3.427   1.446   0.286
 6657TIP3   OH219913   4.689   4.752   5.252
 6657TIP3    H119914   4.714   4.827   5.198
 6657TIP3    H219915   4.647   4.791   5.329
 6658TIP3   OH219916   3.682   3.733   2.106
 6658TIP3    H119917   3.733   3.777   2.038
 6658TIP3    H219918   3.726   3.650   2.120
 6659TIP3   OH219919   5.182   0.198   5.395
 6659TIP3    H119920   5.210   0.287   5.373
 6659TIP3    H219921   5.121   0.174   5.325
 6660TIP3   OH219922   7.556   1.139   1.048
 6660TIP3    H119923   7.546   1.212   0.986
 6660TIP3    H219924   7.632   1.091   1.015
 6661TIP3   OH219925   2.649   6.632   2.780
 6661TIP3    H119926   2.561   6.597   2.768
 6661TIP3    H219927   2.668   6.618   2.873
 6662TIP3   OH219928   6.332   5.352   4.696
 6662TIP3    H119929   6.260   5.315   4.747
 6662TIP3    H219930   6.410   5.309   4.731
 6663TIP3   OH219931   5.156   7.338   3.967
 6663TIP3    H119932   5.153   7.391   3.887
 6663TIP3    H219933   5.172   7.249   3.936
 6664TIP3   OH219934   2.593   7.027   6.682
 6664TIP3    H119935   2.608   7.119   6.660
 6664TIP3    H219936   2.677   6.995   6.713
 6665TIP3   OH219937   2.423   1.722   1.564
 6665TIP3    H119938   2.412   1.643   1.512
 6665TIP3    H219939   2.398   1.793   1.505
 6666TIP3   OH219940   4.873   1.701   6.705
 6666TIP3    H119941   4.947   1.658   6.750
 6666TIP3    H219942   4.888   1.794   6.719
 6667TIP3   OH219943   1.927   7.845   5.717
 6667TIP3    H119944   1.975   7.878   5.641
 6667TIP3    H219945   1.985   7.779   5.755
 6668TIP3   OH219946   5.629   5.305   5.920
 6668TIP3    H119947   5.640   5.214   5.895
 6668TIP3    H219948   5.568   5.340   5.854
 6669TIP3   OH219949   5.014   1.113   3.670
 6669TIP3    H119950   5.098   1.068   3.679
 6669TIP3    H219951   4.949   1.052   3.705
 6670TIP3   OH219952   7.823   3.536   0.178
 6670TIP3    H119953   7.811   3.442   0.166
 6670TIP3    H219954   7.885   3.543   0.250
 6671TIP3   OH219955   7.897   3.303   5.744
 6671TIP3    H119956   7.940   3.383   5.713
 6671TIP3    H219957   7.803   3.321   5.736
 6672TIP3   OH219958   2.328   1.781   6.264
 6672TIP3    H119959   2.417   1.814   6.253
 6672TIP3    H219960   2.307   1.799   6.356
 6673TIP3   OH219961   3.594   3.770   5.590
 6673TIP3    H119962   3.654   3.764   5.516
 6673TIP3    H219963   3.526   3.706   5.570
 6674TIP3   OH219964   2.477   4.953   5.105
 6674TIP3    H119965   2.572   4.957   5.116
 6674TIP3    H219966   2.457   5.019   5.039
 6675TIP3   OH219967   8.262   5.899   5.758
 6675TIP3    H119968   8.205   5.959   5.709
 6675TIP3    H219969   8.266   5.936   5.846
 6676TIP3   OH219970   4.326   7.628   0.367
 6676TIP3    H119971   4.369   7.597   0.447
 6676TIP3    H219972   4.232   7.629   0.390
 6677TIP3   OH219973   4.822   5.488   3.889
 6677TIP3    H119974   4.869   5.405   3.883
 6677TIP3    H219975   4.878   5.551   3.844
 6678TIP3   OH219976   3.985   7.848   0.328
 6678TIP3    H119977   4.048   7.777   0.335
 6678TIP3    H219978   4.016   7.901   0.255
 6679TIP3   OH219979   4.490   6.181   6.757
 6679TIP3    H119980   4.467   6.250   6.820
 6679TIP3    H219981   4.518   6.108   6.811
 6680TIP3   OH219982   7.747   3.818   0.839
 6680TIP3    H119983   7.795   3.792   0.760
 6680TIP3    H219984   7.814   3.822   0.907
 6681TIP3   OH219985   3.709   3.959   1.378
 6681TIP3    H119986   3.744   3.928   1.295
 6681TIP3    H219987   3.615   3.970   1.362
 6682TIP3   OH219988   2.010   7.221   0.052
 6682TIP3    H119989   1.973   7.298   0.094
 6682TIP3    H219990   2.006   7.240  -0.041
 6683TIP3   OH219991   6.750   6.636   1.539
 6683TIP3    H119992   6.657   6.649   1.555
 6683TIP3    H219993   6.769   6.550   1.576
 6684TIP3   OH219994   0.644   2.869   3.769
 6684TIP3    H119995   0.617   2.867   3.861
 6684TIP3    H219996   0.608   2.951   3.735
 6685TIP3   OH219997   1.856   4.222   0.151
 6685TIP3    H119998   1.774   4.227   0.104
 6685TIP3    H219999   1.885   4.313   0.160
 6686TIP3   OH220000   0.158   0.414   4.441
 6686TIP3    H120001   0.179   0.408   4.534
 6686TIP3    H220002   0.066   0.443   4.439
 6687TIP3   OH220003   3.562   0.403   4.042
 6687TIP3    H120004   3.625   0.331   4.049
 6687TIP3    H220005   3.614   0.477   4.011
 6688TIP3   OH220006   4.740   7.301   6.134
 6688TIP3    H120007   4.738   7.376   6.076
 6688TIP3    H220008   4.699   7.331   6.215
 6689TIP3   OH220009   6.630   4.279   0.778
 6689TIP3    H120010   6.610   4.323   0.696
 6689TIP3    H220011   6.719   4.245   0.766
 6690TIP3   OH220012   4.752   2.404   0.471
 6690TIP3    H120013   4.680   2.459   0.438
 6690TIP3    H220014   4.828   2.433   0.421
 6691TIP3   OH220015   4.107   4.104   5.175
 6691TIP3    H120016   4.095   4.199   5.171
 6691TIP3    H220017   4.103   4.084   5.268
 6692TIP3   OH220018   7.744   3.842   3.954
 6692TIP3    H120019   7.769   3.828   3.863
 6692TIP3    H220020   7.656   3.806   3.961
 6693TIP3   OH220021   5.810   2.037   0.225
 6693TIP3    H120022   5.841   1.950   0.253
 6693TIP3    H220023   5.763   2.070   0.301
 6694TIP3   OH220024   5.420   7.234   1.666
 6694TIP3    H120025   5.483   7.297   1.700
 6694TIP3    H220026   5.377   7.199   1.744
 6695TIP3   OH220027   6.569   4.699   5.206
 6695TIP3    H120028   6.664   4.701   5.219
 6695TIP3    H220029   6.537   4.778   5.250
 6696TIP3   OH220030   6.090   0.556   5.382
 6696TIP3    H120031   6.107   0.520   5.469
 6696TIP3    H220032   6.067   0.480   5.328
 6697TIP3   OH220033   1.663   0.359   5.419
 6697TIP3    H120034   1.581   0.333   5.377
 6697TIP3    H220035   1.725   0.290   5.393
 6698TIP3   OH220036   4.695   3.625   0.373
 6698TIP3    H120037   4.721   3.550   0.426
 6698TIP3    H220038   4.668   3.691   0.436
 6699TIP3   OH220039   7.966   5.744   4.407
 6699TIP3    H120040   8.052   5.778   4.382
 6699TIP3    H220041   7.984   5.659   4.447
 6700TIP3   OH220042   5.726   4.141   6.662
 6700TIP3    H120043   5.662   4.120   6.594
 6700TIP3    H220044   5.773   4.218   6.629
 6701TIP3   OH220045   7.885   4.468   1.146
 6701TIP3    H120046   7.944   4.440   1.216
 6701TIP3    H220047   7.805   4.417   1.160
 6702TIP3   OH220048   2.886   6.736   0.064
 6702TIP3    H120049   2.801   6.750   0.022
 6702TIP3    H220050   2.935   6.681   0.003
 6703TIP3   OH220051   0.983   4.412   4.708
 6703TIP3    H120052   0.981   4.485   4.647
 6703TIP3    H220053   0.936   4.444   4.785
 6704TIP3   OH220054   0.722   2.353   5.713
 6704TIP3    H120055   0.667   2.426   5.685
 6704TIP3    H220056   0.811   2.380   5.692
 6705TIP3   OH220057   7.472   0.308   1.866
 6705TIP3    H120058   7.554   0.297   1.914
 6705TIP3    H220059   7.439   0.394   1.893
 6706TIP3   OH220060   0.332   6.804   0.151
 6706TIP3    H120061   0.339   6.747   0.227
 6706TIP3    H220062   0.289   6.751   0.084
 6707TIP3   OH220063   6.867   3.763   1.019
 6707TIP3    H120064   6.842   3.679   1.057
 6707TIP3    H220065   6.831   3.761   0.930
 6708TIP3   OH220066   1.167   2.155   3.855
 6708TIP3    H120067   1.086   2.115   3.886
 6708TIP3    H220068   1.148   2.249   3.851
 6709TIP3   OH220069   1.582   1.520   0.651
 6709TIP3    H120070   1.629   1.577   0.711
 6709TIP3    H220071   1.644   1.450   0.631
 6710TIP3   OH220072   1.435   6.074   1.418
 6710TIP3    H120073   1.392   6.108   1.497
 6710TIP3    H220074   1.365   6.072   1.352
 6711TIP3   OH220075   3.239   0.927   2.739
 6711TIP3    H120076   3.272   0.849   2.783
 6711TIP3    H220077   3.147   0.907   2.721
 6712TIP3   OH220078   1.068   1.311   6.587
 6712TIP3    H120079   1.041   1.388   6.636
 6712TIP3    H220080   1.105   1.346   6.506
 6713TIP3   OH220081   1.380   4.570   0.377
 6713TIP3    H120082   1.436   4.647   0.387
 6713TIP3    H220083   1.392   4.520   0.457
 6714TIP3   OH220084   2.447   5.435   4.949
 6714TIP3    H120085   2.391   5.485   5.008
 6714TIP3    H220086   2.525   5.489   4.937
 6715TIP3   OH220087   7.477   6.357   3.880
 6715TIP3    H120088   7.430   6.433   3.846
 6715TIP3    H220089   7.566   6.367   3.848
 6716TIP3   OH220090   1.699   7.059   4.184
 6716TIP3    H120091   1.708   6.969   4.216
 6716TIP3    H220092   1.738   7.057   4.097
 6717TIP3   OH220093   2.324   1.005   4.714
 6717TIP3    H120094   2.293   0.927   4.667
 6717TIP3    H220095   2.318   0.981   4.807
 6718TIP3   OH220096   6.728   4.420   5.035
 6718TIP3    H120097   6.760   4.480   5.102
 6718TIP3    H220098   6.758   4.458   4.953
 6719TIP3   OH220099   8.119   6.528   2.370
 6719TIP3    H120100   8.182   6.585   2.327
 6719TIP3    H220101   8.064   6.495   2.298
 6720TIP3   OH220102   3.468   2.144   3.446
 6720TIP3    H120103   3.382   2.185   3.434
 6720TIP3    H220104   3.456   2.053   3.420
 6721TIP3   OH220105   7.512   6.266   4.199
 6721TIP3    H120106   7.459   6.251   4.121
 6721TIP3    H220107   7.448   6.273   4.270
 6722TIP3   OH220108   4.753   6.048   5.052
 6722TIP3    H120109   4.783   6.127   5.009
 6722TIP3    H220110   4.833   5.998   5.069
 6723TIP3   OH220111   4.376   1.690   2.341
 6723TIP3    H120112   4.410   1.642   2.416
 6723TIP3    H220113   4.298   1.642   2.315
 6724TIP3   OH220114   6.068   4.672   5.870
 6724TIP3    H120115   6.108   4.587   5.852
 6724TIP3    H220116   6.084   4.687   5.963
 6725TIP3   OH220117   2.471   7.356   4.412
 6725TIP3    H120118   2.392   7.303   4.404
 6725TIP3    H220119   2.540   7.301   4.373
 6726TIP3   OH220120   7.875   0.218   0.004
 6726TIP3    H120121   7.781   0.236   0.005
 6726TIP3    H220122   7.886   0.144   0.065
 6727TIP3   OH220123   2.212   6.374   0.409
 6727TIP3    H120124   2.168   6.458   0.397
 6727TIP3    H220125   2.167   6.314   0.349
 6728TIP3   OH220126   2.882   1.813   4.470
 6728TIP3    H120127   2.935   1.825   4.548
 6728TIP3    H220128   2.892   1.721   4.448
 6729TIP3   OH220129   0.100   2.294   6.160
 6729TIP3    H120130   0.044   2.365   6.192
 6729TIP3    H220131   0.053   2.260   6.084
 6730TIP3   OH220132   6.930   1.528   1.708
 6730TIP3    H120133   6.839   1.527   1.738
 6730TIP3    H220134   6.949   1.437   1.684
 6731TIP3   OH220135   7.507   2.616   1.669
 6731TIP3    H120136   7.528   2.606   1.576
 6731TIP3    H220137   7.587   2.591   1.715
 6732TIP3   OH220138   1.628   1.044   3.970
 6732TIP3    H120139   1.635   0.960   4.014
 6732TIP3    H220140   1.537   1.071   3.984
 6733TIP3   OH220141   6.900   3.865   6.222
 6733TIP3    H120142   6.814   3.823   6.217
 6733TIP3    H220143   6.954   3.805   6.274
 6734TIP3   OH220144   6.193   7.339   2.416
 6734TIP3    H120145   6.254   7.339   2.489
 6734TIP3    H220146   6.160   7.429   2.412
 6735TIP3   OH220147   4.680   6.915   6.090
 6735TIP3    H120148   4.617   6.854   6.052
 6735TIP3    H220149   4.765   6.873   6.077
 6736TIP3   OH220150   3.136   4.080   3.908
 6736TIP3    H120151   3.196   4.100   3.836
 6736TIP3    H220152   3.081   4.158   3.916
 6737TIP3   OH220153   0.342   4.718   6.760
 6737TIP3    H120154   0.259   4.726   6.713
 6737TIP3    H220155   0.409   4.719   6.692
 6738TIP3   OH220156   6.274   5.504   3.112
 6738TIP3    H120157   6.296   5.588   3.072
 6738TIP3    H220158   6.265   5.523   3.205
 6739TIP3   OH220159   2.995   6.418   2.860
 6739TIP3    H120160   2.996   6.442   2.952
 6739TIP3    H220161   3.027   6.328   2.858
 6740TIP3   OH220162   1.420   5.363   0.449
 6740TIP3    H120163   1.514   5.343   0.440
 6740TIP3    H220164   1.385   5.352   0.360
 6741TIP3   OH220165   7.781   4.326   4.482
 6741TIP3    H120166   7.728   4.250   4.504
 6741TIP3    H220167   7.802   4.366   4.567
 6742TIP3   OH220168   3.441   3.107   0.065
 6742TIP3    H120169   3.406   3.088   0.152
 6742TIP3    H220170   3.446   3.022   0.022
 6743TIP3   OH220171   0.435   6.183   4.357
 6743TIP3    H120172   0.362   6.238   4.328
 6743TIP3    H220173   0.400   6.134   4.432
 6744TIP3   OH220174   5.918   1.074   3.295
 6744TIP3    H120175   5.927   1.004   3.230
 6744TIP3    H220176   5.829   1.063   3.330
 6745TIP3   OH220177   2.723   5.038   5.958
 6745TIP3    H120178   2.686   4.974   5.898
 6745TIP3    H220179   2.767   5.102   5.902
 6746TIP3   OH220180   6.515   0.115   3.953
 6746TIP3    H120181   6.424   0.115   3.925
 6746TIP3    H220182   6.549   0.200   3.924
 6747TIP3   OH220183   6.803   4.046   3.114
 6747TIP3    H120184   6.739   4.017   3.049
 6747TIP3    H220185   6.835   3.964   3.154
 6748TIP3   OH220186   2.753   0.283   3.719
 6748TIP3    H120187   2.817   0.214   3.732
 6748TIP3    H220188   2.799   0.351   3.670
 6749TIP3   OH220189   7.144   0.670   2.728
 6749TIP3    H120190   7.115   0.731   2.660
 6749TIP3    H220191   7.159   0.725   2.804
 6750TIP3   OH220192   3.223   1.178   2.854
 6750TIP3    H120193   3.168   1.149   2.927
 6750TIP3    H220194   3.231   1.100   2.798
 6751TIP3   OH220195   3.026   5.871   0.985
 6751TIP3    H120196   3.065   5.928   0.920
 6751TIP3    H220197   2.946   5.917   1.013
 6752TIP3   OH220198   4.454   2.968   6.521
 6752TIP3    H120199   4.455   2.893   6.580
 6752TIP3    H220200   4.373   3.014   6.541
 6753TIP3   OH220201   3.523   1.962   1.728
 6753TIP3    H120202   3.464   1.894   1.696
 6753TIP3    H220203   3.499   1.973   1.820
 6754TIP3   OH220204   5.051   6.287   5.161
 6754TIP3    H120205   5.003   6.255   5.237
 6754TIP3    H220206   5.076   6.376   5.183
 6755TIP3   OH220207   5.865   3.765   2.557
 6755TIP3    H120208   5.866   3.838   2.495
 6755TIP3    H220209   5.835   3.690   2.506
 6756TIP3   OH220210   1.380   5.831   4.207
 6756TIP3    H120211   1.449   5.818   4.142
 6756TIP3    H220212   1.325   5.754   4.199
 6757TIP3   OH220213   6.685   1.852   4.001
 6757TIP3    H120214   6.623   1.907   3.954
 6757TIP3    H220215   6.658   1.859   4.093
 6758TIP3   OH220216   0.904   3.999   0.497
 6758TIP3    H120217   0.891   3.906   0.516
 6758TIP3    H220218   0.978   4.001   0.437
 6759TIP3   OH220219   1.816   7.401   4.089
 6759TIP3    H120220   1.896   7.388   4.038
 6759TIP3    H220221   1.829   7.350   4.169
 6760TIP3   OH220222   6.921   4.854   1.678
 6760TIP3    H120223   6.928   4.840   1.583
 6760TIP3    H220224   6.870   4.934   1.686
 6761TIP3   OH220225   1.587   6.455   2.071
 6761TIP3    H120226   1.599   6.538   2.026
 6761TIP3    H220227   1.659   6.451   2.134
 6762TIP3   OH220228   7.904   1.136   0.226
 6762TIP3    H120229   7.915   1.186   0.306
 6762TIP3    H220230   7.971   1.170   0.166
 6763TIP3   OH220231   3.551   3.376   6.402
 6763TIP3    H120232   3.547   3.441   6.473
 6763TIP3    H220233   3.604   3.418   6.334
 6764TIP3   OH220234   6.685   1.972   5.228
 6764TIP3    H120235   6.754   1.928   5.179
 6764TIP3    H220236   6.609   1.971   5.170
 6765TIP3   OH220237   0.073   4.821   2.160
 6765TIP3    H120238   0.128   4.821   2.238
 6765TIP3    H220239   0.130   4.786   2.091
 6766TIP3   OH220240   4.781   1.037   2.608
 6766TIP3    H120241   4.824   0.961   2.647
 6766TIP3    H220242   4.721   1.068   2.676
 6767TIP3   OH220243   6.385   7.418   4.549
 6767TIP3    H120244   6.342   7.455   4.472
 6767TIP3    H220245   6.446   7.485   4.578
 6768TIP3   OH220246   2.521   4.190   0.897
 6768TIP3    H120247   2.523   4.094   0.896
 6768TIP3    H220248   2.487   4.213   0.810
 6769TIP3   OH220249   3.045   0.703   5.302
 6769TIP3    H120250   3.064   0.711   5.208
 6769TIP3    H220251   2.953   0.676   5.305
 6770TIP3   OH220252   3.378   4.122   4.627
 6770TIP3    H120253   3.421   4.055   4.680
 6770TIP3    H220254   3.392   4.203   4.676
 6771TIP3   OH220255   3.837   5.442   0.999
 6771TIP3    H120256   3.847   5.358   0.954
 6771TIP3    H220257   3.817   5.418   1.090
 6772TIP3   OH220258   4.368   4.879   2.017
 6772TIP3    H120259   4.318   4.831   2.082
 6772TIP3    H220260   4.460   4.863   2.040
 6773TIP3   OH220261   4.735   4.373   2.685
 6773TIP3    H120262   4.809   4.337   2.636
 6773TIP3    H220263   4.738   4.328   2.769
 6774TIP3   OH220264   6.911   1.218   3.510
 6774TIP3    H120265   7.001   1.243   3.493
 6774TIP3    H220266   6.859   1.275   3.454
 6775TIP3   OH220267   1.762   7.803   4.411
 6775TIP3    H120268   1.714   7.844   4.339
 6775TIP3    H220269   1.840   7.766   4.371
 6776TIP3   OH220270   4.838   0.487   6.016
 6776TIP3    H120271   4.876   0.400   6.027
 6776TIP3    H220272   4.745   0.471   5.999
 6777TIP3   OH220273   0.392   5.014   5.009
 6777TIP3    H120274   0.377   4.941   4.949
 6777TIP3    H220275   0.486   5.032   5.001
 6778TIP3   OH220276   7.540   0.132   1.433
 6778TIP3    H120277   7.527   0.037   1.432
 6778TIP3    H220278   7.489   0.163   1.508
 6779TIP3   OH220279   5.203   7.174   4.423
 6779TIP3    H120280   5.295   7.152   4.416
 6779TIP3    H220281   5.157   7.092   4.406
 6780TIP3   OH220282   3.969   5.992   3.272
 6780TIP3    H120283   4.045   6.049   3.260
 6780TIP3    H220284   3.930   6.022   3.354
 6781TIP3   OH220285   6.212   6.489   1.798
 6781TIP3    H120286   6.304   6.508   1.817
 6781TIP3    H220287   6.166   6.504   1.880
 6782TIP3   OH220288   3.761   2.288   2.857
 6782TIP3    H120289   3.688   2.350   2.854
 6782TIP3    H220290   3.722   2.204   2.833
 6783TIP3   OH220291   5.842   2.797   1.807
 6783TIP3    H120292   5.853   2.877   1.755
 6783TIP3    H220293   5.848   2.726   1.743
 6784TIP3   OH220294   7.633   3.784   4.280
 6784TIP3    H120295   7.584   3.786   4.197
 6784TIP3    H220296   7.680   3.700   4.277
 6785TIP3   OH220297   1.647   1.177   5.705
 6785TIP3    H120298   1.648   1.271   5.692
 6785TIP3    H220299   1.575   1.162   5.766
 6786TIP3   OH220300   2.327   6.730   2.966
 6786TIP3    H120301   2.368   6.710   3.051
 6786TIP3    H220302   2.233   6.731   2.984
 6787TIP3   OH220303   6.697   0.471   4.439
 6787TIP3    H120304   6.722   0.383   4.467
 6787TIP3    H220305   6.740   0.482   4.354
 6788TIP3   OH220306   2.933   0.838   3.607
 6788TIP3    H120307   2.871   0.783   3.655
 6788TIP3    H220308   2.899   0.842   3.518
 6789TIP3   OH220309   1.313   4.699   6.036
 6789TIP3    H120310   1.222   4.670   6.033
 6789TIP3    H220311   1.315   4.774   5.976
 6790TIP3   OH220312   1.106   2.344   1.697
 6790TIP3    H120313   1.172   2.378   1.757
 6790TIP3    H220314   1.155   2.289   1.636
 6791TIP3   OH220315   7.089   1.860   2.462
 6791TIP3    H120316   7.080   1.940   2.515
 6791TIP3    H220317   7.012   1.808   2.485
 6792TIP3   OH220318   6.584   2.795   5.849
 6792TIP3    H120319   6.563   2.822   5.759
 6792TIP3    H220320   6.630   2.711   5.838
 6793TIP3   OH220321   0.327   4.958   1.794
 6793TIP3    H120322   0.346   5.017   1.867
 6793TIP3    H220323   0.413   4.930   1.763
 6794TIP3   OH220324   6.363   3.802   0.126
 6794TIP3    H120325   6.340   3.754   0.205
 6794TIP3    H220326   6.430   3.865   0.155
 6795TIP3   OH220327   6.732   2.208   3.160
 6795TIP3    H120328   6.759   2.134   3.106
 6795TIP3    H220329   6.786   2.281   3.129
 6796TIP3   OH220330   1.210   4.740   1.525
 6796TIP3    H120331   1.290   4.778   1.562
 6796TIP3    H220332   1.239   4.658   1.485
 6797TIP3   OH220333   3.042   5.900   0.099
 6797TIP3    H120334   3.028   5.971   0.161
 6797TIP3    H220335   3.033   5.941   0.013
 6798TIP3   OH220336   8.121   4.278   5.232
 6798TIP3    H120337   8.177   4.244   5.302
 6798TIP3    H220338   8.080   4.356   5.269
 6799TIP3   OH220339   2.940   0.214   0.679
 6799TIP3    H120340   2.898   0.158   0.744
 6799TIP3    H220341   3.022   0.168   0.657
 6800TIP3   OH220342   3.768   0.901   3.252
 6800TIP3    H120343   3.807   0.988   3.252
 6800TIP3    H220344   3.798   0.861   3.170
 6801TIP3   OH220345   0.267   1.907   6.075
 6801TIP3    H120346   0.352   1.867   6.057
 6801TIP3    H220347   0.288   1.997   6.102
 6802TIP3   OH220348   3.502   4.537   1.306
 6802TIP3    H120349   3.587   4.536   1.350
 6802TIP3    H220350   3.517   4.488   1.225
 6803TIP3   OH220351   2.309   2.690   6.414
 6803TIP3    H120352   2.329   2.768   6.465
 6803TIP3    H220353   2.376   2.627   6.439
 6804TIP3   OH220354   0.251   4.782   3.491
 6804TIP3    H120355   0.270   4.875   3.503
 6804TIP3    H220356   0.337   4.741   3.479
 6805TIP3   OH220357   0.942   4.495   6.592
 6805TIP3    H120358   0.980   4.411   6.565
 6805TIP3    H220359   0.961   4.554   6.519
 6806TIP3   OH220360   4.599   7.300   3.400
 6806TIP3    H120361   4.650   7.319   3.321
 6806TIP3    H220362   4.513   7.339   3.382
 6807TIP3   OH220363   1.334   3.302   6.496
 6807TIP3    H120364   1.290   3.219   6.480
 6807TIP3    H220365   1.396   3.284   6.567
 6808TIP3   OH220366   6.296   7.366   4.232
 6808TIP3    H120367   6.242   7.287   4.221
 6808TIP3    H220368   6.376   7.348   4.182
 6809TIP3   OH220369   6.881   1.364   5.723
 6809TIP3    H120370   6.867   1.458   5.717
 6809TIP3    H220371   6.793   1.327   5.729
 6810TIP3   OH220372   1.308   6.349   2.506
 6810TIP3    H120373   1.263   6.348   2.422
 6810TIP3    H220374   1.243   6.383   2.568
 6811TIP3   OH220375   0.299   0.652   3.143
 6811TIP3    H120376   0.282   0.724   3.082
 6811TIP3    H220377   0.393   0.634   3.132
 6812TIP3   OH220378   6.987   1.421   4.869
 6812TIP3    H120379   7.038   1.410   4.949
 6812TIP3    H220380   6.989   1.335   4.827
 6813TIP3   OH220381   5.186   2.393   1.647
 6813TIP3    H120382   5.257   2.457   1.654
 6813TIP3    H220383   5.174   2.380   1.553
 6814TIP3   OH220384   2.579   1.298   2.921
 6814TIP3    H120385   2.645   1.364   2.940
 6814TIP3    H220386   2.628   1.219   2.902
 6815TIP3   OH220387   6.572   1.834   6.002
 6815TIP3    H120388   6.546   1.907   5.945
 6815TIP3    H220389   6.499   1.823   6.062
 6816TIP3   OH220390   3.958   7.684   0.681
 6816TIP3    H120391   3.868   7.666   0.655
 6816TIP3    H220392   3.968   7.641   0.766
 6817TIP3   OH220393   3.849   5.622   5.812
 6817TIP3    H120394   3.839   5.702   5.864
 6817TIP3    H220395   3.761   5.584   5.810
 6818TIP3   OH220396   7.702   6.150   3.002
 6818TIP3    H120397   7.629   6.212   3.005
 6818TIP3    H220398   7.663   6.067   2.977
 6819TIP3   OH220399   6.662   6.012   6.430
 6819TIP3    H120400   6.704   5.984   6.348
 6819TIP3    H220401   6.732   6.053   6.480
 6820TIP3   OH220402   4.050   0.792   5.058
 6820TIP3    H120403   3.974   0.845   5.032
 6820TIP3    H220404   4.096   0.846   5.123
 6821TIP3   OH220405   6.907   5.172   5.902
 6821TIP3    H120406   6.976   5.178   5.969
 6821TIP3    H220407   6.916   5.252   5.851
 6822TIP3   OH220408   8.211   0.075   4.047
 6822TIP3    H120409   8.277   0.033   4.101
 6822TIP3    H220410   8.210   0.166   4.075
 6823TIP3   OH220411   3.977   0.362   2.122
 6823TIP3    H120412   4.032   0.347   2.199
 6823TIP3    H220413   3.941   0.450   2.135
 6824TIP3   OH220414   7.892   1.433   4.970
 6824TIP3    H120415   7.932   1.517   4.995
 6824TIP3    H220416   7.961   1.387   4.923
 6825TIP3   OH220417   1.752   6.272   6.207
 6825TIP3    H120418   1.738   6.248   6.298
 6825TIP3    H220419   1.754   6.188   6.160
 6826TIP3   OH220420   2.753   3.721   5.085
 6826TIP3    H120421   2.774   3.632   5.110
 6826TIP3    H220422   2.710   3.713   5.000
 6827TIP3   OH220423   6.155   5.019   1.022
 6827TIP3    H120424   6.146   5.067   0.940
 6827TIP3    H220425   6.249   5.009   1.034
 6828TIP3   OH220426   7.443   2.509   3.203
 6828TIP3    H120427   7.525   2.459   3.209
 6828TIP3    H220428   7.447   2.570   3.276
 6829TIP3   OH220429   2.040   1.401   0.713
 6829TIP3    H120430   2.061   1.475   0.770
 6829TIP3    H220431   2.117   1.345   0.718
 6830TIP3   OH220432   2.162   5.269   4.637
 6830TIP3    H120433   2.100   5.227   4.697
 6830TIP3    H220434   2.198   5.197   4.585
 6831TIP3   OH220435   0.650   3.576   3.911
 6831TIP3    H120436   0.654   3.624   3.994
 6831TIP3    H220437   0.557   3.565   3.894
 6832TIP3   OH220438   3.599   6.113   5.808
 6832TIP3    H120439   3.644   6.156   5.735
 6832TIP3    H220440   3.506   6.113   5.782
 6833TIP3   OH220441   2.759   4.083   5.784
 6833TIP3    H120442   2.833   4.112   5.838
 6833TIP3    H220443   2.791   4.003   5.742
 6834TIP3   OH220444   1.435  -0.011   5.052
 6834TIP3    H120445   1.507  -0.009   5.115
 6834TIP3    H220446   1.466   0.039   4.977
 6835TIP3   OH220447   4.274   2.397   6.635
 6835TIP3    H120448   4.242   2.419   6.723
 6835TIP3    H220449   4.253   2.474   6.582
 6836TIP3   OH220450   7.350   2.936   1.509
 6836TIP3    H120451   7.311   2.998   1.447
 6836TIP3    H220452   7.385   2.991   1.579
 6837TIP3   OH220453   0.341   2.319   2.114
 6837TIP3    H120454   0.270   2.267   2.077
 6837TIP3    H220455   0.340   2.298   2.208
 6838TIP3   OH220456   1.783   5.618   5.300
 6838TIP3    H120457   1.785   5.575   5.386
 6838TIP3    H220458   1.798   5.710   5.320
 6839TIP3   OH220459   6.766   0.217   4.846
 6839TIP3    H120460   6.736   0.131   4.875
 6839TIP3    H220461   6.776   0.267   4.927
 6840TIP3   OH220462   5.841   3.839   0.428
 6840TIP3    H120463   5.883   3.819   0.345
 6840TIP3    H220464   5.878   3.776   0.490
 6841TIP3   OH220465   1.821   3.818   0.158
 6841TIP3    H120466   1.747   3.877   0.141
 6841TIP3    H220467   1.898   3.871   0.138
 6842TIP3   OH220468   7.692   2.734   4.824
 6842TIP3    H120469   7.687   2.828   4.837
 6842TIP3    H220470   7.669   2.696   4.909
 6843TIP3   OH220471   5.875   6.092   0.442
 6843TIP3    H120472   5.907   6.181   0.428
 6843TIP3    H220473   5.867   6.084   0.537
 6844TIP3   OH220474   4.847   5.666   1.177
 6844TIP3    H120475   4.928   5.660   1.126
 6844TIP3    H220476   4.873   5.708   1.259
 6845TIP3   OH220477   6.969   2.115   0.969
 6845TIP3    H120478   6.925   2.165   1.037
 6845TIP3    H220479   6.906   2.048   0.943
 6846TIP3   OH220480   5.835   7.303   3.359
 6846TIP3    H120481   5.748   7.267   3.341
 6846TIP3    H220482   5.827   7.343   3.445
 6847TIP3   OH220483   8.260   2.767   3.792
 6847TIP3    H120484   8.175   2.809   3.800
 6847TIP3    H220485   8.240   2.673   3.790
 6848TIP3   OH220486   4.342   1.556   4.936
 6848TIP3    H120487   4.295   1.638   4.928
 6848TIP3    H220488   4.408   1.572   5.003
 6849TIP3   OH220489   6.765   6.540   6.298
 6849TIP3    H120490   6.680   6.506   6.326
 6849TIP3    H220491   6.792   6.481   6.228
 6850TIP3   OH220492   2.720   1.741   0.055
 6850TIP3    H120493   2.668   1.684  -0.002
 6850TIP3    H220494   2.811   1.720   0.033
 6851TIP3   OH220495   6.395   6.084   6.375
 6851TIP3    H120496   6.480   6.039   6.370
 6851TIP3    H220497   6.366   6.070   6.465
 6852TIP3   OH220498   2.247   2.173   3.066
 6852TIP3    H120499   2.253   2.242   3.132
 6852TIP3    H220500   2.157   2.142   3.072
 6853TIP3   OH220501   2.647   2.931   2.761
 6853TIP3    H120502   2.579   2.972   2.707
 6853TIP3    H220503   2.600   2.868   2.815
 6854TIP3   OH220504   1.006   6.191   2.698
 6854TIP3    H120505   1.035   6.255   2.763
 6854TIP3    H220506   0.956   6.127   2.749
 6855TIP3   OH220507   0.574   1.834   1.460
 6855TIP3    H120508   0.541   1.778   1.530
 6855TIP3    H220509   0.637   1.891   1.504
 6856TIP3   OH220510   4.460   7.176   0.928
 6856TIP3    H120511   4.471   7.269   0.910
 6856TIP3    H220512   4.494   7.133   0.849
 6857TIP3   OH220513   3.753   7.774   6.033
 6857TIP3    H120514   3.809   7.765   6.110
 6857TIP3    H220515   3.666   7.792   6.068
 6858TIP3   OH220516   5.726   0.328   0.178
 6858TIP3    H120517   5.790   0.398   0.167
 6858TIP3    H220518   5.743   0.268   0.105
 6859TIP3   OH220519   0.525   6.832   4.425
 6859TIP3    H120520   0.456   6.852   4.360
 6859TIP3    H220521   0.541   6.916   4.468
 6860TIP3   OH220522   7.001   5.228   0.168
 6860TIP3    H120523   7.058   5.293   0.128
 6860TIP3    H220524   6.914   5.247   0.134
 6861TIP3   OH220525   8.303   7.668   2.757
 6861TIP3    H120526   8.234   7.631   2.703
 6861TIP3    H220527   8.309   7.760   2.730
 6862TIP3   OH220528   2.404   2.554   3.327
 6862TIP3    H120529   2.437   2.642   3.309
 6862TIP3    H220530   2.468   2.495   3.286
 6863TIP3   OH220531   3.051   4.052   4.215
 6863TIP3    H120532   3.066   4.138   4.175
 6863TIP3    H220533   2.960   4.031   4.192
 6864TIP3   OH220534   8.322   7.412   1.997
 6864TIP3    H120535   8.266   7.357   2.053
 6864TIP3    H220536   8.302   7.384   1.908
 6865TIP3   OH220537   0.298   0.578   6.389
 6865TIP3    H120538   0.373   0.607   6.440
 6865TIP3    H220539   0.224   0.583   6.450
 6866TIP3   OH220540   2.658   2.256   1.004
 6866TIP3    H120541   2.659   2.169   0.964
 6866TIP3    H220542   2.608   2.310   0.942
 6867TIP3   OH220543   3.730   5.080   2.991
 6867TIP3    H120544   3.792   5.019   2.950
 6867TIP3    H220545   3.707   5.038   3.074
 6868TIP3   OH220546   2.388   5.116   1.525
 6868TIP3    H120547   2.426   5.161   1.450
 6868TIP3    H220548   2.355   5.033   1.489
 6869TIP3   OH220549   2.260   3.051   6.437
 6869TIP3    H120550   2.312   2.990   6.490
 6869TIP3    H220551   2.237   3.121   6.497
 6870TIP3   OH220552   6.268   6.160   4.751
 6870TIP3    H120553   6.312   6.158   4.836
 6870TIP3    H220554   6.336   6.139   4.688
 6871TIP3   OH220555   5.335   1.304   1.279
 6871TIP3    H120556   5.347   1.230   1.339
 6871TIP3    H220557   5.345   1.266   1.192
 6872TIP3   OH220558   1.826   6.933   5.315
 6872TIP3    H120559   1.876   6.950   5.395
 6872TIP3    H220560   1.891   6.898   5.254
 6873TIP3   OH220561   1.605   2.112   2.612
 6873TIP3    H120562   1.676   2.122   2.550
 6873TIP3    H220563   1.639   2.053   2.679
 6874TIP3   OH220564   1.763   3.216   3.798
 6874TIP3    H120565   1.814   3.199   3.718
 6874TIP3    H220566   1.715   3.296   3.779
 6875TIP3   OH220567   2.648   4.005   3.222
 6875TIP3    H120568   2.713   4.008   3.151
 6875TIP3    H220569   2.630   4.097   3.240
 6876TIP3   OH220570   7.882   1.480   3.210
 6876TIP3    H120571   7.933   1.462   3.290
 6876TIP3    H220572   7.859   1.573   3.217
 6877TIP3   OH220573   1.617   5.957   6.595
 6877TIP3    H120574   1.541   5.989   6.548
 6877TIP3    H220575   1.589   5.874   6.633
 6878TIP3   OH220576   7.398   4.509   5.706
 6878TIP3    H120577   7.332   4.453   5.665
 6878TIP3    H220578   7.366   4.598   5.693
 6879TIP3   OH220579   5.391   2.980   1.778
 6879TIP3    H120580   5.473   2.964   1.824
 6879TIP3    H220581   5.326   2.990   1.847
 6880TIP3   OH220582   2.327   4.231   4.578
 6880TIP3    H120583   2.352   4.183   4.657
 6880TIP3    H220584   2.259   4.291   4.606
 6881TIP3   OH220585   4.949   0.961   2.921
 6881TIP3    H120586   4.917   1.022   2.988
 6881TIP3    H220587   4.871   0.917   2.889
 6882TIP3   OH220588   3.995   5.937   2.672
 6882TIP3    H120589   4.034   5.941   2.585
 6882TIP3    H220590   4.069   5.950   2.732
 6883TIP3   OH220591   5.004   4.207   5.417
 6883TIP3    H120592   5.080   4.169   5.461
 6883TIP3    H220593   5.036   4.232   5.331
 6884TIP3   OH220594   6.587   3.711   3.399
 6884TIP3    H120595   6.682   3.715   3.409
 6884TIP3    H220596   6.565   3.794   3.356
 6885TIP3   OH220597   0.930   0.143   4.288
 6885TIP3    H120598   0.842   0.114   4.314
 6885TIP3    H220599   0.923   0.159   4.194
 6886TIP3   OH220600   5.160   2.586   1.040
 6886TIP3    H120601   5.219   2.661   1.042
 6886TIP3    H220602   5.134   2.579   0.948
 6887TIP3   OH220603   0.535   5.036   2.413
 6887TIP3    H120604   0.610   5.040   2.353
 6887TIP3    H220605   0.524   5.126   2.444
 6888TIP3   OH220606   5.982   2.423   2.524
 6888TIP3    H120607   5.916   2.490   2.512
 6888TIP3    H220608   5.932   2.344   2.546
 6889TIP3   OH220609   4.375   0.381   0.301
 6889TIP3    H120610   4.389   0.466   0.343
 6889TIP3    H220611   4.455   0.331   0.320
 6890TIP3   OH220612   7.603   0.706   0.077
 6890TIP3    H120613   7.642   0.770   0.136
 6890TIP3    H220614   7.550   0.757   0.017
 6891TIP3   OH220615   0.622   2.305   1.497
 6891TIP3    H120616   0.641   2.215   1.526
 6891TIP3    H220617   0.539   2.298   1.450
 6892TIP3   OH220618   1.653   2.650   3.557
 6892TIP3    H120619   1.635   2.592   3.631
 6892TIP3    H220620   1.733   2.616   3.518
 6893TIP3   OH220621   1.031   4.021   5.880
 6893TIP3    H120622   0.976   4.077   5.825
 6893TIP3    H220623   1.070   3.958   5.819
 6894TIP3   OH220624   6.976   0.852   6.690
 6894TIP3    H120625   6.911   0.836   6.759
 6894TIP3    H220626   7.037   0.779   6.699
 6895TIP3   OH220627   3.310   7.626   3.741
 6895TIP3    H120628   3.378   7.572   3.700
 6895TIP3    H220629   3.237   7.567   3.755
 6896TIP3   OH220630   1.020   0.808   6.658
 6896TIP3    H120631   1.055   0.871   6.595
 6896TIP3    H220632   0.942   0.850   6.694
 6897TIP3   OH220633   5.392   3.706   5.910
 6897TIP3    H120634   5.367   3.755   5.831
 6897TIP3    H220635   5.377   3.768   5.982
 6898TIP3   OH220636   5.761   1.015   0.530
 6898TIP3    H120637   5.746   0.980   0.618
 6898TIP3    H220638   5.837   1.072   0.540
 6899TIP3   OH220639   7.779   3.694   1.776
 6899TIP3    H120640   7.752   3.780   1.808
 6899TIP3    H220641   7.697   3.646   1.766
 6900TIP3   OH220642   0.128   6.460   2.753
 6900TIP3    H120643   0.106   6.530   2.692
 6900TIP3    H220644   0.222   6.446   2.739
 6901TIP3   OH220645   5.140   1.554   3.322
 6901TIP3    H120646   5.214   1.596   3.366
 6901TIP3    H220647   5.070   1.619   3.324
 6902TIP3   OH220648   6.433   3.016   3.261
 6902TIP3    H120649   6.390   3.075   3.322
 6902TIP3    H220650   6.520   3.053   3.249
 6903TIP3   OH220651   8.053   2.490   0.358
 6903TIP3    H120652   8.105   2.460   0.283
 6903TIP3    H220653   8.117   2.528   0.418
 6904TIP3   OH220654   6.143   5.956   4.498
 6904TIP3    H120655   6.074   5.942   4.563
 6904TIP3    H220656   6.104   6.018   4.436
 6905TIP3   OH220657   6.900   3.735   5.085
 6905TIP3    H120658   6.932   3.816   5.045
 6905TIP3    H220659   6.972   3.704   5.138
 6906TIP3   OH220660   0.931   4.437   2.621
 6906TIP3    H120661   1.025   4.436   2.637
 6906TIP3    H220662   0.892   4.427   2.708
 6907TIP3   OH220663   6.467   5.661   5.827
 6907TIP3    H120664   6.376   5.667   5.796
 6907TIP3    H220665   6.477   5.736   5.886
 6908TIP3   OH220666   6.606   1.944   0.641
 6908TIP3    H120667   6.512   1.942   0.658
 6908TIP3    H220668   6.617   2.014   0.577
 6909TIP3   OH220669   7.729   0.562   1.415
 6909TIP3    H120670   7.789   0.502   1.459
 6909TIP3    H220671   7.667   0.589   1.482
 6910TIP3   OH220672   7.680   3.716   5.379
 6910TIP3    H120673   7.697   3.808   5.360
 6910TIP3    H220674   7.761   3.671   5.354
 6911TIP3   OH220675   0.848   1.852   0.151
 6911TIP3    H120676   0.885   1.940   0.141
 6911TIP3    H220677   0.924   1.797   0.173
 6912TIP3   OH220678   6.533   4.222   4.038
 6912TIP3    H120679   6.558   4.218   3.946
 6912TIP3    H220680   6.479   4.143   4.051
 6913TIP3   OH220681   3.218   4.266   1.875
 6913TIP3    H120682   3.173   4.327   1.815
 6913TIP3    H220683   3.300   4.245   1.831
 6914TIP3   OH220684   5.011   0.105   2.769
 6914TIP3    H120685   5.003   0.176   2.706
 6914TIP3    H220686   5.004   0.025   2.717
 6915TIP3   OH220687   0.227   4.210   4.404
 6915TIP3    H120688   0.263   4.274   4.342
 6915TIP3    H220689   0.152   4.255   4.444
 6916TIP3   OH220690   7.981   6.243   3.364
 6916TIP3    H120691   8.074   6.261   3.350
 6916TIP3    H220692   7.966   6.264   3.456
 6917TIP3   OH220693   4.697   7.837   4.414
 6917TIP3    H120694   4.786   7.809   4.436
 6917TIP3    H220695   4.710   7.914   4.359
 6918TIP3   OH220696   7.439   5.924   2.628
 6918TIP3    H120697   7.352   5.953   2.657
 6918TIP3    H220698   7.423   5.838   2.588
 6919TIP3   OH220699   7.811   5.424   4.212
 6919TIP3    H120700   7.840   5.333   4.200
 6919TIP3    H220701   7.851   5.452   4.294
 6920TIP3   OH220702   6.891   6.680   0.644
 6920TIP3    H120703   6.890   6.604   0.703
 6920TIP3    H220704   6.804   6.719   0.654
 6921TIP3   OH220705   7.747   6.174   1.039
 6921TIP3    H120706   7.775   6.211   0.955
 6921TIP3    H220707   7.655   6.150   1.024
 6922TIP3   OH220708   4.599   2.439   5.541
 6922TIP3    H120709   4.631   2.491   5.615
 6922TIP3    H220710   4.676   2.389   5.512
 6923TIP3   OH220711   1.764   7.170   3.627
 6923TIP3    H120712   1.716   7.116   3.690
 6923TIP3    H220713   1.816   7.230   3.681
 6924TIP3   OH220714   7.108   5.449   0.061
 6924TIP3    H120715   7.056   5.527   0.076
 6924TIP3    H220716   7.195   5.472   0.092
 6925TIP3   OH220717   7.747   6.837   4.948
 6925TIP3    H120718   7.751   6.791   5.031
 6925TIP3    H220719   7.824   6.894   4.949
 6926TIP3   OH220720   5.669   6.347   4.079
 6926TIP3    H120721   5.597   6.406   4.058
 6926TIP3    H220722   5.718   6.337   3.998
 6927TIP3   OH220723   6.966   6.611   5.448
 6927TIP3    H120724   6.893   6.633   5.506
 6927TIP3    H220725   6.927   6.558   5.379
 6928TIP3   OH220726   1.092   3.698   0.862
 6928TIP3    H120727   1.153   3.748   0.916
 6928TIP3    H220728   1.069   3.622   0.915
 6929TIP3   OH220729   2.965   7.186   3.982
 6929TIP3    H120730   3.044   7.168   4.032
 6929TIP3    H220731   2.903   7.117   4.009
 6930TIP3   OH220732   0.628   3.531   2.126
 6930TIP3    H120733   0.675   3.614   2.133
 6930TIP3    H220734   0.558   3.548   2.062
 6931TIP3   OH220735   2.716   7.096   6.389
 6931TIP3    H120736   2.735   7.015   6.437
 6931TIP3    H220737   2.707   7.163   6.457
 6932TIP3   OH220738   3.287   1.470   6.795
 6932TIP3    H120739   3.266   1.381   6.769
 6932TIP3    H220740   3.373   1.464   6.835
 6933TIP3   OH220741   7.769   1.460   1.558
 6933TIP3    H120742   7.696   1.418   1.513
 6933TIP3    H220743   7.731   1.495   1.638
 6934TIP3   OH220744   5.976   5.183   1.381
 6934TIP3    H120745   5.896   5.148   1.420
 6934TIP3    H220746   5.956   5.191   1.288
 6935TIP3   OH220747   7.828   6.834   4.215
 6935TIP3    H120748   7.816   6.751   4.169
 6935TIP3    H220749   7.853   6.809   4.303
 6936TIP3   OH220750   5.494   2.979   2.624
 6936TIP3    H120751   5.505   3.022   2.708
 6936TIP3    H220752   5.496   3.050   2.560
 6937TIP3   OH220753   0.094   1.375   2.243
 6937TIP3    H120754   0.098   1.411   2.154
 6937TIP3    H220755   0.186   1.357   2.265
 6938TIP3   OH220756   1.053   4.863   4.960
 6938TIP3    H120757   1.147   4.851   4.954
 6938TIP3    H220758   1.040   4.919   5.036
 6939TIP3   OH220759   2.484   1.015   5.060
 6939TIP3    H120760   2.426   1.090   5.044
 6939TIP3    H220761   2.473   0.960   4.983
 6940TIP3   OH220762   4.958   6.124   2.724
 6940TIP3    H120763   4.992   6.081   2.802
 6940TIP3    H220764   4.933   6.052   2.666
 6941TIP3   OH220765   1.926   5.804   6.043
 6941TIP3    H120766   1.965   5.807   6.130
 6941TIP3    H220767   2.001   5.797   5.984
 6942TIP3   OH220768   6.425   4.522   1.496
 6942TIP3    H120769   6.436   4.496   1.405
 6942TIP3    H220770   6.332   4.508   1.515
 6943TIP3   OH220771   7.549   0.393   0.740
 6943TIP3    H120772   7.509   0.460   0.684
 6943TIP3    H220773   7.477   0.360   0.794
 6944TIP3   OH220774   1.054   7.529   0.339
 6944TIP3    H120775   1.003   7.515   0.259
 6944TIP3    H220776   1.021   7.612   0.374
 6945TIP3   OH220777   3.241   6.541   6.065
 6945TIP3    H120778   3.246   6.597   5.988
 6945TIP3    H220779   3.151   6.550   6.096
 6946TIP3   OH220780   3.334   4.023   4.088
 6946TIP3    H120781   3.249   4.040   4.130
 6946TIP3    H220782   3.328   4.068   4.004
 6947TIP3   OH220783   6.746   5.424   1.949
 6947TIP3    H120784   6.755   5.374   2.031
 6947TIP3    H220785   6.836   5.447   1.925
 6948TIP3   OH220786   1.749   1.945   3.621
 6948TIP3    H120787   1.765   1.956   3.527
 6948TIP3    H220788   1.762   1.852   3.637
 6949TIP3   OH220789   7.846   0.446   6.311
 6949TIP3    H120790   7.895   0.511   6.260
 6949TIP3    H220791   7.840   0.485   6.398
 6950TIP3   OH220792   2.165   6.907   2.358
 6950TIP3    H120793   2.115   6.852   2.420
 6950TIP3    H220794   2.232   6.848   2.323
 6951TIP3   OH220795   6.679   2.180   1.798
 6951TIP3    H120796   6.700   2.269   1.770
 6951TIP3    H220797   6.663   2.188   1.892
 6952TIP3   OH220798   4.924   3.221   0.475
 6952TIP3    H120799   4.845   3.174   0.450
 6952TIP3    H220800   4.973   3.160   0.531
 6953TIP3   OH220801   2.454   1.444   0.180
 6953TIP3    H120802   2.371   1.405   0.207
 6953TIP3    H220803   2.465   1.520   0.237
 6954TIP3   OH220804   5.758   2.963   4.242
 6954TIP3    H120805   5.768   3.021   4.166
 6954TIP3    H220806   5.847   2.937   4.264
 6955TIP3   OH220807   6.148   5.826   4.972
 6955TIP3    H120808   6.186   5.882   5.041
 6955TIP3    H220809   6.148   5.882   4.894
 6956TIP3   OH220810   0.970   7.213   2.969
 6956TIP3    H120811   0.882   7.178   2.952
 6956TIP3    H220812   0.989   7.188   3.059
 6957TIP3   OH220813   0.969   1.149   4.854
 6957TIP3    H120814   1.026   1.072   4.857
 6957TIP3    H220815   1.029   1.222   4.843
 6958TIP3   OH220816   6.098   3.189   2.771
 6958TIP3    H120817   6.010   3.214   2.800
 6958TIP3    H220818   6.142   3.159   2.850
 6959TIP3   OH220819   2.705   2.399   4.810
 6959TIP3    H120820   2.630   2.372   4.758
 6959TIP3    H220821   2.781   2.377   4.756
 6960TIP3   OH220822   5.872   1.261   2.692
 6960TIP3    H120823   5.859   1.292   2.781
 6960TIP3    H220824   5.827   1.177   2.688
 6961TIP3   OH220825   5.466   5.072   0.788
 6961TIP3    H120826   5.414   5.012   0.842
 6961TIP3    H220827   5.534   5.018   0.750
 6962TIP3   OH220828   5.952   2.173   4.197
 6962TIP3    H120829   5.960   2.084   4.231
 6962TIP3    H220830   5.882   2.213   4.249
 6963TIP3   OH220831   1.545   0.120   4.561
 6963TIP3    H120832   1.639   0.103   4.550
 6963TIP3    H220833   1.534   0.211   4.533
 6964TIP3   OH220834   2.099   2.298   4.979
 6964TIP3    H120835   2.129   2.208   4.993
 6964TIP3    H220836   2.016   2.304   5.026
 6965TIP3   OH220837   4.839   1.174   5.636
 6965TIP3    H120838   4.925   1.195   5.601
 6965TIP3    H220839   4.851   1.090   5.682
 6966TIP3   OH220840   2.699   1.433   0.990
 6966TIP3    H120841   2.778   1.417   1.041
 6966TIP3    H220842   2.682   1.349   0.946
 6967TIP3   OH220843   6.886   1.254   0.853
 6967TIP3    H120844   6.962   1.198   0.862
 6967TIP3    H220845   6.894   1.318   0.924
 6968TIP3   OH220846   4.812   5.289   5.684
 6968TIP3    H120847   4.887   5.263   5.739
 6968TIP3    H220848   4.746   5.223   5.701
 6969TIP3   OH220849   2.358   2.828   2.124
 6969TIP3    H120850   2.389   2.919   2.132
 6969TIP3    H220851   2.271   2.829   2.164
 6970TIP3   OH220852   0.106   6.900   0.614
 6970TIP3    H120853   0.182   6.844   0.593
 6970TIP3    H220854   0.095   6.954   0.536
 6971TIP3   OH220855   4.029   3.634   4.437
 6971TIP3    H120856   3.968   3.563   4.416
 6971TIP3    H220857   4.026   3.640   4.533
 6972TIP3   OH220858   5.023   4.719   0.213
 6972TIP3    H120859   4.932   4.745   0.228
 6972TIP3    H220860   5.059   4.705   0.300
 6973TIP3   OH220861   7.770   5.174   2.839
 6973TIP3    H120862   7.686   5.129   2.845
 6973TIP3    H220863   7.764   5.247   2.901
 6974TIP3   OH220864   1.216   6.468   3.967
 6974TIP3    H120865   1.121   6.478   3.965
 6974TIP3    H220866   1.232   6.382   3.928
 6975TIP3   OH220867   1.010   6.637   1.673
 6975TIP3    H120868   1.016   6.732   1.678
 6975TIP3    H220869   1.005   6.609   1.765
 6976TIP3   OH220870   1.977   6.423   4.701
 6976TIP3    H120871   1.894   6.406   4.745
 6976TIP3    H220872   1.995   6.342   4.652
 6977TIP3   OH220873   1.996   0.305   3.401
 6977TIP3    H120874   1.988   0.299   3.306
 6977TIP3    H220875   1.933   0.373   3.426
 6978TIP3   OH220876   2.866   1.723   3.179
 6978TIP3    H120877   2.789   1.668   3.191
 6978TIP3    H220878   2.834   1.812   3.192
 6979TIP3   OH220879   5.838   1.189   1.618
 6979TIP3    H120880   5.870   1.118   1.562
 6979TIP3    H220881   5.827   1.149   1.704
 6980TIP3   OH220882   2.298   6.866   6.404
 6980TIP3    H120883   2.255   6.781   6.408
 6980TIP3    H220884   2.383   6.853   6.447
 6981TIP3   OH220885   1.816   0.731   2.965
 6981TIP3    H120886   1.744   0.767   2.913
 6981TIP3    H220887   1.819   0.786   3.044
 6982TIP3   OH220888   4.875   6.085   5.847
 6982TIP3    H120889   4.831   6.138   5.781
 6982TIP3    H220890   4.945   6.142   5.880
 6983TIP3   OH220891   2.562   2.178   0.636
 6983TIP3    H120892   2.644   2.213   0.672
 6983TIP3    H220893   2.494   2.208   0.697
 6984TIP3   OH220894   2.118   1.604   6.288
 6984TIP3    H120895   2.156   1.539   6.348
 6984TIP3    H220896   2.191   1.663   6.268
 6985TIP3   OH220897   0.558   4.358   0.945
 6985TIP3    H120898   0.562   4.447   0.908
 6985TIP3    H220899   0.562   4.372   1.040
 6986TIP3   OH220900   0.617   0.139   2.245
 6986TIP3    H120901   0.681   0.106   2.182
 6986TIP3    H220902   0.575   0.061   2.280
 6987TIP3   OH220903   4.968   5.920   2.940
 6987TIP3    H120904   4.958   5.846   3.001
 6987TIP3    H220905   5.055   5.908   2.902
 6988TIP3   OH220906   5.145   2.559   3.471
 6988TIP3    H120907   5.155   2.478   3.421
 6988TIP3    H220908   5.157   2.629   3.407
 6989TIP3   OH220909   2.024   0.695   3.538
 6989TIP3    H120910   2.084   0.684   3.464
 6989TIP3    H220911   1.981   0.779   3.521
 6990TIP3   OH220912   8.252   0.340   4.237
 6990TIP3    H120913   8.308   0.417   4.244
 6990TIP3    H220914   8.263   0.294   4.321
 6991TIP3   OH220915   5.685   3.491   4.311
 6991TIP3    H120916   5.629   3.423   4.274
 6991TIP3    H220917   5.727   3.531   4.235
 6992TIP3   OH220918   3.709   7.828   4.656
 6992TIP3    H120919   3.659   7.789   4.728
 6992TIP3    H220920   3.643   7.856   4.593
 6993TIP3   OH220921   6.226   0.905   3.320
 6993TIP3    H120922   6.198   0.955   3.243
 6993TIP3    H220923   6.302   0.952   3.353
 6994TIP3   OH220924   4.137   0.480   5.566
 6994TIP3    H120925   4.192   0.556   5.582
 6994TIP3    H220926   4.193   0.405   5.584
 6995TIP3   OH220927   6.379   1.329   2.229
 6995TIP3    H120928   6.330   1.319   2.311
 6995TIP3    H220929   6.468   1.300   2.251
 6996TIP3   OH220930   1.160   6.716   1.181
 6996TIP3    H120931   1.127   6.686   1.265
 6996TIP3    H220932   1.139   6.646   1.120
 6997TIP3   OH220933   2.992   6.019   5.299
 6997TIP3    H120934   3.000   6.106   5.338
 6997TIP3    H220935   2.914   5.981   5.341
 6998TIP3   OH220936   3.965   1.508   5.127
 6998TIP3    H120937   4.035   1.444   5.138
 6998TIP3    H220938   3.886   1.455   5.116
 6999TIP3   OH220939   5.567   4.114   3.801
 6999TIP3    H120940   5.572   4.020   3.784
 6999TIP3    H220941   5.604   4.155   3.723
 7000TIP3   OH220942   3.436   3.572   4.975
 7000TIP3    H120943   3.355   3.614   4.948
 7000TIP3    H220944   3.486   3.561   4.894
 7001TIP3   OH220945   5.124   1.603   6.142
 7001TIP3    H120946   5.042   1.553   6.135
 7001TIP3    H220947   5.192   1.536   6.147
 7002TIP3   OH220948   7.761   7.270   5.100
 7002TIP3    H120949   7.720   7.233   5.022
 7002TIP3    H220950   7.708   7.347   5.121
 7003TIP3   OH220951   3.519   0.838   3.395
 7003TIP3    H120952   3.535   0.810   3.486
 7003TIP3    H220953   3.607   0.856   3.360
 7004TIP3   OH220954   0.348   4.474   0.546
 7004TIP3    H120955   0.330   4.396   0.493
 7004TIP3    H220956   0.371   4.440   0.632
 7005TIP3   OH220957   1.136   5.537   4.219
 7005TIP3    H120958   1.082   5.468   4.257
 7005TIP3    H220959   1.115   5.615   4.270
 7006TIP3   OH220960   1.465   3.474   5.101
 7006TIP3    H120961   1.421   3.446   5.181
 7006TIP3    H220962   1.416   3.430   5.031
 7007TIP3   OH220963   5.200   4.054   1.267
 7007TIP3    H120964   5.223   4.102   1.188
 7007TIP3    H220965   5.205   3.962   1.242
 7008TIP3   OH220966   2.828   0.835   0.878
 7008TIP3    H120967   2.735   0.824   0.895
 7008TIP3    H220968   2.832   0.894   0.802
 7009TIP3   OH220969   5.640   2.892   5.594
 7009TIP3    H120970   5.565   2.838   5.616
 7009TIP3    H220971   5.663   2.936   5.676
 7010TIP3   OH220972   3.006   2.466   2.599
 7010TIP3    H120973   2.937   2.402   2.588
 7010TIP3    H220974   3.046   2.475   2.513
 7011TIP3   OH220975   4.917   3.603   2.446
 7011TIP3    H120976   4.849   3.665   2.421
 7011TIP3    H220977   4.906   3.591   2.541
 7012TIP3   OH220978   1.510   5.013   5.801
 7012TIP3    H120979   1.510   5.066   5.721
 7012TIP3    H220980   1.428   4.963   5.796
 7013TIP3   OH220981   5.607   2.889   1.914
 7013TIP3    H120982   5.680   2.833   1.887
 7013TIP3    H220983   5.581   2.854   1.999
 7014TIP3   OH220984   1.087   5.848   3.705
 7014TIP3    H120985   1.034   5.791   3.760
 7014TIP3    H220986   1.178   5.824   3.724
 7015TIP3   OH220987   0.656   1.105   2.013
 7015TIP3    H120988   0.690   1.065   2.093
 7015TIP3    H220989   0.731   1.150   1.975
 7016TIP3   OH220990   3.954   1.422   2.564
 7016TIP3    H120991   4.019   1.491   2.576
 7016TIP3    H220992   3.988   1.369   2.492
 7017TIP3   OH220993   7.309   7.134   2.748
 7017TIP3    H120994   7.224   7.092   2.763
 7017TIP3    H220995   7.352   7.131   2.834
 7018TIP3   OH220996   8.028   4.595   6.705
 7018TIP3    H120997   7.975   4.525   6.667
 7018TIP3    H220998   7.971   4.637   6.768
 7019TIP3   OH220999   7.916   2.712   5.900
 7019TIP3    H121000   7.891   2.700   5.808
 7019TIP3    H221001   7.858   2.781   5.931
 7020TIP3   OH221002   7.119   6.658   4.398
 7020TIP3    H121003   7.212   6.638   4.412
 7020TIP3    H221004   7.100   6.625   4.310
 7021TIP3   OH221005   6.972   4.555   0.172
 7021TIP3    H121006   7.065   4.540   0.188
 7021TIP3    H221007   6.957   4.522   0.083
 7022TIP3   OH221008   7.552   0.579   5.077
 7022TIP3    H121009   7.639   0.612   5.098
 7022TIP3    H221010   7.562   0.539   4.991
 7023TIP3   OH221011   4.992   3.677   5.880
 7023TIP3    H121012   4.971   3.584   5.884
 7023TIP3    H221013   5.006   3.702   5.971
 7024TIP3   OH221014   6.304   2.069   0.461
 7024TIP3    H121015   6.221   2.083   0.417
 7024TIP3    H221016   6.282   2.018   0.539
 7025TIP3   OH221017   7.517   4.170   5.990
 7025TIP3    H121018   7.424   4.156   5.971
 7025TIP3    H221019   7.557   4.083   5.980
 7026TIP3   OH221020   0.421   1.388   2.284
 7026TIP3    H121021   0.423   1.374   2.189
 7026TIP3    H221022   0.471   1.469   2.297
 7027TIP3   OH221023   1.314   2.757   1.658
 7027TIP3    H121024   1.342   2.669   1.633
 7027TIP3    H221025   1.218   2.753   1.655
 7028TIP3   OH221026   4.373   4.365   5.045
 7028TIP3    H121027   4.435   4.438   5.048
 7028TIP3    H221028   4.331   4.372   4.959
 7029TIP3   OH221029   5.403   1.646   3.105
 7029TIP3    H121030   5.321   1.664   3.059
 7029TIP3    H221031   5.458   1.722   3.085
 7030TIP3   OH221032   1.037   2.809   1.569
 7030TIP3    H121033   1.083   2.891   1.589
 7030TIP3    H221034   1.073   2.781   1.485
 7031TIP3   OH221035   5.510   5.463   1.099
 7031TIP3    H121036   5.494   5.429   1.187
 7031TIP3    H221037   5.439   5.426   1.045
 7032TIP3   OH221038   3.212   7.387   1.445
 7032TIP3    H121039   3.214   7.428   1.358
 7032TIP3    H221040   3.303   7.367   1.464
 7033TIP3   OH221041   3.999   2.909   2.328
 7033TIP3    H121042   3.927   2.972   2.333
 7033TIP3    H221043   4.078   2.961   2.344
 7034TIP3   OH221044   8.071   6.872   5.456
 7034TIP3    H121045   7.986   6.843   5.425
 7034TIP3    H221046   8.132   6.843   5.388
 7035TIP3   OH221047   1.695   5.501   1.251
 7035TIP3    H121048   1.786   5.478   1.233
 7035TIP3    H221049   1.667   5.439   1.319
 7036TIP3   OH221050   5.559   4.846   0.445
 7036TIP3    H121051   5.493   4.908   0.416
 7036TIP3    H221052   5.578   4.871   0.536
 7037TIP3   OH221053   7.881   1.219   3.195
 7037TIP3    H121054   7.915   1.235   3.283
 7037TIP3    H221055   7.875   1.306   3.156
 7038TIP3   OH221056   6.662   5.597   5.651
 7038TIP3    H121057   6.574   5.589   5.688
 7038TIP3    H221058   6.709   5.655   5.712
 7039TIP3   OH221059   3.089   5.436   3.133
 7039TIP3    H121060   3.070   5.527   3.111
 7039TIP3    H221061   3.008   5.389   3.115
 7040TIP3   OH221062   6.954   6.677   5.882
 7040TIP3    H121063   7.035   6.648   5.839
 7040TIP3    H221064   6.903   6.597   5.894
 7041TIP3   OH221065   3.838   5.126   1.784
 7041TIP3    H121066   3.821   5.043   1.828
 7041TIP3    H221067   3.883   5.179   1.849
 7042TIP3   OH221068   4.848   5.989   1.011
 7042TIP3    H121069   4.851   6.076   1.050
 7042TIP3    H221070   4.763   5.954   1.038
 7043TIP3   OH221071   7.523   2.008   6.722
 7043TIP3    H121072   7.564   2.001   6.636
 7043TIP3    H221073   7.512   1.917   6.751
 7044TIP3   OH221074   1.157   6.867   4.310
 7044TIP3    H121075   1.243   6.880   4.270
 7044TIP3    H221076   1.115   6.800   4.256
 7045TIP3   OH221077   0.535   4.758   5.183
 7045TIP3    H121078   0.560   4.839   5.139
 7045TIP3    H221079   0.595   4.751   5.257
 7046TIP3   OH221080   5.833   7.762   3.108
 7046TIP3    H121081   5.925   7.789   3.105
 7046TIP3    H221082   5.822   7.727   3.197
 7047TIP3   OH221083   1.370   6.511   6.022
 7047TIP3    H121084   1.291   6.470   5.986
 7047TIP3    H221085   1.389   6.462   6.101
 7048TIP3   OH221086   0.621   7.446   6.235
 7048TIP3    H121087   0.560   7.401   6.177
 7048TIP3    H221088   0.580   7.530   6.253
 7049TIP3   OH221089   7.523   0.372   3.030
 7049TIP3    H121090   7.434   0.370   3.066
 7049TIP3    H221091   7.511   0.357   2.936
 7050TIP3   OH221092   5.056   6.138   0.626
 7050TIP3    H121093   5.137   6.125   0.676
 7050TIP3    H221094   4.987   6.144   0.693
 7051TIP3   OH221095   0.882   7.810   2.741
 7051TIP3    H121096   0.911   7.852   2.660
 7051TIP3    H221097   0.829   7.876   2.785
 7052TIP3   OH221098   7.170   0.560   1.056
 7052TIP3    H121099   7.240   0.611   1.096
 7052TIP3    H221100   7.140   0.501   1.126
 7053TIP3   OH221101   1.420   5.438   1.614
 7053TIP3    H121102   1.351   5.427   1.549
 7053TIP3    H221103   1.414   5.359   1.668
 7054TIP3   OH221104   2.365   1.206   3.409
 7054TIP3    H121105   2.428   1.216   3.338
 7054TIP3    H221106   2.280   1.217   3.368
 7055TIP3   OH221107   4.461   4.625   0.544
 7055TIP3    H121108   4.541   4.659   0.503
 7055TIP3    H221109   4.492   4.562   0.609
 7056TIP3   OH221110   0.055   2.533   1.085
 7056TIP3    H121111   0.044   2.577   1.000
 7056TIP3    H221112   0.004   2.453   1.077
 7057TIP3   OH221113   1.266   5.143   3.157
 7057TIP3    H121114   1.184   5.179   3.191
 7057TIP3    H221115   1.240   5.090   3.082
 7058TIP3   OH221116   7.585   6.781   2.714
 7058TIP3    H121117   7.553   6.764   2.625
 7058TIP3    H221118   7.680   6.772   2.707
 7059TIP3   OH221119   1.209   5.116   5.070
 7059TIP3    H121120   1.245   5.059   5.137
 7059TIP3    H221121   1.202   5.202   5.112
 7060TIP3   OH221122   2.871   1.612   6.662
 7060TIP3    H121123   2.799   1.569   6.617
 7060TIP3    H221124   2.909   1.543   6.717
 7061TIP3   OH221125   6.497   2.253   0.558
 7061TIP3    H121126   6.448   2.282   0.635
 7061TIP3    H221127   6.441   2.185   0.519
 7062TIP3   OH221128   1.500   5.270   2.569
 7062TIP3    H121129   1.455   5.202   2.620
 7062TIP3    H221130   1.501   5.235   2.480
 7063TIP3   OH221131   4.080   7.583   4.316
 7063TIP3    H121132   4.023   7.537   4.378
 7063TIP3    H221133   4.037   7.571   4.231
 7064TIP3   OH221134   0.178   1.718   4.225
 7064TIP3    H121135   0.176   1.642   4.283
 7064TIP3    H221136   0.088   1.730   4.197
 7065TIP3   OH221137   4.113   2.704   1.855
 7065TIP3    H121138   4.159   2.638   1.803
 7065TIP3    H221139   4.176   2.775   1.865
 7066TIP3   OH221140   7.322   0.346   0.212
 7066TIP3    H121141   7.331   0.255   0.241
 7066TIP3    H221142   7.244   0.378   0.257
 7067TIP3   OH221143   4.119   0.460   6.025
 7067TIP3    H121144   4.040   0.496   6.064
 7067TIP3    H221145   4.106   0.365   6.028
 7068TIP3   OH221146   4.082   5.979   6.427
 7068TIP3    H121147   4.063   6.072   6.421
 7068TIP3    H221148   4.115   5.967   6.516
 7069TIP3   OH221149   6.807   6.239   5.692
 7069TIP3    H121150   6.888   6.197   5.662
 7069TIP3    H221151   6.756   6.254   5.613
 7070TIP3   OH221152   2.892   6.161   2.466
 7070TIP3    H121153   2.827   6.090   2.458
 7070TIP3    H221154   2.975   6.115   2.480
 7071TIP3   OH221155   0.602   3.817   0.299
 7071TIP3    H121156   0.614   3.890   0.359
 7071TIP3    H221157   0.509   3.821   0.276
 7072TIP3   OH221158   4.235   4.866   5.657
 7072TIP3    H121159   4.218   4.953   5.622
 7072TIP3    H221160   4.216   4.873   5.751
 7073TIP3   OH221161   4.789   0.128   0.504
 7073TIP3    H121162   4.862   0.082   0.545
 7073TIP3    H221163   4.797   0.218   0.536
 7074TIP3   OH221164   6.471   6.745   4.062
 7074TIP3    H121165   6.396   6.764   4.119
 7074TIP3    H221166   6.534   6.702   4.120
 7075TIP3   OH221167   3.999   7.253   5.381
 7075TIP3    H121168   4.013   7.233   5.474
 7075TIP3    H221169   3.934   7.323   5.382
 7076TIP3   OH221170   4.707   2.205   3.756
 7076TIP3    H121171   4.653   2.268   3.709
 7076TIP3    H221172   4.674   2.119   3.727
 7077TIP3   OH221173   2.729   3.494   1.065
 7077TIP3    H121174   2.686   3.446   0.994
 7077TIP3    H221175   2.820   3.499   1.039
 7078TIP3   OH221176   7.925   4.829   4.741
 7078TIP3    H121177   8.014   4.801   4.758
 7078TIP3    H221178   7.870   4.761   4.780
 7079TIP3   OH221179   6.815   7.564   3.979
 7079TIP3    H121180   6.879   7.633   3.994
 7079TIP3    H221181   6.731   7.610   3.978
 7080TIP3   OH221182   3.118   4.224   3.565
 7080TIP3    H121183   3.201   4.271   3.568
 7080TIP3    H221184   3.143   4.132   3.561
 7081TIP3   OH221185   1.999   2.412   3.729
 7081TIP3    H121186   2.068   2.438   3.790
 7081TIP3    H221187   1.945   2.350   3.779
 7082TIP3   OH221188   7.663   1.217   0.127
 7082TIP3    H121189   7.749   1.189   0.157
 7082TIP3    H221190   7.625   1.262   0.202
 7083TIP3   OH221191   2.959   3.179   5.960
 7083TIP3    H121192   2.891   3.113   5.975
 7083TIP3    H221193   3.037   3.143   6.003
 7084TIP3   OH221194   2.361   3.200   0.202
 7084TIP3    H121195   2.450   3.181   0.231
 7084TIP3    H221196   2.371   3.264   0.132
 7085TIP3   OH221197   0.312   4.114   6.012
 7085TIP3    H121198   0.269   4.164   5.942
 7085TIP3    H221199   0.277   4.026   6.004
 7086TIP3   OH221200   5.684   6.621   3.943
 7086TIP3    H121201   5.655   6.709   3.967
 7086TIP3    H221202   5.639   6.603   3.860
 7087TIP3   OH221203   8.089   2.119   2.962
 7087TIP3    H121204   8.076   2.152   2.874
 7087TIP3    H221205   8.029   2.044   2.969
 7088TIP3   OH221206   6.570   2.901   6.440
 7088TIP3    H121207   6.545   2.810   6.460
 7088TIP3    H221208   6.512   2.954   6.495
 7089TIP3   OH221209   8.165   7.121   4.078
 7089TIP3    H121210   8.092   7.081   4.032
 7089TIP3    H221211   8.184   7.201   4.029
 7090TIP3   OH221212   3.216   4.544   6.197
 7090TIP3    H121213   3.296   4.593   6.210
 7090TIP3    H221214   3.188   4.567   6.108
 7091TIP3   OH221215   1.766   1.128   2.742
 7091TIP3    H121216   1.824   1.060   2.710
 7091TIP3    H221217   1.683   1.083   2.759
 7092TIP3   OH221218   8.214   1.186   3.803
 7092TIP3    H121219   8.121   1.186   3.826
 7092TIP3    H221220   8.224   1.261   3.745
 7093TIP3   OH221221   4.284   0.810   3.454
 7093TIP3    H121222   4.224   0.821   3.382
 7093TIP3    H221223   4.371   0.814   3.414
 7094TIP3   OH221224   0.488   6.621   6.074
 7094TIP3    H121225   0.408   6.573   6.096
 7094TIP3    H221226   0.518   6.582   5.992
 7095TIP3   OH221227   1.861   2.578   6.164
 7095TIP3    H121228   1.818   2.614   6.086
 7095TIP3    H221229   1.872   2.653   6.222
 7096TIP3   OH221230   2.541   1.439   4.046
 7096TIP3    H121231   2.598   1.486   3.985
 7096TIP3    H221232   2.578   1.458   4.132
 7097TIP3   OH221233   4.765   3.092   0.790
 7097TIP3    H121234   4.682   3.087   0.742
 7097TIP3    H221235   4.738   3.105   0.881
 7098TIP3   OH221236   5.532   0.696   5.925
 7098TIP3    H121237   5.594   0.656   5.986
 7098TIP3    H221238   5.568   0.783   5.907
 7099TIP3   OH221239   1.446   6.444   5.775
 7099TIP3    H121240   1.504   6.374   5.805
 7099TIP3    H221241   1.419   6.488   5.856
 7100TIP3   OH221242   5.893   7.506   1.468
 7100TIP3    H121243   5.948   7.579   1.440
 7100TIP3    H221244   5.945   7.460   1.533
 7101TIP3   OH221245   5.559   0.224   0.369
 7101TIP3    H121246   5.644   0.236   0.325
 7101TIP3    H221247   5.506   0.298   0.340
 7102TIP3   OH221248   7.567   3.588   0.292
 7102TIP3    H121249   7.647   3.597   0.239
 7102TIP3    H221250   7.526   3.508   0.259
 7103TIP3   OH221251   2.256   7.093   4.874
 7103TIP3    H121252   2.344   7.125   4.851
 7103TIP3    H221253   2.267   7.050   4.958
 7104TIP3   OH221254   3.862   7.513   6.022
 7104TIP3    H121255   3.888   7.555   6.104
 7104TIP3    H221256   3.769   7.533   6.013
 7105TIP3   OH221257   7.595   1.944   2.503
 7105TIP3    H121258   7.660   1.978   2.564
 7105TIP3    H221259   7.534   2.016   2.490
 7106TIP3   OH221260   6.474   2.198   4.400
 7106TIP3    H121261   6.544   2.260   4.380
 7106TIP3    H221262   6.520   2.114   4.414
 7107TIP3   OH221263   4.098   5.951   6.154
 7107TIP3    H121264   4.069   5.952   6.245
 7107TIP3    H221265   4.182   5.904   6.155
 7108TIP3   OH221266   1.922   4.273   2.644
 7108TIP3    H121267   1.930   4.214   2.568
 7108TIP3    H221268   1.955   4.357   2.612
 7109TIP3   OH221269   5.312   5.671   0.223
 7109TIP3    H121270   5.371   5.607   0.183
 7109TIP3    H221271   5.226   5.650   0.187
 7110TIP3   OH221272   7.250   1.382   0.850
 7110TIP3    H121273   7.193   1.432   0.792
 7110TIP3    H221274   7.223   1.291   0.836
 7111TIP3   OH221275   2.889   1.053   0.142
 7111TIP3    H121276   2.911   1.101   0.062
 7111TIP3    H221277   2.813   1.000   0.118
 7112TIP3   OH221278   3.652   1.553   3.656
 7112TIP3    H121279   3.630   1.469   3.616
 7112TIP3    H221280   3.609   1.618   3.601
 7113TIP3   OH221281   3.789   5.571   2.005
 7113TIP3    H121282   3.734   5.556   1.928
 7113TIP3    H221283   3.786   5.666   2.019
 7114TIP3   OH221284   8.139   6.822   1.618
 7114TIP3    H121285   8.067   6.864   1.571
 7114TIP3    H221286   8.190   6.779   1.549
 7115TIP3   OH221287   6.081   2.131   1.977
 7115TIP3    H121288   6.115   2.218   1.996
 7115TIP3    H221289   6.139   2.071   2.025
 7116TIP3   OH221290   1.256   6.517   6.410
 7116TIP3    H121291   1.216   6.492   6.327
 7116TIP3    H221292   1.263   6.613   6.406
 7117TIP3   OH221293   4.606   3.028   3.568
 7117TIP3    H121294   4.693   3.025   3.527
 7117TIP3    H221295   4.619   2.992   3.655
 7118TIP3   OH221296   7.619   0.633   3.609
 7118TIP3    H121297   7.693   0.655   3.552
 7118TIP3    H221298   7.630   0.539   3.626
 7119TIP3   OH221299   3.171   6.052   2.403
 7119TIP3    H121300   3.207   6.066   2.315
 7119TIP3    H221301   3.239   6.003   2.449
 7120TIP3   OH221302   0.179   6.294   3.534
 7120TIP3    H121303   0.161   6.222   3.595
 7120TIP3    H221304   0.147   6.262   3.450
 7121TIP3   OH221305   3.763   2.920   1.301
 7121TIP3    H121306   3.814   2.968   1.235
 7121TIP3    H221307   3.801   2.947   1.385
 7122TIP3   OH221308   2.544   1.238   0.579
 7122TIP3    H121309   2.535   1.162   0.521
 7122TIP3    H221310   2.633   1.270   0.564
 7123TIP3   OH221311   6.752   2.330   2.339
 7123TIP3    H121312   6.673   2.317   2.392
 7123TIP3    H221313   6.768   2.425   2.343
 7124TIP3   OH221314   5.855   1.878   1.560
 7124TIP3    H121315   5.934   1.836   1.526
 7124TIP3    H221316   5.848   1.959   1.510
 7125TIP3   OH221317   3.207   2.766   0.286
 7125TIP3    H121318   3.130   2.717   0.256
 7125TIP3    H221319   3.281   2.722   0.245
 7126TIP3   OH221320   4.103   0.331   4.844
 7126TIP3    H121321   4.073   0.398   4.906
 7126TIP3    H221322   4.133   0.259   4.900
 7127TIP3   OH221323   3.412   4.304   3.973
 7127TIP3    H121324   3.480   4.286   4.038
 7127TIP3    H221325   3.333   4.319   4.025
 7128TIP3   OH221326   4.308   6.084   5.646
 7128TIP3    H121327   4.325   6.076   5.740
 7128TIP3    H221328   4.213   6.094   5.640
 7129TIP3   OH221329   5.620   1.500   2.254
 7129TIP3    H121330   5.713   1.525   2.260
 7129TIP3    H221331   5.618   1.434   2.185
 7130TIP3   OH221332   7.181   5.678   2.165
 7130TIP3    H121333   7.161   5.601   2.111
 7130TIP3    H221334   7.190   5.749   2.102
 7131TIP3   OH221335   2.277   5.055   3.418
 7131TIP3    H121336   2.292   5.132   3.472
 7131TIP3    H221337   2.199   5.076   3.367
 7132TIP3   OH221338   4.549   3.540   0.667
 7132TIP3    H121339   4.540   3.472   0.600
 7132TIP3    H221340   4.638   3.528   0.701
 7133TIP3   OH221341   7.975   3.690   1.330
 7133TIP3    H121342   8.063   3.728   1.334
 7133TIP3    H221343   7.987   3.606   1.284
 7134TIP3   OH221344   5.435   1.493   3.357
 7134TIP3    H121345   5.528   1.472   3.349
 7134TIP3    H221346   5.413   1.538   3.276
 7135TIP3   OH221347   2.219   2.447   1.107
 7135TIP3    H121348   2.304   2.407   1.125
 7135TIP3    H221349   2.156   2.375   1.121
 7136TIP3   OH221350   8.024   3.808   6.071
 7136TIP3    H121351   8.070   3.765   6.143
 7136TIP3    H221352   8.077   3.885   6.050
 7137TIP3   OH221353   7.969   4.850   4.099
 7137TIP3    H121354   7.973   4.886   4.188
 7137TIP3    H221355   7.882   4.811   4.093
 7138TIP3   OH221356   6.782   4.235   5.393
 7138TIP3    H121357   6.732   4.238   5.312
 7138TIP3    H221358   6.858   4.182   5.373
 7139TIP3   OH221359   1.176   5.106   3.554
 7139TIP3    H121360   1.181   5.095   3.649
 7139TIP3    H221361   1.261   5.078   3.522
 7140TIP3   OH221362   6.100   6.185   3.223
 7140TIP3    H121363   6.095   6.257   3.286
 7140TIP3    H221364   6.026   6.200   3.164
 7141TIP3   OH221365   5.633   4.595   5.801
 7141TIP3    H121366   5.540   4.604   5.781
 7141TIP3    H221367   5.636   4.528   5.869
 7142TIP3   OH221368   5.017   4.041   1.457
 7142TIP3    H121369   4.942   4.031   1.398
 7142TIP3    H221370   5.094   4.037   1.400
 7143TIP3   OH221371   1.820   0.599   5.398
 7143TIP3    H121372   1.906   0.585   5.437
 7143TIP3    H221373   1.768   0.524   5.428
 7144TIP3   OH221374   2.507   3.513   4.619
 7144TIP3    H121375   2.538   3.443   4.675
 7144TIP3    H221376   2.476   3.469   4.539
 7145TIP3   OH221377   6.157   4.596   3.283
 7145TIP3    H121378   6.191   4.564   3.200
 7145TIP3    H221379   6.216   4.561   3.349
 7146TIP3   OH221380   1.850   6.724   0.490
 7146TIP3    H121381   1.882   6.766   0.569
 7146TIP3    H221382   1.781   6.783   0.458
 7147TIP3   OH221383   1.649   2.855   4.598
 7147TIP3    H121384   1.724   2.889   4.549
 7147TIP3    H221385   1.628   2.772   4.555
 7148TIP3   OH221386   0.543   0.848   1.573
 7148TIP3    H121387   0.618   0.789   1.587
 7148TIP3    H221388   0.574   0.909   1.506
 7149TIP3   OH221389   7.140   2.955   3.512
 7149TIP3    H121390   7.226   2.966   3.472
 7149TIP3    H221391   7.157   2.955   3.606
 7150TIP3   OH221392   2.910   0.405   5.870
 7150TIP3    H121393   2.898   0.314   5.895
 7150TIP3    H221394   2.871   0.412   5.783
 7151TIP3   OH221395   0.266   1.590   6.659
 7151TIP3    H121396   0.348   1.634   6.635
 7151TIP3    H221397   0.244   1.626   6.745
 7152TIP3   OH221398   5.630   5.475   2.576
 7152TIP3    H121399   5.670   5.490   2.662
 7152TIP3    H221400   5.694   5.423   2.528
 7153TIP3   OH221401   6.719   6.677   5.547
 7153TIP3    H121402   6.689   6.698   5.636
 7153TIP3    H221403   6.659   6.723   5.490
 7154TIP3   OH221404   7.792   4.533   3.878
 7154TIP3    H121405   7.860   4.565   3.819
 7154TIP3    H221406   7.772   4.445   3.846
 7155TIP3   OH221407   2.889   5.297   2.427
 7155TIP3    H121408   2.981   5.302   2.402
 7155TIP3    H221409   2.880   5.357   2.501
 7156TIP3   OH221410   2.618   0.899   2.304
 7156TIP3    H121411   2.668   0.819   2.321
 7156TIP3    H221412   2.574   0.918   2.387
 7157TIP3   OH221413   1.687   6.066   1.261
 7157TIP3    H121414   1.711   6.110   1.342
 7157TIP3    H221415   1.770   6.042   1.221
 7158TIP3   OH221416   3.786   2.140   6.300
 7158TIP3    H121417   3.750   2.112   6.384
 7158TIP3    H221418   3.876   2.168   6.321
 7159TIP3   OH221419   5.033   4.223   2.976
 7159TIP3    H121420   5.028   4.159   3.046
 7159TIP3    H221421   5.099   4.189   2.916
 7160TIP3   OH221422   2.056   1.337   4.968
 7160TIP3    H121423   1.970   1.345   4.927
 7160TIP3    H221424   2.046   1.378   5.054
 7161TIP3   OH221425   6.408   1.225   5.097
 7161TIP3    H121426   6.430   1.134   5.075
 7161TIP3    H221427   6.398   1.268   5.012
 7162TIP3   OH221428   1.364   0.958   5.471
 7162TIP3    H121429   1.399   0.880   5.516
 7162TIP3    H221430   1.323   0.923   5.392
 7163TIP3   OH221431   2.385   1.501   1.357
 7163TIP3    H121432   2.458   1.441   1.338
 7163TIP3    H221433   2.314   1.470   1.301
 7164TIP3   OH221434   7.828   1.990   3.793
 7164TIP3    H121435   7.889   1.941   3.848
 7164TIP3    H221436   7.818   2.074   3.838
 7165TIP3   OH221437   1.513   2.435   4.028
 7165TIP3    H121438   1.498   2.341   4.025
 7165TIP3    H221439   1.439   2.472   3.981
 7166TIP3   OH221440   7.606   5.863   6.371
 7166TIP3    H121441   7.597   5.941   6.316
 7166TIP3    H221442   7.579   5.892   6.458
 7167TIP3   OH221443   6.215   4.773   2.538
 7167TIP3    H121444   6.218   4.714   2.613
 7167TIP3    H221445   6.149   4.839   2.562
 7168TIP3   OH221446   3.175   6.728   0.801
 7168TIP3    H121447   3.201   6.652   0.853
 7168TIP3    H221448   3.238   6.732   0.730
 7169TIP3   OH221449   2.062   2.104   0.032
 7169TIP3    H121450   2.148   2.070   0.059
 7169TIP3    H221451   2.000   2.059   0.089
 7170TIP3   OH221452   3.391   5.471   6.043
 7170TIP3    H121453   3.375   5.547   6.098
 7170TIP3    H221454   3.362   5.497   5.956
 7171TIP3   OH221455   2.423   3.104   2.074
 7171TIP3    H121456   2.473   3.171   2.028
 7171TIP3    H221457   2.331   3.131   2.062
 7172TIP3   OH221458   6.113   0.467   4.409
 7172TIP3    H121459   6.190   0.416   4.435
 7172TIP3    H221460   6.067   0.411   4.347
 7173TIP3   OH221461   4.947   4.301   1.575
 7173TIP3    H121462   4.981   4.357   1.505
 7173TIP3    H221463   4.986   4.215   1.559
 7174TIP3   OH221464   3.605   1.973   3.088
 7174TIP3    H121465   3.690   1.959   3.047
 7174TIP3    H221466   3.542   1.965   3.017
 7175TIP3   OH221467   3.363   7.611   0.389
 7175TIP3    H121468   3.414   7.689   0.367
 7175TIP3    H221469   3.273   7.643   0.401
 7176TIP3   OH221470   2.303   2.713   0.060
 7176TIP3    H121471   2.329   2.764   0.137
 7176TIP3    H221472   2.304   2.622   0.090
 7177TIP3   OH221473   7.964   2.873   4.914
 7177TIP3    H121474   7.966   2.966   4.939
 7177TIP3    H221475   7.995   2.872   4.823
 7178TIP3   OH221476   7.587   3.599   6.090
 7178TIP3    H121477   7.566   3.576   6.181
 7178TIP3    H221478   7.675   3.562   6.076
 7179TIP3   OH221479   3.669   3.407   1.249
 7179TIP3    H121480   3.725   3.423   1.173
 7179TIP3    H221481   3.728   3.371   1.315
 7180TIP3   OH221482   7.238   2.955   5.730
 7180TIP3    H121483   7.172   3.022   5.746
 7180TIP3    H221484   7.317   3.004   5.706
 7181TIP3   OH221485   7.764   7.175   4.314
 7181TIP3    H121486   7.819   7.183   4.392
 7181TIP3    H221487   7.819   7.205   4.242
 7182TIP3   OH221488   6.626   0.430   5.029
 7182TIP3    H121489   6.659   0.491   4.963
 7182TIP3    H221490   6.647   0.472   5.113
 7183TIP3   OH221491   7.837   2.167   3.189
 7183TIP3    H121492   7.800   2.088   3.228
 7183TIP3    H221493   7.805   2.166   3.098
 7184TIP3   OH221494   0.289   6.684   6.564
 7184TIP3    H121495   0.318   6.627   6.492
 7184TIP3    H221496   0.359   6.678   6.628
 7185TIP3   OH221497   0.793   2.173   2.465
 7185TIP3    H121498   0.804   2.081   2.440
 7185TIP3    H221499   0.797   2.172   2.561
 7186TIP3   OH221500   7.318   1.958   4.371
 7186TIP3    H121501   7.312   1.935   4.464
 7186TIP3    H221502   7.384   1.899   4.335
 7187TIP3   OH221503   1.486   7.502   4.639
 7187TIP3    H121504   1.487   7.526   4.732
 7187TIP3    H221505   1.539   7.422   4.635
 7188TIP3   OH221506   4.608   3.349   2.927
 7188TIP3    H121507   4.569   3.436   2.933
 7188TIP3    H221508   4.556   3.295   2.986
 7189TIP3   OH221509   5.600   5.892   6.012
 7189TIP3    H121510   5.606   5.808   5.966
 7189TIP3    H221511   5.638   5.955   5.952
 7190TIP3   OH221512   3.939   1.466   3.602
 7190TIP3    H121513   3.968   1.390   3.652
 7190TIP3    H221514   3.942   1.539   3.665
 7191TIP3   OH221515   3.631   6.244   1.961
 7191TIP3    H121516   3.700   6.227   1.897
 7191TIP3    H221517   3.652   6.188   2.035
 7192TIP3   OH221518   1.047   2.048   4.614
 7192TIP3    H121519   0.986   2.067   4.686
 7192TIP3    H221520   1.017   2.103   4.542
 7193TIP3   OH221521   3.203   3.207   3.458
 7193TIP3    H121522   3.169   3.268   3.523
 7193TIP3    H221523   3.130   3.191   3.399
 7194TIP3   OH221524   1.163   5.040   6.004
 7194TIP3    H121525   1.069   5.027   6.002
 7194TIP3    H221526   1.175   5.121   6.054
 7195TIP3   OH221527   3.216   2.735   1.007
 7195TIP3    H121528   3.142   2.698   0.958
 7195TIP3    H221529   3.237   2.815   0.960
 7196TIP3   OH221530   4.551   6.038   0.775
 7196TIP3    H121531   4.505   6.115   0.740
 7196TIP3    H221532   4.483   5.972   0.785
 7197TIP3   OH221533   0.689   6.976   6.302
 7197TIP3    H121534   0.607   6.950   6.260
 7197TIP3    H221535   0.705   6.906   6.367
 7198TIP3   OH221536   2.347   1.879   3.441
 7198TIP3    H121537   2.362   1.857   3.533
 7198TIP3    H221538   2.431   1.914   3.411
 7199TIP3   OH221539   3.790   6.089   1.461
 7199TIP3    H121540   3.791   6.129   1.374
 7199TIP3    H221541   3.757   6.000   1.446
 7200TIP3   OH221542   5.029   4.470   1.375
 7200TIP3    H121543   5.012   4.486   1.282
 7200TIP3    H221544   4.968   4.529   1.420
 7201TIP3   OH221545   2.493   7.630   2.204
 7201TIP3    H121546   2.533   7.551   2.240
 7201TIP3    H221547   2.483   7.611   2.110
 7202TIP3   OH221548   7.924   0.392   1.541
 7202TIP3    H121549   8.012   0.419   1.566
 7202TIP3    H221550   7.889   0.348   1.619
 7203TIP3   OH221551   4.166   2.556   4.704
 7203TIP3    H121552   4.240   2.617   4.706
 7203TIP3    H221553   4.099   2.600   4.651
 7204TIP3   OH221554   2.669   5.297   1.078
 7204TIP3    H121555   2.680   5.295   1.173
 7204TIP3    H221556   2.685   5.388   1.054
 7205TIP3   OH221557   2.191   6.428   1.708
 7205TIP3    H121558   2.265   6.422   1.648
 7205TIP3    H221559   2.216   6.495   1.771
 7206TIP3   OH221560   0.813   3.655   3.122
 7206TIP3    H121561   0.855   3.693   3.046
 7206TIP3    H221562   0.720   3.676   3.111
 7207TIP3   OH221563   0.078   7.251   0.551
 7207TIP3    H121564   0.045   7.340   0.563
 7207TIP3    H221565   0.143   7.240   0.620
 7208TIP3   OH221566   8.051   5.927   4.602
 7208TIP3    H121567   7.993   5.853   4.583
 7208TIP3    H221568   8.023   5.995   4.541
 7209TIP3   OH221569   3.950   5.355   6.374
 7209TIP3    H121570   4.031   5.406   6.365
 7209TIP3    H221571   3.899   5.403   6.440
 7210TIP3   OH221572   2.383   7.765   4.141
 7210TIP3    H121573   2.411   7.840   4.088
 7210TIP3    H221574   2.287   7.771   4.142
 7211TIP3   OH221575   3.884   0.750   3.463
 7211TIP3    H121576   3.867   0.817   3.396
 7211TIP3    H221577   3.958   0.701   3.429
 7212TIP3   OH221578   4.728   6.503   1.282
 7212TIP3    H121579   4.662   6.469   1.221
 7212TIP3    H221580   4.697   6.592   1.303
 7213TIP3   OH221581   5.957   6.796   0.514
 7213TIP3    H121582   5.965   6.798   0.610
 7213TIP3    H221583   6.043   6.826   0.483
 7214TIP3   OH221584   6.641   1.577   5.963
 7214TIP3    H121585   6.603   1.664   5.976
 7214TIP3    H221586   6.677   1.553   6.048
 7215TIP3   OH221587   0.047   3.999   4.302
 7215TIP3    H121588  -0.001   4.076   4.331
 7215TIP3    H221589   0.137   4.012   4.332
 7216TIP3   OH221590   4.367   1.023   4.618
 7216TIP3    H121591   4.324   1.069   4.546
 7216TIP3    H221592   4.383   0.935   4.585
 7217TIP3   OH221593   2.092   2.099   1.562
 7217TIP3    H121594   2.043   2.071   1.639
 7217TIP3    H221595   2.027   2.141   1.505
 7218TIP3   OH221596   7.676   5.510   0.402
 7218TIP3    H121597   7.702   5.501   0.494
 7218TIP3    H221598   7.745   5.565   0.364
 7219TIP3   OH221599   4.798   7.186   6.703
 7219TIP3    H121600   4.716   7.195   6.655
 7219TIP3    H221601   4.782   7.231   6.786
 7220TIP3   OH221602   3.458   5.999   6.105
 7220TIP3    H121603   3.444   6.033   6.194
 7220TIP3    H221604   3.550   5.972   6.103
 7221TIP3   OH221605   5.970   6.054   2.266
 7221TIP3    H121606   6.039   5.994   2.239
 7221TIP3    H221607   5.927   6.079   2.184
 7222TIP3   OH221608   0.897   2.212   5.390
 7222TIP3    H121609   0.813   2.171   5.411
 7222TIP3    H221610   0.873   2.294   5.346
 7223TIP3   OH221611   5.277   6.201   1.821
 7223TIP3    H121612   5.325   6.217   1.740
 7223TIP3    H221613   5.295   6.110   1.842
 7224TIP3   OH221614   4.146   0.469   4.619
 7224TIP3    H121615   4.122   0.428   4.702
 7224TIP3    H221616   4.190   0.399   4.570
 7225TIP3   OH221617   3.621   1.702   0.287
 7225TIP3    H121618   3.657   1.788   0.308
 7225TIP3    H221619   3.651   1.645   0.359
 7226TIP3   OH221620   7.709   6.727   3.685
 7226TIP3    H121621   7.789   6.762   3.724
 7226TIP3    H221622   7.638   6.769   3.734
 7227TIP3   OH221623   2.920   5.834   6.332
 7227TIP3    H121624   2.830   5.819   6.303
 7227TIP3    H221625   2.970   5.844   6.251
 7228TIP3   OH221626   5.394   7.279   5.502
 7228TIP3    H121627   5.380   7.294   5.409
 7228TIP3    H221628   5.431   7.362   5.534
 7229TIP3   OH221629   5.431   6.510   5.421
 7229TIP3    H121630   5.429   6.566   5.499
 7229TIP3    H221631   5.456   6.424   5.454
 7230TIP3   OH221632   2.996   3.044   3.337
 7230TIP3    H121633   2.902   3.053   3.355
 7230TIP3    H221634   3.035   3.027   3.422
 7231TIP3   OH221635   6.176   1.728   4.883
 7231TIP3    H121636   6.196   1.635   4.886
 7231TIP3    H221637   6.091   1.736   4.926
 7232TIP3   OH221638   5.715   6.731   3.341
 7232TIP3    H121639   5.674   6.667   3.399
 7232TIP3    H221640   5.782   6.772   3.395
 7233TIP3   OH221641   7.836   4.729   3.229
 7233TIP3    H121642   7.763   4.762   3.281
 7233TIP3    H221643   7.859   4.802   3.171
 7234TIP3   OH221644   3.400   0.185   0.200
 7234TIP3    H121645   3.378   0.143   0.117
 7234TIP3    H221646   3.316   0.207   0.239
 7235TIP3   OH221647   0.974   3.812   4.068
 7235TIP3    H121648   0.920   3.883   4.104
 7235TIP3    H221649   0.981   3.832   3.975
 7236TIP3   OH221650   6.014   5.557   2.951
 7236TIP3    H121651   6.106   5.537   2.971
 7236TIP3    H221652   5.968   5.543   3.033
 7237TIP3   OH221653   4.146   6.157   3.735
 7237TIP3    H121654   4.155   6.100   3.812
 7237TIP3    H221655   4.228   6.206   3.732
 7238TIP3   OH221656   2.209   0.230   0.334
 7238TIP3    H121657   2.298   0.197   0.337
 7238TIP3    H221658   2.197   0.276   0.417
 7239TIP3   OH221659   8.103   2.482   1.714
 7239TIP3    H121660   8.192   2.447   1.721
 7239TIP3    H221661   8.108   2.545   1.642
 7240TIP3   OH221662   5.473   4.761   3.560
 7240TIP3    H121663   5.476   4.828   3.628
 7240TIP3    H221664   5.565   4.742   3.541
 7241TIP3   OH221665   0.883   0.566   2.524
 7241TIP3    H121666   0.942   0.492   2.506
 7241TIP3    H221667   0.848   0.548   2.611
 7242TIP3   OH221668   8.317   4.855   0.055
 7242TIP3    H121669   8.237   4.890   0.015
 7242TIP3    H221670   8.286   4.782   0.109
 7243TIP3   OH221671   8.108   1.203   5.062
 7243TIP3    H121672   8.034   1.190   5.002
 7243TIP3    H221673   8.181   1.159   5.020
 7244TIP3   OH221674   2.080   7.051   3.410
 7244TIP3    H121675   1.991   7.028   3.437
 7244TIP3    H221676   2.087   7.020   3.320
 7245TIP3   OH221677   5.352   6.237   4.709
 7245TIP3    H121678   5.365   6.246   4.614
 7245TIP3    H221679   5.280   6.296   4.729
 7246TIP3   OH221680   0.791   0.342   5.364
 7246TIP3    H121681   0.864   0.290   5.332
 7246TIP3    H221682   0.830   0.404   5.425
 7247TIP3   OH221683   8.103   4.484   6.017
 7247TIP3    H121684   8.081   4.391   6.027
 7247TIP3    H221685   8.118   4.514   6.107
 7248TIP3   OH221686   2.733   5.438   4.382
 7248TIP3    H121687   2.756   5.384   4.457
 7248TIP3    H221688   2.726   5.527   4.418
 7249TIP3   OH221689   4.182   3.055   3.583
 7249TIP3    H121690   4.092   3.077   3.557
 7249TIP3    H221691   4.236   3.124   3.545
 7250TIP3   OH221692   5.015   5.541   1.893
 7250TIP3    H121693   5.107   5.559   1.908
 7250TIP3    H221694   5.014   5.473   1.826
 7251TIP3   OH221695   2.411   6.662   2.492
 7251TIP3    H121696   2.476   6.593   2.480
 7251TIP3    H221697   2.360   6.634   2.568
 7252TIP3   OH221698   2.937   0.024   5.095
 7252TIP3    H121699   2.963   0.003   5.184
 7252TIP3    H221700   3.013   0.071   5.058
 7253TIP3   OH221701   1.440   6.517   0.812
 7253TIP3    H121702   1.521   6.567   0.826
 7253TIP3    H221703   1.436   6.456   0.886
 7254TIP3   OH221704   0.030   0.756   4.379
 7254TIP3    H121705   0.054   0.706   4.458
 7254TIP3    H221706   0.059   0.845   4.397
 7255TIP3   OH221707   4.204   1.806   4.964
 7255TIP3    H121708   4.225   1.891   4.925
 7255TIP3    H221709   4.190   1.825   5.056
 7256TIP3   OH221710   4.615   3.274   3.327
 7256TIP3    H121711   4.686   3.314   3.276
 7256TIP3    H221712   4.652   3.264   3.415
 7257TIP3   OH221713   6.649   7.741   5.680
 7257TIP3    H121714   6.613   7.754   5.592
 7257TIP3    H221715   6.577   7.764   5.738
 7258TIP3   OH221716   6.847   4.672   5.253
 7258TIP3    H121717   6.855   4.616   5.329
 7258TIP3    H221718   6.873   4.759   5.284
 7259TIP3   OH221719   4.938   0.770   4.750
 7259TIP3    H121720   4.867   0.812   4.799
 7259TIP3    H221721   4.978   0.841   4.700
 7260TIP3   OH221722   5.871   0.096   4.126
 7260TIP3    H121723   5.802   0.105   4.061
 7260TIP3    H221724   5.949   0.075   4.075
 7261TIP3   OH221725   4.667   1.184   3.575
 7261TIP3    H121726   4.750   1.154   3.536
 7261TIP3    H221727   4.685   1.274   3.603
 7262TIP3   OH221728   2.392   4.559   2.609
 7262TIP3    H121729   2.417   4.476   2.568
 7262TIP3    H221730   2.468   4.616   2.595
 7263TIP3   OH221731   5.454   5.750   3.526
 7263TIP3    H121732   5.545   5.751   3.554
 7263TIP3    H221733   5.456   5.787   3.437
 7264TIP3   OH221734   2.753   4.401   3.524
 7264TIP3    H121735   2.834   4.383   3.476
 7264TIP3    H221736   2.715   4.314   3.539
 7265TIP3   OH221737   0.396   6.404   2.775
 7265TIP3    H121738   0.396   6.311   2.756
 7265TIP3    H221739   0.397   6.409   2.871
 7266TIP3   OH221740   2.343   1.909   4.785
 7266TIP3    H121741   2.256   1.928   4.820
 7266TIP3    H221742   2.330   1.906   4.690
 7267TIP3   OH221743   7.469   3.275   2.372
 7267TIP3    H121744   7.430   3.288   2.459
 7267TIP3    H221745   7.518   3.194   2.381
 7268TIP3   OH221746   4.337   7.392   2.285
 7268TIP3    H121747   4.415   7.444   2.303
 7268TIP3    H221748   4.354   7.308   2.329
 7269TIP3   OH221749   5.521   7.162   2.938
 7269TIP3    H121750   5.580   7.107   2.887
 7269TIP3    H221751   5.434   7.139   2.906
 7270TIP3   OH221752   7.874   0.734   5.520
 7270TIP3    H121753   7.791   0.749   5.474
 7270TIP3    H221754   7.940   0.738   5.450
 7271TIP3   OH221755   5.814   7.053   1.837
 7271TIP3    H121756   5.878   7.035   1.768
 7271TIP3    H221757   5.815   6.974   1.891
 7272TIP3   OH221758   3.663   3.814   0.334
 7272TIP3    H121759   3.569   3.808   0.350
 7272TIP3    H221760   3.677   3.762   0.254
 7273TIP3   OH221761   7.323   4.840   0.302
 7273TIP3    H121762   7.249   4.899   0.292
 7273TIP3    H221763   7.378   4.882   0.369
 7274TIP3   OH221764   3.364   3.818   6.425
 7274TIP3    H121765   3.423   3.788   6.356
 7274TIP3    H221766   3.386   3.911   6.436
 7275TIP3   OH221767   3.224   0.854   1.227
 7275TIP3    H121768   3.254   0.945   1.237
 7275TIP3    H221769   3.204   0.846   1.133
 7276TIP3   OH221770   4.087   3.336   4.921
 7276TIP3    H121771   3.992   3.340   4.932
 7276TIP3    H221772   4.100   3.340   4.826
 7277TIP3   OH221773   1.998   5.875   6.338
 7277TIP3    H121774   2.093   5.872   6.336
 7277TIP3    H221775   1.975   5.864   6.430
 7278TIP3   OH221776   0.825   1.294   2.471
 7278TIP3    H121777   0.842   1.224   2.535
 7278TIP3    H221778   0.730   1.304   2.470
 7279TIP3   OH221779   4.789   1.711   0.439
 7279TIP3    H121780   4.779   1.718   0.534
 7279TIP3    H221781   4.799   1.618   0.422
 7280TIP3   OH221782   5.460   1.676   6.036
 7280TIP3    H121783   5.543   1.683   6.083
 7280TIP3    H221784   5.401   1.735   6.083
 7281TIP3   OH221785   3.995   6.243   6.405
 7281TIP3    H121786   3.948   6.305   6.349
 7281TIP3    H221787   4.060   6.296   6.450
 7282TIP3   OH221788   0.303   1.600   4.896
 7282TIP3    H121789   0.383   1.554   4.923
 7282TIP3    H221790   0.239   1.579   4.964
 7283TIP3   OH221791   0.785   0.524   2.105
 7283TIP3    H121792   0.868   0.483   2.080
 7283TIP3    H221793   0.744   0.547   2.022
 7284TIP3   OH221794   2.093   5.632   6.218
 7284TIP3    H121795   2.152   5.636   6.143
 7284TIP3    H221796   2.137   5.683   6.286
 7285TIP3   OH221797   4.918   3.531   2.761
 7285TIP3    H121798   5.007   3.568   2.760
 7285TIP3    H221799   4.930   3.443   2.797
 7286TIP3   OH221800   7.012   0.707   6.116
 7286TIP3    H121801   6.946   0.657   6.069
 7286TIP3    H221802   7.096   0.674   6.083
 7287TIP3   OH221803   3.001   2.707   0.512
 7287TIP3    H121804   3.062   2.779   0.497
 7287TIP3    H221805   2.973   2.681   0.424
 7288TIP3   OH221806   4.513   6.182   2.813
 7288TIP3    H121807   4.457   6.111   2.780
 7288TIP3    H221808   4.592   6.138   2.843
 7289TIP3   OH221809   6.578   4.979   1.680
 7289TIP3    H121810   6.559   4.887   1.700
 7289TIP3    H221811   6.507   5.028   1.723
 7290TIP3   OH221812   0.750   4.950   0.052
 7290TIP3    H121813   0.767   4.855   0.057
 7290TIP3    H221814   0.679   4.958  -0.010
 7291TIP3   OH221815   7.505   6.763   2.452
 7291TIP3    H121816   7.575   6.702   2.429
 7291TIP3    H221817   7.424   6.714   2.437
 7292TIP3   OH221818   7.515   5.326   3.578
 7292TIP3    H121819   7.516   5.237   3.613
 7292TIP3    H221820   7.428   5.335   3.539
 7293TIP3   OH221821   4.075   3.997   3.559
 7293TIP3    H121822   4.134   3.947   3.503
 7293TIP3    H221823   3.988   3.964   3.539
 7294TIP3   OH221824   4.200   6.304   0.964
 7294TIP3    H121825   4.267   6.243   0.995
 7294TIP3    H221826   4.118   6.256   0.974
 7295TIP3   OH221827   3.166   7.679   6.765
 7295TIP3    H121828   3.123   7.689   6.850
 7295TIP3    H221829   3.214   7.597   6.772
 7296TIP3   OH221830   6.309   3.231   5.004
 7296TIP3    H121831   6.273   3.320   5.002
 7296TIP3    H221832   6.261   3.185   4.935
 7297TIP3   OH221833   2.406   1.815   0.258
 7297TIP3    H121834   2.444   1.874   0.324
 7297TIP3    H221835   2.400   1.868   0.179
 7298TIP3   OH221836   7.020   6.206   1.935
 7298TIP3    H121837   7.068   6.126   1.959
 7298TIP3    H221838   7.068   6.240   1.860
 7299TIP3   OH221839   8.255   5.728   4.026
 7299TIP3    H121840   8.169   5.712   3.986
 7299TIP3    H221841   8.235   5.756   4.115
 7300TIP3   OH221842   5.731   1.948   5.810
 7300TIP3    H121843   5.818   1.981   5.788
 7300TIP3    H221844   5.678   1.968   5.732
 7301TIP3   OH221845   1.583   1.177   4.693
 7301TIP3    H121846   1.505   1.122   4.686
 7301TIP3    H221847   1.586   1.224   4.609
 7302TIP3   OH221848   2.419   5.777   1.342
 7302TIP3    H121849   2.416   5.779   1.437
 7302TIP3    H221850   2.378   5.859   1.314
 7303TIP3   OH221851   7.334   5.249   6.554
 7303TIP3    H121852   7.398   5.267   6.485
 7303TIP3    H221853   7.383   5.201   6.620
 7304TIP3   OH221854   6.766   4.219   3.333
 7304TIP3    H121855   6.696   4.168   3.374
 7304TIP3    H221856   6.794   4.165   3.258
 7305TIP3   OH221857   1.239   4.407   6.445
 7305TIP3    H121858   1.163   4.396   6.388
 7305TIP3    H221859   1.308   4.355   6.404
 7306TIP3   OH221860   6.038   2.785   3.615
 7306TIP3    H121861   5.999   2.828   3.539
 7306TIP3    H221862   6.132   2.784   3.598
 7307TIP3   OH221863   6.107   5.979   1.773
 7307TIP3    H121864   6.021   6.017   1.756
 7307TIP3    H221865   6.164   6.018   1.706
 7308TIP3   OH221866   0.651   4.098   2.324
 7308TIP3    H121867   0.689   4.160   2.386
 7308TIP3    H221868   0.671   4.012   2.361
 7309TIP3   OH221869   3.854   5.029   5.750
 7309TIP3    H121870   3.865   5.118   5.783
 7309TIP3    H221871   3.836   5.040   5.656
 7310TIP3   OH221872   1.314   4.188   5.586
 7310TIP3    H121873   1.361   4.183   5.503
 7310TIP3    H221874   1.287   4.098   5.604
 7311TIP3   OH221875   3.103   3.815   0.413
 7311TIP3    H121876   3.157   3.745   0.449
 7311TIP3    H221877   3.127   3.819   0.320
 7312TIP3   OH221878   2.584   7.700   5.182
 7312TIP3    H121879   2.650   7.640   5.148
 7312TIP3    H221880   2.556   7.661   5.264
 7313TIP3   OH221881   7.798   0.086   2.363
 7313TIP3    H121882   7.839   0.026   2.301
 7313TIP3    H221883   7.860   0.093   2.435
 7314TIP3   OH221884   6.822   2.610   2.329
 7314TIP3    H121885   6.863   2.657   2.401
 7314TIP3    H221886   6.875   2.630   2.252
 7315TIP3   OH221887   7.199   5.499   4.724
 7315TIP3    H121888   7.128   5.562   4.721
 7315TIP3    H221889   7.162   5.418   4.690
 7316TIP3   OH221890   7.495   1.244   3.613
 7316TIP3    H121891   7.458   1.189   3.544
 7316TIP3    H221892   7.537   1.316   3.568
 7317TIP3   OH221893   1.783   7.735   1.673
 7317TIP3    H121894   1.862   7.786   1.654
 7317TIP3    H221895   1.761   7.694   1.589
 7318TIP3   OH221896   3.568   2.548   1.954
 7318TIP3    H121897   3.503   2.612   1.982
 7318TIP3    H221898   3.645   2.601   1.931
 7319TIP3   OH221899   0.417   7.375   6.054
 7319TIP3    H121900   0.365   7.295   6.042
 7319TIP3    H221901   0.362   7.444   6.016
 7320TIP3   OH221902   0.943   4.269   5.294
 7320TIP3    H121903   0.896   4.194   5.329
 7320TIP3    H221904   0.879   4.314   5.239
 7321TIP3   OH221905   0.013   6.695   2.907
 7321TIP3    H121906   0.028   6.616   2.856
 7321TIP3    H221907  -0.058   6.673   2.967
 7322TIP3   OH221908   7.451   5.853   5.367
 7322TIP3    H121909   7.412   5.858   5.454
 7322TIP3    H221910   7.384   5.812   5.312
 7323TIP3   OH221911   0.080   3.427   4.616
 7323TIP3    H121912   0.132   3.471   4.549
 7323TIP3    H221913   0.010   3.383   4.567
 7324TIP3   OH221914   7.753   3.527   2.625
 7324TIP3    H121915   7.810   3.574   2.686
 7324TIP3    H221916   7.675   3.506   2.677
 7325TIP3   OH221917   0.100   6.055   6.502
 7325TIP3    H121918   0.094   6.018   6.590
 7325TIP3    H221919   0.010   6.054   6.470
 7326TIP3   OH221920   1.276   2.915   0.020
 7326TIP3    H121921   1.212   2.844   0.027
 7326TIP3    H221922   1.332   2.904   0.098
 7327TIP3   OH221923   8.156   3.804   5.504
 7327TIP3    H121924   8.104   3.825   5.581
 7327TIP3    H221925   8.237   3.766   5.538
 7328TIP3   OH221926   1.840   7.203   6.728
 7328TIP3    H121927   1.898   7.218   6.802
 7328TIP3    H221928   1.882   7.247   6.654
 7329TIP3   OH221929   5.034   0.461   6.395
 7329TIP3    H121930   5.093   0.439   6.467
 7329TIP3    H221931   5.071   0.416   6.319
 7330TIP3   OH221932   6.639   7.382   6.354
 7330TIP3    H121933   6.721   7.398   6.307
 7330TIP3    H221934   6.572   7.426   6.302
 7331TIP3   OH221935   1.719   3.213   1.431
 7331TIP3    H121936   1.795   3.182   1.482
 7331TIP3    H221937   1.668   3.134   1.415
 7332TIP3   OH221938   1.961   6.734   3.392
 7332TIP3    H121939   1.885   6.728   3.334
 7332TIP3    H221940   1.960   6.825   3.423
 7333TIP3   OH221941   5.383   4.020   1.472
 7333TIP3    H121942   5.313   4.038   1.409
 7333TIP3    H221943   5.462   4.055   1.432
 7334TIP3   OH221944   4.478   6.264   4.479
 7334TIP3    H121945   4.528   6.195   4.436
 7334TIP3    H221946   4.519   6.273   4.565
 7335TIP3   OH221947   2.388   5.379   6.449
 7335TIP3    H121948   2.303   5.403   6.412
 7335TIP3    H221949   2.424   5.316   6.388
 7336TIP3   OH221950   3.394   4.349   0.353
 7336TIP3    H121951   3.387   4.318   0.263
 7336TIP3    H221952   3.372   4.442   0.348
 7337TIP3   OH221953   0.985   4.186   3.305
 7337TIP3    H121954   0.920   4.187   3.375
 7337TIP3    H221955   0.997   4.093   3.286
 7338TIP3   OH221956   3.835   2.734   3.646
 7338TIP3    H121957   3.810   2.643   3.659
 7338TIP3    H221958   3.808   2.754   3.556
 7339TIP3   OH221959   2.073   0.624   1.515
 7339TIP3    H121960   2.126   0.679   1.457
 7339TIP3    H221961   2.137   0.584   1.575
 7340TIP3   OH221962   4.042   0.555   1.159
 7340TIP3    H121963   4.050   0.462   1.138
 7340TIP3    H221964   3.953   0.578   1.133
 7341TIP3   OH221965   4.876   3.725   1.869
 7341TIP3    H121966   4.896   3.706   1.777
 7341TIP3    H221967   4.836   3.644   1.902
 7342TIP3   OH221968   1.625   3.672   5.141
 7342TIP3    H121969   1.577   3.593   5.116
 7342TIP3    H221970   1.681   3.645   5.213
 7343TIP3   OH221971   1.706   5.710   4.537
 7343TIP3    H121972   1.661   5.651   4.477
 7343TIP3    H221973   1.764   5.654   4.588
 7344TIP3   OH221974   2.065   1.201   1.423
 7344TIP3    H121975   1.976   1.207   1.390
 7344TIP3    H221976   2.120   1.204   1.344
 7345TIP3   OH221977   5.806   4.721   1.527
 7345TIP3    H121978   5.863   4.711   1.603
 7345TIP3    H221979   5.795   4.816   1.518
 7346TIP3   OH221980   3.992   0.143   3.367
 7346TIP3    H121981   4.034   0.068   3.410
 7346TIP3    H221982   3.919   0.105   3.319
 7347TIP3   OH221983   0.579   6.480   5.875
 7347TIP3    H121984   0.644   6.436   5.820
 7347TIP3    H221985   0.531   6.409   5.917
 7348TIP3   OH221986   0.400   1.886   3.458
 7348TIP3    H121987   0.408   1.978   3.434
 7348TIP3    H221988   0.327   1.853   3.406
 7349TIP3   OH221989   2.411   6.907   5.083
 7349TIP3    H121990   2.333   6.933   5.132
 7349TIP3    H221991   2.389   6.820   5.049
 7350TIP3   OH221992   7.603   1.748   6.352
 7350TIP3    H121993   7.531   1.698   6.312
 7350TIP3    H221994   7.655   1.778   6.278
 7351TIP3   OH221995   7.189   3.902   3.152
 7351TIP3    H121996   7.253   3.946   3.209
 7351TIP3    H221997   7.193   3.950   3.070
 7352TIP3   OH221998   0.675   0.904   5.885
 7352TIP3    H121999   0.682   0.970   5.954
 7352TIP3    H222000   0.677   0.820   5.931
 7353TIP3   OH222001   1.583   6.077   0.121
 7353TIP3    H122002   1.586   6.156   0.175
 7353TIP3    H222003   1.644   6.017   0.164
 7354TIP3   OH222004   4.391   1.449   6.573
 7354TIP3    H122005   4.383   1.535   6.533
 7354TIP3    H222006   4.390   1.465   6.667
 7355TIP3   OH222007   3.792   0.935   4.222
 7355TIP3    H122008   3.879   0.961   4.254
 7355TIP3    H222009   3.810   0.874   4.150
 7356TIP3   OH222010   0.037   4.512   0.052
 7356TIP3    H122011  -0.022   4.564   0.105
 7356TIP3    H222012   0.125   4.535   0.083
 7357TIP3   OH222013   6.399   6.629   1.201
 7357TIP3    H122014   6.337   6.618   1.273
 7357TIP3    H222015   6.395   6.547   1.152
 7358TIP3   OH222016   4.256   6.275   1.476
 7358TIP3    H122017   4.275   6.200   1.419
 7358TIP3    H222018   4.310   6.261   1.553
 7359TIP3   OH222019   3.216   6.324   4.218
 7359TIP3    H122020   3.195   6.311   4.125
 7359TIP3    H222021   3.258   6.242   4.245
 7360TIP3   OH222022   6.400   2.531   4.633
 7360TIP3    H122023   6.378   2.440   4.653
 7360TIP3    H222024   6.482   2.547   4.681
 7361TIP3   OH222025   6.317   6.866   6.616
 7361TIP3    H122026   6.280   6.782   6.590
 7361TIP3    H222027   6.406   6.866   6.580
 7362TIP3   OH222028   3.101   0.312   3.864
 7362TIP3    H122029   3.106   0.264   3.946
 7362TIP3    H222030   3.049   0.256   3.806
 7363TIP3   OH222031   3.595   0.078   3.793
 7363TIP3    H122032   3.501   0.093   3.803
 7363TIP3    H222033   3.636   0.150   3.840
 7364TIP3   OH222034   0.527   2.070   1.313
 7364TIP3    H122035   0.520   2.007   1.385
 7364TIP3    H222036   0.454   2.130   1.327
 7365TIP3   OH222037   4.868   0.356   1.921
 7365TIP3    H122038   4.880   0.391   1.832
 7365TIP3    H222039   4.783   0.390   1.949
 7366TIP3   OH222040   7.036   4.631   1.236
 7366TIP3    H122041   7.035   4.537   1.254
 7366TIP3    H222042   7.129   4.653   1.228
 7367TIP3   OH222043   1.452   6.782   0.440
 7367TIP3    H122044   1.517   6.851   0.444
 7367TIP3    H222045   1.498   6.703   0.468
 7368TIP3   OH222046   4.838   6.318   1.658
 7368TIP3    H122047   4.860   6.240   1.710
 7368TIP3    H222048   4.846   6.391   1.719
 7369TIP3   OH222049   7.968   3.188   4.813
 7369TIP3    H122050   7.899   3.196   4.748
 7369TIP3    H222051   8.015   3.271   4.808
 7370TIP3   OH222052   7.861   3.433   1.855
 7370TIP3    H122053   7.842   3.525   1.834
 7370TIP3    H222054   7.930   3.439   1.922
 7371TIP3   OH222055   4.042   6.582   5.120
 7371TIP3    H122056   4.069   6.498   5.159
 7371TIP3    H222057   4.047   6.567   5.026
 7372TIP3   OH222058   2.161   2.224   2.355
 7372TIP3    H122059   2.216   2.256   2.284
 7372TIP3    H222060   2.219   2.219   2.431
 7373TIP3   OH222061   3.591   4.262   4.258
 7373TIP3    H122062   3.646   4.184   4.268
 7373TIP3    H222063   3.650   4.335   4.278
 7374TIP3   OH222064   2.508   2.025   3.079
 7374TIP3    H122065   2.431   2.080   3.067
 7374TIP3    H222066   2.475   1.947   3.123
 7375TIP3   OH222067   7.959   0.833   6.105
 7375TIP3    H122068   7.933   0.921   6.132
 7375TIP3    H222069   7.971   0.839   6.011
 7376TIP3   OH222070   7.005   5.286   1.714
 7376TIP3    H122071   6.951   5.208   1.732
 7376TIP3    H222072   7.030   5.318   1.800
 7377TIP3   OH222073   7.905   7.408   0.152
 7377TIP3    H122074   7.946   7.444   0.231
 7377TIP3    H222075   7.830   7.359   0.185
 7378TIP3   OH222076   0.600   5.082   3.505
 7378TIP3    H122077   0.684   5.092   3.550
 7378TIP3    H222078   0.613   5.123   3.420
 7379TIP3   OH222079   0.643   1.062   3.275
 7379TIP3    H122080   0.738   1.057   3.274
 7379TIP3    H222081   0.621   1.109   3.194
 7380TIP3   OH222082   4.684   0.888   4.511
 7380TIP3    H122083   4.738   0.827   4.561
 7380TIP3    H222084   4.595   0.853   4.519
 7381TIP3   OH222085   7.703   1.677   4.880
 7381TIP3    H122086   7.733   1.611   4.818
 7381TIP3    H222087   7.673   1.627   4.956
 7382TIP3   OH222088   3.487   3.593   1.927
 7382TIP3    H122089   3.559   3.642   1.965
 7382TIP3    H222090   3.409   3.644   1.949
 7383TIP3   OH222091   5.849   2.319   4.849
 7383TIP3    H122092   5.907   2.264   4.796
 7383TIP3    H222093   5.829   2.266   4.926
 7384TIP3   OH222094   1.578   7.008   3.818
 7384TIP3    H122095   1.551   7.085   3.868
 7384TIP3    H222096   1.501   6.984   3.767
 7385TIP3   OH222097   6.827   3.209   0.664
 7385TIP3    H122098   6.754   3.149   0.648
 7385TIP3    H222099   6.826   3.225   0.758
 7386TIP3   OH222100   3.480   5.683   6.266
 7386TIP3    H122101   3.508   5.764   6.308
 7386TIP3    H222102   3.559   5.650   6.223
 7387TIP3   OH222103   4.733   5.094   0.598
 7387TIP3    H122104   4.731   5.106   0.692
 7387TIP3    H222105   4.641   5.086   0.573
 7388TIP3   OH222106   6.511   4.719   1.678
 7388TIP3    H122107   6.519   4.667   1.759
 7388TIP3    H222108   6.466   4.660   1.617
 7389TIP3   OH222109   6.678   0.719   0.189
 7389TIP3    H122110   6.720   0.689   0.109
 7389TIP3    H222111   6.704   0.810   0.198
 7390TIP3   OH222112   0.538   4.201   3.364
 7390TIP3    H122113   0.516   4.289   3.332
 7390TIP3    H222114   0.486   4.191   3.444
 7391TIP3   OH222115   5.483   2.519   4.985
 7391TIP3    H122116   5.475   2.545   4.894
 7391TIP3    H222117   5.508   2.426   4.982
 7392TIP3   OH222118   0.345   2.161   6.145
 7392TIP3    H122119   0.367   2.161   6.238
 7392TIP3    H222120   0.280   2.231   6.135
 7393TIP3   OH222121   3.068   2.330   1.315
 7393TIP3    H122122   3.084   2.236   1.324
 7393TIP3    H222123   2.978   2.336   1.281
 7394TIP3   OH222124   6.962   3.439   0.596
 7394TIP3    H122125   6.922   3.353   0.609
 7394TIP3    H222126   7.054   3.426   0.621
 7395TIP3   OH222127   7.517   1.176   4.301
 7395TIP3    H122128   7.424   1.198   4.291
 7395TIP3    H222129   7.538   1.124   4.224
 7396TIP3   OH222130   3.325   7.816   3.951
 7396TIP3    H122131   3.367   7.764   4.019
 7396TIP3    H222132   3.318   7.757   3.875
 7397TIP3   OH222133   5.828   1.184   0.848
 7397TIP3    H122134   5.829   1.089   0.861
 7397TIP3    H222135   5.894   1.217   0.909
 7398TIP3   OH222136   7.635   0.860   3.930
 7398TIP3    H122137   7.617   0.896   3.843
 7398TIP3    H222138   7.727   0.834   3.926
 7399TIP3   OH222139   0.890   1.536   1.214
 7399TIP3    H122140   0.843   1.548   1.132
 7399TIP3    H222141   0.824   1.550   1.282
 7400TIP3   OH222142   0.358   3.443   5.963
 7400TIP3    H122143   0.386   3.365   6.010
 7400TIP3    H222144   0.404   3.439   5.879
 7401TIP3   OH222145   3.694   1.958   2.290
 7401TIP3    H122146   3.664   2.048   2.299
 7401TIP3    H222147   3.614   1.906   2.291
 7402TIP3   OH222148   3.812   5.393   4.986
 7402TIP3    H122149   3.835   5.358   5.072
 7402TIP3    H222150   3.785   5.483   5.003
 7403TIP3   OH222151   3.325   0.881   6.471
 7403TIP3    H122152   3.303   0.947   6.537
 7403TIP3    H222153   3.418   0.861   6.486
 7404TIP3   OH222154   0.269   4.871   2.931
 7404TIP3    H122155   0.334   4.915   2.876
 7404TIP3    H222156   0.245   4.792   2.882
 7405TIP3   OH222157   4.083   0.330   4.177
 7405TIP3    H122158   4.056   0.241   4.198
 7405TIP3    H222159   4.131   0.322   4.095
 7406TIP3   OH222160   5.362   3.302   3.488
 7406TIP3    H122161   5.269   3.312   3.507
 7406TIP3    H222162   5.403   3.378   3.529
 7407TIP3   OH222163   7.923   0.325   5.480
 7407TIP3    H122164   7.916   0.252   5.541
 7407TIP3    H222165   7.955   0.287   5.399
 7408TIP3   OH222166   8.140   0.441   1.111
 7408TIP3    H122167   8.178   0.366   1.064
 7408TIP3    H222168   8.136   0.510   1.045
 7409TIP3   OH222169   5.411   5.675   5.740
 7409TIP3    H122170   5.368   5.597   5.705
 7409TIP3    H222171   5.345   5.743   5.736
 7410TIP3   OH222172   5.910   7.760   5.841
 7410TIP3    H122173   5.887   7.683   5.894
 7410TIP3    H222174   5.865   7.833   5.883
 7411TIP3   OH222175   5.565   5.367   6.154
 7411TIP3    H122176   5.606   5.359   6.067
 7411TIP3    H222177   5.581   5.458   6.179
 7412TIP3   OH222178   1.853   4.824   4.228
 7412TIP3    H122179   1.784   4.758   4.237
 7412TIP3    H222180   1.868   4.832   4.134
 7413TIP3   OH222181   3.677   3.759   4.253
 7413TIP3    H122182   3.761   3.776   4.295
 7413TIP3    H222183   3.624   3.836   4.273
 7414TIP3   OH222184   4.751   5.263   6.476
 7414TIP3    H122185   4.839   5.225   6.468
 7414TIP3    H222186   4.767   5.357   6.485
 7415TIP3   OH222187   5.695   0.474   3.631
 7415TIP3    H122188   5.609   0.454   3.670
 7415TIP3    H222189   5.702   0.569   3.636
 7416TIP3   OH222190   7.220   7.780   6.187
 7416TIP3    H122191   7.221   7.723   6.111
 7416TIP3    H222192   7.302   7.761   6.233
 7417TIP3   OH222193   5.149   2.943   4.195
 7417TIP3    H122194   5.055   2.926   4.205
 7417TIP3    H222195   5.191   2.863   4.226
 7418TIP3   OH222196   1.896   7.410   0.225
 7418TIP3    H122197   1.988   7.435   0.236
 7418TIP3    H222198   1.861   7.406   0.314
 7419TIP3   OH222199   2.820   5.390   4.888
 7419TIP3    H122200   2.913   5.387   4.912
 7419TIP3    H222201   2.814   5.336   4.809
 7420TIP3   OH222202   1.235   7.070   2.500
 7420TIP3    H122203   1.305   7.135   2.498
 7420TIP3    H222204   1.186   7.090   2.580
 7421TIP3   OH222205   4.557   3.916   5.836
 7421TIP3    H122206   4.551   3.832   5.882
 7421TIP3    H222207   4.647   3.945   5.852
 7422TIP3   OH222208   3.064   7.529   4.748
 7422TIP3    H122209   3.142   7.584   4.763
 7422TIP3    H222210   3.087   7.445   4.787
 7423TIP3   OH222211   4.495   1.145   5.384
 7423TIP3    H122212   4.486   1.175   5.293
 7423TIP3    H222213   4.406   1.135   5.415
 7424TIP3   OH222214   0.165   6.258   5.005
 7424TIP3    H122215   0.239   6.318   5.016
 7424TIP3    H222216   0.166   6.235   4.912
 7425TIP3   OH222217   7.242   7.549   0.088
 7425TIP3    H122218   7.258   7.643   0.078
 7425TIP3    H222219   7.296   7.508   0.021
 7426TIP3   OH222220   7.203   1.760   5.432
 7426TIP3    H122221   7.293   1.776   5.458
 7426TIP3    H222222   7.151   1.776   5.511
 7427TIP3   OH222223   2.884   0.249   4.402
 7427TIP3    H122224   2.877   0.343   4.385
 7427TIP3    H222225   2.976   0.235   4.424
 7428TIP3   OH222226   3.971   5.670   1.081
 7428TIP3    H122227   3.942   5.582   1.055
 7428TIP3    H222228   3.908   5.729   1.039
 7429TIP3   OH222229   0.897   5.983   6.416
 7429TIP3    H122230   0.948   6.005   6.337
 7429TIP3    H222231   0.904   6.061   6.471
 7430TIP3   OH222232   6.376   5.405   2.330
 7430TIP3    H122233   6.461   5.399   2.372
 7430TIP3    H222234   6.373   5.332   2.269
 7431TIP3   OH222235   1.400   5.427   4.117
 7431TIP3    H122236   1.316   5.469   4.135
 7431TIP3    H222237   1.380   5.333   4.113
 7432TIP3   OH222238   7.276   0.112   1.875
 7432TIP3    H122239   7.342   0.181   1.884
 7432TIP3    H222240   7.199   0.145   1.920
 7433TIP3   OH222241   5.177  -0.019   6.715
 7433TIP3    H122242   5.270   0.003   6.726
 7433TIP3    H222243   5.134   0.019   6.792
 7434TIP3   OH222244   3.632   5.497   5.440
 7434TIP3    H122245   3.693   5.519   5.370
 7434TIP3    H222246   3.548   5.482   5.396
 7435TIP3   OH222247   5.037   7.564   5.452
 7435TIP3    H122248   5.068   7.491   5.399
 7435TIP3    H222249   4.946   7.543   5.472
 7436TIP3   OH222250   5.204   1.933   3.356
 7436TIP3    H122251   5.153   1.896   3.284
 7436TIP3    H222252   5.216   1.861   3.417
 7437TIP3   OH222253   4.319   4.119   3.657
 7437TIP3    H122254   4.227   4.092   3.659
 7437TIP3    H222255   4.350   4.089   3.571
 7438TIP3   OH222256   4.834   5.505   4.650
 7438TIP3    H122257   4.810   5.504   4.743
 7438TIP3    H222258   4.808   5.592   4.619
 7439TIP3   OH222259   1.530   3.704   2.539
 7439TIP3    H122260   1.472   3.651   2.483
 7439TIP3    H222261   1.480   3.716   2.620
 7440TIP3   OH222262   0.535   4.704   6.210
 7440TIP3    H122263   0.584   4.750   6.142
 7440TIP3    H222264   0.507   4.772   6.270
 7441TIP3   OH222265   7.283   1.333   6.381
 7441TIP3    H122266   7.220   1.325   6.453
 7441TIP3    H222267   7.240   1.290   6.307
 7442TIP3   OH222268   5.116   4.780   6.177
 7442TIP3    H122269   5.196   4.748   6.135
 7442TIP3    H222270   5.128   4.760   6.270
 7443TIP3   OH222271   5.088   1.161   5.518
 7443TIP3    H122272   5.160   1.097   5.525
 7443TIP3    H222273   5.133   1.245   5.507
 7444TIP3   OH222274   5.610   4.377   1.992
 7444TIP3    H122275   5.553   4.387   1.915
 7444TIP3    H222276   5.593   4.456   2.044
 7445TIP3   OH222277   5.354   4.971   4.391
 7445TIP3    H122278   5.308   4.888   4.401
 7445TIP3    H222279   5.391   4.968   4.303
 7446TIP3   OH222280   0.745   3.260   3.912
 7446TIP3    H122281   0.788   3.338   3.876
 7446TIP3    H222282   0.701   3.292   3.991
 7447TIP3   OH222283   3.942   0.446   3.005
 7447TIP3    H122284   3.984   0.502   3.070
 7447TIP3    H222285   4.014   0.417   2.948
 7448TIP3   OH222286   5.410   6.962   3.157
 7448TIP3    H122287   5.494   7.006   3.172
 7448TIP3    H222288   5.433   6.870   3.147
 7449TIP3   OH222289   3.927   6.285   1.614
 7449TIP3    H122290   3.868   6.228   1.565
 7449TIP3    H222291   3.953   6.353   1.553
 7450TIP3   OH222292   4.819   6.667   5.543
 7450TIP3    H122293   4.858   6.704   5.622
 7450TIP3    H222294   4.840   6.574   5.547
 7451TIP3   OH222295   6.309   6.646   3.167
 7451TIP3    H122296   6.362   6.628   3.090
 7451TIP3    H222297   6.229   6.595   3.154
 7452TIP3   OH222298   4.068   7.601   4.889
 7452TIP3    H122299   4.087   7.522   4.839
 7452TIP3    H222300   4.076   7.673   4.826
 7453TIP3   OH222301   2.224   3.644   4.485
 7453TIP3    H122302   2.145   3.689   4.455
 7453TIP3    H222303   2.197   3.601   4.566
 7454TIP3   OH222304   7.918   3.189   4.064
 7454TIP3    H122305   7.919   3.284   4.051
 7454TIP3    H222306   7.842   3.173   4.119
 7455TIP3   OH222307   8.171   6.925   1.269
 7455TIP3    H122308   8.179   6.843   1.317
 7455TIP3    H222309   8.195   6.904   1.179
 7456TIP3   OH222310   0.626   7.135   1.443
 7456TIP3    H122311   0.560   7.203   1.430
 7456TIP3    H222312   0.605   7.067   1.378
 7457TIP3   OH222313   4.635   0.421   2.070
 7457TIP3    H122314   4.656   0.359   2.140
 7457TIP3    H222315   4.668   0.505   2.101
 7458TIP3   OH222316   0.670   5.998   0.334
 7458TIP3    H122317   0.678   6.074   0.277
 7458TIP3    H222318   0.760   5.968   0.346
 7459TIP3   OH222319   3.483   6.914   2.421
 7459TIP3    H122320   3.469   6.925   2.515
 7459TIP3    H222321   3.526   6.995   2.393
 7460TIP3   OH222322   0.266   2.847   1.015
 7460TIP3    H122323   0.218   2.886   1.087
 7460TIP3    H222324   0.293   2.921   0.961
 7461TIP3   OH222325   8.040   5.246   6.513
 7461TIP3    H122326   7.953   5.212   6.534
 7461TIP3    H222327   8.049   5.232   6.418
 7462TIP3   OH222328   4.849   0.461   2.678
 7462TIP3    H122329   4.871   0.386   2.622
 7462TIP3    H222330   4.824   0.531   2.617
 7463TIP3   OH222331   6.837   4.972   1.977
 7463TIP3    H122332   6.844   4.884   1.941
 7463TIP3    H222333   6.926   4.993   2.006
 7464TIP3   OH222334   0.090   7.750   3.950
 7464TIP3    H122335   0.164   7.690   3.958
 7464TIP3    H222336   0.050   7.750   4.037
 7465TIP3   OH222337   4.755   3.979   4.643
 7465TIP3    H122338   4.847   3.953   4.635
 7465TIP3    H222339   4.758   4.070   4.673
 7466TIP3   OH222340   5.643   5.223   5.501
 7466TIP3    H122341   5.694   5.281   5.444
 7466TIP3    H222342   5.554   5.228   5.467
 7467TIP3   OH222343   0.318   5.482   2.349
 7467TIP3    H122344   0.238   5.531   2.329
 7467TIP3    H222345   0.384   5.549   2.363
 7468TIP3   OH222346   1.663   2.389   1.323
 7468TIP3    H122347   1.668   2.426   1.412
 7468TIP3    H222348   1.704   2.456   1.268
 7469TIP3   OH222349   3.061   1.596   0.693
 7469TIP3    H122350   2.990   1.616   0.632
 7469TIP3    H222351   3.127   1.552   0.640
 7470TIP3   OH222352   8.108   2.994   3.303
 7470TIP3    H122353   8.168   3.069   3.308
 7470TIP3    H222354   8.114   2.965   3.212
 7471TIP3   OH222355   4.285   5.488   1.416
 7471TIP3    H122356   4.235   5.422   1.369
 7471TIP3    H222357   4.259   5.572   1.376
 7472TIP3   OH222358   0.981   3.983   2.368
 7472TIP3    H122359   0.906   4.040   2.385
 7472TIP3    H222360   0.942   3.901   2.337
 7473TIP3   OH222361   2.727   7.216   2.625
 7473TIP3    H122362   2.772   7.163   2.690
 7473TIP3    H222363   2.796   7.268   2.584
 7474TIP3   OH222364   2.584   7.491   1.935
 7474TIP3    H122365   2.558   7.405   1.968
 7474TIP3    H222366   2.658   7.473   1.877
 7475TIP3   OH222367   0.832   3.690   3.767
 7475TIP3    H122368   0.854   3.614   3.713
 7475TIP3    H222369   0.777   3.655   3.837
 7476TIP3   OH222370   0.380   3.621   5.489
 7476TIP3    H122371   0.447   3.558   5.463
 7476TIP3    H222372   0.300   3.591   5.446
 7477TIP3   OH222373   8.062   3.921   3.365
 7477TIP3    H122374   8.021   3.835   3.377
 7477TIP3    H222375   8.147   3.913   3.409
 7478TIP3   OH222376   2.113   2.436   1.479
 7478TIP3    H122377   2.175   2.424   1.550
 7478TIP3    H222378   2.157   2.402   1.402
 7479TIP3   OH222379   6.257   3.765   6.633
 7479TIP3    H122380   6.244   3.700   6.702
 7479TIP3    H222381   6.289   3.843   6.678
 7480TIP3   OH222382   4.101   5.707   1.315
 7480TIP3    H122383   4.023   5.726   1.366
 7480TIP3    H222384   4.069   5.696   1.225
 7481TIP3   OH222385   2.619   5.080   0.851
 7481TIP3    H122386   2.594   5.017   0.918
 7481TIP3    H222387   2.628   5.163   0.899
 7482TIP3   OH222388   5.238   3.297   5.462
 7482TIP3    H122389   5.191   3.213   5.464
 7482TIP3    H222390   5.182   3.357   5.511
 7483TIP3   OH222391   0.433   4.928   6.366
 7483TIP3    H122392   0.431   4.933   6.461
 7483TIP3    H222393   0.464   5.014   6.338
 7484TIP3   OH222394   4.439   2.407   6.424
 7484TIP3    H122395   4.483   2.491   6.440
 7484TIP3    H222396   4.395   2.386   6.506
 7485TIP3   OH222397   3.148   0.075   0.088
 7485TIP3    H122398   3.098   0.145   0.046
 7485TIP3    H222399   3.144   0.003   0.026
 7486TIP3   OH222400   3.296   4.258   5.899
 7486TIP3    H122401   3.255   4.342   5.879
 7486TIP3    H222402   3.354   4.242   5.825
 7487TIP3   OH222403   3.432   3.351   6.731
 7487TIP3    H122404   3.509   3.405   6.713
 7487TIP3    H222405   3.424   3.354   6.827
 7488TIP3   OH222406   2.989   6.501   6.095
 7488TIP3    H122407   2.983   6.418   6.143
 7488TIP3    H222408   2.906   6.545   6.113
 7489TIP3   OH222409   3.600   2.509   2.853
 7489TIP3    H122410   3.575   2.544   2.939
 7489TIP3    H222411   3.517   2.495   2.808
 7490TIP3   OH222412   7.891   6.399   3.038
 7490TIP3    H122413   7.827   6.451   3.088
 7490TIP3    H222414   7.840   6.330   2.997
 7491TIP3   OH222415   5.755   2.935   0.046
 7491TIP3    H122416   5.800   3.019   0.054
 7491TIP3    H222417   5.801   2.890  -0.025
 7492TIP3   OH222418   6.864   7.163   2.090
 7492TIP3    H122419   6.787   7.209   2.121
 7492TIP3    H222420   6.851   7.155   1.995
 7493TIP3   OH222421   0.346   4.031   2.956
 7493TIP3    H122422   0.330   4.028   3.050
 7493TIP3    H222423   0.317   4.118   2.929
 7494TIP3   OH222424   0.001   1.126   0.456
 7494TIP3    H122425   0.052   1.191   0.504
 7494TIP3    H222426   0.027   1.042   0.495
 7495TIP3   OH222427   1.950   5.579   3.233
 7495TIP3    H122428   2.042   5.558   3.250
 7495TIP3    H222429   1.946   5.675   3.237
 7496TIP3   OH222430   2.501   1.592   2.424
 7496TIP3    H122431   2.529   1.517   2.475
 7496TIP3    H222432   2.412   1.610   2.453
 7497TIP3   OH222433   5.057   2.757   0.494
 7497TIP3    H122434   5.079   2.783   0.583
 7497TIP3    H222435   5.120   2.689   0.472
 7498TIP3   OH222436   0.995   6.587   6.643
 7498TIP3    H122437   1.037   6.670   6.662
 7498TIP3    H222438   1.015   6.532   6.719
 7499TIP3   OH222439   1.632   6.644   6.538
 7499TIP3    H122440   1.609   6.737   6.544
 7499TIP3    H222441   1.707   6.642   6.479
 7500TIP3   OH222442   5.564   6.079   6.223
 7500TIP3    H122443   5.560   6.029   6.304
 7500TIP3    H222444   5.544   6.016   6.154
 7501TIP3   OH222445   3.017   3.741   5.442
 7501TIP3    H122446   3.058   3.703   5.364
 7501TIP3    H222447   3.035   3.678   5.512
 7502TIP3   OH222448   5.904   1.498   1.930
 7502TIP3    H122449   5.888   1.538   1.845
 7502TIP3    H222450   5.840   1.427   1.936
 7503TIP3   OH222451   7.261   3.394   4.372
 7503TIP3    H122452   7.235   3.425   4.459
 7503TIP3    H222453   7.230   3.463   4.312
 7504TIP3   OH222454   0.985   5.799   3.164
 7504TIP3    H122455   0.956   5.803   3.256
 7504TIP3    H222456   1.027   5.884   3.149
 7505TIP3   OH222457   7.500   4.564   6.309
 7505TIP3    H122458   7.430   4.548   6.245
 7505TIP3    H222459   7.461   4.626   6.371
 7506TIP3   OH222460   5.092   7.327   1.265
 7506TIP3    H122461   5.153   7.316   1.192
 7506TIP3    H222462   5.107   7.251   1.320
 7507TIP3   OH222463   7.828   1.093   5.466
 7507TIP3    H122464   7.819   1.184   5.438
 7507TIP3    H222465   7.922   1.080   5.476
 7508TIP3   OH222466   5.826   1.788   0.850
 7508TIP3    H122467   5.774   1.864   0.876
 7508TIP3    H222468   5.840   1.739   0.932
 7509TIP3   OH222469   6.612   5.497   5.966
 7509TIP3    H122470   6.557   5.553   5.911
 7509TIP3    H222471   6.688   5.551   5.987
 7510TIP3   OH222472   6.567   7.486   3.170
 7510TIP3    H122473   6.489   7.528   3.132
 7510TIP3    H222474   6.555   7.393   3.151
 7511TIP3   OH222475   1.103   3.999   3.539
 7511TIP3    H122476   1.109   3.968   3.448
 7511TIP3    H222477   1.029   3.950   3.576
 7512TIP3   OH222478   1.258   5.824   1.453
 7512TIP3    H122479   1.307   5.828   1.371
 7512TIP3    H222480   1.324   5.803   1.519
 7513TIP3   OH222481   8.014   0.163   5.274
 7513TIP3    H122482   7.982   0.111   5.200
 7513TIP3    H222483   8.104   0.134   5.288
 7514TIP3   OH222484   6.499   6.820   1.852
 7514TIP3    H122485   6.493   6.780   1.939
 7514TIP3    H222486   6.533   6.908   1.867
 7515TIP3   OH222487   3.806   2.535   2.167
 7515TIP3    H122488   3.888   2.584   2.170
 7515TIP3    H222489   3.783   2.532   2.074
 7516TIP3   OH222490   1.966   0.170   0.573
 7516TIP3    H122491   1.962   0.221   0.654
 7516TIP3    H222492   1.955   0.235   0.503
 7517TIP3   OH222493   8.242   2.299   5.617
 7517TIP3    H122494   8.291   2.226   5.577
 7517TIP3    H222495   8.157   2.298   5.572
 7518TIP3   OH222496   6.273   2.839   4.480
 7518TIP3    H122497   6.265   2.853   4.574
 7518TIP3    H222498   6.295   2.746   4.471
 7519TIP3   OH222499   5.738   0.339   2.172
 7519TIP3    H122500   5.717   0.430   2.152
 7519TIP3    H222501   5.659   0.304   2.213
 7520TIP3   OH222502   0.815   4.349   2.891
 7520TIP3    H122503   0.747   4.295   2.932
 7520TIP3    H222504   0.797   4.437   2.923
 7521TIP3   OH222505   7.801   7.277   5.604
 7521TIP3    H122506   7.722   7.291   5.552
 7521TIP3    H222507   7.806   7.182   5.615
 7522TIP3   OH222508   0.718   3.918   0.802
 7522TIP3    H122509   0.688   3.836   0.762
 7522TIP3    H222510   0.802   3.896   0.841
 7523TIP3   OH222511   2.876   5.853   4.042
 7523TIP3    H122512   2.930   5.928   4.017
 7523TIP3    H222513   2.800   5.892   4.085
 7524TIP3   OH222514   0.248   1.501   6.085
 7524TIP3    H122515   0.208   1.499   6.172
 7524TIP3    H222516   0.338   1.529   6.101
 7525TIP3   OH222517   6.779   1.030   3.098
 7525TIP3    H122518   6.735   1.112   3.122
 7525TIP3    H222519   6.798   0.987   3.181
 7526TIP3   OH222520   3.593   4.471   5.009
 7526TIP3    H122521   3.575   4.392   4.958
 7526TIP3    H222522   3.689   4.478   5.009
 7527TIP3   OH222523   6.004   4.095   4.795
 7527TIP3    H122524   6.001   3.999   4.788
 7527TIP3    H222525   6.072   4.121   4.732
 7528TIP3   OH222526   6.990   1.728   3.529
 7528TIP3    H122527   7.062   1.738   3.592
 7528TIP3    H222528   6.915   1.769   3.572
 7529TIP3   OH222529   8.247   7.514   6.156
 7529TIP3    H122530   8.201   7.492   6.237
 7529TIP3    H222531   8.181   7.503   6.088
 7530TIP3   OH222532   7.240   3.843   4.614
 7530TIP3    H122533   7.319   3.790   4.604
 7530TIP3    H222534   7.254   3.891   4.695
 7531TIP3   OH222535   7.979   7.200   5.963
 7531TIP3    H122536   7.902   7.247   5.997
 7531TIP3    H222537   8.011   7.255   5.892
 7532TIP3   OH222538   5.324   5.465   6.696
 7532TIP3    H122539   5.298   5.420   6.776
 7532TIP3    H222540   5.330   5.395   6.630
 7533TIP3   OH222541   3.324   2.957   1.600
 7533TIP3    H122542   3.386   3.030   1.600
 7533TIP3    H222543   3.379   2.879   1.589
 7534TIP3   OH222544   1.894   4.271   1.742
 7534TIP3    H122545   1.980   4.314   1.743
 7534TIP3    H222546   1.913   4.180   1.722
 7535TIP3   OH222547   1.224   5.927   2.959
 7535TIP3    H122548   1.217   5.861   2.891
 7535TIP3    H222549   1.267   5.883   3.032
 7536TIP3   OH222550   1.872   7.265   2.197
 7536TIP3    H122551   1.801   7.307   2.246
 7536TIP3    H222552   1.919   7.337   2.156
 7537TIP3   OH222553   7.238   6.752   0.972
 7537TIP3    H122554   7.198   6.820   1.027
 7537TIP3    H222555   7.201   6.767   0.885
 7538TIP3   OH222556   6.322   3.740   4.240
 7538TIP3    H122557   6.345   3.827   4.271
 7538TIP3    H222558   6.318   3.686   4.319
 7539TIP3   OH222559   3.211   1.099   0.666
 7539TIP3    H122560   3.266   1.078   0.741
 7539TIP3    H222561   3.177   1.015   0.636
 7540TIP3   OH222562   0.801   6.242   4.834
 7540TIP3    H122563   0.789   6.337   4.839
 7540TIP3    H222564   0.757   6.208   4.912
 7541TIP3   OH222565   0.918   6.414   5.093
 7541TIP3    H122566   0.991   6.353   5.107
 7541TIP3    H222567   0.960   6.498   5.076
 7542TIP3   OH222568   6.072   1.036   2.105
 7542TIP3    H122569   6.089   1.002   2.193
 7542TIP3    H222570   6.054   1.129   2.118
 7543TIP3   OH222571   8.146   6.734   4.747
 7543TIP3    H122572   8.069   6.713   4.799
 7543TIP3    H222573   8.150   6.664   4.681
 7544TIP3   OH222574   7.006   2.236   2.382
 7544TIP3    H122575   6.911   2.243   2.386
 7544TIP3    H222576   7.033   2.310   2.329
 7545TIP3   OH222577   0.159   7.626   2.358
 7545TIP3    H122578   0.226   7.691   2.337
 7545TIP3    H222579   0.080   7.678   2.374
 7546TIP3   OH222580   7.900   6.999   0.747
 7546TIP3    H122581   7.973   6.957   0.702
 7546TIP3    H222582   7.854   7.047   0.679
 7547TIP3   OH222583   0.818   2.684   0.330
 7547TIP3    H122584   0.795   2.702   0.239
 7547TIP3    H222585   0.738   2.704   0.379
 7548TIP3   OH222586   1.111   4.031   0.975
 7548TIP3    H122587   1.036   4.024   1.034
 7548TIP3    H222588   1.180   3.980   1.018
 7549TIP3   OH222589   4.953   4.460   6.680
 7549TIP3    H122590   4.907   4.523   6.736
 7549TIP3    H222591   5.002   4.406   6.741
 7550TIP3   OH222592   3.552   6.571   0.267
 7550TIP3    H122593   3.645   6.558   0.288
 7550TIP3    H222594   3.519   6.625   0.339
 7551TIP3   OH222595   5.906   3.414   5.200
 7551TIP3    H122596   5.973   3.481   5.214
 7551TIP3    H222597   5.824   3.456   5.227
 7552TIP3   OH222598   0.217   0.080   2.790
 7552TIP3    H122599   0.159   0.122   2.854
 7552TIP3    H222600   0.169   0.083   2.708
 7553TIP3   OH222601   4.561   6.584   2.150
 7553TIP3    H122602   4.627   6.609   2.215
 7553TIP3    H222603   4.480   6.575   2.200
 7554TIP3   OH222604   1.065   0.054   0.389
 7554TIP3    H122605   1.126   0.032   0.319
 7554TIP3    H222606   1.073  -0.018   0.451
 7555TIP3   OH222607   1.055   3.591   3.510
 7555TIP3    H122608   1.125   3.654   3.492
 7555TIP3    H222609   0.990   3.608   3.442
 7556TIP3   OH222610   1.972   5.346   3.471
 7556TIP3    H122611   2.064   5.355   3.498
 7556TIP3    H222612   1.970   5.383   3.383
 7557TIP3   OH222613   2.449   7.658   0.494
 7557TIP3    H122614   2.513   7.592   0.466
 7557TIP3    H222615   2.439   7.715   0.417
 7558TIP3   OH222616   6.457   6.176   3.792
 7558TIP3    H122617   6.527   6.240   3.803
 7558TIP3    H222618   6.470   6.113   3.863
 7559TIP3   OH222619   1.144   1.423   6.338
 7559TIP3    H122620   1.152   1.375   6.255
 7559TIP3    H222621   1.181   1.509   6.319
 7560TIP3   OH222622   2.024   5.112   3.277
 7560TIP3    H122623   1.930   5.110   3.295
 7560TIP3    H222624   2.032   5.165   3.197
 7561TIP3   OH222625   2.294   6.423   2.018
 7561TIP3    H122626   2.367   6.437   2.078
 7561TIP3    H222627   2.310   6.482   1.945
 7562TIP3   OH222628   3.938   4.246   2.837
 7562TIP3    H122629   3.901   4.220   2.921
 7562TIP3    H222630   4.010   4.185   2.821
 7563TIP3   OH222631   0.906   1.598   2.515
 7563TIP3    H122632   0.841   1.591   2.446
 7563TIP3    H222633   0.962   1.520   2.503
 7564TIP3   OH222634   1.255   2.407   4.236
 7564TIP3    H122635   1.257   2.486   4.182
 7564TIP3    H222636   1.289   2.338   4.179
 7565TIP3   OH222637   1.291   3.004   4.871
 7565TIP3    H122638   1.224   3.040   4.813
 7565TIP3    H222639   1.289   2.910   4.856
 7566TIP3   OH222640   6.434   7.242   2.574
 7566TIP3    H122641   6.509   7.296   2.598
 7566TIP3    H222642   6.455   7.156   2.610
 7567TIP3   OH222643   5.136   4.880   1.585
 7567TIP3    H122644   5.075   4.809   1.602
 7567TIP3    H222645   5.151   4.920   1.671
 7568TIP3   OH222646   0.563   2.022   1.835
 7568TIP3    H122647   0.541   1.985   1.920
 7568TIP3    H222648   0.590   2.112   1.854
 7569TIP3   OH222649   1.057   2.583   6.328
 7569TIP3    H122650   1.101   2.512   6.374
 7569TIP3    H222651   1.121   2.654   6.326
 7570TIP3   OH222652   7.658   4.255   2.022
 7570TIP3    H122653   7.661   4.334   1.968
 7570TIP3    H222654   7.705   4.279   2.102
 7571TIP3   OH222655   1.526   1.297   5.033
 7571TIP3    H122656   1.469   1.252   5.095
 7571TIP3    H222657   1.611   1.300   5.077
 7572TIP3   OH222658   2.581   7.626   5.496
 7572TIP3    H122659   2.661   7.573   5.501
 7572TIP3    H222660   2.512   7.562   5.478
 7573TIP3   OH222661   2.993   0.634   0.361
 7573TIP3    H122662   3.056   0.660   0.294
 7573TIP3    H222663   3.023   0.548   0.390
 7574TIP3   OH222664   4.513   2.633   4.270
 7574TIP3    H122665   4.449   2.628   4.341
 7574TIP3    H222666   4.538   2.542   4.254
 7575TIP3   OH222667   0.623   1.563   0.194
 7575TIP3    H122668   0.557   1.502   0.227
 7575TIP3    H222669   0.676   1.584   0.270
 7576TIP3   OH222670   1.110   0.031   2.596
 7576TIP3    H122671   1.142   0.117   2.570
 7576TIP3    H222672   1.188  -0.024   2.596
 7577TIP3   OH222673   1.640   4.651   4.251
 7577TIP3    H122674   1.635   4.563   4.214
 7577TIP3    H222675   1.571   4.653   4.317
 7578TIP3   OH222676   2.839   7.480   5.435
 7578TIP3    H122677   2.811   7.421   5.365
 7578TIP3    H222678   2.866   7.423   5.506
 7579TIP3   OH222679   3.157   0.334   0.242
 7579TIP3    H122680   3.087   0.279   0.208
 7579TIP3    H222681   3.196   0.373   0.165
 7580TIP3   OH222682   4.082   6.196   2.277
 7580TIP3    H122683   4.025   6.148   2.337
 7580TIP3    H222684   4.070   6.288   2.300
 7581TIP3   OH222685   3.391   0.324   4.379
 7581TIP3    H122686   3.404   0.404   4.327
 7581TIP3    H222687   3.461   0.326   4.444
 7582TIP3   OH222688   4.030   0.930   2.250
 7582TIP3    H122689   4.120   0.936   2.218
 7582TIP3    H222690   3.999   0.846   2.218
 7583TIP3   OH222691   5.016   1.531   6.511
 7583TIP3    H122692   4.944   1.579   6.551
 7583TIP3    H222693   4.977   1.449   6.482
 7584TIP3   OH222694   0.997   1.979   1.613
 7584TIP3    H122695   0.985   1.910   1.547
 7584TIP3    H222696   1.054   2.043   1.571
 7585TIP3   OH222697   3.795   5.065   0.291
 7585TIP3    H122698   3.716   5.021   0.258
 7585TIP3    H222699   3.828   5.113   0.215
 7586TIP3   OH222700   5.144   3.337   3.662
 7586TIP3    H122701   5.128   3.416   3.609
 7586TIP3    H222702   5.095   3.352   3.743
 7587TIP3   OH222703   6.485   4.200   3.409
 7587TIP3    H122704   6.517   4.285   3.379
 7587TIP3    H222705   6.405   4.185   3.359
 7588TIP3   OH222706   6.830   6.856   1.718
 7588TIP3    H122707   6.817   6.786   1.654
 7588TIP3    H222708   6.747   6.861   1.765
 7589TIP3   OH222709   1.834   7.619   6.772
 7589TIP3    H122710   1.919   7.575   6.781
 7589TIP3    H222711   1.841   7.670   6.692
 7590TIP3   OH222712   3.264   4.990   2.478
 7590TIP3    H122713   3.300   5.077   2.460
 7590TIP3    H222714   3.291   4.937   2.403
 7591TIP3   OH222715   3.119   5.437   1.054
 7591TIP3    H122716   3.036   5.406   1.019
 7591TIP3    H222717   3.100   5.525   1.086
 7592TIP3   OH222718   1.533   5.399   0.738
 7592TIP3    H122719   1.476   5.389   0.662
 7592TIP3    H222720   1.541   5.493   0.750
 7593TIP3   OH222721   2.663   0.775   2.033
 7593TIP3    H122722   2.741   0.830   2.031
 7593TIP3    H222723   2.598   0.828   2.079
 7594TIP3   OH222724   6.228   7.837   5.956
 7594TIP3    H122725   6.161   7.904   5.939
 7594TIP3    H222726   6.213   7.771   5.888
 7595TIP3   OH222727   0.565   0.713   3.122
 7595TIP3    H122728   0.603   0.739   3.038
 7595TIP3    H222729   0.602   0.774   3.185
 7596TIP3   OH222730   3.453   7.329   0.809
 7596TIP3    H122731   3.537   7.325   0.854
 7596TIP3    H222732   3.471   7.376   0.728
 7597TIP3   OH222733   6.851   4.443   5.789
 7597TIP3    H122734   6.815   4.449   5.878
 7597TIP3    H222735   6.779   4.409   5.736
 7598TIP3   OH222736   7.734   6.869   1.569
 7598TIP3    H122737   7.766   6.780   1.585
 7598TIP3    H222738   7.668   6.884   1.636
 7599TIP3   OH222739   7.566   1.908   5.351
 7599TIP3    H122740   7.563   1.990   5.302
 7599TIP3    H222741   7.620   1.928   5.428
 7600TIP3   OH222742   1.785   0.918   3.231
 7600TIP3    H122743   1.875   0.937   3.257
 7600TIP3    H222744   1.763   0.838   3.278
 7601TIP3   OH222745   6.968   3.678   0.473
 7601TIP3    H122746   7.016   3.666   0.391
 7601TIP3    H222747   6.966   3.591   0.512
 7602TIP3   OH222748   3.352   1.304   4.535
 7602TIP3    H122749   3.348   1.399   4.523
 7602TIP3    H222750   3.349   1.291   4.629
 7603TIP3   OH222751   0.184   0.861   6.190
 7603TIP3    H122752   0.142   0.780   6.218
 7603TIP3    H222753   0.137   0.886   6.110
 7604TIP3   OH222754   5.853   1.961   4.425
 7604TIP3    H122755   5.771   1.955   4.376
 7604TIP3    H222756   5.827   1.991   4.512
 7605TIP3   OH222757   4.144   7.383   6.278
 7605TIP3    H122758   4.073   7.319   6.275
 7605TIP3    H222759   4.131   7.437   6.200
 7606TIP3   OH222760   3.010   3.164   5.530
 7606TIP3    H122761   2.919   3.161   5.560
 7606TIP3    H222762   3.060   3.189   5.607
 7607TIP3   OH222763   5.628   0.340   0.673
 7607TIP3    H122764   5.536   0.363   0.679
 7607TIP3    H222765   5.653   0.363   0.584
 7608TIP3   OH222766   7.085   0.878   0.993
 7608TIP3    H122767   7.059   0.790   0.968
 7608TIP3    H222768   7.167   0.867   1.041
 7609TIP3   OH222769   4.734   4.671   0.292
 7609TIP3    H122770   4.700   4.588   0.326
 7609TIP3    H222771   4.743   4.657   0.198
 7610TIP3   OH222772   1.927   4.450   4.265
 7610TIP3    H122773   1.914   4.384   4.197
 7610TIP3    H222774   2.022   4.463   4.268
 7611TIP3   OH222775   3.752   0.197   4.031
 7611TIP3    H122776   3.789   0.197   4.119
 7611TIP3    H222777   3.777   0.111   3.995
 7612TIP3   OH222778   7.507   1.135   5.731
 7612TIP3    H122779   7.501   1.170   5.642
 7612TIP3    H222780   7.548   1.050   5.721
 7613TIP3   OH222781   6.303   2.646   5.671
 7613TIP3    H122782   6.312   2.735   5.706
 7613TIP3    H222783   6.236   2.654   5.603
 7614TIP3   OH222784   0.827   5.221   1.591
 7614TIP3    H122785   0.773   5.171   1.530
 7614TIP3    H222786   0.912   5.177   1.590
 7615TIP3   OH222787   5.279   4.482   0.370
 7615TIP3    H122788   5.284   4.521   0.283
 7615TIP3    H222789   5.214   4.535   0.417
 7616TIP3   OH222790   6.876   6.684   6.496
 7616TIP3    H122791   6.882   6.628   6.573
 7616TIP3    H222792   6.861   6.623   6.423
 7617TIP3   OH222793   5.839   2.517   1.647
 7617TIP3    H122794   5.793   2.493   1.728
 7617TIP3    H222795   5.770   2.549   1.589
 7618TIP3   OH222796   2.161   3.036  -0.009
 7618TIP3    H122797   2.125   3.125  -0.008
 7618TIP3    H222798   2.101   2.986   0.047
 7619TIP3   OH222799   7.189   4.692   2.874
 7619TIP3    H122800   7.204   4.715   2.966
 7619TIP3    H222801   7.275   4.670   2.840
 7620TIP3   OH222802   0.659   0.571   1.522
 7620TIP3    H122803   0.722   0.550   1.453
 7620TIP3    H222804   0.581   0.602   1.475
 7621TIP3   OH222805   0.723   6.700   6.195
 7621TIP3    H122806   0.653   6.668   6.138
 7621TIP3    H222807   0.687   6.692   6.284
 7622TIP3   OH222808   4.999   1.780   3.199
 7622TIP3    H122809   4.952   1.863   3.189
 7622TIP3    H222810   4.931   1.716   3.216
 7623TIP3   OH222811   0.974   4.077   6.151
 7623TIP3    H122812   1.059   4.064   6.194
 7623TIP3    H222813   0.990   4.057   6.059
 7624TIP3   OH222814   5.420   4.327   6.531
 7624TIP3    H122815   5.333   4.367   6.527
 7624TIP3    H222816   5.480   4.401   6.524
 7625TIP3   OH222817   4.498   1.604   4.089
 7625TIP3    H122818   4.552   1.682   4.100
 7625TIP3    H222819   4.559   1.538   4.055
 7626TIP3   OH222820   3.271   3.309   5.456
 7626TIP3    H122821   3.180   3.279   5.465
 7626TIP3    H222822   3.319   3.257   5.520
 7627TIP3   OH222823   7.362   4.248   0.539
 7627TIP3    H122824   7.336   4.340   0.542
 7627TIP3    H222825   7.280   4.200   0.548
 7628TIP3   OH222826   3.154   5.601   1.582
 7628TIP3    H122827   3.115   5.669   1.527
 7628TIP3    H222828   3.083   5.572   1.639
 7629TIP3   OH222829   3.365   6.472   1.615
 7629TIP3    H122830   3.453   6.435   1.627
 7629TIP3    H222831   3.358   6.485   1.520
 7630TIP3   OH222832   1.663   3.411   3.373
 7630TIP3    H122833   1.720   3.362   3.433
 7630TIP3    H222834   1.615   3.471   3.429
 7631TIP3   OH222835   1.559   5.510   5.129
 7631TIP3    H122836   1.578   5.421   5.157
 7631TIP3    H222837   1.630   5.563   5.165
 7632TIP3   OH222838   1.182   7.160   4.968
 7632TIP3    H122839   1.228   7.184   4.887
 7632TIP3    H222840   1.095   7.134   4.939
 7633TIP3   OH222841   7.897   6.076   6.676
 7633TIP3    H122842   7.819   6.131   6.681
 7633TIP3    H222843   7.866   5.989   6.700
 7634TIP3   OH222844   7.740   5.010   3.926
 7634TIP3    H122845   7.659   5.056   3.943
 7634TIP3    H222846   7.720   4.918   3.944
 7635TIP3   OH222847   3.127   4.974   6.282
 7635TIP3    H122848   3.109   4.880   6.288
 7635TIP3    H222849   3.219   4.982   6.306
 7636TIP3   OH222850   6.133   5.048   3.528
 7636TIP3    H122851   6.049   5.045   3.574
 7636TIP3    H222852   6.188   5.104   3.584
 7637TIP3   OH222853   3.242   3.577   6.646
 7637TIP3    H122854   3.331   3.542   6.641
 7637TIP3    H222855   3.186   3.505   6.617
 7638TIP3   OH222856   6.816  -0.039   3.899
 7638TIP3    H122857   6.897  -0.006   3.860
 7638TIP3    H222858   6.775   0.038   3.938
 7639TIP3   OH222859   4.485   3.184   2.382
 7639TIP3    H122860   4.494   3.269   2.338
 7639TIP3    H222861   4.501   3.203   2.474
 7640TIP3   OH222862   2.576   0.085   1.070
 7640TIP3    H122863   2.578   0.017   1.003
 7640TIP3    H222864   2.571   0.037   1.153
 7641TIP3   OH222865   5.881   2.095   6.784
 7641TIP3    H122866   5.861   2.162   6.719
 7641TIP3    H222867   5.977   2.097   6.791
 7642TIP3   OH222868   5.954   4.662   2.768
 7642TIP3    H122869   6.045   4.663   2.738
 7642TIP3    H222870   5.915   4.587   2.723
 7643TIP3   OH222871   1.592   7.467   6.733
 7643TIP3    H122872   1.656   7.536   6.748
 7643TIP3    H222873   1.635   7.407   6.672
 7644TIP3   OH222874   7.422   4.041   4.811
 7644TIP3    H122875   7.483   3.969   4.829
 7644TIP3    H222876   7.478   4.114   4.786
 7645TIP3   OH222877   0.758   1.262   6.311
 7645TIP3    H122878   0.802   1.346   6.306
 7645TIP3    H222879   0.707   1.266   6.392
 7646TIP3   OH222880   4.805   0.439   4.969
 7646TIP3    H122881   4.778   0.508   5.030
 7646TIP3    H222882   4.757   0.361   4.998
 7647TIP3   OH222883   7.507   5.643   2.517
 7647TIP3    H122884   7.447   5.600   2.456
 7647TIP3    H222885   7.575   5.681   2.461
 7648TIP3   OH222886   5.371   5.372   0.377
 7648TIP3    H122887   5.408   5.369   0.289
 7648TIP3    H222888   5.426   5.435   0.424
 7649TIP3   OH222889   5.644   4.124   2.640
 7649TIP3    H122890   5.670   4.120   2.548
 7649TIP3    H222891   5.642   4.033   2.668
 7650TIP3   OH222892   7.862   6.784   1.248
 7650TIP3    H122893   7.883   6.786   1.155
 7650TIP3    H222894   7.772   6.816   1.254
 7651TIP3   OH222895   7.446   1.546  -0.001
 7651TIP3    H122896   7.359   1.538  -0.042
 7651TIP3    H222897   7.440   1.491   0.077
 7652TIP3   OH222898   1.276   2.737   5.416
 7652TIP3    H122899   1.215   2.691   5.357
 7652TIP3    H222900   1.358   2.689   5.407
 7653TIP3   OH222901   0.516   6.181   3.657
 7653TIP3    H122902   0.471   6.241   3.717
 7653TIP3    H222903   0.447   6.136   3.610
 7654TIP3   OH222904   7.032   2.535   4.228
 7654TIP3    H122905   6.974   2.594   4.180
 7654TIP3    H222906   7.096   2.592   4.271
 7655TIP3   OH222907   3.668   4.518   6.077
 7655TIP3    H122908   3.719   4.599   6.077
 7655TIP3    H222909   3.592   4.538   6.132
 7656TIP3   OH222910   0.610   2.629   1.915
 7656TIP3    H122911   0.538   2.622   1.977
 7656TIP3    H222912   0.683   2.584   1.957
 7657TIP3   OH222913   1.809   4.582   3.926
 7657TIP3    H122914   1.844   4.660   3.968
 7657TIP3    H222915   1.760   4.537   3.994
 7658TIP3   OH222916   2.270   2.652   4.341
 7658TIP3    H122917   2.315   2.714   4.399
 7658TIP3    H222918   2.223   2.707   4.279
 7659TIP3   OH222919   0.875   2.026   4.231
 7659TIP3    H122920   0.887   2.023   4.136
 7659TIP3    H222921   0.787   1.991   4.245
 7660TIP3   OH222922   4.933   1.712   2.665
 7660TIP3    H122923   4.882   1.690   2.743
 7660TIP3    H222924   4.929   1.807   2.660
 7661TIP3   OH222925   2.993   1.778   2.738
 7661TIP3    H122926   2.986   1.782   2.642
 7661TIP3    H222927   3.078   1.817   2.757
 7662TIP3   OH222928   0.149   6.129   3.824
 7662TIP3    H122929   0.238   6.164   3.834
 7662TIP3    H222930   0.099   6.170   3.894
 7663TIP3   OH222931   6.830   2.663   4.976
 7663TIP3    H122932   6.895   2.720   4.935
 7663TIP3    H222933   6.877   2.622   5.049
 7664TIP3   OH222934   7.766   4.669   2.261
 7664TIP3    H122935   7.750   4.628   2.176
 7664TIP3    H222936   7.680   4.674   2.302
 7665TIP3   OH222937   5.763   5.215   6.774
 7665TIP3    H122938   5.743   5.144   6.713
 7665TIP3    H222939   5.858   5.214   6.781
 7666TIP3   OH222940   0.332   1.992   2.023
 7666TIP3    H122941   0.325   1.967   2.115
 7666TIP3    H222942   0.279   2.071   2.015
 7667TIP3   OH222943   5.276   1.488   5.886
 7667TIP3    H122944   5.239   1.410   5.926
 7667TIP3    H222945   5.357   1.504   5.934
 7668TIP3   OH222946   5.162   1.745   2.998
 7668TIP3    H122947   5.141   1.830   2.959
 7668TIP3    H222948   5.112   1.743   3.080
 7669TIP3   OH222949   7.101   2.040   2.202
 7669TIP3    H122950   7.062   2.103   2.263
 7669TIP3    H222951   7.116   1.961   2.254
 7670TIP3   OH222952   0.814   5.029   6.570
 7670TIP3    H122953   0.891   5.000   6.620
 7670TIP3    H222954   0.793   4.955   6.514
 7671TIP3   OH222955   3.748   2.849   6.616
 7671TIP3    H122956   3.836   2.839   6.578
 7671TIP3    H222957   3.765   2.881   6.705
 7672TIP3   OH222958   4.722   7.361   1.422
 7672TIP3    H122959   4.646   7.336   1.370
 7672TIP3    H222960   4.691   7.359   1.513
 7673TIP3   OH222961   4.619   3.645   5.176
 7673TIP3    H122962   4.613   3.647   5.080
 7673TIP3    H222963   4.663   3.562   5.195
 7674TIP3   OH222964   3.988   6.034   4.696
 7674TIP3    H122965   3.953   6.123   4.690
 7674TIP3    H222966   4.077   6.041   4.663
 7675TIP3   OH222967   2.601   1.225   0.855
 7675TIP3    H122968   2.590   1.202   0.763
 7675TIP3    H222969   2.617   1.142   0.899
 7676TIP3   OH222970   7.328   4.339   1.517
 7676TIP3    H122971   7.408   4.383   1.490
 7676TIP3    H222972   7.303   4.285   1.442
 7677TIP3   OH222973   2.943   3.572   6.502
 7677TIP3    H122974   2.901   3.554   6.587
 7677TIP3    H222975   2.972   3.486   6.471
 7678TIP3   OH222976   2.629   1.097   3.266
 7678TIP3    H122977   2.683   1.120   3.191
 7678TIP3    H222978   2.646   1.004   3.280
 7679TIP3   OH222979   4.171   4.089   2.704
 7679TIP3    H122980   4.259   4.052   2.691
 7679TIP3    H222981   4.156   4.140   2.624
 7680TIP3   OH222982   1.975   5.537   6.504
 7680TIP3    H122983   2.035   5.611   6.506
 7680TIP3    H222984   1.965   5.511   6.595
 7681TIP3   OH222985   0.624   1.243   0.657
 7681TIP3    H122986   0.594   1.333   0.667
 7681TIP3    H222987   0.637   1.212   0.747
 7682TIP3   OH222988   0.252   3.800   1.089
 7682TIP3    H122989   0.263   3.786   1.183
 7682TIP3    H222990   0.186   3.869   1.082
 7683TIP3   OH222991   6.893   6.569   0.390
 7683TIP3    H122992   6.910   6.602   0.478
 7683TIP3    H222993   6.881   6.647   0.337
 7684TIP3   OH222994   3.788   7.442   3.157
 7684TIP3    H122995   3.864   7.474   3.109
 7684TIP3    H222996   3.824   7.397   3.233
 7685TIP3   OH222997   4.582   3.363   2.593
 7685TIP3    H122998   4.599   3.324   2.679
 7685TIP3    H222999   4.608   3.454   2.602
 7686TIP3   OH223000   4.868   5.826   5.633
 7686TIP3    H123001   4.883   5.861   5.545
 7686TIP3    H223002   4.792   5.874   5.665
 7687TIP3   OH223003   1.771   4.602   6.218
 7687TIP3    H123004   1.698   4.594   6.157
 7687TIP3    H223005   1.730   4.616   6.303
 7688TIP3   OH223006   4.175   3.155   5.590
 7688TIP3    H123007   4.159   3.241   5.550
 7688TIP3    H223008   4.115   3.153   5.665
 7689TIP3   OH223009   7.834   1.575   5.822
 7689TIP3    H123010   7.870   1.571   5.910
 7689TIP3    H223011   7.903   1.616   5.769
 7690TIP3   OH223012   5.873   5.545   0.137
 7690TIP3    H123013   5.803   5.480   0.137
 7690TIP3    H223014   5.949   5.498   0.101
 7691TIP3   OH223015   4.484   4.893   4.944
 7691TIP3    H123016   4.471   4.965   5.006
 7691TIP3    H223017   4.532   4.933   4.871
 7692TIP3   OH223018   1.905   4.912   3.121
 7692TIP3    H123019   1.931   5.000   3.093
 7692TIP3    H223020   1.977   4.856   3.093
 7693TIP3   OH223021   5.228   4.740   1.326
 7693TIP3    H123022   5.293   4.804   1.297
 7693TIP3    H223023   5.190   4.779   1.405
 7694TIP3   OH223024   0.624   6.597   3.383
 7694TIP3    H123025   0.608   6.635   3.296
 7694TIP3    H223026   0.542   6.553   3.406
 7695TIP3   OH223027   4.376   1.984   5.479
 7695TIP3    H123028   4.439   2.054   5.462
 7695TIP3    H223029   4.297   2.010   5.431
 7696TIP3   OH223030   0.534   0.395   3.540
 7696TIP3    H123031   0.459   0.437   3.582
 7696TIP3    H223032   0.495   0.335   3.476
 7697TIP3   OH223033   1.483   3.988   2.930
 7697TIP3    H123034   1.444   3.901   2.927
 7697TIP3    H223035   1.573   3.976   2.901
 7698TIP3   OH223036   2.450   4.348   2.436
 7698TIP3    H123037   2.478   4.268   2.392
 7698TIP3    H223038   2.359   4.331   2.461
 7699TIP3   OH223039   2.725   5.527   2.575
 7699TIP3    H123040   2.665   5.483   2.635
 7699TIP3    H223041   2.671   5.552   2.500
 7700TIP3   OH223042   6.943   2.747   2.537
 7700TIP3    H123043   6.959   2.837   2.567
 7700TIP3    H223044   7.013   2.696   2.577
 7701TIP3   OH223045   0.918   2.840   1.038
 7701TIP3    H123046   0.896   2.751   1.064
 7701TIP3    H223047   1.001   2.832   0.990
 7702TIP3   OH223048   7.153   0.358   1.315
 7702TIP3    H123049   7.193   0.275   1.340
 7702TIP3    H223050   7.060   0.338   1.303
 7703TIP3   OH223051   0.159   5.446   3.350
 7703TIP3    H123052   0.069   5.443   3.380
 7703TIP3    H223053   0.208   5.390   3.411
 7704TIP3   OH223054   0.848   5.286   0.474
 7704TIP3    H123055   0.760   5.249   0.466
 7704TIP3    H223056   0.833   5.379   0.494
 7705TIP3   OH223057   2.984   4.167   1.361
 7705TIP3    H123058   2.914   4.106   1.337
 7705TIP3    H223059   3.061   4.112   1.372
 7706TIP3   OH223060   6.966   6.038   5.224
 7706TIP3    H123061   6.902   6.091   5.272
 7706TIP3    H223062   6.920   6.010   5.145
 7707TIP3   OH223063   2.736   4.409   6.110
 7707TIP3    H123064   2.717   4.493   6.151
 7707TIP3    H223065   2.816   4.379   6.153
 7708TIP3   OH223066   3.009   3.733   6.770
 7708TIP3    H123067   3.065   3.679   6.714
 7708TIP3    H223068   3.048   3.820   6.766
 7709TIP3   OH223069   6.564   4.768   0.776
 7709TIP3    H123070   6.475   4.736   0.764
 7709TIP3    H223071   6.576   4.772   0.870
 7710TIP3   OH223072   5.698   0.877   4.308
 7710TIP3    H123073   5.732   0.788   4.318
 7710TIP3    H223074   5.620   0.865   4.253
 7711TIP3   OH223075   5.789   7.060   2.611
 7711TIP3    H123076   5.749   7.033   2.528
 7711TIP3    H223077   5.832   7.143   2.591
 7712TIP3   OH223078   6.399   5.300   5.836
 7712TIP3    H123079   6.325   5.321   5.893
 7712TIP3    H223080   6.476   5.316   5.891
 7713TIP3   OH223081   2.702   2.630   0.999
 7713TIP3    H123082   2.754   2.554   1.027
 7713TIP3    H223083   2.766   2.692   0.966
 7714TIP3   OH223084   4.340   4.379   1.724
 7714TIP3    H123085   4.392   4.430   1.662
 7714TIP3    H223086   4.312   4.303   1.673
 7715TIP3   OH223087   5.309   6.307   1.017
 7715TIP3    H123088   5.333   6.389   1.060
 7715TIP3    H223089   5.232   6.329   0.965
 7716TIP3   OH223090   2.380   3.248   4.636
 7716TIP3    H123091   2.429   3.184   4.688
 7716TIP3    H223092   2.409   3.232   4.546
 7717TIP3   OH223093   7.363   1.022   0.734
 7717TIP3    H123094   7.457   1.039   0.727
 7717TIP3    H223095   7.330   1.030   0.645
 7718TIP3   OH223096   1.104   3.288   0.471
 7718TIP3    H123097   1.163   3.307   0.544
 7718TIP3    H223098   1.019   3.323   0.499
 7719TIP3   OH223099   2.966   3.430   3.308
 7719TIP3    H123100   2.944   3.519   3.279
 7719TIP3    H223101   2.882   3.386   3.314
 7720TIP3   OH223102   7.691   0.327   6.129
 7720TIP3    H123103   7.738   0.373   6.198
 7720TIP3    H223104   7.712   0.376   6.049
 7721TIP3   OH223105   0.263   5.153   2.737
 7721TIP3    H123106   0.306   5.078   2.697
 7721TIP3    H223107   0.191   5.174   2.677
 7722TIP3   OH223108   4.940   3.923   5.283
 7722TIP3    H123109   4.943   3.896   5.375
 7722TIP3    H223110   4.847   3.930   5.263
 7723TIP3   OH223111   6.200   2.556   3.809
 7723TIP3    H123112   6.254   2.612   3.866
 7723TIP3    H223113   6.262   2.521   3.745
 7724TIP3   OH223114   6.216   3.408   1.226
 7724TIP3    H123115   6.299   3.444   1.257
 7724TIP3    H223116   6.206   3.326   1.274
 7725TIP3   OH223117   6.762   2.112   0.412
 7725TIP3    H123118   6.828   2.150   0.354
 7725TIP3    H223119   6.778   2.154   0.497
 7726TIP3   OH223120   4.782   6.438   5.313
 7726TIP3    H123121   4.771   6.529   5.285
 7726TIP3    H223122   4.708   6.391   5.273
 7727TIP3   OH223123   7.227   5.591   1.193
 7727TIP3    H123124   7.246   5.682   1.171
 7727TIP3    H223125   7.279   5.574   1.272
 7728TIP3   OH223126   3.528   2.931   3.593
 7728TIP3    H123127   3.514   2.837   3.593
 7728TIP3    H223128   3.481   2.963   3.516
 7729TIP3   OH223129   8.174   0.705   4.155
 7729TIP3    H123130   8.245   0.688   4.093
 7729TIP3    H223131   8.217   0.709   4.240
 7730TIP3   OH223132   2.265   4.875   4.055
 7730TIP3    H123133   2.275   4.970   4.061
 7730TIP3    H223134   2.297   4.842   4.139
 7731TIP3   OH223135   7.428   0.820   3.447
 7731TIP3    H123136   7.350   0.789   3.494
 7731TIP3    H223137   7.501   0.786   3.499
 7732TIP3   OH223138   5.015   3.357   3.002
 7732TIP3    H123139   4.939   3.332   2.949
 7732TIP3    H223140   5.019   3.291   3.071
 7733TIP3   OH223141   2.771   1.498   3.303
 7733TIP3    H123142   2.743   1.443   3.377
 7733TIP3    H223143   2.692   1.507   3.250
 7734TIP3   OH223144   6.907   1.834   5.111
 7734TIP3    H123145   6.885   1.794   5.028
 7734TIP3    H223146   7.000   1.815   5.123
 7735TIP3   OH223147   1.957   3.429   6.604
 7735TIP3    H123148   1.895   3.398   6.537
 7735TIP3    H223149   1.965   3.523   6.587
 7736TIP3   OH223150   0.108   5.255   2.264
 7736TIP3    H123151   0.152   5.304   2.195
 7736TIP3    H223152   0.061   5.185   2.219
 7737TIP3   OH223153   5.647   2.218   6.248
 7737TIP3    H123154   5.716   2.276   6.216
 7737TIP3    H223155   5.636   2.153   6.179
 7738TIP3   OH223156   7.735   6.033   4.792
 7738TIP3    H123157   7.785   6.002   4.867
 7738TIP3    H223158   7.724   5.956   4.736
 7739TIP3   OH223159   6.728   5.434   2.850
 7739TIP3    H123160   6.687   5.412   2.934
 7739TIP3    H223161   6.681   5.512   2.820
 7740TIP3   OH223162   2.348   3.946   2.371
 7740TIP3    H123163   2.306   3.861   2.384
 7740TIP3    H223164   2.307   4.004   2.436
 7741TIP3   OH223165   4.129   5.431   3.779
 7741TIP3    H123166   4.054   5.396   3.828
 7741TIP3    H223167   4.204   5.384   3.813
 7742TIP3   OH223168   7.582   6.091   5.842
 7742TIP3    H123169   7.566   5.997   5.834
 7742TIP3    H223170   7.497   6.131   5.825
 7743TIP3   OH223171   4.527   4.055   4.162
 7743TIP3    H123172   4.505   4.140   4.201
 7743TIP3    H223173   4.459   3.996   4.195
 7744TIP3   OH223174   7.294   0.485   4.025
 7744TIP3    H123175   7.290   0.389   4.025
 7744TIP3    H223176   7.207   0.513   3.998
 7745TIP3   OH223177   3.677   2.268   1.954
 7745TIP3    H123178   3.647   2.344   1.903
 7745TIP3    H223179   3.596   2.227   1.985
 7746TIP3   OH223180   6.677   3.584   1.363
 7746TIP3    H123181   6.752   3.524   1.357
 7746TIP3    H223182   6.709   3.657   1.416
 7747TIP3   OH223183   4.853   2.629   1.894
 7747TIP3    H123184   4.778   2.619   1.953
 7747TIP3    H223185   4.896   2.544   1.895
 7748TIP3   OH223186   5.061   0.799   3.639
 7748TIP3    H123187   5.120   0.762   3.574
 7748TIP3    H223188   5.084   0.755   3.721
 7749TIP3   OH223189   6.389   6.917   1.633
 7749TIP3    H123190   6.312   6.875   1.595
 7749TIP3    H223191   6.416   6.858   1.704
 7750TIP3   OH223192   6.008   4.312   3.136
 7750TIP3    H123193   5.991   4.351   3.222
 7750TIP3    H223194   5.924   4.275   3.110
 7751TIP3   OH223195   3.917   7.710   6.262
 7751TIP3    H123196   3.995   7.766   6.263
 7751TIP3    H223197   3.892   7.703   6.354
 7752TIP3   OH223198   2.341   2.845   1.845
 7752TIP3    H123199   2.355   2.822   1.937
 7752TIP3    H223200   2.425   2.881   1.817
 7753TIP3   OH223201   0.674   1.081   0.871
 7753TIP3    H123202   0.657   1.138   0.946
 7753TIP3    H223203   0.744   1.023   0.900
 7754TIP3   OH223204   2.603   1.855   2.496
 7754TIP3    H123205   2.554   1.784   2.455
 7754TIP3    H223206   2.594   1.929   2.436
 7755TIP3   OH223207   7.487   2.640   6.139
 7755TIP3    H123208   7.555   2.609   6.080
 7755TIP3    H223209   7.514   2.610   6.225
 7756TIP3   OH223210   8.019   1.382   1.533
 7756TIP3    H123211   8.026   1.290   1.557
 7756TIP3    H223212   7.925   1.400   1.529
 7757TIP3   OH223213   2.931   2.414   6.058
 7757TIP3    H123214   2.904   2.501   6.029
 7757TIP3    H223215   2.872   2.354   6.013
 7758TIP3   OH223216   2.398   5.365   3.336
 7758TIP3    H123217   2.482   5.408   3.319
 7758TIP3    H223218   2.396   5.292   3.275
 7759TIP3   OH223219   1.970   5.407   5.572
 7759TIP3    H123220   2.026   5.367   5.506
 7759TIP3    H223221   1.885   5.414   5.530
 7760TIP3   OH223222  -0.001   5.058   1.131
 7760TIP3    H123223  -0.023   4.972   1.167
 7760TIP3    H223224   0.095   5.056   1.122
 7761TIP3   OH223225   4.161   6.227   4.423
 7761TIP3    H123226   4.181   6.176   4.344
 7761TIP3    H223227   4.131   6.312   4.389
 7762TIP3   OH223228   3.904   6.538   5.418
 7762TIP3    H123229   3.859   6.465   5.375
 7762TIP3    H223230   3.916   6.510   5.508
 7763TIP3   OH223231   7.471   2.764   5.522
 7763TIP3    H123232   7.435   2.677   5.507
 7763TIP3    H223233   7.556   2.748   5.565
 7764TIP3   OH223234   0.152   1.226   5.156
 7764TIP3    H123235   0.125   1.208   5.066
 7764TIP3    H223236   0.247   1.217   5.156
 7765TIP3   OH223237   7.438   3.663   3.188
 7765TIP3    H123238   7.520   3.709   3.207
 7765TIP3    H223239   7.445   3.582   3.238
 7766TIP3   OH223240   5.038   4.220   5.935
 7766TIP3    H123241   4.968   4.229   5.999
 7766TIP3    H223242   4.994   4.203   5.852
 7767TIP3   OH223243   4.987   0.976   0.559
 7767TIP3    H123244   4.910   0.919   0.553
 7767TIP3    H223245   5.014   0.989   0.468
 7768TIP3   OH223246   3.254   6.954   5.459
 7768TIP3    H123247   3.257   6.893   5.384
 7768TIP3    H223248   3.166   6.945   5.494
 7769TIP3   OH223249   3.775   5.297   4.579
 7769TIP3    H123250   3.697   5.314   4.631
 7769TIP3    H223251   3.822   5.229   4.629
 7770TIP3   OH223252   0.757   6.637   3.785
 7770TIP3    H123253   0.739   6.716   3.836
 7770TIP3    H223254   0.675   6.587   3.790
 7771TIP3   OH223255   3.362   6.802   3.704
 7771TIP3    H123256   3.357   6.897   3.699
 7771TIP3    H223257   3.422   6.785   3.777
 7772TIP3   OH223258   4.192   5.373   5.553
 7772TIP3    H123259   4.242   5.377   5.635
 7772TIP3    H223260   4.129   5.445   5.559
 7773TIP3   OH223261   1.132   6.356   2.313
 7773TIP3    H123262   1.083   6.373   2.233
 7773TIP3    H223263   1.066   6.324   2.375
 7774TIP3   OH223264   7.326   5.809   3.884
 7774TIP3    H123265   7.243   5.794   3.928
 7774TIP3    H223266   7.334   5.905   3.879
 7775TIP3   OH223267   7.876   7.608   2.885
 7775TIP3    H123268   7.829   7.544   2.939
 7775TIP3    H223269   7.912   7.557   2.813
 7776TIP3   OH223270   0.560   5.864   5.410
 7776TIP3    H123271   0.639   5.918   5.416
 7776TIP3    H223272   0.525   5.882   5.323
 7777TIP3   OH223273   2.092   4.764   2.046
 7777TIP3    H123274   2.074   4.849   2.006
 7777TIP3    H223275   2.058   4.771   2.135
 7778TIP3   OH223276   4.505   2.805   4.056
 7778TIP3    H123277   4.415   2.836   4.051
 7778TIP3    H223278   4.507   2.748   4.133
 7779TIP3   OH223279   4.838   5.575   2.407
 7779TIP3    H123280   4.794   5.653   2.374
 7779TIP3    H223281   4.878   5.536   2.330
 7780TIP3   OH223282   0.150   2.793   4.217
 7780TIP3    H123283   0.148   2.888   4.221
 7780TIP3    H223284   0.080   2.765   4.278
 7781TIP3   OH223285   2.616   6.508   2.427
 7781TIP3    H123286   2.668   6.586   2.411
 7781TIP3    H223287   2.677   6.448   2.471
 7782TIP3   OH223288   2.242   3.578   0.159
 7782TIP3    H123289   2.232   3.630   0.238
 7782TIP3    H223290   2.163   3.523   0.156
 7783TIP3   OH223291   2.507   2.060   3.665
 7783TIP3    H123292   2.459   1.982   3.695
 7783TIP3    H223293   2.592   2.053   3.710
 7784TIP3   OH223294   5.354   2.272   5.069
 7784TIP3    H123295   5.322   2.225   4.993
 7784TIP3    H223296   5.288   2.340   5.085
 7785TIP3   OH223297   1.436   2.768   2.235
 7785TIP3    H123298   1.360   2.734   2.281
 7785TIP3    H223299   1.511   2.732   2.282
 7786TIP3   OH223300   6.995   3.887   0.632
 7786TIP3    H123301   7.017   3.821   0.566
 7786TIP3    H223302   7.079   3.912   0.670
 7787TIP3   OH223303   3.095   0.816   1.474
 7787TIP3    H123304   3.126   0.903   1.497
 7787TIP3    H223305   3.133   0.798   1.388
 7788TIP3   OH223306   4.015   0.417   0.160
 7788TIP3    H123307   4.091   0.416   0.102
 7788TIP3    H223308   4.044   0.371   0.239
 7789TIP3   OH223309   5.087   3.582   3.540
 7789TIP3    H123310   5.117   3.604   3.628
 7789TIP3    H223311   5.144   3.631   3.481
 7790TIP3   OH223312   2.478   4.287   5.568
 7790TIP3    H123313   2.461   4.193   5.573
 7790TIP3    H223314   2.526   4.298   5.486
 7791TIP3   OH223315   2.244   4.556   1.937
 7791TIP3    H123316   2.218   4.638   1.980
 7791TIP3    H223317   2.163   4.506   1.932
 7792TIP3   OH223318   5.473   0.931   3.040
 7792TIP3    H123319   5.429   0.984   3.106
 7792TIP3    H223320   5.421   0.851   3.036
 7793TIP3   OH223321   1.827   5.462   2.090
 7793TIP3    H123322   1.750   5.480   2.036
 7793TIP3    H223323   1.807   5.379   2.134
 7794TIP3   OH223324   0.937   2.354   4.927
 7794TIP3    H123325   0.969   2.408   4.855
 7794TIP3    H223326   0.848   2.384   4.942
 7795TIP3   OH223327   3.435   7.482   6.627
 7795TIP3    H123328   3.460   7.542   6.698
 7795TIP3    H223329   3.352   7.444   6.656
 7796TIP3   OH223330   6.864   3.597   3.226
 7796TIP3    H123331   6.794   3.598   3.160
 7796TIP3    H223332   6.891   3.505   3.231
 7797TIP3   OH223333   7.258   6.966   5.758
 7797TIP3    H123334   7.182   7.010   5.796
 7797TIP3    H223335   7.242   6.970   5.664
 7798TIP3   OH223336   4.492   1.817   3.029
 7798TIP3    H123337   4.432   1.879   2.987
 7798TIP3    H223338   4.435   1.746   3.060
 7799TIP3   OH223339   0.917   2.884   3.803
 7799TIP3    H123340   0.920   2.949   3.874
 7799TIP3    H223341   0.824   2.866   3.791
 7800TIP3   OH223342   5.841   4.551   4.144
 7800TIP3    H123343   5.840   4.618   4.076
 7800TIP3    H223344   5.888   4.591   4.217
 7801TIP3   OH223345   6.130   1.177   4.107
 7801TIP3    H123346   6.092   1.116   4.170
 7801TIP3    H223347   6.061   1.189   4.041
 7802TIP3   OH223348   0.832   6.173   5.829
 7802TIP3    H123349   0.786   6.244   5.784
 7802TIP3    H223350   0.923   6.180   5.798
 7803TIP3   OH223351   5.765   4.338   3.971
 7803TIP3    H123352   5.769   4.243   3.974
 7803TIP3    H223353   5.802   4.366   4.055
 7804TIP3   OH223354   5.280   7.335   2.409
 7804TIP3    H123355   5.343   7.344   2.480
 7804TIP3    H223356   5.221   7.265   2.438
 7805TIP3   OH223357   1.653   1.461   1.377
 7805TIP3    H123358   1.698   1.545   1.386
 7805TIP3    H223359   1.564   1.485   1.349
 7806TIP3   OH223360   2.498   3.458   4.906
 7806TIP3    H123361   2.486   3.533   4.964
 7806TIP3    H223362   2.593   3.451   4.896
 7807TIP3   OH223363   4.170   7.391   1.411
 7807TIP3    H123364   4.221   7.365   1.335
 7807TIP3    H223365   4.100   7.326   1.416
 7808TIP3   OH223366   2.558   7.017   4.423
 7808TIP3    H123367   2.578   7.055   4.338
 7808TIP3    H223368   2.639   7.026   4.473
 7809TIP3   OH223369   0.378   3.133   0.394
 7809TIP3    H123370   0.455   3.154   0.340
 7809TIP3    H223371   0.414   3.098   0.475
 7810TIP3   OH223372   5.482   6.899   6.103
 7810TIP3    H123373   5.401   6.950   6.105
 7810TIP3    H223374   5.523   6.918   6.187
 7811TIP3   OH223375   5.501   1.732   0.829
 7811TIP3    H123376   5.413   1.719   0.866
 7811TIP3    H223377   5.512   1.828   0.829
 7812TIP3   OH223378   8.035   4.825   1.437
 7812TIP3    H123379   8.010   4.758   1.373
 7812TIP3    H223380   8.130   4.817   1.443
 7813TIP3   OH223381   6.181   5.380   2.545
 7813TIP3    H123382   6.253   5.338   2.498
 7813TIP3    H223383   6.221   5.457   2.586
 7814TIP3   OH223384   5.550   7.449   4.988
 7814TIP3    H123385   5.544   7.533   4.942
 7814TIP3    H223386   5.642   7.423   4.980
 7815TIP3   OH223387   1.717   6.243   1.473
 7815TIP3    H123388   1.686   6.187   1.544
 7815TIP3    H223389   1.785   6.297   1.514
 7816TIP3   OH223390   1.694   6.703   0.079
 7816TIP3    H123391   1.782   6.706   0.117
 7816TIP3    H223392   1.648   6.637   0.130
 7817TIP3   OH223393   3.157   5.889   6.734
 7817TIP3    H123394   3.216   5.832   6.782
 7817TIP3    H223395   3.139   5.842   6.652
 7818TIP3   OH223396   5.408   5.769   4.543
 7818TIP3    H123397   5.455   5.714   4.606
 7818TIP3    H223398   5.411   5.721   4.461
 7819TIP3   OH223399   3.732   1.272   3.262
 7819TIP3    H123400   3.682   1.230   3.191
 7819TIP3    H223401   3.809   1.217   3.273
 7820TIP3   OH223402   0.404   4.367   4.856
 7820TIP3    H123403   0.345   4.302   4.895
 7820TIP3    H223404   0.421   4.429   4.926
 7821TIP3   OH223405   1.480   4.538   1.290
 7821TIP3    H123406   1.511   4.613   1.239
 7821TIP3    H223407   1.553   4.476   1.289
 7822TIP3   OH223408   2.223   6.142   5.866
 7822TIP3    H123409   2.260   6.155   5.779
 7822TIP3    H223410   2.128   6.144   5.851
 7823TIP3   OH223411   3.275   4.457   4.729
 7823TIP3    H123412   3.203   4.398   4.704
 7823TIP3    H223413   3.234   4.522   4.786
 7824TIP3   OH223414   4.409   3.170   4.259
 7824TIP3    H123415   4.333   3.218   4.291
 7824TIP3    H223416   4.374   3.107   4.196
 7825TIP3   OH223417   1.584   5.751   4.053
 7825TIP3    H123418   1.642   5.815   4.094
 7825TIP3    H223419   1.628   5.726   3.972
 7826TIP3   OH223420   1.967   5.796   3.850
 7826TIP3    H123421   1.881   5.762   3.828
 7826TIP3    H223422   2.029   5.737   3.806
 7827TIP3   OH223423   6.672   5.051   5.900
 7827TIP3    H123424   6.661   5.080   5.809
 7827TIP3    H223425   6.759   5.082   5.924
 7828TIP3   OH223426   2.483   1.741   5.253
 7828TIP3    H123427   2.473   1.717   5.160
 7828TIP3    H223428   2.572   1.776   5.258
 7829TIP3   OH223429   3.634   1.983   3.813
 7829TIP3    H123430   3.638   2.009   3.905
 7829TIP3    H223431   3.690   1.905   3.808
 7830TIP3   OH223432   7.407   3.508   3.915
 7830TIP3    H123433   7.361   3.431   3.882
 7830TIP3    H223434   7.430   3.558   3.837
 7831TIP3   OH223435   6.226   7.653   5.731
 7831TIP3    H123436   6.287   7.678   5.662
 7831TIP3    H223437   6.233   7.558   5.737
 7832TIP3   OH223438   2.580   5.171   3.562
 7832TIP3    H123439   2.486   5.158   3.551
 7832TIP3    H223440   2.589   5.213   3.647
 7833TIP3   OH223441   2.441   2.312   0.864
 7833TIP3    H123442   2.398   2.340   0.945
 7833TIP3    H223443   2.378   2.255   0.822
 7834TIP3   OH223444   5.805   2.857   6.053
 7834TIP3    H123445   5.759   2.783   6.092
 7834TIP3    H223446   5.859   2.892   6.124
 7835TIP3   OH223447   1.820   1.733   5.365
 7835TIP3    H123448   1.878   1.678   5.417
 7835TIP3    H223449   1.845   1.715   5.274
 7836TIP3   OH223450   2.286   0.199   2.159
 7836TIP3    H123451   2.216   0.220   2.097
 7836TIP3    H223452   2.243   0.146   2.226
 7837TIP3   OH223453   4.632   4.383   1.633
 7837TIP3    H123454   4.724   4.373   1.606
 7837TIP3    H223455   4.616   4.307   1.689
 7838TIP3   OH223456   7.044   4.920   1.406
 7838TIP3    H123457   6.981   4.921   1.334
 7838TIP3    H223458   7.083   5.008   1.404
 7839TIP3   OH223459   4.620   6.564   1.865
 7839TIP3    H123460   4.533   6.538   1.835
 7839TIP3    H223461   4.615   6.562   1.960
 7840TIP3   OH223462   5.301   1.271   3.548
 7840TIP3    H123463   5.264   1.218   3.477
 7840TIP3    H223464   5.339   1.347   3.503
 7841TIP3   OH223465   2.277   1.657   3.220
 7841TIP3    H123466   2.308   1.699   3.300
 7841TIP3    H223467   2.236   1.728   3.170
 7842TIP3   OH223468   5.271   1.509   0.999
 7842TIP3    H123469   5.191   1.469   1.035
 7842TIP3    H223470   5.299   1.449   0.930
 7843TIP3   OH223471   1.220   3.700   5.040
 7843TIP3    H123472   1.302   3.676   5.082
 7843TIP3    H223473   1.170   3.618   5.036
 7844TIP3   OH223474   5.156   7.508   3.755
 7844TIP3    H123475   5.065   7.537   3.755
 7844TIP3    H223476   5.185   7.520   3.664
 7845TIP3   OH223477   4.555   0.431   1.379
 7845TIP3    H123478   4.622   0.392   1.324
 7845TIP3    H223479   4.497   0.477   1.318
 7846TIP3   OH223480   8.048   0.136   1.808
 7846TIP3    H123481   8.142   0.148   1.791
 7846TIP3    H223482   8.013   0.224   1.817
 7847TIP3   OH223483   3.196   6.553   2.695
 7847TIP3    H123484   3.115   6.526   2.738
 7847TIP3    H223485   3.217   6.482   2.636
 7848TIP3   OH223486   0.090   6.814   5.829
 7848TIP3    H123487   0.099   6.882   5.763
 7848TIP3    H223488   0.002   6.778   5.815
 7849TIP3   OH223489   4.397   6.916   4.963
 7849TIP3    H123490   4.387   6.892   4.871
 7849TIP3    H223491   4.312   6.900   5.002
 7850TIP3   OH223492   2.625   3.771   0.874
 7850TIP3    H123493   2.711   3.812   0.862
 7850TIP3    H223494   2.610   3.724   0.792
 7851TIP3   OH223495   1.681   7.372   2.428
 7851TIP3    H123496   1.661   7.454   2.383
 7851TIP3    H223497   1.762   7.390   2.476
 7852TIP3   OH223498   2.751   4.485   5.329
 7852TIP3    H123499   2.774   4.562   5.278
 7852TIP3    H223500   2.811   4.487   5.404
 7853TIP3   OH223501   2.261   0.675   3.705
 7853TIP3    H123502   2.170   0.657   3.679
 7853TIP3    H223503   2.260   0.767   3.732
 7854TIP3   OH223504   0.114   6.392   6.148
 7854TIP3    H123505   0.187   6.348   6.192
 7854TIP3    H223506   0.043   6.328   6.151
 7855TIP3   OH223507   0.719   6.510   4.758
 7855TIP3    H123508   0.718   6.585   4.698
 7855TIP3    H223509   0.673   6.541   4.836
 7856TIP3   OH223510   4.532   5.622   2.887
 7856TIP3    H123511   4.568   5.534   2.901
 7856TIP3    H223512   4.485   5.615   2.804
 7857TIP3   OH223513   7.797   0.190   6.653
 7857TIP3    H123514   7.758   0.134   6.586
 7857TIP3    H223515   7.751   0.167   6.733
 7858TIP3   OH223516   8.161   4.571   5.112
 7858TIP3    H123517   8.127   4.660   5.107
 7858TIP3    H223518   8.096   4.518   5.065
 7859TIP3   OH223519   3.014   6.667   1.690
 7859TIP3    H123520   3.078   6.617   1.740
 7859TIP3    H223521   2.936   6.666   1.746
 7860TIP3   OH223522   7.132   1.582   0.688
 7860TIP3    H123523   7.084   1.580   0.605
 7860TIP3    H223524   7.146   1.675   0.706
 7861TIP3   OH223525   2.484   4.504   1.805
 7861TIP3    H123526   2.490   4.412   1.830
 7861TIP3    H223527   2.399   4.532   1.838
 7862TIP3   OH223528   1.537   1.236   2.396
 7862TIP3    H123529   1.465   1.272   2.344
 7862TIP3    H223530   1.584   1.178   2.336
 7863TIP3   OH223531   5.779   7.645   4.498
 7863TIP3    H123532   5.708   7.589   4.529
 7863TIP3    H223533   5.856   7.615   4.547
 7864TIP3   OH223534   6.781   4.494   2.025
 7864TIP3    H123535   6.835   4.573   2.024
 7864TIP3    H223536   6.739   4.492   1.939
 7865TIP3   OH223537   4.498   5.094   1.037
 7865TIP3    H123538   4.443   5.049   1.101
 7865TIP3    H223539   4.471   5.186   1.042
 7866TIP3   OH223540   2.644   5.923   0.825
 7866TIP3    H123541   2.600   5.987   0.880
 7866TIP3    H223542   2.574   5.881   0.776
 7867TIP3   OH223543   5.756   2.934   3.578
 7867TIP3    H123544   5.688   2.996   3.604
 7867TIP3    H223545   5.795   2.974   3.500
 7868TIP3   OH223546   4.000   3.902   4.626
 7868TIP3    H123547   4.038   3.822   4.664
 7868TIP3    H223548   3.981   3.958   4.702
 7869TIP3   OH223549   4.889   6.746   3.240
 7869TIP3    H123550   4.959   6.776   3.298
 7869TIP3    H223551   4.835   6.690   3.295
 7870TIP3   OH223552   2.447   5.387   4.175
 7870TIP3    H123553   2.380   5.413   4.238
 7870TIP3    H223554   2.530   5.405   4.219
 7871TIP3   OH223555   4.151   3.585   0.186
 7871TIP3    H123556   4.135   3.656   0.248
 7871TIP3    H223557   4.098   3.608   0.110
 7872TIP3   OH223558   1.363   6.983   4.115
 7872TIP3    H123559   1.361   6.895   4.078
 7872TIP3    H223560   1.441   6.983   4.172
 7873TIP3   OH223561   1.255   7.688   1.248
 7873TIP3    H123562   1.319   7.649   1.188
 7873TIP3    H223563   1.306   7.749   1.301
 7874TIP3   OH223564   1.626   0.074   0.366
 7874TIP3    H123565   1.669   0.158   0.345
 7874TIP3    H223566   1.652   0.016   0.294
 7875TIP3   OH223567   6.139   4.409   0.703
 7875TIP3    H123568   6.195   4.339   0.670
 7875TIP3    H223569   6.053   4.368   0.713
 7876TIP3   OH223570   3.183   4.960   4.986
 7876TIP3    H123571   3.206   5.024   5.054
 7876TIP3    H223572   3.200   4.875   5.027
 7877TIP3   OH223573   7.491   5.025   2.867
 7877TIP3    H123574   7.442   5.091   2.819
 7877TIP3    H223575   7.437   5.007   2.945
 7878TIP3   OH223576   2.208   0.037   2.373
 7878TIP3    H123577   2.293   0.042   2.417
 7878TIP3    H223578   2.148   0.086   2.429
 7879TIP3   OH223579   5.125   5.164   4.722
 7879TIP3    H123580   5.157   5.075   4.712
 7879TIP3    H223581   5.038   5.163   4.683
 7880TIP3   OH223582   0.229   3.606   0.806
 7880TIP3    H123583   0.145   3.648   0.823
 7880TIP3    H223584   0.293   3.662   0.851
 7881TIP3   OH223585   0.762   5.274   0.144
 7881TIP3    H123586   0.847   5.314   0.163
 7881TIP3    H223587   0.757   5.199   0.203
 7882TIP3   OH223588   7.828   7.410   0.670
 7882TIP3    H123589   7.742   7.389   0.634
 7882TIP3    H223590   7.889   7.387   0.601
 7883TIP3   OH223591   6.644   1.030   4.731
 7883TIP3    H123592   6.736   1.020   4.759
 7883TIP3    H223593   6.626   1.123   4.744
 7884TIP3   OH223594   6.053   7.588   3.634
 7884TIP3    H123595   6.001   7.659   3.594
 7884TIP3    H223596   6.082   7.625   3.718
 7885TIP3   OH223597   3.006   1.209   3.460
 7885TIP3    H123598   3.049   1.176   3.538
 7885TIP3    H223599   2.948   1.138   3.432
 7886TIP3   OH223600   5.068   6.348   2.623
 7886TIP3    H123601   5.042   6.258   2.645
 7886TIP3    H223602   5.150   6.361   2.670
 7887TIP3   OH223603   4.821   4.473   3.030
 7887TIP3    H123604   4.752   4.482   3.095
 7887TIP3    H223605   4.790   4.522   2.954
 7888TIP3   OH223606   0.375   2.324   5.186
 7888TIP3    H123607   0.327   2.302   5.266
 7888TIP3    H223608   0.397   2.239   5.147
 7889TIP3   OH223609   8.261   1.805   3.095
 7889TIP3    H123610   8.178   1.800   3.047
 7889TIP3    H223611   8.318   1.742   3.051
 7890TIP3   OH223612   7.281   0.783   4.683
 7890TIP3    H123613   7.354   0.781   4.745
 7890TIP3    H223614   7.302   0.716   4.619
 7891TIP3   OH223615   2.477   3.278   5.912
 7891TIP3    H123616   2.468   3.218   5.838
 7891TIP3    H223617   2.470   3.366   5.873
 7892TIP3   OH223618   0.830   4.205   2.547
 7892TIP3    H123619   0.881   4.147   2.602
 7892TIP3    H223620   0.879   4.288   2.547
 7893TIP3   OH223621   6.131   0.783   4.182
 7893TIP3    H123622   6.084   0.863   4.206
 7893TIP3    H223623   6.064   0.728   4.141
 7894TIP3   OH223624   5.042   0.287   1.162
 7894TIP3    H123625   4.956   0.258   1.192
 7894TIP3    H223626   5.037   0.382   1.161
 7895TIP3   OH223627   1.427   7.195   0.700
 7895TIP3    H123628   1.467   7.205   0.786
 7895TIP3    H223629   1.335   7.175   0.718
 7896TIP3   OH223630   0.599   0.959   3.515
 7896TIP3    H123631   0.546   0.879   3.514
 7896TIP3    H223632   0.615   0.978   3.423
 7897TIP3   OH223633   4.628   5.542   5.710
 7897TIP3    H123634   4.595   5.461   5.671
 7897TIP3    H223635   4.641   5.520   5.803
 7898TIP3   OH223636   8.115   1.676   2.839
 7898TIP3    H123637   8.031   1.716   2.860
 7898TIP3    H223638   8.150   1.730   2.768
 7899TIP3   OH223639   6.662   2.370   2.772
 7899TIP3    H123640   6.629   2.442   2.826
 7899TIP3    H223641   6.752   2.394   2.752
 7900TIP3   OH223642   1.703   2.031   4.081
 7900TIP3    H123643   1.671   2.005   3.994
 7900TIP3    H223644   1.798   2.038   4.070
 7901TIP3   OH223645   7.680   6.502   5.903
 7901TIP3    H123646   7.661   6.596   5.898
 7901TIP3    H223647   7.676   6.482   5.997
 7902TIP3   OH223648   6.856   3.389   1.275
 7902TIP3    H123649   6.773   3.364   1.233
 7902TIP3    H223650   6.921   3.383   1.206
 7903TIP3   OH223651   5.204   0.801   1.005
 7903TIP3    H123652   5.123   0.841   0.974
 7903TIP3    H223653   5.274   0.847   0.959
 7904TIP3   OH223654   5.578   2.989   1.460
 7904TIP3    H123655   5.625   3.058   1.507
 7904TIP3    H223656   5.532   3.035   1.389
 7905TIP3   OH223657   7.650   0.522   3.253
 7905TIP3    H123658   7.706   0.454   3.291
 7905TIP3    H223659   7.610   0.481   3.177
 7906TIP3   OH223660   1.936   3.492   5.888
 7906TIP3    H123661   2.028   3.509   5.870
 7906TIP3    H223662   1.900   3.578   5.914
 7907TIP3   OH223663   1.293   6.271   4.489
 7907TIP3    H123664   1.385   6.284   4.512
 7907TIP3    H223665   1.244   6.304   4.564
 7908TIP3   OH223666   2.511   0.267   4.018
 7908TIP3    H123667   2.453   0.292   4.090
 7908TIP3    H223668   2.584   0.223   4.062
 7909TIP3   OH223669   0.239   0.800   4.152
 7909TIP3    H123670   0.197   0.732   4.101
 7909TIP3    H223671   0.218   0.779   4.243
 7910TIP3   OH223672   1.646   1.081   5.426
 7910TIP3    H123673   1.727   1.130   5.443
 7910TIP3    H223674   1.585   1.113   5.492
 7911TIP3   OH223675   5.179   0.750   1.838
 7911TIP3    H123676   5.272   0.757   1.860
 7911TIP3    H223677   5.178   0.717   1.748
 7912TIP3   OH223678   7.982  -0.041   5.906
 7912TIP3    H123679   7.915  -0.030   5.973
 7912TIP3    H223680   8.056   0.011   5.937
 7913TIP3   OH223681   2.830   2.726   3.894
 7913TIP3    H123682   2.748   2.756   3.932
 7913TIP3    H223683   2.857   2.652   3.949
 7914TIP3   OH223684   3.174   0.415   4.716
 7914TIP3    H123685   3.250   0.365   4.745
 7914TIP3    H223686   3.099   0.369   4.753
 7915TIP3   OH223687   7.492   7.689   4.670
 7915TIP3    H123688   7.461   7.620   4.611
 7915TIP3    H223689   7.562   7.649   4.721
 7916TIP3   OH223690   5.979   3.724   3.867
 7916TIP3    H123691   6.010   3.702   3.955
 7916TIP3    H223692   6.009   3.814   3.853
 7917TIP3   OH223693   3.112   2.847   5.101
 7917TIP3    H123694   3.181   2.798   5.056
 7917TIP3    H223695   3.114   2.815   5.191
 7918TIP3   OH223696   3.863   0.745   2.636
 7918TIP3    H123697   3.914   0.767   2.714
 7918TIP3    H223698   3.845   0.651   2.645
 7919TIP3   OH223699   6.488   2.956   2.783
 7919TIP3    H123700   6.545   2.918   2.850
 7919TIP3    H223701   6.454   2.880   2.735
 7920TIP3   OH223702   7.402   2.197   3.511
 7920TIP3    H123703   7.411   2.129   3.445
 7920TIP3    H223704   7.340   2.161   3.575
 7921TIP3   OH223705   7.424   5.985   4.182
 7921TIP3    H123706   7.503   6.038   4.195
 7921TIP3    H223707   7.394   6.009   4.095
 7922TIP3   OH223708   6.982   7.146   3.894
 7922TIP3    H123709   6.936   7.069   3.859
 7922TIP3    H223710   6.913   7.202   3.929
 7923TIP3   OH223711   6.035   4.434   6.102
 7923TIP3    H123712   5.957   4.471   6.144
 7923TIP3    H223713   6.100   4.432   6.172
 7924TIP3   OH223714   7.106   3.359   2.851
 7924TIP3    H123715   7.143   3.434   2.804
 7924TIP3    H223716   7.012   3.378   2.857
 7925TIP3   OH223717   1.558   0.298   6.321
 7925TIP3    H123718   1.653   0.292   6.311
 7925TIP3    H223719   1.545   0.369   6.384
 7926TIP3   OH223720   2.016   1.659   2.910
 7926TIP3    H123721   1.975   1.576   2.932
 7926TIP3    H223722   1.956   1.725   2.944
 7927TIP3   OH223723   4.265   4.263   6.344
 7927TIP3    H123724   4.278   4.344   6.294
 7927TIP3    H223725   4.296   4.193   6.286
 7928TIP3   OH223726   3.009   1.416   3.828
 7928TIP3    H123727   2.963   1.482   3.881
 7928TIP3    H223728   2.967   1.421   3.742
 7929TIP3   OH223729   5.111   3.921   0.931
 7929TIP3    H123730   5.179   3.965   0.881
 7929TIP3    H223731   5.158   3.875   1.001
 7930TIP3   OH223732   3.029   7.505   1.603
 7930TIP3    H123733   3.075   7.579   1.642
 7930TIP3    H223734   3.094   7.464   1.545
 7931TIP3   OH223735   2.683   6.753   4.528
 7931TIP3    H123736   2.732   6.679   4.564
 7931TIP3    H223737   2.612   6.713   4.478
 7932TIP3   OH223738   7.911   5.180   5.161
 7932TIP3    H123739   7.823   5.174   5.123
 7932TIP3    H223740   7.899   5.229   5.242
 7933TIP3   OH223741   2.051   6.760   3.095
 7933TIP3    H123742   2.029   6.716   3.177
 7933TIP3    H223743   1.991   6.834   3.090
 7934TIP3   OH223744   7.618   5.753   0.712
 7934TIP3    H123745   7.669   5.689   0.663
 7934TIP3    H223746   7.542   5.771   0.656
 7935TIP3   OH223747   7.135   3.852   2.535
 7935TIP3    H123748   7.219   3.808   2.547
 7935TIP3    H223749   7.082   3.824   2.609
 7936TIP3   OH223750   7.697   4.008   0.047
 7936TIP3    H123751   7.672   4.059   0.124
 7936TIP3    H223752   7.673   4.062  -0.028
 7937TIP3   OH223753   2.510   2.240   1.427
 7937TIP3    H123754   2.467   2.265   1.509
 7937TIP3    H223755   2.563   2.164   1.450
 7938TIP3   OH223756   2.732   7.479   3.860
 7938TIP3    H123757   2.793   7.553   3.867
 7938TIP3    H223758   2.674   7.489   3.935
 7939TIP3   OH223759   2.495   5.771   5.866
 7939TIP3    H123760   2.575   5.752   5.817
 7939TIP3    H223761   2.445   5.828   5.808
 7940TIP3   OH223762   5.800   6.252   4.308
 7940TIP3    H123763   5.774   6.293   4.226
 7940TIP3    H223764   5.833   6.324   4.362
 7941TIP3   OH223765   2.411   5.791   0.428
 7941TIP3    H123766   2.424   5.883   0.451
 7941TIP3    H223767   2.428   5.744   0.510
 7942TIP3   OH223768   3.342   0.287   0.542
 7942TIP3    H123769   3.259   0.302   0.497
 7942TIP3    H223770   3.317   0.271   0.633
 7943TIP3   OH223771   1.358   1.095   6.635
 7943TIP3    H123772   1.282   1.094   6.577
 7943TIP3    H223773   1.409   1.171   6.605
 7944TIP3   OH223774   2.512   7.208   5.655
 7944TIP3    H123775   2.481   7.151   5.585
 7944TIP3    H223776   2.589   7.162   5.690
 7945TIP3   OH223777   2.883   7.663   0.614
 7945TIP3    H123778   2.793   7.636   0.632
 7945TIP3    H223779   2.895   7.743   0.666
 7946TIP3   OH223780   6.836   7.426   5.499
 7946TIP3    H123781   6.827   7.331   5.503
 7946TIP3    H223782   6.755   7.460   5.537
 7947TIP3   OH223783   0.160   0.626   0.405
 7947TIP3    H123784   0.074   0.619   0.362
 7947TIP3    H223785   0.169   0.544   0.453
 7948TIP3   OH223786   1.849   1.024   3.801
 7948TIP3    H123787   1.761   1.029   3.839
 7948TIP3    H223788   1.887   1.111   3.818
 7949TIP3   OH223789   0.542   2.195   3.801
 7949TIP3    H123790   0.453   2.180   3.771
 7949TIP3    H223791   0.573   2.270   3.751
 7950TIP3   OH223792   5.457   1.938   2.857
 7950TIP3    H123793   5.486   2.014   2.807
 7950TIP3    H223794   5.387   1.900   2.805
 7951TIP3   OH223795   2.605   1.541   6.602
 7951TIP3    H123796   2.602   1.538   6.507
 7951TIP3    H223797   2.522   1.581   6.627
 7952TIP3   OH223798   4.652   0.154   5.935
 7952TIP3    H123799   4.636   0.228   5.877
 7952TIP3    H223800   4.685   0.085   5.878
 7953TIP3   OH223801   1.496   0.311   0.807
 7953TIP3    H123802   1.539   0.395   0.822
 7953TIP3    H223803   1.544   0.272   0.734
 7954TIP3   OH223804   0.285   4.596   6.282
 7954TIP3    H123805   0.378   4.611   6.271
 7954TIP3    H223806   0.246   4.683   6.276
 7955TIP3   OH223807   8.165   4.384   5.614
 7955TIP3    H123808   8.201   4.442   5.681
 7955TIP3    H223809   8.130   4.310   5.663
 7956TIP3   OH223810   2.675   7.015   0.972
 7956TIP3    H123811   2.644   6.934   1.013
 7956TIP3    H223812   2.595   7.056   0.938
 7957TIP3   OH223813   6.483   1.580   5.714
 7957TIP3    H123814   6.555   1.591   5.775
 7957TIP3    H223815   6.418   1.530   5.763
 7958TIP3   OH223816   0.469   7.581   3.085
 7958TIP3    H123817   0.391   7.528   3.102
 7958TIP3    H223818   0.543   7.521   3.098
 7959TIP3   OH223819   4.775   1.051   1.804
 7959TIP3    H123820   4.748   1.063   1.713
 7959TIP3    H223821   4.801   0.959   1.809
 7960TIP3   OH223822   3.562   4.051   6.721
 7960TIP3    H123823   3.489   4.102   6.685
 7960TIP3    H223824   3.527   3.962   6.730
 7961TIP3   OH223825   2.855   0.642   6.042
 7961TIP3    H123826   2.873   0.594   5.960
 7961TIP3    H223827   2.907   0.722   6.035
 7962TIP3   OH223828   0.332   5.487   0.999
 7962TIP3    H123829   0.421   5.457   1.018
 7962TIP3    H223830   0.314   5.552   1.067
 7963TIP3   OH223831   3.540   6.656   2.833
 7963TIP3    H123832   3.484   6.578   2.835
 7963TIP3    H223833   3.562   6.672   2.925
 7964TIP3   OH223834   2.124  -0.001   3.743
 7964TIP3    H123835   2.055   0.061   3.717
 7964TIP3    H223836   2.077  -0.083   3.760
 7965TIP3   OH223837   1.767   4.555   5.378
 7965TIP3    H123838   1.763   4.639   5.332
 7965TIP3    H223839   1.778   4.578   5.470
 7966TIP3   OH223840   0.703   7.273   2.853
 7966TIP3    H123841   0.666   7.332   2.788
 7966TIP3    H223842   0.762   7.328   2.905
 7967TIP3   OH223843   3.908   1.451   2.234
 7967TIP3    H123844   3.876   1.526   2.283
 7967TIP3    H223845   3.839   1.431   2.171
 7968TIP3   OH223846   0.577   4.497   3.285
 7968TIP3    H123847   0.530   4.479   3.204
 7968TIP3    H223848   0.663   4.458   3.272
 7969TIP3   OH223849   3.439   7.663   1.887
 7969TIP3    H123850   3.470   7.611   1.812
 7969TIP3    H223851   3.478   7.620   1.963
 7970TIP3   OH223852   1.095   3.259   1.328
 7970TIP3    H123853   1.052   3.178   1.357
 7970TIP3    H223854   1.163   3.230   1.267
 7971TIP3   OH223855   6.771   6.711   4.276
 7971TIP3    H123856   6.785   6.799   4.310
 7971TIP3    H223857   6.772   6.721   4.181
 7972TIP3   OH223858   5.301   0.953   6.472
 7972TIP3    H123859   5.281   0.863   6.446
 7972TIP3    H223860   5.365   0.982   6.407
 7973TIP3   OH223861   6.414   4.252   6.386
 7973TIP3    H123862   6.428   4.269   6.479
 7973TIP3    H223863   6.347   4.183   6.384
 7974TIP3   OH223864   7.890   2.243   5.988
 7974TIP3    H123865   7.894   2.164   6.043
 7974TIP3    H223866   7.967   2.236   5.931
 7975TIP3   OH223867   5.052   4.035   6.611
 7975TIP3    H123868   5.087   4.018   6.524
 7975TIP3    H223869   4.991   4.107   6.600
 7976TIP3   OH223870   1.850   0.563   3.208
 7976TIP3    H123871   1.942   0.591   3.211
 7976TIP3    H223872   1.828   0.545   3.300
 7977TIP3   OH223873   7.024   5.186   5.539
 7977TIP3    H123874   7.040   5.104   5.586
 7977TIP3    H223875   6.936   5.213   5.566
 7978TIP3   OH223876   5.389   5.709   1.348
 7978TIP3    H123877   5.360   5.747   1.265
 7978TIP3    H223878   5.309   5.702   1.400
 7979TIP3   OH223879   4.503   1.713   5.904
 7979TIP3    H123880   4.411   1.686   5.909
 7979TIP3    H223881   4.507   1.766   5.825
 7980TIP3   OH223882   8.216   1.821   3.464
 7980TIP3    H123883   8.184   1.892   3.409
 7980TIP3    H223884   8.232   1.862   3.549
 7981TIP3   OH223885   0.762   4.351   1.368
 7981TIP3    H123886   0.784   4.409   1.295
 7981TIP3    H223887   0.666   4.354   1.372
 7982TIP3   OH223888   6.988   6.327   3.969
 7982TIP3    H123889   6.978   6.352   3.878
 7982TIP3    H223890   6.917   6.265   3.985
 7983TIP3   OH223891   4.725   6.666   2.335
 7983TIP3    H123892   4.667   6.635   2.404
 7983TIP3    H223893   4.786   6.725   2.380
 7984TIP3   OH223894   4.492   3.296   3.642
 7984TIP3    H123895   4.467   3.214   3.601
 7984TIP3    H223896   4.409   3.340   3.660
 7985TIP3   OH223897   1.705   2.037   0.552
 7985TIP3    H123898   1.659   1.986   0.619
 7985TIP3    H223899   1.705   2.126   0.586
 7986TIP3   OH223900   5.680   5.630   3.927
 7986TIP3    H123901   5.752   5.678   3.887
 7986TIP3    H223902   5.633   5.590   3.853
 7987TIP3   OH223903   5.250   4.537   1.124
 7987TIP3    H123904   5.226   4.606   1.185
 7987TIP3    H223905   5.336   4.507   1.154
 7988TIP3   OH223906   6.873   3.570   3.704
 7988TIP3    H123907   6.845   3.491   3.656
 7988TIP3    H223908   6.874   3.638   3.637
 7989TIP3   OH223909   0.490   3.483   0.762
 7989TIP3    H123910   0.462   3.544   0.830
 7989TIP3    H223911   0.412   3.471   0.707
 7990TIP3   OH223912   3.338   4.570   2.606
 7990TIP3    H123913   3.306   4.604   2.522
 7990TIP3    H223914   3.299   4.627   2.671
 7991TIP3   OH223915   7.549   4.308   0.093
 7991TIP3    H123916   7.513   4.232   0.138
 7991TIP3    H223917   7.575   4.275   0.007
 7992TIP3   OH223918   6.254   5.030   2.896
 7992TIP3    H123919   6.323   4.964   2.898
 7992TIP3    H223920   6.253   5.062   2.806
 7993TIP3   OH223921   1.988   1.135   0.207
 7993TIP3    H123922   1.949   1.197   0.268
 7993TIP3    H223923   2.064   1.100   0.253
 7994TIP3   OH223924   0.587   3.433   4.693
 7994TIP3    H123925   0.499   3.443   4.728
 7994TIP3    H223926   0.601   3.511   4.639
 7995TIP3   OH223927   4.967   1.599   0.661
 7995TIP3    H123928   4.959   1.544   0.582
 7995TIP3    H223929   5.001   1.682   0.629
 7996TIP3   OH223930   5.067   1.043   4.293
 7996TIP3    H123931   4.978   1.068   4.316
 7996TIP3    H223932   5.064   0.947   4.287
 7997TIP3   OH223933   4.717   0.153   0.982
 7997TIP3    H123934   4.654   0.083   0.968
 7997TIP3    H223935   4.787   0.135   0.918
 7998TIP3   OH223936   0.604   4.649   4.003
 7998TIP3    H123937   0.512   4.623   4.005
 7998TIP3    H223938   0.628   4.646   3.910
 7999TIP3   OH223939   0.379   7.449   0.381
 7999TIP3    H123940   0.360   7.541   0.368
 7999TIP3    H223941   0.344   7.406   0.303
 8000TIP3   OH223942   2.648   7.011   5.032
 8000TIP3    H123943   2.567   6.967   5.058
 8000TIP3    H223944   2.717   6.947   5.051
 8001TIP3   OH223945   4.676   7.300   1.679
 8001TIP3    H123946   4.606   7.294   1.745
 8001TIP3    H223947   4.753   7.327   1.729
 8002TIP3   OH223948   1.816   6.478   6.782
 8002TIP3    H123949   1.863   6.498   6.701
 8002TIP3    H223950   1.885   6.464   6.846
 8003TIP3   OH223951   4.340   5.034   4.235
 8003TIP3    H123952   4.280   5.061   4.304
 8003TIP3    H223953   4.344   5.109   4.176
 8004TIP3   OH223954   3.289   5.399   1.774
 8004TIP3    H123955   3.339   5.321   1.799
 8004TIP3    H223956   3.215   5.364   1.723
 8005TIP3   OH223957   5.930   6.029   5.624
 8005TIP3    H123958   5.848   5.985   5.603
 8005TIP3    H223959   5.995   5.991   5.565
 8006TIP3   OH223960   4.877   7.527   2.607
 8006TIP3    H123961   4.938   7.571   2.667
 8006TIP3    H223962   4.851   7.596   2.545
 8007TIP3   OH223963   0.539   4.770   4.274
 8007TIP3    H123964   0.625   4.804   4.298
 8007TIP3    H223965   0.552   4.731   4.187
 8008TIP3   OH223966   2.963   0.898   1.967
 8008TIP3    H123967   3.004   0.984   1.963
 8008TIP3    H223968   2.950   0.873   1.876
 8009TIP3   OH223969   4.311   6.042   1.330
 8009TIP3    H123970   4.331   5.980   1.400
 8009TIP3    H223971   4.250   5.994   1.273
 8010TIP3   OH223972   3.570   7.381   3.836
 8010TIP3    H123973   3.563   7.430   3.754
 8010TIP3    H223974   3.521   7.433   3.900
 8011TIP3   OH223975   6.052   4.925   1.927
 8011TIP3    H123976   6.065   4.861   1.997
 8011TIP3    H223977   6.077   5.008   1.967
 8012TIP3   OH223978   3.121   0.860   0.547
 8012TIP3    H123979   3.114   0.813   0.631
 8012TIP3    H223980   3.151   0.793   0.485
 8013TIP3   OH223981   0.763   7.724   6.169
 8013TIP3    H123982   0.747   7.643   6.216
 8013TIP3    H223983   0.851   7.750   6.195
 8014TIP3   OH223984   6.754   4.425   4.722
 8014TIP3    H123985   6.751   4.471   4.638
 8014TIP3    H223986   6.828   4.365   4.713
 8015TIP3   OH223987   4.467   7.771   2.309
 8015TIP3    H123988   4.492   7.836   2.375
 8015TIP3    H223989   4.551   7.736   2.278
 8016TIP3   OH223990   2.812   1.345   0.644
 8016TIP3    H123991   2.863   1.394   0.578
 8016TIP3    H223992   2.754   1.411   0.682
 8017TIP3   OH223993   1.624   0.758   0.658
 8017TIP3    H123994   1.559   0.707   0.610
 8017TIP3    H223995   1.586   0.845   0.667
 8018TIP3   OH223996   6.516   1.422   3.892
 8018TIP3    H123997   6.444   1.406   3.954
 8018TIP3    H223998   6.585   1.361   3.920
 8019TIP3   OH223999   2.085   7.463   5.895
 8019TIP3    H124000   2.028   7.471   5.818
 8019TIP3    H224001   2.154   7.403   5.868
 8020TIP3   OH224002   7.804   3.554   3.867
 8020TIP3    H124003   7.823   3.631   3.814
 8020TIP3    H224004   7.842   3.574   3.953
 8021TIP3   OH224005   6.163   2.145   6.805
 8021TIP3    H124006   6.240   2.134   6.750
 8021TIP3    H224007   6.123   2.226   6.775
 8022TIP3   OH224008   7.978   2.260   2.335
 8022TIP3    H124009   8.021   2.182   2.300
 8022TIP3    H224010   7.983   2.250   2.430
 8023TIP3   OH224011   2.877   6.425   2.423
 8023TIP3    H124012   2.887   6.331   2.435
 8023TIP3    H224013   2.965   6.456   2.398
 8024TIP3   OH224014   1.715   7.007   1.172
 8024TIP3    H124015   1.788   7.061   1.203
 8024TIP3    H224016   1.646   7.020   1.236
 8025TIP3   OH224017   4.841   3.365   4.089
 8025TIP3    H124018   4.916   3.348   4.146
 8025TIP3    H224019   4.783   3.419   4.141
 8026TIP3   OH224020   1.841   5.467   4.328
 8026TIP3    H124021   1.751   5.493   4.347
 8026TIP3    H224022   1.841   5.372   4.343
 8027TIP3   OH224023   2.911   2.511   4.058
 8027TIP3    H124024   2.843   2.449   4.084
 8027TIP3    H224025   2.952   2.537   4.141
 8028TIP3   OH224026   2.650   1.802   5.563
 8028TIP3    H124027   2.577   1.756   5.521
 8028TIP3    H224028   2.682   1.740   5.629
 8029TIP3   OH224029   2.954   6.031   3.408
 8029TIP3    H124030   2.953   6.056   3.500
 8029TIP3    H224031   2.960   5.935   3.409
 8030TIP3   OH224032   7.328   6.779   0.397
 8030TIP3    H124033   7.378   6.812   0.472
 8030TIP3    H224034   7.388   6.788   0.323
 8031TIP3   OH224035   1.072   1.386   4.054
 8031TIP3    H124036   1.099   1.325   4.122
 8031TIP3    H224037   0.985   1.417   4.082
 8032TIP3   OH224038   1.379   5.693   5.286
 8032TIP3    H124039   1.298   5.648   5.259
 8032TIP3    H224040   1.449   5.632   5.263
 8033TIP3   OH224041   4.857   0.050   0.214
 8033TIP3    H124042   4.784   0.015   0.163
 8033TIP3    H224043   4.819   0.075   0.298
 8034TIP3   OH224044   4.966   1.881   0.998
 8034TIP3    H124045   4.963   1.898   1.092
 8034TIP3    H224046   4.929   1.794   0.988
 8035TIP3   OH224047   5.814   2.444   0.360
 8035TIP3    H124048   5.899   2.452   0.317
 8035TIP3    H224049   5.828   2.480   0.448
 8036TIP3   OH224050   3.713   1.728   1.191
 8036TIP3    H124051   3.667   1.703   1.272
 8036TIP3    H224052   3.651   1.707   1.121
 8037TIP3   OH224053   3.524   1.886   6.323
 8037TIP3    H124054   3.518   1.953   6.391
 8037TIP3    H224055   3.551   1.806   6.369
 8038TIP3   OH224056   5.200   0.758   6.176
 8038TIP3    H124057   5.133   0.767   6.243
 8038TIP3    H224058   5.169   0.686   6.120
 8039TIP3   OH224059   3.295   4.862   1.725
 8039TIP3    H124060   3.241   4.799   1.774
 8039TIP3    H224061   3.348   4.905   1.791
 8040TIP3   OH224062   4.341   5.754   1.856
 8040TIP3    H124063   4.335   5.707   1.773
 8040TIP3    H224064   4.255   5.745   1.896
 8041TIP3   OH224065   5.634   7.387   1.751
 8041TIP3    H124066   5.691   7.310   1.744
 8041TIP3    H224067   5.686   7.451   1.798
 8042TIP3   OH224068   5.250   3.256   2.427
 8042TIP3    H124069   5.263   3.337   2.377
 8042TIP3    H224070   5.177   3.213   2.383
 8043TIP3   OH224071   3.444   4.860   4.718
 8043TIP3    H124072   3.383   4.800   4.675
 8043TIP3    H224073   3.428   4.847   4.812
 8044TIP3   OH224074   2.511   0.342   2.248
 8044TIP3    H124075   2.431   0.292   2.231
 8044TIP3    H224076   2.568   0.282   2.295
 8045TIP3   OH224077   3.375   5.916   0.796
 8045TIP3    H124078   3.289   5.954   0.815
 8045TIP3    H224079   3.371   5.829   0.835
 8046TIP3   OH224080   3.569   3.577   6.637
 8046TIP3    H124081   3.528   3.618   6.714
 8046TIP3    H224082   3.651   3.626   6.625
 8047TIP3   OH224083   5.921   6.700   5.872
 8047TIP3    H124084   6.000   6.726   5.919
 8047TIP3    H224085   5.872   6.646   5.934
 8048TIP3   OH224086   7.957   5.647   2.147
 8048TIP3    H124087   7.931   5.625   2.058
 8048TIP3    H224088   7.923   5.736   2.161
 8049TIP3   OH224089   2.721   1.834   5.303
 8049TIP3    H124090   2.804   1.869   5.271
 8049TIP3    H224091   2.721   1.855   5.397
 8050TIP3   OH224092   3.846   6.535   0.256
 8050TIP3    H124093   3.870   6.619   0.217
 8050TIP3    H224094   3.910   6.473   0.221
 8051TIP3   OH224095   5.186   2.799   2.708
 8051TIP3    H124096   5.275   2.770   2.690
 8051TIP3    H224097   5.188   2.893   2.691
 8052TIP3   OH224098   1.985   7.614   0.419
 8052TIP3    H124099   1.970   7.609   0.513
 8052TIP3    H224100   1.900   7.640   0.382
 8053TIP3   OH224101   5.924   2.852   5.547
 8053TIP3    H124102   5.956   2.927   5.595
 8053TIP3    H224103   5.831   2.871   5.530
 8054TIP3   OH224104   0.328   1.742   1.915
 8054TIP3    H124105   0.337   1.748   1.820
 8054TIP3    H224106   0.339   1.832   1.945
 8055TIP3   OH224107   5.753   7.033   4.326
 8055TIP3    H124108   5.812   7.108   4.326
 8055TIP3    H224109   5.666   7.071   4.339
 8056TIP3   OH224110   2.893   7.701   3.882
 8056TIP3    H124111   2.871   7.784   3.924
 8056TIP3    H224112   2.895   7.722   3.788
 8057TIP3   OH224113   1.950   4.416   5.091
 8057TIP3    H124114   2.045   4.401   5.082
 8057TIP3    H224115   1.916   4.332   5.121
 8058TIP3   OH224116   4.447   1.358   1.369
 8058TIP3    H124117   4.516   1.419   1.346
 8058TIP3    H224118   4.410   1.331   1.284
 8059TIP3   OH224119   5.090   5.545   3.549
 8059TIP3    H124120   5.153   5.530   3.478
 8059TIP3    H224121   5.084   5.460   3.593
 8060TIP3   OH224122   7.711   3.100   2.390
 8060TIP3    H124123   7.742   3.025   2.339
 8060TIP3    H224124   7.712   3.069   2.481
 8061TIP3   OH224125   5.023   3.540   0.596
 8061TIP3    H124126   4.989   3.560   0.508
 8061TIP3    H224127   5.024   3.624   0.641
 8062TIP3   OH224128   0.665   4.101   1.018
 8062TIP3    H124129   0.636   4.176   0.966
 8062TIP3    H224130   0.666   4.028   0.957
 8063TIP3   OH224131   0.023   0.005   3.221
 8063TIP3    H124132   0.014   0.094   3.256
 8063TIP3    H224133   0.087   0.013   3.150
 8064TIP3   OH224134   1.114   5.694   0.359
 8064TIP3    H124135   1.179   5.700   0.288
 8064TIP3    H224136   1.104   5.600   0.374
 8065TIP3   OH224137   7.591   3.112   2.947
 8065TIP3    H124138   7.530   3.102   2.874
 8065TIP3    H224139   7.646   3.186   2.922
 8066TIP3   OH224140   4.054   4.359   1.809
 8066TIP3    H124141   4.102   4.286   1.770
 8066TIP3    H224142   3.995   4.388   1.740
 8067TIP3   OH224143   3.532   2.944   1.153
 8067TIP3    H124144   3.598   2.959   1.221
 8067TIP3    H224145   3.561   2.865   1.107
 8068TIP3   OH224146   1.603   2.099   0.224
 8068TIP3    H124147   1.555   2.092   0.306
 8068TIP3    H224148   1.550   2.159   0.171
 8069TIP3   OH224149   2.858   0.098   2.729
 8069TIP3    H124150   2.944   0.091   2.770
 8069TIP3    H224151   2.873   0.143   2.646
 8070TIP3   OH224152   4.875   1.684   5.781
 8070TIP3    H124153   4.903   1.747   5.848
 8070TIP3    H224154   4.794   1.647   5.816
 8071TIP3   OH224155   4.951   7.435   1.632
 8071TIP3    H124156   5.040   7.402   1.621
 8071TIP3    H224157   4.919   7.450   1.543
 8072TIP3   OH224158   4.449   5.606   2.636
 8072TIP3    H124159   4.461   5.601   2.541
 8072TIP3    H224160   4.357   5.630   2.647
 8073TIP3   OH224161   2.471   1.345   5.165
 8073TIP3    H124162   2.436   1.385   5.085
 8073TIP3    H224163   2.394   1.332   5.221
 8074TIP3   OH224164   1.321   6.694   4.077
 8074TIP3    H124165   1.388   6.660   4.137
 8074TIP3    H224166   1.282   6.616   4.037
 8075TIP3   OH224167   1.334   1.138   0.267
 8075TIP3    H124168   1.393   1.206   0.236
 8075TIP3    H224169   1.296   1.173   0.347
 8076TIP3   OH224170   2.343   5.201   3.789
 8076TIP3    H124171   2.311   5.208   3.879
 8076TIP3    H224172   2.351   5.106   3.774
 8077TIP3   OH224173   1.919   2.674   4.583
 8077TIP3    H124174   1.888   2.676   4.493
 8077TIP3    H224175   1.966   2.757   4.595
 8078TIP3   OH224176   2.691   7.720   1.690
 8078TIP3    H124177   2.694   7.733   1.785
 8078TIP3    H224178   2.689   7.625   1.679
 8079TIP3   OH224179   1.750   1.333   1.872
 8079TIP3    H124180   1.734   1.426   1.886
 8079TIP3    H224181   1.842   1.320   1.894
 8080TIP3   OH224182   3.814   6.463   0.550
 8080TIP3    H124183   3.872   6.465   0.474
 8080TIP3    H224184   3.742   6.521   0.527
 8081TIP3   OH224185   5.859   2.338   6.106
 8081TIP3    H124186   5.900   2.424   6.099
 8081TIP3    H224187   5.851   2.308   6.015
 8082TIP3   OH224188   7.792   3.910   3.003
 8082TIP3    H124189   7.888   3.912   3.006
 8082TIP3    H224190   7.770   3.946   2.917
 8083TIP3   OH224191   2.011   6.975   1.226
 8083TIP3    H124192   2.043   7.002   1.312
 8083TIP3    H224193   2.069   6.903   1.200
 8084TIP3   OH224194   1.917   6.976   0.151
 8084TIP3    H124195   1.979   7.045   0.126
 8084TIP3    H224196   1.938   6.903   0.093
 8085TIP3   OH224197   4.100   2.512   5.637
 8085TIP3    H124198   4.019   2.465   5.658
 8085TIP3    H224199   4.168   2.446   5.642
 8086TIP3   OH224200   1.947   0.469   3.741
 8086TIP3    H124201   1.982   0.515   3.665
 8086TIP3    H224202   1.854   0.490   3.741
 8087TIP3   OH224203   3.869   3.430   4.382
 8087TIP3    H124204   3.784   3.387   4.392
 8087TIP3    H224205   3.901   3.401   4.297
 8088TIP3   OH224206   7.461   7.381   1.735
 8088TIP3    H124207   7.483   7.417   1.821
 8088TIP3    H224208   7.405   7.307   1.754
 8089TIP3   OH224209   6.159   5.892   0.050
 8089TIP3    H124210   6.169   5.987   0.048
 8089TIP3    H224211   6.066   5.878   0.067
 8090TIP3   OH224212   7.327   2.193   6.614
 8090TIP3    H124213   7.289   2.167   6.530
 8090TIP3    H224214   7.388   2.123   6.636
 8091TIP3   OH224215   6.481   3.321   0.544
 8091TIP3    H124216   6.561   3.369   0.523
 8091TIP3    H224217   6.508   3.230   0.549
 8092TIP3   OH224218   3.734   4.908   0.762
 8092TIP3    H124219   3.641   4.922   0.743
 8092TIP3    H224220   3.747   4.814   0.753
 8093TIP3   OH224221   5.406   2.299   1.001
 8093TIP3    H124222   5.366   2.334   1.081
 8093TIP3    H224223   5.495   2.333   1.000
 8094TIP3   OH224224   2.348   0.390   1.582
 8094TIP3    H124225   2.364   0.305   1.623
 8094TIP3    H224226   2.337   0.451   1.655
 8095TIP3   OH224227   0.855   7.439   5.867
 8095TIP3    H124228   0.786   7.383   5.831
 8095TIP3    H224229   0.881   7.397   5.949
 8096TIP3   OH224230   0.778   6.886   1.754
 8096TIP3    H124231   0.767   6.836   1.673
 8096TIP3    H224232   0.867   6.922   1.748
 8097TIP3   OH224233   1.571   1.627   3.839
 8097TIP3    H124234   1.584   1.718   3.866
 8097TIP3    H224235   1.500   1.595   3.895
 8098TIP3   OH224236   1.290   4.869   6.565
 8098TIP3    H124237   1.383   4.888   6.569
 8098TIP3    H224238   1.278   4.823   6.482
 8099TIP3   OH224239   7.157   2.757   1.446
 8099TIP3    H124240   7.172   2.663   1.457
 8099TIP3    H224241   7.232   2.798   1.489
 8100TIP3   OH224242   7.127   1.465   3.427
 8100TIP3    H124243   7.074   1.542   3.447
 8100TIP3    H224244   7.217   1.495   3.432
 8101TIP3   OH224245   2.949   7.444  -0.005
 8101TIP3    H124246   2.915   7.448   0.085
 8101TIP3    H224247   2.936   7.352  -0.030
 8102TIP3   OH224248   8.110   4.318   4.698
 8102TIP3    H124249   8.150   4.291   4.781
 8102TIP3    H224250   8.065   4.400   4.718
 8103TIP3   OH224251   2.788   0.838   4.539
 8103TIP3    H124252   2.817   0.793   4.460
 8103TIP3    H224253   2.822   0.927   4.530
 8104TIP3   OH224254   7.399   5.699   6.273
 8104TIP3    H124255   7.324   5.759   6.274
 8104TIP3    H224256   7.470   5.750   6.312
 8105TIP3   OH224257   3.860   3.294   1.914
 8105TIP3    H124258   3.814   3.329   1.990
 8105TIP3    H224259   3.932   3.356   1.899
 8106TIP3   OH224260   5.873   7.212   3.031
 8106TIP3    H124261   5.868   7.133   2.978
 8106TIP3    H224262   5.838   7.281   2.975
 8107TIP3   OH224263   6.845   6.374   1.266
 8107TIP3    H124264   6.912   6.333   1.211
 8107TIP3    H224265   6.892   6.443   1.313
 8108TIP3   OH224266   2.100   1.643   1.981
 8108TIP3    H124267   2.171   1.632   1.918
 8108TIP3    H224268   2.036   1.697   1.935
 8109TIP3   OH224269   2.073   0.428   4.066
 8109TIP3    H124270   2.000   0.369   4.087
 8109TIP3    H224271   2.111   0.392   3.986
 8110TIP3   OH224272   3.547   0.459   0.546
 8110TIP3    H124273   3.504   0.374   0.536
 8110TIP3    H224274   3.476   0.523   0.534
 8111TIP3   OH224275   5.734   0.741   6.257
 8111TIP3    H124276   5.758   0.702   6.173
 8111TIP3    H224277   5.765   0.677   6.322
 8112TIP3   OH224278   3.796   7.457   4.946
 8112TIP3    H124279   3.815   7.381   5.001
 8112TIP3    H224280   3.780   7.528   5.007
 8113TIP3   OH224281   6.352   3.759   4.981
 8113TIP3    H124282   6.281   3.785   5.039
 8113TIP3    H224283   6.309   3.728   4.902
 8114TIP3   OH224284   6.366   3.673   3.771
 8114TIP3    H124285   6.331   3.585   3.757
 8114TIP3    H224286   6.400   3.671   3.860
 8115TIP3   OH224287   1.996   1.044   5.227
 8115TIP3    H124288   2.074   1.078   5.184
 8115TIP3    H224289   2.024   1.025   5.316
 8116TIP3   OH224290   2.682   3.360   0.262
 8116TIP3    H124291   2.626   3.423   0.217
 8116TIP3    H224292   2.746   3.415   0.309
 8117TIP3   OH224293   8.174   4.446   0.991
 8117TIP3    H124294   8.248   4.476   1.044
 8117TIP3    H224295   8.154   4.359   1.025
 8118TIP3   OH224296   3.050   6.381   4.425
 8118TIP3    H124297   3.093   6.396   4.341
 8118TIP3    H224298   3.063   6.462   4.474
 8119TIP3   OH224299   6.753   5.759   3.971
 8119TIP3    H124300   6.797   5.724   4.049
 8119TIP3    H224301   6.724   5.682   3.923
 8120TIP3   OH224302   1.906   1.309   6.487
 8120TIP3    H124303   1.842   1.246   6.455
 8120TIP3    H224304   1.979   1.302   6.425
 8121TIP3   OH224305   1.283   4.758   0.148
 8121TIP3    H124306   1.210   4.804   0.190
 8121TIP3    H224307   1.352   4.759   0.214
 8122TIP3   OH224308   1.141   0.591   0.699
 8122TIP3    H124309   1.185   0.508   0.716
 8122TIP3    H224310   1.068   0.568   0.642
 8123TIP3   OH224311   0.383   5.921   2.701
 8123TIP3    H124312   0.331   5.993   2.664
 8123TIP3    H224313   0.321   5.849   2.709
 8124TIP3   OH224314   5.594   5.816   5.385
 8124TIP3    H124315   5.508   5.784   5.356
 8124TIP3    H224316   5.650   5.803   5.308
 8125TIP3   OH224317   6.718   0.564   5.241
 8125TIP3    H124318   6.811   0.540   5.249
 8125TIP3    H224319   6.720   0.656   5.215
 8126TIP3   OH224320   1.347   1.830   4.589
 8126TIP3    H124321   1.409   1.876   4.533
 8126TIP3    H224322   1.360   1.737   4.568
 8127TIP3   OH224323   1.782   0.704   1.530
 8127TIP3    H124324   1.852   0.666   1.583
 8127TIP3    H224325   1.765   0.789   1.569
 8128TIP3   OH224326   6.627   7.617   3.540
 8128TIP3    H124327   6.705   7.578   3.501
 8128TIP3    H224328   6.556   7.595   3.480
 8129TIP3   OH224329   7.226   5.253   3.885
 8129TIP3    H124330   7.170   5.211   3.950
 8129TIP3    H224331   7.205   5.209   3.803
 8130TIP3   OH224332   5.754   5.671   6.734
 8130TIP3    H124333   5.834   5.718   6.711
 8130TIP3    H224334   5.750   5.598   6.672
 8131TIP3   OH224335   6.392   4.027   0.779
 8131TIP3    H124336   6.410   4.096   0.843
 8131TIP3    H224337   6.376   3.949   0.832
 8132TIP3   OH224338   2.173   4.137   0.947
 8132TIP3    H124339   2.165   4.174   0.859
 8132TIP3    H224340   2.216   4.052   0.933
 8133TIP3   OH224341   3.001   4.323   1.613
 8133TIP3    H124342   3.011   4.270   1.534
 8133TIP3    H224343   2.927   4.284   1.659
 8134TIP3   OH224344   6.118   4.682   0.667
 8134TIP3    H124345   6.113   4.588   0.685
 8134TIP3    H224346   6.169   4.688   0.586
 8135TIP3   OH224347   4.538   2.513   0.376
 8135TIP3    H124348   4.470   2.495   0.310
 8135TIP3    H224349   4.489   2.524   0.457
 8136TIP3   OH224350   5.161   0.501   5.951
 8136TIP3    H124351   5.081   0.451   5.933
 8136TIP3    H224352   5.230   0.435   5.953
 8137TIP3   OH224353   5.899   0.750   3.226
 8137TIP3    H124354   5.884   0.714   3.314
 8137TIP3    H224355   5.990   0.726   3.206
 8138TIP3   OH224356   2.759   4.998   5.248
 8138TIP3    H124357   2.824   5.007   5.178
 8138TIP3    H224358   2.726   5.087   5.261
 8139TIP3   OH224359   7.928   0.725   4.911
 8139TIP3    H124360   7.934   0.643   4.862
 8139TIP3    H224361   7.957   0.792   4.850
 8140TIP3   OH224362   0.469   6.784   3.722
 8140TIP3    H124363   0.400   6.797   3.657
 8140TIP3    H224364   0.532   6.855   3.704
 8141TIP3   OH224365   2.320   2.314   2.156
 8141TIP3    H124366   2.394   2.345   2.105
 8141TIP3    H224367   2.303   2.226   2.122
 8142TIP3   OH224368   4.535   1.779   3.525
 8142TIP3    H124369   4.454   1.829   3.529
 8142TIP3    H224370   4.569   1.796   3.437
 8143TIP3   OH224371   5.002   2.629   2.843
 8143TIP3    H124372   5.064   2.557   2.854
 8143TIP3    H224373   5.041   2.685   2.776
 8144TIP3   OH224374   6.220   5.655   3.657
 8144TIP3    H124375   6.275   5.612   3.722
 8144TIP3    H224376   6.267   5.735   3.634
 8145TIP3   OH224377   6.308   4.931   0.687
 8145TIP3    H124378   6.293   4.871   0.613
 8145TIP3    H224379   6.226   4.981   0.694
 8146TIP3   OH224380   3.688   6.744   5.887
 8146TIP3    H124381   3.682   6.663   5.937
 8146TIP3    H224382   3.747   6.724   5.815
 8147TIP3   OH224383   4.322   6.634   1.256
 8147TIP3    H124384   4.399   6.690   1.263
 8147TIP3    H224385   4.352   6.558   1.205
 8148TIP3   OH224386   7.749   6.706   1.889
 8148TIP3    H124387   7.690   6.658   1.947
 8148TIP3    H224388   7.779   6.641   1.826
 8149TIP3   OH224389   1.796   4.188   0.834
 8149TIP3    H124390   1.719   4.134   0.852
 8149TIP3    H224391   1.839   4.200   0.918
 8150TIP3   OH224392   1.863   2.582   5.867
 8150TIP3    H124393   1.776   2.616   5.888
 8150TIP3    H224394   1.870   2.589   5.772
 8151TIP3   OH224395   4.250   1.253   1.173
 8151TIP3    H124396   4.309   1.203   1.117
 8151TIP3    H224397   4.187   1.293   1.113
 8152TIP3   OH224398   6.420   0.356   5.812
 8152TIP3    H124399   6.458   0.411   5.744
 8152TIP3    H224400   6.404   0.272   5.769
 8153TIP3   OH224401   1.556   6.375   4.966
 8153TIP3    H124402   1.514   6.293   4.940
 8153TIP3    H224403   1.533   6.385   5.058
 8154TIP3   OH224404   3.699   2.110   0.222
 8154TIP3    H124405   3.662   2.175   0.162
 8154TIP3    H224406   3.663   2.134   0.308
 8155TIP3   OH224407   4.825   3.244   5.491
 8155TIP3    H124408   4.869   3.237   5.576
 8155TIP3    H224409   4.733   3.222   5.510
 8156TIP3   OH224410   2.914   7.435   2.692
 8156TIP3    H124411   2.891   7.483   2.772
 8156TIP3    H224412   3.009   7.424   2.698
 8157TIP3   OH224413   3.960   0.296   0.549
 8157TIP3    H124414   3.980   0.376   0.598
 8157TIP3    H224415   3.984   0.225   0.609
 8158TIP3   OH224416   1.590   3.202   0.029
 8158TIP3    H124417   1.541   3.173  -0.048
 8158TIP3    H224418   1.614   3.120   0.074
 8159TIP3   OH224419   1.832   4.293   3.207
 8159TIP3    H124420   1.860   4.246   3.285
 8159TIP3    H224421   1.908   4.345   3.181
 8160TIP3   OH224422   3.414   5.891   2.407
 8160TIP3    H124423   3.484   5.946   2.443
 8160TIP3    H224424   3.419   5.906   2.312
 8161TIP3   OH224425   5.065   2.374   6.187
 8161TIP3    H124426   4.973   2.382   6.162
 8161TIP3    H224427   5.064   2.322   6.267
 8162TIP3   OH224428   4.961   2.421   1.090
 8162TIP3    H124429   5.043   2.471   1.089
 8162TIP3    H224430   4.954   2.388   1.180
 8163TIP3   OH224431   6.481   6.597   1.510
 8163TIP3    H124432   6.385   6.606   1.507
 8163TIP3    H224433   6.496   6.502   1.514
 8164TIP3   OH224434   5.239   5.491   6.338
 8164TIP3    H124435   5.240   5.526   6.249
 8164TIP3    H224436   5.322   5.444   6.347
 8165TIP3   OH224437   0.536   5.576   5.758
 8165TIP3    H124438   0.591   5.500   5.774
 8165TIP3    H224439   0.460   5.542   5.711
 8166TIP3   OH224440   5.021   3.406   4.889
 8166TIP3    H124441   5.009   3.404   4.794
 8166TIP3    H224442   5.111   3.375   4.903
 8167TIP3   OH224443   3.442   6.868   6.244
 8167TIP3    H124444   3.438   6.963   6.234
 8167TIP3    H224445   3.356   6.837   6.215
 8168TIP3   OH224446   6.348   0.125   2.213
 8168TIP3    H124447   6.262   0.126   2.256
 8168TIP3    H224448   6.389   0.207   2.240
 8169TIP3   OH224449  -0.054   4.043   6.353
 8169TIP3    H124450  -0.042   4.033   6.259
 8169TIP3    H224451   0.026   4.005   6.391
 8170TIP3   OH224452   6.776   6.921   3.369
 8170TIP3    H124453   6.720   6.851   3.337
 8170TIP3    H224454   6.862   6.880   3.380
 8171TIP3   OH224455   0.474   3.145   1.380
 8171TIP3    H124456   0.489   3.177   1.291
 8171TIP3    H224457   0.406   3.078   1.371
 8172TIP3   OH224458   7.815   5.093   6.089
 8172TIP3    H124459   7.782   5.003   6.088
 8172TIP3    H224460   7.900   5.087   6.046
 8173TIP3   OH224461   2.225   6.334   3.686
 8173TIP3    H124462   2.244   6.383   3.606
 8173TIP3    H224463   2.281   6.257   3.681
 8174TIP3   OH224464   7.229   6.318   4.687
 8174TIP3    H124465   7.320   6.288   4.695
 8174TIP3    H224466   7.217   6.332   4.593
 8175TIP3   OH224467   7.275   2.685   4.893
 8175TIP3    H124468   7.270   2.591   4.907
 8175TIP3    H224469   7.322   2.718   4.969
 8176TIP3   OH224470   6.158   2.411   5.735
 8176TIP3    H124471   6.207   2.490   5.714
 8176TIP3    H224472   6.223   2.351   5.772
 8177TIP3   OH224473   2.511   6.110   3.882
 8177TIP3    H124474   2.603   6.096   3.905
 8177TIP3    H224475   2.491   6.197   3.913
 8178TIP3   OH224476   0.468   0.653   2.194
 8178TIP3    H124477   0.458   0.657   2.099
 8178TIP3    H224478   0.446   0.741   2.224
 8179TIP3   OH224479   6.722   4.409   4.100
 8179TIP3    H124480   6.672   4.457   4.167
 8179TIP3    H224481   6.664   4.337   4.075
 8180TIP3   OH224482   0.715   5.347   1.043
 8180TIP3    H124483   0.808   5.371   1.046
 8180TIP3    H224484   0.713   5.256   1.074
 8181TIP3   OH224485   4.745   3.515   1.280
 8181TIP3    H124486   4.841   3.515   1.276
 8181TIP3    H224487   4.723   3.597   1.324
 8182TIP3   OH224488   4.612   3.785   4.037
 8182TIP3    H124489   4.537   3.727   4.041
 8182TIP3    H224490   4.678   3.736   3.988
 8183TIP3   OH224491   1.154   7.530   1.588
 8183TIP3    H124492   1.079   7.510   1.533
 8183TIP3    H224493   1.219   7.568   1.529
 8184TIP3   OH224494   4.034   4.116   5.487
 8184TIP3    H124495   3.945   4.141   5.460
 8184TIP3    H224496   4.084   4.197   5.482
 8185TIP3   OH224497   6.230   2.054   5.065
 8185TIP3    H124498   6.261   1.967   5.091
 8185TIP3    H224499   6.307   2.097   5.027
 8186TIP3   OH224500   2.342   5.316   1.032
 8186TIP3    H124501   2.432   5.310   1.064
 8186TIP3    H224502   2.288   5.309   1.111
 8187TIP3   OH224503   1.238   7.258   6.358
 8187TIP3    H124504   1.169   7.199   6.388
 8187TIP3    H224505   1.198   7.308   6.287
 8188TIP3   OH224506   1.932   6.434   4.299
 8188TIP3    H124507   2.011   6.487   4.308
 8188TIP3    H224508   1.936   6.400   4.210
 8189TIP3   OH224509   0.513   4.788   2.090
 8189TIP3    H124510   0.503   4.881   2.069
 8189TIP3    H224511   0.608   4.775   2.097
 8190TIP3   OH224512   8.154   3.492   6.481
 8190TIP3    H124513   8.100   3.422   6.444
 8190TIP3    H224514   8.129   3.495   6.573
 8191TIP3   OH224515   1.330   6.792   6.101
 8191TIP3    H124516   1.412   6.781   6.149
 8191TIP3    H224517   1.296   6.703   6.091
 8192TIP3   OH224518   3.466   7.355   4.901
 8192TIP3    H124519   3.510   7.371   4.984
 8192TIP3    H224520   3.422   7.438   4.881
 8193TIP3   OH224521   8.090   1.240   2.774
 8193TIP3    H124522   8.017   1.263   2.717
 8193TIP3    H224523   8.082   1.299   2.849
 8194TIP3   OH224524   0.674   3.844   4.709
 8194TIP3    H124525   0.743   3.791   4.668
 8194TIP3    H224526   0.686   3.829   4.802
 8195TIP3   OH224527   3.327   2.674   2.075
 8195TIP3    H124528   3.239   2.645   2.099
 8195TIP3    H224529   3.313   2.736   2.003
 8196TIP3   OH224530   0.112   1.475   4.762
 8196TIP3    H124531   0.188   1.506   4.812
 8196TIP3    H224532   0.091   1.548   4.704
 8197TIP3   OH224533   4.120   0.902   5.675
 8197TIP3    H124534   4.213   0.880   5.671
 8197TIP3    H224535   4.084   0.841   5.740
 8198TIP3   OH224536   0.528   6.230   3.348
 8198TIP3    H124537   0.499   6.239   3.438
 8198TIP3    H224538   0.447   6.217   3.298
 8199TIP3   OH224539   0.318   4.681   2.514
 8199TIP3    H124540   0.397   4.628   2.504
 8199TIP3    H224541   0.316   4.737   2.437
 8200TIP3   OH224542   6.076   0.343   3.739
 8200TIP3    H124543   5.995   0.291   3.743
 8200TIP3    H224544   6.065   0.409   3.807
 8201TIP3   OH224545   2.756   6.461   0.137
 8201TIP3    H124546   2.822   6.530   0.132
 8201TIP3    H224547   2.680   6.497   0.092
 8202TIP3   OH224548   7.671   0.262   4.311
 8202TIP3    H124549   7.707   0.289   4.226
 8202TIP3    H224550   7.583   0.300   4.312
 8203TIP3   OH224551   7.161   3.568   4.576
 8203TIP3    H124552   7.093   3.582   4.641
 8203TIP3    H224553   7.183   3.655   4.543
 8204TIP3   OH224554   3.888   5.443   3.964
 8204TIP3    H124555   3.939   5.394   4.028
 8204TIP3    H224556   3.859   5.521   4.011
 8205TIP3   OH224557   1.546   1.807   4.184
 8205TIP3    H124558   1.614   1.871   4.161
 8205TIP3    H224559   1.472   1.829   4.127
 8206TIP3   OH224560   3.318   5.675   2.987
 8206TIP3    H124561   3.290   5.639   2.904
 8206TIP3    H224562   3.406   5.709   2.971
 8207TIP3   OH224563   0.639   1.922   3.635
 8207TIP3    H124564   0.718   1.960   3.597
 8207TIP3    H224565   0.592   1.885   3.560
 8208TIP3   OH224566   3.473   4.956   0.862
 8208TIP3    H124567   3.398   4.908   0.896
 8208TIP3    H224568   3.497   5.017   0.931
 8209TIP3   OH224569   1.199   6.146   6.702
 8209TIP3    H124570   1.112   6.132   6.665
 8209TIP3    H224571   1.193   6.229   6.748
 8210TIP3   OH224572   2.065   2.701   0.367
 8210TIP3    H124573   1.998   2.728   0.428
 8210TIP3    H224574   2.134   2.662   0.421
 8211TIP3   OH224575   3.989   6.697   4.574
 8211TIP3    H124576   3.974   6.604   4.591
 8211TIP3    H224577   4.083   6.710   4.591
 8212TIP3   OH224578   3.707   1.955   6.107
 8212TIP3    H124579   3.648   1.892   6.148
 8212TIP3    H224580   3.725   2.020   6.175
 8213TIP3   OH224581   4.876   5.925   5.362
 8213TIP3    H124582   4.816   5.871   5.312
 8213TIP3    H224583   4.963   5.888   5.343
 8214TIP3   OH224584   6.906   3.310   3.543
 8214TIP3    H124585   6.829   3.261   3.513
 8214TIP3    H224586   6.949   3.251   3.605
 8215TIP3   OH224587   2.755   6.060   1.466
 8215TIP3    H124588   2.698   6.030   1.536
 8215TIP3    H224589   2.843   6.039   1.496
 8216TIP3   OH224590   3.320   2.024   2.322
 8216TIP3    H124591   3.284   2.039   2.234
 8216TIP3    H224592   3.270   1.950   2.356
 8217TIP3   OH224593   3.073   6.987   3.632
 8217TIP3    H124594   3.030   7.063   3.672
 8217TIP3    H224595   3.146   6.967   3.690
 8218TIP3   OH224596   2.906   4.833   5.033
 8218TIP3    H124597   2.982   4.880   4.998
 8218TIP3    H224598   2.945   4.755   5.075
 8219TIP3   OH224599   5.669   2.459   3.491
 8219TIP3    H124600   5.691   2.522   3.422
 8219TIP3    H224601   5.673   2.509   3.572
 8220TIP3   OH224602   3.370   6.227   1.236
 8220TIP3    H124603   3.351   6.189   1.322
 8220TIP3    H224604   3.288   6.222   1.188
 8221TIP3   OH224605   2.032   6.847   2.093
 8221TIP3    H124606   2.052   6.875   2.183
 8221TIP3    H224607   2.021   6.752   2.099
 8222TIP3   OH224608   5.659   6.852   1.539
 8222TIP3    H124609   5.609   6.839   1.620
 8222TIP3    H224610   5.720   6.923   1.561
 8223TIP3   OH224611   2.990   2.636   0.212
 8223TIP3    H124612   2.925   2.676   0.154
 8223TIP3    H224613   2.992   2.544   0.185
 8224TIP3   OH224614   5.097   3.099   6.156
 8224TIP3    H124615   5.151   3.166   6.114
 8224TIP3    H224616   5.161   3.039   6.195
 8225TIP3   OH224617   2.363   1.962   5.320
 8225TIP3    H124618   2.370   1.871   5.291
 8225TIP3    H224619   2.404   1.963   5.406
 8226TIP3   OH224620   1.787   0.581   2.113
 8226TIP3    H124621   1.756   0.503   2.068
 8226TIP3    H224622   1.883   0.573   2.112
 8227TIP3   OH224623   6.708   6.141   3.051
 8227TIP3    H124624   6.659   6.139   3.133
 8227TIP3    H224625   6.776   6.075   3.062
 8228TIP3   OH224626   5.971   0.273   6.410
 8228TIP3    H124627   6.060   0.303   6.432
 8228TIP3    H224628   5.956   0.198   6.468
 8229TIP3   OH224629   3.529   1.539   5.739
 8229TIP3    H124630   3.565   1.596   5.671
 8229TIP3    H224631   3.584   1.553   5.815
 8230TIP3   OH224632   5.244   7.225   6.723
 8230TIP3    H124633   5.268   7.267   6.806
 8230TIP3    H224634   5.213   7.296   6.667
 8231TIP3   OH224635   8.010   7.456   2.367
 8231TIP3    H124636   8.033   7.476   2.276
 8231TIP3    H224637   8.033   7.364   2.378
 8232TIP3   OH224638   0.805   6.802   3.499
 8232TIP3    H124639   0.822   6.759   3.583
 8232TIP3    H224640   0.750   6.741   3.451
 8233TIP3   OH224641   6.619   1.648   0.299
 8233TIP3    H124642   6.627   1.729   0.248
 8233TIP3    H224643   6.678   1.659   0.373
 8234TIP3   OH224644   4.978   4.509   2.326
 8234TIP3    H124645   4.957   4.418   2.305
 8234TIP3    H224646   5.065   4.523   2.287
 8235TIP3   OH224647   1.411   2.550   0.668
 8235TIP3    H124648   1.473   2.573   0.738
 8235TIP3    H224649   1.449   2.473   0.627
 8236TIP3   OH224650   6.782   2.086   5.625
 8236TIP3    H124651   6.797   2.176   5.656
 8236TIP3    H224652   6.870   2.050   5.613
 8237TIP3   OH224653   6.670   5.907   0.907
 8237TIP3    H124654   6.764   5.890   0.899
 8237TIP3    H224655   6.661   5.950   0.992
 8238TIP3   OH224656   6.152   3.621   1.675
 8238TIP3    H124657   6.107   3.556   1.621
 8238TIP3    H224658   6.228   3.575   1.710
 8239TIP3   OH224659   2.306   6.947   4.435
 8239TIP3    H124660   2.319   6.858   4.468
 8239TIP3    H224661   2.393   6.987   4.438
 8240TIP3   OH224662   0.915   7.454   0.108
 8240TIP3    H124663   0.850   7.392   0.143
 8240TIP3    H224664   0.907   7.447   0.013
 8241TIP3   OH224665   1.828   2.157   1.410
 8241TIP3    H124666   1.795   2.159   1.500
 8241TIP3    H224667   1.797   2.239   1.371
 8242TIP3   OH224668   3.416   2.679   3.561
 8242TIP3    H124669   3.437   2.587   3.579
 8242TIP3    H224670   3.327   2.676   3.525
 8243TIP3   OH224671   4.466   5.673   2.362
 8243TIP3    H124672   4.419   5.727   2.298
 8243TIP3    H224673   4.523   5.616   2.309
 8244TIP3   OH224674   3.436   6.734   4.592
 8244TIP3    H124675   3.493   6.787   4.535
 8244TIP3    H224676   3.373   6.797   4.627
 8245TIP3   OH224677   3.099   0.166   2.235
 8245TIP3    H124678   3.073   0.217   2.157
 8245TIP3    H224679   3.168   0.218   2.276
 8246TIP3   OH224680   5.164   5.338   5.315
 8246TIP3    H124681   5.080   5.357   5.357
 8246TIP3    H224682   5.143   5.271   5.249
 8247TIP3   OH224683   1.328   3.321   1.158
 8247TIP3    H124684   1.392   3.355   1.219
 8247TIP3    H224685   1.377   3.261   1.102
 8248TIP3   OH224686   3.025   7.193   5.846
 8248TIP3    H124687   3.109   7.210   5.804
 8248TIP3    H224688   3.044   7.192   5.939
 8249TIP3   OH224689   6.756   3.142   4.821
 8249TIP3    H124690   6.812   3.105   4.753
 8249TIP3    H224691   6.705   3.209   4.777
 8250TIP3   OH224692   7.601   3.172   5.236
 8250TIP3    H124693   7.515   3.201   5.206
 8250TIP3    H224694   7.661   3.198   5.166
 8251TIP3   OH224695   2.481   3.713   4.438
 8251TIP3    H124696   2.392   3.679   4.428
 8251TIP3    H224697   2.522   3.654   4.501
 8252TIP3   OH224698   2.668   2.056   1.506
 8252TIP3    H124699   2.629   2.046   1.593
 8252TIP3    H224700   2.698   1.968   1.483
 8253TIP3   OH224701   1.317   6.058   5.610
 8253TIP3    H124702   1.357   6.067   5.697
 8253TIP3    H224703   1.298   5.964   5.602
 8254TIP3   OH224704   2.927   0.010   2.110
 8254TIP3    H124705   2.837   0.041   2.124
 8254TIP3    H224706   2.980   0.061   2.170
 8255TIP3   OH224707   1.290   1.917   0.631
 8255TIP3    H124708   1.320   1.843   0.578
 8255TIP3    H224709   1.254   1.877   0.710
 8256TIP3   OH224710   8.074   7.679   1.814
 8256TIP3    H124711   8.021   7.689   1.735
 8256TIP3    H224712   8.143   7.618   1.790
 8257TIP3   OH224713   4.528   5.568   0.078
 8257TIP3    H124714   4.576   5.511   0.018
 8257TIP3    H224715   4.460   5.608   0.024
 8258TIP3   OH224716   5.448   1.074   0.350
 8258TIP3    H124717   5.375   1.134   0.332
 8258TIP3    H224718   5.508   1.085   0.276
 8259TIP3   OH224719   1.660   0.416   3.770
 8259TIP3    H124720   1.692   0.334   3.733
 8259TIP3    H224721   1.631   0.393   3.859
 8260TIP3   OH224722   7.683   0.449   6.554
 8260TIP3    H124723   7.696   0.355   6.565
 8260TIP3    H224724   7.621   0.456   6.481
 8261TIP3   OH224725   3.660   6.944   0.452
 8261TIP3    H124726   3.692   6.992   0.376
 8261TIP3    H224727   3.716   6.974   0.524
 8262TIP3   OH224728   6.641   5.126   0.528
 8262TIP3    H124729   6.650   5.034   0.505
 8262TIP3    H224730   6.725   5.165   0.503
 8263TIP3   OH224731   7.723   0.171   5.182
 8263TIP3    H124732   7.697   0.249   5.230
 8263TIP3    H224733   7.698   0.098   5.239
 8264TIP3   OH224734   8.184   3.027   4.190
 8264TIP3    H124735   8.267   3.027   4.143
 8264TIP3    H224736   8.128   3.086   4.139
 8265TIP3   OH224737   4.844   2.453   5.199
 8265TIP3    H124738   4.772   2.511   5.222
 8265TIP3    H224739   4.898   2.503   5.138
 8266TIP3   OH224740   7.512   1.868   2.111
 8266TIP3    H124741   7.504   1.784   2.065
 8266TIP3    H224742   7.548   1.927   2.045
 8267TIP3   OH224743   6.386   1.978   2.562
 8267TIP3    H124744   6.452   2.002   2.628
 8267TIP3    H224745   6.397   1.884   2.550
 8268TIP3   OH224746   4.840   7.452   1.181
 8268TIP3    H124747   4.870   7.437   1.271
 8268TIP3    H224748   4.884   7.533   1.155
 8269TIP3   OH224749   7.116   3.264   6.368
 8269TIP3    H124750   7.026   3.233   6.359
 8269TIP3    H224751   7.114   3.322   6.444
 8270TIP3   OH224752   5.419   6.711   2.060
 8270TIP3    H124753   5.463   6.783   2.105
 8270TIP3    H224754   5.347   6.752   2.013
 8271TIP3   OH224755   1.723   6.530   5.987
 8271TIP3    H124756   1.634   6.566   5.983
 8271TIP3    H224757   1.780   6.607   5.994
 8272TIP3   OH224758   1.282   6.416   3.232
 8272TIP3    H124759   1.276   6.510   3.248
 8272TIP3    H224760   1.207   6.397   3.175
 8273TIP3   OH224761   0.636   0.443   4.005
 8273TIP3    H124762   0.721   0.453   3.962
 8273TIP3    H224763   0.615   0.350   3.996
 8274TIP3   OH224764   6.329   5.357   5.538
 8274TIP3    H124765   6.356   5.305   5.614
 8274TIP3    H224766   6.289   5.435   5.576
 8275TIP3   OH224767   2.107   2.808   4.819
 8275TIP3    H124768   2.140   2.737   4.874
 8275TIP3    H224769   2.011   2.801   4.827
 8276TIP3   OH224770   6.210   0.702   0.688
 8276TIP3    H124771   6.251   0.783   0.658
 8276TIP3    H224772   6.203   0.713   0.783
 8277TIP3   OH224773   0.901   0.877   3.300
 8277TIP3    H124774   0.930   0.790   3.271
 8277TIP3    H224775   0.899   0.930   3.220
 8278TIP3   OH224776   0.709   5.786   1.845
 8278TIP3    H124777   0.775   5.725   1.815
 8278TIP3    H224778   0.726   5.867   1.798
 8279TIP3   OH224779   2.804   4.451   0.166
 8279TIP3    H124780   2.761   4.453   0.252
 8279TIP3    H224781   2.761   4.379   0.120
 8280TIP3   OH224782   5.436   5.737   2.173
 8280TIP3    H124783   5.360   5.681   2.189
 8280TIP3    H224784   5.508   5.676   2.158
 8281TIP3   OH224785   7.843   0.971   1.781
 8281TIP3    H124786   7.760   0.935   1.748
 8281TIP3    H224787   7.816   1.036   1.847
 8282TIP3   OH224788   4.156   1.352   0.492
 8282TIP3    H124789   4.077   1.302   0.514
 8282TIP3    H224790   4.124   1.439   0.468
 8283TIP3   OH224791   5.212   4.080   5.544
 8283TIP3    H124792   5.268   4.031   5.604
 8283TIP3    H224793   5.266   4.153   5.514
 8284TIP3   OH224794   7.130   3.193   1.157
 8284TIP3    H124795   7.054   3.138   1.174
 8284TIP3    H224796   7.097   3.265   1.103
 8285TIP3   OH224797   5.802   4.276   5.477
 8285TIP3    H124798   5.768   4.366   5.475
 8285TIP3    H224799   5.824   4.262   5.569
 8286TIP3   OH224800   1.665   0.513   0.819
 8286TIP3    H124801   1.644   0.606   0.809
 8286TIP3    H224802   1.682   0.502   0.913
 8287TIP3   OH224803   2.138   3.349   4.910
 8287TIP3    H124804   2.052   3.353   4.869
 8287TIP3    H224805   2.177   3.268   4.878
 8288TIP3   OH224806   7.346   4.297   1.214
 8288TIP3    H124807   7.353   4.203   1.203
 8288TIP3    H224808   7.435   4.325   1.239
 8289TIP3   OH224809   2.975   5.490   1.369
 8289TIP3    H124810   3.020   5.541   1.302
 8289TIP3    H224811   3.008   5.401   1.357
 8290TIP3   OH224812   7.396   2.406   2.282
 8290TIP3    H124813   7.364   2.495   2.299
 8290TIP3    H224814   7.464   2.417   2.216
 8291TIP3   OH224815   0.706   7.420   4.135
 8291TIP3    H124816   0.619   7.454   4.154
 8291TIP3    H224817   0.763   7.462   4.200
 8292TIP3   OH224818   3.163   1.808   2.378
 8292TIP3    H124819   3.125   1.731   2.335
 8292TIP3    H224820   3.091   1.844   2.430
 8293TIP3   OH224821   5.603   3.905   1.975
 8293TIP3    H124822   5.532   3.939   1.922
 8293TIP3    H224823   5.651   3.983   2.004
 8294TIP3   OH224824   1.413   2.238   2.759
 8294TIP3    H124825   1.498   2.225   2.718
 8294TIP3    H224826   1.374   2.151   2.764
 8295TIP3   OH224827   5.684   3.094   2.837
 8295TIP3    H124828   5.724   3.159   2.780
 8295TIP3    H224829   5.595   3.128   2.852
 8296TIP3   OH224830   1.632   1.843   6.348
 8296TIP3    H124831   1.657   1.797   6.268
 8296TIP3    H224832   1.690   1.808   6.415
 8297TIP3   OH224833   3.845   2.700   5.578
 8297TIP3    H124834   3.787   2.680   5.504
 8297TIP3    H224835   3.933   2.684   5.544
 8298TIP3   OH224836   3.905   5.732   3.820
 8298TIP3    H124837   3.952   5.651   3.842
 8298TIP3    H224838   3.899   5.732   3.725
 8299TIP3   OH224839   6.540   5.337   6.195
 8299TIP3    H124840   6.594   5.335   6.274
 8299TIP3    H224841   6.577   5.406   6.141
 8300TIP3   OH224842   1.747   6.768   4.704
 8300TIP3    H124843   1.809   6.727   4.643
 8300TIP3    H224844   1.688   6.818   4.647
 8301TIP3   OH224845   5.397   4.252   5.169
 8301TIP3    H124846   5.323   4.312   5.175
 8301TIP3    H224847   5.368   4.173   5.214
 8302TIP3   OH224848   5.775   2.972   5.826
 8302TIP3    H124849   5.866   2.979   5.795
 8302TIP3    H224850   5.782   2.925   5.909
 8303TIP3   OH224851   0.778   4.357   0.060
 8303TIP3    H124852   0.783   4.452   0.060
 8303TIP3    H224853   0.842   4.330  -0.007
 8304TIP3   OH224854   4.707   5.418   0.611
 8304TIP3    H124855   4.771   5.360   0.650
 8304TIP3    H224856   4.756   5.468   0.546
 8305TIP3   OH224857   4.387   7.829   2.608
 8305TIP3    H124858   4.338   7.845   2.527
 8305TIP3    H224859   4.475   7.862   2.590
 8306TIP3   OH224860   1.120   0.242   6.080
 8306TIP3    H124861   1.174   0.247   6.159
 8306TIP3    H224862   1.147   0.160   6.038
 8307TIP3   OH224863   0.347   6.347   3.052
 8307TIP3    H124864   0.421   6.407   3.057
 8307TIP3    H224865   0.270   6.400   3.073
 8308TIP3   OH224866   2.196   5.088   5.667
 8308TIP3    H124867   2.241   5.164   5.704
 8308TIP3    H224868   2.138   5.058   5.736
 8309TIP3   OH224869   7.143   3.685   2.312
 8309TIP3    H124870   7.120   3.743   2.384
 8309TIP3    H224871   7.060   3.657   2.275
 8310TIP3   OH224872   3.207   3.222   2.071
 8310TIP3    H124873   3.223   3.133   2.102
 8310TIP3    H224874   3.271   3.235   2.001
 8311TIP3   OH224875   2.513   3.104   6.124
 8311TIP3    H124876   2.595   3.146   6.153
 8311TIP3    H224877   2.486   3.153   6.047
 8312TIP3   OH224878   4.598   0.220   3.324
 8312TIP3    H124879   4.684   0.191   3.356
 8312TIP3    H224880   4.550   0.139   3.306
 8313TIP3   OH224881   3.725   7.610   5.190
 8313TIP3    H124882   3.684   7.561   5.260
 8313TIP3    H224883   3.685   7.697   5.194
 8314TIP3   OH224884   3.473   7.475   4.393
 8314TIP3    H124885   3.403   7.489   4.329
 8314TIP3    H224886   3.511   7.562   4.406
 8315TIP3   OH224887   0.570   2.949   4.886
 8315TIP3    H124888   0.476   2.955   4.868
 8315TIP3    H224889   0.599   3.041   4.891
 8316TIP3   OH224890   7.336   7.008   0.738
 8316TIP3    H124891   7.286   6.927   0.732
 8316TIP3    H224892   7.423   6.980   0.769
 8317TIP3   OH224893   2.106   1.145   4.652
 8317TIP3    H124894   2.190   1.105   4.674
 8317TIP3    H224895   2.101   1.223   4.707
 8318TIP3   OH224896   3.427   3.443   2.243
 8318TIP3    H124897   3.359   3.510   2.255
 8318TIP3    H224898   3.384   3.373   2.195
 8319TIP3   OH224899   3.019   1.287   6.374
 8319TIP3    H124900   3.017   1.254   6.285
 8319TIP3    H224901   2.942   1.248   6.416
 8320TIP3   OH224902   3.273   0.248   1.312
 8320TIP3    H124903   3.233   0.335   1.303
 8320TIP3    H224904   3.287   0.239   1.407
 8321TIP3   OH224905   5.850   2.600   4.805
 8321TIP3    H124906   5.832   2.507   4.821
 8321TIP3    H224907   5.936   2.600   4.762
 8322TIP3   OH224908   5.194   3.342   4.062
 8322TIP3    H124909   5.179   3.384   4.146
 8322TIP3    H224910   5.188   3.248   4.081
 8323TIP3   OH224911   7.524   1.912   3.568
 8323TIP3    H124912   7.453   1.943   3.511
 8323TIP3    H224913   7.492   1.929   3.657
 8324TIP3   OH224914   5.554   3.982   0.486
 8324TIP3    H124915   5.591   4.058   0.531
 8324TIP3    H224916   5.505   4.020   0.412
 8325TIP3   OH224917   7.416   4.108   1.731
 8325TIP3    H124918   7.507   4.136   1.743
 8325TIP3    H224919   7.408   4.030   1.786
 8326TIP3   OH224920   1.403   7.399   6.194
 8326TIP3    H124921   1.342   7.349   6.141
 8326TIP3    H224922   1.392   7.364   6.283
 8327TIP3   OH224923   3.312   4.923   3.239
 8327TIP3    H124924   3.292   5.016   3.248
 8327TIP3    H224925   3.375   4.919   3.166
 8328TIP3   OH224926   4.978   4.275   2.617
 8328TIP3    H124927   4.992   4.202   2.557
 8328TIP3    H224928   4.998   4.239   2.704
 8329TIP3   OH224929   5.819   2.362   2.128
 8329TIP3    H124930   5.844   2.270   2.138
 8329TIP3    H224931   5.757   2.378   2.199
 8330TIP3   OH224932   1.884   5.940   5.076
 8330TIP3    H124933   1.795   5.964   5.103
 8330TIP3    H224934   1.922   5.900   5.153
 8331TIP3   OH224935   4.037   3.524   1.293
 8331TIP3    H124936   4.131   3.522   1.276
 8331TIP3    H224937   3.998   3.476   1.220
 8332TIP3   OH224938   8.145   1.538   2.008
 8332TIP3    H124939   8.235   1.567   2.025
 8332TIP3    H224940   8.140   1.527   1.913
 8333TIP3   OH224941   0.964   7.214   5.385
 8333TIP3    H124942   0.984   7.260   5.303
 8333TIP3    H224943   1.009   7.130   5.377
 8334TIP3   OH224944   2.983   5.459   2.704
 8334TIP3    H124945   2.987   5.406   2.783
 8334TIP3    H224946   2.891   5.479   2.692
 8335TIP3   OH224947   7.184   2.361   3.829
 8335TIP3    H124948   7.262   2.411   3.853
 8335TIP3    H224949   7.113   2.425   3.833
 8336TIP3   OH224950   0.361   4.371   6.715
 8336TIP3    H124951   0.349   4.294   6.658
 8336TIP3    H224952   0.449   4.402   6.693
 8337TIP3   OH224953   6.661   0.710   4.164
 8337TIP3    H124954   6.627   0.761   4.090
 8337TIP3    H224955   6.583   0.675   4.207
 8338TIP3   OH224956   3.309   3.840   2.220
 8338TIP3    H124957   3.299   3.911   2.157
 8338TIP3    H224958   3.401   3.845   2.247
 8339TIP3   OH224959   6.040   4.006   0.531
 8339TIP3    H124960   6.121   3.979   0.487
 8339TIP3    H224961   5.971   3.961   0.483
 8340TIP3   OH224962   5.834   1.281   4.312
 8340TIP3    H124963   5.786   1.317   4.237
 8340TIP3    H224964   5.790   1.319   4.388
 8341TIP3   OH224965   2.981   2.996   2.747
 8341TIP3    H124966   2.891   2.981   2.718
 8341TIP3    H224967   3.035   2.955   2.679
 8342TIP3   OH224968   5.266   7.670   5.080
 8342TIP3    H124969   5.324   7.720   5.137
 8342TIP3    H224970   5.324   7.638   5.010
 8343TIP3   OH224971   1.569   6.276   3.263
 8343TIP3    H124972   1.584   6.295   3.356
 8343TIP3    H224973   1.486   6.320   3.243
 8344TIP3   OH224974   6.780   0.349   0.382
 8344TIP3    H124975   6.734   0.358   0.298
 8344TIP3    H224976   6.873   0.348   0.358
 8345TIP3   OH224977   4.194   5.909   2.484
 8345TIP3    H124978   4.229   5.879   2.400
 8345TIP3    H224979   4.270   5.941   2.532
 8346TIP3   OH224980   0.335   6.507   1.141
 8346TIP3    H124981   0.284   6.500   1.060
 8346TIP3    H224982   0.403   6.441   1.132
 8347TIP3   OH224983   2.948   4.633   3.970
 8347TIP3    H124984   2.967   4.622   3.877
 8347TIP3    H224985   3.008   4.701   3.999
 8348TIP3   OH224986   5.940   1.993   3.067
 8348TIP3    H124987   5.898   2.007   2.982
 8348TIP3    H224988   5.990   2.074   3.082
 8349TIP3   OH224989   8.187   3.339   3.735
 8349TIP3    H124990   8.209   3.384   3.817
 8349TIP3    H224991   8.270   3.302   3.705
 8350TIP3   OH224992   6.708   0.529   6.605
 8350TIP3    H124993   6.648   0.589   6.648
 8350TIP3    H224994   6.783   0.524   6.665
 8351TIP3   OH224995   4.098   0.273   1.739
 8351TIP3    H124996   4.102   0.241   1.829
 8351TIP3    H224997   4.175   0.236   1.697
 8352TIP3   OH224998   4.957   4.796   5.513
 8352TIP3    H124999   4.869   4.783   5.548
 8352TIP3    H225000   4.979   4.885   5.537
 8353TIP3   OH225001   8.095   5.975   2.303
 8353TIP3    H125002   8.131   5.900   2.350
 8353TIP3    H225003   8.168   6.037   2.298
 8354TIP3   OH225004   7.858   5.165   0.598
 8354TIP3    H125005   7.898   5.084   0.631
 8354TIP3    H225006   7.816   5.138   0.516
 8355TIP3   OH225007   4.550   6.810   6.587
 8355TIP3    H125008   4.632   6.850   6.559
 8355TIP3    H225009   4.576   6.729   6.631
 8356TIP3   OH225010   1.016   6.617   3.336
 8356TIP3    H125011   0.956   6.543   3.329
 8356TIP3    H225012   0.963   6.694   3.315
 8357TIP3   OH225013   7.926   3.483   6.141
 8357TIP3    H125014   8.012   3.527   6.144
 8357TIP3    H225015   7.924   3.430   6.221
 8358TIP3   OH225016   3.370   5.811   4.156
 8358TIP3    H125017   3.381   5.883   4.094
 8358TIP3    H225018   3.327   5.742   4.105
 8359TIP3   OH225019   6.744   2.425   5.481
 8359TIP3    H125020   6.717   2.472   5.560
 8359TIP3    H225021   6.675   2.443   5.418
 8360TIP3   OH225022   6.625   5.165   0.233
 8360TIP3    H125023   6.637   5.076   0.199
 8360TIP3    H225024   6.631   5.156   0.328
 8361TIP3   OH225025   6.796   6.430   4.975
 8361TIP3    H125026   6.881   6.387   4.963
 8361TIP3    H225027   6.732   6.367   4.943
 8362TIP3   OH225028   7.510   1.613   2.013
 8362TIP3    H125029   7.481   1.628   1.923
 8362TIP3    H225030   7.550   1.526   2.011
 8363TIP3   OH225031   0.781   6.168   0.627
 8363TIP3    H125032   0.690   6.187   0.649
 8363TIP3    H225033   0.797   6.081   0.662
 8364TIP3   OH225034   4.000   6.741   4.223
 8364TIP3    H125035   4.001   6.811   4.289
 8364TIP3    H225036   3.910   6.740   4.190
 8365TIP3   OH225037   6.858   3.484   4.745
 8365TIP3    H125038   6.860   3.535   4.664
 8365TIP3    H225039   6.767   3.455   4.754
 8366TIP3   OH225040   1.520   6.420   6.242
 8366TIP3    H125041   1.568   6.383   6.317
 8366TIP3    H225042   1.555   6.375   6.166
 8367TIP3   OH225043   4.785   5.823   4.251
 8367TIP3    H125044   4.723   5.889   4.281
 8367TIP3    H225045   4.800   5.844   4.159
 8368TIP3   OH225046   7.097   6.730   1.857
 8368TIP3    H125047   7.073   6.822   1.844
 8368TIP3    H225048   7.048   6.703   1.934
 8369TIP3   OH225049   7.883   2.861   1.498
 8369TIP3    H125050   7.923   2.948   1.492
 8369TIP3    H225051   7.794   2.874   1.466
 8370TIP3   OH225052   0.776   4.081   5.372
 8370TIP3    H125053   0.788   4.002   5.319
 8370TIP3    H225054   0.705   4.059   5.433
 8371TIP3   OH225055   5.663   4.873   0.718
 8371TIP3    H125056   5.647   4.813   0.792
 8371TIP3    H225057   5.757   4.866   0.702
 8372TIP3   OH225058   6.627   2.171   3.652
 8372TIP3    H125059   6.705   2.225   3.659
 8372TIP3    H225060   6.572   2.215   3.588
 8373TIP3   OH225061   1.477   6.676   6.297
 8373TIP3    H125062   1.519   6.687   6.382
 8373TIP3    H225063   1.498   6.586   6.271
 8374TIP3   OH225064   4.899   7.389   4.048
 8374TIP3    H125065   4.861   7.309   4.083
 8374TIP3    H225066   4.992   7.367   4.035
 8375TIP3   OH225067   6.229   4.338   2.381
 8375TIP3    H125068   6.235   4.306   2.291
 8375TIP3    H225069   6.275   4.422   2.379
 8376TIP3   OH225070   0.157   0.213   3.035
 8376TIP3    H125071   0.205   0.294   3.052
 8376TIP3    H225072   0.223   0.144   3.044
 8377TIP3   OH225073   1.161   6.363   2.865
 8377TIP3    H125074   1.137   6.426   2.932
 8377TIP3    H225075   1.154   6.411   2.783
 8378TIP3   OH225076   1.483   0.352   1.520
 8378TIP3    H125077   1.417   0.313   1.464
 8378TIP3    H225078   1.563   0.302   1.502
 8379TIP3   OH225079   3.949   4.973   0.628
 8379TIP3    H125080   3.966   5.026   0.705
 8379TIP3    H225081   3.863   4.933   0.644
 8380TIP3   OH225082   5.648   2.260   3.785
 8380TIP3    H125083   5.680   2.278   3.696
 8380TIP3    H225084   5.680   2.171   3.803
 8381TIP3   OH225085   2.059   7.154   6.149
 8381TIP3    H125086   2.096   7.235   6.113
 8381TIP3    H225087   2.129   7.119   6.204
 8382TIP3   OH225088   4.468   7.032   3.417
 8382TIP3    H125089   4.427   7.118   3.417
 8382TIP3    H225090   4.538   7.040   3.352
 8383TIP3   OH225091   1.145   1.412   3.383
 8383TIP3    H125092   1.078   1.374   3.440
 8383TIP3    H225093   1.171   1.492   3.428
 8384TIP3   OH225094   2.591   5.933   4.496
 8384TIP3    H125095   2.589   5.967   4.586
 8384TIP3    H225096   2.512   5.880   4.490
 8385TIP3   OH225097   1.788   4.576   1.571
 8385TIP3    H125098   1.727   4.503   1.572
 8385TIP3    H225099   1.738   4.650   1.607
 8386TIP3   OH225100   4.854   4.080   4.013
 8386TIP3    H125101   4.827   4.141   3.945
 8386TIP3    H225102   4.945   4.104   4.033
 8387TIP3   OH225103   2.866   1.345   2.571
 8387TIP3    H125104   2.827   1.420   2.526
 8387TIP3    H225105   2.799   1.318   2.634
 8388TIP3   OH225106   1.866   1.733   5.060
 8388TIP3    H125107   1.784   1.703   5.020
 8388TIP3    H225108   1.864   1.829   5.051
 8389TIP3   OH225109   0.435   4.517   5.075
 8389TIP3    H125110   0.426   4.467   5.157
 8389TIP3    H225111   0.490   4.591   5.098
 8390TIP3   OH225112   2.516   4.020   5.445
 8390TIP3    H125113   2.582   3.987   5.384
 8390TIP3    H225114   2.547   3.992   5.531
 8391TIP3   OH225115   6.850   7.749   4.572
 8391TIP3    H125116   6.928   7.804   4.569
 8391TIP3    H225117   6.777   7.809   4.561
 8392TIP3   OH225118   1.889   2.435   4.197
 8392TIP3    H125119   1.811   2.438   4.142
 8392TIP3    H225120   1.856   2.448   4.286
 8393TIP3   OH225121   0.153   1.577   2.019
 8393TIP3    H125122   0.230   1.622   1.984
 8393TIP3    H225123   0.121   1.635   2.089
 8394TIP3   OH225124   2.247   0.630   2.918
 8394TIP3    H125125   2.222   0.713   2.877
 8394TIP3    H225126   2.180   0.568   2.890
 8395TIP3   OH225127   1.671   7.786   6.133
 8395TIP3    H125128   1.611   7.838   6.078
 8395TIP3    H225129   1.669   7.699   6.093
 8396TIP3   OH225130   6.309   1.719   5.208
 8396TIP3    H125131   6.330   1.691   5.297
 8396TIP3    H225132   6.215   1.704   5.200
 8397TIP3   OH225133   7.820   3.428   6.542
 8397TIP3    H125134   7.862   3.494   6.487
 8397TIP3    H225135   7.884   3.411   6.611
 8398TIP3   OH225136   6.305   1.461   4.897
 8398TIP3    H125137   6.227   1.413   4.867
 8398TIP3    H225138   6.349   1.488   4.816
 8399TIP3   OH225139   6.758   4.793   5.986
 8399TIP3    H125140   6.761   4.795   6.082
 8399TIP3    H225141   6.723   4.879   5.962
 8400TIP3   OH225142   0.197   7.163   1.741
 8400TIP3    H125143   0.153   7.224   1.681
 8400TIP3    H225144   0.279   7.207   1.764
 8401TIP3   OH225145   1.082   2.117   5.825
 8401TIP3    H125146   0.993   2.110   5.791
 8401TIP3    H225147   1.127   2.174   5.763
 8402TIP3   OH225148   5.884   1.809   0.371
 8402TIP3    H125149   5.902   1.835   0.461
 8402TIP3    H225150   5.804   1.757   0.376
 8403TIP3   OH225151   0.553   4.567   0.746
 8403TIP3    H125152   0.604   4.487   0.732
 8403TIP3    H225153   0.515   4.587   0.661
 8404TIP3   OH225154   7.790   4.652   6.448
 8404TIP3    H125155   7.837   4.569   6.435
 8404TIP3    H225156   7.699   4.626   6.462
 8405TIP3   OH225157   3.692   4.813   6.111
 8405TIP3    H125158   3.655   4.900   6.125
 8405TIP3    H225159   3.715   4.811   6.019
 8406TIP3   OH225160   4.363   6.200   0.638
 8406TIP3    H125161   4.359   6.216   0.543
 8406TIP3    H225162   4.298   6.132   0.654
 8407TIP3   OH225163   0.363   4.497   1.655
 8407TIP3    H125164   0.303   4.571   1.658
 8407TIP3    H225165   0.306   4.420   1.647
 8408TIP3   OH225166   0.413   2.268   1.079
 8408TIP3    H125167   0.364   2.231   1.152
 8408TIP3    H225168   0.412   2.200   1.012
 8409TIP3   OH225169   0.581   6.038   1.441
 8409TIP3    H125170   0.626   5.954   1.432
 8409TIP3    H225171   0.648   6.098   1.473
 8410TIP3   OH225172   2.968   0.930   5.822
 8410TIP3    H125173   2.929   0.856   5.776
 8410TIP3    H225174   2.895   0.969   5.871
 8411TIP3   OH225175   2.704   7.405   5.714
 8411TIP3    H125176   2.625   7.364   5.679
 8411TIP3    H225177   2.749   7.334   5.760
 8412TIP3   OH225178   6.919   5.670   3.725
 8412TIP3    H125179   6.912   5.588   3.774
 8412TIP3    H225180   7.004   5.664   3.681
 8413TIP3   OH225181   6.918   1.305   2.017
 8413TIP3    H125182   6.939   1.380   2.073
 8413TIP3    H225183   6.824   1.312   2.001
 8414TIP3   OH225184   3.114   1.033   3.060
 8414TIP3    H125185   3.136   1.076   3.142
 8414TIP3    H225186   3.091   0.943   3.085
 8415TIP3   OH225187   5.129   2.022   2.918
 8415TIP3    H125188   5.210   2.034   2.967
 8415TIP3    H225189   5.071   2.092   2.949
 8416TIP3   OH225190   0.288   3.086   2.454
 8416TIP3    H125191   0.373   3.041   2.447
 8416TIP3    H225192   0.292   3.156   2.389
 8417TIP3   OH225193   0.707   5.279   2.665
 8417TIP3    H125194   0.799   5.277   2.640
 8417TIP3    H225195   0.664   5.329   2.595
 8418TIP3   OH225196   0.096   4.764   5.485
 8418TIP3    H125197   0.146   4.797   5.410
 8418TIP3    H225198   0.059   4.843   5.525
 8419TIP3   OH225199   4.181   6.604   3.262
 8419TIP3    H125200   4.197   6.597   3.357
 8419TIP3    H225201   4.222   6.686   3.238
 8420TIP3   OH225202   5.945   6.248   2.548
 8420TIP3    H125203   5.852   6.268   2.548
 8420TIP3    H225204   5.971   6.257   2.456
 8421TIP3   OH225205   6.675   6.554   3.426
 8421TIP3    H125206   6.673   6.600   3.342
 8421TIP3    H225207   6.767   6.531   3.439
 8422TIP3   OH225208   5.472   5.035   4.934
 8422TIP3    H125209   5.474   5.128   4.909
 8422TIP3    H225210   5.532   4.993   4.872
 8423TIP3   OH225211   1.530   0.857   3.555
 8423TIP3    H125212   1.486   0.942   3.551
 8423TIP3    H225213   1.519   0.829   3.646
 8424TIP3   OH225214   6.360   1.757   2.280
 8424TIP3    H125215   6.408   1.728   2.358
 8424TIP3    H225216   6.360   1.680   2.223
 8425TIP3   OH225217   1.778   7.445   5.144
 8425TIP3    H125218   1.802   7.537   5.135
 8425TIP3    H225219   1.819   7.402   5.068
 8426TIP3   OH225220   0.724   2.018   1.579
 8426TIP3    H125221   0.701   2.016   1.671
 8426TIP3    H225222   0.820   2.018   1.578
 8427TIP3   OH225223   3.408   3.756   0.286
 8427TIP3    H125224   3.419   3.813   0.210
 8427TIP3    H225225   3.378   3.673   0.249
 8428TIP3   OH225226   7.367   5.426   0.877
 8428TIP3    H125227   7.434   5.456   0.938
 8428TIP3    H225228   7.344   5.338   0.908
 8429TIP3   OH225229   4.891   1.704   1.819
 8429TIP3    H125230   4.831   1.748   1.759
 8429TIP3    H225231   4.847   1.623   1.842
 8430TIP3   OH225232   0.520   5.275   1.307
 8430TIP3    H125233   0.531   5.259   1.401
 8430TIP3    H225234   0.475   5.359   1.302
 8431TIP3   OH225235   4.179   7.245   5.026
 8431TIP3    H125236   4.175   7.329   5.071
 8431TIP3    H225237   4.245   7.257   4.958
 8432TIP3   OH225238   7.096   5.219   2.856
 8432TIP3    H125239   7.052   5.184   2.779
 8432TIP3    H225240   7.081   5.154   2.924
 8433TIP3   OH225241   0.467   4.866   5.756
 8433TIP3    H125242   0.434   4.903   5.838
 8433TIP3    H225243   0.393   4.817   5.720
 8434TIP3   OH225244   6.598   0.400   2.008
 8434TIP3    H125245   6.688   0.423   2.032
 8434TIP3    H225246   6.606   0.359   1.922
 8435TIP3   OH225247   3.658   6.256   3.674
 8435TIP3    H125248   3.580   6.277   3.727
 8435TIP3    H225249   3.730   6.258   3.737
 8436TIP3   OH225250   5.653   6.088   2.425
 8436TIP3    H125251   5.708   6.012   2.404
 8436TIP3    H225252   5.564   6.060   2.406
 8437TIP3   OH225253   3.913   4.739   3.840
 8437TIP3    H125254   3.952   4.652   3.841
 8437TIP3    H225255   3.822   4.725   3.812
 8438TIP3   OH225256   7.952   5.505   3.646
 8438TIP3    H125257   7.962   5.589   3.601
 8438TIP3    H225258   7.930   5.442   3.577
 8439TIP3   OH225259   5.421   3.681   0.551
 8439TIP3    H125260   5.361   3.735   0.499
 8439TIP3    H225261   5.381   3.594   0.550
 8440TIP3   OH225262   7.061   4.336   1.249
 8440TIP3    H125263   7.157   4.335   1.252
 8440TIP3    H225264   7.039   4.290   1.168
 8441TIP3   OH225265   5.153   0.275   3.424
 8441TIP3    H125266   5.099   0.337   3.471
 8441TIP3    H225267   5.184   0.323   3.347
 8442TIP3   OH225268   0.432   2.718   1.186
 8442TIP3    H125269   0.498   2.787   1.183
 8442TIP3    H225270   0.375   2.735   1.111
 8443TIP3   OH225271   0.725   2.847   0.664
 8443TIP3    H125272   0.807   2.864   0.616
 8443TIP3    H225273   0.733   2.899   0.744
 8444TIP3   OH225274   3.123   2.279   1.836
 8444TIP3    H125275   3.074   2.304   1.757
 8444TIP3    H225276   3.143   2.187   1.822
 8445TIP3   OH225277   1.482   1.235   1.023
 8445TIP3    H125278   1.415   1.237   0.955
 8445TIP3    H225279   1.520   1.147   1.016
 8446TIP3   OH225280   6.649   3.590   1.914
 8446TIP3    H125281   6.726   3.607   1.968
 8446TIP3    H225282   6.677   3.523   1.852
 8447TIP3   OH225283   7.981   2.579   3.657
 8447TIP3    H125284   8.044   2.564   3.728
 8447TIP3    H225285   7.961   2.672   3.662
 8448TIP3   OH225286   3.836   4.832   5.284
 8448TIP3    H125287   3.837   4.754   5.228
 8448TIP3    H225288   3.846   4.905   5.223
 8449TIP3   OH225289   1.340   5.426   4.746
 8449TIP3    H125290   1.343   5.464   4.834
 8449TIP3    H225291   1.318   5.334   4.760
 8450TIP3   OH225292   0.742   3.246   3.247
 8450TIP3    H125293   0.708   3.167   3.288
 8450TIP3    H225294   0.772   3.218   3.160
 8451TIP3   OH225295   3.303   4.822   6.104
 8451TIP3    H125296   3.254   4.768   6.042
 8451TIP3    H225297   3.321   4.903   6.056
 8452TIP3   OH225298   6.823   4.975   0.294
 8452TIP3    H125299   6.809   4.880   0.299
 8452TIP3    H225300   6.811   4.997   0.202
 8453TIP3   OH225301   0.329   4.850   2.305
 8453TIP3    H125302   0.397   4.823   2.243
 8453TIP3    H225303   0.352   4.940   2.328
 8454TIP3   OH225304   2.291   0.926   6.746
 8454TIP3    H125305   2.366   0.879   6.708
 8454TIP3    H225306   2.268   0.875   6.823
 8455TIP3   OH225307   3.535   1.549   0.520
 8455TIP3    H125308   3.588   1.544   0.599
 8455TIP3    H225309   3.474   1.621   0.536
 8456TIP3   OH225310   0.600   3.079   1.904
 8456TIP3    H125311   0.533   3.099   1.838
 8456TIP3    H225312   0.551   3.041   1.977
 8457TIP3   OH225313   6.323   6.599   6.143
 8457TIP3    H125314   6.316   6.558   6.057
 8457TIP3    H225315   6.355   6.530   6.201
 8458TIP3   OH225316   1.531   5.705   3.578
 8458TIP3    H125317   1.522   5.648   3.502
 8458TIP3    H225318   1.455   5.685   3.632
 8459TIP3   OH225319   0.024   0.625   4.637
 8459TIP3    H125320   0.065   0.695   4.688
 8459TIP3    H225321   0.071   0.546   4.664
 8460TIP3   OH225322   2.665   7.738   6.440
 8460TIP3    H125323   2.657   7.705   6.530
 8460TIP3    H225324   2.614   7.676   6.388
 8461TIP3   OH225325   6.114   7.018   2.121
 8461TIP3    H125326   6.057   7.094   2.115
 8461TIP3    H225327   6.150   7.022   2.209
 8462TIP3   OH225328   5.463   3.827   2.326
 8462TIP3    H125329   5.555   3.851   2.329
 8462TIP3    H225330   5.463   3.732   2.314
 8463TIP3   OH225331   4.198   7.637   6.742
 8463TIP3    H125332   4.154   7.638   6.657
 8463TIP3    H225333   4.191   7.546   6.772
 8464TIP3   OH225334   6.871   0.195   6.196
 8464TIP3    H125335   6.908   0.161   6.115
 8464TIP3    H225336   6.930   0.164   6.264
 8465TIP3   OH225337   4.561   2.653   4.974
 8465TIP3    H125338   4.602   2.679   5.057
 8465TIP3    H225339   4.633   2.644   4.913
 8466TIP3   OH225340   7.406   5.509   2.730
 8466TIP3    H125341   7.460   5.557   2.667
 8466TIP3    H225342   7.325   5.559   2.734
 8467TIP3   OH225343   6.597   1.657   0.778
 8467TIP3    H125344   6.545   1.725   0.735
 8467TIP3    H225345   6.618   1.595   0.709
 8468TIP3   OH225346   1.483   4.676   4.494
 8468TIP3    H125347   1.431   4.623   4.555
 8468TIP3    H225348   1.440   4.762   4.494
 8469TIP3   OH225349   8.268   7.366   6.512
 8469TIP3    H125350   8.295   7.341   6.424
 8469TIP3    H225351   8.308   7.300   6.569
 8470TIP3   OH225352   4.425   3.994   0.522
 8470TIP3    H125353   4.419   4.070   0.464
 8470TIP3    H225354   4.370   3.928   0.481
 8471TIP3   OH225355   0.215   6.310   4.300
 8471TIP3    H125356   0.121   6.313   4.319
 8471TIP3    H225357   0.231   6.387   4.245
 8472TIP3   OH225358   7.415   0.700   0.871
 8472TIP3    H125359   7.352   0.767   0.843
 8472TIP3    H225360   7.439   0.654   0.791
 8473TIP3   OH225361   0.439   3.809   0.873
 8473TIP3    H125362   0.385   3.810   0.952
 8473TIP3    H225363   0.408   3.884   0.822
 8474TIP3   OH225364   1.046   1.985   6.241
 8474TIP3    H125365   0.976   2.042   6.210
 8474TIP3    H225366   1.081   2.030   6.318
 8475TIP3   OH225367   6.724   1.109   3.710
 8475TIP3    H125368   6.790   1.086   3.776
 8475TIP3    H225369   6.771   1.163   3.647
 8476TIP3   OH225370   8.285   0.053   5.596
 8476TIP3    H125371   8.233   0.043   5.516
 8476TIP3    H225372   8.229   0.105   5.654
 8477TIP3   OH225373   6.059   0.542   6.645
 8477TIP3    H125374   6.137   0.510   6.599
 8477TIP3    H225375   6.094   0.603   6.710
 8478TIP3   OH225376   1.178   6.562   0.018
 8478TIP3    H125377   1.245   6.526   0.075
 8478TIP3    H225378   1.154   6.645   0.059
 8479TIP3   OH225379   7.633   6.213   4.462
 8479TIP3    H125380   7.541   6.186   4.471
 8479TIP3    H225381   7.670   6.151   4.400
 8480TIP3   OH225382   3.670   0.203   5.510
 8480TIP3    H125383   3.648   0.212   5.603
 8480TIP3    H225384   3.728   0.127   5.506
 8481TIP3   OH225385   8.050   7.634   2.612
 8481TIP3    H125386   8.054   7.576   2.536
 8481TIP3    H225387   7.993   7.706   2.584
 8482TIP3   OH225388   6.554   1.816   3.261
 8482TIP3    H125389   6.510   1.768   3.332
 8482TIP3    H225390   6.607   1.882   3.307
 8483TIP3   OH225391   1.844   6.570   5.285
 8483TIP3    H125392   1.796   6.601   5.361
 8483TIP3    H225393   1.923   6.530   5.321
 8484TIP3   OH225394   3.785   6.863   2.047
 8484TIP3    H125395   3.779   6.776   2.007
 8484TIP3    H225396   3.809   6.846   2.138
 8485TIP3   OH225397   4.378   5.775   3.035
 8485TIP3    H125398   4.325   5.707   3.076
 8485TIP3    H225399   4.445   5.727   2.987
 8486TIP3   OH225400   6.423   1.105   3.375
 8486TIP3    H125401   6.414   1.090   3.469
 8486TIP3    H225402   6.408   1.199   3.364
 8487TIP3   OH225403   2.759   6.467   0.797
 8487TIP3    H125404   2.849   6.435   0.793
 8487TIP3    H225405   2.706   6.394   0.763
 8488TIP3   OH225406   0.464   1.689   0.539
 8488TIP3    H125407   0.492   1.598   0.528
 8488TIP3    H225408   0.397   1.702   0.472
 8489TIP3   OH225409   5.874   1.596   1.660
 8489TIP3    H125410   5.816   1.663   1.626
 8489TIP3    H225411   5.950   1.644   1.693
 8490TIP3   OH225412   6.120   7.175   4.118
 8490TIP3    H125413   6.144   7.225   4.040
 8490TIP3    H225414   6.076   7.097   4.084
 8491TIP3   OH225415   3.614   5.640   0.668
 8491TIP3    H125416   3.559   5.563   0.651
 8491TIP3    H225417   3.699   5.603   0.692
 8492TIP3   OH225418   4.330   0.966   1.313
 8492TIP3    H125419   4.313   1.014   1.393
 8492TIP3    H225420   4.256   0.906   1.304
 8493TIP3   OH225421   6.007   1.123   5.729
 8493TIP3    H125422   5.967   1.060   5.788
 8493TIP3    H225423   5.991   1.088   5.641
 8494TIP3   OH225424   2.437   5.917   1.928
 8494TIP3    H125425   2.382   5.994   1.938
 8494TIP3    H225426   2.512   5.934   1.985
 8495TIP3   OH225427   8.064   3.791   5.763
 8495TIP3    H125428   8.095   3.764   5.849
 8495TIP3    H225429   7.973   3.819   5.778
 8496TIP3   OH225430   5.143   4.992   1.030
 8496TIP3    H125431   5.111   5.063   1.086
 8496TIP3    H225432   5.078   4.986   0.960
 8497TIP3   OH225433   5.197   2.788   3.344
 8497TIP3    H125434   5.291   2.783   3.358
 8497TIP3    H225435   5.187   2.794   3.249
 8498TIP3   OH225436   1.890   3.083   1.609
 8498TIP3    H125437   1.919   2.992   1.609
 8498TIP3    H225438   1.972   3.134   1.607
 8499TIP3   OH225439   5.115   5.937   3.228
 8499TIP3    H125440   5.043   5.945   3.290
 8499TIP3    H225441   5.100   5.852   3.185
 8500TIP3   OH225442   4.388   6.305   2.488
 8500TIP3    H125443   4.458   6.360   2.452
 8500TIP3    H225444   4.395   6.317   2.582
 8501TIP3   OH225445   4.727   2.820   5.964
 8501TIP3    H125446   4.769   2.746   6.008
 8501TIP3    H225447   4.701   2.878   6.035
 8502TIP3   OH225448   3.780   4.284   2.171
 8502TIP3    H125449   3.747   4.270   2.082
 8502TIP3    H225450   3.781   4.379   2.181
 8503TIP3   OH225451   8.167   6.766   4.340
 8503TIP3    H125452   8.163   6.858   4.315
 8503TIP3    H225453   8.175   6.718   4.258
 8504TIP3   OH225454   8.108   4.204   2.939
 8504TIP3    H125455   8.154   4.280   2.904
 8504TIP3    H225456   8.107   4.218   3.034
 8505TIP3   OH225457   0.266   6.457   0.886
 8505TIP3    H125458   0.183   6.440   0.841
 8505TIP3    H225459   0.328   6.398   0.843
 8506TIP3   OH225460   0.785   3.872   6.409
 8506TIP3    H125461   0.736   3.949   6.435
 8506TIP3    H225462   0.809   3.829   6.491
 8507TIP3   OH225463   0.369   1.068   3.888
 8507TIP3    H125464   0.413   1.111   3.815
 8507TIP3    H225465   0.290   1.120   3.903
 8508TIP3   OH225466   4.806   5.704   1.758
 8508TIP3    H125467   4.724   5.730   1.800
 8508TIP3    H225468   4.872   5.711   1.827
 8509TIP3   OH225469   1.328   2.522   2.496
 8509TIP3    H125470   1.276   2.584   2.445
 8509TIP3    H225471   1.368   2.575   2.564
 8510TIP3   OH225472   4.151   6.257   6.819
 8510TIP3    H125473   4.093   6.184   6.801
 8510TIP3    H225474   4.100   6.314   6.877
 8511TIP3   OH225475   7.081   1.306   6.572
 8511TIP3    H125476   7.060   1.399   6.584
 8511TIP3    H225477   7.053   1.264   6.653
 8512TIP3   OH225478   7.794   5.577   2.542
 8512TIP3    H125479   7.829   5.667   2.544
 8512TIP3    H225480   7.863   5.526   2.499
 8513TIP3   OH225481   0.154   6.694   4.277
 8513TIP3    H125482   0.107   6.757   4.224
 8513TIP3    H225483   0.247   6.717   4.265
 8514TIP3   OH225484   7.226   0.455   3.144
 8514TIP3    H125485   7.148   0.403   3.160
 8514TIP3    H225486   7.238   0.453   3.049
 8515TIP3   OH225487   7.867   5.654   1.081
 8515TIP3    H125488   7.857   5.749   1.075
 8515TIP3    H225489   7.950   5.635   1.036
 8516TIP3   OH225490   1.233   7.522   3.312
 8516TIP3    H125491   1.241   7.447   3.370
 8516TIP3    H225492   1.319   7.532   3.272
 8517TIP3   OH225493   7.479   5.538   5.721
 8517TIP3    H125494   7.500   5.511   5.632
 8517TIP3    H225495   7.388   5.566   5.718
 8518TIP3   OH225496   4.641   1.856   0.883
 8518TIP3    H125497   4.610   1.932   0.932
 8518TIP3    H225498   4.685   1.893   0.806
 8519TIP3   OH225499   2.897   2.665   4.503
 8519TIP3    H125500   2.952   2.711   4.566
 8519TIP3    H225501   2.816   2.647   4.551
 8520TIP3   OH225502   3.600   0.890   1.107
 8520TIP3    H125503   3.553   0.950   1.049
 8520TIP3    H225504   3.562   0.804   1.088
 8521TIP3   OH225505   7.150   7.359   1.281
 8521TIP3    H125506   7.143   7.447   1.242
 8521TIP3    H225507   7.212   7.370   1.352
 8522TIP3   OH225508   5.081   0.666   0.364
 8522TIP3    H125509   4.994   0.699   0.385
 8522TIP3    H225510   5.109   0.717   0.288
 8523TIP3   OH225511   6.484   2.019   5.432
 8523TIP3    H125512   6.566   2.026   5.383
 8523TIP3    H225513   6.463   1.926   5.428
 8524TIP3   OH225514   6.954   0.745   0.672
 8524TIP3    H125515   6.955   0.709   0.761
 8524TIP3    H225516   6.898   0.685   0.622
 8525TIP3   OH225517   6.585   4.843   4.164
 8525TIP3    H125518   6.499   4.842   4.122
 8525TIP3    H225519   6.594   4.931   4.199
 8526TIP3   OH225520   4.880   6.163   3.670
 8526TIP3    H125521   4.905   6.088   3.615
 8526TIP3    H225522   4.793   6.141   3.702
 8527TIP3   OH225523   5.023   4.141   3.409
 8527TIP3    H125524   4.946   4.175   3.364
 8527TIP3    H225525   4.990   4.108   3.493
 8528TIP3   OH225526   5.446   0.126   0.600
 8528TIP3    H125527   5.367   0.178   0.613
 8528TIP3    H225528   5.503   0.182   0.548
 8529TIP3   OH225529   5.730   0.742   1.010
 8529TIP3    H125530   5.647   0.720   1.053
 8529TIP3    H225531   5.749   0.667   0.954
 8530TIP3   OH225532   7.757   5.244   3.224
 8530TIP3    H125533   7.733   5.152   3.228
 8530TIP3    H225534   7.689   5.285   3.171
 8531TIP3   OH225535   2.470   1.186   3.993
 8531TIP3    H125536   2.475   1.276   4.024
 8531TIP3    H225537   2.555   1.169   3.954
 8532TIP3   OH225538   5.943   4.658   6.327
 8532TIP3    H125539   5.855   4.628   6.303
 8532TIP3    H225540   5.937   4.677   6.421
 8533TIP3   OH225541   7.437   1.164   4.954
 8533TIP3    H125542   7.368   1.106   4.923
 8533TIP3    H225543   7.397   1.211   5.028
 8534TIP3   OH225544   5.196   6.937   2.204
 8534TIP3    H125545   5.158   6.854   2.233
 8534TIP3    H225546   5.144   6.962   2.128
 8535TIP3   OH225547   1.814   2.237   5.477
 8535TIP3    H125548   1.770   2.154   5.459
 8535TIP3    H225549   1.763   2.277   5.548
 8536TIP3   OH225550   4.843   2.544   6.671
 8536TIP3    H125551   4.849   2.575   6.581
 8536TIP3    H225552   4.933   2.549   6.703
 8537TIP3   OH225553   2.655   5.801   6.278
 8537TIP3    H125554   2.586   5.851   6.236
 8537TIP3    H225555   2.618   5.777   6.364
 8538TIP3   OH225556   2.586   7.636   1.403
 8538TIP3    H125557   2.637   7.555   1.395
 8538TIP3    H225558   2.511   7.622   1.345
 8539TIP3   OH225559   4.751   1.770   2.871
 8539TIP3    H125560   4.688   1.812   2.813
 8539TIP3    H225561   4.707   1.767   2.956
 8540TIP3   OH225562   7.320   0.888   5.192
 8540TIP3    H125563   7.399   0.942   5.192
 8540TIP3    H225564   7.343   0.812   5.246
 8541TIP3   OH225565   1.353   1.532   5.575
 8541TIP3    H125566   1.399   1.596   5.520
 8541TIP3    H225567   1.414   1.458   5.580
 8542TIP3   OH225568   4.757   4.342   0.966
 8542TIP3    H125569   4.685   4.397   0.995
 8542TIP3    H225570   4.835   4.397   0.974
 8543TIP3   OH225571   8.266   5.385   6.502
 8543TIP3    H125572   8.237   5.463   6.454
 8543TIP3    H225573   8.185   5.341   6.527
 8544TIP3   OH225574   0.805   2.901   5.915
 8544TIP3    H125575   0.815   2.931   6.005
 8544TIP3    H225576   0.793   2.806   5.922
 8545TIP3   OH225577   2.787   4.853   3.954
 8545TIP3    H125578   2.840   4.780   3.924
 8545TIP3    H225579   2.781   4.911   3.878
 8546TIP3   OH225580   6.235   6.892   3.780
 8546TIP3    H125581   6.267   6.840   3.707
 8546TIP3    H225582   6.215   6.827   3.848
 8547TIP3   OH225583   2.670   6.030   5.727
 8547TIP3    H125584   2.664   6.041   5.632
 8547TIP3    H225585   2.595   6.078   5.762
 8548TIP3   OH225586   4.500   4.708   4.296
 8548TIP3    H125587   4.501   4.647   4.370
 8548TIP3    H225588   4.537   4.789   4.331
 8549TIP3   OH225589   3.845   1.682   0.787
 8549TIP3    H125590   3.865   1.600   0.742
 8549TIP3    H225591   3.869   1.665   0.879
 8550TIP3   OH225592   7.038   7.533   5.370
 8550TIP3    H125593   6.979   7.501   5.439
 8550TIP3    H225594   7.047   7.626   5.387
 8551TIP3   OH225595   1.002   4.494   3.895
 8551TIP3    H125596   1.034   4.413   3.854
 8551TIP3    H225597   1.008   4.477   3.989
 8552TIP3   OH225598   2.300   4.928   4.370
 8552TIP3    H125599   2.383   4.955   4.410
 8552TIP3    H225600   2.291   4.836   4.395
 8553TIP3   OH225601   0.318   5.643   1.702
 8553TIP3    H125602   0.362   5.689   1.629
 8553TIP3    H225603   0.390   5.609   1.755
 8554TIP3   OH225604   1.958   7.495   2.062
 8554TIP3    H125605   2.039   7.540   2.037
 8554TIP3    H225606   1.902   7.501   1.984
 8555TIP3   OH225607   2.125   6.413   2.888
 8555TIP3    H125608   2.193   6.369   2.938
 8555TIP3    H225609   2.113   6.359   2.810
 8556TIP3   OH225610   1.321   2.312   1.238
 8556TIP3    H125611   1.327   2.287   1.145
 8556TIP3    H225612   1.380   2.251   1.282
 8557TIP3   OH225613   4.005   5.002   2.019
 8557TIP3    H125614   3.994   4.925   2.075
 8557TIP3    H225615   4.025   4.966   1.933
 8558TIP3   OH225616   3.665   1.954   5.313
 8558TIP3    H125617   3.594   1.897   5.283
 8558TIP3    H225618   3.736   1.940   5.250
 8559TIP3   OH225619   2.351   7.614   6.501
 8559TIP3    H125620   2.357   7.663   6.418
 8559TIP3    H225621   2.361   7.681   6.568
 8560TIP3   OH225622   4.524   5.005   1.636
 8560TIP3    H125623   4.493   5.051   1.558
 8560TIP3    H225624   4.455   5.021   1.702
 8561TIP3   OH225625   6.310   6.872   5.661
 8561TIP3    H125626   6.298   6.778   5.648
 8561TIP3    H225627   6.399   6.880   5.695
 8562TIP3   OH225628   0.496   0.754   2.524
 8562TIP3    H125629   0.553   0.679   2.508
 8562TIP3    H225630   0.442   0.728   2.599
 8563TIP3   OH225631   7.368   2.782   3.611
 8563TIP3    H125632   7.407   2.757   3.527
 8563TIP3    H225633   7.371   2.702   3.664
 8564TIP3   OH225634   3.079   0.580   3.883
 8564TIP3    H125635   2.997   0.605   3.840
 8564TIP3    H225636   3.093   0.489   3.857
 8565TIP3   OH225637   3.861   7.417   6.712
 8565TIP3    H125638   3.875   7.384   6.800
 8565TIP3    H225639   3.815   7.346   6.667
 8566TIP3   OH225640   2.013   5.005   4.351
 8566TIP3    H125641   2.100   4.967   4.337
 8566TIP3    H225642   1.953   4.945   4.307
 8567TIP3   OH225643   1.799   1.173   3.031
 8567TIP3    H125644   1.798   1.130   2.946
 8567TIP3    H225645   1.827   1.105   3.093
 8568TIP3   OH225646   0.472   0.967   0.738
 8568TIP3    H125647   0.457   0.912   0.815
 8568TIP3    H225648   0.549   1.019   0.762
 8569TIP3   OH225649   2.343   0.519   6.155
 8569TIP3    H125650   2.416   0.546   6.099
 8569TIP3    H225651   2.281   0.478   6.095
 8570TIP3   OH225652   2.371   5.174   0.496
 8570TIP3    H125653   2.306   5.211   0.436
 8570TIP3    H225654   2.321   5.116   0.553
 8571TIP3   OH225655   6.739   0.532   1.609
 8571TIP3    H125656   6.650   0.561   1.629
 8571TIP3    H225657   6.758   0.571   1.524
 8572TIP3   OH225658   4.605   4.531   2.436
 8572TIP3    H125659   4.693   4.559   2.461
 8572TIP3    H225660   4.602   4.438   2.460
 8573TIP3   OH225661   3.571   3.375   5.616
 8573TIP3    H125662   3.586   3.460   5.658
 8573TIP3    H225663   3.629   3.375   5.540
 8574TIP3   OH225664   1.027   2.595   3.588
 8574TIP3    H125665   1.061   2.684   3.578
 8574TIP3    H225666   0.938   2.607   3.619
 8575TIP3   OH225667   4.310   5.825   2.201
 8575TIP3    H125668   4.321   5.905   2.149
 8575TIP3    H225669   4.241   5.776   2.156
 8576TIP3   OH225670   8.156   1.643   0.201
 8576TIP3    H125671   8.218   1.581   0.164
 8576TIP3    H225672   8.160   1.719   0.143
 8577TIP3   OH225673   6.649   0.367   0.120
 8577TIP3    H125674   6.590   0.439   0.101
 8577TIP3    H225675   6.656   0.318   0.038
 8578TIP3   OH225676   1.419   3.448   2.454
 8578TIP3    H125677   1.504   3.413   2.479
 8578TIP3    H225678   1.375   3.376   2.409
 8579TIP3   OH225679   4.491   6.437   5.736
 8579TIP3    H125680   4.527   6.351   5.758
 8579TIP3    H225681   4.519   6.453   5.646
 8580TIP3   OH225682   2.839   3.091   4.332
 8580TIP3    H125683   2.882   3.009   4.308
 8580TIP3    H225684   2.898   3.132   4.395
 8581TIP3   OH225685   1.092   4.751   0.951
 8581TIP3    H125686   1.022   4.693   0.982
 8581TIP3    H225687   1.052   4.803   0.882
 8582TIP3   OH225688   1.738   5.129   6.669
 8582TIP3    H125689   1.795   5.178   6.608
 8582TIP3    H225690   1.797   5.067   6.712
 8583TIP3   OH225691   2.834   1.043   0.701
 8583TIP3    H125692   2.867   1.041   0.612
 8583TIP3    H225693   2.868   1.125   0.738
 8584TIP3   OH225694   6.136   1.312   4.469
 8584TIP3    H125695   6.079   1.322   4.393
 8584TIP3    H225696   6.113   1.385   4.526
 8585TIP3   OH225697   1.521   6.764   4.379
 8585TIP3    H125698   1.469   6.718   4.445
 8585TIP3    H225699   1.587   6.700   4.351
 8586TIP3   OH225700   1.562   0.176   5.632
 8586TIP3    H125701   1.472   0.207   5.624
 8586TIP3    H225702   1.612   0.252   5.659
 8587TIP3   OH225703   3.429   3.774   5.304
 8587TIP3    H125704   3.435   3.700   5.364
 8587TIP3    H225705   3.360   3.750   5.242
 8588TIP3   OH225706   5.547   6.732   0.767
 8588TIP3    H125707   5.597   6.672   0.712
 8588TIP3    H225708   5.526   6.681   0.846
 8589TIP3   OH225709   3.898   6.954   4.381
 8589TIP3    H125710   3.886   6.959   4.476
 8589TIP3    H225711   3.810   6.942   4.346
 8590TIP3   OH225712   2.518   2.060   5.556
 8590TIP3    H125713   2.597   2.022   5.594
 8590TIP3    H225714   2.550   2.132   5.501
 8591TIP3   OH225715   3.698   7.352   1.902
 8591TIP3    H125716   3.727   7.271   1.943
 8591TIP3    H225717   3.607   7.361   1.930
 8592TIP3   OH225718   3.203   5.611   5.175
 8592TIP3    H125719   3.285   5.561   5.185
 8592TIP3    H225720   3.228   5.701   5.193
 8593TIP3   OH225721   5.474   4.660   1.788
 8593TIP3    H125722   5.518   4.636   1.870
 8593TIP3    H225723   5.405   4.594   1.778
 8594TIP3   OH225724   7.827   3.655   5.946
 8594TIP3    H125725   7.898   3.719   5.953
 8594TIP3    H225726   7.857   3.582   6.001
 8595TIP3   OH225727   7.347   5.331   2.914
 8595TIP3    H125728   7.383   5.381   2.841
 8595TIP3    H225729   7.275   5.280   2.876
 8596TIP3   OH225730   6.815   2.273   0.617
 8596TIP3    H125731   6.859   2.336   0.675
 8596TIP3    H225732   6.724   2.304   0.614
 8597TIP3   OH225733   4.768   5.767   0.794
 8597TIP3    H125734   4.782   5.845   0.847
 8597TIP3    H225735   4.842   5.710   0.816
 8598TIP3   OH225736   6.961   2.214   4.569
 8598TIP3    H125737   6.950   2.197   4.475
 8598TIP3    H225738   7.005   2.298   4.573
 8599TIP3   OH225739   7.777   2.568   0.070
 8599TIP3    H125740   7.748   2.655   0.040
 8599TIP3    H225741   7.704   2.536   0.123
 8600TIP3   OH225742   5.960   1.587   1.022
 8600TIP3    H125743   6.041   1.619   1.062
 8600TIP3    H225744   5.989   1.535   0.947
 8601TIP3   OH225745   7.979   5.321   4.943
 8601TIP3    H125746   8.074   5.323   4.950
 8601TIP3    H225747   7.950   5.269   5.018
 8602TIP3   OH225748   3.079   1.948   6.040
 8602TIP3    H125749   2.984   1.954   6.045
 8602TIP3    H225750   3.098   1.855   6.056
 8603TIP3   OH225751   6.567   0.384   3.895
 8603TIP3    H125752   6.536   0.405   3.807
 8603TIP3    H225753   6.658   0.413   3.896
 8604TIP3   OH225754   0.804   2.078   0.722
 8604TIP3    H125755   0.881   2.090   0.667
 8604TIP3    H225756   0.839   2.060   0.810
 8605TIP3   OH225757   0.996   4.964   3.404
 8605TIP3    H125758   0.987   5.023   3.329
 8605TIP3    H225759   1.059   5.007   3.461
 8606TIP3   OH225760   6.579   2.540   0.128
 8606TIP3    H125761   6.594   2.620   0.178
 8606TIP3    H225762   6.661   2.491   0.135
 8607TIP3   OH225763   1.969   5.188   1.132
 8607TIP3    H125764   1.942   5.102   1.164
 8607TIP3    H225765   2.055   5.203   1.172
 8608TIP3   OH225766   5.677   3.022   2.358
 8608TIP3    H125767   5.752   3.007   2.300
 8608TIP3    H225768   5.624   3.087   2.312
 8609TIP3   OH225769   1.712   6.747   1.256
 8609TIP3    H125770   1.732   6.841   1.256
 8609TIP3    H225771   1.618   6.743   1.275
 8610TIP3   OH225772   4.110   0.884   4.555
 8610TIP3    H125773   4.047   0.889   4.627
 8610TIP3    H225774   4.102   0.794   4.523
 8611TIP3   OH225775   2.056   1.110   1.138
 8611TIP3    H125776   2.014   1.135   1.056
 8611TIP3    H225777   2.148   1.098   1.116
 8612TIP3   OH225778   3.522   4.479   2.285
 8612TIP3    H125779   3.491   4.409   2.228
 8612TIP3    H225780   3.555   4.434   2.362
 8613TIP3   OH225781   6.952   5.416   3.019
 8613TIP3    H125782   7.020   5.377   2.964
 8613TIP3    H225783   6.874   5.417   2.964
 8614TIP3   OH225784   5.376   7.543   6.237
 8614TIP3    H125785   5.407   7.493   6.161
 8614TIP3    H225786   5.455   7.581   6.275
 8615TIP3   OH225787   3.054   1.745   5.496
 8615TIP3    H125788   3.003   1.744   5.577
 8615TIP3    H225789   3.116   1.672   5.506
 8616TIP3   OH225790   5.423   2.301   6.390
 8616TIP3    H125791   5.515   2.291   6.365
 8616TIP3    H225792   5.375   2.240   6.332
 8617TIP3   OH225793   1.238   5.697   6.228
 8617TIP3    H125794   1.156   5.650   6.217
 8617TIP3    H225795   1.303   5.629   6.247
 8618TIP3   OH225796   4.250   2.770   5.374
 8618TIP3    H125797   4.237   2.758   5.280
 8618TIP3    H225798   4.344   2.755   5.388
 8619TIP3   OH225799   7.276   7.204   4.839
 8619TIP3    H125800   7.308   7.128   4.888
 8619TIP3    H225801   7.222   7.252   4.902
 8620TIP3   OH225802   7.588   4.430   4.867
 8620TIP3    H125803   7.607   4.379   4.946
 8620TIP3    H225804   7.493   4.439   4.866
 8621TIP3   OH225805   0.938   4.456   0.894
 8621TIP3    H125806   0.921   4.440   0.802
 8621TIP3    H225807   0.881   4.530   0.916
 8622TIP3   OH225808   7.356   0.200   2.450
 8622TIP3    H125809   7.349   0.236   2.362
 8622TIP3    H225810   7.439   0.233   2.483
 8623TIP3   OH225811   5.603   3.966   3.154
 8623TIP3    H125812   5.608   3.947   3.248
 8623TIP3    H225813   5.509   3.968   3.135
 8624TIP3   OH225814   3.151   5.261   2.030
 8624TIP3    H125815   3.067   5.294   1.999
 8624TIP3    H225816   3.129   5.184   2.083
 8625TIP3   OH225817   6.282   0.309   6.244
 8625TIP3    H125818   6.202   0.353   6.216
 8625TIP3    H225819   6.264   0.216   6.232
 8626TIP3   OH225820   0.662   2.102   3.030
 8626TIP3    H125821   0.676   2.147   3.113
 8626TIP3    H225822   0.628   2.016   3.054
 8627TIP3   OH225823   7.256   0.961   6.374
 8627TIP3    H125824   7.292   0.959   6.285
 8627TIP3    H225825   7.212   0.876   6.383
 8628TIP3   OH225826   4.310   5.780   6.484
 8628TIP3    H125827   4.227   5.785   6.435
 8628TIP3    H225828   4.337   5.872   6.495
 8629TIP3   OH225829   2.807   3.943   1.299
 8629TIP3    H125830   2.755   3.897   1.233
 8629TIP3    H225831   2.742   3.992   1.350
 8630TIP3   OH225832   3.889   3.876   4.374
 8630TIP3    H125833   3.896   3.903   4.466
 8630TIP3    H225834   3.941   3.796   4.370
 8631TIP3   OH225835   2.462   5.878   3.273
 8631TIP3    H125836   2.526   5.917   3.214
 8631TIP3    H225837   2.403   5.950   3.296
 8632TIP3   OH225838   2.834   6.112   2.862
 8632TIP3    H125839   2.794   6.144   2.781
 8632TIP3    H225840   2.805   6.174   2.929
 8633TIP3   OH225841   4.816   2.079   6.319
 8633TIP3    H125842   4.787   2.079   6.410
 8633TIP3    H225843   4.746   2.124   6.272
 8634TIP3   OH225844   5.042   7.081   0.932
 8634TIP3    H125845   5.039   7.099   0.839
 8634TIP3    H225846   4.983   7.145   0.972
 8635TIP3   OH225847   6.228   2.663   2.974
 8635TIP3    H125848   6.166   2.695   2.909
 8635TIP3    H225849   6.238   2.570   2.954
 8636TIP3   OH225850   8.229   6.662   0.150
 8636TIP3    H125851   8.220   6.587   0.209
 8636TIP3    H225852   8.232   6.624   0.063
 8637TIP3   OH225853   5.759   1.092   3.029
 8637TIP3    H125854   5.683   1.062   3.079
 8637TIP3    H225855   5.725   1.163   2.975
 8638TIP3   OH225856   4.892   2.266   2.495
 8638TIP3    H125857   4.807   2.303   2.519
 8638TIP3    H225858   4.893   2.270   2.399
 8639TIP3   OH225859   0.960   2.004   3.017
 8639TIP3    H125860   1.002   1.918   3.014
 8639TIP3    H225861   0.923   2.010   3.105
 8640TIP3   OH225862   3.998   3.205   0.521
 8640TIP3    H125863   3.984   3.184   0.429
 8640TIP3    H225864   3.924   3.165   0.566
 8641TIP3   OH225865   7.873   6.126   2.052
 8641TIP3    H125866   7.865   6.164   2.139
 8641TIP3    H225867   7.783   6.102   2.028
 8642TIP3   OH225868   4.327   6.922   1.460
 8642TIP3    H125869   4.401   6.982   1.449
 8642TIP3    H225870   4.254   6.966   1.417
 8643TIP3   OH225871   1.262   6.813   1.518
 8643TIP3    H125872   1.218   6.756   1.455
 8643TIP3    H225873   1.272   6.758   1.596
 8644TIP3   OH225874   7.553   5.370   0.674
 8644TIP3    H125875   7.484   5.425   0.711
 8644TIP3    H225876   7.615   5.356   0.746
 8645TIP3   OH225877   5.107   2.994   4.496
 8645TIP3    H125878   5.036   2.983   4.433
 8645TIP3    H225879   5.092   3.079   4.535
 8646TIP3   OH225880   5.505   5.505   4.509
 8646TIP3    H125881   5.424   5.457   4.526
 8646TIP3    H225882   5.574   5.439   4.513
 8647TIP3   OH225883   0.366   7.323   1.470
 8647TIP3    H125884   0.410   7.406   1.453
 8647TIP3    H225885   0.394   7.297   1.558
 8648TIP3   OH225886   7.830   2.425   6.378
 8648TIP3    H125887   7.839   2.330   6.387
 8648TIP3    H225888   7.833   2.441   6.284
 8649TIP3   OH225889   6.542   2.925   5.008
 8649TIP3    H125890   6.479   2.907   5.078
 8649TIP3    H225891   6.621   2.953   5.055
 8650TIP3   OH225892   1.714   5.827   6.337
 8650TIP3    H125893   1.809   5.821   6.339
 8650TIP3    H225894   1.690   5.854   6.426
 8651TIP3   OH225895   5.031   1.971   4.112
 8651TIP3    H125896   5.008   1.881   4.135
 8651TIP3    H225897   5.123   1.979   4.137
 8652TIP3   OH225898   6.322   4.001   4.345
 8652TIP3    H125899   6.279   4.081   4.374
 8652TIP3    H225900   6.350   4.020   4.255
 8653TIP3   OH225901   7.709   0.029   2.046
 8653TIP3    H125902   7.764   0.002   1.973
 8653TIP3    H225903   7.694   0.123   2.033
 8654TIP3   OH225904   7.276   5.963   2.999
 8654TIP3    H125905   7.275   5.868   3.007
 8654TIP3    H225906   7.183   5.988   2.999
 8655TIP3   OH225907   6.118   0.997   0.150
 8655TIP3    H125908   6.090   1.062   0.214
 8655TIP3    H225909   6.184   1.042   0.098
 8656TIP3   OH225910   3.265   1.225   6.115
 8656TIP3    H125911   3.281   1.141   6.072
 8656TIP3    H225912   3.325   1.224   6.191
 8657TIP3   OH225913   1.329   4.125   1.725
 8657TIP3    H125914   1.325   4.092   1.815
 8657TIP3    H225915   1.396   4.194   1.729
 8658TIP3   OH225916   5.709   7.625   2.916
 8658TIP3    H125917   5.705   7.676   2.835
 8658TIP3    H225918   5.763   7.678   2.974
 8659TIP3   OH225919   4.183   0.132   0.431
 8659TIP3    H125920   4.198   0.226   0.433
 8659TIP3    H225921   4.113   0.121   0.366
 8660TIP3   OH225922   3.158   3.765   0.103
 8660TIP3    H125923   3.242   3.810   0.098
 8660TIP3    H225924   3.179   3.676   0.129
 8661TIP3   OH225925   6.249   3.270   2.992
 8661TIP3    H125926   6.318   3.295   2.931
 8661TIP3    H225927   6.174   3.325   2.966
 8662TIP3   OH225928   2.753   0.077   5.571
 8662TIP3    H125929   2.805   0.098   5.649
 8662TIP3    H225930   2.741   0.161   5.527
 8663TIP3   OH225931   5.547   6.280   0.427
 8663TIP3    H125932   5.599   6.258   0.350
 8663TIP3    H225933   5.471   6.222   0.423
 8664TIP3   OH225934   4.738   0.758   1.127
 8664TIP3    H125935   4.699   0.845   1.124
 8664TIP3    H225936   4.815   0.768   1.183
 8665TIP3   OH225937   3.861   2.158   6.602
 8665TIP3    H125938   3.888   2.153   6.693
 8665TIP3    H225939   3.855   2.252   6.583
 8666TIP3   OH225940   6.429   3.557   4.006
 8666TIP3    H125941   6.491   3.485   4.005
 8666TIP3    H225942   6.449   3.604   4.087
 8667TIP3   OH225943   2.406   7.724   4.774
 8667TIP3    H125944   2.468   7.740   4.703
 8667TIP3    H225945   2.329   7.776   4.751
 8668TIP3   OH225946   2.007   1.495   5.554
 8668TIP3    H125947   2.052   1.576   5.533
 8668TIP3    H225948   2.075   1.439   5.593
 8669TIP3   OH225949   4.179   5.558   0.934
 8669TIP3    H125950   4.126   5.602   1.000
 8669TIP3    H225951   4.120   5.546   0.859
 8670TIP3   OH225952   0.332   5.099   4.693
 8670TIP3    H125953   0.240   5.090   4.667
 8670TIP3    H225954   0.331   5.166   4.762
 8671TIP3   OH225955   4.808   7.767   2.474
 8671TIP3    H125956   4.895   7.780   2.435
 8671TIP3    H225957   4.751   7.748   2.399
 8672TIP3   OH225958   3.110   1.157   4.431
 8672TIP3    H125959   3.148   1.091   4.373
 8672TIP3    H225960   3.186   1.202   4.468
 8673TIP3   OH225961   8.026   1.951   2.403
 8673TIP3    H125962   8.041   1.862   2.434
 8673TIP3    H225963   7.930   1.960   2.401
 8674TIP3   OH225964   0.473   2.575   5.847
 8674TIP3    H125965   0.454   2.513   5.777
 8674TIP3    H225966   0.391   2.580   5.897
 8675TIP3   OH225967   5.926   0.409   3.203
 8675TIP3    H125968   6.002   0.463   3.180
 8675TIP3    H225969   5.907   0.433   3.293
 8676TIP3   OH225970   2.066   2.203   3.535
 8676TIP3    H125971   2.090   2.150   3.611
 8676TIP3    H225972   2.065   2.293   3.568
 8677TIP3   OH225973   1.208   0.549   6.541
 8677TIP3    H125974   1.292   0.517   6.509
 8677TIP3    H225975   1.223   0.642   6.559
 8678TIP3   OH225976   5.274   2.235   4.480
 8678TIP3    H125977   5.207   2.256   4.415
 8678TIP3    H225978   5.261   2.143   4.500
 8679TIP3   OH225979   7.351   6.167   1.620
 8679TIP3    H125980   7.441   6.195   1.632
 8679TIP3    H225981   7.330   6.189   1.529
 8680TIP3   OH225982   1.098   6.984   6.098
 8680TIP3    H125983   1.155   6.907   6.099
 8680TIP3    H225984   1.149   7.051   6.053
 8681TIP3   OH225985   4.582   2.074   1.816
 8681TIP3    H125986   4.510   2.110   1.868
 8681TIP3    H225987   4.639   2.149   1.799
 8682TIP3   OH225988   1.132   3.693   0.388
 8682TIP3    H125989   1.076   3.720   0.461
 8682TIP3    H225990   1.221   3.704   0.421
 8683TIP3   OH225991   4.324   6.689   1.576
 8683TIP3    H125992   4.378   6.723   1.647
 8683TIP3    H225993   4.320   6.760   1.512
 8684TIP3   OH225994   0.762   6.220   3.847
 8684TIP3    H125995   0.768   6.223   3.942
 8684TIP3    H225996   0.671   6.199   3.829
 8685TIP3   OH225997   7.012   3.068   5.438
 8685TIP3    H125998   6.969   3.126   5.375
 8685TIP3    H225999   7.104   3.093   5.435
 8686TIP3   OH226000   3.196   6.249   3.953
 8686TIP3    H126001   3.258   6.198   3.901
 8686TIP3    H226002   3.174   6.324   3.898
 8687TIP3   OH226003   3.874   6.492   5.937
 8687TIP3    H126004   3.787   6.494   5.975
 8687TIP3    H226005   3.932   6.522   6.008
 8688TIP3   OH226006   3.355   7.063   2.178
 8688TIP3    H126007   3.365   7.072   2.273
 8688TIP3    H226008   3.445   7.057   2.145
 8689TIP3   OH226009   6.269   4.295   5.017
 8689TIP3    H126010   6.243   4.219   5.069
 8689TIP3    H226011   6.266   4.368   5.078
 8690TIP3   OH226012   1.793   4.317   2.168
 8690TIP3    H126013   1.761   4.328   2.079
 8690TIP3    H226014   1.806   4.222   2.178
 8691TIP3   OH226015   4.608   7.205   6.473
 8691TIP3    H126016   4.546   7.205   6.399
 8691TIP3    H226017   4.557   7.239   6.547
 8692TIP3   OH226018   2.717   5.089   4.811
 8692TIP3    H126019   2.624   5.110   4.827
 8692TIP3    H226020   2.750   5.064   4.897
 8693TIP3   OH226021   5.402   7.318   5.215
 8693TIP3    H126022   5.454   7.343   5.139
 8693TIP3    H226023   5.361   7.235   5.189
 8694TIP3   OH226024   2.221   0.811   5.761
 8694TIP3    H126025   2.237   0.893   5.715
 8694TIP3    H226026   2.129   0.818   5.790
 8695TIP3   OH226027   8.372   5.478   1.761
 8695TIP3    H126028   8.281   5.489   1.733
 8695TIP3    H226029   8.397   5.565   1.794
 8696TIP3   OH226030   3.238   7.379   5.132
 8696TIP3    H126031   3.241   7.474   5.144
 8696TIP3    H226032   3.147   7.355   5.154
 8697TIP3   OH226033   4.908   6.382   2.373
 8697TIP3    H126034   4.975   6.389   2.442
 8697TIP3    H226035   4.949   6.424   2.297
 8698TIP3   OH226036   3.550   3.752   3.803
 8698TIP3    H126037   3.571   3.717   3.890
 8698TIP3    H226038   3.607   3.829   3.795
 8699TIP3   OH226039   4.732   2.927   0.065
 8699TIP3    H126040   4.781   2.866   0.009
 8699TIP3    H226041   4.714   2.877   0.144
 8700TIP3   OH226042   3.022   2.089   3.785
 8700TIP3    H126043   2.999   2.182   3.783
 8700TIP3    H226044   3.027   2.063   3.693
 8701TIP3   OH226045   5.015   6.584   4.411
 8701TIP3    H126046   4.955   6.652   4.379
 8701TIP3    H226047   4.960   6.530   4.468
 8702TIP3   OH226048   0.234   4.500   3.223
 8702TIP3    H126049   0.247   4.426   3.282
 8702TIP3    H226050   0.287   4.479   3.146
 8703TIP3   OH226051   1.738   5.531   0.300
 8703TIP3    H126052   1.694   5.464   0.352
 8703TIP3    H226053   1.822   5.546   0.344
 8704TIP3   OH226054   7.669   5.464   2.832
 8704TIP3    H126055   7.589   5.435   2.789
 8704TIP3    H226056   7.722   5.502   2.762
 8705TIP3   OH226057   5.084   0.305   0.383
 8705TIP3    H126058   5.016   0.368   0.405
 8705TIP3    H226059   5.106   0.263   0.466
 8706TIP3   OH226060   3.924   3.710   4.002
 8706TIP3    H126061   3.919   3.615   3.985
 8706TIP3    H226062   3.951   3.747   3.918
 8707TIP3   OH226063   6.318   3.410   0.786
 8707TIP3    H126064   6.271   3.338   0.827
 8707TIP3    H226065   6.374   3.368   0.721
 8708TIP3   OH226066   7.997   0.635   2.405
 8708TIP3    H126067   7.953   0.713   2.440
 8708TIP3    H226068   7.926   0.573   2.388
 8709TIP3   OH226069   1.184   3.037   1.621
 8709TIP3    H126070   1.228   2.995   1.695
 8709TIP3    H226071   1.233   3.117   1.606
 8710TIP3   OH226072   6.376   4.660   3.459
 8710TIP3    H126073   6.418   4.691   3.540
 8710TIP3    H226074   6.393   4.566   3.458
 8711TIP3   OH226075   3.145   7.384   3.775
 8711TIP3    H126076   3.142   7.313   3.840
 8711TIP3    H226077   3.173   7.341   3.694
 8712TIP3   OH226078   1.818   0.332   6.291
 8712TIP3    H126079   1.858   0.403   6.241
 8712TIP3    H226080   1.870   0.254   6.269
 8713TIP3   OH226081   1.716   3.639   4.571
 8713TIP3    H126082   1.685   3.693   4.498
 8713TIP3    H226083   1.770   3.571   4.530
 8714TIP3   OH226084   0.859   0.379   2.817
 8714TIP3    H126085   0.839   0.321   2.743
 8714TIP3    H226086   0.878   0.320   2.890
 8715TIP3   OH226087   5.332   3.478   4.961
 8715TIP3    H126088   5.362   3.551   5.016
 8715TIP3    H226089   5.335   3.513   4.872
 8716TIP3   OH226090   0.383   5.246   6.205
 8716TIP3    H126091   0.320   5.312   6.235
 8716TIP3    H226092   0.432   5.222   6.284
 8717TIP3   OH226093   3.627   6.978   1.354
 8717TIP3    H126094   3.621   7.070   1.326
 8717TIP3    H226095   3.623   6.928   1.272
 8718TIP3   OH226096   7.083   0.248   2.894
 8718TIP3    H126097   7.005   0.303   2.888
 8718TIP3    H226098   7.151   0.299   2.851
 8719TIP3   OH226099   4.179   1.664   1.919
 8719TIP3    H126100   4.102   1.697   1.873
 8719TIP3    H226101   4.161   1.571   1.934
 8720TIP3   OH226102   3.166   0.505   5.856
 8720TIP3    H126103   3.165   0.513   5.761
 8720TIP3    H226104   3.077   0.479   5.879
 8721TIP3   OH226105   7.485   3.775   2.930
 8721TIP3    H126106   7.450   3.726   3.004
 8721TIP3    H226107   7.430   3.853   2.925
 8722TIP3   OH226108   6.895   2.466   0.827
 8722TIP3    H126109   6.858   2.410   0.896
 8722TIP3    H226110   6.959   2.521   0.872
 8723TIP3   OH226111   5.413   1.261   2.929
 8723TIP3    H126112   5.362   1.342   2.931
 8723TIP3    H226113   5.351   1.196   2.896
 8724TIP3   OH226114   8.064   0.599   0.135
 8724TIP3    H126115   8.085   0.584   0.043
 8724TIP3    H226116   7.972   0.575   0.144
 8725TIP3   OH226117   2.508   1.532   5.491
 8725TIP3    H126118   2.510   1.538   5.395
 8725TIP3    H226119   2.568   1.460   5.511
 8726TIP3   OH226120   0.126   3.999   3.270
 8726TIP3    H126121   0.183   3.940   3.320
 8726TIP3    H226122   0.054   4.018   3.330
 8727TIP3   OH226123   5.661   5.020   5.904
 8727TIP3    H126124   5.713   4.943   5.879
 8727TIP3    H226125   5.587   4.984   5.953
 8728TIP3   OH226126   7.502   4.556   4.606
 8728TIP3    H126127   7.440   4.553   4.679
 8728TIP3    H226128   7.447   4.556   4.528
 8729TIP3   OH226129   0.915   2.446   6.667
 8729TIP3    H126130   0.925   2.406   6.753
 8729TIP3    H226131   0.992   2.503   6.658
 8730TIP3   OH226132   3.196   2.021   3.133
 8730TIP3    H126133   3.262   2.090   3.126
 8730TIP3    H226134   3.122   2.054   3.082
 8731TIP3   OH226135   4.581   1.536   3.699
 8731TIP3    H126136   4.592   1.613   3.643
 8731TIP3    H226137   4.487   1.531   3.715
 8732TIP3   OH226138   7.343   6.241   3.664
 8732TIP3    H126139   7.386   6.280   3.740
 8732TIP3    H226140   7.415   6.222   3.604
 8733TIP3   OH226141   8.203   1.114   2.048
 8733TIP3    H126142   8.208   1.094   2.141
 8733TIP3    H226143   8.183   1.030   2.007
 8734TIP3   OH226144   5.844   5.712   0.538
 8734TIP3    H126145   5.849   5.616   0.546
 8734TIP3    H226146   5.874   5.730   0.449
 8735TIP3   OH226147   1.240   0.014   2.966
 8735TIP3    H126148   1.198  -0.066   2.934
 8735TIP3    H226149   1.178   0.050   3.029
 8736TIP3   OH226150   0.197   1.545   5.673
 8736TIP3    H126151   0.135   1.585   5.734
 8736TIP3    H226152   0.237   1.473   5.722
 8737TIP3   OH226153   7.662   5.414   5.205
 8737TIP3    H126154   7.617   5.356   5.144
 8737TIP3    H226155   7.669   5.363   5.286
 8738TIP3   OH226156   5.078   1.875   3.675
 8738TIP3    H126157   4.983   1.866   3.677
 8738TIP3    H226158   5.096   1.951   3.730
 8739TIP3   OH226159   0.141   1.488   5.114
 8739TIP3    H126160   0.125   1.394   5.121
 8739TIP3    H226161   0.178   1.513   5.199
 8740TIP3   OH226162   1.224   3.487   1.488
 8740TIP3    H126163   1.195   3.420   1.426
 8740TIP3    H226164   1.318   3.496   1.471
 8741TIP3   OH226165   1.284   0.341   6.277
 8741TIP3    H126166   1.379   0.339   6.267
 8741TIP3    H226167   1.269   0.306   6.365
 8742TIP3   OH226168   2.595   0.186   2.972
 8742TIP3    H126169   2.534   0.121   2.936
 8742TIP3    H226170   2.670   0.136   3.001
 8743TIP3   OH226171   5.022   6.401   3.948
 8743TIP3    H126172   5.088   6.459   3.910
 8743TIP3    H226173   5.062   6.314   3.942
 8744TIP3   OH226174   7.920   4.984   1.840
 8744TIP3    H126175   7.847   5.015   1.894
 8744TIP3    H226176   7.998   5.000   1.893
 8745TIP3   OH226177   0.425   1.220   5.200
 8745TIP3    H126178   0.447   1.211   5.293
 8745TIP3    H226179   0.430   1.131   5.166
 8746TIP3   OH226180   5.611   1.122   5.176
 8746TIP3    H126181   5.535   1.078   5.215
 8746TIP3    H226182   5.585   1.140   5.086
 8747TIP3   OH226183   3.852   0.356   5.084
 8747TIP3    H126184   3.811   0.440   5.102
 8747TIP3    H226185   3.779   0.298   5.062
 8748TIP3   OH226186   1.078   3.857   0.150
 8748TIP3    H126187   1.068   3.794   0.079
 8748TIP3    H226188   1.081   3.803   0.229
 8749TIP3   OH226189   4.960   2.863   6.615
 8749TIP3    H126190   4.921   2.890   6.697
 8749TIP3    H226191   4.912   2.912   6.548
 8750TIP3   OH226192   5.104   1.890   0.484
 8750TIP3    H126193   5.068   1.845   0.408
 8750TIP3    H226194   5.171   1.831   0.518
 8751TIP3   OH226195   3.121   1.591   4.392
 8751TIP3    H126196   3.157   1.594   4.480
 8751TIP3    H226197   3.044   1.535   4.398
 8752TIP3   OH226198   5.592   4.250   0.593
 8752TIP3    H126199   5.598   4.329   0.646
 8752TIP3    H226200   5.617   4.278   0.505
 8753TIP3   OH226201   2.905   1.003   0.415
 8753TIP3    H126202   2.926   1.030   0.326
 8753TIP3    H226203   2.984   0.958   0.446
 8754TIP3   OH226204   2.858   0.582   1.660
 8754TIP3    H126205   2.937   0.530   1.673
 8754TIP3    H226206   2.787   0.528   1.696
 8755TIP3   OH226207   6.136   2.836   1.736
 8755TIP3    H126208   6.114   2.874   1.821
 8755TIP3    H226209   6.129   2.742   1.749
 8756TIP3   OH226210   4.885   0.600   4.524
 8756TIP3    H126211   4.878   0.518   4.573
 8756TIP3    H226212   4.900   0.667   4.591
 8757TIP3   OH226213   2.376   2.568   2.542
 8757TIP3    H126214   2.306   2.630   2.561
 8757TIP3    H226215   2.380   2.564   2.446
 8758TIP3   OH226216   1.072   2.297   5.605
 8758TIP3    H126217   1.005   2.267   5.544
 8758TIP3    H226218   1.155   2.269   5.565
 8759TIP3   OH226219   7.717   2.186   2.162
 8759TIP3    H126220   7.692   2.108   2.112
 8759TIP3    H226221   7.785   2.156   2.222
 8760TIP3   OH226222   2.973   0.616   4.281
 8760TIP3    H126223   3.032   0.565   4.337
 8760TIP3    H226224   3.031   0.665   4.223
 8761TIP3   OH226225   1.377   2.786   3.942
 8761TIP3    H126226   1.340   2.866   3.980
 8761TIP3    H226227   1.346   2.786   3.851
 8762TIP3   OH226228   7.731   0.397   4.567
 8762TIP3    H126229   7.720   0.355   4.482
 8762TIP3    H226230   7.769   0.330   4.624
 8763TIP3   OH226231   5.994   0.227   5.502
 8763TIP3    H126232   6.048   0.299   5.535
 8763TIP3    H226233   5.913   0.233   5.553
 8764TIP3   OH226234   6.989   5.558   0.939
 8764TIP3    H126235   6.922   5.491   0.926
 8764TIP3    H226236   7.023   5.541   1.026
 8765TIP3   OH226237   5.740   0.434   4.080
 8765TIP3    H126238   5.681   0.473   4.144
 8765TIP3    H226239   5.702   0.347   4.062
 8766TIP3   OH226240   7.358   6.161   5.533
 8766TIP3    H126241   7.321   6.073   5.530
 8766TIP3    H226242   7.424   6.157   5.604
 8767TIP3   OH226243   3.033   7.312   0.684
 8767TIP3    H126244   3.040   7.305   0.780
 8767TIP3    H226245   3.104   7.258   0.650
 8768TIP3   OH226246   0.106   7.377   4.335
 8768TIP3    H126247   0.112   7.288   4.300
 8768TIP3    H226248   0.037   7.373   4.401
 8769TIP3   OH226249   7.390   7.347   5.143
 8769TIP3    H126250   7.441   7.405   5.086
 8769TIP3    H226251   7.412   7.259   5.114
 8770TIP3   OH226252   7.461   6.644   2.935
 8770TIP3    H126253   7.481   6.692   2.855
 8770TIP3    H226254   7.410   6.705   2.988
 8771TIP3   OH226255   3.255   2.682   2.900
 8771TIP3    H126256   3.204   2.738   2.957
 8771TIP3    H226257   3.327   2.738   2.869
 8772TIP3   OH226258   4.345   6.156   0.307
 8772TIP3    H126259   4.302   6.103   0.240
 8772TIP3    H226260   4.344   6.245   0.271
 8773TIP3   OH226261   0.530   2.331   4.415
 8773TIP3    H126262   0.457   2.286   4.457
 8773TIP3    H226263   0.601   2.266   4.413
 8774TIP3   OH226264   7.169   0.161   4.396
 8774TIP3    H126265   7.143   0.095   4.331
 8774TIP3    H226266   7.104   0.152   4.466
 8775TIP3   OH226267   8.058   4.621   5.509
 8775TIP3    H126268   8.024   4.664   5.587
 8775TIP3    H226269   8.063   4.528   5.533
 8776TIP3   OH226270   7.371   0.498   3.356
 8776TIP3    H126271   7.445   0.554   3.334
 8776TIP3    H226272   7.314   0.502   3.280
 8777TIP3   OH226273   1.259   4.342   6.074
 8777TIP3    H126274   1.198   4.398   6.122
 8777TIP3    H226275   1.233   4.350   5.983
 8778TIP3   OH226276   8.050   3.141   6.042
 8778TIP3    H126277   8.036   3.085   5.965
 8778TIP3    H226278   8.001   3.098   6.112
 8779TIP3   OH226279   2.652   4.896   3.534
 8779TIP3    H126280   2.629   4.989   3.535
 8779TIP3    H226281   2.741   4.894   3.571
 8780TIP3   OH226282   5.302   3.693   3.366
 8780TIP3    H126283   5.349   3.678   3.285
 8780TIP3    H226284   5.291   3.789   3.370
 8781TIP3   OH226285   2.479   5.969   2.818
 8781TIP3    H126286   2.409   5.991   2.879
 8781TIP3    H226287   2.499   6.051   2.774
 8782TIP3   OH226288   0.136   2.890   0.725
 8782TIP3    H126289   0.195   2.949   0.772
 8782TIP3    H226290   0.178   2.877   0.640
 8783TIP3   OH226291   3.742   4.136   6.459
 8783TIP3    H126292   3.751   4.178   6.545
 8783TIP3    H226293   3.824   4.157   6.414
 8784TIP3   OH226294   1.443   6.871   0.851
 8784TIP3    H126295   1.406   6.909   0.931
 8784TIP3    H226296   1.375   6.885   0.784
 8785TIP3   OH226297   4.699   4.469   5.289
 8785TIP3    H126298   4.682   4.552   5.245
 8785TIP3    H226299   4.795   4.460   5.287
 8786TIP3   OH226300   0.119   7.723   0.586
 8786TIP3    H126301   0.115   7.716   0.490
 8786TIP3    H226302   0.169   7.802   0.602
 8787TIP3   OH226303   4.810   2.503   1.462
 8787TIP3    H126304   4.850   2.434   1.409
 8787TIP3    H226305   4.874   2.574   1.460
 8788TIP3   OH226306   6.861  -0.013   3.213
 8788TIP3    H126307   6.904   0.048   3.274
 8788TIP3    H226308   6.907  -0.001   3.130
 8789TIP3   OH226309   4.305   6.720   6.536
 8789TIP3    H126310   4.308   6.647   6.597
 8789TIP3    H226311   4.379   6.776   6.561
 8790TIP3   OH226312   2.963   2.843   6.585
 8790TIP3    H126313   2.895   2.777   6.572
 8790TIP3    H226314   3.019   2.806   6.654
 8791TIP3   OH226315   1.938   3.640   0.534
 8791TIP3    H126316   1.974   3.649   0.622
 8791TIP3    H226317   1.867   3.576   0.543
 8792TIP3   OH226318   6.696   3.131   0.924
 8792TIP3    H126319   6.653   3.062   0.975
 8792TIP3    H226320   6.681   3.211   0.975
 8793TIP3   OH226321   2.628   3.706   1.672
 8793TIP3    H126322   2.618   3.753   1.589
 8793TIP3    H226323   2.712   3.736   1.707
 8794TIP3   OH226324   2.329   0.820   1.007
 8794TIP3    H126325   2.314   0.727   0.987
 8794TIP3    H226326   2.379   0.819   1.089
 8795TIP3   OH226327   5.212   4.522   4.169
 8795TIP3    H126328   5.137   4.508   4.112
 8795TIP3    H226329   5.260   4.439   4.166
 8796TIP3   OH226330   5.093   5.569   0.110
 8796TIP3    H126331   5.101   5.488   0.061
 8796TIP3    H226332   5.091   5.541   0.202
 8797TIP3   OH226333   3.883   5.344   3.219
 8797TIP3    H126334   3.842   5.359   3.134
 8797TIP3    H226335   3.826   5.389   3.282
 8798TIP3   OH226336   8.114   0.938   4.512
 8798TIP3    H126337   8.045   0.878   4.542
 8798TIP3    H226338   8.090   0.958   4.421
 8799TIP3   OH226339   4.230   6.920   5.722
 8799TIP3    H126340   4.286   6.848   5.695
 8799TIP3    H226341   4.196   6.956   5.640
 8800TIP3   OH226342   1.370   1.989   0.376
 8800TIP3    H126343   1.318   1.912   0.355
 8800TIP3    H226344   1.413   1.968   0.459
 8801TIP3   OH226345   7.995   2.696   1.825
 8801TIP3    H126346   8.050   2.712   1.902
 8801TIP3    H226347   8.037   2.623   1.780
 8802TIP3   OH226348   7.870   3.496   4.930
 8802TIP3    H126349   7.950   3.456   4.966
 8802TIP3    H226350   7.855   3.573   4.984
 8803TIP3   OH226351   3.383   2.087   3.769
 8803TIP3    H126352   3.466   2.046   3.793
 8803TIP3    H226353   3.408   2.167   3.723
 8804TIP3   OH226354   1.181   4.280   0.117
 8804TIP3    H126355   1.151   4.370   0.107
 8804TIP3    H226356   1.267   4.287   0.158
 8805TIP3   OH226357   5.731   3.102   3.999
 8805TIP3    H126358   5.654   3.045   3.997
 8805TIP3    H226359   5.800   3.052   3.956
 8806TIP3   OH226360   4.354   7.005   2.131
 8806TIP3    H126361   4.445   6.985   2.154
 8806TIP3    H226362   4.304   6.935   2.173
 8807TIP3   OH226363   7.543   0.606   2.342
 8807TIP3    H126364   7.527   0.534   2.280
 8807TIP3    H226365   7.538   0.685   2.288
 8808TIP3   OH226366   6.224   1.386   0.486
 8808TIP3    H126367   6.264   1.451   0.428
 8808TIP3    H226368   6.298   1.341   0.526
 8809TIP3   OH226369   2.448   2.097   4.448
 8809TIP3    H126370   2.450   2.004   4.471
 8809TIP3    H226371   2.536   2.115   4.414
 8810TIP3   OH226372   6.537   6.192   3.276
 8810TIP3    H126373   6.481   6.243   3.218
 8810TIP3    H226374   6.546   6.247   3.355
 8811TIP3   OH226375   7.997   0.905   6.707
 8811TIP3    H126376   8.048   0.912   6.788
 8811TIP3    H226377   7.925   0.967   6.719
 8812TIP3   OH226378   8.119   5.686   6.500
 8812TIP3    H126379   8.047   5.737   6.463
 8812TIP3    H226380   8.075   5.615   6.547
 8813TIP3   OH226381   2.940   3.533   2.491
 8813TIP3    H126382   2.994   3.489   2.425
 8813TIP3    H226383   2.965   3.491   2.573
 8814TIP3   OH226384   1.791   4.291   5.315
 8814TIP3    H126385   1.802   4.385   5.305
 8814TIP3    H226386   1.828   4.271   5.401
 8815TIP3   OH226387   4.333   4.857   2.321
 8815TIP3    H126388   4.394   4.930   2.312
 8815TIP3    H226389   4.312   4.854   2.414
 8816TIP3   OH226390   1.577   3.923   0.093
 8816TIP3    H126391   1.519   3.998   0.078
 8816TIP3    H226392   1.536   3.851   0.045
 8817TIP3   OH226393   4.071   6.606   3.734
 8817TIP3    H126394   4.073   6.549   3.811
 8817TIP3    H226395   3.980   6.633   3.726
 8818TIP3   OH226396   6.036   5.269   0.274
 8818TIP3    H126397   6.121   5.237   0.244
 8818TIP3    H226398   5.977   5.254   0.200
 8819TIP3   OH226399   4.377   0.193   6.292
 8819TIP3    H126400   4.386   0.098   6.298
 8819TIP3    H226401   4.316   0.206   6.219
 8820TIP3   OH226402   1.409   7.527   1.992
 8820TIP3    H126403   1.418   7.542   2.086
 8820TIP3    H226404   1.497   7.541   1.957
 8821TIP3   OH226405   7.850   7.244   6.757
 8821TIP3    H126406   7.939   7.223   6.786
 8821TIP3    H226407   7.798   7.167   6.781
 8822TIP3   OH226408   2.051   1.974   3.705
 8822TIP3    H126409   2.009   1.904   3.754
 8822TIP3    H226410   2.071   1.935   3.620
 8823TIP3   OH226411   5.877   7.474   1.898
 8823TIP3    H126412   5.925   7.506   1.821
 8823TIP3    H226413   5.884   7.545   1.962
 8824TIP3   OH226414   2.669   3.643   5.422
 8824TIP3    H126415   2.762   3.630   5.406
 8824TIP3    H226416   2.659   3.634   5.517
 8825TIP3   OH226417   7.426   2.253   0.298
 8825TIP3    H126418   7.332   2.248   0.314
 8825TIP3    H226419   7.454   2.161   0.294
 8826TIP3   OH226420   6.119   1.547   4.609
 8826TIP3    H126421   6.091   1.597   4.687
 8826TIP3    H226422   6.128   1.613   4.541
 8827TIP3   OH226423   4.974   0.471   5.360
 8827TIP3    H126424   4.934   0.384   5.359
 8827TIP3    H226425   4.998   0.485   5.451
 8828TIP3   OH226426   2.955   5.070   6.529
 8828TIP3    H126427   2.990   5.066   6.440
 8828TIP3    H226428   2.931   4.980   6.550
 8829TIP3   OH226429   5.415   4.855   1.611
 8829TIP3    H126430   5.321   4.835   1.604
 8829TIP3    H226431   5.449   4.789   1.670
 8830TIP3   OH226432   0.095   7.697   4.839
 8830TIP3    H126433   0.011   7.715   4.799
 8830TIP3    H226434   0.104   7.763   4.908
 8831TIP3   OH226435   0.551   1.981   4.181
 8831TIP3    H126436   0.594   1.906   4.139
 8831TIP3    H226437   0.494   2.017   4.113
 8832TIP3   OH226438   3.669   2.200   0.479
 8832TIP3    H126439   3.760   2.181   0.502
 8832TIP3    H226440   3.654   2.289   0.511
 8833TIP3   OH226441   0.764   4.585   5.283
 8833TIP3    H126442   0.804   4.627   5.207
 8833TIP3    H226443   0.754   4.494   5.257
 8834TIP3   OH226444   7.662   1.321   2.930
 8834TIP3    H126445   7.720   1.262   2.881
 8834TIP3    H226446   7.608   1.262   2.982
 8835TIP3   OH226447   0.137   1.113   3.011
 8835TIP3    H126448   0.073   1.179   3.039
 8835TIP3    H226449   0.201   1.161   2.960
 8836TIP3   OH226450   4.653   5.683   4.508
 8836TIP3    H126451   4.613   5.691   4.421
 8836TIP3    H226452   4.688   5.770   4.526
 8837TIP3   OH226453   1.345   0.370   2.062
 8837TIP3    H126454   1.386   0.288   2.086
 8837TIP3    H226455   1.341   0.368   1.967
 8838TIP3   OH226456   3.222   5.922   5.182
 8838TIP3    H126457   3.140   5.965   5.207
 8838TIP3    H226458   3.284   5.946   5.251
 8839TIP3   OH226459   4.317   3.493   4.428
 8839TIP3    H126460   4.247   3.441   4.388
 8839TIP3    H226461   4.363   3.430   4.485
 8840TIP3   OH226462   4.002   2.922   0.802
 8840TIP3    H126463   3.929   2.963   0.755
 8840TIP3    H226464   3.960   2.856   0.858
 8841TIP3   OH226465   5.632   2.917   6.648
 8841TIP3    H126466   5.596   2.830   6.666
 8841TIP3    H226467   5.683   2.906   6.568
 8842TIP3   OH226468   1.132   4.097   0.338
 8842TIP3    H126469   1.095   4.165   0.282
 8842TIP3    H226470   1.224   4.092   0.314
 8843TIP3   OH226471   8.019   1.712   4.729
 8843TIP3    H126472   8.052   1.642   4.673
 8843TIP3    H226473   8.011   1.788   4.671
 8844TIP3   OH226474   7.232   2.287   3.250
 8844TIP3    H126475   7.299   2.356   3.248
 8844TIP3    H226476   7.255   2.229   3.178
 8845TIP3   OH226477   4.176   2.519   5.980
 8845TIP3    H126478   4.237   2.479   5.918
 8845TIP3    H226479   4.227   2.531   6.059
 8846TIP3   OH226480   5.131   2.720   6.130
 8846TIP3    H126481   5.145   2.739   6.037
 8846TIP3    H226482   5.213   2.679   6.158
 8847TIP3   OH226483   8.093   2.870   6.469
 8847TIP3    H126484   8.125   2.902   6.553
 8847TIP3    H226485   8.070   2.778   6.486
 8848TIP3   OH226486   5.366   1.900   5.658
 8848TIP3    H126487   5.358   1.861   5.571
 8848TIP3    H226488   5.336   1.990   5.647
 8849TIP3   OH226489   2.423   1.499   3.604
 8849TIP3    H126490   2.425   1.446   3.525
 8849TIP3    H226491   2.333   1.492   3.636
 8850TIP3   OH226492   2.551   3.144   0.559
 8850TIP3    H126493   2.581   3.131   0.649
 8850TIP3    H226494   2.477   3.084   0.550
 8851TIP3   OH226495   5.018   1.176   1.338
 8851TIP3    H126496   5.028   1.193   1.431
 8851TIP3    H226497   5.097   1.129   1.312
 8852TIP3   OH226498   4.635   2.852   3.833
 8852TIP3    H126499   4.611   2.811   3.916
 8852TIP3    H226500   4.634   2.946   3.851
 8853TIP3   OH226501   6.215   1.149   6.480
 8853TIP3    H126502   6.167   1.199   6.414
 8853TIP3    H226503   6.245   1.215   6.543
 8854TIP3   OH226504   4.696   3.536   4.278
 8854TIP3    H126505   4.729   3.613   4.232
 8854TIP3    H226506   4.630   3.570   4.339
 8855TIP3   OH226507   5.797   0.496   0.475
 8855TIP3    H126508   5.868   0.524   0.532
 8855TIP3    H226509   5.835   0.494   0.387
 8856TIP3   OH226510   3.419   4.530   3.832
 8856TIP3    H126511   3.333   4.533   3.789
 8856TIP3    H226512   3.415   4.452   3.887
 8857TIP3   OH226513   5.265   2.034   0.252
 8857TIP3    H126514   5.190   1.976   0.236
 8857TIP3    H226515   5.293   2.012   0.340
 8858TIP3   OH226516   6.327   1.560   1.638
 8858TIP3    H126517   6.274   1.504   1.581
 8858TIP3    H226518   6.369   1.499   1.699
 8859TIP3   OH226519   2.627   4.051   6.092
 8859TIP3    H126520   2.662   4.045   6.181
 8859TIP3    H226521   2.637   3.963   6.056
 8860TIP3   OH226522   4.562   5.590   5.114
 8860TIP3    H126523   4.566   5.551   5.201
 8860TIP3    H226524   4.567   5.685   5.129
 8861TIP3   OH226525   4.664   3.673   3.679
 8861TIP3    H126526   4.636   3.619   3.753
 8861TIP3    H226527   4.586   3.722   3.655
 8862TIP3   OH226528   3.819   6.603   3.976
 8862TIP3    H126529   3.813   6.584   3.882
 8862TIP3    H226530   3.904   6.569   4.003
 8863TIP3   OH226531   2.042   0.642   5.565
 8863TIP3    H126532   2.011   0.674   5.650
 8863TIP3    H226533   2.131   0.676   5.558
 8864TIP3   OH226534   4.607   4.432   0.691
 8864TIP3    H126535   4.697   4.400   0.683
 8864TIP3    H226536   4.554   4.353   0.696
 8865TIP3   OH226537   1.014   5.841   5.222
 8865TIP3    H126538   1.066   5.917   5.250
 8865TIP3    H226539   1.026   5.837   5.127
 8866TIP3   OH226540   0.668   6.709   2.865
 8866TIP3    H126541   0.760   6.737   2.865
 8866TIP3    H226542   0.619   6.788   2.883
 8867TIP3   OH226543   2.223   2.327   4.724
 8867TIP3    H126544   2.157   2.384   4.684
 8867TIP3    H226545   2.221   2.349   4.817
 8868TIP3   OH226546   0.160   5.568   1.208
 8868TIP3    H126547   0.090   5.512   1.175
 8868TIP3    H226548   0.169   5.543   1.300
 8869TIP3   OH226549   2.492   4.441   5.344
 8869TIP3    H126550   2.459   4.513   5.290
 8869TIP3    H226551   2.587   4.454   5.346
 8870TIP3   OH226552   2.275   0.096   5.287
 8870TIP3    H126553   2.337   0.129   5.222
 8870TIP3    H226554   2.301   0.005   5.302
 8871TIP3   OH226555   5.991   1.564   5.623
 8871TIP3    H126556   6.031   1.522   5.547
 8871TIP3    H226557   5.908   1.518   5.635
 8872TIP3   OH226558   4.104   1.995   6.441
 8872TIP3    H126559   4.104   2.003   6.537
 8872TIP3    H226560   4.094   2.084   6.409
 8873TIP3   OH226561   3.402   5.377   1.180
 8873TIP3    H126562   3.358   5.425   1.110
 8873TIP3    H226563   3.339   5.378   1.253
 8874TIP3   OH226564   0.934   4.309   5.753
 8874TIP3    H126565   1.022   4.345   5.756
 8874TIP3    H226566   0.895   4.347   5.674
 8875TIP3   OH226567   4.708   5.526   2.645
 8875TIP3    H126568   4.616   5.553   2.647
 8875TIP3    H226569   4.736   5.545   2.556
 8876TIP3   OH226570   8.027   1.952   6.421
 8876TIP3    H126571   7.955   2.015   6.430
 8876TIP3    H226572   8.074   1.958   6.504
 8877TIP3   OH226573   1.393   4.316   4.565
 8877TIP3    H126574   1.423   4.230   4.594
 8877TIP3    H226575   1.435   4.378   4.625
 8878TIP3   OH226576   5.463   2.727   1.271
 8878TIP3    H126577   5.449   2.756   1.362
 8878TIP3    H226578   5.403   2.781   1.220
 8879TIP3   OH226579   8.189   0.265   4.503
 8879TIP3    H126580   8.107   0.215   4.502
 8879TIP3    H226581   8.243   0.222   4.569
 8880TIP3   OH226582   0.553   1.936   1.069
 8880TIP3    H126583   0.534   1.859   1.122
 8880TIP3    H226584   0.531   2.010   1.126
 8881TIP3   OH226585   4.037   7.144   1.859
 8881TIP3    H126586   4.116   7.173   1.905
 8881TIP3    H226587   4.047   7.178   1.770
 8882TIP3   OH226588   7.220   6.381   2.751
 8882TIP3    H126589   7.156   6.445   2.785
 8882TIP3    H226590   7.201   6.301   2.800
 8883TIP3   OH226591   0.819   3.341   1.488
 8883TIP3    H126592   0.911   3.329   1.464
 8883TIP3    H226593   0.804   3.280   1.560
 8884TIP3   OH226594   3.934   2.220   5.555
 8884TIP3    H126595   3.892   2.267   5.627
 8884TIP3    H226596   3.997   2.162   5.598
 8885TIP3   OH226597   7.363   2.712   1.005
 8885TIP3    H126598   7.390   2.673   1.088
 8885TIP3    H226599   7.290   2.770   1.029
 8886TIP3   OH226600   4.076   6.832   1.318
 8886TIP3    H126601   4.142   6.777   1.276
 8886TIP3    H226602   4.017   6.771   1.361
 8887TIP3   OH226603   3.889   1.495   4.842
 8887TIP3    H126604   3.935   1.558   4.786
 8887TIP3    H226605   3.935   1.499   4.926
 8888TIP3   OH226606   3.617   3.003   5.825
 8888TIP3    H126607   3.553   3.057   5.777
 8888TIP3    H226608   3.588   3.008   5.916
 8889TIP3   OH226609   2.092   1.649   0.176
 8889TIP3    H126610   2.035   1.615   0.246
 8889TIP3    H226611   2.172   1.676   0.221
 8890TIP3   OH226612   0.204   1.192   5.608
 8890TIP3    H126613   0.225   1.216   5.698
 8890TIP3    H226614   0.142   1.259   5.579
 8891TIP3   OH226615   0.987   0.010   1.729
 8891TIP3    H126616   0.904   0.009   1.778
 8891TIP3    H226617   0.977   0.083   1.667
 8892TIP3   OH226618   4.612   6.488   4.718
 8892TIP3    H126619   4.613   6.550   4.645
 8892TIP3    H226620   4.641   6.540   4.793
 8893TIP3   OH226621   3.482   5.351   0.008
 8893TIP3    H126622   3.550   5.411  -0.024
 8893TIP3    H226623   3.447   5.394   0.086
 8894TIP3   OH226624   4.820   7.323   3.666
 8894TIP3    H126625   4.785   7.241   3.630
 8894TIP3    H226626   4.783   7.328   3.754
 8895TIP3   OH226627   3.791   4.258   1.051
 8895TIP3    H126628   3.704   4.275   1.087
 8895TIP3    H226629   3.817   4.341   1.010
 8896TIP3   OH226630   0.744   2.212   2.746
 8896TIP3    H126631   0.823   2.242   2.791
 8896TIP3    H226632   0.687   2.180   2.817
 8897TIP3   OH226633   7.615   1.428   5.739
 8897TIP3    H126634   7.620   1.339   5.774
 8897TIP3    H226635   7.690   1.473   5.777
 8898TIP3   OH226636   6.210   5.606   5.189
 8898TIP3    H126637   6.263   5.657   5.251
 8898TIP3    H226638   6.211   5.657   5.109
 8899TIP3   OH226639   4.109   3.316   0.871
 8899TIP3    H126640   4.146   3.378   0.808
 8899TIP3    H226641   4.181   3.297   0.931
 8900TIP3   OH226642   2.401   4.915   5.879
 8900TIP3    H126643   2.343   4.863   5.824
 8900TIP3    H226644   2.478   4.931   5.823
 8901TIP3   OH226645   1.754   7.038   2.806
 8901TIP3    H126646   1.679   7.092   2.780
 8901TIP3    H226647   1.797   7.015   2.724
 8902TIP3   OH226648   2.310   1.872   4.516
 8902TIP3    H126649   2.224   1.911   4.501
 8902TIP3    H226650   2.309   1.793   4.462
 8903TIP3   OH226651   2.834   0.973   5.464
 8903TIP3    H126652   2.926   0.962   5.441
 8903TIP3    H226653   2.789   0.978   5.380
 8904TIP3   OH226654   2.044   6.698   2.499
 8904TIP3    H126655   2.060   6.683   2.593
 8904TIP3    H226656   1.948   6.699   2.492
 8905TIP3   OH226657   6.400   6.378   1.083
 8905TIP3    H126658   6.325   6.324   1.108
 8905TIP3    H226659   6.422   6.349   0.995
 8906TIP3   OH226660   2.910   7.159   1.759
 8906TIP3    H126661   2.925   7.149   1.665
 8906TIP3    H226662   2.931   7.073   1.796
 8907TIP3   OH226663   3.187   2.491   5.082
 8907TIP3    H126664   3.092   2.491   5.082
 8907TIP3    H226665   3.211   2.518   4.993
 8908TIP3   OH226666   7.905   6.153   0.556
 8908TIP3    H126667   7.868   6.219   0.498
 8908TIP3    H226668   7.967   6.105   0.502
 8909TIP3   OH226669   7.073   3.395   1.918
 8909TIP3    H126670   7.144   3.354   1.869
 8909TIP3    H226671   7.051   3.473   1.868
 8910TIP3   OH226672   1.013   2.709   0.503
 8910TIP3    H126673   1.008   2.805   0.509
 8910TIP3    H226674   0.950   2.687   0.434
 8911TIP3   OH226675   7.673   2.676   5.104
 8911TIP3    H126676   7.689   2.758   5.151
 8911TIP3    H226677   7.720   2.610   5.154
 8912TIP3   OH226678   3.992   7.571   2.994
 8912TIP3    H126679   4.049   7.648   2.988
 8912TIP3    H226680   3.977   7.545   2.903
 8913TIP3   OH226681   6.754   1.524   6.258
 8913TIP3    H126682   6.791   1.448   6.213
 8913TIP3    H226683   6.792   1.521   6.346
 8914TIP3   OH226684   0.696   5.739   5.040
 8914TIP3    H126685   0.765   5.799   5.013
 8914TIP3    H226686   0.624   5.796   5.066
 8915TIP3   OH226687   3.821   4.325   2.597
 8915TIP3    H126688   3.826   4.240   2.553
 8915TIP3    H226689   3.851   4.308   2.686
 8916TIP3   OH226690   0.293   7.095   5.027
 8916TIP3    H126691   0.352   7.168   5.010
 8916TIP3    H226692   0.211   7.137   5.053
 8917TIP3   OH226693   8.059   7.504   6.375
 8917TIP3    H126694   8.120   7.440   6.411
 8917TIP3    H226695   7.991   7.513   6.443
 8918TIP3   OH226696   0.757   0.324   2.416
 8918TIP3    H126697   0.704   0.246   2.403
 8918TIP3    H226698   0.695   0.397   2.408
 8919TIP3   OH226699   5.686   3.197   6.001
 8919TIP3    H126700   5.712   3.124   5.944
 8919TIP3    H226701   5.596   3.216   5.975
 8920TIP3   OH226702   0.485   1.911   4.741
 8920TIP3    H126703   0.529   1.835   4.703
 8920TIP3    H226704   0.523   1.919   4.829
 8921TIP3   OH226705   5.802   3.926   5.514
 8921TIP3    H126706   5.717   3.969   5.501
 8921TIP3    H226707   5.858   3.996   5.548
 8922TIP3   OH226708   4.298   6.732   4.395
 8922TIP3    H126709   4.241   6.808   4.404
 8922TIP3    H226710   4.304   6.718   4.301
 8923TIP3   OH226711   2.574   0.054   2.122
 8923TIP3    H126712   2.497   0.102   2.090
 8923TIP3    H226713   2.549  -0.038   2.118
 8924TIP3   OH226714   3.158   5.218   3.675
 8924TIP3    H126715   3.206   5.275   3.615
 8924TIP3    H226716   3.072   5.207   3.635
 8925TIP3   OH226717   1.947   1.326   3.792
 8925TIP3    H126718   1.897   1.344   3.871
 8925TIP3    H226719   2.035   1.361   3.810
 8926TIP3   OH226720   7.303   4.505   0.608
 8926TIP3    H126721   7.270   4.480   0.694
 8926TIP3    H226722   7.377   4.563   0.626
 8927TIP3   OH226723   1.547   2.118   6.475
 8927TIP3    H126724   1.585   2.030   6.479
 8927TIP3    H226725   1.478   2.111   6.409
 8928TIP3   OH226726   4.958   2.527   0.319
 8928TIP3    H126727   5.021   2.460   0.294
 8928TIP3    H226728   5.005   2.610   0.306
 8929TIP3   OH226729   3.326   1.785   1.652
 8929TIP3    H126730   3.305   1.754   1.740
 8929TIP3    H226731   3.242   1.783   1.605
 8930TIP3   OH226732   2.255   7.710   0.923
 8930TIP3    H126733   2.185   7.756   0.968
 8930TIP3    H226734   2.230   7.618   0.927
 8931TIP3   OH226735   5.014   2.755   4.633
 8931TIP3    H126736   5.029   2.842   4.595
 8931TIP3    H226737   4.946   2.716   4.578
 8932TIP3   OH226738   4.573   0.951   3.787
 8932TIP3    H126739   4.565   0.999   3.705
 8932TIP3    H226740   4.573   0.859   3.760
 8933TIP3   OH226741   7.510   4.725   0.154
 8933TIP3    H126742   7.496   4.783   0.080
 8933TIP3    H226743   7.440   4.746   0.215
 8934TIP3   OH226744   1.479   4.174   2.608
 8934TIP3    H126745   1.471   4.174   2.703
 8934TIP3    H226746   1.405   4.123   2.577
 8935TIP3   OH226747   8.094   5.446   5.229
 8935TIP3    H126748   8.136   5.401   5.303
 8935TIP3    H226749   8.012   5.479   5.265
 8936TIP3   OH226750   0.199   4.081   0.017
 8936TIP3    H126751   0.238   4.037   0.093
 8936TIP3    H226752   0.256   4.156   0.002
 8937TIP3   OH226753   8.064   5.174   6.257
 8937TIP3    H126754   8.096   5.090   6.224
 8937TIP3    H226755   7.969   5.164   6.261
 8938TIP3   OH226756   7.851   0.585   5.148
 8938TIP3    H126757   7.851   0.637   5.068
 8938TIP3    H226758   7.927   0.616   5.197
 8939TIP3   OH226759   0.745   6.732   6.515
 8939TIP3    H126760   0.710   6.648   6.546
 8939TIP3    H226761   0.839   6.724   6.525
 8940TIP3   OH226762   7.042   3.851   3.734
 8940TIP3    H126763   6.972   3.906   3.699
 8940TIP3    H226764   7.007   3.815   3.815
 8941TIP3   OH226765   3.320   0.113   6.765
 8941TIP3    H126766   3.271   0.104   6.683
 8941TIP3    H226767   3.398   0.162   6.740
 8942TIP3   OH226768   1.576   7.799   2.557
 8942TIP3    H126769   1.657   7.848   2.567
 8942TIP3    H226770   1.510   7.852   2.603
 8943TIP3   OH226771   6.359   0.864   1.499
 8943TIP3    H126772   6.448   0.865   1.536
 8943TIP3    H226773   6.302   0.851   1.575
 8944TIP3   OH226774   2.084   3.362   1.235
 8944TIP3    H126775   2.030   3.293   1.195
 8944TIP3    H226776   2.035   3.390   1.312
 8945TIP3   OH226777   2.343   0.236   6.220
 8945TIP3    H126778   2.281   0.295   6.262
 8945TIP3    H226779   2.422   0.243   6.273
 8946TIP3   OH226780   1.615   3.967   0.887
 8946TIP3    H126781   1.633   3.922   0.970
 8946TIP3    H226782   1.544   3.915   0.848
 8947TIP3   OH226783   5.161   3.025   1.944
 8947TIP3    H126784   5.078   3.025   1.991
 8947TIP3    H226785   5.227   3.024   2.013
 8948TIP3   OH226786   2.407   2.077   6.614
 8948TIP3    H126787   2.475   2.056   6.678
 8948TIP3    H226788   2.325   2.057   6.659
 8949TIP3   OH226789   4.145   2.015   1.994
 8949TIP3    H126790   4.062   2.062   1.993
 8949TIP3    H226791   4.142   1.959   1.916
 8950TIP3   OH226792   0.349   1.231   4.881
 8950TIP3    H126793   0.419   1.286   4.915
 8950TIP3    H226794   0.351   1.152   4.936
 8951TIP3   OH226795   0.774   1.044   4.181
 8951TIP3    H126796   0.704   1.037   4.246
 8951TIP3    H226797   0.799   1.137   4.184
 8952TIP3   OH226798   0.415   7.856   5.449
 8952TIP3    H126799   0.463   7.871   5.531
 8952TIP3    H226800   0.469   7.792   5.402
 8953TIP3   OH226801   0.839   2.573   3.340
 8953TIP3    H126802   0.835   2.517   3.263
 8953TIP3    H226803   0.932   2.589   3.354
 8954TIP3   OH226804   0.290   7.553   0.748
 8954TIP3    H126805   0.282   7.458   0.750
 8954TIP3    H226806   0.243   7.579   0.669
 8955TIP3   OH226807   3.894   2.936   2.030
 8955TIP3    H126808   3.833   2.866   2.007
 8955TIP3    H226809   3.856   2.976   2.108
 8956TIP3   OH226810   4.485   6.315   4.931
 8956TIP3    H126811   4.500   6.347   4.842
 8956TIP3    H226812   4.472   6.221   4.920
 8957TIP3   OH226813   3.056   5.314   4.548
 8957TIP3    H126814   2.968   5.310   4.586
 8957TIP3    H226815   3.107   5.252   4.600
 8958TIP3   OH226816   5.985   1.297   6.611
 8958TIP3    H126817   5.954   1.251   6.533
 8958TIP3    H226818   6.061   1.347   6.582
 8959TIP3   OH226819   6.138   3.702   1.385
 8959TIP3    H126820   6.149   3.610   1.407
 8959TIP3    H226821   6.047   3.721   1.408
 8960TIP3   OH226822   5.764   2.964   6.372
 8960TIP3    H126823   5.859   2.970   6.356
 8960TIP3    H226824   5.744   2.871   6.367
 8961TIP3   OH226825   3.154   6.129   1.840
 8961TIP3    H126826   3.119   6.193   1.901
 8961TIP3    H226827   3.239   6.164   1.814
 8962TIP3   OH226828   5.843   5.926   5.234
 8962TIP3    H126829   5.862   6.011   5.273
 8962TIP3    H226830   5.851   5.941   5.140
 8963TIP3   OH226831   7.230   2.116   3.723
 8963TIP3    H126832   7.151   2.085   3.678
 8963TIP3    H226833   7.212   2.207   3.744
 8964TIP3   OH226834   1.402   7.181   3.914
 8964TIP3    H126835   1.377   7.262   3.957
 8964TIP3    H226836   1.381   7.112   3.978
 8965TIP3   OH226837   7.495   7.774   2.100
 8965TIP3    H126838   7.420   7.795   2.155
 8965TIP3    H226839   7.551   7.720   2.156
 8966TIP3   OH226840   1.577   5.528   4.337
 8966TIP3    H126841   1.529   5.567   4.264
 8966TIP3    H226842   1.567   5.434   4.325
 8967TIP3   OH226843   0.310   2.579   0.881
 8967TIP3    H126844   0.252   2.513   0.917
 8967TIP3    H226845   0.270   2.663   0.904
 8968TIP3   OH226846   3.258   1.122   5.169
 8968TIP3    H126847   3.333   1.153   5.119
 8968TIP3    H226848   3.187   1.117   5.106
 8969TIP3   OH226849   0.329   3.997   4.886
 8969TIP3    H126850   0.403   3.960   4.934
 8969TIP3    H226851   0.288   4.057   4.948
 8970TIP3   OH226852   7.108   5.934   1.985
 8970TIP3    H126853   7.127   5.944   1.892
 8970TIP3    H226854   7.033   5.875   1.989
 8971TIP3   OH226855   2.555   5.310   2.137
 8971TIP3    H126856   2.476   5.361   2.158
 8971TIP3    H226857   2.527   5.250   2.068
 8972TIP3   OH226858   2.376   0.372   4.257
 8972TIP3    H126859   2.375   0.350   4.350
 8972TIP3    H226860   2.394   0.467   4.255
 8973TIP3   OH226861   6.748   3.503   5.196
 8973TIP3    H126862   6.790   3.505   5.282
 8973TIP3    H226863   6.821   3.506   5.134
 8974TIP3   OH226864   5.186   4.129   2.776
 8974TIP3    H126865   5.266   4.139   2.725
 8974TIP3    H226866   5.150   4.045   2.748
 8975TIP3   OH226867   5.681   2.105   1.809
 8975TIP3    H126868   5.742   2.041   1.846
 8975TIP3    H226869   5.718   2.127   1.724
 8976TIP3   OH226870   2.809   3.231   2.107
 8976TIP3    H126871   2.881   3.292   2.115
 8976TIP3    H226872   2.759   3.241   2.188
 8977TIP3   OH226873   0.618   4.669   4.856
 8977TIP3    H126874   0.611   4.703   4.767
 8977TIP3    H226875   0.529   4.674   4.890
 8978TIP3   OH226876   6.234   4.978   0.215
 8978TIP3    H126877   6.303   4.944   0.158
 8978TIP3    H226878   6.152   4.956   0.169
 8979TIP3   OH226879   4.370   5.885   4.422
 8979TIP3    H126880   4.275   5.890   4.436
 8979TIP3    H226881   4.382   5.807   4.369
 8980TIP3   OH226882   4.359   6.949   6.067
 8980TIP3    H126883   4.409   6.874   6.034
 8980TIP3    H226884   4.402   7.025   6.027
 8981TIP3   OH226885   5.343   5.306   0.778
 8981TIP3    H126886   5.398   5.378   0.748
 8981TIP3    H226887   5.404   5.234   0.794
 8982TIP3   OH226888   4.172   2.046   5.962
 8982TIP3    H126889   4.121   2.014   5.888
 8982TIP3    H226890   4.146   1.991   6.036
 8983TIP3   OH226891   6.528   7.047   2.921
 8983TIP3    H126892   6.550   7.053   2.828
 8983TIP3    H226893   6.580   6.973   2.953
 8984TIP3   OH226894   1.479   4.718   2.806
 8984TIP3    H126895   1.424   4.787   2.769
 8984TIP3    H226896   1.417   4.650   2.834
 8985TIP3   OH226897   1.053   5.772   4.322
 8985TIP3    H126898   1.062   5.858   4.280
 8985TIP3    H226899   0.993   5.787   4.395
 8986TIP3   OH226900   3.312  -0.010   1.220
 8986TIP3    H126901   3.317  -0.039   1.311
 8986TIP3    H226902   3.278   0.079   1.225
 8987TIP3   OH226903   3.156   4.650   5.012
 8987TIP3    H126904   3.250   4.658   4.998
 8987TIP3    H226905   3.148   4.585   5.082
 8988TIP3   OH226906   8.126   4.556   6.305
 8988TIP3    H126907   8.191   4.618   6.338
 8988TIP3    H226908   8.068   4.540   6.379
 8989TIP3   OH226909   8.066   0.823   1.075
 8989TIP3    H126910   8.107   0.741   1.045
 8989TIP3    H226911   7.997   0.794   1.134
 8990TIP3   OH226912   8.106   6.937   0.554
 8990TIP3    H126913   8.153   6.983   0.484
 8990TIP3    H226914   8.125   6.845   0.539
 8991TIP3   OH226915   6.024   2.509   2.064
 8991TIP3    H126916   5.962   2.438   2.081
 8991TIP3    H226917   6.087   2.503   2.135
 8992TIP3   OH226918   0.867   0.546   1.308
 8992TIP3    H126919   0.865   0.560   1.214
 8992TIP3    H226920   0.958   0.558   1.333
 8993TIP3   OH226921   2.954   2.934   5.353
 8993TIP3    H126922   2.958   2.962   5.445
 8993TIP3    H226923   3.011   2.856   5.350
 8994TIP3   OH226924   0.186   7.060   0.185
 8994TIP3    H126925   0.252   6.991   0.172
 8994TIP3    H226926   0.127   7.050   0.110
 8995TIP3   OH226927   6.603   7.273   3.741
 8995TIP3    H126928   6.625   7.183   3.717
 8995TIP3    H226929   6.685   7.321   3.734
 8996TIP3   OH226930   4.447   1.937   6.669
 8996TIP3    H126931   4.436   1.907   6.578
 8996TIP3    H226932   4.473   1.858   6.716
 8997TIP3   OH226933   3.296   3.181   0.581
 8997TIP3    H126934   3.317   3.201   0.490
 8997TIP3    H226935   3.381   3.170   0.624
 8998TIP3   OH226936   0.661   1.975   3.893
 8998TIP3    H126937   0.617   2.060   3.887
 8998TIP3    H226938   0.635   1.929   3.814
 8999TIP3   OH226939   7.995   3.383   3.553
 8999TIP3    H126940   8.066   3.358   3.612
 8999TIP3    H226941   7.915   3.361   3.601
 9000TIP3   OH226942   4.699   2.238   5.082
 9000TIP3    H126943   4.726   2.316   5.130
 9000TIP3    H226944   4.640   2.192   5.142
 9001TIP3   OH226945   5.272   0.732   4.585
 9001TIP3    H126946   5.274   0.650   4.635
 9001TIP3    H226947   5.364   0.754   4.572
 9002TIP3   OH226948   1.387   2.125   2.097
 9002TIP3    H126949   1.452   2.086   2.155
 9002TIP3    H226950   1.382   2.217   2.125
 9003TIP3   OH226951   0.623   6.487   6.638
 9003TIP3    H126952   0.653   6.443   6.717
 9003TIP3    H226953   0.609   6.416   6.575
 9004TIP3   OH226954   2.737   1.105   2.172
 9004TIP3    H126955   2.702   1.030   2.220
 9004TIP3    H226956   2.821   1.123   2.214
 9005TIP3   OH226957   0.010   0.714   1.780
 9005TIP3    H126958  -0.013   0.774   1.852
 9005TIP3    H226959   0.056   0.769   1.717
 9006TIP3   OH226960   6.138   7.351   4.687
 9006TIP3    H126961   6.130   7.346   4.782
 9006TIP3    H226962   6.230   7.373   4.672
 9007TIP3   OH226963   5.725   6.596   1.359
 9007TIP3    H126964   5.679   6.565   1.282
 9007TIP3    H226965   5.734   6.691   1.346
 9008TIP3   OH226966   7.566   4.045   5.695
 9008TIP3    H126967   7.491   4.102   5.712
 9008TIP3    H226968   7.626   4.098   5.642
 9009TIP3   OH226969   4.945   3.136   2.609
 9009TIP3    H126970   4.886   3.146   2.684
 9009TIP3    H226971   4.898   3.177   2.536
 9010TIP3   OH226972   5.412   0.365   3.564
 9010TIP3    H126973   5.398   0.326   3.478
 9010TIP3    H226974   5.445   0.294   3.618
 9011TIP3   OH226975   5.454   5.379   5.736
 9011TIP3    H126976   5.382   5.406   5.793
 9011TIP3    H226977   5.412   5.349   5.656
 9012TIP3   OH226978   6.536   6.349   4.552
 9012TIP3    H126979   6.525   6.301   4.634
 9012TIP3    H226980   6.626   6.331   4.524
 9013TIP3   OH226981   0.079   0.121   1.226
 9013TIP3    H126982   0.022   0.045   1.240
 9013TIP3    H226983   0.167   0.089   1.247
 9014TIP3   OH226984   7.513   0.821   4.282
 9014TIP3    H126985   7.467   0.783   4.208
 9014TIP3    H226986   7.447   0.873   4.327
 9015TIP3   OH226987   0.332   4.675   0.864
 9015TIP3    H126988   0.335   4.757   0.815
 9015TIP3    H226989   0.403   4.622   0.827
 9016TIP3   OH226990   2.542   4.719   3.705
 9016TIP3    H126991   2.565   4.801   3.661
 9016TIP3    H226992   2.627   4.681   3.731
 9017TIP3   OH226993   6.173   5.247   3.122
 9017TIP3    H126994   6.232   5.322   3.115
 9017TIP3    H226995   6.221   5.175   3.080
 9018TIP3   OH226996   4.757   3.204   5.996
 9018TIP3    H126997   4.671   3.173   6.025
 9018TIP3    H226998   4.745   3.226   5.904
 9019TIP3   OH226999   2.448   4.307   0.649
 9019TIP3    H127000   2.384   4.366   0.688
 9019TIP3    H227001   2.417   4.294   0.559
 9020TIP3   OH227002   4.295   3.187   0.051
 9020TIP3    H127003   4.282   3.129  -0.024
 9020TIP3    H227004   4.283   3.275   0.016
 9021TIP3   OH227005   7.662   4.968   4.822
 9021TIP3    H127006   7.738   4.949   4.767
 9021TIP3    H227007   7.587   4.937   4.772
 9022TIP3   OH227008   5.276   3.026   5.825
 9022TIP3    H127009   5.296   3.111   5.865
 9022TIP3    H227010   5.361   2.984   5.816
 9023TIP3   OH227011   6.126   0.074   1.313
 9023TIP3    H127012   6.189   0.061   1.242
 9023TIP3    H227013   6.106  -0.014   1.344
 9024TIP3   OH227014   4.634   1.568   6.505
 9024TIP3    H127015   4.551   1.614   6.513
 9024TIP3    H227016   4.627   1.494   6.566
 9025TIP3   OH227017   7.094  -0.010   0.116
 9025TIP3    H127018   7.092  -0.085   0.177
 9025TIP3    H227019   7.184  -0.008   0.084
 9026TIP3   OH227020   4.292   7.619   3.923
 9026TIP3    H127021   4.320   7.538   3.965
 9026TIP3    H227022   4.196   7.618   3.931
 9027TIP3   OH227023   3.475   4.672   6.243
 9027TIP3    H127024   3.473   4.730   6.319
 9027TIP3    H227025   3.447   4.728   6.170
 9028TIP3   OH227026   6.635   4.336   5.670
 9028TIP3    H127027   6.554   4.375   5.637
 9028TIP3    H227028   6.674   4.294   5.594
 9029TIP3   OH227029   1.774   4.120   0.400
 9029TIP3    H127030   1.785   4.123   0.305
 9029TIP3    H227031   1.693   4.169   0.416
 9030TIP3   OH227032   0.332   5.044   5.274
 9030TIP3    H127033   0.361   5.026   5.184
 9030TIP3    H227034   0.409   5.027   5.328
 9031TIP3   OH227035   1.361   0.302   0.486
 9031TIP3    H127036   1.283   0.316   0.540
 9031TIP3    H227037   1.404   0.225   0.525
 9032TIP3   OH227038   4.967   4.543   6.005
 9032TIP3    H127039   4.935   4.496   5.929
 9032TIP3    H227040   4.986   4.631   5.972
 9033TIP3   OH227041   6.991   4.012   6.434
 9033TIP3    H127042   6.900   4.006   6.464
 9033TIP3    H227043   7.020   3.921   6.427
 9034TIP3   OH227044   5.268   0.911   2.648
 9034TIP3    H127045   5.195   0.876   2.699
 9034TIP3    H227046   5.322   0.834   2.629
 9035TIP3   OH227047   0.942   0.550   4.505
 9035TIP3    H127048   0.969   0.606   4.432
 9035TIP3    H227049   1.024   0.530   4.551
 9036TIP3   OH227050   3.435   0.710   5.538
 9036TIP3    H127051   3.388   0.744   5.614
 9036TIP3    H227052   3.378   0.640   5.505
 9037TIP3   OH227053   7.796   1.796   5.560
 9037TIP3    H127054   7.892   1.788   5.565
 9037TIP3    H227055   7.770   1.819   5.650
 9038TIP3   OH227056   6.434   6.666   0.891
 9038TIP3    H127057   6.406   6.673   0.982
 9038TIP3    H227058   6.353   6.680   0.841
 9039TIP3   OH227059   3.927   2.082   4.780
 9039TIP3    H127060   3.881   2.097   4.698
 9039TIP3    H227061   3.864   2.032   4.833
 9040TIP3   OH227062   5.568   4.556   6.527
 9040TIP3    H127063   5.614   4.627   6.572
 9040TIP3    H227064   5.635   4.490   6.512
 9041TIP3   OH227065   3.391   0.208   3.125
 9041TIP3    H127066   3.306   0.231   3.162
 9041TIP3    H227067   3.449   0.279   3.153
 9042TIP3   OH227068   5.638   0.782   2.522
 9042TIP3    H127069   5.548   0.759   2.542
 9042TIP3    H227070   5.678   0.799   2.607
 9043TIP3   OH227071   6.227   4.176   3.316
 9043TIP3    H127072   6.200   4.084   3.306
 9043TIP3    H227073   6.171   4.224   3.255
 9044TIP3   OH227074   1.396   2.852   0.258
 9044TIP3    H127075   1.359   2.806   0.334
 9044TIP3    H227076   1.478   2.806   0.241
 9045TIP3   OH227077   1.196   6.783   2.789
 9045TIP3    H127078   1.217   6.720   2.719
 9045TIP3    H227079   1.164   6.729   2.861
 9046TIP3   OH227080   6.867   1.237   5.433
 9046TIP3    H127081   6.796   1.301   5.438
 9046TIP3    H227082   6.947   1.289   5.433
 9047TIP3   OH227083   1.898   3.505   1.724
 9047TIP3    H127084   1.826   3.533   1.780
 9047TIP3    H227085   1.970   3.486   1.784
 9048TIP3   OH227086   4.434   2.703   6.345
 9048TIP3    H127087   4.503   2.752   6.301
 9048TIP3    H227088   4.458   2.703   6.437
 9049TIP3   OH227089   7.086   3.770   6.409
 9049TIP3    H127090   7.132   3.790   6.490
 9049TIP3    H227091   7.126   3.688   6.379
 9050TIP3   OH227092   7.688   4.836   5.742
 9050TIP3    H127093   7.779   4.857   5.720
 9050TIP3    H227094   7.651   4.804   5.660
 9051TIP3   OH227095   1.221   6.198   3.843
 9051TIP3    H127096   1.275   6.179   3.919
 9051TIP3    H227097   1.211   6.114   3.798
 9052TIP3   OH227098   2.346   4.755   2.306
 9052TIP3    H127099   2.350   4.820   2.236
 9052TIP3    H227100   2.430   4.710   2.302
 9053TIP3   OH227101   2.722   0.403   6.565
 9053TIP3    H127102   2.656   0.450   6.514
 9053TIP3    H227103   2.766   0.347   6.501
 9054TIP3   OH227104   6.690   6.383   2.911
 9054TIP3    H127105   6.741   6.392   2.830
 9054TIP3    H227106   6.713   6.295   2.943
 9055TIP3   OH227107   6.278   1.758   1.424
 9055TIP3    H127108   6.317   1.803   1.499
 9055TIP3    H227109   6.258   1.827   1.362
 9056TIP3   OH227110   4.817   3.421   5.288
 9056TIP3    H127111   4.823   3.349   5.351
 9056TIP3    H227112   4.906   3.429   5.253
 9057TIP3   OH227113   4.835   2.399   0.738
 9057TIP3    H127114   4.767   2.365   0.796
 9057TIP3    H227115   4.794   2.402   0.652
 9058TIP3   OH227116   5.965   6.122   5.878
 9058TIP3    H127117   5.968   6.071   5.797
 9058TIP3    H227118   5.971   6.057   5.948
 9059TIP3   OH227119   1.700   2.434   0.256
 9059TIP3    H127120   1.669   2.459   0.343
 9059TIP3    H227121   1.773   2.375   0.273
 9060TIP3   OH227122   6.786   3.969   3.645
 9060TIP3    H127123   6.810   4.058   3.669
 9060TIP3    H227124   6.692   3.963   3.665
 9061TIP3   OH227125   0.214   0.383   6.160
 9061TIP3    H127126   0.128   0.380   6.202
 9061TIP3    H227127   0.272   0.416   6.229
 9062TIP3   OH227128   4.236   3.755   1.740
 9062TIP3    H127129   4.265   3.807   1.665
 9062TIP3    H227130   4.162   3.704   1.706
 9063TIP3   OH227131   4.085   1.989   3.910
 9063TIP3    H127132   4.036   1.931   3.967
 9063TIP3    H227133   4.177   1.974   3.932
 9064TIP3   OH227134   6.388   4.070   3.057
 9064TIP3    H127135   6.429   4.152   3.032
 9064TIP3    H227136   6.294   4.091   3.062
 9065TIP3   OH227137   3.295   7.481   2.826
 9065TIP3    H127138   3.249   7.403   2.858
 9065TIP3    H227139   3.286   7.545   2.896
 9066TIP3   OH227140   4.751   0.455   6.369
 9066TIP3    H127141   4.843   0.429   6.361
 9066TIP3    H227142   4.724   0.472   6.278
 9067TIP3   OH227143   3.347   4.929   4.329
 9067TIP3    H127144   3.411   4.995   4.357
 9067TIP3    H227145   3.359   4.857   4.390
 9068TIP3   OH227146   3.568   6.201   5.476
 9068TIP3    H127147   3.526   6.217   5.391
 9068TIP3    H227148   3.496   6.182   5.535
 9069TIP3   OH227149   4.873   5.162   4.599
 9069TIP3    H127150   4.811   5.107   4.647
 9069TIP3    H227151   4.854   5.144   4.507
 9070TIP3   OH227152   1.868   7.585   1.454
 9070TIP3    H127153   1.903   7.516   1.399
 9070TIP3    H227154   1.932   7.594   1.525
 9071TIP3   OH227155   5.856   1.781   4.205
 9071TIP3    H127156   5.865   1.694   4.243
 9071TIP3    H227157   5.768   1.781   4.166
 9072TIP3   OH227158   0.769   4.906   2.595
 9072TIP3    H127159   0.736   4.944   2.676
 9072TIP3    H227160   0.751   4.971   2.528
 9073TIP3   OH227161   6.242   1.815   1.974
 9073TIP3    H127162   6.211   1.747   2.034
 9073TIP3    H227163   6.292   1.875   2.030
 9074TIP3   OH227164   2.378   7.786   6.286
 9074TIP3    H127165   2.445   7.746   6.230
 9074TIP3    H227166   2.420   7.865   6.320
 9075TIP3   OH227167   6.319   7.570   3.478
 9075TIP3    H127168   6.315   7.509   3.404
 9075TIP3    H227169   6.227   7.583   3.503
 9076TIP3   OH227170   5.038   6.877   6.446
 9076TIP3    H127171   5.090   6.927   6.509
 9076TIP3    H227172   4.951   6.916   6.450
 9077TIP3   OH227173   5.260   0.400   5.248
 9077TIP3    H127174   5.322   0.400   5.175
 9077TIP3    H227175   5.221   0.487   5.247
 9078TIP3   OH227176   7.574   5.049   3.638
 9078TIP3    H127177   7.525   4.967   3.646
 9078TIP3    H227178   7.646   5.040   3.702
 9079TIP3   OH227179   1.459   0.645   4.215
 9079TIP3    H127180   1.370   0.678   4.224
 9079TIP3    H227181   1.448   0.555   4.183
 9080TIP3   OH227182   2.565   0.436   0.282
 9080TIP3    H127183   2.597   0.420   0.371
 9080TIP3    H227184   2.620   0.380   0.227
 9081TIP3   OH227185   7.955   6.550   4.949
 9081TIP3    H127186   7.872   6.504   4.957
 9081TIP3    H227187   8.021   6.481   4.960
 9082TIP3   OH227188   8.167   5.966   2.840
 9082TIP3    H127189   8.080   5.999   2.816
 9082TIP3    H227190   8.227   6.015   2.784
 9083TIP3   OH227191   0.095   6.701   2.634
 9083TIP3    H127192   0.184   6.732   2.617
 9083TIP3    H227193   0.044   6.780   2.650
 9084TIP3   OH227194   2.322   7.469   0.793
 9084TIP3    H127195   2.411   7.501   0.780
 9084TIP3    H227196   2.294   7.440   0.706
 9085TIP3   OH227197   3.975   2.355   4.720
 9085TIP3    H127198   3.984   2.311   4.804
 9085TIP3    H227199   4.038   2.427   4.723
 9086TIP3   OH227200   1.040   4.949   2.386
 9086TIP3    H127201   0.996   4.886   2.443
 9086TIP3    H227202   1.095   5.001   2.445
 9087TIP3   OH227203   0.585   6.187   5.098
 9087TIP3    H127204   0.504   6.217   5.058
 9087TIP3    H227205   0.617   6.263   5.147
 9088TIP3   OH227206   6.492   0.700   2.816
 9088TIP3    H127207   6.442   0.769   2.857
 9088TIP3    H227208   6.447   0.619   2.840
 9089TIP3   OH227209   3.409   5.058   6.261
 9089TIP3    H127210   3.458   4.977   6.280
 9089TIP3    H227211   3.476   5.126   6.258
 9090TIP3   OH227212   5.399   6.389   4.466
 9090TIP3    H127213   5.368   6.478   4.485
 9090TIP3    H227214   5.487   6.401   4.430
 9091TIP3   OH227215   1.205   7.426   2.261
 9091TIP3    H127216   1.240   7.436   2.349
 9091TIP3    H227217   1.112   7.446   2.270
 9092TIP3   OH227218   3.504   3.188   1.624
 9092TIP3    H127219   3.448   3.234   1.563
 9092TIP3    H227220   3.588   3.234   1.620
 9093TIP3   OH227221   1.217   5.099   5.719
 9093TIP3    H127222   1.164   5.178   5.726
 9093TIP3    H227223   1.238   5.076   5.810
 9094TIP3   OH227224   0.899   0.069   5.776
 9094TIP3    H127225   0.835   0.123   5.729
 9094TIP3    H227226   0.848   0.026   5.844
 9095TIP3   OH227227   5.932   6.739   1.068
 9095TIP3    H127228   5.902   6.741   1.159
 9095TIP3    H227229   5.955   6.647   1.053
 9096TIP3   OH227230   3.568   2.780   6.435
 9096TIP3    H127231   3.502   2.751   6.498
 9096TIP3    H227232   3.648   2.792   6.486
 9097TIP3   OH227233   6.446   1.042   2.400
 9097TIP3    H127234   6.418   0.968   2.455
 9097TIP3    H227235   6.482   1.105   2.462
 9098TIP3   OH227236   1.648   1.567   4.615
 9098TIP3    H127237   1.661   1.661   4.601
 9098TIP3    H227238   1.722   1.527   4.570
 9099TIP3   OH227239   5.140   3.806   1.862
 9099TIP3    H127240   5.105   3.888   1.826
 9099TIP3    H227241   5.062   3.757   1.888
 9100TIP3   OH227242   4.186   5.154   2.161
 9100TIP3    H127243   4.125   5.084   2.137
 9100TIP3    H227244   4.263   5.137   2.107
 9101TIP3   OH227245   1.713   2.742   1.243
 9101TIP3    H127246   1.641   2.702   1.292
 9101TIP3    H227247   1.793   2.707   1.284
 9102TIP3   OH227248   2.923   0.020   1.286
 9102TIP3    H127249   2.983  -0.009   1.217
 9102TIP3    H227250   2.981   0.059   1.352
 9103TIP3   OH227251   5.282   2.405   6.022
 9103TIP3    H127252   5.223   2.392   6.096
 9103TIP3    H227253   5.224   2.419   5.947
 9104TIP3   OH227254   6.834   5.884   3.012
 9104TIP3    H127255   6.792   5.859   3.094
 9104TIP3    H227256   6.839   5.804   2.961
 9105TIP3   OH227257   5.491   7.423   4.133
 9105TIP3    H127258   5.513   7.363   4.062
 9105TIP3    H227259   5.574   7.466   4.154
 9106TIP3   OH227260   7.890   1.976   4.260
 9106TIP3    H127261   7.950   2.046   4.234
 9106TIP3    H227262   7.858   1.940   4.177
 9107TIP3   OH227263   2.519   2.591   1.246
 9107TIP3    H127264   2.598   2.629   1.208
 9107TIP3    H227265   2.532   2.496   1.239
 9108TIP3   OH227266   0.292   5.606   5.215
 9108TIP3    H127267   0.375   5.608   5.262
 9108TIP3    H227268   0.239   5.543   5.264
 9109TIP3   OH227269   6.730   7.608   2.367
 9109TIP3    H127270   6.656   7.553   2.343
 9109TIP3    H227271   6.734   7.605   2.462
 9110TIP3   OH227272   8.214   5.098   1.476
 9110TIP3    H127273   8.188   5.138   1.558
 9110TIP3    H227274   8.152   5.132   1.411
 9111TIP3   OH227275   0.871   6.881   5.858
 9111TIP3    H127276   0.859   6.957   5.915
 9111TIP3    H227277   0.926   6.822   5.908
 9112TIP3   OH227278   1.736   2.560   4.732
 9112TIP3    H127279   1.688   2.531   4.655
 9112TIP3    H227280   1.821   2.590   4.697
 9113TIP3   OH227281   6.861   3.716   6.720
 9113TIP3    H127282   6.893   3.652   6.657
 9113TIP3    H227283   6.773   3.738   6.690
 9114TIP3   OH227284   3.536   7.656   0.970
 9114TIP3    H127285   3.621   7.611   0.966
 9114TIP3    H227286   3.509   7.662   0.878
 9115TIP3   OH227287   6.033   0.084   5.264
 9115TIP3    H127288   6.003   0.125   5.345
 9115TIP3    H227289   6.066   0.156   5.212
 9116TIP3   OH227290   5.507   7.613   3.413
 9116TIP3    H127291   5.507   7.674   3.339
 9116TIP3    H227292   5.568   7.651   3.475
 9117TIP3   OH227293   4.595   2.073   1.116
 9117TIP3    H127294   4.513   2.045   1.158
 9117TIP3    H227295   4.659   2.007   1.143
 9118TIP3   OH227296   1.207   4.076   2.240
 9118TIP3    H127297   1.117   4.051   2.262
 9118TIP3    H227298   1.215   4.165   2.274
 9119TIP3   OH227299   5.255   4.870   0.598
 9119TIP3    H127300   5.276   4.860   0.691
 9119TIP3    H227301   5.276   4.961   0.579
 9120TIP3   OH227302   4.892   1.377   1.790
 9120TIP3    H127303   4.959   1.331   1.740
 9120TIP3    H227304   4.819   1.315   1.795
 9121TIP3   OH227305   4.609   4.642   5.490
 9121TIP3    H127306   4.653   4.635   5.575
 9121TIP3    H227307   4.657   4.582   5.433
 9122TIP3   OH227308   5.023   2.669   5.138
 9122TIP3    H127309   4.974   2.721   5.074
 9122TIP3    H227310   5.106   2.716   5.150
 9123TIP3   OH227311   1.783   3.542   0.226
 9123TIP3    H127312   1.724   3.541   0.301
 9123TIP3    H227313   1.784   3.633   0.197
 9124TIP3   OH227314   1.349   0.499   5.155
 9124TIP3    H127315   1.281   0.560   5.125
 9124TIP3    H227316   1.325   0.415   5.116
 9125TIP3   OH227317   0.169   4.965   6.298
 9125TIP3    H127318   0.137   5.040   6.347
 9125TIP3    H227319   0.254   4.945   6.337
 9126TIP3   OH227320   4.007   1.583   0.367
 9126TIP3    H127321   3.954   1.623   0.436
 9126TIP3    H227322   3.964   1.610   0.286
 9127TIP3   OH227323   4.505   1.852   5.669
 9127TIP3    H127324   4.439   1.885   5.606
 9127TIP3    H227325   4.547   1.779   5.623
 9128TIP3   OH227326   1.821   1.022   2.067
 9128TIP3    H127327   1.844   1.111   2.093
 9128TIP3    H227328   1.869   1.007   1.986
 9129TIP3   OH227329   7.786   2.474   3.490
 9129TIP3    H127330   7.849   2.456   3.421
 9129TIP3    H227331   7.817   2.555   3.531
 9130TIP3   OH227332   5.860   3.316   2.753
 9130TIP3    H127333   5.822   3.325   2.666
 9130TIP3    H227334   5.823   3.389   2.803
 9131TIP3   OH227335   0.748   0.259   5.621
 9131TIP3    H127336   0.770   0.284   5.531
 9131TIP3    H227337   0.668   0.207   5.614
 9132TIP3   OH227338   5.261   5.365   1.035
 9132TIP3    H127339   5.291   5.335   0.950
 9132TIP3    H227340   5.229   5.285   1.079
 9133TIP3   OH227341   5.547   5.806   0.038
 9133TIP3    H127342   5.585   5.761  -0.037
 9133TIP3    H227343   5.622   5.846   0.083
 9134TIP3   OH227344   0.483   5.580   5.401
 9134TIP3    H127345   0.538   5.504   5.419
 9134TIP3    H227346   0.529   5.654   5.441
 9135TIP3   OH227347   3.102   5.374   4.977
 9135TIP3    H127348   3.174   5.315   4.953
 9135TIP3    H227349   3.139   5.432   5.043
 9136TIP3   OH227350   0.604   5.372   3.413
 9136TIP3    H127351   0.537   5.405   3.352
 9136TIP3    H227352   0.568   5.391   3.500
 9137TIP3   OH227353   5.553   4.180   1.330
 9137TIP3    H127354   5.592   4.143   1.251
 9137TIP3    H227355   5.556   4.275   1.317
 9138TIP3   OH227356   2.253   3.065   4.914
 9138TIP3    H127357   2.183   3.007   4.943
 9138TIP3    H227358   2.333   3.013   4.925
 9139TIP3   OH227359   2.870   5.833   4.882
 9139TIP3    H127360   2.819   5.906   4.917
 9139TIP3    H227361   2.919   5.872   4.808
 9140TIP3   OH227362   0.572   6.770   2.413
 9140TIP3    H127363   0.585   6.862   2.434
 9140TIP3    H227364   0.617   6.757   2.330
 9141TIP3   OH227365   0.731   4.776   0.337
 9141TIP3    H127366   0.802   4.748   0.394
 9141TIP3    H227367   0.751   4.735   0.253
 9142TIP3   OH227368   5.530   1.860   0.356
 9142TIP3    H127369   5.440   1.836   0.332
 9142TIP3    H227370   5.519   1.919   0.431
 9143TIP3   OH227371   1.601   2.807   2.960
 9143TIP3    H127372   1.567   2.773   2.877
 9143TIP3    H227373   1.525   2.849   3.001
 9144TIP3   OH227374   3.356   1.449   2.099
 9144TIP3    H127375   3.300   1.503   2.155
 9144TIP3    H227376   3.368   1.368   2.148
 9145TIP3   OH227377   4.297   6.104   2.126
 9145TIP3    H127378   4.216   6.126   2.172
 9145TIP3    H227379   4.338   6.189   2.108
 9146TIP3   OH227380   2.333   3.052   3.610
 9146TIP3    H127381   2.346   3.027   3.518
 9146TIP3    H227382   2.238   3.062   3.619
 9147TIP3   OH227383   4.501   1.935   4.999
 9147TIP3    H127384   4.466   1.846   4.997
 9147TIP3    H227385   4.587   1.928   4.958
 9148TIP3   OH227386   5.281   1.879   4.479
 9148TIP3    H127387   5.298   1.787   4.460
 9148TIP3    H227388   5.258   1.918   4.395
 9149TIP3   OH227389   5.766   2.579   3.235
 9149TIP3    H127390   5.820   2.501   3.221
 9149TIP3    H227391   5.824   2.652   3.211
 9150TIP3   OH227392   0.155   5.265   4.496
 9150TIP3    H127393   0.110   5.275   4.412
 9150TIP3    H227394   0.142   5.348   4.540
 9151TIP3   OH227395   7.630   4.286   0.596
 9151TIP3    H127396   7.539   4.258   0.590
 9151TIP3    H227397   7.665   4.237   0.670
 9152TIP3   OH227398   6.784   3.843   5.574
 9152TIP3    H127399   6.851   3.779   5.598
 9152TIP3    H227400   6.812   3.875   5.489
 9153TIP3   OH227401   2.854   2.608   2.342
 9153TIP3    H127402   2.771   2.623   2.297
 9153TIP3    H227403   2.856   2.673   2.412
 9154TIP3   OH227404   3.753   3.563   2.922
 9154TIP3    H127405   3.693   3.533   2.854
 9154TIP3    H227406   3.803   3.485   2.946
 9155TIP3   OH227407   2.178   1.989   2.686
 9155TIP3    H127408   2.251   2.037   2.724
 9155TIP3    H227409   2.185   1.901   2.725
 9156TIP3   OH227410   5.577   6.373   1.860
 9156TIP3    H127411   5.535   6.319   1.926
 9156TIP3    H227412   5.550   6.334   1.776
 9157TIP3   OH227413   0.516   2.450   1.234
 9157TIP3    H127414   0.495   2.543   1.225
 9157TIP3    H227415   0.469   2.407   1.162
 9158TIP3   OH227416   0.981   4.968   1.169
 9158TIP3    H127417   0.887   4.980   1.153
 9158TIP3    H227418   0.997   4.875   1.150
 9159TIP3   OH227419   4.195   6.323   6.046
 9159TIP3    H127420   4.122   6.383   6.059
 9159TIP3    H227421   4.227   6.303   6.134
 9160TIP3   OH227422   2.235   2.703   3.615
 9160TIP3    H127423   2.290   2.768   3.571
 9160TIP3    H227424   2.178   2.669   3.546
 9161TIP3   OH227425   5.312   5.154   3.164
 9161TIP3    H127426   5.266   5.075   3.138
 9161TIP3    H227427   5.404   5.129   3.166
 9162TIP3   OH227428   6.783   6.814   4.033
 9162TIP3    H127429   6.877   6.797   4.041
 9162TIP3    H227430   6.765   6.802   3.939
 9163TIP3   OH227431   6.534   6.556   4.255
 9163TIP3    H127432   6.539   6.480   4.313
 9163TIP3    H227433   6.588   6.622   4.299
 9164TIP3   OH227434   6.972   0.153   3.410
 9164TIP3    H127435   7.006   0.093   3.477
 9164TIP3    H227436   6.935   0.226   3.460
 9165TIP3   OH227437   6.241   6.370   2.844
 9165TIP3    H127438   6.179   6.408   2.905
 9165TIP3    H227439   6.303   6.323   2.899
 9166TIP3   OH227440   1.177   4.229   1.235
 9166TIP3    H127441   1.086   4.217   1.207
 9166TIP3    H227442   1.199   4.148   1.281
 9167TIP3   OH227443   7.323   2.924   4.141
 9167TIP3    H127444   7.310   3.019   4.134
 9167TIP3    H227445   7.250   2.886   4.092
 9168TIP3   OH227446   4.261   2.930   0.737
 9168TIP3    H127447   4.287   2.838   0.738
 9168TIP3    H227448   4.169   2.929   0.762
 9169TIP3   OH227449   6.737   0.266   2.425
 9169TIP3    H127450   6.680   0.342   2.429
 9169TIP3    H227451   6.747   0.238   2.516
 9170TIP3   OH227452   3.409   0.404   5.773
 9170TIP3    H127453   3.341   0.447   5.826
 9170TIP3    H227454   3.491   0.440   5.807
 9171TIP3   OH227455   2.553   2.918   1.505
 9171TIP3    H127456   2.579   2.998   1.459
 9171TIP3    H227457   2.460   2.908   1.485
 9172TIP3   OH227458   6.242   0.472   6.462
 9172TIP3    H127459   6.290   0.413   6.403
 9172TIP3    H227460   6.248   0.557   6.419
 9173TIP3   OH227461   6.213   0.788   0.945
 9173TIP3    H127462   6.288   0.841   0.971
 9173TIP3    H227463   6.140   0.821   0.996
 9174TIP3   OH227464   6.387   2.247   3.915
 9174TIP3    H127465   6.315   2.248   3.851
 9174TIP3    H227466   6.342   2.248   3.999
 9175TIP3   OH227467   3.418   2.485   5.774
 9175TIP3    H127468   3.433   2.447   5.687
 9175TIP3    H227469   3.489   2.452   5.828
 9176TIP3   OH227470   2.238   2.736   0.689
 9176TIP3    H127471   2.316   2.683   0.674
 9176TIP3    H227472   2.172   2.699   0.631
 9177TIP3   OH227473   6.106   3.292   0.218
 9177TIP3    H127474   6.132   3.359   0.281
 9177TIP3    H227475   6.038   3.242   0.263
 9178TIP3   OH227476   4.658   0.543   0.581
 9178TIP3    H127477   4.650   0.468   0.640
 9178TIP3    H227478   4.665   0.619   0.639
 9179TIP3   OH227479   8.138   5.058   3.055
 9179TIP3    H127480   8.121   5.078   2.963
 9179TIP3    H227481   8.088   5.124   3.103
 9180TIP3   OH227482   2.024   0.323   1.226
 9180TIP3    H127483   1.954   0.313   1.290
 9180TIP3    H227484   2.092   0.371   1.272
 9181TIP3   OH227485   6.086   0.522   2.634
 9181TIP3    H127486   6.017   0.528   2.568
 9181TIP3    H227487   6.143   0.452   2.603
 9182TIP3   OH227488   5.312   3.883   4.082
 9182TIP3    H127489   5.339   3.891   4.173
 9182TIP3    H227490   5.284   3.792   4.072
 9183TIP3   OH227491   5.010   4.265   2.224
 9183TIP3    H127492   5.043   4.211   2.296
 9183TIP3    H227493   5.073   4.253   2.154
 9184TIP3   OH227494   2.641   0.136   3.466
 9184TIP3    H127495   2.621   0.227   3.447
 9184TIP3    H227496   2.589   0.114   3.542
 9185TIP3   OH227497   5.626   1.749   5.272
 9185TIP3    H127498   5.682   1.689   5.322
 9185TIP3    H227499   5.655   1.836   5.296
 9186TIP3   OH227500   1.630   7.405   1.634
 9186TIP3    H127501   1.690   7.388   1.706
 9186TIP3    H227502   1.659   7.346   1.564
 9187TIP3   OH227503   4.487   0.337   4.173
 9187TIP3    H127504   4.446   0.253   4.157
 9187TIP3    H227505   4.418   0.391   4.212
 9188TIP3   OH227506   2.937   3.464   0.525
 9188TIP3    H127507   3.028   3.493   0.524
 9188TIP3    H227508   2.891   3.528   0.471
 9189TIP3   OH227509   5.819   2.689   6.457
 9189TIP3    H127510   5.804   2.624   6.525
 9189TIP3    H227511   5.913   2.686   6.441
 9190TIP3   OH227512   3.115   4.724   6.437
 9190TIP3    H127513   3.041   4.744   6.496
 9190TIP3    H227514   3.192   4.752   6.487
 9191TIP3   OH227515   4.913   7.603   0.075
 9191TIP3    H127516   4.876   7.520   0.105
 9191TIP3    H227517   4.995   7.579   0.032
 9192TIP3   OH227518   2.518   3.804   3.735
 9192TIP3    H127519   2.596   3.754   3.711
 9192TIP3    H227520   2.549   3.867   3.800
 9193TIP3   OH227521   5.556   2.730   2.128
 9193TIP3    H127522   5.582   2.644   2.160
 9193TIP3    H227523   5.517   2.773   2.205
 9194TIP3   OH227524   4.766   2.554   0.075
 9194TIP3    H127525   4.818   2.570   0.154
 9194TIP3    H227526   4.767   2.638   0.029
 9195TIP3   OH227527   3.533   2.160   5.753
 9195TIP3    H127528   3.507   2.077   5.713
 9195TIP3    H227529   3.452   2.211   5.755
 9196TIP3   OH227530   6.860   7.697   2.608
 9196TIP3    H127531   6.913   7.744   2.672
 9196TIP3    H227532   6.906   7.615   2.594
 9197TIP3   OH227533   4.692   4.618   1.831
 9197TIP3    H127534   4.612   4.582   1.871
 9197TIP3    H227535   4.752   4.544   1.828
 9198TIP3   OH227536   1.607   5.344   3.434
 9198TIP3    H127537   1.576   5.388   3.355
 9198TIP3    H227538   1.669   5.405   3.473
 9199TIP3   OH227539   4.439   1.260   3.009
 9199TIP3    H127540   4.346   1.236   3.003
 9199TIP3    H227541   4.462   1.242   3.100
 9200TIP3   OH227542   1.552   0.093   4.844
 9200TIP3    H127543   1.646   0.104   4.860
 9200TIP3    H227544   1.539   0.120   4.753
 9201TIP3   OH227545   3.108   5.861   1.422
 9201TIP3    H127546   3.067   5.907   1.495
 9201TIP3    H227547   3.194   5.902   1.414
 9202TIP3   OH227548   0.593   3.959   3.220
 9202TIP3    H127549   0.519   3.924   3.270
 9202TIP3    H227550   0.623   4.034   3.272
 9203TIP3   OH227551   2.031   0.472   4.707
 9203TIP3    H127552   2.112   0.455   4.755
 9203TIP3    H227553   1.995   0.385   4.689
 9204TIP3   OH227554   0.406   6.120   0.394
 9204TIP3    H127555   0.424   6.147   0.484
 9204TIP3    H227556   0.481   6.065   0.371
 9205TIP3   OH227557   1.590   2.229   6.142
 9205TIP3    H127558   1.510   2.188   6.175
 9205TIP3    H227559   1.629   2.163   6.085
 9206TIP3   OH227560   8.007   1.403   0.217
 9206TIP3    H127561   7.947   1.411   0.144
 9206TIP3    H227562   8.059   1.484   0.215
 9207TIP3   OH227563   1.580   1.951   3.303
 9207TIP3    H127564   1.670   1.922   3.313
 9207TIP3    H227565   1.576   1.991   3.216
 9208TIP3   OH227566   1.423   5.979   3.506
 9208TIP3    H127567   1.418   6.006   3.415
 9208TIP3    H227568   1.412   5.884   3.503
 9209TIP3   OH227569   3.676   7.278   6.570
 9209TIP3    H127570   3.601   7.321   6.612
 9209TIP3    H227571   3.667   7.298   6.477
 9210TIP3   OH227572   6.211   3.212   2.258
 9210TIP3    H127573   6.199   3.188   2.350
 9210TIP3    H227574   6.123   3.230   2.226
 9211TIP3   OH227575   5.492   7.741   2.286
 9211TIP3    H127576   5.414   7.792   2.264
 9211TIP3    H227577   5.496   7.743   2.381
 9212TIP3   OH227578   4.608   0.293   3.051
 9212TIP3    H127579   4.591   0.273   3.143
 9212TIP3    H227580   4.703   0.281   3.041
 9213TIP3   OH227581   5.623   2.565   0.212
 9213TIP3    H127582   5.544   2.546   0.263
 9213TIP3    H227583   5.695   2.526   0.261
 9214TIP3   OH227584   4.472   6.763   3.912
 9214TIP3    H127585   4.539   6.789   3.849
 9214TIP3    H227586   4.428   6.844   3.935
 9215TIP3   OH227587   8.041   2.141   1.640
 9215TIP3    H127588   8.013   2.208   1.578
 9215TIP3    H227589   7.986   2.065   1.620
 9216TIP3   OH227590   6.332   4.368   2.643
 9216TIP3    H127591   6.260   4.398   2.699
 9216TIP3    H227592   6.295   4.365   2.555
 9217TIP3   OH227593   4.755   7.616   5.529
 9217TIP3    H127594   4.663   7.619   5.503
 9217TIP3    H227595   4.769   7.527   5.560
 9218TIP3   OH227596   0.072   2.686   1.683
 9218TIP3    H127597   0.115   2.600   1.678
 9218TIP3    H227598   0.002   2.681   1.617
 9219TIP3   OH227599   2.096   6.206   3.202
 9219TIP3    H127600   2.086   6.299   3.219
 9219TIP3    H227601   2.032   6.187   3.134
 9220TIP3   OH227602   0.090   0.355   5.877
 9220TIP3    H127603   0.160   0.298   5.910
 9220TIP3    H227604   0.116   0.443   5.904
 9221TIP3   OH227605   1.987   2.076   3.073
 9221TIP3    H127606   1.940   2.114   3.146
 9221TIP3    H227607   1.919   2.048   3.012
 9222TIP3   OH227608   7.078   1.685   6.087
 9222TIP3    H127609   7.069   1.685   6.183
 9222TIP3    H227610   7.081   1.593   6.063
 9223TIP3   OH227611   4.246   2.758   5.682
 9223TIP3    H127612   4.192   2.687   5.646
 9223TIP3    H227613   4.270   2.810   5.605
 9224TIP3   OH227614   8.046   3.461   1.194
 9224TIP3    H127615   8.030   3.377   1.149
 9224TIP3    H227616   8.135   3.485   1.169
 9225TIP3   OH227617   4.849   1.312   6.533
 9225TIP3    H127618   4.866   1.252   6.461
 9225TIP3    H227619   4.755   1.329   6.528
 9226TIP3   OH227620   1.798   1.371   6.176
 9226TIP3    H127621   1.860   1.299   6.184
 9226TIP3    H227622   1.744   1.366   6.255
 9227TIP3   OH227623   0.845   1.484   3.182
 9227TIP3    H127624   0.867   1.393   3.201
 9227TIP3    H227625   0.775   1.505   3.244
 9228TIP3   OH227626   3.433   5.333   3.411
 9228TIP3    H127627   3.357   5.381   3.445
 9228TIP3    H227628   3.397   5.277   3.342
 9229TIP3   OH227629   7.362   4.046   1.115
 9229TIP3    H127630   7.271   4.026   1.098
 9229TIP3    H227631   7.408   3.963   1.102
 9230TIP3   OH227632   2.502   3.098   5.689
 9230TIP3    H127633   2.580   3.069   5.641
 9230TIP3    H227634   2.455   3.017   5.709
 9231TIP3   OH227635   4.239   2.273   0.740
 9231TIP3    H127636   4.162   2.315   0.778
 9231TIP3    H227637   4.295   2.251   0.815
 9232TIP3   OH227638   4.033   0.430   5.292
 9232TIP3    H127639   3.972   0.501   5.271
 9232TIP3    H227640   4.066   0.452   5.380
 9233TIP3   OH227641   6.917   1.895   0.130
 9233TIP3    H127642   6.939   1.971   0.185
 9233TIP3    H227643   6.828   1.872   0.155
 9234TIP3   OH227644   0.783   6.589   1.329
 9234TIP3    H127645   0.841   6.543   1.269
 9234TIP3    H227646   0.712   6.621   1.274
 9235TIP3   OH227647   4.054   0.578   0.599
 9235TIP3    H127648   4.075   0.573   0.692
 9235TIP3    H227649   4.126   0.532   0.556
 9236TIP3   OH227650   6.612   6.803   1.295
 9236TIP3    H127651   6.661   6.742   1.351
 9236TIP3    H227652   6.551   6.747   1.247
 9237TIP3   OH227653   5.928   3.187   0.398
 9237TIP3    H127654   5.953   3.104   0.439
 9237TIP3    H227655   5.863   3.225   0.457
 9238TIP3   OH227656   7.076   7.676   1.530
 9238TIP3    H127657   7.135   7.738   1.572
 9238TIP3    H227658   7.009   7.731   1.490
 9239TIP3   OH227659   1.095   6.017   0.909
 9239TIP3    H127660   1.172   6.012   0.966
 9239TIP3    H227661   1.090   6.109   0.882
 9240TIP3   OH227662   7.623   2.811   5.909
 9240TIP3    H127663   7.643   2.897   5.872
 9240TIP3    H227664   7.551   2.826   5.969
 9241TIP3   OH227665   1.536   1.593   2.592
 9241TIP3    H127666   1.514   1.600   2.499
 9241TIP3    H227667   1.501   1.508   2.619
 9242TIP3   OH227668   0.339   7.637  -0.044
 9242TIP3    H127669   0.387   7.561  -0.012
 9242TIP3    H227670   0.250   7.624  -0.011
 9243TIP3   OH227671   4.450   0.529   2.319
 9243TIP3    H127672   4.545   0.537   2.323
 9243TIP3    H227673   4.432   0.438   2.343
 9244TIP3   OH227674   2.556   6.311   0.665
 9244TIP3    H127675   2.487   6.378   0.662
 9244TIP3    H227676   2.549   6.265   0.582
 9245TIP3   OH227677   7.917   4.753   6.089
 9245TIP3    H127678   7.912   4.673   6.142
 9245TIP3    H227679   7.828   4.765   6.056
 9246TIP3   OH227680   3.808   5.028   2.688
 9246TIP3    H127681   3.784   5.113   2.651
 9246TIP3    H227682   3.903   5.033   2.699
 9247TIP3   OH227683   7.667   1.721   0.994
 9247TIP3    H127684   7.698   1.674   0.916
 9247TIP3    H227685   7.571   1.714   0.990
 9248TIP3   OH227686   8.177   1.445   5.251
 9248TIP3    H127687   8.151   1.362   5.211
 9248TIP3    H227688   8.221   1.420   5.332
 9249TIP3   OH227689   6.675   0.694   3.748
 9249TIP3    H127690   6.610   0.726   3.685
 9249TIP3    H227691   6.650   0.735   3.831
 9250TIP3   OH227692   3.564   7.439   2.790
 9250TIP3    H127693   3.595   7.361   2.837
 9250TIP3    H227694   3.469   7.436   2.798
 9251TIP3   OH227695   5.551   5.646   6.194
 9251TIP3    H127696   5.476   5.660   6.252
 9251TIP3    H227697   5.547   5.718   6.131
 9252TIP3   OH227698   0.660   2.649   4.631
 9252TIP3    H127699   0.582   2.623   4.680
 9252TIP3    H227700   0.725   2.668   4.698
 9253TIP3   OH227701   6.482   4.622   4.522
 9253TIP3    H127702   6.409   4.680   4.502
 9253TIP3    H227703   6.522   4.659   4.600
 9254TIP3   OH227704   5.398   7.158   2.170
 9254TIP3    H127705   5.397   7.234   2.227
 9254TIP3    H227706   5.329   7.102   2.204
 9255TIP3   OH227707   8.093   2.213   2.644
 9255TIP3    H127708   8.177   2.241   2.681
 9255TIP3    H227709   8.050   2.294   2.617
 9256TIP3   OH227710   3.934   1.258   2.799
 9256TIP3    H127711   3.913   1.312   2.723
 9256TIP3    H227712   3.860   1.271   2.859
 9257TIP3   OH227713   0.780   5.495   1.580
 9257TIP3    H127714   0.870   5.526   1.587
 9257TIP3    H227715   0.788   5.400   1.572
 9258TIP3   OH227716   4.893   4.185   5.707
 9258TIP3    H127717   4.833   4.162   5.636
 9258TIP3    H227718   4.962   4.236   5.664
 9259TIP3   OH227719   7.986   2.685   5.091
 9259TIP3    H127720   7.977   2.768   5.044
 9259TIP3    H227721   7.958   2.618   5.027
 9260TIP3   OH227722   3.892   5.174   4.800
 9260TIP3    H127723   3.858   5.248   4.850
 9260TIP3    H227724   3.829   5.103   4.816
 9261TIP3   OH227725   0.170   6.131   2.957
 9261TIP3    H127726   0.164   6.225   2.942
 9261TIP3    H227727   0.245   6.103   2.905
 9262TIP3   OH227728   2.415   2.556   0.481
 9262TIP3    H127729   2.505   2.572   0.511
 9262TIP3    H227730   2.416   2.465   0.451
 9263TIP3   OH227731   3.313   2.821   4.898
 9263TIP3    H127732   3.304   2.853   4.809
 9263TIP3    H227733   3.326   2.726   4.888
 9264TIP3   OH227734   1.303   1.235   3.231
 9264TIP3    H127735   1.240   1.281   3.286
 9264TIP3    H227736   1.369   1.301   3.210
 9265TIP3   OH227737   4.388   0.147   4.753
 9265TIP3    H127738   4.338   0.155   4.834
 9265TIP3    H227739   4.357   0.066   4.713
 9266TIP3   OH227740   4.505   1.384   1.060
 9266TIP3    H127741   4.573   1.451   1.056
 9266TIP3    H227742   4.430   1.423   1.014
 9267TIP3   OH227743   2.514   2.211   6.099
 9267TIP3    H127744   2.444   2.275   6.116
 9267TIP3    H227745   2.584   2.236   6.159
 9268TIP3   OH227746   1.570   3.087   4.125
 9268TIP3    H127747   1.508   3.130   4.067
 9268TIP3    H227748   1.604   3.157   4.181
 9269TIP3   OH227749   7.920   2.027   6.135
 9269TIP3    H127750   8.001   1.999   6.177
 9269TIP3    H227751   7.867   1.947   6.129
 9270TIP3   OH227752   2.662   7.345   2.257
 9270TIP3    H127753   2.666   7.288   2.180
 9270TIP3    H227754   2.739   7.402   2.249
 9271TIP3   OH227755   0.196   7.170   2.830
 9271TIP3    H127756   0.179   7.253   2.785
 9271TIP3    H227757   0.247   7.119   2.767
 9272TIP3   OH227758   4.627   3.064   3.161
 9272TIP3    H127759   4.704   3.051   3.216
 9272TIP3    H227760   4.581   3.138   3.201
 9273TIP3   OH227761   6.912   3.397   2.468
 9273TIP3    H127762   7.001   3.389   2.502
 9273TIP3    H227763   6.904   3.327   2.404
 9274TIP3   OH227764   7.069   4.908   3.520
 9274TIP3    H127765   7.104   4.836   3.573
 9274TIP3    H227766   6.983   4.876   3.492
 9275TIP3   OH227767   0.640   1.082   6.128
 9275TIP3    H127768   0.558   1.044   6.158
 9275TIP3    H227769   0.676   1.125   6.205
 9276TIP3   OH227770   4.052   2.680   2.469
 9276TIP3    H127771   4.041   2.756   2.412
 9276TIP3    H227772   3.964   2.663   2.503
 9277TIP3   OH227773   0.570   2.579   5.438
 9277TIP3    H127774   0.606   2.663   5.408
 9277TIP3    H227775   0.625   2.513   5.397
 9278TIP3   OH227776   0.580   0.077   5.074
 9278TIP3    H127777   0.665   0.120   5.060
 9278TIP3    H227778   0.554   0.046   4.987
 9279TIP3   OH227779   3.217   4.880   0.142
 9279TIP3    H127780   3.252   4.963   0.110
 9279TIP3    H227781   3.159   4.850   0.071
 9280TIP3   OH227782   1.133   0.747   2.336
 9280TIP3    H127783   1.058   0.743   2.276
 9280TIP3    H227784   1.205   0.708   2.286
 9281TIP3   OH227785   2.683   5.875   3.605
 9281TIP3    H127786   2.706   5.824   3.527
 9281TIP3    H227787   2.668   5.809   3.673
 9282TIP3   OH227788   7.381   1.603   6.251
 9282TIP3    H127789   7.370   1.549   6.329
 9282TIP3    H227790   7.353   1.546   6.179
 9283TIP3   OH227791   6.327   3.210   6.528
 9283TIP3    H127792   6.396   3.155   6.489
 9283TIP3    H227793   6.345   3.298   6.496
 9284TIP3   OH227794   3.854   6.177   2.595
 9284TIP3    H127795   3.930   6.235   2.604
 9284TIP3    H227796   3.871   6.106   2.656
 9285TIP3   OH227797   2.326   6.127   1.598
 9285TIP3    H127798   2.269   6.181   1.654
 9285TIP3    H227799   2.409   6.123   1.646
 9286TIP3   OH227800   0.754   6.403   2.094
 9286TIP3    H127801   0.665   6.435   2.077
 9286TIP3    H227802   0.740   6.317   2.134
 9287TIP3   OH227803   2.274   7.479   4.886
 9287TIP3    H127804   2.285   7.552   4.947
 9287TIP3    H227805   2.326   7.503   4.810
 9288TIP3   OH227806   7.060   7.087   5.931
 9288TIP3    H127807   7.056   7.063   6.024
 9288TIP3    H227808   7.000   7.160   5.922
 9289TIP3   OH227809   0.442   6.900   2.861
 9289TIP3    H127810   0.429   6.952   2.782
 9289TIP3    H227811   0.474   6.962   2.926
 9290TIP3   OH227812   1.221   7.313   5.526
 9290TIP3    H127813   1.150   7.288   5.467
 9290TIP3    H227814   1.216   7.250   5.598
 9291TIP3   OH227815   5.929   2.364   1.345
 9291TIP3    H127816   5.991   2.422   1.389
 9291TIP3    H227817   5.854   2.419   1.325
 9292TIP3   OH227818   7.310   0.563   4.524
 9292TIP3    H127819   7.238   0.510   4.491
 9292TIP3    H227820   7.372   0.568   4.451
 9293TIP3   OH227821   7.402   6.628   6.100
 9293TIP3    H127822   7.436   6.616   6.189
 9293TIP3    H227823   7.424   6.718   6.078
 9294TIP3   OH227824   5.985   2.425   3.580
 9294TIP3    H127825   5.943   2.340   3.594
 9294TIP3    H227826   6.010   2.425   3.488
 9295TIP3   OH227827   1.484   0.458   1.145
 9295TIP3    H127828   1.400   0.461   1.098
 9295TIP3    H227829   1.472   0.389   1.210
 9296TIP3   OH227830   6.365   5.213   2.131
 9296TIP3    H127831   6.453   5.202   2.094
 9296TIP3    H227832   6.342   5.126   2.163
 9297TIP3   OH227833   1.981   0.788   5.137
 9297TIP3    H127834   1.897   0.744   5.150
 9297TIP3    H227835   1.972   0.871   5.184
 9298TIP3   OH227836   2.254   1.860   1.784
 9298TIP3    H127837   2.287   1.822   1.703
 9298TIP3    H227838   2.333   1.885   1.833
 9299TIP3   OH227839   0.250   7.423   3.749
 9299TIP3    H127840   0.246   7.498   3.809
 9299TIP3    H227841   0.158   7.400   3.734
 9300TIP3   OH227842   3.175   6.580   4.887
 9300TIP3    H127843   3.116   6.652   4.910
 9300TIP3    H227844   3.245   6.584   4.952
 9301TIP3   OH227845   0.937   6.377   0.640
 9301TIP3    H127846   0.868   6.441   0.623
 9301TIP3    H227847   0.890   6.294   0.648
 9302TIP3   OH227848   1.348   5.658   2.298
 9302TIP3    H127849   1.267   5.617   2.268
 9302TIP3    H227850   1.319   5.733   2.350
 9303TIP3   OH227851   6.464   1.817   3.569
 9303TIP3    H127852   6.445   1.789   3.659
 9303TIP3    H227853   6.453   1.737   3.517
 9304TIP3   OH227854   7.838   3.845   0.566
 9304TIP3    H127855   7.884   3.834   0.483
 9304TIP3    H227856   7.888   3.911   0.614
 9305TIP3   OH227857   1.952   2.993   6.722
 9305TIP3    H127858   2.001   3.074   6.706
 9305TIP3    H227859   1.992   2.928   6.665
 9306TIP3   OH227860   3.830   6.978   1.731
 9306TIP3    H127861   3.881   6.995   1.652
 9306TIP3    H227862   3.865   7.039   1.796
 9307TIP3   OH227863   1.464   1.671   0.910
 9307TIP3    H127864   1.386   1.722   0.933
 9307TIP3    H227865   1.430   1.586   0.883
 9308TIP3   OH227866   2.030   7.623   3.275
 9308TIP3    H127867   2.102   7.625   3.338
 9308TIP3    H227868   1.953   7.647   3.326
 9309TIP3   OH227869   3.052   3.453   4.885
 9309TIP3    H127870   3.129   3.430   4.832
 9309TIP3    H227871   3.064   3.404   4.966
 9310TIP3   OH227872   7.585   4.754   3.401
 9310TIP3    H127873   7.514   4.769   3.464
 9310TIP3    H227874   7.608   4.662   3.413
 9311TIP3   OH227875   2.370   3.629   0.861
 9311TIP3    H127876   2.465   3.629   0.877
 9311TIP3    H227877   2.337   3.557   0.915
 9312TIP3   OH227878   1.724   0.733   3.427
 9312TIP3    H127879   1.717   0.643   3.459
 9312TIP3    H227880   1.653   0.779   3.470
 9313TIP3   OH227881   6.532   4.412   0.176
 9313TIP3    H127882   6.482   4.410   0.257
 9313TIP3    H227883   6.539   4.321   0.149
 9314TIP3   OH227884   7.139   2.390   0.067
 9314TIP3    H127885   7.176   2.358   0.149
 9314TIP3    H227886   7.185   2.472   0.050
 9315TIP3   OH227887   3.394   7.196   5.464
 9315TIP3    H127888   3.349   7.128   5.414
 9315TIP3    H227889   3.443   7.148   5.530
 9316TIP3   OH227890   4.241   7.077   1.037
 9316TIP3    H127891   4.229   6.991   0.999
 9316TIP3    H227892   4.305   7.121   0.980
 9317TIP3   OH227893   4.279   4.635   4.779
 9317TIP3    H127894   4.359   4.643   4.831
 9317TIP3    H227895   4.221   4.704   4.814
 9318TIP3   OH227896   0.378   3.617   2.376
 9318TIP3    H127897   0.444   3.672   2.419
 9318TIP3    H227898   0.302   3.622   2.434
 9319TIP3   OH227899   0.348   3.433   5.065
 9319TIP3    H127900   0.327   3.341   5.082
 9319TIP3    H227901   0.439   3.442   5.095
 9320TIP3   OH227902   0.826   1.303   4.233
 9320TIP3    H127903   0.829   1.354   4.314
 9320TIP3    H227904   0.770   1.355   4.175
 9321TIP3   OH227905   5.422   3.876   4.719
 9321TIP3    H127906   5.333   3.889   4.751
 9321TIP3    H227907   5.464   3.961   4.728
 9322TIP3   OH227908   2.910   5.515   3.409
 9322TIP3    H127909   2.885   5.452   3.476
 9322TIP3    H227910   2.842   5.508   3.342
 9323TIP3   OH227911   6.056   0.993   3.544
 9323TIP3    H127912   6.006   1.022   3.468
 9323TIP3    H227913   6.145   0.982   3.511
 9324TIP3   OH227914   7.407   2.170   5.446
 9324TIP3    H127915   7.427   2.193   5.536
 9324TIP3    H227916   7.315   2.143   5.447
 9325TIP3   OH227917   7.506   3.257   3.797
 9325TIP3    H127918   7.516   3.169   3.762
 9325TIP3    H227919   7.436   3.296   3.745
 9326TIP3   OH227920   5.566   2.817   5.182
 9326TIP3    H127921   5.473   2.836   5.167
 9326TIP3    H227922   5.567   2.729   5.218
 9327TIP3   OH227923   4.183   2.659   1.082
 9327TIP3    H127924   4.268   2.648   1.127
 9327TIP3    H227925   4.119   2.661   1.153
 9328TIP3   OH227926   5.911   1.261   2.191
 9328TIP3    H127927   5.886   1.198   2.258
 9328TIP3    H227928   5.848   1.247   2.120
 9329TIP3   OH227929   1.313   5.886   0.517
 9329TIP3    H127930   1.360   5.804   0.506
 9329TIP3    H227931   1.245   5.866   0.582
 9330TIP3   OH227932   7.265   4.085   5.968
 9330TIP3    H127933   7.178   4.111   5.937
 9330TIP3    H227934   7.252   4.058   6.058
 9331TIP3   OH227935   4.373   1.932   6.339
 9331TIP3    H127936   4.281   1.949   6.361
 9331TIP3    H227937   4.392   1.991   6.266
 9332TIP3   OH227938   8.276   5.761   2.964
 9332TIP3    H127939   8.237   5.842   2.931
 9332TIP3    H227940   8.208   5.722   3.019
 9333TIP3   OH227941   1.416   1.410   5.927
 9333TIP3    H127942   1.460   1.473   5.870
 9333TIP3    H227943   1.325   1.439   5.930
 9334TIP3   OH227944   1.907   7.704   0.937
 9334TIP3    H127945   1.817   7.674   0.950
 9334TIP3    H227946   1.944   7.707   1.025
 9335TIP3   OH227947   3.253   6.557   5.668
 9335TIP3    H127948   3.236   6.514   5.585
 9335TIP3    H227949   3.199   6.509   5.731
 9336TIP3   OH227950   2.194   1.002   0.569
 9336TIP3    H127951   2.235   0.975   0.486
 9336TIP3    H227952   2.111   0.956   0.570
 9337TIP3   OH227953   4.453   4.175   2.756
 9337TIP3    H127954   4.379   4.190   2.815
 9337TIP3    H227955   4.530   4.185   2.812
 9338TIP3   OH227956   0.611   4.395   5.590
 9338TIP3    H127957   0.699   4.405   5.554
 9338TIP3    H227958   0.571   4.481   5.580
 9339TIP3   OH227959   8.030   7.506   0.379
 9339TIP3    H127960   8.065   7.543   0.461
 9339TIP3    H227961   8.093   7.438   0.355
 9340TIP3   OH227962   1.578   3.397   0.747
 9340TIP3    H127963   1.552   3.473   0.800
 9340TIP3    H227964   1.668   3.378   0.775
 9341TIP3   OH227965   2.686   7.778   4.195
 9341TIP3    H127966   2.728   7.861   4.172
 9341TIP3    H227967   2.606   7.802   4.241
 9342TIP3   OH227968   7.866   2.862   3.202
 9342TIP3    H127969   7.905   2.935   3.250
 9342TIP3    H227970   7.827   2.807   3.270
 9343TIP3   OH227971   2.480   6.433   4.946
 9343TIP3    H127972   2.417   6.402   4.881
 9343TIP3    H227973   2.560   6.384   4.926
 9344TIP3   OH227974   6.835   1.523   6.516
 9344TIP3    H127975   6.914   1.553   6.560
 9344TIP3    H227976   6.766   1.534   6.582
 9345TIP3   OH227977   6.776   1.015   1.921
 9345TIP3    H127978   6.831   1.000   1.997
 9345TIP3    H227979   6.707   0.950   1.927
 9346TIP3   OH227980   3.254   4.132   5.313
 9346TIP3    H127981   3.161   4.144   5.294
 9346TIP3    H227982   3.258   4.052   5.365
 9347TIP3   OH227983   7.451   1.585   3.671
 9347TIP3    H127984   7.453   1.588   3.766
 9347TIP3    H227985   7.481   1.497   3.649
 9348TIP3   OH227986   0.311   6.643   4.038
 9348TIP3    H127987   0.352   6.633   4.124
 9348TIP3    H227988   0.382   6.626   3.975
 9349TIP3   OH227989   1.911   2.400   2.647
 9349TIP3    H127990   1.935   2.408   2.739
 9349TIP3    H227991   1.934   2.310   2.624
 9350TIP3   OH227992   7.375   7.514   2.483
 9350TIP3    H127993   7.405   7.438   2.534
 9350TIP3    H227994   7.280   7.504   2.479
 9351TIP3   OH227995   2.427   7.436   3.370
 9351TIP3    H127996   2.469   7.421   3.455
 9351TIP3    H227997   2.341   7.395   3.377
 9352TIP3   OH227998   1.388   4.016   6.548
 9352TIP3    H127999   1.474   4.057   6.552
 9352TIP3    H228000   1.406   3.923   6.536
 9353TIP3   OH228001   0.777   3.254   4.520
 9353TIP3    H128002   0.759   3.167   4.555
 9353TIP3    H228003   0.693   3.301   4.528
 9354TIP3   OH228004   7.874   2.178   6.479
 9354TIP3    H128005   7.791   2.145   6.512
 9354TIP3    H228006   7.909   2.233   6.550
 9355TIP3   OH228007   7.095   7.208   3.042
 9355TIP3    H128008   7.090   7.229   3.135
 9355TIP3    H228009   7.188   7.194   3.025
 9356TIP3   OH228010   0.004   7.354   3.662
 9356TIP3    H128011  -0.029   7.278   3.614
 9356TIP3    H228012   0.005   7.425   3.597
 9357TIP3   OH228013   1.366   3.645   2.086
 9357TIP3    H128014   1.398   3.725   2.128
 9357TIP3    H228015   1.284   3.626   2.131
 9358TIP3   OH228016   1.192   1.185   2.274
 9358TIP3    H128017   1.189   1.127   2.350
 9358TIP3    H228018   1.114   1.239   2.281
 9359TIP3   OH228019   0.441   5.309   5.169
 9359TIP3    H128020   0.475   5.314   5.258
 9359TIP3    H228021   0.350   5.278   5.180
 9360TIP3   OH228022   4.618   0.774   2.362
 9360TIP3    H128023   4.541   0.774   2.419
 9360TIP3    H228024   4.634   0.867   2.345
 9361TIP3   OH228025   6.302   0.571   0.445
 9361TIP3    H128026   6.260   0.599   0.527
 9361TIP3    H228027   6.261   0.626   0.378
 9362TIP3   OH228028   3.682   3.396   0.233
 9362TIP3    H128029   3.721   3.458   0.171
 9362TIP3    H228030   3.705   3.310   0.197
 9363TIP3   OH228031   2.641   6.669   6.365
 9363TIP3    H128032   2.595   6.698   6.444
 9363TIP3    H228033   2.733   6.687   6.383
 9364TIP3   OH228034   2.298   2.286   3.795
 9364TIP3    H128035   2.276   2.379   3.798
 9364TIP3    H228036   2.354   2.277   3.717
 9365TIP3   OH228037   6.497   2.665   4.894
 9365TIP3    H128038   6.514   2.734   4.958
 9365TIP3    H228039   6.584   2.628   4.875
 9366TIP3   OH228040   4.438   4.755   2.834
 9366TIP3    H128041   4.367   4.774   2.895
 9366TIP3    H228042   4.513   4.804   2.868
 9367TIP3   OH228043   5.920   3.037   1.436
 9367TIP3    H128044   5.909   2.953   1.480
 9367TIP3    H228045   5.878   3.100   1.494
 9368TIP3   OH228046   4.348   2.484   0.175
 9368TIP3    H128047   4.400   2.430   0.115
 9368TIP3    H228048   4.391   2.570   0.173
 9369TIP3   OH228049   0.966   0.696   0.265
 9369TIP3    H128050   0.902   0.631   0.235
 9369TIP3    H228051   1.000   0.735   0.184
 9370TIP3   OH228052   2.664   4.721   4.974
 9370TIP3    H128053   2.732   4.765   5.026
 9370TIP3    H228054   2.668   4.630   5.003
 9371TIP3   OH228055   5.337   3.823   2.879
 9371TIP3    H128056   5.313   3.852   2.791
 9371TIP3    H228057   5.314   3.896   2.936
 9372TIP3   OH228058  -0.017   3.323   5.710
 9372TIP3    H128059  -0.075   3.255   5.675
 9372TIP3    H228060  -0.002   3.298   5.801
 9373TIP3   OH228061   1.713   6.583   4.281
 9373TIP3    H128062   1.785   6.521   4.285
 9373TIP3    H228063   1.686   6.581   4.189
 9374TIP3   OH228064   7.351   0.689   1.211
 9374TIP3    H128065   7.334   0.616   1.270
 9374TIP3    H228066   7.446   0.692   1.202
 9375TIP3   OH228067   6.560   5.385   3.916
 9375TIP3    H128068   6.650   5.352   3.904
 9375TIP3    H228069   6.542   5.371   4.009
 9376TIP3   OH228070   7.937   2.546   0.665
 9376TIP3    H128071   7.894   2.555   0.580
 9376TIP3    H228072   8.030   2.555   0.646
 9377TIP3   OH228073   1.898   1.510   6.654
 9377TIP3    H128074   1.972   1.485   6.710
 9377TIP3    H228075   1.892   1.440   6.589
 9378TIP3   OH228076   1.595   4.456   4.045
 9378TIP3    H128077   1.525   4.492   3.992
 9378TIP3    H228078   1.553   4.387   4.097
 9379TIP3   OH228079   7.089   4.143   1.903
 9379TIP3    H128080   7.128   4.169   1.987
 9379TIP3    H228081   7.016   4.087   1.928
 9380TIP3   OH228082   4.266   4.635   2.509
 9380TIP3    H128083   4.174   4.607   2.505
 9380TIP3    H228084   4.303   4.588   2.583
 9381TIP3   OH228085   6.544   1.226   0.054
 9381TIP3    H128086   6.610   1.243   0.121
 9381TIP3    H228087   6.462   1.221   0.102
 9382TIP3   OH228088   5.448   3.152   5.241
 9382TIP3    H128089   5.439   3.248   5.236
 9382TIP3    H228090   5.371   3.119   5.195
 9383TIP3   OH228091   7.463   2.522   5.815
 9383TIP3    H128092   7.455   2.520   5.720
 9383TIP3    H228093   7.417   2.602   5.842
 9384TIP3   OH228094   3.777   3.271   5.194
 9384TIP3    H128095   3.797   3.265   5.287
 9384TIP3    H228096   3.700   3.215   5.182
 9385TIP3   OH228097   4.115   7.476   3.625
 9385TIP3    H128098   4.028   7.455   3.661
 9385TIP3    H228099   4.141   7.398   3.577
 9386TIP3   OH228100   5.621   0.928   3.864
 9386TIP3    H128101   5.587   0.841   3.885
 9386TIP3    H228102   5.654   0.921   3.775
 9387TIP3   OH228103   0.045   4.234   3.122
 9387TIP3    H128104  -0.047   4.250   3.144
 9387TIP3    H228105   0.068   4.154   3.170
 9388TIP3   OH228106   0.053   4.754   6.155
 9388TIP3    H128107  -0.022   4.780   6.102
 9388TIP3    H228108   0.079   4.834   6.201
 9389TIP3   OH228109   8.235   1.007   2.292
 9389TIP3    H128110   8.185   1.015   2.374
 9389TIP3    H228111   8.280   0.922   2.299
 9390TIP3   OH228112   4.664   0.071   2.184
 9390TIP3    H128113   4.569   0.061   2.188
 9390TIP3    H228114   4.688   0.108   2.269
 9391TIP3   OH228115   3.356   1.849   4.775
 9391TIP3    H128116   3.408   1.891   4.844
 9391TIP3    H228117   3.378   1.757   4.780
 9392TIP3   OH228118   6.666   0.728   3.081
 9392TIP3    H128119   6.626   0.693   3.001
 9392TIP3    H228120   6.653   0.822   3.075
 9393TIP3   OH228121   6.097   2.828   0.198
 9393TIP3    H128122   6.185   2.792   0.189
 9393TIP3    H228123   6.048   2.792   0.124
 9394TIP3   OH228124   2.348   1.950   5.731
 9394TIP3    H128125   2.422   1.988   5.684
 9394TIP3    H228126   2.272   2.001   5.702
 9395TIP3   OH228127   7.561   5.727   4.920
 9395TIP3    H128128   7.531   5.814   4.948
 9395TIP3    H228129   7.632   5.706   4.981
 9396TIP3   OH228130   7.370   3.087   3.369
 9396TIP3    H128131   7.374   3.037   3.288
 9396TIP3    H228132   7.328   3.170   3.344
 9397TIP3   OH228133   4.498   6.723   4.190
 9397TIP3    H128134   4.464   6.812   4.179
 9397TIP3    H228135   4.470   6.677   4.111
 9398TIP3   OH228136   5.063   6.917   3.398
 9398TIP3    H128137   5.074   7.013   3.398
 9398TIP3    H228138   5.152   6.883   3.392
 9399TIP3   OH228139   5.556   3.768   5.637
 9399TIP3    H128140   5.550   3.691   5.581
 9399TIP3    H228141   5.611   3.742   5.710
 9400TIP3   OH228142   4.173   1.509   2.273
 9400TIP3    H128143   4.092   1.486   2.228
 9400TIP3    H228144   4.228   1.431   2.268
 9401TIP3   OH228145   3.008   6.245   1.429
 9401TIP3    H128146   2.999   6.199   1.345
 9401TIP3    H228147   3.046   6.179   1.488
 9402TIP3   OH228148   6.511   6.293   2.619
 9402TIP3    H128149   6.580   6.246   2.666
 9402TIP3    H228150   6.437   6.232   2.617
 9403TIP3   OH228151   3.725   4.939   3.260
 9403TIP3    H128152   3.669   4.917   3.334
 9403TIP3    H228153   3.726   4.859   3.207
 9404TIP3   OH228154   6.845   4.350   2.281
 9404TIP3    H128155   6.840   4.269   2.231
 9404TIP3    H228156   6.793   4.413   2.230
 9405TIP3   OH228157   6.593   3.372   1.112
 9405TIP3    H128158   6.523   3.312   1.084
 9405TIP3    H228159   6.587   3.446   1.052
 9406TIP3   OH228160   1.132   2.822   0.888
 9406TIP3    H128161   1.141   2.886   0.818
 9406TIP3    H228162   1.112   2.740   0.843
 9407TIP3   OH228163   1.403   2.175   4.064
 9407TIP3    H128164   1.341   2.143   3.998
 9407TIP3    H228165   1.455   2.099   4.087
 9408TIP3   OH228166   2.061   0.807   2.317
 9408TIP3    H128167   2.034   0.753   2.242
 9408TIP3    H228168   2.062   0.747   2.391
 9409TIP3   OH228169   5.957   4.952   2.767
 9409TIP3    H128170   5.978   4.884   2.831
 9409TIP3    H228171   5.985   5.033   2.808
 9410TIP3   OH228172   2.783   4.074   4.193
 9410TIP3    H128173   2.799   4.154   4.243
 9410TIP3    H228174   2.705   4.036   4.234
 9411TIP3   OH228175   4.705   1.358   6.147
 9411TIP3    H128176   4.777   1.361   6.084
 9411TIP3    H228177   4.724   1.429   6.209
 9412TIP3   OH228178   7.553   1.235   6.002
 9412TIP3    H128179   7.518   1.198   5.921
 9412TIP3    H228180   7.574   1.159   6.056
 9413TIP3   OH228181   0.794   3.121   2.835
 9413TIP3    H128182   0.849   3.141   2.911
 9413TIP3    H228183   0.827   3.037   2.803
 9414TIP3   OH228184   2.205   5.688   2.870
 9414TIP3    H128185   2.145   5.753   2.907
 9414TIP3    H228186   2.276   5.682   2.934
 9415TIP3   OH228187   7.978   6.565   1.106
 9415TIP3    H128188   7.955   6.610   1.188
 9415TIP3    H228189   7.983   6.472   1.129
 9416TIP3   OH228190   1.025   6.468   6.213
 9416TIP3    H128191   1.023   6.556   6.176
 9416TIP3    H228192   1.039   6.410   6.138
 9417TIP3   OH228193   0.981   5.710   2.683
 9417TIP3    H128194   1.063   5.664   2.670
 9417TIP3    H228195   0.968   5.759   2.601
 9418TIP3   OH228196   4.475   1.096   2.103
 9418TIP3    H128197   4.499   1.164   2.040
 9418TIP3    H228198   4.537   1.026   2.088
 9419TIP3   OH228199   1.342   4.059   2.001
 9419TIP3    H128200   1.430   4.023   2.005
 9419TIP3    H228201   1.325   4.091   2.090
 9420TIP3   OH228202   7.513   3.813   1.155
 9420TIP3    H128203   7.522   3.740   1.092
 9420TIP3    H228204   7.556   3.781   1.234
 9421TIP3   OH228205   5.304   7.219   1.923
 9421TIP3    H128206   5.225   7.168   1.943
 9421TIP3    H228207   5.354   7.219   2.004
 9422TIP3   OH228208   7.875   7.641   5.704
 9422TIP3    H128209   7.843   7.598   5.783
 9422TIP3    H228210   7.899   7.729   5.732
 9423TIP3   OH228211   4.087   3.140   3.277
 9423TIP3    H128212   4.139   3.074   3.324
 9423TIP3    H228213   4.002   3.098   3.263
 9424TIP3   OH228214   1.249   3.639   2.353
 9424TIP3    H128215   1.274   3.725   2.386
 9424TIP3    H228216   1.312   3.579   2.394
 9425TIP3   OH228217   1.106   0.342   1.732
 9425TIP3    H128218   1.175   0.277   1.737
 9425TIP3    H228219   1.152   0.425   1.721
 9426TIP3   OH228220   2.051   6.228   4.441
 9426TIP3    H128221   2.005   6.144   4.448
 9426TIP3    H228222   2.002   6.276   4.374
 9427TIP3   OH228223   1.068   3.675   2.151
 9427TIP3    H128224   1.041   3.589   2.120
 9427TIP3    H228225   1.122   3.657   2.228
 9428TIP3   OH228226   2.500   1.916   4.213
 9428TIP3    H128227   2.404   1.906   4.214
 9428TIP3    H228228   2.529   1.884   4.298
 9429TIP3   OH228229   2.151   3.092   5.952
 9429TIP3    H128230   2.199   3.078   6.033
 9429TIP3    H228231   2.116   3.005   5.929
 9430TIP3   OH228232   1.982   6.041   1.254
 9430TIP3    H128233   1.995   5.991   1.335
 9430TIP3    H228234   2.064   6.088   1.241
 9431TIP3   OH228235   1.366   0.455   1.782
 9431TIP3    H128236   1.386   0.549   1.778
 9431TIP3    H228237   1.426   0.415   1.719
 9432TIP3   OH228238   7.348   7.172   0.225
 9432TIP3    H128239   7.313   7.088   0.253
 9432TIP3    H228240   7.327   7.177   0.132
 9433TIP3   OH228241   0.301   6.800   5.545
 9433TIP3    H128242   0.297   6.716   5.591
 9433TIP3    H228243   0.289   6.778   5.453
 9434TIP3   OH228244   2.638   0.573   2.345
 9434TIP3    H128245   2.651   0.562   2.439
 9434TIP3    H228246   2.584   0.498   2.320
 9435TIP3   OH228247   6.537   7.409   2.333
 9435TIP3    H128248   6.498   7.439   2.415
 9435TIP3    H228249   6.477   7.340   2.302
 9436TIP3   OH228250   7.125   3.256   5.707
 9436TIP3    H128251   7.032   3.249   5.683
 9436TIP3    H228252   7.172   3.219   5.632
 9437TIP3   OH228253   0.931   2.483   5.916
 9437TIP3    H128254   0.993   2.543   5.875
 9437TIP3    H228255   0.860   2.475   5.852
 9438TIP3   OH228256   3.457   3.963   4.333
 9438TIP3    H128257   3.380   3.928   4.377
 9438TIP3    H228258   3.423   4.008   4.257
 9439TIP3   OH228259   2.168   3.900   2.996
 9439TIP3    H128260   2.140   3.924   2.907
 9439TIP3    H228261   2.199   3.983   3.033
 9440TIP3   OH228262   7.686   0.046   6.444
 9440TIP3    H128263   7.710  -0.046   6.441
 9440TIP3    H228264   7.590   0.046   6.448
 9441TIP3   OH228265   4.393   7.157   2.402
 9441TIP3    H128266   4.437   7.080   2.365
 9441TIP3    H228267   4.435   7.170   2.487
 9442TIP3   OH228268   7.640   2.301   4.982
 9442TIP3    H128269   7.574   2.288   5.049
 9442TIP3    H228270   7.622   2.234   4.916
 9443TIP3   OH228271   5.058   0.320   5.032
 9443TIP3    H128272   5.030   0.266   5.107
 9443TIP3    H228273   4.976   0.353   4.995
 9444TIP3   OH228274   5.455   1.375   5.702
 9444TIP3    H128275   5.388   1.438   5.728
 9444TIP3    H228276   5.447   1.303   5.765
 9445TIP3   OH228277   4.997   5.081   5.529
 9445TIP3    H128278   5.085   5.118   5.539
 9445TIP3    H228279   4.946   5.122   5.599
 9446TIP3   OH228280   8.274   0.380   6.327
 9446TIP3    H128281   8.308   0.328   6.400
 9446TIP3    H228282   8.201   0.429   6.364
 9447TIP3   OH228283   1.090   3.072   4.655
 9447TIP3    H128284   1.074   3.162   4.628
 9447TIP3    H228285   1.035   3.019   4.597
 9448TIP3   OH228286   6.439   2.248   6.240
 9448TIP3    H128287   6.404   2.244   6.151
 9448TIP3    H228288   6.384   2.313   6.285
 9449TIP3   OH228289   1.898   7.203   5.786
 9449TIP3    H128290   1.988   7.185   5.813
 9449TIP3    H228291   1.899   7.295   5.760
 9450TIP3   OH228292   0.925   3.965   5.641
 9450TIP3    H128293   0.915   4.056   5.613
 9450TIP3    H228294   0.837   3.928   5.637
 9451TIP3   OH228295   1.942   4.000   1.486
 9451TIP3    H128296   1.930   4.093   1.468
 9451TIP3    H228297   1.956   3.961   1.400
 9452TIP3   OH228298   1.615   5.014   0.815
 9452TIP3    H128299   1.705   5.014   0.848
 9452TIP3    H228300   1.574   4.938   0.857
 9453TIP3   OH228301   2.140   2.996   1.771
 9453TIP3    H128302   2.211   2.943   1.806
 9453TIP3    H228303   2.066   2.937   1.764
 9454TIP3   OH228304   3.205   7.170   4.825
 9454TIP3    H128305   3.301   7.172   4.835
 9454TIP3    H228306   3.173   7.133   4.907
 9455TIP3   OH228307   2.868   1.574   0.502
 9455TIP3    H128308   2.792   1.597   0.449
 9455TIP3    H228309   2.936   1.554   0.438
 9456TIP3   OH228310   6.830   3.588   4.497
 9456TIP3    H128311   6.740   3.620   4.496
 9456TIP3    H228312   6.884   3.666   4.482
 9457TIP3   OH228313   2.409   4.842   0.798
 9457TIP3    H128314   2.418   4.888   0.881
 9457TIP3    H228315   2.471   4.769   0.804
 9458TIP3   OH228316   2.772   6.069   4.707
 9458TIP3    H128317   2.729   6.139   4.756
 9458TIP3    H228318   2.720   5.991   4.727
 9459TIP3   OH228319   6.113   1.212   4.872
 9459TIP3    H128320   6.168   1.198   4.794
 9459TIP3    H228321   6.144   1.146   4.935
 9460TIP3   OH228322   6.313   3.304   1.988
 9460TIP3    H128323   6.315   3.265   2.076
 9460TIP3    H228324   6.329   3.397   2.003
 9461TIP3   OH228325   0.618   4.700   1.810
 9461TIP3    H128326   0.666   4.765   1.862
 9461TIP3    H228327   0.583   4.751   1.737
 9462TIP3   OH228328   2.726   2.386   3.603
 9462TIP3    H128329   2.689   2.464   3.645
 9462TIP3    H228330   2.807   2.370   3.652
 9463TIP3   OH228331   5.688   3.003   4.714
 9463TIP3    H128332   5.729   2.950   4.783
 9463TIP3    H228333   5.602   3.026   4.749
 9464TIP3   OH228334   7.429   5.077   2.036
 9464TIP3    H128335   7.397   5.167   2.038
 9464TIP3    H228336   7.351   5.024   2.021
 9465TIP3   OH228337   3.441   7.087   1.813
 9465TIP3    H128338   3.487   7.087   1.729
 9465TIP3    H228339   3.349   7.093   1.790
 9466TIP3   OH228340   5.265   5.134   0.170
 9466TIP3    H128341   5.215   5.153   0.091
 9466TIP3    H228342   5.313   5.214   0.189
 9467TIP3   OH228343   6.946   5.545   0.561
 9467TIP3    H128344   7.016   5.481   0.555
 9467TIP3    H228345   6.889   5.512   0.630
 9468TIP3   OH228346   1.473   0.101   6.090
 9468TIP3    H128347   1.490   0.189   6.125
 9468TIP3    H228348   1.558   0.058   6.090
 9469TIP3   OH228349   0.839   1.487   4.441
 9469TIP3    H128350   0.842   1.578   4.413
 9469TIP3    H228351   0.900   1.482   4.515
 9470TIP3   OH228352   2.128   1.443   4.699
 9470TIP3    H128353   2.109   1.508   4.768
 9470TIP3    H228354   2.069   1.467   4.628
 9471TIP3   OH228355   8.262   3.574   5.877
 9471TIP3    H128356   8.237   3.485   5.852
 9471TIP3    H228357   8.277   3.569   5.972
 9472TIP3   OH228358   1.927   6.352   4.028
 9472TIP3    H128359   1.987   6.278   4.015
 9472TIP3    H228360   1.966   6.423   3.977
 9473TIP3   OH228361   2.156   7.189   5.845
 9473TIP3    H128362   2.215   7.213   5.916
 9473TIP3    H228363   2.207   7.130   5.789
 9474TIP3   OH228364   3.048   4.129   5.895
 9474TIP3    H128365   3.041   4.150   5.802
 9474TIP3    H228366   3.138   4.154   5.918
 9475TIP3   OH228367   6.725   3.351   1.796
 9475TIP3    H128368   6.812   3.310   1.795
 9475TIP3    H228369   6.667   3.284   1.759
 9476TIP3   OH228370   7.212   7.351   6.531
 9476TIP3    H128371   7.244   7.441   6.539
 9476TIP3    H228372   7.152   7.340   6.605
 9477TIP3   OH228373   0.832   0.666   5.111
 9477TIP3    H128374   0.787   0.625   5.185
 9477TIP3    H228375   0.762   0.686   5.049
 9478TIP3   OH228376   7.698   5.998   4.269
 9478TIP3    H128377   7.765   6.005   4.201
 9478TIP3    H228378   7.684   5.904   4.279
 9479TIP3   OH228379   7.598   2.166   0.620
 9479TIP3    H128380   7.508   2.153   0.649
 9479TIP3    H228381   7.624   2.249   0.661
 9480TIP3   OH228382   7.644   4.987   3.257
 9480TIP3    H128383   7.620   4.934   3.333
 9480TIP3    H228384   7.575   4.969   3.193
 9481TIP3   OH228385   0.671   4.480   2.284
 9481TIP3    H128386   0.742   4.530   2.244
 9481TIP3    H228387   0.649   4.413   2.219
 9482TIP3   OH228388   5.633   3.144   2.128
 9482TIP3    H128389   5.666   3.054   2.138
 9482TIP3    H228390   5.667   3.172   2.043
 9483TIP3   OH228391   5.755   6.429   5.677
 9483TIP3    H128392   5.684   6.493   5.667
 9483TIP3    H228393   5.722   6.349   5.635
 9484TIP3   OH228394   1.752   7.449   0.711
 9484TIP3    H128395   1.671   7.486   0.745
 9484TIP3    H228396   1.811   7.524   0.703
 9485TIP3   OH228397   1.719   0.042   1.676
 9485TIP3    H128398   1.679   0.082   1.753
 9485TIP3    H228399   1.811   0.031   1.699
 9486TIP3   OH228400   6.117   3.904   1.663
 9486TIP3    H128401   6.131   3.962   1.588
 9486TIP3    H228402   6.100   3.818   1.625
 9487TIP3   OH228403   2.029   1.085   2.374
 9487TIP3    H128404   2.071   1.143   2.311
 9487TIP3    H228405   2.042   0.997   2.337
 9488TIP3   OH228406   2.132   4.746   3.046
 9488TIP3    H128407   2.188   4.789   3.110
 9488TIP3    H228408   2.192   4.701   2.986
 9489TIP3   OH228409   7.244   0.093   4.961
 9489TIP3    H128410   7.221   0.040   5.037
 9489TIP3    H228411   7.336   0.117   4.975
 9490TIP3   OH228412   0.509   7.302   4.651
 9490TIP3    H128413   0.536   7.279   4.740
 9490TIP3    H228414   0.559   7.382   4.632
 9491TIP3   OH228415   2.782   5.829   3.109
 9491TIP3    H128416   2.856   5.772   3.089
 9491TIP3    H228417   2.739   5.842   3.025
 9492TIP3   OH228418   7.188   5.129   0.990
 9492TIP3    H128419   7.163   5.126   0.898
 9492TIP3    H228420   7.277   5.094   0.992
 9493TIP3   OH228421   4.494   5.776   5.642
 9493TIP3    H128422   4.544   5.711   5.691
 9493TIP3    H228423   4.542   5.857   5.654
 9494TIP3   OH228424   5.097   6.465   5.747
 9494TIP3    H128425   5.121   6.498   5.834
 9494TIP3    H228426   5.013   6.421   5.760
 9495TIP3   OH228427   7.767   7.417   3.688
 9495TIP3    H128428   7.760   7.493   3.630
 9495TIP3    H228429   7.676   7.391   3.704
 9496TIP3   OH228430   8.121   1.409   4.817
 9496TIP3    H128431   8.214   1.429   4.821
 9496TIP3    H228432   8.114   1.342   4.749
 9497TIP3   OH228433   3.895   6.965   2.733
 9497TIP3    H128434   3.859   6.902   2.671
 9497TIP3    H228435   3.936   6.911   2.801
 9498TIP3   OH228436   8.026   2.941   4.663
 9498TIP3    H128437   7.971   2.990   4.601
 9498TIP3    H228438   8.091   3.005   4.692
 9499TIP3   OH228439   0.822   4.383   3.194
 9499TIP3    H128440   0.873   4.418   3.121
 9499TIP3    H228441   0.864   4.299   3.214
 9500TIP3   OH228442   6.828   4.095   3.903
 9500TIP3    H128443   6.835   4.154   3.828
 9500TIP3    H228444   6.907   4.112   3.954
 9501TIP3   OH228445   4.361   7.416   3.366
 9501TIP3    H128446   4.297   7.346   3.352
 9501TIP3    H228447   4.333   7.486   3.307
 9502TIP3   OH228448   5.813   0.566   2.477
 9502TIP3    H128449   5.757   0.632   2.519
 9502TIP3    H228450   5.827   0.599   2.389
 9503TIP3   OH228451   0.795   1.564   0.715
 9503TIP3    H128452   0.819   1.471   0.719
 9503TIP3    H228453   0.760   1.583   0.802
 9504TIP3   OH228454   7.999   2.614   6.523
 9504TIP3    H128455   7.936   2.564   6.471
 9504TIP3    H228456   8.045   2.549   6.575
 9505TIP3   OH228457   2.632   3.522   2.206
 9505TIP3    H128458   2.618   3.594   2.268
 9505TIP3    H228459   2.705   3.551   2.151
 9506TIP3   OH228460   5.808   2.452   6.624
 9506TIP3    H128461   5.903   2.447   6.638
 9506TIP3    H228462   5.779   2.361   6.625
 9507TIP3   OH228463   3.079   4.519   0.119
 9507TIP3    H128464   3.118   4.470   0.192
 9507TIP3    H228465   2.985   4.499   0.124
 9508TIP3   OH228466   5.199   5.739   6.435
 9508TIP3    H128467   5.224   5.655   6.396
 9508TIP3    H228468   5.129   5.771   6.380
 9509TIP3   OH228469   6.895   0.820   5.048
 9509TIP3    H128470   6.981   0.806   5.087
 9509TIP3    H228471   6.851   0.881   5.107
 9510TIP3   OH228472   7.372   2.297   5.954
 9510TIP3    H128473   7.305   2.346   6.003
 9510TIP3    H228474   7.412   2.362   5.896
 9511TIP3   OH228475   0.070   7.160   1.019
 9511TIP3    H128476   0.007   7.133   0.953
 9511TIP3    H228477   0.016   7.194   1.091
 9512TIP3   OH228478   2.323   6.005   4.320
 9512TIP3    H128479   2.287   5.940   4.380
 9512TIP3    H228480   2.291   5.979   4.234
 9513TIP3   OH228481   1.113   7.661   6.552
 9513TIP3    H128482   1.060   7.739   6.532
 9513TIP3    H228483   1.049   7.592   6.568
 9514TIP3   OH228484   7.375   6.693   6.639
 9514TIP3    H128485   7.339   6.703   6.727
 9514TIP3    H228486   7.371   6.782   6.602
 9515TIP3   OH228487   2.023   0.330   0.089
 9515TIP3    H128488   1.996   0.246   0.124
 9515TIP3    H228489   2.119   0.327   0.089
 9516TIP3   OH228490   0.556   4.159   3.651
 9516TIP3    H128491   0.466   4.159   3.683
 9516TIP3    H228492   0.577   4.066   3.640
 9517TIP3   OH228493   5.813   0.047   6.568
 9517TIP3    H128494   5.788   0.124   6.618
 9517TIP3    H228495   5.841  -0.016   6.635
 9518TIP3   OH228496   0.237   2.511   2.420
 9518TIP3    H128497   0.331   2.491   2.416
 9518TIP3    H228498   0.227   2.561   2.501
 9519TIP3   OH228499   2.751   6.849   5.556
 9519TIP3    H128500   2.672   6.821   5.511
 9519TIP3    H228501   2.772   6.777   5.616
 9520TIP3   OH228502   0.384   0.601   6.124
 9520TIP3    H128503   0.380   0.697   6.127
 9520TIP3    H228504   0.340   0.573   6.204
 9521TIP3   OH228505   7.670   3.793   3.208
 9521TIP3    H128506   7.662   3.868   3.266
 9521TIP3    H228507   7.718   3.827   3.132
 9522TIP3   OH228508   0.217   4.707   5.230
 9522TIP3    H128509   0.191   4.616   5.241
 9522TIP3    H228510   0.310   4.703   5.211
 9523TIP3   OH228511   3.233   2.933   0.810
 9523TIP3    H128512   3.310   2.976   0.773
 9523TIP3    H228513   3.168   2.937   0.740
 9524TIP3   OH228514   7.158   2.246   0.308
 9524TIP3    H128515   7.154   2.158   0.270
 9524TIP3    H228516   7.158   2.231   0.403
 9525TIP3   OH228517   7.198   4.780   4.095
 9525TIP3    H128518   7.165   4.713   4.154
 9525TIP3    H228519   7.123   4.835   4.075
 9526TIP3   OH228520   3.211   3.881   2.917
 9526TIP3    H128521   3.273   3.823   2.873
 9526TIP3    H228522   3.243   3.969   2.898
 9527TIP3   OH228523   3.639   4.569   6.452
 9527TIP3    H128524   3.574   4.591   6.385
 9527TIP3    H228525   3.702   4.513   6.406
 9528TIP3   OH228526   4.014   6.101   0.059
 9528TIP3    H128527   3.921   6.098   0.038
 9528TIP3    H228528   4.050   6.022   0.018
 9529TIP3   OH228529   2.288   2.325   5.520
 9529TIP3    H128530   2.344   2.266   5.571
 9529TIP3    H228531   2.301   2.298   5.429
 9530TIP3   OH228532   1.046   1.755   6.499
 9530TIP3    H128533   1.108   1.723   6.434
 9530TIP3    H228534   1.065   1.848   6.507
 9531TIP3   OH228535   0.899   6.872   4.006
 9531TIP3    H128536   0.953   6.802   3.968
 9531TIP3    H228537   0.883   6.932   3.933
 9532TIP3   OH228538   7.659   1.224   4.807
 9532TIP3    H128539   7.580   1.222   4.861
 9532TIP3    H228540   7.641   1.163   4.736
 9533TIP3   OH228541   4.827   4.610   2.106
 9533TIP3    H128542   4.902   4.604   2.165
 9533TIP3    H228543   4.829   4.528   2.056
 9534TIP3   OH228544   3.290   3.155   2.715
 9534TIP3    H128545   3.296   3.248   2.694
 9534TIP3    H228546   3.229   3.120   2.650
 9535TIP3   OH228547   5.515   2.222   6.677
 9535TIP3    H128548   5.480   2.223   6.588
 9535TIP3    H228549   5.559   2.137   6.685
 9536TIP3   OH228550   0.379   2.925   3.237
 9536TIP3    H128551   0.368   2.912   3.331
 9536TIP3    H228552   0.298   2.966   3.209
 9537TIP3   OH228553   1.461   0.736   1.183
 9537TIP3    H128554   1.434   0.762   1.271
 9537TIP3    H228555   1.452   0.641   1.181
 9538TIP3   OH228556   2.230   3.313   6.510
 9538TIP3    H128557   2.166   3.304   6.440
 9538TIP3    H228558   2.314   3.322   6.465
 9539TIP3   OH228559   5.421   2.658   0.969
 9539TIP3    H128560   5.442   2.735   0.916
 9539TIP3    H228561   5.474   2.588   0.932
 9540TIP3   OH228562   7.761   5.683   1.602
 9540TIP3    H128563   7.758   5.779   1.604
 9540TIP3    H228564   7.826   5.663   1.535
 9541TIP3   OH228565   6.640   1.982   4.465
 9541TIP3    H128566   6.701   1.945   4.400
 9541TIP3    H228567   6.583   1.908   4.489
 9542TIP3   OH228568   6.407   6.132   2.362
 9542TIP3    H128569   6.454   6.085   2.431
 9542TIP3    H228570   6.418   6.077   2.284
 9543TIP3   OH228571   1.279   0.226   4.718
 9543TIP3    H128572   1.309   0.316   4.716
 9543TIP3    H228573   1.274   0.199   4.626
 9544TIP3   OH228574   3.700   6.638   0.795
 9544TIP3    H128575   3.668   6.623   0.884
 9544TIP3    H228576   3.751   6.719   0.801
 9545TIP3   OH228577   5.478   1.431   0.299
 9545TIP3    H128578   5.493   1.390   0.214
 9545TIP3    H228579   5.565   1.457   0.329
 9546TIP3   OH228580   5.578   5.735   0.655
 9546TIP3    H128581   5.673   5.731   0.646
 9546TIP3    H228582   5.548   5.775   0.574
 9547TIP3   OH228583   4.345   0.087   1.699
 9547TIP3    H128584   4.428   0.041   1.687
 9547TIP3    H228585   4.349   0.160   1.638
 9548TIP3   OH228586   8.283   6.210   4.034
 9548TIP3    H128587   8.276   6.283   4.095
 9548TIP3    H228588   8.201   6.211   3.984
 9549TIP3   OH228589   0.262   0.305   4.014
 9549TIP3    H128590   0.310   0.374   3.970
 9549TIP3    H228591   0.181   0.294   3.964
 9550TIP3   OH228592   0.684   2.825   5.340
 9550TIP3    H128593   0.671   2.822   5.245
 9550TIP3    H228594   0.642   2.907   5.366
 9551TIP3   OH228595   6.124   7.766   5.348
 9551TIP3    H128596   6.107   7.672   5.359
 9551TIP3    H228597   6.095   7.785   5.259
 9552TIP3   OH228598   0.571   7.245   6.494
 9552TIP3    H128599   0.609   7.246   6.406
 9552TIP3    H228600   0.486   7.202   6.482
 9553TIP3   OH228601   5.867   0.663   4.184
 9553TIP3    H128602   5.823   0.580   4.202
 9553TIP3    H228603   5.813   0.704   4.117
 9554TIP3   OH228604   4.469   3.706   4.431
 9554TIP3    H128605   4.410   3.632   4.439
 9554TIP3    H228606   4.424   3.767   4.373
 9555TIP3   OH228607   5.890   7.611   3.323
 9555TIP3    H128608   5.976   7.620   3.281
 9555TIP3    H228609   5.878   7.516   3.332
 9556TIP3   OH228610   2.368   5.522   0.042
 9556TIP3    H128611   2.316   5.583   0.093
 9556TIP3    H228612   2.327   5.522  -0.045
 9557TIP3   OH228613   3.166   5.399   3.418
 9557TIP3    H128614   3.136   5.314   3.387
 9557TIP3    H228615   3.091   5.458   3.405
 9558TIP3   OH228616   3.119   3.657   0.823
 9558TIP3    H128617   3.083   3.632   0.738
 9558TIP3    H228618   3.177   3.731   0.804
 9559TIP3   OH228619   4.414   4.791   1.105
 9559TIP3    H128620   4.420   4.859   1.172
 9559TIP3    H228621   4.373   4.717   1.150
 9560TIP3   OH228622   0.660   7.518   1.123
 9560TIP3    H128623   0.658   7.458   1.049
 9560TIP3    H228624   0.698   7.598   1.088
 9561TIP3   OH228625   7.245   7.628   1.876
 9561TIP3    H128626   7.218   7.634   1.785
 9561TIP3    H228627   7.335   7.662   1.876
 9562TIP3   OH228628   3.942   7.847   6.559
 9562TIP3    H128629   3.942   7.751   6.562
 9562TIP3    H228630   3.874   7.872   6.622
 9563TIP3   OH228631   5.574   1.169   6.204
 9563TIP3    H128632   5.489   1.171   6.160
 9563TIP3    H228633   5.574   1.086   6.251
 9564TIP3   OH228634   8.041   7.413   3.790
 9564TIP3    H128635   8.088   7.372   3.717
 9564TIP3    H228636   7.948   7.401   3.768
 9565TIP3   OH228637   1.101   3.329   2.705
 9565TIP3    H128638   1.048   3.390   2.654
 9565TIP3    H228639   1.175   3.308   2.648
 9566TIP3   OH228640   6.729   5.068   2.399
 9566TIP3    H128641   6.789   5.142   2.405
 9566TIP3    H228642   6.785   4.994   2.376
 9567TIP3   OH228643   4.177   3.482   2.117
 9567TIP3    H128644   4.128   3.413   2.163
 9567TIP3    H228645   4.120   3.559   2.122
 9568TIP3   OH228646   3.315   0.975   4.670
 9568TIP3    H128647   3.339   1.064   4.695
 9568TIP3    H228648   3.222   0.969   4.690
 9569TIP3   OH228649   3.605   7.243   1.255
 9569TIP3    H128650   3.635   7.284   1.174
 9569TIP3    H228651   3.510   7.250   1.251
 9570TIP3   OH228652   6.183   7.850   4.309
 9570TIP3    H128653   6.110   7.847   4.371
 9570TIP3    H228654   6.145   7.822   4.226
 9571TIP3   OH228655   1.874   6.194   0.540
 9571TIP3    H128656   1.859   6.275   0.491
 9571TIP3    H228657   1.794   6.183   0.592
 9572TIP3   OH228658   2.153   4.132   3.734
 9572TIP3    H128659   2.083   4.105   3.794
 9572TIP3    H228660   2.109   4.188   3.670
 9573TIP3   OH228661   5.497   2.208   2.638
 9573TIP3    H128662   5.448   2.276   2.684
 9573TIP3    H228663   5.434   2.168   2.579
 9574TIP3   OH228664   0.217   0.170   0.588
 9574TIP3    H128665   0.299   0.195   0.545
 9574TIP3    H228666   0.214   0.075   0.580
 9575TIP3   OH228667   0.983   7.412   1.044
 9575TIP3    H128668   1.069   7.382   1.013
 9575TIP3    H228669   0.945   7.458   0.970
 9576TIP3   OH228670   2.720   7.003   2.391
 9576TIP3    H128671   2.698   7.094   2.408
 9576TIP3    H228672   2.723   6.962   2.477
 9577TIP3   OH228673   6.834   0.509   0.587
 9577TIP3    H128674   6.803   0.460   0.511
 9577TIP3    H228675   6.902   0.452   0.626
 9578TIP3   OH228676   7.616   0.831   1.767
 9578TIP3    H128677   7.610   0.740   1.795
 9578TIP3    H228678   7.549   0.841   1.700
 9579TIP3   OH228679   2.860   7.487   0.273
 9579TIP3    H128680   2.849   7.416   0.338
 9579TIP3    H228681   2.900   7.558   0.322
 9580TIP3   OH228682   4.564   4.615   3.117
 9580TIP3    H128683   4.493   4.570   3.073
 9580TIP3    H228684   4.605   4.668   3.049
 9581TIP3   OH228685   6.609   4.848   0.507
 9581TIP3    H128686   6.555   4.804   0.441
 9581TIP3    H228687   6.586   4.805   0.589
 9582TIP3   OH228688   1.511   5.703   2.932
 9582TIP3    H128689   1.567   5.772   2.897
 9582TIP3    H228690   1.532   5.701   3.026
 9583TIP3   OH228691   6.239   3.129   0.763
 9583TIP3    H128692   6.176   3.136   0.834
 9583TIP3    H228693   6.292   3.053   0.786
 9584TIP3   OH228694   4.049   3.822   6.270
 9584TIP3    H128695   4.072   3.867   6.351
 9584TIP3    H228696   4.005   3.742   6.298
 9585TIP3   OH228697   5.046   6.623   2.531
 9585TIP3    H128698   5.045   6.676   2.611
 9585TIP3    H228699   5.078   6.538   2.559
 9586TIP3   OH228700   2.934   1.438   1.523
 9586TIP3    H128701   2.969   1.405   1.605
 9586TIP3    H228702   2.845   1.467   1.545
 9587TIP3   OH228703   7.487   7.355   4.711
 9587TIP3    H128704   7.419   7.295   4.740
 9587TIP3    H228705   7.444   7.412   4.647
 9588TIP3   OH228706   0.744   6.225   6.159
 9588TIP3    H128707   0.736   6.206   6.065
 9588TIP3    H228708   0.828   6.186   6.184
 9589TIP3   OH228709   2.277   3.640   4.959
 9589TIP3    H128710   2.183   3.648   4.978
 9589TIP3    H228711   2.292   3.701   4.887
 9590TIP3   OH228712   0.833   2.558   6.169
 9590TIP3    H128713   0.906   2.570   6.231
 9590TIP3    H228714   0.873   2.516   6.093
 9591TIP3   OH228715   0.234   4.749   4.220
 9591TIP3    H128716   0.246   4.716   4.131
 9591TIP3    H228717   0.318   4.788   4.243
 9592TIP3   OH228718   6.307   4.984   6.221
 9592TIP3    H128719   6.255   5.062   6.241
 9592TIP3    H228720   6.398   5.016   6.217
 9593TIP3   OH228721   2.634   5.684   3.801
 9593TIP3    H128722   2.728   5.678   3.819
 9593TIP3    H228723   2.594   5.618   3.859
 9594TIP3   OH228724   3.845   1.294   5.458
 9594TIP3    H128725   3.772   1.329   5.509
 9594TIP3    H228726   3.923   1.317   5.509
 9595TIP3   OH228727   7.032   5.403   1.222
 9595TIP3    H128728   6.970   5.459   1.269
 9595TIP3    H228729   7.110   5.457   1.212
 9596TIP3   OH228730   5.934   6.537   1.507
 9596TIP3    H128731   5.907   6.494   1.588
 9596TIP3    H228732   5.853   6.563   1.465
 9597TIP3   OH228733   0.430   0.883   6.107
 9597TIP3    H128734   0.404   0.919   6.023
 9597TIP3    H228735   0.350   0.879   6.158
 9598TIP3   OH228736   0.599   7.529   3.780
 9598TIP3    H128737   0.580   7.614   3.740
 9598TIP3    H228738   0.674   7.546   3.837
 9599TIP3   OH228739   2.437   4.296   2.136
 9599TIP3    H128740   2.429   4.375   2.189
 9599TIP3    H228741   2.485   4.235   2.192
 9600TIP3   OH228742   6.965   1.544   3.899
 9600TIP3    H128743   6.878   1.582   3.889
 9600TIP3    H228744   6.968   1.474   3.834
 9601TIP3   OH228745   2.444   1.768   3.689
 9601TIP3    H128746   2.453   1.676   3.666
 9601TIP3    H228747   2.398   1.768   3.772
 9602TIP3   OH228748   0.926   1.195   1.134
 9602TIP3    H128749   0.943   1.286   1.158
 9602TIP3    H228750   0.830   1.189   1.130
 9603TIP3   OH228751   7.825   7.465   2.051
 9603TIP3    H128752   7.787   7.535   2.103
 9603TIP3    H228753   7.914   7.495   2.031
 9604TIP3   OH228754   1.903   0.519   6.098
 9604TIP3    H128755   1.863   0.598   6.136
 9604TIP3    H228756   1.868   0.515   6.009
 9605TIP3   OH228757   4.322   5.155   6.061
 9605TIP3    H128758   4.273   5.080   6.094
 9605TIP3    H228759   4.325   5.141   5.966
 9606TIP3   OH228760   8.258   3.446   1.644
 9606TIP3    H128761   8.220   3.370   1.598
 9606TIP3    H228762   8.268   3.417   1.734
 9607TIP3   OH228763   1.379   4.481   2.909
 9607TIP3    H128764   1.436   4.478   2.986
 9607TIP3    H228765   1.374   4.391   2.879
 9608TIP3   OH228766   0.735   0.792   4.819
 9608TIP3    H128767   0.827   0.767   4.825
 9608TIP3    H228768   0.707   0.764   4.732
 9609TIP3   OH228769   4.821   1.847   3.834
 9609TIP3    H128770   4.846   1.885   3.919
 9609TIP3    H228771   4.883   1.775   3.821
 9610TIP3   OH228772   6.037   1.764   4.449
 9610TIP3    H128773   5.969   1.811   4.401
 9610TIP3    H228774   6.053   1.817   4.527
 9611TIP3   OH228775   3.509   3.714   6.217
 9611TIP3    H128776   3.584   3.661   6.193
 9611TIP3    H228777   3.453   3.711   6.139
 9612TIP3   OH228778   4.619   0.562   2.932
 9612TIP3    H128779   4.569   0.618   2.991
 9612TIP3    H228780   4.621   0.477   2.976
 9613TIP3   OH228781   0.197   2.484   0.329
 9613TIP3    H128782   0.175   2.504   0.420
 9613TIP3    H228783   0.197   2.388   0.324
 9614TIP3   OH228784   4.415   3.892   6.499
 9614TIP3    H128785   4.321   3.898   6.513
 9614TIP3    H228786   4.452   3.967   6.546
 9615TIP3   OH228787   7.351   7.679   2.853
 9615TIP3    H128788   7.330   7.723   2.770
 9615TIP3    H228789   7.270   7.634   2.878
 9616TIP3   OH228790   8.306   7.787   6.149
 9616TIP3    H128791   8.270   7.807   6.063
 9616TIP3    H228792   8.290   7.694   6.161
 9617TIP3   OH228793   3.648   7.690   2.927
 9617TIP3    H128794   3.635   7.635   3.005
 9617TIP3    H228795   3.600   7.644   2.858
 9618TIP3   OH228796   7.991   4.292   3.607
 9618TIP3    H128797   7.952   4.375   3.634
 9618TIP3    H228798   7.967   4.284   3.514
 9619TIP3   OH228799   1.714   2.961   6.583
 9619TIP3    H128800   1.718   2.870   6.611
 9619TIP3    H228801   1.769   3.008   6.645
 9620TIP3   OH228802   6.066   3.345   3.843
 9620TIP3    H128803   6.006   3.372   3.774
 9620TIP3    H228804   6.008   3.325   3.917
 9621TIP3   OH228805   3.785   1.624   1.864
 9621TIP3    H128806   3.742   1.691   1.917
 9621TIP3    H228807   3.760   1.541   1.906
 9622TIP3   OH228808   4.963   4.681   1.647
 9622TIP3    H128809   4.869   4.685   1.628
 9622TIP3    H228810   4.968   4.643   1.735
 9623TIP3   OH228811   0.812   5.085   5.251
 9623TIP3    H128812   0.824   5.179   5.262
 9623TIP3    H228813   0.760   5.076   5.171
 9624TIP3   OH228814   3.337   3.732   4.061
 9624TIP3    H128815   3.419   3.697   4.095
 9624TIP3    H228816   3.346   3.827   4.069
 9625TIP3   OH228817   2.030   6.060   4.755
 9625TIP3    H128818   1.969   5.987   4.753
 9625TIP3    H228819   1.987   6.127   4.809
 9626TIP3   OH228820   6.535   3.585   0.906
 9626TIP3    H128821   6.459   3.565   0.852
 9626TIP3    H228822   6.505   3.651   0.968
 9627TIP3   OH228823   6.888   0.520   3.700
 9627TIP3    H128824   6.827   0.454   3.667
 9627TIP3    H228825   6.833   0.583   3.747
 9628TIP3   OH228826   1.990   4.458   6.071
 9628TIP3    H128827   2.072   4.475   6.117
 9628TIP3    H228828   1.922   4.476   6.137
 9629TIP3   OH228829   6.897   7.625  -0.050
 9629TIP3    H128830   6.953   7.699  -0.028
 9629TIP3    H228831   6.860   7.596   0.034
 9630TIP3   OH228832   1.683   7.631   1.977
 9630TIP3    H128833   1.683   7.710   1.923
 9630TIP3    H228834   1.733   7.567   1.925
 9631TIP3   OH228835   0.496   5.307   1.727
 9631TIP3    H128836   0.421   5.299   1.667
 9631TIP3    H228837   0.514   5.401   1.729
 9632TIP3   OH228838   4.818   7.062   2.741
 9632TIP3    H128839   4.912   7.067   2.759
 9632TIP3    H228840   4.784   7.149   2.765
 9633TIP3   OH228841   1.196   4.717   2.595
 9633TIP3    H128842   1.262   4.676   2.539
 9633TIP3    H228843   1.117   4.721   2.540
 9634TIP3   OH228844   3.731   3.824   6.438
 9634TIP3    H128845   3.719   3.919   6.446
 9634TIP3    H228846   3.645   3.791   6.412
 9635TIP3   OH228847   2.752   0.602   4.689
 9635TIP3    H128848   2.841   0.568   4.695
 9635TIP3    H228849   2.762   0.690   4.653
 9636TIP3   OH228850   1.255   3.904   3.753
 9636TIP3    H128851   1.204   3.942   3.681
 9636TIP3    H228852   1.222   3.815   3.761
 9637TIP3   OH228853   3.625   2.256   1.087
 9637TIP3    H128854   3.647   2.164   1.099
 9637TIP3    H228855   3.632   2.294   1.174
 9638TIP3   OH228856   4.899   0.383   0.575
 9638TIP3    H128857   4.910   0.375   0.670
 9638TIP3    H228858   4.828   0.447   0.565
 9639TIP3   OH228859   3.857   4.525   5.020
 9639TIP3    H128860   3.931   4.471   5.048
 9639TIP3    H228861   3.875   4.544   4.928
 9640TIP3   OH228862   6.231   4.176   0.609
 9640TIP3    H128863   6.162   4.121   0.572
 9640TIP3    H228864   6.279   4.118   0.668
 9641TIP3   OH228865   2.490   6.223   5.943
 9641TIP3    H128866   2.501   6.287   6.014
 9641TIP3    H228867   2.397   6.228   5.921
 9642TIP3   OH228868   6.148   7.260   0.247
 9642TIP3    H128869   6.108   7.173   0.251
 9642TIP3    H228870   6.081   7.318   0.283
 9643TIP3   OH228871   6.550   4.232   3.759
 9643TIP3    H128872   6.468   4.217   3.712
 9643TIP3    H228873   6.616   4.243   3.690
 9644TIP3   OH228874   0.883   5.996   2.839
 9644TIP3    H128875   0.799   6.008   2.884
 9644TIP3    H228876   0.883   5.904   2.812
 9645TIP3   OH228877   1.376   2.253   0.439
 9645TIP3    H128878   1.361   2.160   0.420
 9645TIP3    H228879   1.304   2.298   0.395
 9646TIP3   OH228880   2.257   6.961   5.759
 9646TIP3    H128881   2.341   6.923   5.786
 9646TIP3    H228882   2.248   6.936   5.667
 9647TIP3   OH228883   8.018   4.005   0.698
 9647TIP3    H128884   8.108   4.024   0.726
 9647TIP3    H228885   7.981   4.091   0.677
 9648TIP3   OH228886   4.915   0.638   5.133
 9648TIP3    H128887   4.849   0.707   5.127
 9648TIP3    H228888   4.881   0.576   5.197
 9649TIP3   OH228889   7.765   2.383   4.113
 9649TIP3    H128890   7.708   2.312   4.086
 9649TIP3    H228891   7.769   2.376   4.209
 9650TIP3   OH228892   0.034   1.353   2.777
 9650TIP3    H128893   0.066   1.358   2.687
 9650TIP3    H228894  -0.052   1.311   2.769
 9651TIP3   OH228895   4.822   7.070   6.327
 9651TIP3    H128896   4.779   7.055   6.243
 9651TIP3    H228897   4.756   7.117   6.378
 9652TIP3   OH228898   0.803   2.681   4.160
 9652TIP3    H128899   0.744   2.631   4.216
 9652TIP3    H228900   0.865   2.721   4.221
 9653TIP3   OH228901   4.679   5.128   6.713
 9653TIP3    H128902   4.711   5.172   6.791
 9653TIP3    H228903   4.729   5.167   6.641
 9654TIP3   OH228904   0.235   3.872   3.776
 9654TIP3    H128905   0.295   3.863   3.850
 9654TIP3    H228906   0.161   3.815   3.798
 9655TIP3   OH228907   2.453   6.808   3.822
 9655TIP3    H128908   2.531   6.787   3.873
 9655TIP3    H228909   2.382   6.812   3.886
 9656TIP3   OH228910   0.775   2.600   3.734
 9656TIP3    H128911   0.710   2.670   3.741
 9656TIP3    H228912   0.734   2.535   3.676
 9657TIP3   OH228913   4.429   1.750   0.562
 9657TIP3    H128914   4.429   1.846   0.566
 9657TIP3    H228915   4.520   1.725   0.576
 9658TIP3   OH228916   7.357   1.432   4.256
 9658TIP3    H128917   7.370   1.489   4.332
 9658TIP3    H228918   7.328   1.490   4.187
 9659TIP3   OH228919   2.665   5.767   5.632
 9659TIP3    H128920   2.684   5.844   5.685
 9659TIP3    H228921   2.745   5.715   5.635
 9660TIP3   OH228922   1.787   1.887   2.155
 9660TIP3    H128923   1.742   1.832   2.091
 9660TIP3    H228924   1.880   1.875   2.135
 9661TIP3   OH228925   4.746   7.473   5.928
 9661TIP3    H128926   4.745   7.410   5.857
 9661TIP3    H228927   4.765   7.557   5.887
 9662TIP3   OH228928   2.230   0.637   4.050
 9662TIP3    H128929   2.187   0.560   4.086
 9662TIP3    H228930   2.157   0.693   4.022
 9663TIP3   OH228931   7.159   2.564   5.431
 9663TIP3    H128932   7.230   2.509   5.462
 9663TIP3    H228933   7.188   2.654   5.447
 9664TIP3   OH228934   1.510   2.138   1.333
 9664TIP3    H128935   1.581   2.202   1.333
 9664TIP3    H228936   1.524   2.086   1.412
 9665TIP3   OH228937   1.740   0.019   1.149
 9665TIP3    H128938   1.745   0.093   1.089
 9665TIP3    H228939   1.687   0.051   1.222
 9666TIP3   OH228940   6.749   1.664   4.608
 9666TIP3    H128941   6.755   1.643   4.701
 9666TIP3    H228942   6.840   1.675   4.580
 9667TIP3   OH228943   5.635   1.896   2.139
 9667TIP3    H128944   5.686   1.886   2.220
 9667TIP3    H228945   5.676   1.837   2.077
 9668TIP3   OH228946   6.172   7.175   5.086
 9668TIP3    H128947   6.183   7.080   5.089
 9668TIP3    H228948   6.137   7.198   5.172
 9669TIP3   OH228949   0.510   0.155   5.522
 9669TIP3    H128950   0.424   0.121   5.547
 9669TIP3    H228951   0.550   0.083   5.473
 9670TIP3   OH228952   7.154   3.549   4.169
 9670TIP3    H128953   7.086   3.500   4.125
 9670TIP3    H228954   7.156   3.634   4.125
 9671TIP3   OH228955   4.177   4.284   2.497
 9671TIP3    H128956   4.236   4.359   2.501
 9671TIP3    H228957   4.167   4.266   2.404
 9672TIP3   OH228958   0.898   2.734   3.064
 9672TIP3    H128959   0.824   2.758   3.120
 9672TIP3    H228960   0.872   2.763   2.977
 9673TIP3   OH228961   6.408   2.750   2.610
 9673TIP3    H128962   6.401   2.756   2.515
 9673TIP3    H228963   6.483   2.692   2.625
 9674TIP3   OH228964   3.847   7.453   1.183
 9674TIP3    H128965   3.919   7.515   1.194
 9674TIP3    H228966   3.889   7.373   1.150
 9675TIP3   OH228967   3.638   1.415   4.729
 9675TIP3    H128968   3.728   1.438   4.754
 9675TIP3    H228969   3.640   1.321   4.714
 9676TIP3   OH228970   1.122   1.910   4.330
 9676TIP3    H128971   1.082   1.951   4.407
 9676TIP3    H228972   1.108   1.816   4.343
 9677TIP3   OH228973   7.957   6.317   1.221
 9677TIP3    H128974   7.890   6.275   1.166
 9677TIP3    H228975   8.020   6.248   1.240
 9678TIP3   OH228976   5.697   2.813   4.929
 9678TIP3    H128977   5.769   2.751   4.940
 9678TIP3    H228978   5.651   2.813   5.013
 9679TIP3   OH228979   1.116   1.377   4.887
 9679TIP3    H128980   1.211   1.376   4.896
 9679TIP3    H228981   1.087   1.450   4.941
 9680TIP3   OH228982   1.010   6.579   3.634
 9680TIP3    H128983   0.935   6.610   3.684
 9680TIP3    H228984   1.006   6.483   3.641
 9681TIP3   OH228985   2.733   0.997   3.687
 9681TIP3    H128986   2.764   0.919   3.640
 9681TIP3    H228987   2.640   1.005   3.662
 9682TIP3   OH228988   6.245   2.370   2.610
 9682TIP3    H128989   6.195   2.302   2.565
 9682TIP3    H228990   6.196   2.451   2.595
 9683TIP3   OH228991   7.799   4.436   1.739
 9683TIP3    H128992   7.840   4.372   1.681
 9683TIP3    H228993   7.856   4.512   1.735
 9684TIP3   OH228994   6.910   1.918   4.623
 9684TIP3    H128995   6.819   1.925   4.653
 9684TIP3    H228996   6.935   2.008   4.601
 9685TIP3   OH228997   0.336   5.716   4.633
 9685TIP3    H128998   0.255   5.665   4.628
 9685TIP3    H228999   0.406   5.652   4.633
 9686TIP3   OH229000   5.544   2.641   3.076
 9686TIP3    H129001   5.620   2.620   3.130
 9686TIP3    H229002   5.510   2.723   3.112
 9687TIP3   OH229003   1.077   6.401   4.647
 9687TIP3    H129004   1.075   6.489   4.610
 9687TIP3    H229005   1.098   6.414   4.739
 9688TIP3   OH229006   6.538   7.063   1.283
 9688TIP3    H129007   6.522   7.069   1.189
 9688TIP3    H229008   6.558   6.970   1.297
 9689TIP3   OH229009   0.817   6.356   4.522
 9689TIP3    H129010   0.907   6.389   4.528
 9689TIP3    H229011   0.789   6.345   4.613
 9690TIP3   OH229012   1.465   5.179   6.025
 9690TIP3    H129013   1.533   5.246   6.013
 9690TIP3    H229014   1.471   5.125   5.946
 9691TIP3   OH229015   3.683   1.470   4.203
 9691TIP3    H129016   3.733   1.388   4.209
 9691TIP3    H229017   3.602   1.446   4.158
 9692TIP3   OH229018   5.191   6.101   5.512
 9692TIP3    H129019   5.220   6.191   5.524
 9692TIP3    H229020   5.243   6.069   5.438
 9693TIP3   OH229021   4.006   4.842   5.924
 9693TIP3    H129022   3.996   4.749   5.940
 9693TIP3    H229023   3.953   4.859   5.845
 9694TIP3   OH229024   5.269   4.603   3.418
 9694TIP3    H129025   5.213   4.545   3.470
 9694TIP3    H229026   5.322   4.649   3.483
 9695TIP3   OH229027   8.227   0.298   2.394
 9695TIP3    H129028   8.271   0.225   2.438
 9695TIP3    H229029   8.298   0.343   2.348
 9696TIP3   OH229030   1.765   5.857   5.540
 9696TIP3    H129031   1.760   5.806   5.621
 9696TIP3    H229032   1.741   5.946   5.566
 9697TIP3   OH229033   1.305   1.987   2.710
 9697TIP3    H129034   1.233   2.033   2.755
 9697TIP3    H229035   1.263   1.914   2.666
 9698TIP3   OH229036   3.937   3.583   6.349
 9698TIP3    H129037   3.971   3.494   6.353
 9698TIP3    H229038   3.921   3.607   6.440
 9699TIP3   OH229039   3.140   6.561   3.963
 9699TIP3    H129040   3.087   6.483   3.977
 9699TIP3    H229041   3.192   6.542   3.885
 9700TIP3   OH229042   0.192   2.619   0.606
 9700TIP3    H129043   0.258   2.684   0.582
 9700TIP3    H229044   0.233   2.567   0.676
 9701TIP3   OH229045   5.332   1.176   2.301
 9701TIP3    H129046   5.337   1.221   2.385
 9701TIP3    H229047   5.241   1.189   2.273
 9702TIP3   OH229048   5.012   7.231   6.099
 9702TIP3    H129049   4.918   7.248   6.110
 9702TIP3    H229050   5.050   7.245   6.185
 9703TIP3   OH229051   1.284   4.930   0.707
 9703TIP3    H129052   1.287   5.003   0.769
 9703TIP3    H229053   1.190   4.910   0.698
 9704TIP3   OH229054   3.123   3.551   4.628
 9704TIP3    H129055   3.187   3.584   4.565
 9704TIP3    H229056   3.146   3.459   4.640
 9705TIP3   OH229057   4.832   3.962   2.595
 9705TIP3    H129058   4.819   4.046   2.551
 9705TIP3    H229059   4.800   3.897   2.532
 9706TIP3   OH229060   2.909   6.379   3.790
 9706TIP3    H129061   2.863   6.443   3.844
 9706TIP3    H229062   2.855   6.300   3.795
 9707TIP3   OH229063   0.305   5.906   6.351
 9707TIP3    H129064   0.245   5.962   6.401
 9707TIP3    H229065   0.263   5.819   6.352
 9708TIP3   OH229066   2.354   5.584   0.939
 9708TIP3    H129067   2.361   5.624   1.025
 9708TIP3    H229068   2.391   5.497   0.950
 9709TIP3   OH229069   8.035   1.479   4.526
 9709TIP3    H129070   7.941   1.461   4.533
 9709TIP3    H229071   8.076   1.393   4.537
 9710TIP3   OH229072   4.088   1.529   3.984
 9710TIP3    H129073   3.997   1.530   3.953
 9710TIP3    H229074   4.083   1.490   4.071
 9711TIP3   OH229075   3.407   6.910   3.302
 9711TIP3    H129076   3.409   6.826   3.349
 9711TIP3    H229077   3.330   6.904   3.246
 9712TIP3   OH229078   4.732   4.751   6.557
 9712TIP3    H129079   4.752   4.743   6.650
 9712TIP3    H229080   4.798   4.697   6.513
 9713TIP3   OH229081   4.574   1.572   0.127
 9713TIP3    H129082   4.562   1.552   0.220
 9713TIP3    H229083   4.588   1.487   0.086
 9714TIP3   OH229084   8.231   3.917   4.620
 9714TIP3    H129085   8.297   3.867   4.572
 9714TIP3    H229086   8.266   3.922   4.709
 9715TIP3   OH229087   3.264   0.606   6.398
 9715TIP3    H129088   3.262   0.698   6.426
 9715TIP3    H229089   3.172   0.584   6.382
 9716TIP3   OH229090   3.459   7.043   0.895
 9716TIP3    H129091   3.407   7.003   0.965
 9716TIP3    H229092   3.407   7.119   0.868
 9717TIP3   OH229093   6.524   2.050   0.291
 9717TIP3    H129094   6.605   2.080   0.331
 9717TIP3    H229095   6.457   2.069   0.357
 9718TIP3   OH229096   6.749   7.660   3.244
 9718TIP3    H129097   6.702   7.742   3.257
 9718TIP3    H229098   6.681   7.596   3.222
 9719TIP3   OH229099   7.873   5.035   1.561
 9719TIP3    H129100   7.859   4.981   1.639
 9719TIP3    H229101   7.937   4.985   1.509
 9720TIP3   OH229102   6.292   2.818   4.756
 9720TIP3    H129103   6.217   2.841   4.811
 9720TIP3    H229104   6.321   2.733   4.788
 9721TIP3   OH229105   3.831   5.713   0.056
 9721TIP3    H129106   3.865   5.737   0.142
 9721TIP3    H229107   3.872   5.774  -0.005
 9722TIP3   OH229108   8.018   2.862   3.846
 9722TIP3    H129109   7.931   2.868   3.886
 9722TIP3    H229110   8.043   2.952   3.831
 9723TIP3   OH229111   7.159   2.091   6.415
 9723TIP3    H129112   7.083   2.128   6.370
 9723TIP3    H229113   7.209   2.047   6.346
 9724TIP3   OH229114   2.531   4.979   2.873
 9724TIP3    H129115   2.523   4.887   2.899
 9724TIP3    H229116   2.551   4.976   2.779
 9725TIP3   OH229117   3.995   0.811   0.962
 9725TIP3    H129118   3.926   0.784   0.901
 9725TIP3    H229119   4.033   0.728   0.992
 9726TIP3   OH229120   2.615   5.533   1.536
 9726TIP3    H129121   2.660   5.573   1.461
 9726TIP3    H229122   2.612   5.602   1.602
 9727TIP3   OH229123   1.096   0.976   2.815
 9727TIP3    H129124   1.162   0.919   2.854
 9727TIP3    H229125   1.041   0.917   2.763
 9728TIP3   OH229126   7.267   6.693   3.344
 9728TIP3    H129127   7.306   6.757   3.403
 9728TIP3    H229128   7.291   6.608   3.380
 9729TIP3   OH229129   3.720   4.984   3.970
 9729TIP3    H129130   3.741   4.891   3.969
 9729TIP3    H229131   3.710   5.005   4.063
 9730TIP3   OH229132   0.960   2.973   0.566
 9730TIP3    H129133   1.042   2.978   0.615
 9730TIP3    H229134   0.968   3.039   0.498
 9731TIP3   OH229135   0.163   3.196   4.988
 9731TIP3    H129136   0.080   3.169   5.027
 9731TIP3    H229137   0.155   3.174   4.895
 9732TIP3   OH229138   6.187   4.698   1.027
 9732TIP3    H129139   6.221   4.668   0.943
 9732TIP3    H229140   6.180   4.793   1.017
 9733TIP3   OH229141   2.421   4.816   0.530
 9733TIP3    H129142   2.467   4.733   0.545
 9733TIP3    H229143   2.404   4.850   0.618
 9734TIP3   OH229144   7.540   1.721   2.365
 9734TIP3    H129145   7.575   1.787   2.424
 9734TIP3    H229146   7.546   1.760   2.278
 9735TIP3   OH229147   7.310   2.245   1.525
 9735TIP3    H129148   7.273   2.191   1.595
 9735TIP3    H229149   7.321   2.185   1.451
 9736TIP3   OH229150   6.458   0.559   0.078
 9736TIP3    H129151   6.461   0.561  -0.018
 9736TIP3    H229152   6.514   0.631   0.105
 9737TIP3   OH229153   2.350   7.704   5.042
 9737TIP3    H129154   2.362   7.721   4.949
 9737TIP3    H229155   2.437   7.715   5.080
 9738TIP3   OH229156   7.338   0.829   4.044
 9738TIP3    H129157   7.310   0.914   4.009
 9738TIP3    H229158   7.380   0.786   3.970
 9739TIP3   OH229159   5.708   3.807   0.040
 9739TIP3    H129160   5.622   3.806   0.081
 9739TIP3    H229161   5.705   3.883  -0.019
 9740TIP3   OH229162   7.522   3.770   4.540
 9740TIP3    H129163   7.559   3.697   4.589
 9740TIP3    H229164   7.563   3.764   4.453
 9741TIP3   OH229165   3.198   0.272   3.329
 9741TIP3    H129166   3.162   0.201   3.383
 9741TIP3    H229167   3.268   0.310   3.382
 9742TIP3   OH229168   7.672   7.069   3.212
 9742TIP3    H129169   7.760   7.048   3.181
 9742TIP3    H229170   7.666   7.164   3.204
 9743TIP3   OH229171   8.208   0.161   4.929
 9743TIP3    H129172   8.190   0.254   4.944
 9743TIP3    H229173   8.255   0.133   5.007
 9744TIP3   OH229174   3.520   0.864   2.606
 9744TIP3    H129175   3.436   0.891   2.644
 9744TIP3    H229176   3.515   0.891   2.515
 9745TIP3   OH229177   5.068   7.151   2.827
 9745TIP3    H129178   5.117   7.217   2.778
 9745TIP3    H229179   5.131   7.080   2.840
 9746TIP3   OH229180   0.849   0.670   5.784
 9746TIP3    H129181   0.769   0.678   5.835
 9746TIP3    H229182   0.871   0.759   5.758
 9747TIP3   OH229183   0.321   0.783   0.261
 9747TIP3    H129184   0.337   0.849   0.327
 9747TIP3    H229185   0.265   0.718   0.304
 9748TIP3   OH229186   3.013   2.502   4.308
 9748TIP3    H129187   2.972   2.416   4.308
 9748TIP3    H229188   2.975   2.546   4.384
 9749TIP3   OH229189   6.252   0.637   3.926
 9749TIP3    H129190   6.160   0.610   3.929
 9749TIP3    H229191   6.289   0.605   4.008
 9750TIP3   OH229192   0.407   3.795   4.227
 9750TIP3    H129193   0.389   3.864   4.291
 9750TIP3    H229194   0.322   3.758   4.205
 9751TIP3   OH229195   3.058   0.697   4.755
 9751TIP3    H129196   3.118   0.667   4.686
 9751TIP3    H229197   3.021   0.779   4.721
 9752TIP3   OH229198   6.392   4.655   5.481
 9752TIP3    H129199   6.391   4.735   5.429
 9752TIP3    H229200   6.477   4.657   5.526
 9753TIP3   OH229201   7.636   2.118   5.719
 9753TIP3    H129202   7.560   2.117   5.778
 9753TIP3    H229203   7.689   2.043   5.748
 9754TIP3   OH229204   6.059   2.135   0.937
 9754TIP3    H129205   6.054   2.063   0.999
 9754TIP3    H229206   6.084   2.211   0.989
 9755TIP3   OH229207   5.058   7.093   0.535
 9755TIP3    H129208   5.063   7.176   0.582
 9755TIP3    H229209   5.143   7.085   0.492
 9756TIP3   OH229210   1.700   3.571   1.912
 9756TIP3    H129211   1.673   3.655   1.874
 9756TIP3    H229212   1.758   3.595   1.984
 9757TIP3   OH229213   5.052   5.181   5.806
 9757TIP3    H129214   5.118   5.113   5.824
 9757TIP3    H229215   5.104   5.261   5.793
 9758TIP3   OH229216   5.514   2.915   3.987
 9758TIP3    H129217   5.550   2.883   4.070
 9758TIP3    H229218   5.477   2.837   3.946
 9759TIP3   OH229219   2.155   5.387   5.961
 9759TIP3    H129220   2.219   5.339   5.908
 9759TIP3    H229221   2.194   5.474   5.974
 9760TIP3   OH229222   5.197   2.335   3.923
 9760TIP3    H129223   5.257   2.409   3.931
 9760TIP3    H229224   5.228   2.287   3.846
 9761TIP3   OH229225   4.629   6.377   6.090
 9761TIP3    H129226   4.636   6.425   6.007
 9761TIP3    H229227   4.716   6.383   6.129
 9762TIP3   OH229228   5.080   6.431   2.166
 9762TIP3    H129229   5.115   6.494   2.103
 9762TIP3    H229230   5.095   6.346   2.125
 9763TIP3   OH229231   3.669   6.676   0.524
 9763TIP3    H129232   3.654   6.766   0.494
 9763TIP3    H229233   3.718   6.686   0.605
 9764TIP3   OH229234   5.239   3.551   4.696
 9764TIP3    H129235   5.281   3.583   4.616
 9764TIP3    H229236   5.190   3.473   4.668
 9765TIP3   OH229237   7.512   7.777   5.583
 9765TIP3    H129238   7.425   7.815   5.570
 9765TIP3    H229239   7.516   7.759   5.677
 9766TIP3   OH229240   7.058   2.892   3.091
 9766TIP3    H129241   7.129   2.832   3.066
 9766TIP3    H229242   7.064   2.964   3.028
 9767TIP3   OH229243   5.724   4.720   3.455
 9767TIP3    H129244   5.681   4.708   3.371
 9767TIP3    H229245   5.818   4.719   3.436
 9768TIP3   OH229246   1.927   3.713   2.600
 9768TIP3    H129247   2.003   3.658   2.623
 9768TIP3    H229248   1.861   3.690   2.665
 9769TIP3   OH229249   5.304   1.431   1.673
 9769TIP3    H129250   5.265   1.492   1.735
 9769TIP3    H229251   5.398   1.436   1.691
 9770TIP3   OH229252   6.211   4.037   6.319
 9770TIP3    H129253   6.151   3.992   6.260
 9770TIP3    H229254   6.278   3.971   6.338
 9771TIP3   OH229255   7.631   0.809   0.463
 9771TIP3    H129256   7.537   0.823   0.455
 9771TIP3    H229257   7.653   0.844   0.549
 9772TIP3   OH229258   0.226   4.373   5.846
 9772TIP3    H129259   0.165   4.439   5.814
 9772TIP3    H229260   0.270   4.414   5.920
 9773TIP3   OH229261   5.022   2.994   0.864
 9773TIP3    H129262   4.936   3.015   0.826
 9773TIP3    H229263   5.063   3.080   0.877
 9774TIP3   OH229264   3.036   0.237   6.151
 9774TIP3    H129265   2.972   0.202   6.089
 9774TIP3    H229266   3.112   0.180   6.142
 9775TIP3   OH229267   5.920   1.829   6.624
 9775TIP3    H129268   5.935   1.738   6.596
 9775TIP3    H229269   5.913   1.878   6.542
 9776TIP3   OH229270   1.646   0.398   2.519
 9776TIP3    H129271   1.700   0.382   2.441
 9776TIP3    H229272   1.581   0.463   2.490
 9777TIP3   OH229273   4.532   7.726   3.310
 9777TIP3    H129274   4.588   7.730   3.232
 9777TIP3    H229275   4.585   7.680   3.375
 9778TIP3   OH229276   0.062   0.409   5.327
 9778TIP3    H129277   0.061   0.333   5.270
 9778TIP3    H229278   0.151   0.413   5.362
 9779TIP3   OH229279   6.326   1.115   1.141
 9779TIP3    H129280   6.251   1.105   1.200
 9779TIP3    H229281   6.385   1.175   1.186
 9780TIP3   OH229282   2.591   4.646   2.269
 9780TIP3    H129283   2.629   4.726   2.230
 9780TIP3    H229284   2.646   4.575   2.236
 9781TIP3   OH229285   7.997   4.556   4.812
 9781TIP3    H129286   7.912   4.555   4.768
 9781TIP3    H229287   7.992   4.483   4.875
 9782TIP3   OH229288   1.429   6.130   4.947
 9782TIP3    H129289   1.338   6.103   4.956
 9782TIP3    H229290   1.463   6.078   4.874
 9783TIP3   OH229291   6.729   1.432   1.334
 9783TIP3    H129292   6.658   1.496   1.327
 9783TIP3    H229293   6.806   1.485   1.355
 9784TIP3   OH229294   0.870   4.352   1.635
 9784TIP3    H129295   0.871   4.417   1.705
 9784TIP3    H229296   0.847   4.401   1.556
 9785TIP3   OH229297   4.132   2.530   4.148
 9785TIP3    H129298   4.158   2.560   4.235
 9785TIP3    H229299   4.188   2.578   4.088
 9786TIP3   OH229300   2.052   6.939   5.957
 9786TIP3    H129301   2.109   6.959   5.882
 9786TIP3    H229302   2.052   7.020   6.008
 9787TIP3   OH229303   1.165   1.805   2.567
 9787TIP3    H129304   1.159   1.709   2.562
 9787TIP3    H229305   1.175   1.833   2.477
 9788TIP3   OH229306   2.060   1.165   1.993
 9788TIP3    H129307   2.011   1.231   2.042
 9788TIP3    H229308   2.145   1.161   2.037
 9789TIP3   OH229309   0.605   3.060   3.415
 9789TIP3    H129310   0.574   2.975   3.382
 9789TIP3    H229311   0.553   3.074   3.495
 9790TIP3   OH229312   1.267   0.722   5.720
 9790TIP3    H129313   1.261   0.680   5.634
 9790TIP3    H229314   1.354   0.764   5.719
 9791TIP3   OH229315   7.828   1.107   6.747
 9791TIP3    H129316   7.789   1.124   6.833
 9791TIP3    H229317   7.890   1.179   6.734
 9792TIP3   OH229318   3.448   2.496   5.192
 9792TIP3    H129319   3.367   2.512   5.144
 9792TIP3    H229320   3.452   2.401   5.201
 9793TIP3   OH229321   5.134   6.202   5.971
 9793TIP3    H129322   5.168   6.248   6.048
 9793TIP3    H229323   5.211   6.188   5.915
 9794TIP3   OH229324   4.451   4.861   4.056
 9794TIP3    H129325   4.541   4.839   4.079
 9794TIP3    H229326   4.409   4.885   4.139
 9795TIP3   OH229327   0.215   5.902   3.698
 9795TIP3    H129328   0.241   5.852   3.775
 9795TIP3    H229329   0.202   5.991   3.731
 9796TIP3   OH229330   5.575   0.042   1.924
 9796TIP3    H129331   5.652   0.093   1.900
 9796TIP3    H229332   5.605  -0.015   1.995
 9797TIP3   OH229333   0.036   7.822   3.032
 9797TIP3    H129334   0.057   7.762   2.961
 9797TIP3    H229335  -0.047   7.790   3.068
 9798TIP3   OH229336   7.461   5.258   2.295
 9798TIP3    H129337   7.391   5.323   2.288
 9798TIP3    H229338   7.523   5.281   2.226
 9799TIP3   OH229339   6.832   0.706   1.867
 9799TIP3    H129340   6.859   0.644   1.800
 9799TIP3    H229341   6.736   0.706   1.863
 9800TIP3   OH229342   0.472   3.554   3.191
 9800TIP3    H129343   0.444   3.527   3.103
 9800TIP3    H229344   0.455   3.648   3.194
 9801TIP3   OH229345   7.555   6.261   2.005
 9801TIP3    H129346   7.570   6.267   1.910
 9801TIP3    H229347   7.553   6.167   2.023
 9802TIP3   OH229348   7.904   1.426   0.677
 9802TIP3    H129349   7.907   1.431   0.581
 9802TIP3    H229350   7.828   1.479   0.701
 9803TIP3   OH229351   0.511   1.471   6.153
 9803TIP3    H129352   0.471   1.434   6.232
 9803TIP3    H229353   0.525   1.563   6.175
 9804TIP3   OH229354   0.593   5.302   5.416
 9804TIP3    H129355   0.662   5.303   5.349
 9804TIP3    H229356   0.630   5.249   5.487
 9805TIP3   OH229357   8.023   1.656   4.996
 9805TIP3    H129358   8.039   1.658   4.901
 9805TIP3    H229359   7.944   1.709   5.008
 9806TIP3   OH229360   7.401   6.239   1.121
 9806TIP3    H129361   7.357   6.307   1.070
 9806TIP3    H229362   7.434   6.178   1.056
 9807TIP3   OH229363   5.280   0.173   4.267
 9807TIP3    H129364   5.278   0.199   4.175
 9807TIP3    H229365   5.192   0.192   4.300
 9808TIP3   OH229366   0.619   7.705   2.860
 9808TIP3    H129367   0.582   7.646   2.926
 9808TIP3    H229368   0.612   7.657   2.778
 9809TIP3   OH229369   3.569   3.108   2.715
 9809TIP3    H129370   3.607   3.163   2.784
 9809TIP3    H229371   3.478   3.139   2.708
 9810TIP3   OH229372   1.903   1.609   3.250
 9810TIP3    H129373   1.856   1.526   3.239
 9810TIP3    H229374   1.993   1.582   3.271
 9811TIP3   OH229375   2.171   6.579   3.314
 9811TIP3    H129376   2.152   6.550   3.225
 9811TIP3    H229377   2.087   6.612   3.347
 9812TIP3   OH229378   4.968   5.606   4.308
 9812TIP3    H129379   5.048   5.647   4.276
 9812TIP3    H229380   4.909   5.679   4.328
 9813TIP3   OH229381   0.500   1.458   5.064
 9813TIP3    H129382   0.468   1.374   5.097
 9813TIP3    H229383   0.594   1.457   5.082
 9814TIP3   OH229384   0.910   1.184   2.003
 9814TIP3    H129385   0.944   1.237   1.931
 9814TIP3    H229386   0.909   1.243   2.078
 9815TIP3   OH229387   8.126   6.269   5.413
 9815TIP3    H129388   8.195   6.285   5.477
 9815TIP3    H229389   8.095   6.180   5.431
 9816TIP3   OH229390   2.131   1.179   6.768
 9816TIP3    H129391   2.059   1.127   6.731
 9816TIP3    H229392   2.208   1.150   6.719
 9817TIP3   OH229393   5.549   6.453   1.188
 9817TIP3    H129394   5.558   6.361   1.162
 9817TIP3    H229395   5.461   6.459   1.225
 9818TIP3   OH229396   4.353   3.665   4.778
 9818TIP3    H129397   4.379   3.757   4.779
 9818TIP3    H229398   4.435   3.616   4.790
 9819TIP3   OH229399   0.408   0.480   5.887
 9819TIP3    H129400   0.372   0.538   5.820
 9819TIP3    H229401   0.387   0.523   5.970
 9820TIP3   OH229402   6.243   7.072   2.363
 9820TIP3    H129403   6.224   7.165   2.368
 9820TIP3    H229404   6.335   7.067   2.339
 9821TIP3   OH229405   4.940   1.997   2.640
 9821TIP3    H129406   4.909   2.066   2.582
 9821TIP3    H229407   4.934   2.035   2.728
 9822TIP3   OH229408   7.751   6.372   4.894
 9822TIP3    H129409   7.778   6.375   4.802
 9822TIP3    H229410   7.813   6.311   4.935
 9823TIP3   OH229411   2.469   4.302   6.143
 9823TIP3    H129412   2.539   4.345   6.093
 9823TIP3    H229413   2.511   4.273   6.223
 9824TIP3   OH229414   4.803   3.130   4.600
 9824TIP3    H129415   4.892   3.162   4.593
 9824TIP3    H229416   4.757   3.169   4.525
 9825TIP3   OH229417   5.113   1.350   3.142
 9825TIP3    H129418   5.160   1.365   3.059
 9825TIP3    H229419   5.133   1.427   3.195
 9826TIP3   OH229420   2.342   6.204   5.611
 9826TIP3    H129421   2.414   6.177   5.554
 9826TIP3    H229422   2.368   6.290   5.643
 9827TIP3   OH229423   0.809   3.098   0.300
 9827TIP3    H129424   0.734   3.044   0.324
 9827TIP3    H229425   0.843   3.059   0.220
 9828TIP3   OH229426   2.413   4.036   4.765
 9828TIP3    H129427   2.427   3.941   4.772
 9828TIP3    H229428   2.349   4.056   4.834
 9829TIP3   OH229429   1.129   2.305   0.283
 9829TIP3    H129430   1.184   2.368   0.235
 9829TIP3    H229431   1.054   2.356   0.312
 9830TIP3   OH229432   1.120   3.515   1.066
 9830TIP3    H129433   1.170   3.439   1.097
 9830TIP3    H229434   1.089   3.558   1.145
 9831TIP3   OH229435   6.131   6.561   0.818
 9831TIP3    H129436   6.129   6.564   0.914
 9831TIP3    H229437   6.121   6.469   0.796
 9832TIP3   OH229438   1.341   5.154   4.042
 9832TIP3    H129439   1.249   5.174   4.055
 9832TIP3    H229440   1.349   5.133   3.949
 9833TIP3   OH229441   4.062   3.087   6.040
 9833TIP3    H129442   4.125   3.034   5.991
 9833TIP3    H229443   4.102   3.173   6.047
 9834TIP3   OH229444   1.542   6.738   5.049
 9834TIP3    H129445   1.522   6.722   5.141
 9834TIP3    H229446   1.633   6.709   5.039
 9835TIP3   OH229447   7.876   3.693   5.152
 9835TIP3    H129448   7.949   3.733   5.199
 9835TIP3    H229449   7.799   3.744   5.178
 9836TIP3   OH229450   8.248   1.254   1.037
 9836TIP3    H129451   8.249   1.161   1.060
 9836TIP3    H229452   8.187   1.294   1.099
 9837TIP3   OH229453   1.030   0.858   5.175
 9837TIP3    H129454   0.947   0.815   5.155
 9837TIP3    H229455   1.018   0.894   5.263
 9838TIP3   OH229456   3.101   7.315   3.028
 9838TIP3    H129457   3.068   7.226   3.042
 9838TIP3    H229458   3.087   7.359   3.112
 9839TIP3   OH229459   6.882   3.609   2.054
 9839TIP3    H129460   6.944   3.554   2.007
 9839TIP3    H229461   6.860   3.559   2.133
 9840TIP3   OH229462   1.102   3.945   6.560
 9840TIP3    H129463   1.066   3.857   6.570
 9840TIP3    H229464   1.195   3.935   6.579
 9841TIP3   OH229465   0.265   2.494   2.924
 9841TIP3    H129466   0.195   2.472   2.985
 9841TIP3    H229467   0.310   2.568   2.964
 9842TIP3   OH229468   2.052   3.001   0.547
 9842TIP3    H129469   2.030   2.945   0.622
 9842TIP3    H229470   2.000   3.080   0.560
 9843TIP3   OH229471   6.553   0.687   0.454
 9843TIP3    H129472   6.611   0.676   0.379
 9843TIP3    H229473   6.468   0.653   0.424
 9844TIP3   OH229474   5.171   3.485   6.217
 9844TIP3    H129475   5.136   3.568   6.249
 9844TIP3    H229476   5.094   3.437   6.187
 9845TIP3   OH229477   0.511   7.136   0.056
 9845TIP3    H129478   0.496   7.111   0.147
 9845TIP3    H229479   0.605   7.125   0.043
 9846TIP3   OH229480   3.958   4.501   0.390
 9846TIP3    H129481   3.926   4.590   0.375
 9846TIP3    H229482   3.912   4.447   0.326
 9847TIP3   OH229483   5.228   5.400   5.905
 9847TIP3    H129484   5.164   5.470   5.917
 9847TIP3    H229485   5.227   5.351   5.987
 9848TIP3   OH229486   1.162   5.754   4.960
 9848TIP3    H129487   1.209   5.684   5.004
 9848TIP3    H229488   1.124   5.713   4.882
 9849TIP3   OH229489   5.130   4.451   0.096
 9849TIP3    H129490   5.121   4.542   0.123
 9849TIP3    H229491   5.224   4.439   0.083
 9850TIP3   OH229492   0.784   3.430   0.173
 9850TIP3    H129493   0.876   3.411   0.187
 9850TIP3    H229494   0.759   3.376   0.098
 9851TIP3   OH229495   2.854   2.770   6.216
 9851TIP3    H129496   2.850   2.733   6.128
 9851TIP3    H229497   2.945   2.798   6.226
 9852TIP3   OH229498   2.938   0.650   5.014
 9852TIP3    H129499   2.860   0.705   5.010
 9852TIP3    H229500   3.001   0.693   4.957
 9853TIP3   OH229501   0.635   5.574   0.938
 9853TIP3    H129502   0.638   5.488   0.981
 9853TIP3    H229503   0.724   5.608   0.945
 9854TIP3   OH229504   4.343   4.491   6.669
 9854TIP3    H129505   4.424   4.458   6.708
 9854TIP3    H229506   4.337   4.582   6.698
 9855TIP3   OH229507   8.165   5.707   2.332
 9855TIP3    H129508   8.236   5.673   2.277
 9855TIP3    H229509   8.085   5.674   2.290
 9856TIP3   OH229510   7.106   1.298   0.543
 9856TIP3    H129511   7.036   1.356   0.573
 9856TIP3    H229512   7.151   1.348   0.474
 9857TIP3   OH229513   7.190   1.780   2.005
 9857TIP3    H129514   7.240   1.836   2.065
 9857TIP3    H229515   7.103   1.776   2.043
 9858TIP3   OH229516   4.731   3.777   0.907
 9858TIP3    H129517   4.738   3.850   0.968
 9858TIP3    H229518   4.667   3.718   0.947
 9859TIP3   OH229519   6.095   6.287   0.353
 9859TIP3    H129520   6.105   6.204   0.307
 9859TIP3    H229521   6.184   6.316   0.372
 9860TIP3   OH229522   2.480   4.467   3.597
 9860TIP3    H129523   2.487   4.561   3.615
 9860TIP3    H229524   2.565   4.443   3.562
 9861TIP3   OH229525   4.214   1.892   4.274
 9861TIP3    H129526   4.133   1.940   4.287
 9861TIP3    H229527   4.187   1.802   4.256
 9862TIP3   OH229528   6.794   3.851   4.796
 9862TIP3    H129529   6.746   3.899   4.863
 9862TIP3    H229530   6.874   3.902   4.783
 9863TIP3   OH229531   0.096   3.250   6.398
 9863TIP3    H129532   0.017   3.287   6.437
 9863TIP3    H229533   0.113   3.171   6.449
 9864TIP3   OH229534   4.970   6.150   0.095
 9864TIP3    H129535   4.933   6.140   0.007
 9864TIP3    H229536   5.058   6.185   0.079
 9865TIP3   OH229537   7.510   1.270   4.009
 9865TIP3    H129538   7.586   1.327   3.998
 9865TIP3    H229539   7.484   1.282   4.100
 9866TIP3   OH229540   4.654   1.018   6.469
 9866TIP3    H129541   4.628   1.104   6.436
 9866TIP3    H229542   4.700   0.977   6.396
 9867TIP3   OH229543   7.183   1.853   1.460
 9867TIP3    H129544   7.168   1.859   1.365
 9867TIP3    H229545   7.108   1.897   1.499
 9868TIP3   OH229546   1.995   4.488   3.152
 9868TIP3    H129547   2.029   4.567   3.110
 9868TIP3    H229548   2.017   4.500   3.245
 9869TIP3   OH229549   4.406   7.304   0.592
 9869TIP3    H129550   4.432   7.378   0.646
 9869TIP3    H229551   4.489   7.263   0.566
 9870TIP3   OH229552   2.569   7.404   0.975
 9870TIP3    H129553   2.535   7.491   0.999
 9870TIP3    H229554   2.658   7.421   0.944
 9871TIP3   OH229555   0.671   2.377   3.558
 9871TIP3    H129556   0.625   2.455   3.527
 9871TIP3    H229557   0.647   2.309   3.495
 9872TIP3   OH229558   4.651   4.850   2.978
 9872TIP3    H129559   4.657   4.926   3.035
 9872TIP3    H229560   4.734   4.804   2.989
 9873TIP3   OH229561   6.218   2.296   4.119
 9873TIP3    H129562   6.242   2.354   4.192
 9873TIP3    H229563   6.133   2.260   4.144
 9874TIP3   OH229564   5.634   2.579   5.298
 9874TIP3    H129565   5.587   2.570   5.380
 9874TIP3    H229566   5.605   2.504   5.246
 9875TIP3   OH229567   6.241   2.047   6.280
 9875TIP3    H129568   6.302   2.106   6.235
 9875TIP3    H229569   6.296   1.999   6.342
 9876TIP3   OH229570   3.956   3.478   4.677
 9876TIP3    H129571   3.878   3.430   4.705
 9876TIP3    H229572   3.969   3.451   4.586
 9877TIP3   OH229573   7.060   4.091   2.711
 9877TIP3    H129574   7.013   4.155   2.659
 9877TIP3    H229575   7.007   4.011   2.705
 9878TIP3   OH229576   6.383   0.947   2.852
 9878TIP3    H129577   6.447   1.007   2.814
 9878TIP3    H229578   6.309   0.949   2.792
 9879TIP3   OH229579   2.839   0.743   2.365
 9879TIP3    H129580   2.795   0.659   2.353
 9879TIP3    H229581   2.862   0.745   2.458
 9880TIP3   OH229582   8.146   3.165   6.591
 9880TIP3    H129583   8.185   3.083   6.620
 9880TIP3    H229584   8.121   3.210   6.672
 9881TIP3   OH229585   6.576   3.308   2.389
 9881TIP3    H129586   6.490   3.336   2.419
 9881TIP3    H229587   6.582   3.341   2.299
 9882TIP3   OH229588   6.430   5.997   0.247
 9882TIP3    H129589   6.413   5.904   0.229
 9882TIP3    H229590   6.344   6.033   0.270
 9883TIP3   OH229591   5.276   0.095   2.118
 9883TIP3    H129592   5.343   0.067   2.180
 9883TIP3    H229593   5.226   0.016   2.100
 9884TIP3   OH229594   0.908   7.542   5.430
 9884TIP3    H129595   0.865   7.509   5.351
 9884TIP3    H229596   0.846   7.523   5.501
 9885TIP3   OH229597   1.065   2.730   0.077
 9885TIP3    H129598   1.020   2.766   0.000
 9885TIP3    H229599   1.070   2.803   0.138
 9886TIP3   OH229600   7.447   5.086   0.925
 9886TIP3    H129601   7.502   5.033   0.867
 9886TIP3    H229602   7.508   5.147   0.967
 9887TIP3   OH229603   3.160   7.434   2.309
 9887TIP3    H129604   3.150   7.344   2.278
 9887TIP3    H229605   3.207   7.426   2.392
 9888TIP3   OH229606   3.703   4.073   0.251
 9888TIP3    H129607   3.690   3.991   0.299
 9888TIP3    H229608   3.702   4.047   0.158
 9889TIP3   OH229609   0.192   3.009   6.533
 9889TIP3    H129610   0.210   2.960   6.613
 9889TIP3    H229611   0.214   2.949   6.462
 9890TIP3   OH229612   2.768   3.123   5.644
 9890TIP3    H129613   2.783   3.053   5.707
 9890TIP3    H229614   2.706   3.182   5.688
 9891TIP3   OH229615   0.940   2.885   2.799
 9891TIP3    H129616   1.026   2.916   2.829
 9891TIP3    H229617   0.938   2.908   2.706
 9892TIP3   OH229618   0.235   0.483   0.019
 9892TIP3    H129619   0.308   0.444   0.066
 9892TIP3    H229620   0.233   0.574   0.048
 9893TIP3   OH229621   4.212   6.250   4.699
 9893TIP3    H129622   4.202   6.344   4.688
 9893TIP3    H229623   4.206   6.215   4.610
 9894TIP3   OH229624   8.007   6.021   5.416
 9894TIP3    H129625   7.920   6.013   5.375
 9894TIP3    H229626   8.045   5.934   5.408
 9895TIP3   OH229627   5.020   1.531   4.689
 9895TIP3    H129628   5.078   1.606   4.703
 9895TIP3    H229629   4.984   1.545   4.601
 9896TIP3   OH229630   3.505   1.867   5.837
 9896TIP3    H129631   3.469   1.954   5.857
 9896TIP3    H229632   3.587   1.863   5.887
 9897TIP3   OH229633   2.504   6.234   2.746
 9897TIP3    H129634   2.445   6.300   2.709
 9897TIP3    H229635   2.591   6.263   2.720
 9898TIP3   OH229636   6.643   1.351   3.463
 9898TIP3    H129637   6.672   1.436   3.495
 9898TIP3    H229638   6.549   1.350   3.481
 9899TIP3   OH229639   6.293   5.658   2.308
 9899TIP3    H129640   6.316   5.566   2.316
 9899TIP3    H229641   6.339   5.687   2.229
 9900TIP3   OH229642   6.118   2.002   1.647
 9900TIP3    H129643   6.112   2.010   1.552
 9900TIP3    H229644   6.141   1.910   1.662
 9901TIP3   OH229645   4.744   1.918   0.235
 9901TIP3    H129646   4.821   1.864   0.255
 9901TIP3    H229647   4.692   1.916   0.315
 9902TIP3   OH229648   6.709   3.983   5.040
 9902TIP3    H129649   6.656   4.063   5.041
 9902TIP3    H229650   6.671   3.929   5.109
 9903TIP3   OH229651   1.225   0.015   0.133
 9903TIP3    H129652   1.276   0.095   0.119
 9903TIP3    H229653   1.166   0.010   0.058
 9904TIP3   OH229654   3.081   1.914   4.633
 9904TIP3    H129655   3.176   1.913   4.624
 9904TIP3    H229656   3.063   1.983   4.696
 9905TIP3   OH229657   7.921   7.650   1.324
 9905TIP3    H129658   8.001   7.634   1.275
 9905TIP3    H229659   7.853   7.603   1.277
 9906TIP3   OH229660   8.203   0.144   3.703
 9906TIP3    H129661   8.123   0.193   3.686
 9906TIP3    H229662   8.177   0.052   3.694
 9907TIP3   OH229663   4.185   3.357   2.716
 9907TIP3    H129664   4.104   3.308   2.732
 9907TIP3    H229665   4.250   3.289   2.694
 9908TIP3   OH229666   7.166   4.169   0.256
 9908TIP3    H129667   7.113   4.103   0.301
 9908TIP3    H229668   7.124   4.178   0.170
 9909TIP3   OH229669   2.997   6.537   0.624
 9909TIP3    H129670   2.991   6.465   0.687
 9909TIP3    H229671   3.036   6.609   0.675
 9910TIP3   OH229672   1.716   1.380   0.931
 9910TIP3    H129673   1.776   1.354   1.001
 9910TIP3    H229674   1.629   1.375   0.971
 9911TIP3   OH229675   3.292   4.724   4.542
 9911TIP3    H129676   3.196   4.722   4.541
 9911TIP3    H229677   3.318   4.658   4.477
 9912TIP3   OH229678   5.075   6.211   2.002
 9912TIP3    H129679   5.067   6.121   2.034
 9912TIP3    H229680   5.147   6.208   1.939
 9913TIP3   OH229681   6.401   3.714   1.545
 9913TIP3    H129682   6.443   3.643   1.593
 9913TIP3    H229683   6.307   3.699   1.556
 9914TIP3   OH229684   5.170   4.691   3.779
 9914TIP3    H129685   5.173   4.696   3.875
 9914TIP3    H229686   5.242   4.748   3.750
 9915TIP3   OH229687   4.065   6.698   0.680
 9915TIP3    H129688   4.077   6.643   0.757
 9915TIP3    H229689   4.078   6.639   0.606
 9916TIP3   OH229690   2.229   0.686   5.083
 9916TIP3    H129691   2.231   0.598   5.122
 9916TIP3    H229692   2.150   0.726   5.118
 9917TIP3   OH229693   7.609   0.396   5.669
 9917TIP3    H129694   7.571   0.345   5.740
 9917TIP3    H229695   7.626   0.332   5.600
 9918TIP3   OH229696   7.074   4.298   5.692
 9918TIP3    H129697   7.051   4.223   5.746
 9918TIP3    H229698   6.997   4.355   5.695
 9919TIP3   OH229699   0.221   3.989   0.776
 9919TIP3    H129700   0.152   4.011   0.838
 9919TIP3    H229701   0.281   4.064   0.779
 9920TIP3   OH229702   2.254   1.270   6.072
 9920TIP3    H129703   2.262   1.343   6.010
 9920TIP3    H229704   2.311   1.202   6.036
 9921TIP3   OH229705   3.978   6.016   5.900
 9921TIP3    H129706   4.001   6.104   5.872
 9921TIP3    H229707   4.009   6.011   5.991
 9922TIP3   OH229708   6.628   4.176   6.213
 9922TIP3    H129709   6.615   4.239   6.143
 9922TIP3    H229710   6.579   4.211   6.287
 9923TIP3   OH229711   2.074   5.668   1.966
 9923TIP3    H129712   2.092   5.741   2.024
 9923TIP3    H229713   2.065   5.592   2.024
 9924TIP3   OH229714   7.195   1.965   1.168
 9924TIP3    H129715   7.266   2.029   1.174
 9924TIP3    H229716   7.130   2.007   1.112
 9925TIP3   OH229717   1.779   3.884   4.717
 9925TIP3    H129718   1.861   3.914   4.679
 9925TIP3    H229719   1.742   3.824   4.652
 9926TIP3   OH229720   8.178   6.203   1.546
 9926TIP3    H129721   8.097   6.153   1.560
 9926TIP3    H229722   8.247   6.138   1.545
 9927TIP3   OH229723   0.407   1.299   3.225
 9927TIP3    H129724   0.428   1.244   3.150
 9927TIP3    H229725   0.327   1.260   3.262
 9928TIP3   OH229726   3.692   2.622   1.302
 9928TIP3    H129727   3.645   2.542   1.325
 9928TIP3    H229728   3.624   2.688   1.295
 9929TIP3   OH229729   3.013   6.371   4.766
 9929TIP3    H129730   3.094   6.421   4.779
 9929TIP3    H229731   2.964   6.385   4.847
 9930TIP3   OH229732   2.785   4.209   4.919
 9930TIP3    H129733   2.746   4.184   4.836
 9930TIP3    H229734   2.878   4.217   4.901
 9931TIP3   OH229735   2.723   0.199   5.107
 9931TIP3    H129736   2.787   0.128   5.107
 9931TIP3    H229737   2.752   0.257   5.036
 9932TIP3   OH229738   7.180   3.946   5.744
 9932TIP3    H129739   7.199   4.001   5.821
 9932TIP3    H229740   7.206   4.000   5.670
 9933TIP3   OH229741   0.596   0.701   0.243
 9933TIP3    H129742   0.501   0.694   0.253
 9933TIP3    H229743   0.608   0.777   0.186
 9934TIP3   OH229744   5.793   5.581   1.120
 9934TIP3    H129745   5.708   5.536   1.120
 9934TIP3    H229746   5.775   5.666   1.081
 9935TIP3   OH229747   1.054   6.941   1.730
 9935TIP3    H129748   1.122   6.942   1.797
 9935TIP3    H229749   1.098   6.972   1.650
 9936TIP3   OH229750   4.371   1.807   2.650
 9936TIP3    H129751   4.464   1.819   2.670
 9936TIP3    H229752   4.346   1.886   2.602
 9937TIP3   OH229753   6.362   4.191   1.376
 9937TIP3    H129754   6.385   4.162   1.465
 9937TIP3    H229755   6.440   4.172   1.324
 9938TIP3   OH229756   6.312   0.516   1.450
 9938TIP3    H129757   6.325   0.569   1.371
 9938TIP3    H229758   6.247   0.451   1.424
 9939TIP3   OH229759   0.584   2.658   3.480
 9939TIP3    H129760   0.666   2.663   3.432
 9939TIP3    H229761   0.528   2.603   3.425
 9940TIP3   OH229762   7.768   3.425   0.556
 9940TIP3    H129763   7.752   3.438   0.462
 9940TIP3    H229764   7.861   3.403   0.562
 9941TIP3   OH229765   1.232   6.639   2.223
 9941TIP3    H129766   1.216   6.695   2.300
 9941TIP3    H229767   1.195   6.554   2.247
 9942TIP3   OH229768   3.338   1.317   2.402
 9942TIP3    H129769   3.267   1.331   2.465
 9942TIP3    H229770   3.412   1.287   2.455
 9943TIP3   OH229771   2.602   1.235   1.986
 9943TIP3    H129772   2.661   1.179   2.037
 9943TIP3    H229773   2.515   1.205   2.010
 9944TIP3   OH229774   7.468   6.041   4.744
 9944TIP3    H129775   7.555   6.018   4.777
 9944TIP3    H229776   7.450   6.127   4.783
 9945TIP3   OH229777   0.987   5.130   6.232
 9945TIP3    H129778   0.936   5.202   6.268
 9945TIP3    H229779   0.942   5.107   6.150
 9946TIP3   OH229780   1.549   3.525   2.869
 9946TIP3    H129781   1.627   3.570   2.836
 9946TIP3    H229782   1.556   3.436   2.834
 9947TIP3   OH229783   8.263   5.332   1.151
 9947TIP3    H129784   8.270   5.238   1.171
 9947TIP3    H229785   8.176   5.340   1.110
 9948TIP3   OH229786   1.212   3.325   4.239
 9948TIP3    H129787   1.278   3.384   4.275
 9948TIP3    H229788   1.243   3.238   4.262
 9949TIP3   OH229789   7.621   7.757   0.845
 9949TIP3    H129790   7.650   7.836   0.890
 9949TIP3    H229791   7.658   7.765   0.757
 9950TIP3   OH229792   3.076   5.686   1.187
 9950TIP3    H129793   3.112   5.762   1.233
 9950TIP3    H229794   3.041   5.722   1.105
 9951TIP3   OH229795   6.379   6.292   4.329
 9951TIP3    H129796   6.416   6.309   4.416
 9951TIP3    H229797   6.315   6.222   4.344
 9952TIP3   OH229798   5.431   3.732   1.519
 9952TIP3    H129799   5.377   3.715   1.596
 9952TIP3    H229800   5.426   3.826   1.506
 9953TIP3   OH229801   3.170   4.692   3.175
 9953TIP3    H129802   3.234   4.762   3.187
 9953TIP3    H229803   3.205   4.619   3.226
 9954TIP3   OH229804   8.245   6.665   2.150
 9954TIP3    H129805   8.205   6.715   2.079
 9954TIP3    H229806   8.336   6.654   2.124
 9955TIP3   OH229807   3.042   2.093   6.296
 9955TIP3    H129808   3.097   2.162   6.260
 9955TIP3    H229809   3.060   2.017   6.240
 9956TIP3   OH229810   2.275   0.551   2.063
 9956TIP3    H129811   2.366   0.521   2.065
 9956TIP3    H229812   2.271   0.617   2.132
 9957TIP3   OH229813   3.459   7.424   0.535
 9957TIP3    H129814   3.519   7.373   0.480
 9957TIP3    H229815   3.418   7.486   0.475
 9958TIP3   OH229816   2.255   0.866   3.188
 9958TIP3    H129817   2.218   0.906   3.110
 9958TIP3    H229818   2.236   0.928   3.258
 9959TIP3   OH229819   6.349   0.290   0.390
 9959TIP3    H129820   6.431   0.269   0.435
 9959TIP3    H229821   6.343   0.385   0.395
 9960TIP3   OH229822   3.423   0.867   5.315
 9960TIP3    H129823   3.401   0.959   5.333
 9960TIP3    H229824   3.413   0.823   5.400
 9961TIP3   OH229825   3.262   3.233   3.131
 9961TIP3    H129826   3.240   3.155   3.080
 9961TIP3    H229827   3.184   3.288   3.125
 9962TIP3   OH229828   4.271   5.742   0.677
 9962TIP3    H129829   4.319   5.674   0.630
 9962TIP3    H229830   4.282   5.719   0.769
 9963TIP3   OH229831   5.665   1.806   2.964
 9963TIP3    H129832   5.589   1.860   2.942
 9963TIP3    H229833   5.733   1.833   2.902
 9964TIP3   OH229834   5.467   1.240   4.223
 9964TIP3    H129835   5.446   1.205   4.310
 9964TIP3    H229836   5.442   1.332   4.227
 9965TIP3   OH229837   8.040   1.320   3.429
 9965TIP3    H129838   7.992   1.256   3.482
 9965TIP3    H229839   8.040   1.400   3.482
 9966TIP3   OH229840   4.340   4.085   1.349
 9966TIP3    H129841   4.387   4.126   1.277
 9966TIP3    H229842   4.280   4.024   1.308
 9967TIP3   OH229843   0.676   5.075   1.432
 9967TIP3    H129844   0.728   4.999   1.407
 9967TIP3    H229845   0.627   5.097   1.353
 9968TIP3   OH229846   3.060   6.818   1.461
 9968TIP3    H129847   3.037   6.770   1.541
 9968TIP3    H229848   3.087   6.905   1.493
 9969TIP3   OH229849   1.005   4.201   6.630
 9969TIP3    H129850   0.912   4.183   6.614
 9969TIP3    H229851   1.052   4.136   6.577
 9970TIP3   OH229852   6.355   0.678   1.222
 9970TIP3    H129853   6.318   0.720   1.145
 9970TIP3    H229854   6.354   0.747   1.289
 9971TIP3   OH229855   3.057   4.978   1.632
 9971TIP3    H129856   3.041   4.970   1.726
 9971TIP3    H229857   3.133   4.922   1.616
 9972TIP3   OH229858   2.108   3.224   6.730
 9972TIP3    H129859   2.035   3.285   6.721
 9972TIP3    H229860   2.176   3.260   6.673
 9973TIP3   OH229861   7.769   1.991   3.376
 9973TIP3    H129862   7.826   2.026   3.444
 9973TIP3    H229863   7.695   1.953   3.423
 9974TIP3   OH229864   6.637   4.170   4.309
 9974TIP3    H129865   6.557   4.178   4.361
 9974TIP3    H229866   6.616   4.213   4.226
 9975TIP3   OH229867   1.009   0.488   6.135
 9975TIP3    H129868   1.052   0.554   6.081
 9975TIP3    H229869   1.043   0.404   6.103
 9976TIP3   OH229870   5.827   2.879   2.934
 9976TIP3    H129871   5.764   2.944   2.904
 9976TIP3    H229872   5.785   2.795   2.916
 9977TIP3   OH229873   1.324   1.256   3.766
 9977TIP3    H129874   1.380   1.319   3.719
 9977TIP3    H229875   1.240   1.301   3.773
 9978TIP3   OH229876   4.596   0.289   0.110
 9978TIP3    H129877   4.579   0.220   0.173
 9978TIP3    H229878   4.641   0.245   0.038
 9979TIP3   OH229879   7.755   6.179   5.312
 9979TIP3    H129880   7.705   6.193   5.232
 9979TIP3    H229881   7.761   6.266   5.351
 9980TIP3   OH229882   7.249   3.704   3.636
 9980TIP3    H129883   7.198   3.655   3.570
 9980TIP3    H229884   7.184   3.759   3.680
 9981TIP3   OH229885   1.606   2.993   1.299
 9981TIP3    H129886   1.673   2.924   1.289
 9981TIP3    H229887   1.598   3.031   1.212
 9982TIP3   OH229888   0.560   5.238   4.278
 9982TIP3    H129889   0.500   5.262   4.207
 9982TIP3    H229890   0.517   5.267   4.358
 9983TIP3   OH229891   6.537   2.721   0.949
 9983TIP3    H129892   6.622   2.743   0.910
 9983TIP3    H229893   6.554   2.639   0.996
 9984TIP3   OH229894   7.027   2.577   5.803
 9984TIP3    H129895   7.097   2.631   5.840
 9984TIP3    H229896   6.970   2.640   5.759
 9985TIP3   OH229897   5.828   5.646   6.140
 9985TIP3    H129898   5.861   5.709   6.203
 9985TIP3    H229899   5.755   5.603   6.184
 9986TIP3   OH229900   2.065   3.526   3.905
 9986TIP3    H129901   2.116   3.452   3.872
 9986TIP3    H229902   1.979   3.490   3.922
 9987TIP3   OH229903   7.120   5.482   6.536
 9987TIP3    H129904   7.156   5.409   6.587
 9987TIP3    H229905   7.193   5.544   6.528
 9988TIP3   OH229906   2.132   2.113   6.325
 9988TIP3    H129907   2.196   2.083   6.261
 9988TIP3    H229908   2.099   2.195   6.289
 9989TIP3   OH229909   3.886   4.774   6.546
 9989TIP3    H129910   3.976   4.806   6.543
 9989TIP3    H229911   3.868   4.747   6.456
 9990TIP3   OH229912   7.769   6.569   4.085
 9990TIP3    H129913   7.762   6.476   4.066
 9990TIP3    H229914   7.678   6.600   4.089
 9991TIP3   OH229915   1.102   3.613   5.856
 9991TIP3    H129916   1.025   3.666   5.878
 9991TIP3    H229917   1.140   3.657   5.780
 9992TIP3   OH229918   5.797   1.710   4.785
 9992TIP3    H129919   5.715   1.701   4.834
 9992TIP3    H229920   5.804   1.629   4.735
 9993TIP3   OH229921   2.224   1.335   0.253
 9993TIP3    H129922   2.190   1.352   0.165
 9993TIP3    H229923   2.148   1.344   0.310
 9994TIP3   OH229924   2.129   4.696   0.952
 9994TIP3    H129925   2.076   4.764   0.912
 9994TIP3    H229926   2.161   4.643   0.879
 9995TIP3   OH229927   3.785   3.867   5.123
 9995TIP3    H129928   3.830   3.829   5.199
 9995TIP3    H229929   3.808   3.808   5.050
 9996TIP3   OH229930   0.222   6.600   2.237
 9996TIP3    H129931   0.260   6.576   2.321
 9996TIP3    H229932   0.298   6.614   2.179
 9997TIP3   OH229933   0.488   5.710   0.247
 9997TIP3    H129934   0.446   5.658   0.316
 9997TIP3    H229935   0.546   5.770   0.293
 9998TIP3   OH229936   7.099   2.281   0.578
 9998TIP3    H129937   7.013   2.279   0.621
 9998TIP3    H229938   7.152   2.337   0.634
 9999TIP3   OH229939   0.415   0.044   4.436
 9999TIP3    H129940   0.351  -0.025   4.454
 9999TIP3    H229941   0.363   0.117   4.403
10000TIP3   OH229942   1.387   2.501   3.761
10000TIP3    H129943   1.293   2.498   3.778
10000TIP3    H229944   1.400   2.442   3.687
10001TIP3   OH229945   5.780   3.253   5.013
10001TIP3    H129946   5.819   3.320   5.069
10001TIP3    H229947   5.778   3.174   5.068
10002TIP3   OH229948   2.803   0.316   1.043
10002TIP3    H129949   2.754   0.398   1.049
10002TIP3    H229950   2.791   0.275   1.128
10003TIP3   OH229951   3.125   3.282   6.716
10003TIP3    H129952   3.211   3.270   6.676
10003TIP3    H229953   3.107   3.199   6.760
10004TIP3   OH229954   6.841   5.405   5.667
10004TIP3    H129955   6.885   5.405   5.752
10004TIP3    H229956   6.783   5.481   5.671
10005TIP3   OH229957   0.157   6.519   3.143
10005TIP3    H129958   0.066   6.542   3.125
10005TIP3    H229959   0.208   6.594   3.110
10006TIP3   OH229960   5.733   3.166   3.160
10006TIP3    H129961   5.703   3.118   3.083
10006TIP3    H229962   5.654   3.179   3.212
10007TIP3   OH229963   5.210   1.089   2.892
10007TIP3    H129964   5.119   1.075   2.917
10007TIP3    H229965   5.214   1.061   2.800
10008TIP3   OH229966   7.089   6.926   4.922
10008TIP3    H129967   7.118   6.840   4.890
10008TIP3    H229968   7.086   6.916   5.017
10009TIP3   OH229969   1.014   7.035   2.268
10009TIP3    H129970   0.957   6.965   2.301
10009TIP3    H229971   0.996   7.110   2.326
10010TIP3   OH229972   7.379   1.809   0.088
10010TIP3    H129973   7.440   1.824   0.161
10010TIP3    H229974   7.402   1.723   0.054
10011TIP3   OH229975   0.481   0.903   2.850
10011TIP3    H129976   0.411   0.922   2.788
10011TIP3    H229977   0.436   0.877   2.930
10012TIP3   OH229978   0.807   0.170   3.016
10012TIP3    H129979   0.774   0.135   2.933
10012TIP3    H229980   0.733   0.162   3.076
10013TIP3   OH229981   6.464   1.131   3.778
10013TIP3    H129982   6.549   1.121   3.736
10013TIP3    H229983   6.481   1.186   3.855
10014TIP3   OH229984   6.826   1.605   3.311
10014TIP3    H129985   6.890   1.598   3.381
10014TIP3    H229986   6.744   1.625   3.355
10015TIP3   OH229987   7.272   0.877   3.214
10015TIP3    H129988   7.199   0.888   3.275
10015TIP3    H229989   7.347   0.854   3.269
10016TIP3   OH229990   0.630   6.376   4.320
10016TIP3    H129991   0.566   6.309   4.344
10016TIP3    H229992   0.689   6.381   4.395
10017TIP3   OH229993   8.116   6.653   4.097
10017TIP3    H129994   8.056   6.668   4.025
10017TIP3    H229995   8.203   6.661   4.059
10018TIP3   OH229996   6.412   4.115   2.690
10018TIP3    H129997   6.482   4.109   2.626
10018TIP3    H229998   6.397   4.209   2.701
10019TIP3   OH229999   4.897   4.934   1.228
10019TIP3    H130000   4.988   4.924   1.198
10019TIP3    H230001   4.871   5.021   1.197
10020TIP3   OH230002   7.221   6.953   6.185
10020TIP3    H130003   7.127   6.955   6.204
10020TIP3    H230004   7.253   7.038   6.214
10021TIP3   OH230005   2.904   4.076   2.910
10021TIP3    H130006   2.880   4.055   2.820
10021TIP3    H230007   2.984   4.026   2.926
10022TIP3   OH230008   1.535   1.951   5.687
10022TIP3    H130009   1.462   2.001   5.651
10022TIP3    H230010   1.520   1.862   5.656
10023TIP3   OH230011   3.641   6.725   1.854
10023TIP3    H130012   3.653   6.817   1.878
10023TIP3    H230013   3.557   6.723   1.809
10024TIP3   OH230014   0.492   1.757   5.967
10024TIP3    H130015   0.532   1.823   5.909
10024TIP3    H230016   0.497   1.675   5.917
10025TIP3   OH230017   3.580   4.457   6.702
10025TIP3    H130018   3.587   4.500   6.616
10025TIP3    H230019   3.657   4.401   6.706
10026TIP3   OH230020   2.939   0.093   3.754
10026TIP3    H130021   2.947   0.038   3.676
10026TIP3    H230022   2.894   0.037   3.818
10027TIP3   OH230023   5.787   2.088   5.549
10027TIP3    H130024   5.704   2.133   5.563
10027TIP3    H230025   5.773   2.034   5.472
10028TIP3   OH230026   6.717   5.044   3.922
10028TIP3    H130027   6.624   5.025   3.934
10028TIP3    H230028   6.747   4.978   3.860
10029TIP3   OH230029   7.109   5.010   0.298
10029TIP3    H130030   7.027   4.964   0.317
10029TIP3    H230031   7.081   5.092   0.257
10030TIP3   OH230032   5.923   7.355   3.614
10030TIP3    H130033   6.000   7.299   3.603
10030TIP3    H230034   5.959   7.440   3.640
10031TIP3   OH230035   0.394   1.418   1.298
10031TIP3    H130036   0.309   1.373   1.292
10031TIP3    H230037   0.453   1.364   1.247
10032TIP3   OH230038   7.659   0.688   4.526
10032TIP3    H130039   7.670   0.595   4.546
10032TIP3    H230040   7.598   0.690   4.453
10033TIP3   OH230041   3.110   5.596   4.550
10033TIP3    H130042   3.194   5.615   4.591
10033TIP3    H230043   3.094   5.504   4.570
10034TIP3   OH230044   8.020   4.031   2.724
10034TIP3    H130045   8.016   4.085   2.803
10034TIP3    H230046   8.106   3.990   2.728
10035TIP3   OH230047   4.908   4.351   1.867
10035TIP3    H130048   4.922   4.341   1.773
10035TIP3    H230049   4.995   4.364   1.903
10036TIP3   OH230050   6.864   5.974   2.546
10036TIP3    H130051   6.805   5.998   2.475
10036TIP3    H230052   6.950   5.970   2.505
10037TIP3   OH230053   6.686   6.014   1.674
10037TIP3    H130054   6.688   6.061   1.591
10037TIP3    H230055   6.634   5.936   1.656
10038TIP3   OH230056   5.294   2.201   0.769
10038TIP3    H130057   5.345   2.211   0.849
10038TIP3    H230058   5.205   2.225   0.795
10039TIP3   OH230059   2.375   4.599   5.858
10039TIP3    H130060   2.351   4.607   5.766
10039TIP3    H230061   2.468   4.620   5.860
10040TIP3   OH230062   5.737   4.918   4.351
10040TIP3    H130063   5.822   4.929   4.395
10040TIP3    H230064   5.744   4.969   4.271
10041TIP3   OH230065   1.621   3.582   5.672
10041TIP3    H130066   1.547   3.627   5.714
10041TIP3    H230067   1.692   3.645   5.675
10042TIP3   OH230068   3.987   1.804   1.767
10042TIP3    H130069   3.926   1.741   1.805
10042TIP3    H230070   3.932   1.858   1.709
10043TIP3   OH230071   2.048   0.360   5.724
10043TIP3    H130072   2.122   0.401   5.768
10043TIP3    H230073   2.064   0.376   5.631
10044TIP3   OH230074   7.049   5.820   3.932
10044TIP3    H130075   7.015   5.754   3.871
10044TIP3    H230076   6.973   5.873   3.955
10045TIP3   OH230077   0.312   4.747   3.930
10045TIP3    H130078   0.377   4.813   3.951
10045TIP3    H230079   0.273   4.777   3.848
10046TIP3   OH230080   6.595   5.164   6.744
10046TIP3    H130081   6.641   5.111   6.679
10046TIP3    H230082   6.624   5.128   6.828
10047TIP3   OH230083   0.639   5.967   4.770
10047TIP3    H130084   0.663   5.901   4.705
10047TIP3    H230085   0.719   5.981   4.820
10048TIP3   OH230086   7.009   2.088   2.616
10048TIP3    H130087   7.006   2.110   2.709
10048TIP3    H230088   7.028   2.171   2.571
10049TIP3   OH230089   6.610   3.942   3.989
10049TIP3    H130090   6.653   4.028   3.985
10049TIP3    H230091   6.617   3.908   3.900
10050TIP3   OH230092   2.887   0.398   2.181
10050TIP3    H130093   2.934   0.412   2.263
10050TIP3    H230094   2.865   0.486   2.150
10051TIP3   OH230095   7.041   5.531   4.336
10051TIP3    H130096   7.017   5.472   4.264
10051TIP3    H230097   7.094   5.599   4.295
10052TIP3   OH230098   3.959   1.078   0.932
10052TIP3    H130099   3.962   0.983   0.947
10052TIP3    H230100   3.885   1.108   0.986
10053TIP3   OH230101   6.038   2.804   2.022
10053TIP3    H130102   6.029   2.712   2.048
10053TIP3    H230103   5.985   2.812   1.942
10054TIP3   OH230104   4.162   6.280   1.780
10054TIP3    H130105   4.194   6.189   1.778
10054TIP3    H230106   4.080   6.277   1.732
10055TIP3   OH230107   7.925   2.200   4.610
10055TIP3    H130108   7.977   2.179   4.532
10055TIP3    H230109   7.952   2.289   4.633
10056TIP3   OH230110   3.874   2.119   3.404
10056TIP3    H130111   3.824   2.037   3.394
10056TIP3    H230112   3.831   2.165   3.476
10057TIP3   OH230113   1.276   4.468   1.460
10057TIP3    H130114   1.347   4.485   1.399
10057TIP3    H230115   1.208   4.425   1.408
10058TIP3   OH230116   4.533   6.328   3.956
10058TIP3    H130117   4.496   6.339   3.869
10058TIP3    H230118   4.612   6.381   3.956
10059TIP3   OH230119   3.825   6.094   3.488
10059TIP3    H130120   3.800   6.015   3.536
10059TIP3    H230121   3.880   6.142   3.550
10060TIP3   OH230122   2.469   3.998   0.640
10060TIP3    H130123   2.401   3.965   0.699
10060TIP3    H230124   2.421   4.050   0.575
10061TIP3   OH230125   5.271   4.708   6.404
10061TIP3    H130126   5.331   4.773   6.367
10061TIP3    H230127   5.305   4.692   6.493
10062TIP3   OH230128   1.585   5.681   0.786
10062TIP3    H130129   1.675   5.689   0.818
10062TIP3    H230130   1.538   5.754   0.828
10063TIP3   OH230131   4.345   3.413   1.350
10063TIP3    H130132   4.352   3.507   1.333
10063TIP3    H230133   4.433   3.379   1.335
10064TIP3   OH230134   5.579   4.510   3.848
10064TIP3    H130135   5.621   4.513   3.762
10064TIP3    H230136   5.628   4.442   3.895
10065TIP3   OH230137   7.190   0.681   6.712
10065TIP3    H130138   7.220   0.667   6.801
10065TIP3    H230139   7.269   0.698   6.661
10066TIP3   OH230140   6.892   0.515   4.212
10066TIP3    H130141   6.801   0.537   4.190
10066TIP3    H230142   6.938   0.517   4.128
10067TIP3   OH230143   3.410   7.472   1.137
10067TIP3    H130144   3.453   7.516   1.063
10067TIP3    H230145   3.406   7.380   1.111
10068TIP3   OH230146   4.514   4.545   3.378
10068TIP3    H130147   4.577   4.482   3.416
10068TIP3    H230148   4.548   4.562   3.290
10069TIP3   OH230149   3.337   5.405   0.253
10069TIP3    H130150   3.376   5.325   0.288
10069TIP3    H230151   3.254   5.414   0.300
10070TIP3   OH230152   7.535   3.222   1.058
10070TIP3    H130153   7.608   3.276   1.028
10070TIP3    H230154   7.461   3.251   1.006
10071TIP3   OH230155   2.414   7.700   1.934
10071TIP3    H130156   2.480   7.630   1.935
10071TIP3    H230157   2.447   7.764   1.871
10072TIP3   OH230158   6.381   0.664   2.340
10072TIP3    H130159   6.420   0.674   2.253
10072TIP3    H230160   6.374   0.569   2.352
10073TIP3   OH230161   4.893   7.780   1.042
10073TIP3    H130162   4.904   7.872   1.065
10073TIP3    H230163   4.834   7.780   0.967
10074TIP3   OH230164   3.093   2.703   5.326
10074TIP3    H130165   3.171   2.694   5.381
10074TIP3    H230166   3.043   2.623   5.343
10075TIP3   OH230167   0.859   0.469   6.496
10075TIP3    H130168   0.772   0.447   6.465
10075TIP3    H230169   0.862   0.565   6.495
10076TIP3   OH230170   6.280   5.898   2.680
10076TIP3    H130171   6.253   5.990   2.671
10076TIP3    H230172   6.373   5.899   2.659
10077TIP3   OH230173   2.792   6.954   1.401
10077TIP3    H130174   2.864   6.892   1.404
10077TIP3    H230175   2.713   6.900   1.396
10078TIP3   OH230176   3.829   5.548   4.360
10078TIP3    H130177   3.798   5.466   4.322
10078TIP3    H230178   3.905   5.523   4.413
10079TIP3   OH230179   7.749   2.552   1.767
10079TIP3    H130180   7.780   2.470   1.806
10079TIP3    H230181   7.824   2.611   1.771
10080TIP3   OH230182   1.398   7.584   4.337
10080TIP3    H130183   1.365   7.674   4.332
10080TIP3    H230184   1.388   7.560   4.429
10081TIP3   OH230185   6.071   2.901   5.107
10081TIP3    H130186   6.019   2.981   5.121
10081TIP3    H230187   6.020   2.832   5.149
10082TIP3   OH230188   4.558   5.934   1.141
10082TIP3    H130189   4.591   5.919   1.230
10082TIP3    H230190   4.511   5.853   1.120
10083TIP3   OH230191   1.773   6.603   5.567
10083TIP3    H130192   1.834   6.564   5.629
10083TIP3    H230193   1.800   6.695   5.561
10084TIP3   OH230194   4.073   4.471   4.403
10084TIP3    H130195   4.099   4.503   4.317
10084TIP3    H230196   4.018   4.395   4.385
10085TIP3   OH230197   0.299   0.757  -0.021
10085TIP3    H130198   0.328   0.797   0.062
10085TIP3    H230199   0.376   0.712  -0.054
10086TIP3   OH230200   1.564   0.990   2.588
10086TIP3    H130201   1.579   1.056   2.520
10086TIP3    H230202   1.479   0.952   2.566
10087TIP3   OH230203   5.324   6.758   5.521
10087TIP3    H130204   5.415   6.765   5.548
10087TIP3    H230205   5.274   6.789   5.596
10088TIP3   OH230206   4.380   5.146   5.800
10088TIP3    H130207   4.465   5.107   5.818
10088TIP3    H230208   4.398   5.224   5.748
10089TIP3   OH230209   4.423   1.824   1.785
10089TIP3    H130210   4.407   1.823   1.880
10089TIP3    H230211   4.461   1.910   1.768
10090TIP3   OH230212   3.952   6.686   6.467
10090TIP3    H130213   3.952   6.780   6.483
10090TIP3    H230214   3.884   6.673   6.401
10091TIP3   OH230215   0.154   0.382   4.717
10091TIP3    H130216   0.103   0.302   4.730
10091TIP3    H230217   0.240   0.361   4.754
10092TIP3   OH230218   0.116   0.907   5.941
10092TIP3    H130219   0.124   0.813   5.925
10092TIP3    H230220   0.196   0.945   5.905
10093TIP3   OH230221   8.307   1.349   6.029
10093TIP3    H130222   8.241   1.399   6.078
10093TIP3    H230223   8.391   1.383   6.060
10094TIP3   OH230224   2.604   6.256   1.352
10094TIP3    H130225   2.653   6.204   1.416
10094TIP3    H230226   2.661   6.260   1.275
10095TIP3   OH230227   1.076   2.487   1.083
10095TIP3    H130228   1.073   2.500   1.178
10095TIP3    H230229   0.987   2.509   1.053
10096TIP3   OH230230   2.771   4.347   4.561
10096TIP3    H130231   2.729   4.266   4.589
10096TIP3    H230232   2.784   4.338   4.467
10097TIP3   OH230233   3.785   0.568   0.723
10097TIP3    H130234   3.864   0.577   0.670
10097TIP3    H230235   3.713   0.573   0.660
10098TIP3   OH230236   1.186   0.519   1.084
10098TIP3    H130237   1.095   0.495   1.101
10098TIP3    H230238   1.219   0.448   1.029
10099TIP3   OH230239   1.858   3.753   5.900
10099TIP3    H130240   1.892   3.836   5.931
10099TIP3    H230241   1.869   3.755   5.805
10100TIP3   OH230242   4.325   1.622   5.337
10100TIP3    H130243   4.415   1.606   5.311
10100TIP3    H230244   4.291   1.681   5.270
10101TIP3   OH230245   2.622   2.853   0.393
10101TIP3    H130246   2.671   2.804   0.328
10101TIP3    H230247   2.631   2.944   0.367
10102TIP3   OH230248   2.574   7.193   3.865
10102TIP3    H130249   2.487   7.182   3.826
10102TIP3    H230250   2.571   7.277   3.910
10103TIP3   OH230251   3.007   5.020   5.788
10103TIP3    H130252   3.078   4.982   5.839
10103TIP3    H230253   3.031   5.112   5.777
10104TIP3   OH230254   3.618   0.062   4.443
10104TIP3    H130255   3.659   0.076   4.528
10104TIP3    H230256   3.539   0.012   4.462
10105TIP3   OH230257   2.850   6.357   4.236
10105TIP3    H130258   2.889   6.414   4.303
10105TIP3    H230259   2.858   6.269   4.272
10106TIP3   OH230260   7.165   7.053   1.115
10106TIP3    H130261   7.210   7.064   1.031
10106TIP3    H230262   7.212   7.112   1.175
10107TIP3   OH230263   3.887   2.088   3.111
10107TIP3    H130264   3.939   2.094   3.191
10107TIP3    H230265   3.797   2.103   3.140
10108TIP3   OH230266   2.704   3.217   5.076
10108TIP3    H130267   2.638   3.148   5.080
10108TIP3    H230268   2.768   3.194   5.144
10109TIP3   OH230269   5.921   2.974   3.843
10109TIP3    H130270   5.964   2.902   3.890
10109TIP3    H230271   5.879   2.931   3.768
10110TIP3   OH230272   6.273   3.239   5.565
10110TIP3    H130273   6.179   3.241   5.546
10110TIP3    H230274   6.315   3.267   5.484
10111TIP3   OH230275   8.252   0.983   4.734
10111TIP3    H130276   8.222   0.972   4.644
10111TIP3    H230277   8.306   0.905   4.751
10112TIP3   OH230278   1.934   2.487   3.113
10112TIP3    H130279   1.869   2.433   3.159
10112TIP3    H230280   1.891   2.572   3.101
10113TIP3   OH230281   4.373   2.024   0.246
10113TIP3    H130282   4.410   1.954   0.192
10113TIP3    H230283   4.308   1.981   0.301
10114TIP3   OH230284   4.071   2.030  -0.015
10114TIP3    H130285   4.163   2.054  -0.023
10114TIP3    H230286   4.035   2.092   0.048
10115TIP3   OH230287   6.925   7.139   5.308
10115TIP3    H130288   6.925   7.056   5.356
10115TIP3    H230289   7.010   7.141   5.264
10116TIP3   OH230290   6.102   3.490   6.505
10116TIP3    H130291   6.083   3.443   6.424
10116TIP3    H230292   6.084   3.582   6.484
10117TIP3   OH230293   3.029   7.421   3.305
10117TIP3    H130294   3.066   7.508   3.320
10117TIP3    H230295   2.939   7.437   3.276
10118TIP3   OH230296   4.306   0.469   6.386
10118TIP3    H130297   4.334   0.378   6.377
10118TIP3    H230298   4.246   0.467   6.461
10119TIP3   OH230299   5.574   5.933   6.458
10119TIP3    H130300   5.667   5.923   6.477
10119TIP3    H230301   5.538   5.844   6.462
10120TIP3   OH230302   5.284   7.562   0.918
10120TIP3    H130303   5.303   7.528   0.830
10120TIP3    H230304   5.301   7.489   0.977
10121TIP3   OH230305   2.686   5.247   1.638
10121TIP3    H130306   2.700   5.230   1.731
10121TIP3    H230307   2.602   5.294   1.635
10122TIP3   OH230308   3.592   3.585   4.030
10122TIP3    H130309   3.554   3.520   4.088
10122TIP3    H230310   3.653   3.635   4.085
10123TIP3   OH230311   4.465   1.401   4.733
10123TIP3    H130312   4.382   1.367   4.699
10123TIP3    H230313   4.441   1.445   4.815
10124TIP3   OH230314   7.616   2.953   1.121
10124TIP3    H130315   7.575   3.011   1.057
10124TIP3    H230316   7.651   2.880   1.069
10125TIP3   OH230317   1.175   7.725   0.704
10125TIP3    H130318   1.137   7.637   0.716
10125TIP3    H230319   1.245   7.712   0.641
10126TIP3   OH230320   7.729   4.339   5.968
10126TIP3    H130321   7.691   4.388   5.894
10126TIP3    H230322   7.657   4.284   5.999
10127TIP3   OH230323   7.728   4.431   3.128
10127TIP3    H130324   7.755   4.448   3.037
10127TIP3    H230325   7.749   4.512   3.174
10128TIP3   OH230326   1.483   3.106   3.716
10128TIP3    H130327   1.577   3.122   3.721
10128TIP3    H230328   1.475   3.024   3.666
10129TIP3   OH230329   4.052   7.567   6.526
10129TIP3    H130330   4.124   7.503   6.527
10129TIP3    H230331   3.974   7.515   6.541
10130TIP3   OH230332   3.691   6.875   6.126
10130TIP3    H130333   3.686   6.851   6.033
10130TIP3    H230334   3.603   6.860   6.159
10131TIP3   OH230335   3.297   6.841   6.707
10131TIP3    H130336   3.221   6.805   6.752
10131TIP3    H230337   3.314   6.780   6.635
10132TIP3   OH230338   8.270   6.432   0.845
10132TIP3    H130339   8.273   6.453   0.938
10132TIP3    H230340   8.305   6.344   0.838
10133TIP3   OH230341   6.412   5.908   4.265
10133TIP3    H130342   6.464   5.855   4.325
10133TIP3    H230343   6.375   5.977   4.320
10134TIP3   OH230344   6.247   1.567   1.238
10134TIP3    H130345   6.249   1.637   1.303
10134TIP3    H230346   6.217   1.490   1.286
10135TIP3   OH230347   6.846   5.475   3.268
10135TIP3    H130348   6.867   5.451   3.178
10135TIP3    H230349   6.811   5.564   3.261
10136TIP3   OH230350   3.441   2.176   2.961
10136TIP3    H130351   3.357   2.204   2.997
10136TIP3    H230352   3.446   2.218   2.875
10137TIP3   OH230353   2.457   3.450   5.694
10137TIP3    H130354   2.497   3.537   5.690
10137TIP3    H230355   2.481   3.410   5.610
10138TIP3   OH230356   0.872   2.108   4.808
10138TIP3    H130357   0.894   2.189   4.854
10138TIP3    H230358   0.779   2.117   4.786
10139TIP3   OH230359   2.620   0.331   0.548
10139TIP3    H130360   2.655   0.246   0.520
10139TIP3    H230361   2.638   0.336   0.642
10140TIP3   OH230362   2.788   0.702   3.399
10140TIP3    H130363   2.769   0.666   3.485
10140TIP3    H230364   2.811   0.625   3.345
10141TIP3   OH230365   3.594   7.122   5.667
10141TIP3    H130366   3.690   7.125   5.664
10141TIP3    H230367   3.574   7.065   5.741
10142TIP3   OH230368   6.097   5.758   1.127
10142TIP3    H130369   6.013   5.738   1.169
10142TIP3    H230370   6.143   5.813   1.190
10143TIP3   OH230371   2.510   6.783   5.450
10143TIP3    H130372   2.431   6.753   5.495
10143TIP3    H230373   2.510   6.735   5.367
10144TIP3   OH230374   0.240   3.531   4.425
10144TIP3    H130375   0.325   3.534   4.470
10144TIP3    H230376   0.262   3.524   4.333
10145TIP3   OH230377   1.733   0.731   2.381
10145TIP3    H130378   1.655   0.687   2.415
10145TIP3    H230379   1.765   0.672   2.313
10146TIP3   OH230380   4.178   3.580   0.800
10146TIP3    H130381   4.233   3.656   0.781
10146TIP3    H230382   4.164   3.538   0.714
10147TIP3   OH230383   5.758   1.543   3.024
10147TIP3    H130384   5.792   1.533   3.113
10147TIP3    H230385   5.698   1.618   3.029
10148TIP3   OH230386   7.450   0.221   6.319
10148TIP3    H130387   7.383   0.272   6.272
10148TIP3    H230388   7.516   0.202   6.252
10149TIP3   OH230389   7.080   1.234   2.734
10149TIP3    H130390   7.044   1.293   2.800
10149TIP3    H230391   7.056   1.146   2.765
10150TIP3   OH230392   5.306   4.195   3.804
10150TIP3    H130393   5.311   4.290   3.799
10150TIP3    H230394   5.397   4.167   3.807
10151TIP3   OH230395   6.011   4.455   2.496
10151TIP3    H130396   6.021   4.535   2.444
10151TIP3    H230397   6.067   4.391   2.452
10152TIP3   OH230398   3.554   6.387   3.361
10152TIP3    H130399   3.555   6.372   3.267
10152TIP3    H230400   3.572   6.301   3.399
10153TIP3   OH230401   7.560   3.391   6.581
10153TIP3    H130402   7.653   3.414   6.577
10153TIP3    H230403   7.515   3.469   6.547
10154TIP3   OH230404   1.602   4.444   0.939
10154TIP3    H130405   1.579   4.389   1.014
10154TIP3    H230406   1.669   4.503   0.973
10155TIP3   OH230407   1.958   2.866   0.783
10155TIP3    H130408   1.927   2.825   0.863
10155TIP3    H230409   2.040   2.908   0.808
10156TIP3   OH230410   2.904   1.751   5.808
10156TIP3    H130411   2.810   1.735   5.800
10156TIP3    H230412   2.926   1.725   5.897
10157TIP3   OH230413   2.448   1.422   1.646
10157TIP3    H130414   2.364   1.454   1.612
10157TIP3    H230415   2.435   1.419   1.741
10158TIP3   OH230416   1.442   2.497   6.482
10158TIP3    H130417   1.501   2.473   6.411
10158TIP3    H230418   1.487   2.468   6.562
10159TIP3   OH230419   4.798   2.691   4.470
10159TIP3    H130420   4.724   2.718   4.523
10159TIP3    H230421   4.776   2.603   4.439
10160TIP3   OH230422   5.513   6.716   3.139
10160TIP3    H130423   5.567   6.718   3.218
10160TIP3    H230424   5.493   6.623   3.126
10161TIP3   OH230425   6.376   7.537   2.558
10161TIP3    H130426   6.350   7.546   2.650
10161TIP3    H230427   6.390   7.627   2.528
10162TIP3   OH230428   0.967   6.823   0.069
10162TIP3    H130429   1.040   6.884   0.080
10162TIP3    H230430   0.974   6.764   0.144
10163TIP3   OH230431   2.646   5.178   0.236
10163TIP3    H130432   2.659   5.135   0.320
10163TIP3    H230433   2.734   5.188   0.199
10164TIP3   OH230434   6.028   4.798   2.180
10164TIP3    H130435   5.970   4.862   2.221
10164TIP3    H230436   6.004   4.715   2.219
10165TIP3   OH230437   0.035   5.067   2.052
10165TIP3    H130438  -0.049   5.108   2.072
10165TIP3    H230439   0.028   4.979   2.089
10166TIP3   OH230440   3.680   2.159   3.601
10166TIP3    H130441   3.601   2.147   3.548
10166TIP3    H230442   3.663   2.109   3.681
10167TIP3   OH230443   3.050   2.041   4.907
10167TIP3    H130444   3.015   2.129   4.916
10167TIP3    H230445   2.976   1.984   4.928
10168TIP3   OH230446   7.514   2.423   1.452
10168TIP3    H130447   7.581   2.356   1.439
10168TIP3    H230448   7.435   2.374   1.473
10169TIP3   OH230449   0.254   5.542   4.923
10169TIP3    H130450   0.249   5.558   5.017
10169TIP3    H230451   0.335   5.586   4.896
10170TIP3   OH230452   8.161   2.397   3.039
10170TIP3    H130453   8.172   2.302   3.033
10170TIP3    H230454   8.238   2.428   3.087
10171TIP3   OH230455   2.810   4.332   4.301
10171TIP3    H130456   2.871   4.399   4.272
10171TIP3    H230457   2.731   4.345   4.248
10172TIP3   OH230458   0.609   2.927   1.143
10172TIP3    H130459   0.578   3.006   1.099
10172TIP3    H230460   0.687   2.902   1.094
10173TIP3   OH230461   1.688   0.519   6.673
10173TIP3    H130462   1.719   0.482   6.756
10173TIP3    H230463   1.695   0.613   6.685
10174TIP3   OH230464   5.384   7.501   0.645
10174TIP3    H130465   5.467   7.461   0.670
10174TIP3    H230466   5.348   7.443   0.578
10175TIP3   OH230467   4.669   1.605   2.501
10175TIP3    H130468   4.667   1.700   2.516
10175TIP3    H230469   4.723   1.595   2.423
10176TIP3   OH230470   0.164   4.503   3.798
10176TIP3    H130471   0.119   4.473   3.877
10176TIP3    H230472   0.245   4.542   3.830
10177TIP3   OH230473   6.923   2.482   2.736
10177TIP3    H130474   6.938   2.555   2.797
10177TIP3    H230475   7.002   2.479   2.683
10178TIP3   OH230476   3.664   3.479   2.410
10178TIP3    H130477   3.690   3.389   2.430
10178TIP3    H230478   3.577   3.471   2.370
10179TIP3   OH230479   1.454   0.812   3.201
10179TIP3    H130480   1.521   0.881   3.206
10179TIP3    H230481   1.373   0.860   3.186
10180TIP3   OH230482   7.195   4.361   2.622
10180TIP3    H130483   7.286   4.391   2.612
10180TIP3    H230484   7.202   4.279   2.670
10181TIP3   OH230485   4.813   2.023   5.390
10181TIP3    H130486   4.746   1.965   5.353
10181TIP3    H230487   4.871   1.964   5.439
10182TIP3   OH230488   0.493   3.277   4.395
10182TIP3    H130489   0.433   3.235   4.458
10182TIP3    H230490   0.438   3.341   4.349
10183TIP3   OH230491   6.272   1.470   5.860
10183TIP3    H130492   6.257   1.377   5.845
10183TIP3    H230493   6.185   1.509   5.853
10184TIP3   OH230494   0.497   1.593   2.041
10184TIP3    H130495   0.442   1.650   1.988
10184TIP3    H230496   0.461   1.505   2.026
10185TIP3   OH230497   4.040   1.347   3.345
10185TIP3    H130498   4.020   1.403   3.420
10185TIP3    H230499   4.019   1.401   3.269
10186TIP3   OH230500   7.767   5.348   3.485
10186TIP3    H130501   7.682   5.341   3.527
10186TIP3    H230502   7.750   5.330   3.393
10187TIP3   OH230503   0.720   7.692   2.418
10187TIP3    H130504   0.760   7.751   2.354
10187TIP3    H230505   0.626   7.698   2.401
10188TIP3   OH230506   2.193   4.548   4.286
10188TIP3    H130507   2.182   4.581   4.197
10188TIP3    H230508   2.255   4.476   4.278
10189TIP3   OH230509   3.015   2.324   0.305
10189TIP3    H130510   2.943   2.264   0.324
10189TIP3    H230511   3.018   2.328   0.210
10190TIP3   OH230512   1.773   3.009   3.333
10190TIP3    H130513   1.709   2.982   3.267
10190TIP3    H230514   1.852   3.028   3.282
10191TIP3   OH230515   6.016   1.274   1.070
10191TIP3    H130516   6.030   1.299   1.161
10191TIP3    H230517   6.096   1.228   1.045
10192TIP3   OH230518   2.148   7.583   5.245
10192TIP3    H130519   2.239   7.609   5.231
10192TIP3    H230520   2.137   7.504   5.192
10193TIP3   OH230521   7.598   3.856   5.116
10193TIP3    H130522   7.575   3.823   5.030
10193TIP3    H230523   7.548   3.937   5.126
10194TIP3   OH230524   6.907   2.381   2.035
10194TIP3    H130525   6.956   2.307   2.000
10194TIP3    H230526   6.946   2.398   2.120
10195TIP3   OH230527   6.094   1.722   0.009
10195TIP3    H130528   6.168   1.731   0.069
10195TIP3    H230529   6.109   1.788  -0.058
10196TIP3   OH230530   6.267   3.952   0.414
10196TIP3    H130531   6.278   3.865   0.377
10196TIP3    H230532   6.349   3.969   0.460
10197TIP3   OH230533   7.068   7.350   5.788
10197TIP3    H130534   7.081   7.432   5.741
10197TIP3    H230535   7.093   7.282   5.726
10198TIP3   OH230536   5.321   2.112   3.079
10198TIP3    H130537   5.395   2.052   3.066
10198TIP3    H230538   5.347   2.165   3.154
10199TIP3   OH230539   0.191   2.910   3.694
10199TIP3    H130540   0.232   2.963   3.762
10199TIP3    H230541   0.113   2.872   3.735
10200TIP3   OH230542   7.370   4.456   2.984
10200TIP3    H130543   7.318   4.521   3.031
10200TIP3    H230544   7.363   4.376   3.037
10201TIP3   OH230545   2.233   0.360   6.670
10201TIP3    H130546   2.153   0.331   6.713
10201TIP3    H230547   2.267   0.429   6.727
10202TIP3   OH230548   0.652   2.260   5.247
10202TIP3    H130549   0.708   2.337   5.251
10202TIP3    H230550   0.563   2.295   5.243
10203TIP3   OH230551   6.893   3.849   2.720
10203TIP3    H130552   6.800   3.830   2.705
10203TIP3    H230553   6.914   3.803   2.801
10204TIP3   OH230554   0.164   1.481   4.424
10204TIP3    H130555   0.210   1.409   4.468
10204TIP3    H230556   0.128   1.533   4.496
10205TIP3   OH230557   1.023   5.526   6.266
10205TIP3    H130558   1.045   5.455   6.326
10205TIP3    H230559   0.928   5.518   6.253
10206TIP3   OH230560   6.744   6.889   6.315
10206TIP3    H130561   6.760   6.879   6.221
10206TIP3    H230562   6.793   6.817   6.356
10207TIP3   OH230563   2.822   0.466   3.270
10207TIP3    H130564   2.755   0.406   3.303
10207TIP3    H230565   2.891   0.408   3.238
10208TIP3   OH230566   1.549   6.489   2.631
10208TIP3    H130567   1.472   6.448   2.592
10208TIP3    H230568   1.554   6.452   2.719
10209TIP3   OH230569   7.181   7.091   5.218
10209TIP3    H130570   7.235   7.108   5.295
10209TIP3    H230571   7.237   7.114   5.143
10210TIP3   OH230572   1.816   5.385   4.023
10210TIP3    H130573   1.827   5.437   4.103
10210TIP3    H230574   1.760   5.439   3.967
10211TIP3   OH230575   2.128   2.473   4.504
10211TIP3    H130576   2.084   2.537   4.561
10211TIP3    H230577   2.199   2.523   4.463
10212TIP3   OH230578   5.072   5.717   0.564
10212TIP3    H130579   5.031   5.801   0.544
10212TIP3    H230580   5.117   5.693   0.483
10213TIP3   OH230581   8.161   0.409   2.075
10213TIP3    H130582   8.145   0.347   2.146
10213TIP3    H230583   8.238   0.375   2.030
10214TIP3   OH230584   7.067   0.782   2.006
10214TIP3    H130585   7.074   0.877   2.013
10214TIP3    H230586   6.975   0.763   2.021
10215TIP3   OH230587   1.839   5.152   5.615
10215TIP3    H130588   1.874   5.090   5.678
10215TIP3    H230589   1.895   5.229   5.622
10216TIP3   OH230590   0.750   5.846   1.082
10216TIP3    H130591   0.807   5.824   1.009
10216TIP3    H230592   0.807   5.844   1.159
10217TIP3   OH230593   4.951   0.715   5.658
10217TIP3    H130594   5.035   0.673   5.641
10217TIP3    H230595   4.942   0.779   5.587
10218TIP3   OH230596   5.167   2.408   2.871
10218TIP3    H130597   5.175   2.407   2.776
10218TIP3    H230598   5.130   2.322   2.892
10219TIP3   OH230599   0.946   0.654   3.170
10219TIP3    H130600   0.919   0.562   3.170
10219TIP3    H230601   1.038   0.651   3.143
10220TIP3   OH230602   7.491   5.617   1.572
10220TIP3    H130603   7.446   5.695   1.607
10220TIP3    H230604   7.584   5.642   1.571
10221TIP3   OH230605   3.289   1.884   6.583
10221TIP3    H130606   3.363   1.911   6.636
10221TIP3    H230607   3.263   1.963   6.535
10222TIP3   OH230608   1.744   0.317   1.980
10222TIP3    H130609   1.811   0.307   1.912
10222TIP3    H230610   1.663   0.287   1.938
10223TIP3   OH230611   7.182   3.728   5.127
10223TIP3    H130612   7.204   3.821   5.121
10223TIP3    H230613   7.254   3.689   5.177
10224TIP3   OH230614   4.944   2.389   4.525
10224TIP3    H130615   4.931   2.295   4.512
10224TIP3    H230616   4.865   2.429   4.489
10225TIP3   OH230617   6.986   7.689   3.570
10225TIP3    H130618   7.023   7.671   3.657
10225TIP3    H230619   7.061   7.722   3.519
10226TIP3   OH230620   3.358   1.430   1.051
10226TIP3    H130621   3.269   1.466   1.046
10226TIP3    H230622   3.381   1.438   1.144
10227TIP3   OH230623   0.394   5.991   4.889
10227TIP3    H130624   0.475   5.971   4.843
10227TIP3    H230625   0.337   6.031   4.823
10228TIP3   OH230626   4.266   5.321   1.691
10228TIP3    H130627   4.275   5.356   1.780
10228TIP3    H230628   4.174   5.333   1.670
10229TIP3   OH230629   4.489   5.671   4.778
10229TIP3    H130630   4.558   5.655   4.714
10229TIP3    H230631   4.414   5.698   4.727
10230TIP3   OH230632   6.722   6.859   2.991
10230TIP3    H130633   6.727   6.824   2.902
10230TIP3    H230634   6.813   6.873   3.017
10231TIP3   OH230635   3.639   4.848   4.958
10231TIP3    H130636   3.678   4.915   5.014
10231TIP3    H230637   3.707   4.828   4.893
10232TIP3   OH230638   3.269   1.154   0.356
10232TIP3    H130639   3.311   1.239   0.365
10232TIP3    H230640   3.251   1.126   0.445
10233TIP3   OH230641   5.258   6.034   3.524
10233TIP3    H130642   5.205   6.107   3.556
10233TIP3    H230643   5.216   5.956   3.559
10234TIP3   OH230644   5.210   3.149   6.582
10234TIP3    H130645   5.264   3.225   6.603
10234TIP3    H230646   5.271   3.087   6.541
10235TIP3   OH230647   1.776   7.045   2.501
10235TIP3    H130648   1.683   7.031   2.484
10235TIP3    H230649   1.790   7.137   2.481
10236TIP3   OH230650   0.594   7.097   1.860
10236TIP3    H130651   0.647   7.018   1.848
10236TIP3    H230652   0.583   7.104   1.955
10237TIP3   OH230653   0.960   0.564   6.746
10237TIP3    H130654   0.936   0.506   6.674
10237TIP3    H230655   0.995   0.642   6.703
10238TIP3   OH230656   2.744   1.474   2.023
10238TIP3    H130657   2.705   1.397   1.981
10238TIP3    H230658   2.671   1.517   2.068
10239TIP3   OH230659   1.611   2.471   6.259
10239TIP3    H130660   1.598   2.396   6.201
10239TIP3    H230661   1.698   2.505   6.234
10240TIP3   OH230662   3.629   0.414   0.159
10240TIP3    H130663   3.552   0.359   0.172
10240TIP3    H230664   3.697   0.374   0.213
10241TIP3   OH230665   5.028   0.107   5.187
10241TIP3    H130666   4.936   0.087   5.169
10241TIP3    H230667   5.074   0.080   5.108
10242TIP3   OH230668   1.734   0.477   1.268
10242TIP3    H130669   1.765   0.567   1.259
10242TIP3    H230670   1.659   0.471   1.209
10243TIP3   OH230671   3.027   2.560   3.313
10243TIP3    H130672   2.992   2.474   3.287
10243TIP3    H230673   3.066   2.545   3.399
10244TIP3   OH230674   0.360   0.508   5.323
10244TIP3    H130675   0.387   0.480   5.411
10244TIP3    H230676   0.410   0.451   5.264
10245TIP3   OH230677   1.031   4.312   4.319
10245TIP3    H130678   1.090   4.355   4.257
10245TIP3    H230679   0.956   4.286   4.266
10246TIP3   OH230680   3.072   4.577   2.092
10246TIP3    H130681   3.041   4.529   2.169
10246TIP3    H230682   3.001   4.639   2.073
10247TIP3   OH230683   7.362   1.946   0.603
10247TIP3    H130684   7.313   1.955   0.521
10247TIP3    H230685   7.438   1.893   0.580
10248TIP3   OH230686   4.828   3.848   2.939
10248TIP3    H130687   4.769   3.886   2.874
10248TIP3    H230688   4.801   3.887   3.022
10249TIP3   OH230689   2.492   0.859   5.296
10249TIP3    H130690   2.572   0.810   5.277
10249TIP3    H230691   2.482   0.919   5.222
10250TIP3   OH230692   7.883   7.192   3.939
10250TIP3    H130693   7.856   7.158   3.854
10250TIP3    H230694   7.813   7.254   3.962
10251TIP3   OH230695   2.876   2.106   1.702
10251TIP3    H130696   2.807   2.088   1.638
10251TIP3    H230697   2.906   2.195   1.682
10252TIP3   OH230698   0.854   7.289   3.939
10252TIP3    H130699   0.936   7.292   3.988
10252TIP3    H230700   0.794   7.344   3.989
10253TIP3   OH230701   4.763   5.526   6.421
10253TIP3    H130702   4.671   5.545   6.399
10253TIP3    H230703   4.778   5.572   6.503
10254TIP3   OH230704   3.327   0.265   0.813
10254TIP3    H130705   3.259   0.234   0.873
10254TIP3    H230706   3.400   0.205   0.826
10255TIP3   OH230707   1.960   4.540   0.731
10255TIP3    H130708   1.912   4.612   0.690
10255TIP3    H230709   1.930   4.462   0.685
10256TIP3   OH230710   0.684   2.560   4.381
10256TIP3    H130711   0.627   2.484   4.387
10256TIP3    H230712   0.696   2.589   4.472
10257TIP3   OH230713   0.459   5.057   2.900
10257TIP3    H130714   0.460   5.080   2.993
10257TIP3    H230715   0.381   5.099   2.865
10258TIP3   OH230716   3.588   5.653   0.200
10258TIP3    H130717   3.623   5.664   0.112
10258TIP3    H230718   3.631   5.575   0.234
10259TIP3   OH230719   1.855   5.655   0.866
10259TIP3    H130720   1.936   5.607   0.882
10259TIP3    H230721   1.842   5.707   0.945
10260TIP3   OH230722   5.598   6.153   4.837
10260TIP3    H130723   5.527   6.202   4.795
10260TIP3    H230724   5.634   6.099   4.767
10261TIP3   OH230725   1.987   7.746   3.822
10261TIP3    H130726   2.079   7.730   3.841
10261TIP3    H230727   1.966   7.827   3.867
10262TIP3   OH230728   4.015   7.627   1.722
10262TIP3    H130729   4.100   7.609   1.762
10262TIP3    H230730   3.952   7.612   1.792
10263TIP3   OH230731   0.264   6.980   1.300
10263TIP3    H130732   0.224   6.972   1.387
10263TIP3    H230733   0.220   7.055   1.260
10264TIP3   OH230734   0.928   3.808   2.920
10264TIP3    H130735   0.924   3.902   2.901
10264TIP3    H230736   0.946   3.767   2.836
10265TIP3   OH230737   6.061   7.326   3.201
10265TIP3    H130738   6.029   7.275   3.126
10265TIP3    H230739   5.993   7.316   3.268
10266TIP3   OH230740   4.823   7.315   2.250
10266TIP3    H130741   4.750   7.298   2.190
10266TIP3    H230742   4.780   7.334   2.334
10267TIP3   OH230743   4.457   0.494   6.691
10267TIP3    H130744   4.491   0.451   6.613
10267TIP3    H230745   4.362   0.493   6.679
10268TIP3   OH230746   6.679   0.371   5.476
10268TIP3    H130747   6.703   0.428   5.402
10268TIP3    H230748   6.734   0.402   5.548
10269TIP3   OH230749   5.903   0.993   4.091
10269TIP3    H130750   5.902   0.977   4.185
10269TIP3    H230751   5.827   1.049   4.075
10270TIP3   OH230752   2.629   4.655   0.814
10270TIP3    H130753   2.713   4.700   0.822
10270TIP3    H230754   2.628   4.592   0.886
10271TIP3   OH230755   8.182   5.566   0.481
10271TIP3    H130756   8.274   5.549   0.459
10271TIP3    H230757   8.145   5.479   0.495
10272TIP3   OH230758   2.880   3.668   4.616
10272TIP3    H130759   2.967   3.631   4.633
10272TIP3    H230760   2.886   3.702   4.527
10273TIP3   OH230761   7.542   1.715   2.702
10273TIP3    H130762   7.503   1.662   2.632
10273TIP3    H230763   7.603   1.773   2.656
10274TIP3   OH230764   6.983   0.265   3.169
10274TIP3    H130765   6.960   0.242   3.259
10274TIP3    H230766   6.899   0.271   3.123
10275TIP3   OH230767   8.257   5.790   4.720
10275TIP3    H130768   8.270   5.846   4.797
10275TIP3    H230769   8.173   5.819   4.683
10276TIP3   OH230770   5.480   4.020   5.671
10276TIP3    H130771   5.483   3.929   5.642
10276TIP3    H230772   5.570   4.039   5.699
10277TIP3   OH230773   6.032   5.791   0.350
10277TIP3    H130774   5.999   5.797   0.260
10277TIP3    H230775   6.074   5.704   0.354
10278TIP3   OH230776   0.106   2.881   5.471
10278TIP3    H130777   0.077   2.833   5.393
10278TIP3    H230778   0.138   2.813   5.530
10279TIP3   OH230779   7.423   7.050   5.348
10279TIP3    H130780   7.347   6.995   5.368
10279TIP3    H230781   7.469   7.057   5.432
10280TIP3   OH230782   2.821   1.465   0.146
10280TIP3    H130783   2.882   1.406   0.102
10280TIP3    H230784   2.780   1.410   0.213
10281TIP3   OH230785   6.387   1.420   4.387
10281TIP3    H130786   6.352   1.503   4.355
10281TIP3    H230787   6.309   1.364   4.398
10282TIP3   OH230788   4.482   3.645   0.955
10282TIP3    H130789   4.435   3.705   0.897
10282TIP3    H230790   4.533   3.589   0.897
10283TIP3   OH230791   6.806   2.258   6.005
10283TIP3    H130792   6.813   2.164   5.991
10283TIP3    H230793   6.895   2.287   6.023
10284TIP3   OH230794   6.224   1.448   0.080
10284TIP3    H130795   6.269   1.505   0.018
10284TIP3    H230796   6.272   1.461   0.162
10285TIP3   OH230797   7.124   1.612   6.384
10285TIP3    H130798   7.047   1.663   6.363
10285TIP3    H230799   7.163   1.657   6.458
10286TIP3   OH230800   6.878   2.759   5.645
10286TIP3    H130801   6.879   2.743   5.550
10286TIP3    H230802   6.860   2.852   5.653
10287TIP3   OH230803   6.682   1.925   6.628
10287TIP3    H130804   6.659   2.018   6.627
10287TIP3    H230805   6.598   1.880   6.634
10288TIP3   OH230806   0.580   1.808   0.095
10288TIP3    H130807   0.567   1.718   0.126
10288TIP3    H230808   0.673   1.826   0.113
10289TIP3   OH230809   5.187   6.753   6.230
10289TIP3    H130810   5.141   6.784   6.308
10289TIP3    H230811   5.280   6.755   6.254
10290TIP3   OH230812   7.783   7.297   1.644
10290TIP3    H130813   7.739   7.376   1.614
10290TIP3    H230814   7.870   7.300   1.604
10291TIP3   OH230815   2.294   2.709   2.918
10291TIP3    H130816   2.225   2.732   2.856
10291TIP3    H230817   2.251   2.653   2.983
10292TIP3   OH230818   6.525   1.033   2.157
10292TIP3    H130819   6.606   1.083   2.162
10292TIP3    H230820   6.478   1.054   2.237
10293TIP3   OH230821   3.044   0.768   3.116
10293TIP3    H130822   3.077   0.694   3.168
10293TIP3    H230823   2.949   0.758   3.117
10294TIP3   OH230824   0.895   1.982   3.561
10294TIP3    H130825   0.937   2.068   3.571
10294TIP3    H230826   0.947   1.924   3.617
10295TIP3   OH230827   7.217   5.659   0.804
10295TIP3    H130828   7.268   5.578   0.798
10295TIP3    H230829   7.127   5.629   0.818
10296TIP3   OH230830   3.983   2.970   4.199
10296TIP3    H130831   3.965   3.011   4.284
10296TIP3    H230832   3.970   2.877   4.214
10297TIP3   OH230833   4.560   3.785   1.955
10297TIP3    H130834   4.484   3.727   1.962
10297TIP3    H230835   4.599   3.764   1.870
10298TIP3   OH230836   2.075   4.824   6.137
10298TIP3    H130837   1.991   4.779   6.139
10298TIP3    H230838   2.135   4.762   6.097
10299TIP3   OH230839   5.311   6.316   1.459
10299TIP3    H130840   5.290   6.407   1.437
10299TIP3    H230841   5.226   6.273   1.469
10300TIP3   OH230842   2.855   1.436   4.166
10300TIP3    H130843   2.853   1.503   4.097
10300TIP3    H230844   2.930   1.381   4.144
10301TIP3   OH230845   3.618   6.980   4.503
10301TIP3    H130846   3.545   7.030   4.467
10301TIP3    H230847   3.606   6.986   4.598
10302TIP3   OH230848   6.859   2.744   1.479
10302TIP3    H130849   6.849   2.838   1.464
10302TIP3    H230850   6.954   2.731   1.487
10303TIP3   OH230851   3.441   0.233   5.372
10303TIP3    H130852   3.469   0.196   5.288
10303TIP3    H230853   3.516   0.222   5.430
10304TIP3   OH230854   0.058   3.410   2.258
10304TIP3    H130855   0.021   3.454   2.181
10304TIP3    H230856   0.111   3.339   2.222
10305TIP3   OH230857   6.422   0.308   1.751
10305TIP3    H130858   6.392   0.265   1.831
10305TIP3    H230859   6.415   0.240   1.683
10306TIP3   OH230860   7.546   2.871   6.763
10306TIP3    H130861   7.493   2.800   6.725
10306TIP3    H230862   7.602   2.900   6.691
10307TIP3   OH230863   6.825   1.963   5.985
10307TIP3    H130864   6.740   1.930   6.016
10307TIP3    H230865   6.836   1.924   5.899
10308TIP3   OH230866   2.295   0.964   3.810
10308TIP3    H130867   2.295   1.054   3.776
10308TIP3    H230868   2.383   0.953   3.846
10309TIP3   OH230869   6.281   5.127   2.622
10309TIP3    H130870   6.359   5.108   2.570
10309TIP3    H230871   6.292   5.217   2.651
10310TIP3   OH230872   2.971   5.173   3.901
10310TIP3    H130873   3.063   5.148   3.908
10310TIP3    H230874   2.928   5.129   3.974
10311TIP3   OH230875   2.875   4.176   5.375
10311TIP3    H130876   2.924   4.153   5.296
10311TIP3    H230877   2.811   4.241   5.346
10312TIP3   OH230878   2.784   5.032   3.755
10312TIP3    H130879   2.710   5.093   3.763
10312TIP3    H230880   2.859   5.082   3.787
10313TIP3   OH230881   0.881   6.115   4.322
10313TIP3    H130882   0.975   6.131   4.318
10313TIP3    H230883   0.848   6.174   4.389
10314TIP3   OH230884   4.144   6.599   4.845
10314TIP3    H130885   4.105   6.686   4.848
10314TIP3    H230886   4.093   6.552   4.779
10315TIP3   OH230887   0.727   7.692   1.464
10315TIP3    H130888   0.744   7.787   1.462
10315TIP3    H230889   0.813   7.652   1.452
10316TIP3   OH230890   0.845   2.894   3.489
10316TIP3    H130891   0.825   2.854   3.574
10316TIP3    H230892   0.771   2.953   3.473
10317TIP3   OH230893   4.639   2.333   0.950
10317TIP3    H130894   4.693   2.297   1.022
10317TIP3    H230895   4.564   2.274   0.945
10318TIP3   OH230896   3.743   2.766   5.135
10318TIP3    H130897   3.776   2.706   5.069
10318TIP3    H230898   3.690   2.829   5.086
10319TIP3   OH230899   3.599   1.301   5.603
10319TIP3    H130900   3.570   1.357   5.675
10319TIP3    H230901   3.528   1.239   5.591
10320TIP3   OH230902   1.448   7.197   4.546
10320TIP3    H130903   1.492   7.269   4.501
10320TIP3    H230904   1.462   7.121   4.490
10321TIP3   OH230905   1.695   0.398   5.086
10321TIP3    H130906   1.640   0.354   5.151
10321TIP3    H230907   1.783   0.363   5.101
10322TIP3   OH230908   3.611   3.332   3.516
10322TIP3    H130909   3.579   3.416   3.547
10322TIP3    H230910   3.561   3.316   3.436
10323TIP3   OH230911   2.017   7.267   1.737
10323TIP3    H130912   2.045   7.177   1.757
10323TIP3    H230913   2.019   7.272   1.642
10324TIP3   OH230914   5.920   4.731   5.208
10324TIP3    H130915   5.922   4.719   5.303
10324TIP3    H230916   5.828   4.724   5.184
10325TIP3   OH230917   2.912   5.119   0.255
10325TIP3    H130918   2.920   5.024   0.267
10325TIP3    H230919   2.981   5.140   0.192
10326TIP3   OH230920   7.253   3.188   5.470
10326TIP3    H130921   7.293   3.225   5.392
10326TIP3    H230922   7.327   3.154   5.522
10327TIP3   OH230923   2.795   7.304   0.477
10327TIP3    H130924   2.722   7.287   0.536
10327TIP3    H230925   2.873   7.301   0.532
10328TIP3   OH230926   1.090   3.795   2.550
10328TIP3    H130927   1.059   3.830   2.466
10328TIP3    H230928   1.014   3.748   2.585
10329TIP3   OH230929   7.558   2.075   4.557
10329TIP3    H130930   7.528   2.154   4.602
10329TIP3    H230931   7.492   2.009   4.578
10330TIP3   OH230932   6.997   0.331   4.985
10330TIP3    H130933   6.959   0.354   5.070
10330TIP3    H230934   7.031   0.413   4.950
10331TIP3   OH230935   3.717   4.019   0.968
10331TIP3    H130936   3.735   4.113   0.964
10331TIP3    H230937   3.623   4.014   0.988
10332TIP3   OH230938   2.722   7.509   4.143
10332TIP3    H130939   2.817   7.508   4.130
10332TIP3    H230940   2.699   7.602   4.146
10333TIP3   OH230941   6.227   6.014   0.937
10333TIP3    H130942   6.285   5.966   0.878
10333TIP3    H230943   6.182   5.946   0.987
10334TIP3   OH230944   7.416   3.673   4.911
10334TIP3    H130945   7.331   3.713   4.929
10334TIP3    H230946   7.400   3.615   4.836
10335TIP3   OH230947   4.814   6.530   6.367
10335TIP3    H130948   4.788   6.441   6.392
10335TIP3    H230949   4.831   6.575   6.450
10336TIP3   OH230950   3.606   1.574   4.499
10336TIP3    H130951   3.583   1.514   4.429
10336TIP3    H230952   3.609   1.520   4.578
10337TIP3   OH230953   6.567   0.779   1.812
10337TIP3    H130954   6.509   0.703   1.809
10337TIP3    H230955   6.547   0.828   1.732
10338TIP3   OH230956   4.821   7.107   1.508
10338TIP3    H130957   4.740   7.146   1.540
10338TIP3    H230958   4.884   7.179   1.509
10339TIP3   OH230959   7.292   5.963   6.376
10339TIP3    H130960   7.235   6.023   6.326
10339TIP3    H230961   7.336   6.020   6.439
10340TIP3   OH230962   0.073   2.310   2.609
10340TIP3    H130963   0.033   2.377   2.554
10340TIP3    H230964   0.163   2.304   2.577
10341TIP3   OH230965   6.434   4.439   3.263
10341TIP3    H130966   6.457   4.528   3.235
10341TIP3    H230967   6.453   4.385   3.186
10342TIP3   OH230968   3.415   0.780   0.398
10342TIP3    H130969   3.368   0.719   0.454
10342TIP3    H230970   3.430   0.731   0.317
10343TIP3   OH230971   1.882   3.187   5.931
10343TIP3    H130972   1.891   3.266   5.878
10343TIP3    H230973   1.972   3.158   5.947
10344TIP3   OH230974   4.067   1.699   3.216
10344TIP3    H130975   3.993   1.760   3.216
10344TIP3    H230976   4.026   1.614   3.198
10345TIP3   OH230977   2.443   3.372   4.391
10345TIP3    H130978   2.392   3.346   4.314
10345TIP3    H230979   2.534   3.369   4.361
10346TIP3   OH230980   5.350   5.304   2.421
10346TIP3    H130981   5.291   5.228   2.421
10346TIP3    H230982   5.341   5.341   2.509
10347TIP3   OH230983   2.929   4.034   2.627
10347TIP3    H130984   2.940   3.952   2.675
10347TIP3    H230985   3.017   4.054   2.593
10348TIP3   OH230986   1.152   5.438   0.433
10348TIP3    H130987   1.085   5.374   0.414
10348TIP3    H230988   1.219   5.390   0.481
10349TIP3   OH230989   2.477   3.325   3.589
10349TIP3    H130990   2.385   3.351   3.592
10349TIP3    H230991   2.475   3.230   3.602
10350TIP3   OH230992   1.554   6.591   3.442
10350TIP3    H130993   1.463   6.580   3.413
10350TIP3    H230994   1.566   6.686   3.447
10351TIP3   OH230995   4.166   1.268   3.003
10351TIP3    H130996   4.107   1.219   2.946
10351TIP3    H230997   4.109   1.329   3.051
10352TIP3   OH230998   5.606   6.285   5.205
10352TIP3    H130999   5.572   6.353   5.146
10352TIP3    H231000   5.557   6.207   5.182
10353TIP3   OH231001   2.636   4.700   6.556
10353TIP3    H131002   2.578   4.735   6.488
10353TIP3    H231003   2.579   4.647   6.611
10354TIP3   OH231004   0.496   3.607   4.506
10354TIP3    H131005   0.488   3.685   4.560
10354TIP3    H231006   0.580   3.617   4.461
10355TIP3   OH231007   8.251   1.615   6.154
10355TIP3    H131008   8.274   1.563   6.231
10355TIP3    H231009   8.283   1.703   6.174
10356TIP3   OH231010   0.271   4.532   1.084
10356TIP3    H131011   0.194   4.568   1.129
10356TIP3    H231012   0.305   4.606   1.033
10357TIP3   OH231013   0.817   0.108   6.178
10357TIP3    H131014   0.777   0.072   6.099
10357TIP3    H231015   0.783   0.197   6.185
10358TIP3   OH231016   4.745   1.158   3.899
10358TIP3    H131017   4.812   1.091   3.908
10358TIP3    H231018   4.689   1.126   3.827
10359TIP3   OH231019   7.136   0.713   5.092
10359TIP3    H131020   7.204   0.771   5.127
10359TIP3    H231021   7.180   0.665   5.022
10360TIP3   OH231022   5.880   0.546   3.427
10360TIP3    H131023   5.923   0.601   3.494
10360TIP3    H231024   5.811   0.500   3.475
10361TIP3   OH231025   2.058   5.368   3.851
10361TIP3    H131026   2.108   5.367   3.933
10361TIP3    H231027   1.966   5.361   3.879
10362TIP3   OH231028   8.106   4.004   2.328
10362TIP3    H131029   8.060   4.028   2.247
10362TIP3    H231030   8.037   3.971   2.385
10363TIP3   OH231031   6.003   2.938   4.845
10363TIP3    H131032   5.994   2.857   4.795
10363TIP3    H231033   6.019   2.909   4.935
10364TIP3   OH231034   7.386   4.969   4.196
10364TIP3    H131035   7.434   4.906   4.250
10364TIP3    H231036   7.332   4.914   4.139
10365TIP3   OH231037   7.922   4.217   6.776
10365TIP3    H131038   7.826   4.222   6.769
10365TIP3    H231039   7.952   4.204   6.686
10366TIP3   OH231040   0.370   6.545   5.662
10366TIP3    H131041   0.454   6.580   5.691
10366TIP3    H231042   0.325   6.521   5.743
10367TIP3   OH231043   7.125   0.366   3.742
10367TIP3    H131044   7.043   0.374   3.695
10367TIP3    H231045   7.166   0.287   3.707
10368TIP3   OH231046   7.621   5.298   1.290
10368TIP3    H131047   7.678   5.322   1.362
10368TIP3    H231048   7.544   5.259   1.332
10369TIP3   OH231049   5.752   0.064   0.801
10369TIP3    H131050   5.707   0.146   0.781
10369TIP3    H231051   5.836   0.071   0.756
10370TIP3   OH231052   0.625   4.783   2.981
10370TIP3    H131053   0.582   4.721   2.922
10370TIP3    H231054   0.553   4.823   3.030
10371TIP3   OH231055   6.578   6.875   5.747
10371TIP3    H131056   6.545   6.931   5.818
10371TIP3    H231057   6.670   6.900   5.737
10372TIP3   OH231058   2.963   3.479   6.090
10372TIP3    H131059   2.987   3.393   6.054
10372TIP3    H231060   2.998   3.477   6.180
10373TIP3   OH231061   3.652   6.593   1.067
10373TIP3    H131062   3.636   6.607   1.160
10373TIP3    H231063   3.652   6.498   1.056
10374TIP3   OH231064   0.042   5.519   2.112
10374TIP3    H131065   0.136   5.534   2.114
10374TIP3    H231066   0.022   5.502   2.020
10375TIP3   OH231067   7.465   4.685   5.030
10375TIP3    H131068   7.436   4.767   4.989
10375TIP3    H231069   7.440   4.617   4.968
10376TIP3   OH231070   6.534   1.701   4.405
10376TIP3    H131071   6.622   1.727   4.380
10376TIP3    H231072   6.544   1.657   4.490
10377TIP3   OH231073   4.946   0.981   3.963
10377TIP3    H131074   4.942   1.010   4.054
10377TIP3    H231075   4.938   0.886   3.968
10378TIP3   OH231076   4.531   0.225   2.600
10378TIP3    H131077   4.576   0.306   2.626
10378TIP3    H231078   4.518   0.177   2.681
10379TIP3   OH231079   5.534   7.129   1.186
10379TIP3    H131080   5.602   7.194   1.170
10379TIP3    H231081   5.523   7.084   1.102
10380TIP3   OH231082   8.167   0.620   0.898
10380TIP3    H131083   8.160   0.569   0.817
10380TIP3    H231084   8.203   0.704   0.872
10381TIP3   OH231085   4.810   2.392   6.086
10381TIP3    H131086   4.746   2.348   6.141
10381TIP3    H231087   4.800   2.350   6.000
10382TIP3   OH231088   4.430   5.440   4.934
10382TIP3    H131089   4.480   5.477   5.007
10382TIP3    H231090   4.460   5.488   4.857
10383TIP3   OH231091   6.182   4.304   4.116
10383TIP3    H131092   6.199   4.221   4.072
10383TIP3    H231093   6.138   4.279   4.197
10384TIP3   OH231094   5.834   4.619   2.271
10384TIP3    H131095   5.748   4.598   2.308
10384TIP3    H231096   5.814   4.675   2.196
10385TIP3   OH231097   5.310   6.173   2.275
10385TIP3    H131098   5.303   6.240   2.342
10385TIP3    H231099   5.334   6.093   2.322
10386TIP3   OH231100   3.020   2.522   0.708
10386TIP3    H131101   3.114   2.526   0.727
10386TIP3    H231102   3.011   2.567   0.624
10387TIP3   OH231103   3.591   6.664   1.331
10387TIP3    H131104   3.526   6.716   1.379
10387TIP3    H231105   3.668   6.664   1.387
10388TIP3   OH231106   2.656   3.213   2.322
10388TIP3    H131107   2.566   3.247   2.315
10388TIP3    H231108   2.645   3.119   2.337
10389TIP3   OH231109   2.252   5.996   2.427
10389TIP3    H131110   2.181   5.976   2.488
10389TIP3    H231111   2.323   5.938   2.453
10390TIP3   OH231112   6.518   0.226   3.448
10390TIP3    H131113   6.564   0.144   3.429
10390TIP3    H231114   6.462   0.240   3.372
10391TIP3   OH231115   6.916   3.764   0.085
10391TIP3    H131116   6.933   3.700   0.016
10391TIP3    H231117   7.004   3.789   0.116
10392TIP3   OH231118   6.838   1.821   2.565
10392TIP3    H131119   6.878   1.873   2.635
10392TIP3    H231120   6.757   1.788   2.602
10393TIP3   OH231121   4.746   6.595   3.393
10393TIP3    H131122   4.655   6.613   3.367
10393TIP3    H231123   4.743   6.508   3.432
10394TIP3   OH231124   0.676   1.967   0.347
10394TIP3    H131125   0.587   1.979   0.381
10394TIP3    H231126   0.664   1.925   0.262
10395TIP3   OH231127   6.152   7.189   3.515
10395TIP3    H131128   6.203   7.137   3.453
10395TIP3    H231129   6.216   7.227   3.574
10396TIP3   OH231130   4.900   2.280   2.196
10396TIP3    H131131   4.932   2.367   2.221
10396TIP3    H231132   4.975   2.223   2.209
10397TIP3   OH231133   1.734   3.421   1.186
10397TIP3    H131134   1.673   3.382   1.248
10397TIP3    H231135   1.679   3.452   1.114
10398TIP3   OH231136   1.593   4.896   2.535
10398TIP3    H131137   1.520   4.930   2.586
10398TIP3    H231138   1.638   4.974   2.502
10399TIP3   OH231139   0.943   7.421   6.628
10399TIP3    H131140   0.872   7.418   6.693
10399TIP3    H231141   1.019   7.388   6.675
10400TIP3   OH231142   4.237   4.646   1.765
10400TIP3    H131143   4.307   4.654   1.830
10400TIP3    H231144   4.226   4.552   1.752
10401TIP3   OH231145   7.507   6.064   0.883
10401TIP3    H131146   7.586   6.085   0.833
10401TIP3    H231147   7.522   5.976   0.916
10402TIP3   OH231148   3.437   6.396   2.823
10402TIP3    H131149   3.455   6.336   2.750
10402TIP3    H231150   3.351   6.370   2.854
10403TIP3   OH231151   7.439   7.694   6.328
10403TIP3    H131152   7.460   7.611   6.285
10403TIP3    H231153   7.474   7.685   6.416
10404TIP3   OH231154   4.842   4.729   6.241
10404TIP3    H131155   4.903   4.761   6.175
10404TIP3    H231156   4.897   4.700   6.313
10405TIP3   OH231157   3.793   5.516   3.584
10405TIP3    H131158   3.763   5.498   3.495
10405TIP3    H231159   3.715   5.550   3.629
10406TIP3   OH231160   4.946   5.020   0.264
10406TIP3    H131161   4.967   5.037   0.172
10406TIP3    H231162   5.013   4.959   0.293
10407TIP3   OH231163   2.159   6.774   1.148
10407TIP3    H131164   2.151   6.719   1.226
10407TIP3    H231165   2.162   6.713   1.075
10408TIP3   OH231166   3.960   6.766   3.453
10408TIP3    H131167   4.044   6.720   3.450
10408TIP3    H231168   3.955   6.801   3.542
10409TIP3   OH231169   6.155   1.011   1.327
10409TIP3    H131170   6.113   0.927   1.308
10409TIP3    H231171   6.223   0.989   1.392
10410TIP3   OH231172   0.112   0.270   1.560
10410TIP3    H131173   0.166   0.337   1.603
10410TIP3    H231174   0.071   0.317   1.487
10411TIP3   OH231175   7.092   2.959   6.470
10411TIP3    H131176   7.012   2.910   6.454
10411TIP3    H231177   7.099   2.963   6.566
10412TIP3   OH231178   1.209   6.896   5.094
10412TIP3    H131179   1.293   6.853   5.076
10412TIP3    H231180   1.217   6.983   5.055
10413TIP3   OH231181   7.110   7.330   5.018
10413TIP3    H131182   7.090   7.394   4.950
10413TIP3    H231183   7.156   7.380   5.086
10414TIP3   OH231184   4.659   1.547   1.304
10414TIP3    H131185   4.642   1.622   1.360
10414TIP3    H231186   4.673   1.583   1.217
10415TIP3   OH231187   3.811   6.125   5.581
10415TIP3    H131188   3.808   6.030   5.568
10415TIP3    H231189   3.732   6.157   5.538
10416TIP3   OH231190   3.845   3.513   0.437
10416TIP3    H131191   3.814   3.473   0.356
10416TIP3    H231192   3.789   3.478   0.506
10417TIP3   OH231193   0.528   7.796   1.847
10417TIP3    H131194   0.477   7.875   1.864
10417TIP3    H231195   0.619   7.826   1.846
10418TIP3   OH231196   0.021   7.602   1.623
10418TIP3    H131197   0.109   7.587   1.660
10418TIP3    H231198   0.000   7.691   1.648
10419TIP3   OH231199   7.991   5.194   1.347
10419TIP3    H131200   7.911   5.141   1.352
10419TIP3    H231201   7.991   5.228   1.258
10420TIP3   OH231202   2.767   1.404   5.999
10420TIP3    H131203   2.696   1.424   5.939
10420TIP3    H231204   2.815   1.333   5.958
10421TIP3   OH231205   6.833   2.453   0.104
10421TIP3    H131206   6.893   2.488   0.037
10421TIP3    H231207   6.882   2.459   0.186
10422TIP3   OH231208   1.131   6.234   5.079
10422TIP3    H131209   1.148   6.192   5.163
10422TIP3    H231210   1.138   6.163   5.015
10423TIP3   OH231211   5.539   4.061   6.477
10423TIP3    H131212   5.505   3.977   6.445
10423TIP3    H231213   5.461   4.115   6.490
10424TIP3   OH231214   4.277   0.908   2.138
10424TIP3    H131215   4.337   0.983   2.139
10424TIP3    H231216   4.285   0.872   2.050
10425TIP3   OH231217   7.278   6.913   4.168
10425TIP3    H131218   7.261   6.821   4.149
10425TIP3    H231219   7.285   6.917   4.264
10426TIP3   OH231220   5.802   1.751   1.976
10426TIP3    H131221   5.884   1.701   1.980
10426TIP3    H231222   5.830   1.842   1.967
10427TIP3   OH231223   1.288   1.129   2.024
10427TIP3    H131224   1.375   1.096   2.043
10427TIP3    H231225   1.244   1.131   2.109
10428TIP3   OH231226   6.579   1.836   1.117
10428TIP3    H131227   6.489   1.832   1.084
10428TIP3    H231228   6.579   1.908   1.180
10429TIP3   OH231229   2.397   4.137   2.762
10429TIP3    H131230   2.440   4.187   2.832
10429TIP3    H231231   2.438   4.051   2.765
10430TIP3   OH231232   2.676   4.883   2.158
10430TIP3    H131233   2.616   4.898   2.085
10430TIP3    H231234   2.676   4.965   2.207
10431TIP3   OH231235   7.289   0.335   5.898
10431TIP3    H131236   7.375   0.309   5.864
10431TIP3    H231237   7.235   0.347   5.820
10432TIP3   OH231238   1.277   3.976   3.168
10432TIP3    H131239   1.296   3.942   3.081
10432TIP3    H231240   1.324   4.059   3.173
10433TIP3   OH231241   5.995   4.243   6.397
10433TIP3    H131242   6.075   4.190   6.391
10433TIP3    H231243   5.930   4.192   6.349
10434TIP3   OH231244   2.660   4.674   1.147
10434TIP3    H131245   2.745   4.630   1.158
10434TIP3    H231246   2.603   4.608   1.107
10435TIP3   OH231247   6.024   5.795   4.139
10435TIP3    H131248   5.947   5.766   4.090
10435TIP3    H231249   6.028   5.737   4.215
10436TIP3   OH231250   1.791   5.069   6.277
10436TIP3    H131251   1.865   5.050   6.220
10436TIP3    H231252   1.811   5.154   6.315
10437TIP3   OH231253   7.072   4.938   5.650
10437TIP3    H131254   7.141   4.982   5.700
10437TIP3    H231255   7.061   4.854   5.695
10438TIP3   OH231256   3.645   0.459   5.379
10438TIP3    H131257   3.567   0.404   5.370
10438TIP3    H231258   3.694   0.420   5.450
10439TIP3   OH231259   0.877   6.788   2.496
10439TIP3    H131260   0.873   6.696   2.470
10439TIP3    H231261   0.787   6.812   2.517
10440TIP3   OH231262   4.096   5.521   3.413
10440TIP3    H131263   4.047   5.555   3.338
10440TIP3    H231264   4.133   5.599   3.455
10441TIP3   OH231265   0.771   2.999   0.869
10441TIP3    H131266   0.814   2.948   0.938
10441TIP3    H231267   0.824   3.078   0.861
10442TIP3   OH231268   6.578   5.242   5.411
10442TIP3    H131269   6.492   5.260   5.449
10442TIP3    H231270   6.593   5.314   5.350
10443TIP3   OH231271   3.028   1.845   5.200
10443TIP3    H131272   2.967   1.775   5.177
10443TIP3    H231273   3.070   1.814   5.281
10444TIP3   OH231274   1.151   4.494   1.161
10444TIP3    H131275   1.166   4.489   1.066
10444TIP3    H231276   1.179   4.409   1.194
10445TIP3   OH231277   7.208   1.814   3.327
10445TIP3    H131278   7.245   1.728   3.306
10445TIP3    H231279   7.151   1.797   3.402
10446TIP3   OH231280   1.067   7.215   0.076
10446TIP3    H131281   1.080   7.164  -0.004
10446TIP3    H231282   1.144   7.272   0.080
10447TIP3   OH231283   7.133   0.703   4.203
10447TIP3    H131284   7.207   0.740   4.156
10447TIP3    H231285   7.171   0.632   4.255
10448TIP3   OH231286   7.079   7.129   0.650
10448TIP3    H131287   7.023   7.133   0.572
10448TIP3    H231288   7.048   7.201   0.705
10449TIP3   OH231289   1.691   6.768   2.908
10449TIP3    H131290   1.700   6.863   2.897
10449TIP3    H231291   1.673   6.736   2.820
10450TIP3   OH231292   6.902   1.075   3.924
10450TIP3    H131293   6.872   0.993   3.962
10450TIP3    H231294   6.990   1.088   3.960
10451TIP3   OH231295   7.239   6.063   2.192
10451TIP3    H131296   7.327   6.024   2.197
10451TIP3    H231297   7.204   6.032   2.108
10452TIP3   OH231298   3.197   3.604   2.275
10452TIP3    H131299   3.225   3.690   2.244
10452TIP3    H231300   3.122   3.582   2.221
10453TIP3   OH231301   5.232   4.934   4.827
10453TIP3    H131302   5.200   4.876   4.896
10453TIP3    H231303   5.310   4.975   4.864
10454TIP3   OH231304   6.014   0.363   0.262
10454TIP3    H131305   6.032   0.306   0.188
10454TIP3    H231306   6.062   0.324   0.335
10455TIP3   OH231307   6.149   5.154   0.778
10455TIP3    H131308   6.226   5.210   0.774
10455TIP3    H231309   6.102   5.171   0.696
10456TIP3   OH231310   7.066   2.456   3.579
10456TIP3    H131311   7.026   2.435   3.495
10456TIP3    H231312   7.159   2.470   3.559
10457TIP3   OH231313   7.633   3.416   4.058
10457TIP3    H131314   7.697   3.409   3.987
10457TIP3    H231315   7.554   3.451   4.016
10458TIP3   OH231316   4.419   6.701   5.232
10458TIP3    H131317   4.414   6.787   5.191
10458TIP3    H231318   4.396   6.640   5.162
10459TIP3   OH231319   0.344   2.050   6.615
10459TIP3    H131320   0.400   1.984   6.574
10459TIP3    H231321   0.302   2.095   6.541
10460TIP3   OH231322   3.316   0.322   2.339
10460TIP3    H131323   3.371   0.245   2.325
10460TIP3    H231324   3.344   0.356   2.424
10461TIP3   OH231325   2.661   1.685   0.333
10461TIP3    H131326   2.721   1.702   0.261
10461TIP3    H231327   2.580   1.730   0.308
10462TIP3   OH231328   3.888   2.716   4.278
10462TIP3    H131329   3.893   2.637   4.224
10462TIP3    H231330   3.798   2.717   4.311
10463TIP3   OH231331   1.967   5.197   4.801
10463TIP3    H131332   1.961   5.125   4.863
10463TIP3    H231333   1.911   5.265   4.838
10464TIP3   OH231334   6.492   1.481   2.844
10464TIP3    H131335   6.493   1.500   2.938
10464TIP3    H231336   6.432   1.546   2.807
10465TIP3   OH231337   5.058   5.421   4.511
10465TIP3    H131338   4.986   5.393   4.568
10465TIP3    H231339   5.017   5.475   4.444
10466TIP3   OH231340   4.593   2.103   0.091
10466TIP3    H131341   4.525   2.114   0.158
10466TIP3    H231342   4.665   2.059   0.136
10467TIP3   OH231343   0.204   5.745   2.799
10467TIP3    H131344   0.122   5.755   2.848
10467TIP3    H231345   0.185   5.677   2.735
10468TIP3   OH231346   3.497   1.329   4.057
10468TIP3    H131347   3.412   1.301   4.023
10468TIP3    H231348   3.546   1.248   4.071
10469TIP3   OH231349   1.376   4.518   3.887
10469TIP3    H131350   1.329   4.587   3.839
10469TIP3    H231351   1.429   4.475   3.819
10470TIP3   OH231352   6.444   5.514   1.284
10470TIP3    H131353   6.484   5.491   1.368
10470TIP3    H231354   6.450   5.434   1.232
10471TIP3   OH231355   7.652   0.770   5.356
10471TIP3    H131356   7.667   0.807   5.269
10471TIP3    H231357   7.558   0.751   5.358
10472TIP3   OH231358   8.049   1.090   1.585
10472TIP3    H131359   7.983   1.042   1.635
10472TIP3    H231360   8.072   1.033   1.512
10473TIP3   OH231361   0.559   6.202   2.109
10473TIP3    H131362   0.585   6.208   2.017
10473TIP3    H231363   0.486   6.139   2.109
10474TIP3   OH231364   4.354   0.446   0.983
10474TIP3    H131365   4.442   0.484   0.990
10474TIP3    H231366   4.341   0.402   1.067
10475TIP3   OH231367   3.734   1.517   2.808
10475TIP3    H131368   3.810   1.575   2.799
10475TIP3    H231369   3.724   1.505   2.902
10476TIP3   OH231370   5.373   0.231   4.942
10476TIP3    H131371   5.429   0.206   5.016
10476TIP3    H231372   5.409   0.182   4.867
10477TIP3   OH231373   6.257   3.884   3.610
10477TIP3    H131374   6.166   3.898   3.582
10477TIP3    H231375   6.250   3.826   3.685
10478TIP3   OH231376   7.328   5.796   4.681
10478TIP3    H131377   7.372   5.874   4.716
10478TIP3    H231378   7.238   5.805   4.710
10479TIP3   OH231379   1.506   6.090   5.381
10479TIP3    H131380   1.447   6.056   5.448
10479TIP3    H231381   1.579   6.127   5.430
10480TIP3   OH231382   1.734   4.742   0.176
10480TIP3    H131383   1.746   4.782   0.090
10480TIP3    H231384   1.820   4.710   0.200
10481TIP3   OH231385   3.718   3.169   6.527
10481TIP3    H131386   3.673   3.241   6.483
10481TIP3    H231387   3.649   3.104   6.541
10482TIP3   OH231388   4.814   6.233   0.318
10482TIP3    H131389   4.885   6.234   0.254
10482TIP3    H231390   4.737   6.262   0.270
10483TIP3   OH231391   0.381   5.851   6.658
10483TIP3    H131392   0.384   5.851   6.563
10483TIP3    H231393   0.346   5.937   6.681
10484TIP3   OH231394   7.549   1.120   3.111
10484TIP3    H131395   7.454   1.112   3.119
10484TIP3    H231396   7.583   1.033   3.131
10485TIP3   OH231397   0.957   1.269   5.830
10485TIP3    H131398   0.863   1.266   5.848
10485TIP3    H231399   0.968   1.223   5.747
10486TIP3   OH231400   1.349   3.270   1.634
10486TIP3    H131401   1.403   3.279   1.713
10486TIP3    H231402   1.383   3.336   1.574
10487TIP3   OH231403   7.250   5.314   5.643
10487TIP3    H131404   7.221   5.398   5.679
10487TIP3    H231405   7.175   5.283   5.592
10488TIP3   OH231406   4.202   7.660   5.774
10488TIP3    H131407   4.254   7.580   5.780
10488TIP3    H231408   4.162   7.656   5.687
10489TIP3   OH231409   7.933   2.184   0.222
10489TIP3    H131410   7.904   2.266   0.262
10489TIP3    H231411   7.879   2.175   0.143
10490TIP3   OH231412   8.038   0.900   3.200
10490TIP3    H131413   7.994   0.949   3.130
10490TIP3    H231414   7.979   0.826   3.217
10491TIP3   OH231415   7.232   5.830   1.486
10491TIP3    H131416   7.295   5.863   1.422
10491TIP3    H231417   7.163   5.790   1.433
10492TIP3   OH231418   3.521   1.060   1.735
10492TIP3    H131419   3.468   1.066   1.815
10492TIP3    H231420   3.606   1.028   1.765
10493TIP3   OH231421   2.245   5.352   3.559
10493TIP3    H131422   2.325   5.399   3.536
10493TIP3    H231423   2.263   5.316   3.646
10494TIP3   OH231424   3.028   6.127   4.624
10494TIP3    H131425   2.937   6.124   4.652
10494TIP3    H231426   3.059   6.213   4.654
10495TIP3   OH231427   6.974   4.425   6.579
10495TIP3    H131428   6.927   4.390   6.655
10495TIP3    H231429   7.041   4.359   6.560
10496TIP3   OH231430   3.246   3.498   3.317
10496TIP3    H131431   3.168   3.472   3.365
10496TIP3    H231432   3.281   3.572   3.366
10497TIP3   OH231433   4.816   5.218   1.219
10497TIP3    H131434   4.748   5.244   1.281
10497TIP3    H231435   4.774   5.223   1.133
10498TIP3   OH231436   0.735   2.066   6.527
10498TIP3    H131437   0.784   2.147   6.514
10498TIP3    H231438   0.656   2.078   6.474
10499TIP3   OH231439   7.648   7.512   1.563
10499TIP3    H131440   7.623   7.602   1.541
10499TIP3    H231441   7.583   7.483   1.627
10500TIP3   OH231442   6.504   0.766   2.089
10500TIP3    H131443   6.528   0.779   1.997
10500TIP3    H231444   6.498   0.854   2.125
10501TIP3   OH231445   3.702   1.123   6.578
10501TIP3    H131446   3.752   1.167   6.509
10501TIP3    H231447   3.689   1.191   6.645
10502TIP3   OH231448   2.759   2.200   6.217
10502TIP3    H131449   2.816   2.275   6.230
10502TIP3    H231450   2.816   2.124   6.230
10503TIP3   OH231451   7.733   3.517   4.294
10503TIP3    H131452   7.696   3.473   4.218
10503TIP3    H231453   7.702   3.466   4.369
10504TIP3   OH231454   3.638   2.476   0.514
10504TIP3    H131455   3.650   2.564   0.478
10504TIP3    H231456   3.679   2.480   0.601
10505TIP3   OH231457   8.109   1.448   2.972
10505TIP3    H131458   8.122   1.539   2.944
10505TIP3    H231459   8.035   1.452   3.033
10506TIP3   OH231460   5.817   0.599   5.981
10506TIP3    H131461   5.811   0.505   5.965
10506TIP3    H231462   5.861   0.635   5.904
10507TIP3   OH231463   7.493   3.116   0.684
10507TIP3    H131464   7.415   3.153   0.726
10507TIP3    H231465   7.532   3.059   0.750
10508TIP3   OH231466   7.212   5.718   6.579
10508TIP3    H131467   7.276   5.716   6.650
10508TIP3    H231468   7.239   5.792   6.525
10509TIP3   OH231469   0.662   3.284   4.187
10509TIP3    H131470   0.745   3.329   4.202
10509TIP3    H231471   0.609   3.307   4.264
10510TIP3   OH231472   3.972   5.569   6.091
10510TIP3    H131473   4.051   5.523   6.119
10510TIP3    H231474   3.994   5.603   6.004
10511TIP3   OH231475   4.490   5.673   4.266
10511TIP3    H131476   4.426   5.617   4.223
10511TIP3    H231477   4.545   5.706   4.195
10512TIP3   OH231478   3.371   6.605   5.347
10512TIP3    H131479   3.329   6.677   5.394
10512TIP3    H231480   3.341   6.526   5.392
10513TIP3   OH231481   5.349   1.957   5.936
10513TIP3    H131482   5.258   1.927   5.932
10513TIP3    H231483   5.387   1.929   5.853
10514TIP3   OH231484   1.849   3.677   2.106
10514TIP3    H131485   1.831   3.668   2.199
10514TIP3    H231486   1.943   3.665   2.098
10515TIP3   OH231487   7.322   3.928   1.476
10515TIP3    H131488   7.388   3.894   1.537
10515TIP3    H231489   7.300   4.015   1.511
10516TIP3   OH231490   4.800   7.511   2.942
10516TIP3    H131491   4.756   7.596   2.949
10516TIP3    H231492   4.863   7.511   3.014
10517TIP3   OH231493   1.555   1.045   1.964
10517TIP3    H131494   1.648   1.042   1.987
10517TIP3    H231495   1.553   1.080   1.875
10518TIP3   OH231496   0.581   4.173   2.685
10518TIP3    H131497   0.648   4.202   2.623
10518TIP3    H231498   0.615   4.196   2.771
10519TIP3   OH231499   7.372   1.822   1.692
10519TIP3    H131500   7.305   1.810   1.625
10519TIP3    H231501   7.367   1.915   1.715
10520TIP3   OH231502   3.526   2.736   0.987
10520TIP3    H131503   3.527   2.738   0.892
10520TIP3    H231504   3.445   2.690   1.009
10521TIP3   OH231505   3.378   3.928   0.068
10521TIP3    H131506   3.351   4.003   0.121
10521TIP3    H231507   3.425   3.966  -0.006
10522TIP3   OH231508   2.623   0.410   4.845
10522TIP3    H131509   2.601   0.437   4.935
10522TIP3    H231510   2.674   0.484   4.810
10523TIP3   OH231511   0.313   5.941   5.533
10523TIP3    H131512   0.277   5.965   5.448
10523TIP3    H231513   0.402   5.913   5.514
10524TIP3   OH231514   7.737   0.481   5.907
10524TIP3    H131515   7.681   0.522   5.842
10524TIP3    H231516   7.825   0.487   5.870
10525TIP3   OH231517   1.589   0.483   0.222
10525TIP3    H131518   1.529   0.552   0.251
10525TIP3    H231519   1.533   0.422   0.174
10526TIP3   OH231520   2.854   3.528   2.031
10526TIP3    H131521   2.911   3.476   2.087
10526TIP3    H231522   2.887   3.617   2.038
10527TIP3   OH231523   0.510   1.170   3.650
10527TIP3    H131524   0.594   1.210   3.675
10527TIP3    H231525   0.531   1.116   3.574
10528TIP3   OH231526   4.604   3.768   3.380
10528TIP3    H131527   4.689   3.731   3.402
10528TIP3    H231528   4.545   3.692   3.378
10529TIP3   OH231529   6.936   1.826   6.409
10529TIP3    H131530   6.952   1.901   6.352
10529TIP3    H231531   6.929   1.864   6.496
10530TIP3   OH231532   4.375   0.531   4.941
10530TIP3    H131533   4.311   0.589   4.898
10530TIP3    H231534   4.436   0.507   4.871
10531TIP3   OH231535   1.122   0.929   4.900
10531TIP3    H131536   1.101   0.921   4.993
10531TIP3    H231537   1.063   0.868   4.856
10532TIP3   OH231538   1.726   5.216   1.021
10532TIP3    H131539   1.809   5.236   1.064
10532TIP3    H231540   1.751   5.164   0.944
10533TIP3   OH231541   0.168   2.648   4.876
10533TIP3    H131542   0.134   2.737   4.881
10533TIP3    H231543   0.227   2.649   4.800
10534TIP3   OH231544   2.912   1.586   3.610
10534TIP3    H131545   2.846   1.615   3.548
10534TIP3    H231546   2.872   1.599   3.696
10535TIP3   OH231547   3.458   6.457   6.251
10535TIP3    H131548   3.407   6.427   6.326
10535TIP3    H231549   3.392   6.488   6.188
10536TIP3   OH231550   2.333   3.231   3.255
10536TIP3    H131551   2.249   3.186   3.248
10536TIP3    H231552   2.398   3.164   3.235
10537TIP3   OH231553   6.361   5.217   5.186
10537TIP3    H131554   6.287   5.179   5.233
10537TIP3    H231555   6.393   5.145   5.131
10538TIP3   OH231556   4.610   4.193   6.345
10538TIP3    H131557   4.542   4.164   6.284
10538TIP3    H231558   4.599   4.288   6.351
10539TIP3   OH231559   4.471   5.283   6.422
10539TIP3    H131560   4.486   5.298   6.329
10539TIP3    H231561   4.559   5.276   6.459
10540TIP3   OH231562   0.969   7.527   3.206
10540TIP3    H131563   1.034   7.561   3.268
10540TIP3    H231564   0.964   7.434   3.225
10541TIP3   OH231565   6.715   3.114   3.214
10541TIP3    H131566   6.807   3.089   3.204
10541TIP3    H231567   6.714   3.208   3.195
10542TIP3   OH231568   7.980   4.443   1.406
10542TIP3    H131569   7.996   4.366   1.460
10542TIP3    H231570   7.911   4.491   1.451
10543TIP3   OH231571   4.760   5.417   1.725
10543TIP3    H131572   4.746   5.511   1.724
10543TIP3    H231573   4.855   5.407   1.733
10544TIP3   OH231574   3.254   0.874   3.520
10544TIP3    H131575   3.214   0.788   3.526
10544TIP3    H231576   3.209   0.917   3.447
10545TIP3   OH231577   0.094   1.223   6.474
10545TIP3    H131578   0.005   1.244   6.503
10545TIP3    H231579   0.092   1.129   6.456
10546TIP3   OH231580   7.034   0.338   1.929
10546TIP3    H131581   6.964   0.275   1.949
10546TIP3    H231582   7.019   0.361   1.837
10547TIP3   OH231583   4.284   7.620   1.803
10547TIP3    H131584   4.311   7.598   1.892
10547TIP3    H231585   4.366   7.634   1.756
10548TIP3   OH231586   6.749   1.391   5.213
10548TIP3    H131587   6.779   1.476   5.245
10548TIP3    H231588   6.662   1.409   5.177
10549TIP3   OH231589   1.102   6.519   5.396
10549TIP3    H131590   1.124   6.428   5.416
10549TIP3    H231591   1.186   6.558   5.370
10550TIP3   OH231592   2.454   0.964   2.922
10550TIP3    H131593   2.400   0.925   2.990
10550TIP3    H231594   2.393   1.015   2.869
10551TIP3   OH231595   5.729   1.349   5.241
10551TIP3    H131596   5.810   1.384   5.203
10551TIP3    H231597   5.727   1.257   5.214
10552TIP3   OH231598   5.180   7.776   0.111
10552TIP3    H131599   5.164   7.704   0.172
10552TIP3    H231600   5.276   7.783   0.107
10553TIP3   OH231601   2.633   4.159   6.786
10553TIP3    H131602   2.652   4.086   6.845
10553TIP3    H231603   2.539   4.175   6.797
10554TIP3   OH231604   6.160   4.919   1.398
10554TIP3    H131605   6.109   4.993   1.365
10554TIP3    H231606   6.144   4.919   1.493
10555TIP3   OH231607   6.980   2.243   4.289
10555TIP3    H131608   7.026   2.188   4.225
10555TIP3    H231609   6.994   2.332   4.257
10556TIP3   OH231610   7.881   1.782   2.692
10556TIP3    H131611   7.930   1.864   2.700
10556TIP3    H231612   7.918   1.739   2.615
10557TIP3   OH231613   3.007   3.849   1.053
10557TIP3    H131614   3.007   3.758   1.025
10557TIP3    H231615   2.930   3.857   1.109
10558TIP3   OH231616   2.586   0.211   6.325
10558TIP3    H131617   2.647   0.284   6.320
10558TIP3    H231618   2.635   0.136   6.293
10559TIP3   OH231619   6.307   7.355   3.319
10559TIP3    H131620   6.354   7.275   3.295
10559TIP3    H231621   6.221   7.345   3.278
10560TIP3   OH231622   6.944   1.536   0.128
10560TIP3    H131623   6.905   1.620   0.103
10560TIP3    H231624   6.969   1.496   0.045
10561TIP3   OH231625   6.240   0.939   3.952
10561TIP3    H131626   6.278   0.884   4.021
10561TIP3    H231627   6.159   0.973   3.990
10562TIP3   OH231628   3.877   4.380   5.842
10562TIP3    H131629   3.853   4.299   5.798
10562TIP3    H231630   3.805   4.397   5.903
10563TIP3   OH231631   6.833   0.225   2.675
10563TIP3    H131632   6.854   0.267   2.758
10563TIP3    H231633   6.812   0.135   2.698
10564TIP3   OH231634   6.406   5.444   5.037
10564TIP3    H131635   6.392   5.356   5.072
10564TIP3    H231636   6.337   5.497   5.078
10565TIP3   OH231637   6.956   7.640   0.931
10565TIP3    H131638   6.912   7.669   1.011
10565TIP3    H231639   6.905   7.565   0.901
10566TIP3   OH231640   5.661   7.518   2.291
10566TIP3    H131641   5.567   7.505   2.276
10566TIP3    H231642   5.669   7.612   2.308
10567TIP3   OH231643   2.612   4.240   0.224
10567TIP3    H131644   2.595   4.162   0.173
10567TIP3    H231645   2.680   4.214   0.287
10568TIP3   OH231646   0.363   4.641   1.361
10568TIP3    H131647   0.318   4.650   1.446
10568TIP3    H231648   0.334   4.556   1.329
10569TIP3   OH231649   5.230   1.587   4.429
10569TIP3    H131650   5.272   1.573   4.344
10569TIP3    H231651   5.171   1.513   4.440
10570TIP3   OH231652   7.659   6.530   2.453
10570TIP3    H131653   7.743   6.541   2.498
10570TIP3    H231654   7.598   6.503   2.522
10571TIP3   OH231655   1.192   4.447   4.137
10571TIP3    H131656   1.216   4.540   4.136
10571TIP3    H231657   1.245   4.408   4.068
10572TIP3   OH231658   0.409   4.937   2.623
10572TIP3    H131659   0.475   4.961   2.559
10572TIP3    H231660   0.399   4.842   2.613
10573TIP3   OH231661   2.047   1.760   0.593
10573TIP3    H131662   1.995   1.804   0.526
10573TIP3    H231663   2.094   1.692   0.547
10574TIP3   OH231664   3.305   5.632   5.555
10574TIP3    H131665   3.241   5.564   5.535
10574TIP3    H231666   3.352   5.646   5.473
10575TIP3   OH231667   5.346   4.047   2.448
10575TIP3    H131668   5.393   4.130   2.452
10575TIP3    H231669   5.400   3.991   2.392
10576TIP3   OH231670   7.394   4.765   5.289
10576TIP3    H131671   7.429   4.735   5.205
10576TIP3    H231672   7.313   4.811   5.266
10577TIP3   OH231673   4.378   7.519   3.616
10577TIP3    H131674   4.377   7.473   3.532
10577TIP3    H231675   4.286   7.518   3.645
10578TIP3   OH231676   0.101   0.452   0.609
10578TIP3    H131677   0.124   0.360   0.599
10578TIP3    H231678   0.024   0.451   0.667
10579TIP3   OH231679   5.877   0.888   4.598
10579TIP3    H131680   5.956   0.911   4.549
10579TIP3    H231681   5.876   0.792   4.598
10580TIP3   OH231682   0.068   0.508   3.446
10580TIP3    H131683   0.033   0.594   3.468
10580TIP3    H231684   0.149   0.501   3.496
10581TIP3   OH231685   6.462   4.496   1.860
10581TIP3    H131686   6.381   4.458   1.827
10581TIP3    H231687   6.438   4.533   1.945
10582TIP3   OH231688   6.491   5.711   2.116
10582TIP3    H131689   6.494   5.699   2.021
10582TIP3    H231690   6.576   5.680   2.147
10583TIP3   OH231691   1.679   0.689   4.494
10583TIP3    H131692   1.664   0.779   4.466
10583TIP3    H231693   1.737   0.653   4.427
10584TIP3   OH231694   7.385   1.915   3.819
10584TIP3    H131695   7.364   1.940   3.909
10584TIP3    H231696   7.321   1.962   3.765
10585TIP3   OH231697   0.086   7.050   5.340
10585TIP3    H131698   0.086   6.967   5.294
10585TIP3    H231699   0.048   7.112   5.279
10586TIP3   OH231700   1.381   7.540   0.324
10586TIP3    H131701   1.444   7.561   0.255
10586TIP3    H231702   1.296   7.543   0.280
10587TIP3   OH231703   2.572   2.796   6.252
10587TIP3    H131704   2.555   2.874   6.306
10587TIP3    H231705   2.668   2.790   6.250
10588TIP3   OH231706   2.237   2.182   0.738
10588TIP3    H131707   2.188   2.123   0.795
10588TIP3    H231708   2.244   2.137   0.654
10589TIP3   OH231709   2.481   0.844   1.259
10589TIP3    H131710   2.459   0.924   1.307
10589TIP3    H231711   2.568   0.820   1.291
10590TIP3   OH231712   7.662   7.370   0.875
10590TIP3    H131713   7.732   7.375   0.811
10590TIP3    H231714   7.649   7.276   0.889
10591TIP3   OH231715   7.818   5.116   6.626
10591TIP3    H131716   7.753   5.181   6.600
10591TIP3    H231717   7.787   5.034   6.587
10592TIP3   OH231718   6.667   2.472   1.681
10592TIP3    H131719   6.575   2.488   1.661
10592TIP3    H231720   6.670   2.474   1.777
10593TIP3   OH231721   3.880   1.597   6.202
10593TIP3    H131722   3.961   1.596   6.151
10593TIP3    H231723   3.897   1.658   6.273
10594TIP3   OH231724   1.024   0.688   4.041
10594TIP3    H131725   1.058   0.639   3.965
10594TIP3    H231726   0.932   0.701   4.021
10595TIP3   OH231727   7.122   6.537   1.630
10595TIP3    H131728   7.185   6.487   1.681
10595TIP3    H231729   7.101   6.613   1.685
10596TIP3   OH231730   1.359   4.788   6.318
10596TIP3    H131731   1.431   4.838   6.280
10596TIP3    H231732   1.290   4.790   6.252
10597TIP3   OH231733   5.423   5.274   5.364
10597TIP3    H131734   5.491   5.295   5.299
10597TIP3    H231735   5.344   5.316   5.330
10598TIP3   OH231736   0.270   0.098   2.324
10598TIP3    H131737   0.324   0.176   2.309
10598TIP3    H231738   0.333   0.031   2.353
10599TIP3   OH231739   5.384   6.128   4.262
10599TIP3    H131740   5.351   6.212   4.294
10599TIP3    H231741   5.343   6.063   4.318
10600TIP3   OH231742   5.931   4.993   5.243
10600TIP3    H131743   5.874   4.988   5.320
10600TIP3    H231744   5.917   4.910   5.197
10601TIP3   OH231745   5.398   3.251   3.822
10601TIP3    H131746   5.368   3.234   3.912
10601TIP3    H231747   5.319   3.244   3.769
10602TIP3   OH231748   1.753   1.429   5.606
10602TIP3    H131749   1.773   1.359   5.544
10602TIP3    H231750   1.835   1.478   5.614
10603TIP3   OH231751   5.169   1.798   1.428
10603TIP3    H131752   5.222   1.730   1.387
10603TIP3    H231753   5.205   1.808   1.516
10604TIP3   OH231754   2.308   2.302   6.477
10604TIP3    H131755   2.311   2.302   6.381
10604TIP3    H231756   2.352   2.221   6.502
10605TIP3   OH231757   3.371   2.671   0.046
10605TIP3    H131758   3.408   2.584   0.057
10605TIP3    H231759   3.447   2.730   0.044
10606TIP3   OH231760   1.955   1.136   0.873
10606TIP3    H131761   1.934   1.052   0.833
10606TIP3    H231762   1.950   1.199   0.801
10607TIP3   OH231763   1.198   4.602   6.696
10607TIP3    H131764   1.212   4.547   6.619
10607TIP3    H231765   1.223   4.690   6.666
10608TIP3   OH231766   0.510   4.112   1.268
10608TIP3    H131767   0.573   4.101   1.197
10608TIP3    H231768   0.437   4.160   1.229
10609TIP3   OH231769   7.541   4.936   6.239
10609TIP3    H131770   7.466   4.876   6.245
10609TIP3    H231771   7.577   4.938   6.328
10610TIP3   OH231772   6.403   6.586   3.455
10610TIP3    H131773   6.394   6.556   3.365
10610TIP3    H231774   6.497   6.606   3.465
10611TIP3   OH231775   4.090   2.748   5.080
10611TIP3    H131776   4.069   2.811   5.011
10611TIP3    H231777   4.034   2.673   5.061
10612TIP3   OH231778   1.972   5.563   0.454
10612TIP3    H131779   2.050   5.608   0.421
10612TIP3    H231780   2.005   5.477   0.482
10613TIP3   OH231781   5.032   5.178   2.377
10613TIP3    H131782   5.021   5.246   2.443
10613TIP3    H231783   5.042   5.097   2.427
10614TIP3   OH231784   7.334   0.093   0.282
10614TIP3    H131785   7.372   0.024   0.228
10614TIP3    H231786   7.322   0.053   0.368
10615TIP3   OH231787   0.188   7.617   4.599
10615TIP3    H131788   0.174   7.663   4.682
10615TIP3    H231789   0.271   7.570   4.612
10616TIP3   OH231790   6.170   3.419   6.196
10616TIP3    H131791   6.225   3.341   6.192
10616TIP3    H231792   6.142   3.433   6.106
10617TIP3   OH231793   4.143   1.361   4.978
10617TIP3    H131794   4.221   1.411   4.954
10617TIP3    H231795   4.080   1.380   4.909
10618TIP3   OH231796   7.842   6.561   3.490
10618TIP3    H131797   7.917   6.520   3.533
10618TIP3    H231798   7.807   6.622   3.555
10619TIP3   OH231799   7.733   0.451   4.109
10619TIP3    H131800   7.654   0.499   4.083
10619TIP3    H231801   7.793   0.518   4.142
10620TIP3   OH231802   2.169   5.907   0.813
10620TIP3    H131803   2.138   5.991   0.845
10620TIP3    H231804   2.109   5.884   0.742
10621TIP3   OH231805   1.488   3.716   3.831
10621TIP3    H131806   1.537   3.768   3.768
10621TIP3    H231807   1.406   3.694   3.786
10622TIP3   OH231808   1.186   5.438   3.149
10622TIP3    H131809   1.186   5.515   3.205
10622TIP3    H231810   1.278   5.422   3.130
10623TIP3   OH231811   5.274   2.569   2.435
10623TIP3    H131812   5.333   2.585   2.509
10623TIP3    H231813   5.195   2.533   2.474
10624TIP3   OH231814   2.085   0.253   4.440
10624TIP3    H131815   2.105   0.347   4.437
10624TIP3    H231816   2.135   0.216   4.368
10625TIP3   OH231817   1.220   3.875   6.066
10625TIP3    H131818   1.161   3.936   6.023
10625TIP3    H231819   1.217   3.900   6.159
10626TIP3   OH231820   6.922   3.246   5.240
10626TIP3    H131821   6.908   3.159   5.202
10626TIP3    H231822   6.919   3.305   5.164
10627TIP3   OH231823   7.937   6.326   4.281
10627TIP3    H131824   7.871   6.390   4.310
10627TIP3    H231825   7.897   6.281   4.207
10628TIP3   OH231826   6.892   0.309   3.936
10628TIP3    H131827   6.885   0.253   3.859
10628TIP3    H231828   6.968   0.365   3.919
10629TIP3   OH231829   5.143   0.535   0.927
10629TIP3    H131830   5.217   0.495   0.882
10629TIP3    H231831   5.168   0.627   0.939
10630TIP3   OH231832   1.445   1.303   6.212
10630TIP3    H131833   1.433   1.341   6.125
10630TIP3    H231834   1.372   1.242   6.222
10631TIP3   OH231835   1.504   5.814   2.534
10631TIP3    H131836   1.524   5.830   2.442
10631TIP3    H231837   1.556   5.737   2.557
10632TIP3   OH231838   6.077   4.788   4.161
10632TIP3    H131839   6.050   4.750   4.244
10632TIP3    H231840   6.142   4.855   4.185
10633TIP3   OH231841   0.871   3.440   3.647
10633TIP3    H131842   0.836   3.372   3.590
10633TIP3    H231843   0.954   3.466   3.605
10634TIP3   OH231844   8.206   7.698   5.113
10634TIP3    H131845   8.285   7.750   5.127
10634TIP3    H231846   8.222   7.651   5.031
10635TIP3   OH231847   7.713   7.493   4.803
10635TIP3    H131848   7.650   7.423   4.785
10635TIP3    H231849   7.712   7.502   4.898
10636TIP3   OH231850   8.089   3.907   5.216
10636TIP3    H131851   8.143   3.881   5.141
10636TIP3    H231852   8.144   3.890   5.292
10637TIP3   OH231853   6.766   3.653   5.828
10637TIP3    H131854   6.851   3.613   5.846
10637TIP3    H231855   6.787   3.728   5.771
10638TIP3   OH231856   0.005   6.038   5.983
10638TIP3    H131857   0.081   5.984   6.004
10638TIP3    H231858  -0.019   6.080   6.065
10639TIP3   OH231859   2.001   6.115   6.123
10639TIP3    H131860   2.006   6.188   6.183
10639TIP3    H231861   1.976   6.040   6.177
10640TIP3   OH231862   4.829   0.958   3.275
10640TIP3    H131863   4.910   0.945   3.225
10640TIP3    H231864   4.774   1.012   3.218
10641TIP3   OH231865   2.297   5.183   1.774
10641TIP3    H131866   2.349   5.157   1.698
10641TIP3    H231867   2.341   5.262   1.807
10642TIP3   OH231868   6.947   5.602   4.724
10642TIP3    H131869   6.904   5.568   4.646
10642TIP3    H231870   6.887   5.671   4.755
10643TIP3   OH231871   7.321   6.927   6.434
10643TIP3    H131872   7.320   6.930   6.339
10643TIP3    H231873   7.359   7.011   6.460
10644TIP3   OH231874   2.319   6.637   5.026
10644TIP3    H131875   2.347   6.551   4.995
10644TIP3    H231876   2.224   6.631   5.032
10645TIP3   OH231877   5.788   2.220   2.571
10645TIP3    H131878   5.783   2.131   2.535
10645TIP3    H231879   5.702   2.236   2.608
10646TIP3   OH231880   0.676   0.066   6.566
10646TIP3    H131881   0.665   0.153   6.528
10646TIP3    H231882   0.652   0.006   6.495
10647TIP3   OH231883   2.822   3.487   5.626
10647TIP3    H131884   2.780   3.445   5.551
10647TIP3    H231885   2.811   3.424   5.698
10648TIP3   OH231886   3.067   3.956   1.864
10648TIP3    H131887   3.093   3.939   1.774
10648TIP3    H231888   3.024   4.041   1.862
10649TIP3   OH231889   7.090   0.088   1.349
10649TIP3    H131890   7.178   0.058   1.324
10649TIP3    H231891   7.082   0.064   1.441
10650TIP3   OH231892   8.138   3.030   2.116
10650TIP3    H131893   8.074   2.960   2.100
10650TIP3    H231894   8.107   3.073   2.196
10651TIP3   OH231895   1.763   1.102   3.553
10651TIP3    H131896   1.805   1.060   3.628
10651TIP3    H231897   1.710   1.033   3.513
10652TIP3   OH231898   5.241   4.745   2.726
10652TIP3    H131899   5.256   4.736   2.632
10652TIP3    H231900   5.146   4.750   2.735
10653TIP3   OH231901   1.525   0.597   1.448
10653TIP3    H131902   1.617   0.613   1.469
10653TIP3    H231903   1.506   0.511   1.484
10654TIP3   OH231904   7.495   3.838   0.779
10654TIP3    H131905   7.521   3.849   0.688
10654TIP3    H231906   7.577   3.837   0.828
10655TIP3   OH231907   1.797   3.801   4.231
10655TIP3    H131908   1.722   3.773   4.177
10655TIP3    H231909   1.767   3.881   4.273
10656TIP3   OH231910   3.324   4.609   0.471
10656TIP3    H131911   3.340   4.699   0.444
10656TIP3    H231912   3.409   4.579   0.504
10657TIP3   OH231913   7.031   2.935   4.379
10657TIP3    H131914   6.954   2.954   4.325
10657TIP3    H231915   7.105   2.968   4.328
10658TIP3   OH231916   3.481   2.449   0.280
10658TIP3    H131917   3.547   2.454   0.350
10658TIP3    H231918   3.398   2.434   0.326
10659TIP3   OH231919   1.064   2.913   0.268
10659TIP3    H131920   1.133   2.978   0.273
10659TIP3    H231921   0.995   2.946   0.326
10660TIP3   OH231922   0.053   5.965   4.910
10660TIP3    H131923   0.049   5.903   4.983
10660TIP3    H231924   0.133   6.015   4.925
10661TIP3   OH231925   7.517   2.242   3.049
10661TIP3    H131926   7.530   2.264   3.141
10661TIP3    H231927   7.425   2.215   3.044
10662TIP3   OH231928   6.863   4.096   2.200
10662TIP3    H131929   6.804   4.066   2.130
10662TIP3    H231930   6.851   4.031   2.270
10663TIP3   OH231931   6.580   3.091   6.086
10663TIP3    H131932   6.561   3.010   6.133
10663TIP3    H231933   6.636   3.064   6.013
10664TIP3   OH231934   5.097   1.247   1.615
10664TIP3    H131935   5.177   1.298   1.628
10664TIP3    H231936   5.111   1.166   1.664
10665TIP3   OH231937   1.422   1.384   0.176
10665TIP3    H131938   1.329   1.404   0.183
10665TIP3    H231939   1.437   1.369   0.083
10666TIP3   OH231940   7.063   0.190   4.756
10666TIP3    H131941   6.979   0.201   4.801
10666TIP3    H231942   7.129   0.203   4.824
10667TIP3   OH231943   4.222   6.032   3.493
10667TIP3    H131944   4.187   6.077   3.570
10667TIP3    H231945   4.298   6.085   3.467
10668TIP3   OH231946   6.876   2.656   2.941
10668TIP3    H131947   6.914   2.743   2.931
10668TIP3    H231948   6.783   2.672   2.956
10669TIP3   OH231949   7.561   6.912   1.778
10669TIP3    H131950   7.535   6.990   1.826
10669TIP3    H231951   7.578   6.846   1.846
10670TIP3   OH231952   7.111   7.613   3.821
10670TIP3    H131953   7.173   7.622   3.894
10670TIP3    H231954   7.112   7.520   3.800
10671TIP3   OH231955   7.892   7.386   2.679
10671TIP3    H131956   7.879   7.299   2.640
10671TIP3    H231957   7.886   7.446   2.605
10672TIP3   OH231958   7.761   3.358   3.691
10672TIP3    H131959   7.682   3.312   3.720
10672TIP3    H231960   7.764   3.437   3.747
10673TIP3   OH231961   6.325   0.090   1.936
10673TIP3    H131962   6.305  -0.001   1.912
10673TIP3    H231963   6.312   0.093   2.031
10674TIP3   OH231964   6.163   3.144   4.159
10674TIP3    H131965   6.234   3.130   4.096
10674TIP3    H231966   6.084   3.150   4.106
10675TIP3   OH231967   6.819   0.597   3.283
10675TIP3    H131968   6.891   0.578   3.223
10675TIP3    H231969   6.754   0.642   3.230
10676TIP3   OH231970   3.236   1.946   1.074
10676TIP3    H131971   3.309   1.983   1.123
10676TIP3    H231972   3.274   1.915   0.992
10677TIP3   OH231973   1.685   3.905   1.470
10677TIP3    H131974   1.777   3.880   1.460
10677TIP3    H231975   1.675   3.984   1.417
10678TIP3   OH231976   7.346   6.027   4.453
10678TIP3    H131977   7.346   5.975   4.372
10678TIP3    H231978   7.396   5.974   4.516
10679TIP3   OH231979   5.774   0.222   3.373
10679TIP3    H131980   5.847   0.163   3.394
10679TIP3    H231981   5.810   0.284   3.310
10680TIP3   OH231982   6.906   4.836   2.342
10680TIP3    H131983   6.952   4.774   2.399
10680TIP3    H231984   6.966   4.851   2.269
10681TIP3   OH231985   1.977   6.916   4.699
10681TIP3    H131986   1.909   6.854   4.672
10681TIP3    H231987   2.057   6.863   4.705
10682TIP3   OH231988   7.875   7.797   3.228
10682TIP3    H131989   7.905   7.752   3.307
10682TIP3    H231990   7.784   7.770   3.218
10683TIP3   OH231991   7.400   6.483   5.801
10683TIP3    H131992   7.491   6.455   5.812
10683TIP3    H231993   7.349   6.402   5.799
10684TIP3   OH231994   0.812   5.973   1.674
10684TIP3    H131995   0.819   6.053   1.622
10684TIP3    H231996   0.866   5.909   1.627
10685TIP3   OH231997   2.705   6.044   6.041
10685TIP3    H131998   2.654   6.008   6.114
10685TIP3    H231999   2.669   6.132   6.028
10686TIP3   OH232000   3.889   5.398   0.217
10686TIP3    H132001   3.828   5.448   0.272
10686TIP3    H232002   3.899   5.314   0.262
10687TIP3   OH232003   1.660   2.730   2.384
10687TIP3    H132004   1.723   2.682   2.330
10687TIP3    H232005   1.705   2.811   2.407
10688TIP3   OH232006   3.942   2.304   2.276
10688TIP3    H132007   3.923   2.351   2.195
10688TIP3    H232008   3.922   2.212   2.256
10689TIP3   OH232009   0.716   0.571   1.792
10689TIP3    H132010   0.631   0.544   1.827
10689TIP3    H232011   0.699   0.598   1.702
10690TIP3   OH232012   4.332   6.452   4.343
10690TIP3    H132013   4.363   6.380   4.398
10690TIP3    H232014   4.328   6.527   4.402
10691TIP3   OH232015   4.609   7.480   5.208
10691TIP3    H132016   4.558   7.522   5.277
10691TIP3    H232017   4.587   7.530   5.128
10692TIP3   OH232018   6.231   6.033   5.115
10692TIP3    H132019   6.272   6.104   5.066
10692TIP3    H232020   6.149   6.070   5.146
10693TIP3   OH232021   4.559   3.045   4.555
10693TIP3    H132022   4.562   3.012   4.465
10693TIP3    H232023   4.651   3.045   4.584
10694TIP3   OH232024   1.779   0.305   3.153
10694TIP3    H132025   1.840   0.378   3.162
10694TIP3    H232026   1.766   0.296   3.059
10695TIP3   OH232027   1.517   0.786   5.606
10695TIP3    H132028   1.523   0.690   5.614
10695TIP3    H232029   1.605   0.814   5.582
10696TIP3   OH232030   4.339   3.599   2.671
10696TIP3    H132031   4.316   3.508   2.689
10696TIP3    H232032   4.435   3.601   2.671
10697TIP3   OH232033   2.787   3.954   6.325
10697TIP3    H132034   2.799   3.891   6.253
10697TIP3    H232035   2.796   3.901   6.404
10698TIP3   OH232036   6.315   0.689   6.279
10698TIP3    H132037   6.331   0.773   6.323
10698TIP3    H232038   6.253   0.710   6.210
10699TIP3   OH232039   0.794   4.694   0.967
10699TIP3    H132040   0.773   4.780   1.002
10699TIP3    H232041   0.720   4.673   0.910
10700TIP3   OH232042   4.677   1.891   6.017
10700TIP3    H132043   4.675   1.945   5.939
10700TIP3    H232044   4.598   1.837   6.011
10701TIP3   OH232045   0.641   3.685   4.150
10701TIP3    H132046   0.551   3.714   4.164
10701TIP3    H232047   0.694   3.743   4.206
10702TIP3   OH232048   0.431   0.807   4.867
10702TIP3    H132049   0.448   0.770   4.954
10702TIP3    H232050   0.517   0.808   4.825
10703TIP3   OH232051   6.806   5.822   0.051
10703TIP3    H132052   6.896   5.847   0.034
10703TIP3    H232053   6.759   5.905   0.063
10704TIP3   OH232054   7.120   1.165   1.139
10704TIP3    H132055   7.160   1.194   1.057
10704TIP3    H232056   7.163   1.082   1.159
10705TIP3   OH232057   6.315   1.307   2.981
10705TIP3    H132058   6.272   1.310   2.896
10705TIP3    H232059   6.406   1.287   2.962
10706TIP3   OH232060   3.663   1.817   2.005
10706TIP3    H132061   3.630   1.774   2.084
10706TIP3    H232062   3.689   1.905   2.035
10707TIP3   OH232063   2.054   6.676   2.782
10707TIP3    H132064   1.974   6.715   2.817
10707TIP3    H232065   2.071   6.600   2.838
10708TIP3   OH232066   2.363   6.323   2.995
10708TIP3    H132067   2.392   6.412   3.017
10708TIP3    H232068   2.442   6.279   2.965
10709TIP3   OH232069   1.856   2.787   4.906
10709TIP3    H132070   1.854   2.755   4.996
10709TIP3    H232071   1.796   2.729   4.859
10710TIP3   OH232072   3.304   6.599   6.596
10710TIP3    H132073   3.332   6.526   6.540
10710TIP3    H232074   3.301   6.562   6.684
10711TIP3   OH232075   7.762   7.461   3.993
10711TIP3    H132076   7.673   7.437   4.018
10711TIP3    H232077   7.760   7.464   3.897
10712TIP3   OH232078   6.454   4.330   6.652
10712TIP3    H132079   6.442   4.332   6.747
10712TIP3    H232080   6.509   4.406   6.633
10713TIP3   OH232081   4.470   6.106   4.107
10713TIP3    H132082   4.510   6.036   4.054
10713TIP3    H232083   4.514   6.186   4.077
10714TIP3   OH232084   2.235   4.763   3.415
10714TIP3    H132085   2.300   4.768   3.345
10714TIP3    H232086   2.262   4.829   3.478
10715TIP3   OH232087   8.304   0.382   6.682
10715TIP3    H132088   8.214   0.375   6.649
10715TIP3    H232089   8.334   0.467   6.650
10716TIP3   OH232090   7.508   0.719   2.974
10716TIP3    H132091   7.587   0.673   2.946
10716TIP3    H232092   7.436   0.669   2.934
10717TIP3   OH232093   5.875   6.311   3.077
10717TIP3    H132094   5.854   6.276   2.991
10717TIP3    H232095   5.810   6.273   3.135
10718TIP3   OH232096   6.556   7.228   3.135
10718TIP3    H132097   6.642   7.222   3.176
10718TIP3    H232098   6.559   7.168   3.061
10719TIP3   OH232099   5.462   5.682   6.480
10719TIP3    H132100   5.492   5.593   6.501
10719TIP3    H232101   5.368   5.680   6.498
10720TIP3   OH232102   1.491   7.488   2.618
10720TIP3    H132103   1.572   7.480   2.670
10720TIP3    H232104   1.487   7.581   2.594
10721TIP3   OH232105   7.073   2.255   2.839
10721TIP3    H132106   7.137   2.318   2.806
10721TIP3    H232107   7.015   2.306   2.895
10722TIP3   OH232108   1.921   0.136   4.633
10722TIP3    H132109   1.949   0.045   4.643
10722TIP3    H232110   1.991   0.177   4.581
10723TIP3   OH232111   2.283   1.640   4.344
10723TIP3    H132112   2.197   1.600   4.328
10723TIP3    H232113   2.282   1.719   4.290
10724TIP3   OH232114   5.921   1.952   1.851
10724TIP3    H132115   5.942   1.957   1.757
10724TIP3    H232116   5.980   2.015   1.892
10725TIP3   OH232117   4.405   1.012   1.632
10725TIP3    H132118   4.452   1.092   1.655
10725TIP3    H232119   4.468   0.942   1.646
10726TIP3   OH232120   7.945   3.873   0.315
10726TIP3    H132121   7.916   3.960   0.290
10726TIP3    H232122   8.039   3.884   0.333
10727TIP3   OH232123   4.239   4.762   3.590
10727TIP3    H132124   4.262   4.852   3.569
10727TIP3    H232125   4.146   4.765   3.611
10728TIP3   OH232126   0.468   3.025   4.287
10728TIP3    H132127   0.536   2.965   4.319
10728TIP3    H232128   0.514   3.108   4.275
10729TIP3   OH232129   5.384   5.861   2.614
10729TIP3    H132130   5.390   5.777   2.659
10729TIP3    H232131   5.458   5.911   2.648
10730TIP3   OH232132   0.094   2.303   4.700
10730TIP3    H132133   0.017   2.352   4.671
10730TIP3    H232134   0.165   2.367   4.701
10731TIP3   OH232135   6.516   0.467   1.130
10731TIP3    H132136   6.448   0.406   1.104
10731TIP3    H232137   6.470   0.539   1.172
10732TIP3   OH232138   1.174   5.608   6.548
10732TIP3    H132139   1.129   5.646   6.472
10732TIP3    H232140   1.234   5.677   6.578
10733TIP3   OH232141   3.447   0.914   3.100
10733TIP3    H132142   3.374   0.912   3.162
10733TIP3    H232143   3.520   0.876   3.149
10734TIP3   OH232144   1.056   5.374   5.938
10734TIP3    H132145   0.986   5.309   5.941
10734TIP3    H232146   1.115   5.350   6.010
10735TIP3   OH232147   0.359   5.971   2.395
10735TIP3    H132148   0.364   6.058   2.358
10735TIP3    H232149   0.299   5.923   2.338
10736TIP3   OH232150   3.104   5.502   0.363
10736TIP3    H132151   3.062   5.547   0.290
10736TIP3    H232152   3.121   5.571   0.428
10737TIP3   OH232153   2.649   6.742   3.993
10737TIP3    H132154   2.633   6.654   4.026
10737TIP3    H232155   2.741   6.740   3.965
10738TIP3   OH232156   0.118   1.448   1.756
10738TIP3    H132157   0.083   1.361   1.774
10738TIP3    H232158   0.137   1.485   1.842
10739TIP3   OH232159   8.191   6.133   3.542
10739TIP3    H132160   8.224   6.114   3.455
10739TIP3    H232161   8.172   6.226   3.541
10740TIP3   OH232162   4.522   7.118   1.467
10740TIP3    H132163   4.463   7.182   1.506
10740TIP3    H232164   4.532   7.146   1.376
10741TIP3   OH232165   8.089   1.391   6.235
10741TIP3    H132166   8.127   1.367   6.319
10741TIP3    H232167   7.996   1.404   6.254
10742TIP3   OH232168   0.848   6.169   1.495
10742TIP3    H132169   0.943   6.156   1.502
10742TIP3    H232170   0.835   6.262   1.511
10743TIP3   OH232171   7.833   1.940   0.956
10743TIP3    H132172   7.756   1.884   0.967
10743TIP3    H232173   7.863   1.958   1.045
10744TIP3   OH232174   6.484   6.247   1.835
10744TIP3    H132175   6.443   6.330   1.807
10744TIP3    H232176   6.571   6.272   1.864
10745TIP3   OH232177   3.465   3.561   1.327
10745TIP3    H132178   3.444   3.601   1.243
10745TIP3    H232179   3.541   3.505   1.309
10746TIP3   OH232180   4.517   2.352   4.234
10746TIP3    H132181   4.551   2.359   4.144
10746TIP3    H232182   4.449   2.284   4.229
10747TIP3   OH232183   3.201   5.741   0.538
10747TIP3    H132184   3.288   5.704   0.528
10747TIP3    H232185   3.193   5.759   0.631
10748TIP3   OH232186   8.177   6.558   4.524
10748TIP3    H132187   8.265   6.521   4.526
10748TIP3    H232188   8.170   6.598   4.437
10749TIP3   OH232189   5.959   6.397   0.573
10749TIP3    H132190   6.011   6.362   0.501
10749TIP3    H232191   5.964   6.330   0.641
10750TIP3   OH232192   7.151   1.869   3.055
10750TIP3    H132193   7.165   1.873   3.150
10750TIP3    H232194   7.218   1.808   3.024
10751TIP3   OH232195   2.873   5.848   5.815
10751TIP3    H132196   2.829   5.933   5.806
10751TIP3    H232197   2.908   5.848   5.904
10752TIP3   OH232198   5.040   1.345   3.874
10752TIP3    H132199   5.007   1.282   3.810
10752TIP3    H232200   5.087   1.292   3.938
10753TIP3   OH232201   8.098   4.802   2.016
10753TIP3    H132202   8.177   4.805   2.070
10753TIP3    H232203   8.027   4.820   2.077
10754TIP3   OH232204   6.597   2.846   4.345
10754TIP3    H132205   6.553   2.767   4.314
10754TIP3    H232206   6.611   2.830   4.438
10755TIP3   OH232207   7.685   1.032   4.573
10755TIP3    H132208   7.737   1.019   4.493
10755TIP3    H232209   7.597   1.051   4.542
10756TIP3   OH232210   0.210   1.132   0.079
10756TIP3    H132211   0.181   1.051   0.036
10756TIP3    H232212   0.153   1.200   0.042
10757TIP3   OH232213   6.087   3.071   6.512
10757TIP3    H132214   6.016   3.116   6.465
10757TIP3    H232215   6.153   3.139   6.527
10758TIP3   OH232216   6.903   7.674   5.724
10758TIP3    H132217   6.919   7.610   5.654
10758TIP3    H232218   6.817   7.710   5.704
10759TIP3   OH232219   2.055   0.744   0.880
10759TIP3    H132220   2.106   0.740   0.961
10759TIP3    H232221   2.020   0.656   0.869
10760TIP3   OH232222   2.854   4.953   2.941
10760TIP3    H132223   2.902   5.000   3.010
10760TIP3    H232224   2.815   4.878   2.985
10761TIP3   OH232225   6.020   1.029   4.353
10761TIP3    H132226   6.099   1.065   4.393
10761TIP3    H232227   5.951   1.090   4.378
10762TIP3   OH232228   4.030   3.938   3.859
10762TIP3    H132229   4.073   3.978   3.784
10762TIP3    H232230   3.958   3.998   3.881
10763TIP3   OH232231   3.120   6.567   0.112
10763TIP3    H132232   3.131   6.554   0.206
10763TIP3    H232233   3.144   6.483   0.074
10764TIP3   OH232234   4.449   4.048   0.864
10764TIP3    H132235   4.364   4.005   0.878
10764TIP3    H232236   4.441   4.087   0.777
10765TIP3   OH232237   3.935   2.729   0.971
10765TIP3    H132238   4.026   2.727   1.002
10765TIP3    H232239   3.887   2.674   1.032
10766TIP3   OH232240   1.142   0.511   1.393
10766TIP3    H132241   1.197   0.570   1.444
10766TIP3    H232242   1.186   0.426   1.400
10767TIP3   OH232243   4.395   5.115   1.849
10767TIP3    H132244   4.315   5.138   1.801
10767TIP3    H232245   4.375   5.030   1.888
10768TIP3   OH232246   6.053   6.478   6.130
10768TIP3    H132247   6.039   6.564   6.168
10768TIP3    H232248   5.979   6.466   6.070
10769TIP3   OH232249   7.747   2.143   5.314
10769TIP3    H132250   7.811   2.179   5.252
10769TIP3    H232251   7.717   2.220   5.363
10770TIP3   OH232252   1.948   0.156   4.070
10770TIP3    H132253   1.877   0.132   4.010
10770TIP3    H232254   2.025   0.163   4.015
10771TIP3   OH232255   5.314   4.822   5.327
10771TIP3    H132256   5.313   4.766   5.250
10771TIP3    H232257   5.276   4.905   5.297
10772TIP3   OH232258   1.710   3.825   0.560
10772TIP3    H132259   1.698   3.885   0.633
10772TIP3    H232260   1.794   3.782   0.576
10773TIP3   OH232261   8.271   3.745   1.210
10773TIP3    H132262   8.273   3.769   1.302
10773TIP3    H232263   8.318   3.661   1.206
10774TIP3   OH232264   4.883   6.437   1.906
10774TIP3    H132265   4.804   6.483   1.932
10774TIP3    H232266   4.877   6.351   1.949
10775TIP3   OH232267   3.794   7.449   5.488
10775TIP3    H132268   3.778   7.389   5.560
10775TIP3    H232269   3.709   7.487   5.467
10776TIP3   OH232270   2.037   2.345   2.879
10776TIP3    H132271   1.993   2.369   2.961
10776TIP3    H232272   2.128   2.328   2.905
10777TIP3   OH232273   3.617   4.254   1.935
10777TIP3    H132274   3.625   4.300   1.852
10777TIP3    H232275   3.630   4.162   1.913
10778TIP3   OH232276   6.648   1.555   2.585
10778TIP3    H132277   6.639   1.533   2.678
10778TIP3    H232278   6.725   1.507   2.556
10779TIP3   OH232279   5.173   4.612   5.576
10779TIP3    H132280   5.230   4.660   5.516
10779TIP3    H232281   5.089   4.657   5.571
10780TIP3   OH232282   5.095   5.595   1.071
10780TIP3    H132283   5.077   5.599   0.977
10780TIP3    H232284   5.164   5.529   1.080
10781TIP3   OH232285   3.256   4.023   3.419
10781TIP3    H132286   3.349   4.043   3.423
10781TIP3    H232287   3.238   4.007   3.326
10782TIP3   OH232288   2.651   1.567   0.757
10782TIP3    H132289   2.665   1.526   0.842
10782TIP3    H232290   2.701   1.649   0.762
10783TIP3   OH232291   3.891   1.386   5.948
10783TIP3    H132292   3.979   1.419   5.968
10783TIP3    H232293   3.906   1.300   5.910
10784TIP3   OH232294   1.918   4.394   4.667
10784TIP3    H132295   1.858   4.426   4.600
10784TIP3    H232296   1.971   4.470   4.690
10785TIP3   OH232297   7.700   1.816   0.013
10785TIP3    H132298   7.692   1.738   0.066
10785TIP3    H232299   7.762   1.872   0.060
10786TIP3   OH232300   7.156   4.721   1.751
10786TIP3    H132301   7.071   4.758   1.728
10786TIP3    H232302   7.197   4.787   1.807
10787TIP3   OH232303   6.628   6.652   4.550
10787TIP3    H132304   6.629   6.566   4.590
10787TIP3    H232305   6.708   6.655   4.497
10788TIP3   OH232306   0.711   6.106   2.305
10788TIP3    H132307   0.779   6.054   2.264
10788TIP3    H232308   0.652   6.130   2.234
10789TIP3   OH232309   3.041   7.549   4.413
10789TIP3    H132310   3.089   7.534   4.332
10789TIP3    H232311   3.021   7.643   4.411
10790TIP3   OH232312   6.321   6.579   2.676
10790TIP3    H132313   6.309   6.508   2.740
10790TIP3    H232314   6.415   6.577   2.656
10791TIP3   OH232315   3.232   0.751   4.519
10791TIP3    H132316   3.202   0.770   4.431
10791TIP3    H232317   3.270   0.833   4.550
10792TIP3   OH232318   8.152   0.845   1.978
10792TIP3    H132319   8.155   0.786   2.053
10792TIP3    H232320   8.095   0.801   1.915
10793TIP3   OH232321   1.282   5.138   0.900
10793TIP3    H132322   1.255   5.104   0.986
10793TIP3    H232323   1.377   5.148   0.908
10794TIP3   OH232324   0.455   5.796   1.549
10794TIP3    H132325   0.472   5.871   1.605
10794TIP3    H232326   0.523   5.800   1.482
10795TIP3   OH232327   2.028   5.265   2.768
10795TIP3    H132328   1.933   5.270   2.767
10795TIP3    H232329   2.057   5.351   2.738
10796TIP3   OH232330   6.254   5.729   5.651
10796TIP3    H132331   6.162   5.722   5.679
10796TIP3    H232332   6.267   5.823   5.639
10797TIP3   OH232333   3.728   4.563   2.121
10797TIP3    H132334   3.689   4.583   2.036
10797TIP3    H232335   3.654   4.567   2.182
10798TIP3   OH232336   5.170   5.868   5.291
10798TIP3    H132337   5.224   5.790   5.301
10798TIP3    H232338   5.230   5.942   5.304
10799TIP3   OH232339   2.867   5.352   0.452
10799TIP3    H132340   2.949   5.400   0.440
10799TIP3    H232341   2.885   5.265   0.417
10800TIP3   OH232342   0.285   7.272   0.743
10800TIP3    H132343   0.356   7.218   0.707
10800TIP3    H232344   0.264   7.231   0.827
10801TIP3   OH232345   5.708   5.353   3.522
10801TIP3    H132346   5.726   5.409   3.447
10801TIP3    H232347   5.687   5.267   3.484
10802TIP3   OH232348   2.173   6.617   4.251
10802TIP3    H132349   2.112   6.655   4.188
10802TIP3    H232350   2.233   6.565   4.197
10803TIP3   OH232351   3.157   4.315   4.151
10803TIP3    H132352   3.104   4.395   4.161
10803TIP3    H232353   3.203   4.306   4.234
10804TIP3   OH232354   2.887   7.187  -0.004
10804TIP3    H132355   2.875   7.128   0.070
10804TIP3    H232356   2.906   7.130  -0.078
10805TIP3   OH232357   6.141   3.149   4.783
10805TIP3    H132358   6.098   3.081   4.835
10805TIP3    H232359   6.074   3.217   4.773
10806TIP3   OH232360   8.147   0.044   6.492
10806TIP3    H132361   8.109  -0.031   6.446
10806TIP3    H232362   8.086   0.116   6.475
10807TIP3   OH232363   5.895   4.289   0.704
10807TIP3    H132364   5.909   4.262   0.613
10807TIP3    H232365   5.852   4.375   0.697
10808TIP3   OH232366   6.620   3.816   2.628
10808TIP3    H132367   6.629   3.731   2.586
10808TIP3    H232368   6.552   3.803   2.694
10809TIP3   OH232369   3.340   2.135   6.299
10809TIP3    H132370   3.292   2.185   6.233
10809TIP3    H232371   3.337   2.044   6.268
10810TIP3   OH232372   1.806   3.742   3.333
10810TIP3    H132373   1.868   3.772   3.266
10810TIP3    H232374   1.729   3.714   3.283
10811TIP3   OH232375   7.421   2.552   3.757
10811TIP3    H132376   7.510   2.524   3.777
10811TIP3    H232377   7.377   2.555   3.842
10812TIP3   OH232378   2.752   3.783   6.541
10812TIP3    H132379   2.817   3.736   6.489
10812TIP3    H232380   2.673   3.728   6.536
10813TIP3   OH232381   6.872   5.225   0.416
10813TIP3    H132382   6.898   5.162   0.349
10813TIP3    H232383   6.880   5.310   0.373
10814TIP3   OH232384   3.146   4.938   3.591
10814TIP3    H132385   3.242   4.929   3.591
10814TIP3    H232386   3.131   5.027   3.625
10815TIP3   OH232387   7.008   0.566   5.829
10815TIP3    H132388   6.958   0.514   5.767
10815TIP3    H232389   7.050   0.634   5.776
10816TIP3   OH232390   3.909   0.173   0.043
10816TIP3    H132391   3.953   0.189  -0.040
10816TIP3    H232392   3.897   0.260   0.081
10817TIP3   OH232393   0.644   6.516   2.683
10817TIP3    H132394   0.678   6.577   2.748
10817TIP3    H232395   0.556   6.494   2.714
10818TIP3   OH232396   5.797   7.092   5.234
10818TIP3    H132397   5.835   7.030   5.171
10818TIP3    H232398   5.843   7.174   5.217
10819TIP3   OH232399   8.252   3.308   5.986
10819TIP3    H132400   8.170   3.273   6.021
10819TIP3    H232401   8.315   3.237   5.997
10820TIP3   OH232402   4.171   2.012   0.870
10820TIP3    H132403   4.091   2.063   0.883
10820TIP3    H232404   4.210   2.047   0.790
10821TIP3   OH232405   5.386   6.537   2.693
10821TIP3    H132406   5.314   6.548   2.755
10821TIP3    H232407   5.413   6.626   2.670
10822TIP3   OH232408   4.640   2.349   6.710
10822TIP3    H132409   4.701   2.422   6.701
10822TIP3    H232410   4.619   2.347   6.803
10823TIP3   OH232411   4.832   7.753   4.827
10823TIP3    H132412   4.871   7.697   4.761
10823TIP3    H232413   4.744   7.770   4.795
10824TIP3   OH232414   0.423   0.369   4.790
10824TIP3    H132415   0.425   0.446   4.734
10824TIP3    H232416   0.482   0.307   4.748
10825TIP3   OH232417   7.574   1.645   1.308
10825TIP3    H132418   7.586   1.556   1.342
10825TIP3    H232419   7.486   1.645   1.271
10826TIP3   OH232420   7.648   3.082   0.063
10826TIP3    H132421   7.710   3.135   0.013
10826TIP3    H232422   7.644   3.125   0.149
10827TIP3   OH232423   4.732   2.043   5.746
10827TIP3    H132424   4.667   1.990   5.700
10827TIP3    H232425   4.815   2.024   5.701
10828TIP3   OH232426   4.274   3.071   2.947
10828TIP3    H132427   4.358   3.026   2.955
10828TIP3    H232428   4.289   3.157   2.987
10829TIP3   OH232429   3.782   5.089   6.387
10829TIP3    H132430   3.798   5.183   6.400
10829TIP3    H232431   3.838   5.065   6.313
10830TIP3   OH232432   4.953   2.525   2.289
10830TIP3    H132433   4.956   2.539   2.383
10830TIP3    H232434   4.924   2.608   2.252
10831TIP3   OH232435   3.515   0.571   1.985
10831TIP3    H132436   3.581   0.637   2.007
10831TIP3    H232437   3.455   0.573   2.060
10832TIP3   OH232438   0.616   7.564   5.541
10832TIP3    H132439   0.567   7.616   5.605
10832TIP3    H232440   0.619   7.476   5.578
10833TIP3   OH232441   2.395   0.500   3.885
10833TIP3    H132442   2.367   0.563   3.818
10833TIP3    H232443   2.353   0.530   3.966
10834TIP3   OH232444   2.435   6.433   1.226
10834TIP3    H132445   2.465   6.427   1.135
10834TIP3    H232446   2.486   6.366   1.272
10835TIP3   OH232447   6.007   4.317   5.295
10835TIP3    H132448   5.925   4.318   5.245
10835TIP3    H232449   5.988   4.369   5.373
10836TIP3   OH232450   3.523   6.071   4.520
10836TIP3    H132451   3.566   6.000   4.474
10836TIP3    H232452   3.485   6.030   4.598
10837TIP3   OH232453   7.016   0.584   3.940
10837TIP3    H132454   6.990   0.560   3.852
10837TIP3    H232455   7.059   0.669   3.930
10838TIP3   OH232456   4.425   7.668   6.496
10838TIP3    H132457   4.372   7.592   6.522
10838TIP3    H232458   4.365   7.722   6.445
10839TIP3   OH232459   5.662   4.599   0.486
10839TIP3    H132460   5.631   4.689   0.474
10839TIP3    H232461   5.621   4.550   0.415
10840TIP3   OH232462   7.552   3.363   5.746
10840TIP3    H132463   7.574   3.396   5.833
10840TIP3    H232464   7.498   3.433   5.707
10841TIP3   OH232465   1.898   5.991   4.441
10841TIP3    H132466   1.849   5.982   4.523
10841TIP3    H232467   1.960   5.919   4.443
10842TIP3   OH232468   5.335   3.130   4.324
10842TIP3    H132469   5.253   3.098   4.287
10842TIP3    H232470   5.391   3.052   4.329
10843TIP3   OH232471   8.235   0.709   2.482
10843TIP3    H132472   8.157   0.666   2.447
10843TIP3    H232473   8.234   0.687   2.575
10844TIP3   OH232474   0.698   7.087   4.150
10844TIP3    H132475   0.610   7.118   4.131
10844TIP3    H232476   0.752   7.166   4.147
10845TIP3   OH232477   5.538   2.677   4.753
10845TIP3    H132478   5.490   2.748   4.709
10845TIP3    H232479   5.595   2.722   4.815
10846TIP3   OH232480   4.633   3.069   0.490
10846TIP3    H132481   4.677   2.984   0.492
10846TIP3    H232482   4.581   3.071   0.570
10847TIP3   OH232483   3.812   1.886   0.325
10847TIP3    H132484   3.890   1.858   0.277
10847TIP3    H232485   3.794   1.974   0.292
10848TIP3   OH232486   4.580   5.938   3.162
10848TIP3    H132487   4.508   5.892   3.118
10848TIP3    H232488   4.629   5.979   3.091
10849TIP3   OH232489   0.906   3.739   1.896
10849TIP3    H132490   0.863   3.698   1.820
10849TIP3    H232491   0.952   3.667   1.938
10850TIP3   OH232492   6.754   2.568   3.308
10850TIP3    H132493   6.669   2.608   3.325
10850TIP3    H232494   6.804   2.636   3.263
10851TIP3   OH232495   7.797   0.532   2.275
10851TIP3    H132496   7.771   0.579   2.196
10851TIP3    H232497   7.723   0.541   2.335
10852TIP3   OH232498   0.990   3.902   3.168
10852TIP3    H132499   1.060   3.962   3.143
10852TIP3    H232500   0.960   3.864   3.085
10853TIP3   OH232501   0.570   5.707   2.353
10853TIP3    H132502   0.578   5.727   2.260
10853TIP3    H232503   0.642   5.647   2.372
10854TIP3   OH232504   4.708   2.091   6.584
10854TIP3    H132505   4.701   2.172   6.636
10854TIP3    H232506   4.647   2.031   6.626
10855TIP3   OH232507   1.997   4.929   0.525
10855TIP3    H132508   1.939   4.856   0.546
10855TIP3    H232509   1.947   4.984   0.465
10856TIP3   OH232510   7.442   4.515   2.176
10856TIP3    H132511   7.423   4.550   2.088
10856TIP3    H232512   7.453   4.593   2.231
10857TIP3   OH232513   4.632   7.537   4.677
10857TIP3    H132514   4.614   7.627   4.649
10857TIP3    H232515   4.724   7.524   4.656
10858TIP3   OH232516   4.887   7.773   5.333
10858TIP3    H132517   4.977   7.742   5.325
10858TIP3    H232518   4.851   7.726   5.407
10859TIP3   OH232519   3.023   2.802   4.712
10859TIP3    H132520   3.000   2.849   4.792
10859TIP3    H232521   3.094   2.854   4.673
10860TIP3   OH232522   3.358   1.699   1.927
10860TIP3    H132523   3.428   1.639   1.952
10860TIP3    H232524   3.278   1.660   1.964
10861TIP3   OH232525   7.679   0.704   6.616
10861TIP3    H132526   7.696   0.611   6.604
10861TIP3    H232527   7.707   0.722   6.706
10862TIP3   OH232528   4.231   4.331   2.859
10862TIP3    H132529   4.168   4.391   2.821
10862TIP3    H232530   4.181   4.282   2.925
10863TIP3   OH232531   6.793   2.822   0.904
10863TIP3    H132532   6.833   2.774   0.977
10863TIP3    H232533   6.857   2.889   0.881
10864TIP3   OH232534   4.160   0.214   2.010
10864TIP3    H132535   4.112   0.282   2.058
10864TIP3    H232536   4.236   0.195   2.064
10865TIP3   OH232537   2.906   2.048   5.758
10865TIP3    H132538   2.947   2.050   5.672
10865TIP3    H232539   2.911   1.957   5.786
10866TIP3   OH232540   4.127   3.244   6.336
10866TIP3    H132541   4.073   3.187   6.390
10866TIP3    H232542   4.209   3.195   6.325
10867TIP3   OH232543   1.068   2.693   5.825
10867TIP3    H132544   1.045   2.757   5.758
10867TIP3    H232545   1.120   2.743   5.888
10868TIP3   OH232546   1.317   0.065   0.756
10868TIP3    H132547   1.315   0.018   0.840
10868TIP3    H232548   1.407   0.093   0.746
10869TIP3   OH232549   8.338   2.461   1.943
10869TIP3    H132550   8.362   2.491   2.031
10869TIP3    H232551   8.384   2.521   1.884
10870TIP3   OH232552   6.715   0.041   5.039
10870TIP3    H132553   6.781  -0.028   5.027
10870TIP3    H232554   6.745   0.089   5.117
10871TIP3   OH232555   2.565   3.346   0.903
10871TIP3    H132556   2.615   3.359   0.822
10871TIP3    H232557   2.480   3.313   0.873
10872TIP3   OH232558   3.228   1.532   5.469
10872TIP3    H132559   3.316   1.542   5.433
10872TIP3    H232560   3.241   1.505   5.560
10873TIP3   OH232561   2.126   7.742   5.893
10873TIP3    H132562   2.143   7.649   5.907
10873TIP3    H232563   2.196   7.771   5.833
10874TIP3   OH232564   3.725   7.346   4.456
10874TIP3    H132565   3.701   7.305   4.540
10874TIP3    H232566   3.648   7.395   4.430
10875TIP3   OH232567   1.970   7.859   3.568
10875TIP3    H132568   1.946   7.831   3.656
10875TIP3    H232569   1.905   7.818   3.511
10876TIP3   OH232570   7.478   5.341   6.082
10876TIP3    H132571   7.486   5.246   6.078
10876TIP3    H232572   7.524   5.373   6.004
10877TIP3   OH232573   0.915   5.562   1.026
10877TIP3    H132574   0.926   5.532   1.116
10877TIP3    H232575   1.004   5.560   0.989
10878TIP3   OH232576   7.018   6.339   5.898
10878TIP3    H132577   6.948   6.361   5.959
10878TIP3    H232578   6.973   6.302   5.822
10879TIP3   OH232579   3.948   2.346   0.782
10879TIP3    H132580   3.942   2.296   0.863
10879TIP3    H232581   3.880   2.412   0.788
10880TIP3   OH232582   5.181   5.859   1.118
10880TIP3    H132583   5.104   5.804   1.128
10880TIP3    H232584   5.216   5.836   1.032
10881TIP3   OH232585   5.959   0.792   5.024
10881TIP3    H132586   5.880   0.739   5.015
10881TIP3    H232587   5.934   0.877   4.988
10882TIP3   OH232588   6.982   0.436   1.671
10882TIP3    H132589   6.892   0.454   1.641
10882TIP3    H232590   7.032   0.513   1.642
10883TIP3   OH232591   6.371   2.295   1.334
10883TIP3    H132592   6.462   2.316   1.313
10883TIP3    H232593   6.355   2.338   1.417
10884TIP3   OH232594   0.388   3.983   4.415
10884TIP3    H132595   0.321   4.047   4.440
10884TIP3    H232596   0.408   3.935   4.496
10885TIP3   OH232597   4.113   6.463   1.331
10885TIP3    H132598   4.143   6.390   1.386
10885TIP3    H232599   4.193   6.513   1.312
10886TIP3   OH232600   2.645   6.344   6.159
10886TIP3    H132601   2.684   6.426   6.130
10886TIP3    H232602   2.715   6.301   6.208
10887TIP3   OH232603   5.087   0.269   4.743
10887TIP3    H132604   5.007   0.322   4.745
10887TIP3    H232605   5.057   0.180   4.728
10888TIP3   OH232606   0.389   3.056   5.081
10888TIP3    H132607   0.318   3.094   5.029
10888TIP3    H232608   0.354   3.055   5.171
10889TIP3   OH232609   1.702   3.985   2.781
10889TIP3    H132610   1.696   4.080   2.788
10889TIP3    H232611   1.705   3.968   2.686
10890TIP3   OH232612   1.519   4.230   0.486
10890TIP3    H132613   1.468   4.150   0.475
10890TIP3    H232614   1.509   4.252   0.579
10891TIP3   OH232615   2.491   0.788   4.523
10891TIP3    H132616   2.569   0.807   4.472
10891TIP3    H232617   2.419   0.798   4.461
10892TIP3   OH232618   0.853   2.736   4.806
10892TIP3    H132619   0.924   2.681   4.772
10892TIP3    H232620   0.871   2.742   4.900
10893TIP3   OH232621   4.367   4.274   3.294
10893TIP3    H132622   4.378   4.355   3.246
10893TIP3    H232623   4.273   4.270   3.314
10894TIP3   OH232624   3.049   4.088   5.148
10894TIP3    H132625   3.026   3.996   5.139
10894TIP3    H232626   3.042   4.123   5.059
10895TIP3   OH232627   5.954   1.436   5.135
10895TIP3    H132628   6.027   1.378   5.158
10895TIP3    H232629   5.953   1.437   5.040
10896TIP3   OH232630   3.885   5.554   0.699
10896TIP3    H132631   3.889   5.468   0.742
10896TIP3    H232632   3.918   5.537   0.611
10897TIP3   OH232633   8.298   3.342   1.913
10897TIP3    H132634   8.284   3.431   1.945
10897TIP3    H232635   8.213   3.299   1.924
10898TIP3   OH232636   5.314   1.012   6.732
10898TIP3    H132637   5.298   1.015   6.637
10898TIP3    H232638   5.227   1.019   6.771
10899TIP3   OH232639   6.465   4.323   3.027
10899TIP3    H132640   6.537   4.361   2.977
10899TIP3    H232641   6.386   4.360   2.988
10900TIP3   OH232642   8.183   7.299   0.336
10900TIP3    H132643   8.253   7.261   0.390
10900TIP3    H232644   8.131   7.223   0.308
10901TIP3   OH232645   1.181   2.668   2.289
10901TIP3    H132646   1.132   2.734   2.239
10901TIP3    H232647   1.125   2.590   2.287
10902TIP3   OH232648   0.081   0.625   5.954
10902TIP3    H132649  -0.013   0.635   5.947
10902TIP3    H232650   0.097   0.615   6.048
10903TIP3   OH232651   5.979   6.281   3.613
10903TIP3    H132652   6.072   6.263   3.627
10903TIP3    H232653   5.977   6.339   3.537
10904TIP3   OH232654   0.493   1.663   1.642
10904TIP3    H132655   0.542   1.584   1.666
10904TIP3    H232656   0.412   1.630   1.605
10905TIP3   OH232657   5.065   0.903   2.469
10905TIP3    H132658   5.117   0.886   2.391
10905TIP3    H232659   5.129   0.910   2.540
10906TIP3   OH232660   0.498   5.982   6.155
10906TIP3    H132661   0.423   5.941   6.198
10906TIP3    H232662   0.517   5.924   6.081
10907TIP3   OH232663   3.576   5.417   4.815
10907TIP3    H132664   3.528   5.396   4.895
10907TIP3    H232665   3.656   5.459   4.845
10908TIP3   OH232666   4.397   0.307   5.587
10908TIP3    H132667   4.386   0.226   5.636
10908TIP3    H232668   4.421   0.279   5.499
10909TIP3   OH232669   7.742   3.279   0.276
10909TIP3    H132670   7.800   3.207   0.302
10909TIP3    H232671   7.660   3.262   0.322
10910TIP3   OH232672   6.335   4.624   2.070
10910TIP3    H132673   6.312   4.715   2.088
10910TIP3    H232674   6.352   4.586   2.156
10911TIP3   OH232675   0.245   5.329   3.585
10911TIP3    H132676   0.184   5.308   3.656
10911TIP3    H232677   0.322   5.364   3.630
10912TIP3   OH232678   4.733   4.490   3.580
10912TIP3    H132679   4.805   4.553   3.587
10912TIP3    H232680   4.720   4.458   3.670
10913TIP3   OH232681   4.370   2.464   2.585
10913TIP3    H132682   4.339   2.381   2.620
10913TIP3    H232683   4.413   2.442   2.503
10914TIP3   OH232684   6.644   7.709   4.267
10914TIP3    H132685   6.571   7.663   4.226
10914TIP3    H232686   6.606   7.790   4.301
10915TIP3   OH232687   2.718   5.576   6.106
10915TIP3    H132688   2.679   5.641   6.165
10915TIP3    H232689   2.782   5.626   6.055
10916TIP3   OH232690   7.039   2.845   4.090
10916TIP3    H132691   6.962   2.848   4.033
10916TIP3    H232692   7.003   2.822   4.176
10917TIP3   OH232693   3.230   4.587   1.321
10917TIP3    H132694   3.195   4.647   1.387
10917TIP3    H232695   3.325   4.596   1.329
10918TIP3   OH232696   3.109   1.557   1.012
10918TIP3    H132697   3.124   1.488   0.947
10918TIP3    H232698   3.066   1.627   0.963
10919TIP3   OH232699   6.608   3.194   4.226
10919TIP3    H132700   6.607   3.261   4.295
10919TIP3    H232701   6.516   3.169   4.216
10920TIP3   OH232702   3.565   3.202   3.999
10920TIP3    H132703   3.547   3.204   3.905
10920TIP3    H232704   3.660   3.193   4.006
10921TIP3   OH232705   6.077   0.766   2.480
10921TIP3    H132706   6.115   0.696   2.534
10921TIP3    H232707   6.047   0.722   2.401
10922TIP3   OH232708   2.008   0.113   6.242
10922TIP3    H132709   1.960   0.040   6.282
10922TIP3    H232710   2.088   0.121   6.294
10923TIP3   OH232711   8.005   0.760   1.537
10923TIP3    H132712   8.084   0.727   1.495
10923TIP3    H232713   7.943   0.775   1.465
10924TIP3   OH232714   0.378   1.249   0.957
10924TIP3    H132715   0.452   1.229   1.015
10924TIP3    H232716   0.331   1.166   0.949
10925TIP3   OH232717   4.034   1.852   5.512
10925TIP3    H132718   3.942   1.857   5.488
10925TIP3    H232719   4.038   1.886   5.601
10926TIP3   OH232720   4.289   6.086   6.581
10926TIP3    H132721   4.259   6.103   6.670
10926TIP3    H232722   4.379   6.119   6.578
10927TIP3   OH232723   4.287   6.460   6.715
10927TIP3    H132724   4.333   6.414   6.646
10927TIP3    H232725   4.212   6.405   6.735
10928TIP3   OH232726   2.532   2.571   0.766
10928TIP3    H132727   2.582   2.582   0.847
10928TIP3    H232728   2.506   2.479   0.766
10929TIP3   OH232729   3.903   5.277   0.782
10929TIP3    H132730   3.852   5.225   0.843
10929TIP3    H232731   3.993   5.275   0.816
10930TIP3   OH232732   6.856   6.914   6.687
10930TIP3    H132733   6.831   6.900   6.596
10930TIP3    H232734   6.931   6.856   6.701
10931TIP3   OH232735   5.289   2.685   5.078
10931TIP3    H132736   5.237   2.682   4.998
10931TIP3    H232737   5.355   2.618   5.066
10932TIP3   OH232738   5.771   4.336   2.416
10932TIP3    H132739   5.854   4.379   2.439
10932TIP3    H232740   5.797   4.247   2.390
10933TIP3   OH232741   4.745   6.622   5.907
10933TIP3    H132742   4.789   6.695   5.864
10933TIP3    H232743   4.793   6.611   5.990
10934TIP3   OH232744   4.928   0.990   5.831
10934TIP3    H132745   4.917   0.904   5.871
10934TIP3    H232746   5.021   0.992   5.804
10935TIP3   OH232747   8.095   1.565   0.802
10935TIP3    H132748   8.042   1.509   0.745
10935TIP3    H232749   8.145   1.620   0.741
10936TIP3   OH232750   6.328   2.410   2.857
10936TIP3    H132751   6.285   2.412   2.771
10936TIP3    H232752   6.312   2.322   2.891
10937TIP3   OH232753   7.491   4.271   2.791
10937TIP3    H132754   7.547   4.227   2.855
10937TIP3    H232755   7.447   4.340   2.841
10938TIP3   OH232756   7.192   4.359   0.881
10938TIP3    H132757   7.283   4.344   0.907
10938TIP3    H232758   7.141   4.335   0.958
10939TIP3   OH232759   8.059   7.689   3.070
10939TIP3    H132760   8.003   7.664   2.996
10939TIP3    H232761   7.998   7.728   3.133
10940TIP3   OH232762   5.745   5.755   4.367
10940TIP3    H132763   5.716   5.693   4.300
10940TIP3    H232764   5.684   5.828   4.362
10941TIP3   OH232765   5.446   2.624   6.425
10941TIP3    H132766   5.501   2.548   6.443
10941TIP3    H232767   5.366   2.588   6.386
10942TIP3   OH232768   1.853   1.279   4.479
10942TIP3    H132769   1.761   1.291   4.454
10942TIP3    H232770   1.887   1.369   4.488
10943TIP3   OH232771   1.576   4.565   3.477
10943TIP3    H132772   1.649   4.626   3.466
10943TIP3    H232773   1.499   4.616   3.455
10944TIP3   OH232774   5.293   7.261   4.858
10944TIP3    H132775   5.223   7.307   4.813
10944TIP3    H232776   5.368   7.319   4.853
10945TIP3   OH232777   3.928   4.667   4.552
10945TIP3    H132778   4.013   4.637   4.518
10945TIP3    H232779   3.932   4.762   4.546
10946TIP3   OH232780   5.857   1.362   3.908
10946TIP3    H132781   5.890   1.303   3.841
10946TIP3    H232782   5.826   1.304   3.978
10947TIP3   OH232783   5.767   4.098   2.017
10947TIP3    H132784   5.792   4.099   2.109
10947TIP3    H232785   5.739   4.187   1.999
10948TIP3   OH232786   7.300   3.668   1.305
10948TIP3    H132787   7.220   3.712   1.275
10948TIP3    H232788   7.345   3.733   1.359
10949TIP3   OH232789   6.309   7.286   5.335
10949TIP3    H132790   6.376   7.236   5.382
10949TIP3    H232791   6.226   7.247   5.364
10950TIP3   OH232792   0.737   1.554   5.648
10950TIP3    H132793   0.720   1.482   5.588
10950TIP3    H232794   0.790   1.616   5.598
10951TIP3   OH232795   0.844   4.776   4.074
10951TIP3    H132796   0.763   4.735   4.044
10951TIP3    H232797   0.894   4.793   3.994
10952TIP3   OH232798   1.614   3.082   5.149
10952TIP3    H132799   1.658   2.998   5.132
10952TIP3    H232800   1.682   3.137   5.190
10953TIP3   OH232801   6.556   5.969   2.545
10953TIP3    H132802   6.616   5.905   2.507
10953TIP3    H232803   6.586   5.980   2.635
10954TIP3   OH232804   1.636   1.002   6.146
10954TIP3    H132805   1.559   0.946   6.146
10954TIP3    H232806   1.624   1.059   6.069
10955TIP3   OH232807   1.651   5.153   4.109
10955TIP3    H132808   1.631   5.183   4.198
10955TIP3    H232809   1.706   5.223   4.073
10956TIP3   OH232810   4.294   5.258   0.124
10956TIP3    H132811   4.336   5.244   0.209
10956TIP3    H232812   4.285   5.353   0.116
10957TIP3   OH232813   4.507   7.285   5.527
10957TIP3    H132814   4.471   7.221   5.465
10957TIP3    H232815   4.601   7.283   5.509
10958TIP3   OH232816   2.336   5.711   3.098
10958TIP3    H132817   2.400   5.765   3.144
10958TIP3    H232818   2.296   5.658   3.167
10959TIP3   OH232819   1.420   2.488   2.872
10959TIP3    H132820   1.513   2.489   2.894
10959TIP3    H232821   1.407   2.407   2.822
10960TIP3   OH232822   1.839   3.225   3.512
10960TIP3    H132823   1.791   3.158   3.464
10960TIP3    H232824   1.921   3.183   3.536
10961TIP3   OH232825   2.762   5.127   1.888
10961TIP3    H132826   2.818   5.204   1.893
10961TIP3    H232827   2.823   5.054   1.881
10962TIP3   OH232828   7.318   3.298   0.942
10962TIP3    H132829   7.273   3.251   1.013
10962TIP3    H232830   7.327   3.387   0.974
10963TIP3   OH232831   6.022   5.094   5.940
10963TIP3    H132832   5.982   5.162   5.887
10963TIP3    H232833   6.099   5.135   5.979
10964TIP3   OH232834   4.079   0.419   2.386
10964TIP3    H132835   4.022   0.429   2.462
10964TIP3    H232836   4.161   0.460   2.411
10965TIP3   OH232837   1.348   3.715   2.951
10965TIP3    H132838   1.311   3.674   3.028
10965TIP3    H232839   1.403   3.647   2.911
10966TIP3   OH232840   2.062   0.220   1.964
10966TIP3    H132841   2.044   0.222   1.870
10966TIP3    H232842   2.005   0.151   1.999
10967TIP3   OH232843   2.729   4.588   1.883
10967TIP3    H132844   2.647   4.565   1.838
10967TIP3    H232845   2.720   4.550   1.970
10968TIP3   OH232846   2.907   3.107   3.071
10968TIP3    H132847   2.918   3.021   3.029
10968TIP3    H232848   2.969   3.106   3.144
10969TIP3   OH232849   1.190   2.151   1.513
10969TIP3    H132850   1.285   2.139   1.513
10969TIP3    H232851   1.167   2.161   1.421
10970TIP3   OH232852   3.550   5.283   6.241
10970TIP3    H132853   3.575   5.360   6.190
10970TIP3    H232854   3.551   5.314   6.332
10971TIP3   OH232855   6.556   3.290   4.725
10971TIP3    H132856   6.527   3.201   4.748
10971TIP3    H232857   6.480   3.345   4.745
10972TIP3   OH232858   5.788   5.958   3.202
10972TIP3    H132859   5.807   5.914   3.285
10972TIP3    H232860   5.864   5.941   3.148
10973TIP3   OH232861   8.057   2.105   5.769
10973TIP3    H132862   8.025   2.146   5.688
10973TIP3    H232863   7.982   2.055   5.801
10974TIP3   OH232864   4.128   0.555   1.742
10974TIP3    H132865   4.197   0.567   1.807
10974TIP3    H232866   4.129   0.461   1.723
10975TIP3   OH232867   0.190   1.175   3.316
10975TIP3    H132868   0.108   1.151   3.360
10975TIP3    H232869   0.175   1.150   3.224
10976TIP3   OH232870   6.883   0.414   2.852
10976TIP3    H132871   6.892   0.499   2.808
10976TIP3    H232872   6.846   0.436   2.938
10977TIP3   OH232873   5.137   5.898   5.676
10977TIP3    H132874   5.159   5.968   5.614
10977TIP3    H232875   5.041   5.894   5.674
10978TIP3   OH232876   5.192   3.763   6.425
10978TIP3    H132877   5.108   3.717   6.422
10978TIP3    H232878   5.176   3.846   6.379
10979TIP3   OH232879   5.611   5.429   1.663
10979TIP3    H132880   5.611   5.335   1.647
10979TIP3    H232881   5.684   5.462   1.612
10980TIP3   OH232882   1.028   6.685   5.164
10980TIP3    H132883   1.060   6.661   5.251
10980TIP3    H232884   1.104   6.721   5.119
10981TIP3   OH232885   6.239   6.899   4.134
10981TIP3    H132886   6.208   6.942   4.214
10981TIP3    H232887   6.161   6.862   4.095
10982TIP3   OH232888   3.362   2.450   2.223
10982TIP3    H132889   3.349   2.376   2.164
10982TIP3    H232890   3.348   2.527   2.168
10983TIP3   OH232891   6.930   0.704   4.649
10983TIP3    H132892   6.957   0.613   4.653
10983TIP3    H232893   6.920   0.722   4.556
10984TIP3   OH232894   7.261   1.121   1.515
10984TIP3    H132895   7.265   1.040   1.464
10984TIP3    H232896   7.191   1.172   1.473
10985TIP3   OH232897   2.934   5.160   3.535
10985TIP3    H132898   2.883   5.084   3.561
10985TIP3    H232899   2.911   5.174   3.443
10986TIP3   OH232900   7.485   6.804   1.283
10986TIP3    H132901   7.429   6.739   1.241
10986TIP3    H232902   7.470   6.791   1.377
10987TIP3   OH232903   3.861   0.872   3.720
10987TIP3    H132904   3.857   0.798   3.780
10987TIP3    H232905   3.845   0.835   3.633
10988TIP3   OH232906   5.195   4.435   5.190
10988TIP3    H132907   5.136   4.419   5.116
10988TIP3    H232908   5.219   4.527   5.183
10989TIP3   OH232909   2.616   1.800   1.732
10989TIP3    H132910   2.582   1.889   1.738
10989TIP3    H232911   2.565   1.760   1.662
10990TIP3   OH232912   3.538   1.200   0.713
10990TIP3    H132913   3.527   1.152   0.631
10990TIP3    H232914   3.534   1.292   0.687
10991TIP3   OH232915   0.176   3.586   6.129
10991TIP3    H132916   0.243   3.605   6.194
10991TIP3    H232917   0.214   3.517   6.074
10992TIP3   OH232918   7.987   6.534   3.867
10992TIP3    H132919   7.994   6.462   3.929
10992TIP3    H232920   7.897   6.565   3.877
10993TIP3   OH232921   4.967   5.199   3.901
10993TIP3    H132922   4.933   5.232   3.984
10993TIP3    H232923   5.057   5.174   3.921
10994TIP3   OH232924   1.917   7.706   0.042
10994TIP3    H132925   1.977   7.642   0.002
10994TIP3    H232926   1.853   7.724  -0.027
10995TIP3   OH232927   8.314   2.196   1.566
10995TIP3    H132928   8.252   2.136   1.605
10995TIP3    H232929   8.270   2.230   1.488
10996TIP3   OH232930   4.871   2.667   6.134
10996TIP3    H132931   4.837   2.577   6.128
10996TIP3    H232932   4.966   2.656   6.134
10997TIP3   OH232933   0.145   3.034   3.180
10997TIP3    H132934   0.119   2.944   3.201
10997TIP3    H232935   0.084   3.061   3.112
10998TIP3   OH232936   5.878   6.992   4.047
10998TIP3    H132937   5.852   7.024   4.133
10998TIP3    H232938   5.842   7.056   3.986
10999TIP3   OH232939   1.779   2.273   2.420
10999TIP3    H132940   1.692   2.309   2.437
10999TIP3    H232941   1.837   2.321   2.479
11000TIP3   OH232942   3.632   2.025   6.585
11000TIP3    H132943   3.643   1.938   6.622
11000TIP3    H232944   3.712   2.072   6.607
11001TIP3   OH232945   2.132   0.984   2.957
11001TIP3    H132946   2.191   1.056   2.933
11001TIP3    H232947   2.120   0.935   2.875
11002TIP3   OH232948   7.403   4.157   2.557
11002TIP3    H132949   7.446   4.190   2.636
11002TIP3    H232950   7.458   4.189   2.485
11003TIP3   OH232951   4.681   0.108   6.205
11003TIP3    H132952   4.592   0.076   6.222
11003TIP3    H232953   4.687   0.113   6.110
11004TIP3   OH232954   0.463   0.966   1.179
11004TIP3    H132955   0.512   1.047   1.165
11004TIP3    H232956   0.371   0.991   1.166
11005TIP3   OH232957   0.571   5.378   3.012
11005TIP3    H132958   0.541   5.322   3.083
11005TIP3    H232959   0.640   5.328   2.969
11006TIP3   OH232960   3.014   1.840   6.563
11006TIP3    H132961   3.005   1.753   6.601
11006TIP3    H232962   3.109   1.852   6.552
11007TIP3   OH232963   4.592   6.114   3.697
11007TIP3    H132964   4.513   6.164   3.719
11007TIP3    H232965   4.597   6.047   3.766
11008TIP3   OH232966   2.197   2.158   0.434
11008TIP3    H132967   2.219   2.065   0.443
11008TIP3    H232968   2.121   2.170   0.490
11009TIP3   OH232969   5.839   4.998   1.566
11009TIP3    H132970   5.791   5.015   1.647
11009TIP3    H232971   5.930   5.017   1.588
11010TIP3   OH232972   7.688   6.646   4.771
11010TIP3    H132973   7.709   6.705   4.843
11010TIP3    H232974   7.772   6.630   4.728
11011TIP3   OH232975   3.297   2.291   0.573
11011TIP3    H132976   3.303   2.376   0.528
11011TIP3    H232977   3.264   2.312   0.660
11012TIP3   OH232978   4.019   1.878   0.661
11012TIP3    H132979   3.938   1.829   0.677
11012TIP3    H232980   4.083   1.835   0.718
11013TIP3   OH232981   7.132   6.685   4.801
11013TIP3    H132982   7.154   6.594   4.825
11013TIP3    H232983   7.105   6.679   4.709
11014TIP3   OH232984   3.657   2.703   0.377
11014TIP3    H132985   3.630   2.694   0.285
11014TIP3    H232986   3.733   2.762   0.374
11015TIP3   OH232987   2.803   1.548   2.833
11015TIP3    H132988   2.763   1.621   2.880
11015TIP3    H232989   2.897   1.566   2.834
11016TIP3   OH232990   4.101   5.379   2.964
11016TIP3    H132991   4.046   5.377   2.886
11016TIP3    H232992   4.063   5.313   3.022
11017TIP3   OH232993   0.713   0.542   4.267
11017TIP3    H132994   0.677   0.532   4.178
11017TIP3    H232995   0.655   0.607   4.308
11018TIP3   OH232996   5.915   2.245   0.027
11018TIP3    H132997   5.866   2.173   0.066
11018TIP3    H232998   5.850   2.312   0.009
11019TIP3   OH232999   0.880   6.805   4.271
11019TIP3    H133000   0.857   6.887   4.315
11019TIP3    H233001   0.897   6.831   4.180
11020TIP3   OH233002   1.581   2.849   1.655
11020TIP3    H133003   1.645   2.877   1.720
11020TIP3    H233004   1.497   2.856   1.700
11021TIP3   OH233005   5.458   6.927   3.623
11021TIP3    H133006   5.442   6.869   3.550
11021TIP3    H233007   5.513   6.997   3.588
11022TIP3   OH233008   4.343   5.527   5.309
11022TIP3    H133009   4.427   5.553   5.347
11022TIP3    H233010   4.278   5.567   5.366
11023TIP3   OH233011   5.140   3.205   1.393
11023TIP3    H133012   5.206   3.202   1.462
11023TIP3    H233013   5.179   3.261   1.325
11024TIP3   OH233014   6.301   5.158   0.416
11024TIP3    H133015   6.339   5.108   0.488
11024TIP3    H233016   6.285   5.094   0.347
11025TIP3   OH233017   6.026   6.754   4.016
11025TIP3    H133018   5.972   6.831   4.033
11025TIP3    H233019   5.977   6.681   4.052
11026TIP3   OH233020   4.050   0.994   4.316
11026TIP3    H133021   4.131   1.001   4.265
11026TIP3    H233022   4.078   0.963   4.402
11027TIP3   OH233023   7.930   5.178   4.143
11027TIP3    H133024   7.856   5.123   4.116
11027TIP3    H233025   7.940   5.162   4.237
11028TIP3   OH233026   3.241   1.441   2.824
11028TIP3    H133027   3.201   1.468   2.907
11028TIP3    H233028   3.248   1.345   2.830
11029TIP3   OH233029   6.828   0.218   3.667
11029TIP3    H133030   6.804   0.269   3.590
11029TIP3    H233031   6.797   0.130   3.648
11030TIP3   OH233032   7.331   4.508   5.426
11030TIP3    H133033   7.363   4.588   5.384
11030TIP3    H233034   7.247   4.533   5.464
11031TIP3   OH233035   0.142   4.151   5.357
11031TIP3    H133036   0.117   4.235   5.317
11031TIP3    H233037   0.194   4.175   5.433
11032TIP3   OH233038   7.492   4.533   1.019
11032TIP3    H133039   7.475   4.457   0.962
11032TIP3    H233040   7.498   4.495   1.106
11033TIP3   OH233041   1.123   5.511   1.277
11033TIP3    H133042   1.205   5.558   1.257
11033TIP3    H233043   1.152   5.425   1.307
11034TIP3   OH233044   7.635   1.714   3.391
11034TIP3    H133045   7.602   1.787   3.337
11034TIP3    H233046   7.640   1.751   3.479
11035TIP3   OH233047   4.825   1.805   3.548
11035TIP3    H133048   4.764   1.816   3.476
11035TIP3    H233049   4.771   1.806   3.627
11036TIP3   OH233050   4.690   0.142   1.701
11036TIP3    H133051   4.635   0.132   1.779
11036TIP3    H233052   4.729   0.229   1.711
11037TIP3   OH233053   2.202   4.444   1.074
11037TIP3    H133054   2.149   4.519   1.101
11037TIP3    H233055   2.188   4.437   0.979
11038TIP3   OH233056   7.657   7.603   5.376
11038TIP3    H133057   7.742   7.565   5.399
11038TIP3    H233058   7.655   7.687   5.422
11039TIP3   OH233059   2.332   2.367   6.208
11039TIP3    H133060   2.330   2.456   6.173
11039TIP3    H233061   2.247   2.330   6.184
11040TIP3   OH233062   3.680   6.229   0.836
11040TIP3    H133063   3.749   6.293   0.816
11040TIP3    H233064   3.620   6.234   0.762
11041TIP3   OH233065   4.455   4.093   5.123
11041TIP3    H133066   4.441   4.062   5.033
11041TIP3    H233067   4.432   4.185   5.120
11042TIP3   OH233068   5.007   4.781   4.605
11042TIP3    H133069   5.037   4.854   4.660
11042TIP3    H233070   5.086   4.735   4.580
11043TIP3   OH233071   7.636   2.333   3.683
11043TIP3    H133072   7.551   2.313   3.645
11043TIP3    H233073   7.674   2.399   3.624
11044TIP3   OH233074   3.669   7.601   0.608
11044TIP3    H133075   3.630   7.687   0.619
11044TIP3    H233076   3.595   7.543   0.591
11045TIP3   OH233077   2.584   2.900   3.914
11045TIP3    H133078   2.650   2.958   3.878
11045TIP3    H233079   2.572   2.931   4.004
11046TIP3   OH233080   3.882   4.592   6.755
11046TIP3    H133081   3.850   4.616   6.669
11046TIP3    H233082   3.930   4.669   6.785
11047TIP3   OH233083   6.658   0.588   0.940
11047TIP3    H133084   6.611   0.566   0.860
11047TIP3    H233085   6.632   0.521   1.003
11048TIP3   OH233086   3.304   6.331   6.449
11048TIP3    H133087   3.313   6.267   6.520
11048TIP3    H233088   3.231   6.299   6.397
11049TIP3   OH233089   7.837   1.872   5.023
11049TIP3    H133090   7.854   1.953   4.974
11049TIP3    H233091   7.783   1.819   4.964
11050TIP3   OH233092   1.444   6.595   4.834
11050TIP3    H133093   1.480   6.654   4.901
11050TIP3    H233094   1.465   6.508   4.866
11051TIP3   OH233095   5.514   5.009   5.219
11051TIP3    H133096   5.466   4.985   5.140
11051TIP3    H233097   5.538   5.101   5.206
11052TIP3   OH233098   4.197   0.449   6.661
11052TIP3    H133099   4.184   0.354   6.664
11052TIP3    H233100   4.112   0.486   6.686
11053TIP3   OH233101   8.045   4.996   5.970
11053TIP3    H133102   8.022   4.911   6.007
11053TIP3    H233103   8.135   5.010   5.998
11054TIP3   OH233104   7.608   1.912   1.247
11054TIP3    H133105   7.556   1.921   1.167
11054TIP3    H233106   7.608   1.818   1.265
11055TIP3   OH233107   2.583   3.781   6.030
11055TIP3    H133108   2.661   3.727   6.014
11055TIP3    H233109   2.530   3.729   6.089
11056TIP3   OH233110   7.556   0.630   4.048
11056TIP3    H133111   7.472   0.607   4.008
11056TIP3    H233112   7.583   0.710   4.003
11057TIP3   OH233113   4.421   5.380   1.055
11057TIP3    H133114   4.493   5.432   1.092
11057TIP3    H233115   4.357   5.446   1.027
11058TIP3   OH233116   6.170   7.131   4.441
11058TIP3    H133117   6.214   7.193   4.382
11058TIP3    H233118   6.231   7.119   4.513
11059TIP3   OH233119   4.439   2.455   2.979
11059TIP3    H133120   4.519   2.456   2.926
11059TIP3    H233121   4.421   2.363   2.994
11060TIP3   OH233122   0.647   2.121   3.334
11060TIP3    H133123   0.574   2.117   3.395
11060TIP3    H233124   0.656   2.032   3.301
11061TIP3   OH233125   3.213   2.606   1.276
11061TIP3    H133126   3.216   2.669   1.204
11061TIP3    H233127   3.151   2.539   1.247
11062TIP3   OH233128   7.171   7.322   6.044
11062TIP3    H133129   7.225   7.243   6.049
11062TIP3    H233130   7.145   7.328   5.952
11063TIP3   OH233131   4.202   5.190   1.157
11063TIP3    H133132   4.165   5.104   1.175
11063TIP3    H233133   4.164   5.247   1.223
11064TIP3   OH233134   1.806   4.095   4.358
11064TIP3    H133135   1.898   4.096   4.330
11064TIP3    H233136   1.802   4.162   4.426
11065TIP3   OH233137   5.561   3.738   4.900
11065TIP3    H133138   5.539   3.772   4.987
11065TIP3    H233139   5.515   3.794   4.839
11066TIP3   OH233140   7.306   5.459   1.453
11066TIP3    H133141   7.346   5.373   1.451
11066TIP3    H233142   7.374   5.517   1.488
11067TIP3   OH233143   4.935   4.531   4.283
11067TIP3    H133144   4.971   4.531   4.195
11067TIP3    H233145   4.916   4.623   4.301
11068TIP3   OH233146   1.977   1.718   2.417
11068TIP3    H133147   2.015   1.803   2.395
11068TIP3    H233148   2.035   1.655   2.375
11069TIP3   OH233149   3.112   4.347   0.352
11069TIP3    H133150   3.202   4.358   0.383
11069TIP3    H233151   3.061   4.406   0.408
11070TIP3   OH233152   2.585   0.387   3.414
11070TIP3    H133153   2.508   0.417   3.366
11070TIP3    H233154   2.601   0.456   3.480
11071TIP3   OH233155   2.495   1.014   3.544
11071TIP3    H133156   2.454   1.076   3.484
11071TIP3    H233157   2.461   0.929   3.517
11072TIP3   OH233158   4.510   5.499   0.331
11072TIP3    H133159   4.521   5.518   0.238
11072TIP3    H233160   4.595   5.521   0.370
11073TIP3   OH233161   4.279   1.764   3.464
11073TIP3    H133162   4.224   1.837   3.435
11073TIP3    H233163   4.239   1.687   3.425
11074TIP3   OH233164   6.051   3.960   0.790
11074TIP3    H133165   6.112   3.887   0.794
11074TIP3    H233166   6.034   3.973   0.696
11075TIP3   OH233167   4.906   6.552   4.746
11075TIP3    H133168   4.848   6.506   4.685
11075TIP3    H233169   4.878   6.644   4.740
11076TIP3   OH233170   1.818   2.501   0.606
11076TIP3    H133171   1.732   2.472   0.574
11076TIP3    H233172   1.826   2.592   0.578
11077TIP3   OH233173   8.196   7.722   1.259
11077TIP3    H133174   8.288   7.750   1.261
11077TIP3    H233175   8.200   7.627   1.252
11078TIP3   OH233176   2.426   4.831   3.195
11078TIP3    H133177   2.516   4.809   3.221
11078TIP3    H233178   2.423   4.927   3.200
11079TIP3   OH233179   5.733   5.582   2.134
11079TIP3    H133180   5.827   5.594   2.143
11079TIP3    H233181   5.708   5.532   2.212
11080TIP3   OH233182   3.676   6.141   4.006
11080TIP3    H133183   3.663   6.222   4.055
11080TIP3    H233184   3.742   6.162   3.940
11081TIP3   OH233185   5.401   6.021   5.317
11081TIP3    H133186   5.426   6.045   5.228
11081TIP3    H233187   5.470   5.962   5.347
11082TIP3   OH233188   1.203   7.453   2.532
11082TIP3    H133189   1.124   7.410   2.566
11082TIP3    H233190   1.268   7.442   2.601
11083TIP3   OH233191   5.057   4.755   5.821
11083TIP3    H133192   5.112   4.822   5.782
11083TIP3    H233193   5.004   4.722   5.748
11084TIP3   OH233194   1.536   6.877   3.468
11084TIP3    H133195   1.494   6.887   3.382
11084TIP3    H233196   1.471   6.910   3.530
11085TIP3   OH233197   1.957   6.716   4.078
11085TIP3    H133198   2.019   6.748   4.012
11085TIP3    H233199   1.895   6.662   4.029
11086TIP3   OH233200   4.322   7.655   6.037
11086TIP3    H133201   4.392   7.589   6.034
11086TIP3    H233202   4.279   7.647   5.952
11087TIP3   OH233203   5.959   7.216   2.010
11087TIP3    H133204   5.920   7.287   2.060
11087TIP3    H233205   5.887   7.178   1.961
11088TIP3   OH233206   3.803   6.950   6.489
11088TIP3    H133207   3.821   6.994   6.406
11088TIP3    H233208   3.819   7.017   6.555
11089TIP3   OH233209   7.051   2.587   5.145
11089TIP3    H133210   7.080   2.580   5.236
11089TIP3    H233211   7.096   2.515   5.100
11090TIP3   OH233212   4.583   0.545   6.167
11090TIP3    H133213   4.511   0.513   6.221
11090TIP3    H233214   4.540   0.583   6.090
11091TIP3   OH233215   7.618   6.625   1.078
11091TIP3    H133216   7.600   6.568   1.153
11091TIP3    H233217   7.684   6.579   1.027
11092TIP3   OH233218   6.724   0.836   1.091
11092TIP3    H133219   6.628   0.835   1.087
11092TIP3    H233220   6.752   0.778   1.020
11093TIP3   OH233221   3.834   3.111   4.014
11093TIP3    H133222   3.889   3.061   4.074
11093TIP3    H233223   3.825   3.055   3.937
11094TIP3   OH233224   1.097   3.401   0.210
11094TIP3    H133225   1.097   3.453   0.290
11094TIP3    H233226   1.147   3.323   0.232
11095TIP3   OH233227   2.876   7.173   3.726
11095TIP3    H133228   2.830   7.255   3.743
11095TIP3    H233229   2.927   7.158   3.806
11096TIP3   OH233230   3.061   1.802   1.611
11096TIP3    H133231   3.012   1.767   1.536
11096TIP3    H233232   3.040   1.743   1.683
11097TIP3   OH233233   3.415   7.200   4.518
11097TIP3    H133234   3.432   7.292   4.499
11097TIP3    H233235   3.320   7.195   4.530
11098TIP3   OH233236   2.191   1.378   1.219
11098TIP3    H133237   2.101   1.350   1.204
11098TIP3    H233238   2.238   1.352   1.139
11099TIP3   OH233239   6.197   3.072   0.106
11099TIP3    H133240   6.176   3.004   0.171
11099TIP3    H233241   6.162   3.153   0.143
11100TIP3   OH233242   7.078   6.983   3.302
11100TIP3    H133243   7.158   6.985   3.353
11100TIP3    H233244   7.048   7.074   3.298
11101TIP3   OH233245   2.105   2.175   6.619
11101TIP3    H133246   2.043   2.148   6.551
11101TIP3    H233247   2.175   2.220   6.571
11102TIP3   OH233248   7.637   2.690   2.191
11102TIP3    H133249   7.647   2.739   2.110
11102TIP3    H233250   7.631   2.598   2.163
11103TIP3   OH233251   2.403   0.192   1.784
11103TIP3    H133252   2.482   0.236   1.816
11103TIP3    H233253   2.349   0.179   1.862
11104TIP3   OH233254   2.549   2.231   5.078
11104TIP3    H133255   2.569   2.325   5.075
11104TIP3    H233256   2.632   2.189   5.098
11105TIP3   OH233257   1.600   2.379   5.846
11105TIP3    H133258   1.625   2.417   5.761
11105TIP3    H233259   1.626   2.287   5.840
11106TIP3   OH233260   7.813   5.655   3.219
11106TIP3    H133261   7.763   5.733   3.197
11106TIP3    H233262   7.748   5.586   3.230
11107TIP3   OH233263   2.746   1.888   2.219
11107TIP3    H133264   2.659   1.928   2.225
11107TIP3    H233265   2.776   1.908   2.130
11108TIP3   OH233266   5.923   0.042   0.529
11108TIP3    H133267   5.949   0.130   0.502
11108TIP3    H233268   5.986   0.020   0.599
11109TIP3   OH233269   2.882   2.819   2.986
11109TIP3    H133270   2.802   2.869   2.968
11109TIP3    H233271   2.886   2.755   2.915
11110TIP3   OH233272   4.260   6.036   3.040
11110TIP3    H133273   4.244   6.043   2.946
11110TIP3    H233274   4.289   5.946   3.053
11111TIP3   OH233275   3.889   5.803   0.841
11111TIP3    H133276   3.919   5.722   0.800
11111TIP3    H233277   3.808   5.825   0.796
11112TIP3   OH233278   5.771   1.994   3.843
11112TIP3    H133279   5.830   2.013   3.916
11112TIP3    H233280   5.716   1.922   3.875
11113TIP3   OH233281   7.979   0.835   0.518
11113TIP3    H133282   7.888   0.834   0.547
11113TIP3    H233283   8.016   0.915   0.558
11114TIP3   OH233284   0.642   3.985   5.591
11114TIP3    H133285   0.569   3.923   5.583
11114TIP3    H233286   0.604   4.059   5.639
11115TIP3   OH233287   3.952   7.220   0.959
11115TIP3    H133288   3.985   7.184   0.876
11115TIP3    H233289   3.954   7.146   1.019
11116TIP3   OH233290   2.007   3.739   4.396
11116TIP3    H133291   1.969   3.792   4.466
11116TIP3    H233292   1.960   3.767   4.317
11117TIP3   OH233293   3.774   7.443   3.517
11117TIP3    H133294   3.806   7.423   3.605
11117TIP3    H233295   3.814   7.377   3.462
11118TIP3   OH233296   0.930   3.930   4.681
11118TIP3    H133297   0.860   3.991   4.657
11118TIP3    H233298   0.960   3.894   4.598
11119TIP3   OH233299   7.588   2.436   2.082
11119TIP3    H133300   7.529   2.405   2.014
11119TIP3    H233301   7.644   2.361   2.102
11120TIP3   OH233302   5.200   1.468   2.887
11120TIP3    H133303   5.133   1.432   2.829
11120TIP3    H233304   5.163   1.550   2.918
11121TIP3   OH233305   3.933   5.356   2.729
11121TIP3    H133306   3.864   5.299   2.694
11121TIP3    H233307   3.966   5.405   2.654
11122TIP3   OH233308   6.044   3.763   4.158
11122TIP3    H133309   6.064   3.854   4.133
11122TIP3    H233310   6.130   3.722   4.170
11123TIP3   OH233311   6.102   6.940   3.294
11123TIP3    H133312   6.031   6.933   3.358
11123TIP3    H233313   6.173   6.982   3.342
11124TIP3   OH233314   5.338   7.544   6.644
11124TIP3    H133315   5.411   7.505   6.594
11124TIP3    H233316   5.280   7.580   6.577
11125TIP3   OH233317   4.304   1.967   3.226
11125TIP3    H133318   4.258   2.037   3.179
11125TIP3    H233319   4.240   1.896   3.232
11126TIP3   OH233320   8.036   2.644   0.056
11126TIP3    H133321   7.948   2.610   0.073
11126TIP3    H233322   8.079   2.574   0.005
11127TIP3   OH233323   0.950   6.466   3.917
11127TIP3    H133324   0.924   6.426   4.000
11127TIP3    H233325   0.877   6.448   3.857
11128TIP3   OH233326   1.187   1.812   2.963
11128TIP3    H133327   1.253   1.865   3.007
11128TIP3    H233328   1.230   1.727   2.951
11129TIP3   OH233329   4.867   0.676   2.450
11129TIP3    H133330   4.920   0.755   2.456
11129TIP3    H233331   4.778   0.707   2.432
11130TIP3   OH233332   1.313   0.493   4.692
11130TIP3    H133333   1.335   0.570   4.640
11130TIP3    H233334   1.377   0.493   4.763
11131TIP3   OH233335   2.053   4.977   3.726
11131TIP3    H133336   2.032   4.949   3.637
11131TIP3    H233337   2.149   4.981   3.728
11132TIP3   OH233338   1.193   5.578   0.955
11132TIP3    H133339   1.187   5.553   0.863
11132TIP3    H233340   1.278   5.544   0.983
11133TIP3   OH233341   6.048   2.324   6.602
11133TIP3    H133342   6.054   2.278   6.518
11133TIP3    H233343   6.126   2.380   6.604
11134TIP3   OH233344   5.635   2.308   4.658
11134TIP3    H133345   5.704   2.343   4.714
11134TIP3    H233346   5.610   2.225   4.699
11135TIP3   OH233347   1.478   2.640   1.371
11135TIP3    H133348   1.418   2.585   1.422
11135TIP3    H233349   1.433   2.724   1.365
11136TIP3   OH233350   8.153   5.496   4.384
11136TIP3    H133351   8.224   5.439   4.355
11136TIP3    H233352   8.088   5.437   4.421
11137TIP3   OH233353   0.433   0.168   6.321
11137TIP3    H133354   0.423   0.100   6.255
11137TIP3    H233355   0.389   0.133   6.399
11138TIP3   OH233356   1.151   1.521   5.947
11138TIP3    H133357   1.138   1.441   5.998
11138TIP3    H233358   1.064   1.561   5.943
11139TIP3   OH233359   6.508   5.898   5.993
11139TIP3    H133360   6.569   5.881   6.064
11139TIP3    H233361   6.448   5.964   6.028
11140TIP3   OH233362   2.647   0.984   1.022
11140TIP3    H133363   2.663   1.016   1.111
11140TIP3    H233364   2.579   0.918   1.031
11141TIP3   OH233365   3.692   6.217   6.059
11141TIP3    H133366   3.760   6.243   5.997
11141TIP3    H233367   3.622   6.182   6.004
11142TIP3   OH233368   7.667   3.824   2.674
11142TIP3    H133369   7.583   3.797   2.711
11142TIP3    H233370   7.663   3.920   2.673
11143TIP3   OH233371   0.436   4.809   0.355
11143TIP3    H133372   0.442   4.841   0.265
11143TIP3    H233373   0.458   4.717   0.350
11144TIP3   OH233374   6.135   4.422   0.239
11144TIP3    H133375   6.102   4.486   0.176
11144TIP3    H233376   6.110   4.337   0.202
11145TIP3   OH233377   0.448   7.006   4.818
11145TIP3    H133378   0.393   7.017   4.896
11145TIP3    H233379   0.390   7.024   4.745
11146TIP3   OH233380   7.413   5.793   0.522
11146TIP3    H133381   7.465   5.734   0.468
11146TIP3    H233382   7.335   5.812   0.469
11147TIP3   OH233383   5.314   7.100   5.721
11147TIP3    H133384   5.236   7.150   5.747
11147TIP3    H233385   5.333   7.131   5.632
11148TIP3   OH233386   1.379   2.245   4.850
11148TIP3    H133387   1.289   2.275   4.866
11148TIP3    H233388   1.383   2.230   4.755
11149TIP3   OH233389   7.482   4.283   5.415
11149TIP3    H133390   7.446   4.372   5.419
11149TIP3    H233391   7.547   4.280   5.485
11150TIP3   OH233392   7.360   4.788   5.749
11150TIP3    H133393   7.405   4.784   5.664
11150TIP3    H233394   7.363   4.880   5.773
11151TIP3   OH233395   4.026   2.310   6.079
11151TIP3    H133396   4.082   2.366   6.026
11151TIP3    H233397   3.998   2.241   6.020
11152TIP3   OH233398   1.240   3.542   6.394
11152TIP3    H133399   1.288   3.468   6.431
11152TIP3    H233400   1.166   3.554   6.453
11153TIP3   OH233401   7.189   5.691   2.697
11153TIP3    H133402   7.093   5.692   2.705
11153TIP3    H233403   7.207   5.743   2.619
11154TIP3   OH233404   0.706   7.775   4.895
11154TIP3    H133405   0.661   7.694   4.919
11154TIP3    H233406   0.776   7.747   4.835
11155TIP3   OH233407   6.781   6.461   5.999
11155TIP3    H133408   6.745   6.373   5.986
11155TIP3    H233409   6.716   6.519   5.958
11156TIP3   OH233410   2.705   5.590   0.565
11156TIP3    H133411   2.620   5.612   0.527
11156TIP3    H233412   2.720   5.499   0.541
11157TIP3   OH233413   5.192   5.387   1.498
11157TIP3    H133414   5.182   5.296   1.470
11157TIP3    H233415   5.110   5.429   1.472
11158TIP3   OH233416   5.393   2.909   4.579
11158TIP3    H133417   5.437   2.885   4.497
11158TIP3    H233418   5.314   2.955   4.552
11159TIP3   OH233419   8.005   6.141   4.458
11159TIP3    H133420   7.993   6.190   4.540
11159TIP3    H233421   7.963   6.196   4.392
11160TIP3   OH233422   4.935   4.842   3.041
11160TIP3    H133423   5.025   4.872   3.048
11160TIP3    H233424   4.915   4.804   3.127
11161TIP3   OH233425   7.662   1.543   5.493
11161TIP3    H133426   7.700   1.629   5.509
11161TIP3    H233427   7.652   1.504   5.580
11162TIP3   OH233428   4.463   7.580   5.474
11162TIP3    H133429   4.389   7.625   5.434
11162TIP3    H233430   4.424   7.503   5.516
11163TIP3   OH233431   4.200   4.623   2.835
11163TIP3    H133432   4.290   4.623   2.802
11163TIP3    H233433   4.175   4.715   2.836
11164TIP3   OH233434   1.467   3.877   5.042
11164TIP3    H133435   1.524   3.938   4.997
11164TIP3    H233436   1.525   3.805   5.069
11165TIP3   OH233437   6.722   4.539   3.431
11165TIP3    H133438   6.655   4.559   3.497
11165TIP3    H233439   6.675   4.544   3.348
11166TIP3   OH233440   3.610   4.845   2.744
11166TIP3    H133441   3.681   4.906   2.721
11166TIP3    H233442   3.625   4.769   2.688
11167TIP3   OH233443   7.365   5.164   1.705
11167TIP3    H133444   7.380   5.255   1.729
11167TIP3    H233445   7.271   5.151   1.719
11168TIP3   OH233446   7.973   5.955   3.358
11168TIP3    H133447   7.991   6.048   3.369
11168TIP3    H233448   7.964   5.943   3.264
11169TIP3   OH233449   1.079   0.759   1.954
11169TIP3    H133450   1.167   0.794   1.940
11169TIP3    H233451   1.023   0.811   1.895
11170TIP3   OH233452   7.971   0.311   2.450
11170TIP3    H133453   8.058   0.307   2.412
11170TIP3    H233454   7.913   0.328   2.375
11171TIP3   OH233455   6.256  -0.051   4.196
11171TIP3    H133456   6.258   0.044   4.185
11171TIP3    H233457   6.348  -0.077   4.201
11172TIP3   OH233458   6.832   2.379   1.091
11172TIP3    H133459   6.846   2.427   1.172
11172TIP3    H233460   6.762   2.317   1.112
11173TIP3   OH233461   3.378   5.612   0.877
11173TIP3    H133462   3.428   5.573   0.805
11173TIP3    H233463   3.291   5.625   0.841
11174TIP3   OH233464   5.496   6.474   5.028
11174TIP3    H133465   5.426   6.521   4.984
11174TIP3    H233466   5.568   6.473   4.964
11175TIP3   OH233467   0.073   5.522   4.603
11175TIP3    H133468   0.043   5.611   4.620
11175TIP3    H233469  -0.008   5.469   4.603
11176TIP3   OH233470   0.780   3.265   2.098
11176TIP3    H133471   0.719   3.199   2.067
11176TIP3    H233472   0.725   3.338   2.126
11177TIP3   OH233473   6.930   1.019   4.431
11177TIP3    H133474   6.885   0.934   4.428
11177TIP3    H233475   7.023   0.997   4.426
11178TIP3   OH233476   3.510   6.460   3.895
11178TIP3    H133477   3.536   6.430   3.982
11178TIP3    H233478   3.514   6.556   3.901
11179TIP3   OH233479   5.631   3.767   2.964
11179TIP3    H133480   5.588   3.815   2.893
11179TIP3    H233481   5.641   3.831   3.034
11180TIP3   OH233482   1.647   6.044   0.652
11180TIP3    H133483   1.693   5.976   0.602
11180TIP3    H233484   1.555   6.032   0.629
11181TIP3   OH233485   5.189   1.146   3.320
11181TIP3    H133486   5.195   1.195   3.239
11181TIP3    H233487   5.130   1.073   3.300
11182TIP3   OH233488   7.358  -0.003   4.705
11182TIP3    H133489   7.308   0.028   4.780
11182TIP3    H233490   7.338   0.059   4.635
11183TIP3   OH233491  -0.010   3.603   2.020
11183TIP3    H133492   0.058   3.609   1.953
11183TIP3    H233493  -0.004   3.687   2.067
11184TIP3   OH233494   3.378   4.162   0.757
11184TIP3    H133495   3.420   4.143   0.673
11184TIP3    H233496   3.286   4.138   0.743
11185TIP3   OH233497   1.671   7.281   5.340
11185TIP3    H133498   1.727   7.339   5.289
11185TIP3    H233499   1.583   7.293   5.304
11186TIP3   OH233500   6.494   6.836   0.436
11186TIP3    H133501   6.550   6.906   0.469
11186TIP3    H233502   6.485   6.854   0.343
11187TIP3   OH233503   3.904   3.458   3.875
11187TIP3    H133504   3.870   3.529   3.821
11187TIP3    H233505   3.915   3.385   3.814
11188TIP3   OH233506   4.372   7.189   6.285
11188TIP3    H133507   4.309   7.258   6.267
11188TIP3    H233508   4.369   7.133   6.208
11189TIP3   OH233509   4.994   5.280   2.833
11189TIP3    H133510   5.050   5.284   2.910
11189TIP3    H233511   4.921   5.224   2.859
11190TIP3   OH233512   1.666   6.936   0.498
11190TIP3    H133513   1.634   7.022   0.471
11190TIP3    H233514   1.750   6.953   0.539
11191TIP3   OH233515   2.977   5.697   5.369
11191TIP3    H133516   3.020   5.613   5.383
11191TIP3    H233517   2.961   5.701   5.275
11192TIP3   OH233518   3.049   4.159   5.582
11192TIP3    H133519   3.099   4.241   5.589
11192TIP3    H233520   2.986   4.176   5.512
11193TIP3   OH233521   2.927   5.133   5.054
11193TIP3    H133522   2.959   5.198   5.117
11193TIP3    H233523   3.006   5.101   5.011
11194TIP3   OH233524   3.310   6.429   4.583
11194TIP3    H133525   3.319   6.419   4.678
11194TIP3    H233526   3.242   6.367   4.559
11195TIP3   OH233527   4.305   1.605   3.099
11195TIP3    H133528   4.327   1.532   3.156
11195TIP3    H233529   4.231   1.648   3.142
11196TIP3   OH233530   5.216   2.190   1.983
11196TIP3    H133531   5.300   2.231   1.961
11196TIP3    H233532   5.210   2.115   1.924
11197TIP3   OH233533   6.844   1.185   5.954
11197TIP3    H133534   6.845   1.122   5.882
11197TIP3    H233535   6.913   1.248   5.933
11198TIP3   OH233536   4.811   2.309   5.448
11198TIP3    H133537   4.883   2.353   5.404
11198TIP3    H233538   4.802   2.225   5.401
11199TIP3   OH233539   5.650   4.674   5.178
11199TIP3    H133540   5.655   4.581   5.156
11199TIP3    H233541   5.557   4.690   5.195
11200TIP3   OH233542   6.567   5.672   1.862
11200TIP3    H133543   6.559   5.740   1.795
11200TIP3    H233544   6.613   5.600   1.819
11201TIP3   OH233545   6.236   7.392   5.806
11201TIP3    H133546   6.206   7.309   5.769
11201TIP3    H233547   6.293   7.367   5.879
11202TIP3   OH233548   7.725   0.227   1.668
11202TIP3    H133549   7.733   0.135   1.641
11202TIP3    H233550   7.699   0.223   1.760
11203TIP3   OH233551   5.717   1.489   3.305
11203TIP3    H133552   5.780   1.449   3.364
11203TIP3    H233553   5.707   1.579   3.337
11204TIP3   OH233554   1.218   7.308   0.441
11204TIP3    H133555   1.183   7.365   0.373
11204TIP3    H233556   1.287   7.360   0.482
11205TIP3   OH233557   2.777   3.774   3.657
11205TIP3    H133558   2.853   3.819   3.693
11205TIP3    H233559   2.788   3.781   3.562
11206TIP3   OH233560   3.594   5.633   3.702
11206TIP3    H133561   3.515   5.633   3.649
11206TIP3    H233562   3.566   5.602   3.788
11207TIP3   OH233563   5.959   5.496   2.310
11207TIP3    H133564   6.009   5.566   2.353
11207TIP3    H233565   5.936   5.436   2.381
11208TIP3   OH233566   0.714   3.794   1.271
11208TIP3    H133567   0.725   3.861   1.338
11208TIP3    H233568   0.706   3.712   1.319
11209TIP3   OH233569   2.070   4.186   4.747
11209TIP3    H133570   2.023   4.248   4.691
11209TIP3    H233571   2.005   4.159   4.813
11210TIP3   OH233572   6.863   6.291   6.726
11210TIP3    H133573   6.874   6.247   6.810
11210TIP3    H233574   6.878   6.223   6.661
11211TIP3   OH233575   1.740   4.811   4.527
11211TIP3    H133576   1.834   4.803   4.544
11211TIP3    H233577   1.704   4.726   4.553
11212TIP3   OH233578   1.829   6.951   3.470
11212TIP3    H133579   1.742   6.912   3.461
11212TIP3    H233580   1.814   7.034   3.515
11213TIP3   OH233581   1.429   5.446   2.813
11213TIP3    H133582   1.484   5.519   2.840
11213TIP3    H233583   1.479   5.404   2.743
11214TIP3   OH233584   1.993   0.971   4.455
11214TIP3    H133585   1.950   0.915   4.519
11214TIP3    H233586   2.020   1.048   4.504
11215TIP3   OH233587   1.235   3.230   2.361
11215TIP3    H133588   1.164   3.181   2.319
11215TIP3    H233589   1.270   3.285   2.291
11216TIP3   OH233590   5.705   0.926   3.611
11216TIP3    H133591   5.775   0.896   3.552
11216TIP3    H233592   5.653   0.985   3.557
11217TIP3   OH233593   4.624   7.040   1.739
11217TIP3    H133594   4.712   7.012   1.764
11217TIP3    H233595   4.638   7.123   1.693
11218TIP3   OH233596   7.609   6.192   0.194
11218TIP3    H133597   7.561   6.110   0.184
11218TIP3    H233598   7.542   6.260   0.188
11219TIP3   OH233599   1.029   2.995   3.325
11219TIP3    H133600   0.968   2.945   3.380
11219TIP3    H233601   1.066   3.060   3.384
11220TIP3   OH233602   4.460   2.338   2.300
11220TIP3    H133603   4.530   2.300   2.247
11220TIP3    H233604   4.383   2.285   2.280
11221TIP3   OH233605   3.402   7.190   2.477
11221TIP3    H133606   3.477   7.187   2.536
11221TIP3    H233607   3.404   7.278   2.439
11222TIP3   OH233608   2.175   1.875   2.941
11222TIP3    H133609   2.131   1.958   2.959
11222TIP3    H233610   2.106   1.809   2.949
11223TIP3   OH233611   8.229   3.394   0.844
11223TIP3    H133612   8.193   3.369   0.759
11223TIP3    H233613   8.201   3.324   0.903
11224TIP3   OH233614   7.434   7.398   0.721
11224TIP3    H133615   7.485   7.381   0.800
11224TIP3    H233616   7.462   7.485   0.693
11225TIP3   OH233617   2.254   0.439   1.318
11225TIP3    H133618   2.314   0.374   1.281
11225TIP3    H233619   2.269   0.434   1.412
11226TIP3   OH233620   7.924   4.047   1.863
11226TIP3    H133621   7.937   4.094   1.781
11226TIP3    H233622   7.831   4.023   1.862
11227TIP3   OH233623   7.665   5.330   6.540
11227TIP3    H133624   7.706   5.315   6.455
11227TIP3    H233625   7.591   5.388   6.521
11228TIP3   OH233626   3.613   2.465   2.341
11228TIP3    H133627   3.531   2.483   2.297
11228TIP3    H233628   3.681   2.487   2.277
11229TIP3   OH233629   5.512   1.255   2.606
11229TIP3    H133630   5.525   1.291   2.694
11229TIP3    H233631   5.557   1.171   2.608
11230TIP3   OH233632   2.211   7.710   2.610
11230TIP3    H133633   2.229   7.617   2.597
11230TIP3    H233634   2.120   7.714   2.638
11231TIP3   OH233635   2.060   3.940   0.700
11231TIP3    H133636   2.103   4.025   0.691
11231TIP3    H233637   2.026   3.921   0.613
11232TIP3   OH233638   6.059   4.464   3.955
11232TIP3    H133639   5.978   4.464   4.007
11232TIP3    H233640   6.124   4.423   4.012
11233TIP3   OH233641   1.483   5.901   1.183
11233TIP3    H133642   1.555   5.843   1.208
11233TIP3    H233643   1.512   5.988   1.210
11234TIP3   OH233644   7.920   7.481   6.611
11234TIP3    H133645   7.907   7.390   6.639
11234TIP3    H233646   7.884   7.533   6.683
11235TIP3   OH233647   1.339   2.058   6.286
11235TIP3    H133648   1.392   2.001   6.230
11235TIP3    H233649   1.296   2.118   6.225
11236TIP3   OH233650   7.023   4.039   3.438
11236TIP3    H133651   6.984   3.967   3.389
11236TIP3    H233652   6.953   4.071   3.495
11237TIP3   OH233653   1.389   3.911   4.162
11237TIP3    H133654   1.419   3.998   4.189
11237TIP3    H233655   1.305   3.926   4.119
11238TIP3   OH233656   7.648   1.760   4.634
11238TIP3    H133657   7.661   1.759   4.729
11238TIP3    H233658   7.723   1.807   4.599
11239TIP3   OH233659   7.876   6.463   0.025
11239TIP3    H133660   7.920   6.395  -0.026
11239TIP3    H233661   7.925   6.543   0.006
11240TIP3   OH233662   0.716   4.331   5.134
11240TIP3    H133663   0.651   4.268   5.104
11240TIP3    H233664   0.759   4.360   5.053
11241TIP3   OH233665   5.461   5.956   1.016
11241TIP3    H133666   5.414   5.919   0.942
11241TIP3    H233667   5.548   5.916   1.012
11242TIP3   OH233668   7.068   1.540   6.714
11242TIP3    H133669   7.036   1.630   6.709
11242TIP3    H233670   7.163   1.549   6.728
11243TIP3   OH233671   4.300   6.913   2.776
11243TIP3    H133672   4.346   6.846   2.726
11243TIP3    H233673   4.366   6.949   2.835
11244TIP3   OH233674   1.486   5.227   1.137
11244TIP3    H133675   1.566   5.228   1.085
11244TIP3    H233676   1.514   5.200   1.224
11245TIP3   OH233677   2.232   6.161   6.766
11245TIP3    H133678   2.251   6.253   6.783
11245TIP3    H233679   2.156   6.162   6.708
11246TIP3   OH233680   5.504   7.117   4.683
11246TIP3    H133681   5.583   7.062   4.692
11246TIP3    H233682   5.467   7.120   4.771
11247TIP3   OH233683   7.008   5.433   5.862
11247TIP3    H133684   7.059   5.439   5.942
11247TIP3    H233685   7.061   5.478   5.796
11248TIP3   OH233686   0.603   2.971   2.192
11248TIP3    H133687   0.518   2.963   2.150
11248TIP3    H233688   0.592   3.040   2.257
11249TIP3   OH233689   7.803   1.802   0.625
11249TIP3    H133690   7.868   1.791   0.556
11249TIP3    H233691   7.852   1.842   0.698
11250TIP3   OH233692   0.651   5.040   1.984
11250TIP3    H133693   0.663   5.127   1.947
11250TIP3    H233694   0.726   4.990   1.951
11251TIP3   OH233695   4.507   0.946   4.051
11251TIP3    H133696   4.414   0.921   4.053
11251TIP3    H233697   4.530   0.946   3.959
11252TIP3   OH233698   6.793   5.266   2.646
11252TIP3    H133699   6.753   5.307   2.723
11252TIP3    H233700   6.844   5.193   2.682
11253TIP3   OH233701   6.707   1.624   3.850
11253TIP3    H133702   6.698   1.705   3.900
11253TIP3    H233703   6.625   1.577   3.866
11254TIP3   OH233704   4.482   1.570   4.403
11254TIP3    H133705   4.423   1.496   4.396
11254TIP3    H233706   4.535   1.567   4.324
11255TIP3   OH233707   1.487   1.420   3.107
11255TIP3    H133708   1.407   1.472   3.096
11255TIP3    H233709   1.544   1.476   3.160
11256TIP3   OH233710   2.530   6.370   0.380
11256TIP3    H133711   2.518   6.397   0.289
11256TIP3    H233712   2.462   6.417   0.428
11257TIP3   OH233713   4.881   7.560   4.592
11257TIP3    H133714   4.928   7.484   4.558
11257TIP3    H233715   4.911   7.633   4.537
11258TIP3   OH233716   2.089   1.166   6.288
11258TIP3    H133717   2.157   1.140   6.350
11258TIP3    H233718   2.137   1.197   6.211
11259TIP3   OH233719   0.494   3.954   1.472
11259TIP3    H133720   0.495   4.015   1.398
11259TIP3    H233721   0.586   3.946   1.498
11260TIP3   OH233722   2.253   3.919   4.028
11260TIP3    H133723   2.263   4.014   4.017
11260TIP3    H233724   2.321   3.896   4.092
11261TIP3   OH233725   0.207   3.284   0.866
11261TIP3    H133726   0.232   3.291   0.774
11261TIP3    H233727   0.143   3.355   0.879
11262TIP3   OH233728   5.064   7.207   3.438
11262TIP3    H133729   5.133   7.174   3.496
11262TIP3    H233730   5.046   7.295   3.472
11263TIP3   OH233731   5.305   0.071   5.607
11263TIP3    H133732   5.309  -0.021   5.580
11263TIP3    H233733   5.267   0.116   5.532
11264TIP3   OH233734   0.626   0.272   1.590
11264TIP3    H133735   0.570   0.256   1.666
11264TIP3    H233736   0.624   0.367   1.578
11265TIP3   OH233737   3.068   6.071   4.892
11265TIP3    H133738   3.094   6.091   4.802
11265TIP3    H233739   3.144   6.026   4.930
11266TIP3   OH233740   2.855   0.084   0.893
11266TIP3    H133741   2.825   0.160   0.943
11266TIP3    H233742   2.777   0.031   0.881
11267TIP3   OH233743   2.149   1.745   5.552
11267TIP3    H133744   2.217   1.759   5.618
11267TIP3    H233745   2.097   1.826   5.554
11268TIP3   OH233746   5.448   3.854   0.159
11268TIP3    H133747   5.414   3.941   0.180
11268TIP3    H233748   5.418   3.798   0.231
11269TIP3   OH233749   0.312   2.855   0.067
11269TIP3    H133750   0.324   2.813   0.152
11269TIP3    H233751   0.247   2.801   0.023
11270TIP3   OH233752   8.052   3.267   6.357
11270TIP3    H133753   8.071   3.197   6.294
11270TIP3    H233754   8.067   3.227   6.443
11271TIP3   OH233755   3.045   2.969   1.563
11271TIP3    H133756   3.048   3.054   1.518
11271TIP3    H233757   3.137   2.948   1.580
11272TIP3   OH233758   5.877   2.723   5.207
11272TIP3    H133759   5.807   2.719   5.272
11272TIP3    H233760   5.888   2.633   5.177
11273TIP3   OH233761   1.948   5.656   4.123
11273TIP3    H133762   1.890   5.704   4.182
11273TIP3    H233763   1.971   5.718   4.054
11274TIP3   OH233764   3.589   3.914   3.267
11274TIP3    H133765   3.566   3.971   3.340
11274TIP3    H233766   3.640   3.843   3.306
11275TIP3   OH233767   1.217   5.141   6.623
11275TIP3    H133768   1.142   5.137   6.682
11275TIP3    H233769   1.240   5.049   6.608
11276TIP3   OH233770   3.610   5.360   6.489
11276TIP3    H133771   3.636   5.273   6.521
11276TIP3    H233772   3.561   5.398   6.562
11277TIP3   OH233773   7.838   3.160   1.923
11277TIP3    H133774   7.838   3.169   2.018
11277TIP3    H233775   7.819   3.248   1.891
11278TIP3   OH233776   6.370   1.840   2.992
11278TIP3    H133777   6.403   1.765   3.041
11278TIP3    H233778   6.449   1.885   2.961
11279TIP3   OH233779   4.065   4.013   0.388
11279TIP3    H133780   4.032   3.926   0.366
11279TIP3    H233781   4.061   4.061   0.305
11280TIP3   OH233782   3.474   0.633   4.434
11280TIP3    H133783   3.520   0.558   4.473
11280TIP3    H233784   3.388   0.632   4.476
11281TIP3   OH233785   5.311   6.127   0.744
11281TIP3    H133786   5.318   6.031   0.741
11281TIP3    H233787   5.359   6.152   0.823
11282TIP3   OH233788   7.269   0.147   3.089
11282TIP3    H133789   7.204   0.109   3.149
11282TIP3    H233790   7.216   0.181   3.016
11283TIP3   OH233791   0.320   6.420   4.715
11283TIP3    H133792   0.410   6.394   4.694
11283TIP3    H233793   0.301   6.492   4.655
11284TIP3   OH233794   6.341   1.545   0.975
11284TIP3    H133795   6.320   1.536   1.068
11284TIP3    H233796   6.436   1.539   0.971
11285TIP3   OH233797   0.539   1.134   3.013
11285TIP3    H133798   0.576   1.202   2.957
11285TIP3    H233799   0.519   1.063   2.952
11286TIP3   OH233800   3.675   6.474   1.669
11286TIP3    H133801   3.669   6.546   1.732
11286TIP3    H233802   3.733   6.507   1.600
11287TIP3   OH233803   7.673   7.227   0.219
11287TIP3    H133804   7.709   7.172   0.149
11287TIP3    H233805   7.583   7.197   0.229
11288TIP3   OH233806   0.557   0.242   5.882
11288TIP3    H133807   0.478   0.296   5.876
11288TIP3    H233808   0.626   0.297   5.847
11289TIP3   OH233809   1.206   0.724   4.248
11289TIP3    H133810   1.166   0.810   4.260
11289TIP3    H233811   1.148   0.678   4.188
11290TIP3   OH233812   4.630   1.423   2.722
11290TIP3    H133813   4.536   1.441   2.731
11290TIP3    H233814   4.655   1.468   2.641
11291TIP3   OH233815   0.577   5.779   2.095
11291TIP3    H133816   0.541   5.867   2.105
11291TIP3    H233817   0.624   5.782   2.012
11292TIP3   OH233818   0.624   0.639   5.941
11292TIP3    H133819   0.568   0.567   5.912
11292TIP3    H233820   0.591   0.661   6.029
11293TIP3   OH233821   1.998   5.226   6.134
11293TIP3    H133822   2.048   5.166   6.189
11293TIP3    H233823   2.062   5.263   6.073
11294TIP3   OH233824   5.025   6.715   2.294
11294TIP3    H133825   4.997   6.637   2.247
11294TIP3    H233826   5.032   6.687   2.385
11295TIP3   OH233827   1.066   1.083   2.544
11295TIP3    H133828   1.082   1.105   2.636
11295TIP3    H233829   1.015   1.002   2.547
11296TIP3   OH233830   2.999   4.457   1.310
11296TIP3    H133831   3.017   4.364   1.316
11296TIP3    H233832   3.082   4.496   1.280
11297TIP3   OH233833   5.994   3.582   4.574
11297TIP3    H133834   5.902   3.565   4.594
11297TIP3    H233835   5.995   3.670   4.538
11298TIP3   OH233836   0.761   3.769   2.427
11298TIP3    H133837   0.687   3.790   2.484
11298TIP3    H233838   0.762   3.673   2.424
11299TIP3   OH233839   0.057   2.479   5.070
11299TIP3    H133840  -0.035   2.465   5.045
11299TIP3    H233841   0.095   2.525   4.995
11300TIP3   OH233842   6.806   1.214   2.268
11300TIP3    H133843   6.866   1.260   2.210
11300TIP3    H233844   6.859   1.188   2.343
11301TIP3   OH233845   6.722   7.167   6.747
11301TIP3    H133846   6.782   7.118   6.692
11301TIP3    H233847   6.671   7.100   6.792
11302TIP3   OH233848   1.987   7.616   6.123
11302TIP3    H133849   2.017   7.561   6.051
11302TIP3    H233850   1.989   7.705   6.089
11303TIP3   OH233851   7.069   0.962   3.415
11303TIP3    H133852   6.983   0.967   3.373
11303TIP3    H233853   7.050   0.929   3.503
11304TIP3   OH233854   6.590   4.675   3.191
11304TIP3    H133855   6.680   4.657   3.162
11304TIP3    H233856   6.565   4.754   3.144
11305TIP3   OH233857   6.985   2.675   2.130
11305TIP3    H133858   7.022   2.762   2.144
11305TIP3    H233859   6.976   2.668   2.035
11306TIP3   OH233860   3.338   6.124   3.702
11306TIP3    H133861   3.327   6.186   3.630
11306TIP3    H233862   3.344   6.038   3.660
11307TIP3   OH233863   5.147   2.778   6.455
11307TIP3    H133864   5.161   2.683   6.459
11307TIP3    H233865   5.088   2.796   6.527
11308TIP3   OH233866   1.374   5.267   2.145
11308TIP3    H133867   1.393   5.341   2.087
11308TIP3    H233868   1.354   5.194   2.086
11309TIP3   OH233869   7.898   2.209   5.048
11309TIP3    H133870   7.960   2.165   4.989
11309TIP3    H233871   7.817   2.214   4.997
11310TIP3   OH233872   4.824   0.878   3.556
11310TIP3    H133873   4.833   0.908   3.466
11310TIP3    H233874   4.912   0.852   3.582
11311TIP3   OH233875   5.782   1.675   5.909
11311TIP3    H133876   5.793   1.614   5.836
11311TIP3    H233877   5.701   1.722   5.889
11312TIP3   OH233878   4.683   1.632   0.715
11312TIP3    H133879   4.679   1.713   0.767
11312TIP3    H233880   4.776   1.606   0.718
11313TIP3   OH233881   6.912   4.141   4.339
11313TIP3    H133882   6.886   4.049   4.333
11313TIP3    H233883   6.840   4.189   4.298
11314TIP3   OH233884   2.590   6.430   5.801
11314TIP3    H133885   2.554   6.349   5.835
11314TIP3    H233886   2.683   6.411   5.786
11315TIP3   OH233887   5.982   5.435   3.197
11315TIP3    H133888   5.962   5.396   3.282
11315TIP3    H233889   6.066   5.397   3.173
11316TIP3   OH233890   8.179   3.687   4.067
11316TIP3    H133891   8.158   3.759   4.127
11316TIP3    H233892   8.101   3.633   4.065
11317TIP3   OH233893   3.384   5.034   0.617
11317TIP3    H133894   3.390   4.962   0.554
11317TIP3    H233895   3.416   4.997   0.699
11318TIP3   OH233896   0.840   7.443   1.354
11318TIP3    H133897   0.919   7.390   1.345
11318TIP3    H233898   0.797   7.436   1.269
11319TIP3   OH233899   7.306   3.529   1.074
11319TIP3    H133900   7.273   3.581   1.148
11319TIP3    H233901   7.393   3.565   1.056
11320TIP3   OH233902   0.687   2.921   6.166
11320TIP3    H133903   0.612   2.866   6.144
11320TIP3    H233904   0.682   2.930   6.261
11321TIP3   OH233905   4.567   5.987   0.295
11321TIP3    H133906   4.565   5.957   0.386
11321TIP3    H233907   4.489   6.042   0.287
11322TIP3   OH233908   2.483   7.627   4.361
11322TIP3    H133909   2.445   7.540   4.366
11322TIP3    H233910   2.430   7.673   4.295
11323TIP3   OH233911   5.253   3.445   4.298
11323TIP3    H133912   5.335   3.451   4.347
11323TIP3    H233913   5.197   3.512   4.336
11324TIP3   OH233914   6.413   4.823   6.423
11324TIP3    H133915   6.506   4.843   6.438
11324TIP3    H233916   6.394   4.864   6.338
11325TIP3   OH233917   4.122   4.728   3.194
11325TIP3    H133918   4.042   4.756   3.239
11325TIP3    H233919   4.193   4.760   3.249
11326TIP3   OH233920   7.060   3.283   3.985
11326TIP3    H133921   7.025   3.245   4.065
11326TIP3    H233922   7.026   3.373   3.984
11327TIP3   OH233923   5.437   4.186   4.373
11327TIP3    H133924   5.524   4.145   4.370
11327TIP3    H233925   5.409   4.188   4.281
11328TIP3   OH233926   1.111   2.369   3.426
11328TIP3    H133927   1.087   2.446   3.478
11328TIP3    H233928   1.030   2.343   3.382
11329TIP3   OH233929   7.666   4.530   5.776
11329TIP3    H133930   7.571   4.513   5.772
11329TIP3    H233931   7.674   4.624   5.765
11330TIP3   OH233932   3.383   1.167   5.818
11330TIP3    H133933   3.408   1.232   5.883
11330TIP3    H233934   3.455   1.104   5.817
11331TIP3   OH233935   5.704   0.409   1.673
11331TIP3    H133936   5.638   0.478   1.675
11331TIP3    H233937   5.682   0.351   1.746
11332TIP3   OH233938   0.062   6.622   3.966
11332TIP3    H133939   0.102   6.579   3.891
11332TIP3    H233940   0.136   6.656   4.016
11333TIP3   OH233941   6.077   1.783   5.474
11333TIP3    H133942   6.033   1.722   5.534
11333TIP3    H233943   6.060   1.747   5.387
11334TIP3   OH233944   5.310   5.691   2.982
11334TIP3    H133945   5.327   5.615   2.926
11334TIP3    H233946   5.392   5.741   2.980
11335TIP3   OH233947   3.294   6.829   2.717
11335TIP3    H133948   3.312   6.829   2.811
11335TIP3    H233949   3.270   6.739   2.698
11336TIP3   OH233950   8.121   6.957   4.595
11336TIP3    H133951   8.210   6.937   4.569
11336TIP3    H233952   8.111   6.915   4.681
11337TIP3   OH233953   5.148   6.676   0.910
11337TIP3    H133954   5.089   6.724   0.969
11337TIP3    H233955   5.229   6.668   0.960
11338TIP3   OH233956   6.536   7.007   4.393
11338TIP3    H133957   6.466   7.063   4.428
11338TIP3    H233958   6.556   7.044   4.307
11339TIP3   OH233959   5.806   6.663   4.614
11339TIP3    H133960   5.830   6.652   4.522
11339TIP3    H233961   5.890   6.670   4.660
11340TIP3   OH233962   1.631   6.508   1.126
11340TIP3    H133963   1.564   6.484   1.190
11340TIP3    H233964   1.654   6.599   1.148
11341TIP3   OH233965   0.895   1.206   3.248
11341TIP3    H133966   0.931   1.221   3.336
11341TIP3    H233967   0.927   1.119   3.224
11342TIP3   OH233968   3.043   1.906   0.429
11342TIP3    H133969   2.959   1.953   0.429
11342TIP3    H233970   3.108   1.973   0.447
11343TIP3   OH233971   7.015   3.729   5.680
11343TIP3    H133972   7.057   3.647   5.704
11343TIP3    H233973   7.084   3.795   5.688
11344TIP3   OH233974   0.174   3.670   2.584
11344TIP3    H133975   0.190   3.705   2.672
11344TIP3    H233976   0.134   3.743   2.536
11345TIP3   OH233977   7.256   2.467   6.135
11345TIP3    H133978   7.299   2.547   6.105
11345TIP3    H233979   7.253   2.474   6.230
11346TIP3   OH233980   5.432   2.024   5.248
11346TIP3    H133981   5.339   2.035   5.232
11346TIP3    H233982   5.439   1.941   5.295
11347TIP3   OH233983   7.561   3.795   1.597
11347TIP3    H133984   7.563   3.701   1.612
11347TIP3    H233985   7.632   3.811   1.535
11348TIP3   OH233986   0.514   7.548   1.383
11348TIP3    H133987   0.541   7.543   1.291
11348TIP3    H233988   0.591   7.581   1.429
11349TIP3   OH233989   3.410   5.627   1.701
11349TIP3    H133990   3.344   5.657   1.638
11349TIP3    H233991   3.374   5.546   1.737
11350TIP3   OH233992   3.663   0.041   0.003
11350TIP3    H133993   3.740   0.097   0.007
11350TIP3    H233994   3.621   0.051   0.088
11351TIP3   OH233995   5.563   0.685   3.958
11351TIP3    H133996   5.534   0.654   4.044
11351TIP3    H233997   5.541   0.614   3.898
11352TIP3   OH233998   3.543   4.995   5.237
11352TIP3    H133999   3.580   5.036   5.316
11352TIP3    H234000   3.559   4.901   5.250
11353TIP3   OH234001   3.255   5.113   1.303
11353TIP3    H134002   3.257   5.125   1.208
11353TIP3    H234003   3.336   5.065   1.323
11354TIP3   OH234004   3.429   1.985   1.989
11354TIP3    H134005   3.334   1.996   1.991
11354TIP3    H234006   3.443   1.891   1.998
11355TIP3   OH234007   0.790   3.419   2.839
11355TIP3    H134008   0.738   3.340   2.826
11355TIP3    H234009   0.765   3.450   2.926
11356TIP3   OH234010   0.611   3.021   3.118
11356TIP3    H134011   0.634   2.958   3.050
11356TIP3    H234012   0.546   2.976   3.171
11357TIP3   OH234013   7.502   6.555   4.570
11357TIP3    H134014   7.469   6.477   4.615
11357TIP3    H234015   7.573   6.586   4.626
11358TIP3   OH234016   1.189   4.299   2.658
11358TIP3    H134017   1.197   4.212   2.619
11358TIP3    H234018   1.233   4.292   2.743
11359TIP3   OH234019   7.260   1.602   2.972
11359TIP3    H134020   7.234   1.516   3.004
11359TIP3    H234021   7.349   1.589   2.939
11360TIP3   OH234022   5.449   7.063   4.342
11360TIP3    H134023   5.454   7.007   4.419
11360TIP3    H234024   5.456   7.004   4.268
11361TIP3   OH234025   2.537   6.479   0.983
11361TIP3    H134026   2.494   6.562   1.005
11361TIP3    H234027   2.612   6.505   0.929
11362TIP3   OH234028   2.719   1.347   5.505
11362TIP3    H134029   2.717   1.268   5.450
11362TIP3    H234030   2.776   1.323   5.578
11363TIP3   OH234031   6.973   5.642   2.340
11363TIP3    H134032   7.051   5.643   2.284
11363TIP3    H234033   6.990   5.711   2.404
11364TIP3   OH234034   5.967   2.730   3.958
11364TIP3    H134035   6.045   2.694   4.000
11364TIP3    H234036   5.895   2.678   3.994
11365TIP3   OH234037   6.762   0.686   2.783
11365TIP3    H134038   6.791   0.705   2.693
11365TIP3    H234039   6.671   0.716   2.786
11366TIP3   OH234040   1.711   6.103   0.902
11366TIP3    H134041   1.704   6.077   0.810
11366TIP3    H234042   1.758   6.031   0.944
11367TIP3   OH234043   5.742   7.392   0.891
11367TIP3    H134044   5.790   7.475   0.890
11367TIP3    H234045   5.806   7.327   0.917
11368TIP3   OH234046   6.895   0.878   6.442
11368TIP3    H134047   6.966   0.820   6.413
11368TIP3    H234048   6.904   0.881   6.537
11369TIP3   OH234049   7.734   3.111   5.485
11369TIP3    H134050   7.681   3.141   5.412
11369TIP3    H234051   7.748   3.189   5.539
11370TIP3   OH234052   8.272   1.907   1.020
11370TIP3    H134053   8.319   1.915   0.937
11370TIP3    H234054   8.240   1.996   1.037
11371TIP3   OH234055   1.702   1.582   1.955
11371TIP3    H134056   1.768   1.592   2.023
11371TIP3    H234057   1.645   1.658   1.964
11372TIP3   OH234058   6.339   6.222   1.401
11372TIP3    H134059   6.310   6.312   1.417
11372TIP3    H234060   6.435   6.229   1.397
11373TIP3   OH234061   7.483   2.607   4.304
11373TIP3    H134062   7.458   2.545   4.235
11373TIP3    H234063   7.552   2.562   4.352
11374TIP3   OH234064   5.712   7.078   2.334
11374TIP3    H134065   5.750   7.166   2.333
11374TIP3    H234066   5.778   7.023   2.291
11375TIP3   OH234067   3.323   4.200   6.185
11375TIP3    H134068   3.325   4.213   6.090
11375TIP3    H234069   3.238   4.235   6.213
11376TIP3   OH234070   1.085   7.131   1.109
11376TIP3    H134071   1.084   7.184   1.189
11376TIP3    H234072   0.993   7.117   1.088
11377TIP3   OH234073   3.520   1.819   4.138
11377TIP3    H134074   3.502   1.762   4.064
11377TIP3    H234075   3.494   1.767   4.215
11378TIP3   OH234076   7.027   2.967   1.623
11378TIP3    H134077   7.061   2.878   1.613
11378TIP3    H234078   7.034   2.985   1.717
11379TIP3   OH234079   2.946   1.142   1.453
11379TIP3    H134080   3.032   1.111   1.481
11379TIP3    H234081   2.900   1.162   1.535
11380TIP3   OH234082   4.363   3.997   1.661
11380TIP3    H134083   4.377   4.048   1.581
11380TIP3    H234084   4.268   3.996   1.673
11381TIP3   OH234085   5.760   2.868   2.565
11381TIP3    H134086   5.707   2.897   2.639
11381TIP3    H234087   5.739   2.929   2.494
11382TIP3   OH234088   6.078   6.039   4.012
11382TIP3    H134089   6.104   5.947   4.006
11382TIP3    H234090   5.982   6.037   4.013
11383TIP3   OH234091   5.639   5.285   4.574
11383TIP3    H134092   5.604   5.197   4.591
11383TIP3    H234093   5.728   5.282   4.610
11384TIP3   OH234094   1.334   2.834   4.443
11384TIP3    H134095   1.402   2.788   4.492
11384TIP3    H234096   1.266   2.768   4.429
11385TIP3   OH234097   8.133   6.092   4.809
11385TIP3    H134098   8.104   6.031   4.741
11385TIP3    H234099   8.189   6.040   4.866
11386TIP3   OH234100   6.920   1.059   1.686
11386TIP3    H134101   6.973   1.136   1.706
11386TIP3    H234102   6.858   1.052   1.759
11387TIP3   OH234103   1.153   3.062   5.933
11387TIP3    H134104   1.180   3.124   6.001
11387TIP3    H234105   1.179   2.977   5.968
11388TIP3   OH234106   4.025   1.281   3.798
11388TIP3    H134107   4.010   1.190   3.826
11388TIP3    H234108   3.980   1.334   3.864
11389TIP3   OH234109   5.028   0.510   2.885
11389TIP3    H134110   4.958   0.483   2.826
11389TIP3    H234111   5.006   0.469   2.969
11390TIP3   OH234112   7.216   5.731   4.939
11390TIP3    H134113   7.163   5.794   4.890
11390TIP3    H234114   7.191   5.744   5.030
11391TIP3   OH234115   5.480   0.060   4.725
11391TIP3    H134116   5.552  -0.003   4.719
11391TIP3    H234117   5.406   0.017   4.683
11392TIP3   OH234118   7.380   3.871   1.919
11392TIP3    H134119   7.390   3.781   1.891
11392TIP3    H234120   7.291   3.875   1.956
11393TIP3   OH234121   8.270   7.280   4.551
11393TIP3    H134122   8.270   7.197   4.505
11393TIP3    H234123   8.309   7.261   4.636
11394TIP3   OH234124   3.972   5.305   3.571
11394TIP3    H134125   4.025   5.346   3.503
11394TIP3    H234126   3.925   5.378   3.611
11395TIP3   OH234127   4.216   0.550   3.900
11395TIP3    H134128   4.142   0.587   3.853
11395TIP3    H234129   4.238   0.470   3.851
11396TIP3   OH234130   1.165   7.690   2.819
11396TIP3    H134131   1.101   7.724   2.758
11396TIP3    H234132   1.200   7.768   2.864
11397TIP3   OH234133   3.257   6.135   6.625
11397TIP3    H134134   3.204   6.058   6.642
11397TIP3    H234135   3.315   6.142   6.701
11398TIP3   OH234136   7.977   2.457   4.962
11398TIP3    H134137   7.951   2.464   4.870
11398TIP3    H234138   7.939   2.374   4.991
11399TIP3   OH234139   4.524   3.379   1.974
11399TIP3    H134140   4.467   3.454   1.956
11399TIP3    H234141   4.466   3.304   1.973
11400TIP3   OH234142   1.886   4.526   3.606
11400TIP3    H134143   1.858   4.545   3.695
11400TIP3    H234144   1.855   4.601   3.555
11401TIP3   OH234145   1.082   5.423   1.614
11401TIP3    H134146   1.123   5.391   1.695
11401TIP3    H234147   1.075   5.345   1.559
11402TIP3   OH234148   0.234   3.562   1.892
11402TIP3    H134149   0.288   3.490   1.860
11402TIP3    H234150   0.257   3.571   1.984
11403TIP3   OH234151   4.675   6.015   6.550
11403TIP3    H134152   4.608   6.066   6.593
11403TIP3    H234153   4.748   6.012   6.613
11404TIP3   OH234154   4.220   5.566   3.122
11404TIP3    H134155   4.140   5.614   3.141
11404TIP3    H234156   4.191   5.487   3.078
11405TIP3   OH234157   1.712   0.464   3.445
11405TIP3    H134158   1.670   0.401   3.387
11405TIP3    H234159   1.674   0.448   3.531
11406TIP3   OH234160   7.166   4.236   2.162
11406TIP3    H134161   7.078   4.220   2.197
11406TIP3    H234162   7.224   4.184   2.218
11407TIP3   OH234163   1.407   6.141   6.511
11407TIP3    H134164   1.431   6.234   6.508
11407TIP3    H234165   1.340   6.136   6.579
11408TIP3   OH234166   1.484   6.160   6.058
11408TIP3    H134167   1.536   6.090   6.099
11408TIP3    H234168   1.394   6.129   6.065
11409TIP3   OH234169   5.908   7.292   1.688
11409TIP3    H134170   5.899   7.342   1.769
11409TIP3    H234171   5.993   7.250   1.695
11410TIP3   OH234172   5.776   6.251   6.212
11410TIP3    H134173   5.693   6.204   6.220
11410TIP3    H234174   5.767   6.302   6.132
11411TIP3   OH234175   4.549   0.302   6.489
11411TIP3    H134176   4.621   0.355   6.455
11411TIP3    H234177   4.503   0.271   6.412
11412TIP3   OH234178   2.950   4.293   0.760
11412TIP3    H134179   2.883   4.253   0.704
11412TIP3    H234180   3.023   4.232   0.758
11413TIP3   OH234181   5.147   2.099   2.228
11413TIP3    H134182   5.163   2.112   2.135
11413TIP3    H234183   5.134   2.004   2.237
11414TIP3   OH234184   1.725   5.493   4.879
11414TIP3    H134185   1.667   5.551   4.927
11414TIP3    H234186   1.679   5.409   4.875
11415TIP3   OH234187   5.337   7.037   0.512
11415TIP3    H134188   5.393   7.013   0.438
11415TIP3    H234189   5.318   6.955   0.556
11416TIP3   OH234190   4.730   4.482   1.251
11416TIP3    H134191   4.750   4.564   1.297
11416TIP3    H234192   4.728   4.507   1.159
11417TIP3   OH234193   1.385   5.612   1.251
11417TIP3    H134194   1.471   5.613   1.293
11417TIP3    H234195   1.401   5.579   1.163
11418TIP3   OH234196   6.555   0.870   3.455
11418TIP3    H134197   6.507   0.877   3.537
11418TIP3    H234198   6.512   0.934   3.397
11419TIP3   OH234199   4.075   7.597   0.458
11419TIP3    H134200   4.052   7.504   0.451
11419TIP3    H234201   4.052   7.620   0.548
11420TIP3   OH234202   0.379   7.883   0.564
11420TIP3    H134203   0.405   7.836   0.643
11420TIP3    H234204   0.441   7.854   0.498
11421TIP3   OH234205   5.398   0.973   5.224
11421TIP3    H134206   5.377   0.919   5.301
11421TIP3    H234207   5.312   1.000   5.191
11422TIP3   OH234208   0.358   1.950   3.953
11422TIP3    H134209   0.370   1.862   3.989
11422TIP3    H234210   0.321   1.935   3.866
11423TIP3   OH234211   0.813   1.824   6.656
11423TIP3    H134212   0.893   1.832   6.604
11423TIP3    H234213   0.748   1.875   6.608
11424TIP3   OH234214   1.284   0.270   5.029
11424TIP3    H134215   1.250   0.180   5.036
11424TIP3    H234216   1.313   0.278   4.938
11425TIP3   OH234217   3.485   5.494   6.711
11425TIP3    H134218   3.481   5.466   6.803
11425TIP3    H234219   3.397   5.528   6.693
11426TIP3   OH234220   0.761   7.066   6.629
11426TIP3    H134221   0.721   7.026   6.706
11426TIP3    H234222   0.696   7.128   6.597
11427TIP3   OH234223   3.935   6.056   4.292
11427TIP3    H134224   3.886   5.973   4.293
11427TIP3    H234225   4.024   6.030   4.266
11428TIP3   OH234226   7.492   2.248   3.922
11428TIP3    H134227   7.581   2.215   3.906
11428TIP3    H234228   7.440   2.170   3.939
11429TIP3   OH234229   5.820   6.152   5.044
11429TIP3    H134230   5.797   6.212   5.115
11429TIP3    H234231   5.740   6.146   4.992
11430TIP3   OH234232   5.946   6.770   1.827
11430TIP3    H134233   5.855   6.750   1.847
11430TIP3    H234234   5.996   6.700   1.870
11431TIP3   OH234235   0.099   3.971   5.167
11431TIP3    H134236   0.100   4.026   5.245
11431TIP3    H234237   0.168   3.906   5.183
11432TIP3   OH234238   5.197   3.689   3.754
11432TIP3    H134239   5.174   3.779   3.776
11432TIP3    H234240   5.271   3.668   3.810
11433TIP3   OH234241   3.293   5.987   2.162
11433TIP3    H134242   3.329   6.064   2.119
11433TIP3    H234243   3.322   5.913   2.109
11434TIP3   OH234244   3.420   3.475   0.102
11434TIP3    H134245   3.415   3.497   0.009
11434TIP3    H234246   3.514   3.467   0.120
11435TIP3   OH234247   3.307   4.560   6.684
11435TIP3    H134248   3.328   4.651   6.703
11435TIP3    H234249   3.383   4.511   6.714
11436TIP3   OH234250   6.836   3.086   1.822
11436TIP3    H134251   6.827   2.992   1.808
11436TIP3    H234252   6.815   3.098   1.915
11437TIP3   OH234253   2.196   4.645   0.116
11437TIP3    H134254   2.252   4.568   0.111
11437TIP3    H234255   2.248   4.708   0.168
11438TIP3   OH234256   2.879   3.617   0.306
11438TIP3    H134257   2.963   3.662   0.314
11438TIP3    H234258   2.841   3.652   0.225
11439TIP3   OH234259   6.787   4.977   1.230
11439TIP3    H134260   6.843   5.033   1.177
11439TIP3    H234261   6.771   5.027   1.310
11440TIP3   OH234262   5.736   6.981   2.879
11440TIP3    H134263   5.710   6.890   2.894
11440TIP3    H234264   5.722   6.994   2.785
11441TIP3   OH234265   2.843   1.738   0.848
11441TIP3    H134266   2.920   1.712   0.797
11441TIP3    H234267   2.880   1.769   0.931
11442TIP3   OH234268   4.560   4.189   2.173
11442TIP3    H134269   4.551   4.118   2.109
11442TIP3    H234270   4.492   4.171   2.238
11443TIP3   OH234271   0.700   1.995   6.184
11443TIP3    H134272   0.693   2.090   6.195
11443TIP3    H234273   0.741   1.984   6.098
11444TIP3   OH234274   3.853   4.342   0.154
11444TIP3    H134275   3.807   4.407   0.101
11444TIP3    H234276   3.804   4.261   0.142
11445TIP3   OH234277   6.224   0.923   5.675
11445TIP3    H134278   6.257   0.874   5.600
11445TIP3    H234279   6.181   1.000   5.637
11446TIP3   OH234280   1.556   5.248   4.362
11446TIP3    H134281   1.594   5.164   4.389
11446TIP3    H234282   1.465   5.244   4.394
11447TIP3   OH234283   3.683   0.596   1.680
11447TIP3    H134284   3.709   0.539   1.752
11447TIP3    H234285   3.617   0.546   1.633
11448TIP3   OH234286   1.311   2.959   1.847
11448TIP3    H134287   1.386   2.948   1.905
11448TIP3    H234288   1.319   2.887   1.784
11449TIP3   OH234289   5.973   0.403   1.598
11449TIP3    H134290   5.880   0.387   1.613
11449TIP3    H234291   6.016   0.372   1.678
11450TIP3   OH234292   2.497   1.543   6.067
11450TIP3    H134293   2.480   1.624   6.020
11450TIP3    H234294   2.419   1.489   6.052
11451TIP3   OH234295   1.287   4.764   1.135
11451TIP3    H134296   1.259   4.684   1.179
11451TIP3    H234297   1.249   4.758   1.047
11452TIP3   OH234298   5.089   3.864   5.052
11452TIP3    H134299   5.036   3.874   4.973
11452TIP3    H234300   5.026   3.844   5.121
11453TIP3   OH234301   5.932   3.705   6.238
11453TIP3    H134302   5.966   3.701   6.327
11453TIP3    H234303   5.840   3.726   6.248
11454TIP3   OH234304   7.298   6.115   0.677
11454TIP3    H134305   7.355   6.123   0.754
11454TIP3    H234306   7.348   6.155   0.606
11455TIP3   OH234307   2.352   4.911   3.778
11455TIP3    H134308   2.329   4.891   3.869
11455TIP3    H234309   2.417   4.845   3.754
11456TIP3   OH234310   2.804   6.054   6.484
11456TIP3    H134311   2.831   5.971   6.443
11456TIP3    H234312   2.874   6.074   6.546
11457TIP3   OH234313   0.137   3.102   6.070
11457TIP3    H134314   0.232   3.099   6.063
11457TIP3    H234315   0.120   3.131   6.159
11458TIP3   OH234316   3.401   0.074   4.213
11458TIP3    H134317   3.490   0.071   4.248
11458TIP3    H234318   3.365  -0.013   4.231
11459TIP3   OH234319   4.663   1.864   3.296
11459TIP3    H134320   4.730   1.918   3.254
11459TIP3    H234321   4.653   1.788   3.238
11460TIP3   OH234322   2.615   7.493   2.945
11460TIP3    H134323   2.565   7.523   3.021
11460TIP3    H234324   2.604   7.398   2.945
11461TIP3   OH234325   3.880   6.645   1.251
11461TIP3    H134326   3.948   6.581   1.272
11461TIP3    H234327   3.851   6.621   1.163
11462TIP3   OH234328   4.493   3.313   4.609
11462TIP3    H134329   4.532   3.226   4.609
11462TIP3    H234330   4.456   3.324   4.696
11463TIP3   OH234331   4.405   3.364   0.822
11463TIP3    H134332   4.461   3.361   0.899
11463TIP3    H234333   4.442   3.434   0.768
11464TIP3   OH234334   2.498   3.905   2.811
11464TIP3    H134335   2.568   3.870   2.866
11464TIP3    H234336   2.439   3.831   2.799
11465TIP3   OH234337   4.299   0.366   5.150
11465TIP3    H134338   4.210   0.391   5.176
11465TIP3    H234339   4.323   0.431   5.084
11466TIP3   OH234340   5.390   0.598   0.209
11466TIP3    H134341   5.309   0.640   0.179
11466TIP3    H234342   5.361   0.517   0.250
11467TIP3   OH234343   8.077   3.622   4.559
11467TIP3    H134344   8.152   3.679   4.573
11467TIP3    H234345   8.080   3.600   4.466
11468TIP3   OH234346   6.044   2.241   2.773
11468TIP3    H134347   6.047   2.200   2.687
11468TIP3    H234348   6.124   2.212   2.817
11469TIP3   OH234349   2.102   0.690   6.537
11469TIP3    H134350   2.171   0.697   6.471
11469TIP3    H234351   2.028   0.653   6.489
11470TIP3   OH234352   5.990   5.371   5.084
11470TIP3    H134353   6.027   5.372   5.172
11470TIP3    H234354   5.975   5.463   5.063
11471TIP3   OH234355   1.778   0.084   2.229
11471TIP3    H134356   1.807   0.147   2.295
11471TIP3    H234357   1.721   0.135   2.171
11472TIP3   OH234358   1.265   7.356   6.649
11472TIP3    H134359   1.353   7.344   6.685
11472TIP3    H234360   1.279   7.372   6.556
11473TIP3   OH234361   1.606   4.154   1.379
11473TIP3    H134362   1.619   4.206   1.299
11473TIP3    H234363   1.609   4.218   1.450
11474TIP3   OH234364   5.177   6.694   3.114
11474TIP3    H134365   5.210   6.656   3.195
11474TIP3    H234366   5.110   6.757   3.141
11475TIP3   OH234367   7.528   7.386   2.265
11475TIP3    H134368   7.505   7.293   2.271
11475TIP3    H234369   7.460   7.431   2.316
11476TIP3   OH234370   1.025   1.572   0.220
11476TIP3    H134371   1.048   1.480   0.204
11476TIP3    H234372   0.946   1.568   0.274
11477TIP3   OH234373   6.004   0.545   1.202
11477TIP3    H134374   5.935   0.504   1.150
11477TIP3    H234375   6.044   0.473   1.251
11478TIP3   OH234376   5.485   4.441   1.236
11478TIP3    H134377   5.514   4.517   1.285
11478TIP3    H234378   5.562   4.413   1.186
11479TIP3   OH234379   0.998   1.814   1.071
11479TIP3    H134380   0.957   1.798   1.157
11479TIP3    H234381   0.924   1.817   1.010
11480TIP3   OH234382   2.566   5.068   4.345
11480TIP3    H134383   2.537   5.142   4.292
11480TIP3    H234384   2.644   5.036   4.300
11481TIP3   OH234385   2.740   2.071   4.479
11481TIP3    H134386   2.720   2.069   4.573
11481TIP3    H234387   2.797   1.995   4.465
11482TIP3   OH234388   4.682   2.589   2.083
11482TIP3    H134389   4.604   2.644   2.096
11482TIP3    H234390   4.668   2.513   2.140
11483TIP3   OH234391   2.217   5.725   5.284
11483TIP3    H134392   2.126   5.708   5.260
11483TIP3    H234393   2.266   5.714   5.202
11484TIP3   OH234394   6.562   5.304   1.770
11484TIP3    H134395   6.647   5.331   1.804
11484TIP3    H234396   6.498   5.353   1.823
11485TIP3   OH234397   5.384   1.430   2.418
11485TIP3    H134398   5.459   1.489   2.410
11485TIP3    H234399   5.411   1.366   2.484
11486TIP3   OH234400   1.521   4.448   5.453
11486TIP3    H134401   1.599   4.503   5.445
11486TIP3    H234402   1.547   4.377   5.512
11487TIP3   OH234403   3.367   4.350   3.566
11487TIP3    H134404   3.418   4.430   3.581
11487TIP3    H234405   3.431   4.287   3.531
11488TIP3   OH234406   5.550   6.638   5.657
11488TIP3    H134407   5.542   6.650   5.752
11488TIP3    H234408   5.634   6.679   5.635
11489TIP3   OH234409   5.752   6.569   3.676
11489TIP3    H134410   5.804   6.638   3.717
11489TIP3    H234411   5.761   6.494   3.735
11490TIP3   OH234412   7.740   3.061   4.275
11490TIP3    H134413   7.670   3.126   4.273
11490TIP3    H234414   7.695   2.978   4.291
11491TIP3   OH234415   7.528   1.211   5.468
11491TIP3    H134416   7.533   1.145   5.399
11491TIP3    H234417   7.590   1.279   5.441
11492TIP3   OH234418   7.655   1.564   0.740
11492TIP3    H134419   7.686   1.649   0.708
11492TIP3    H234420   7.584   1.541   0.680
11493TIP3   OH234421   2.175   0.227   3.937
11493TIP3    H134422   2.257   0.259   3.900
11493TIP3    H234423   2.141   0.167   3.870
11494TIP3   OH234424   7.192   0.321   5.352
11494TIP3    H134425   7.172   0.235   5.313
11494TIP3    H234426   7.267   0.353   5.303
11495TIP3   OH234427   0.544   7.092   3.048
11495TIP3    H134428   0.484   7.138   3.106
11495TIP3    H234429   0.582   7.161   2.992
11496TIP3   OH234430   8.213   2.038   2.151
11496TIP3    H134431   8.203   1.943   2.163
11496TIP3    H234432   8.147   2.060   2.085
11497TIP3   OH234433   7.545   5.100   6.020
11497TIP3    H134434   7.538   5.042   6.096
11497TIP3    H234435   7.636   5.128   6.019
11498TIP3   OH234436   5.078   6.440   0.221
11498TIP3    H134437   5.121   6.424   0.137
11498TIP3    H234438   5.120   6.379   0.281
11499TIP3   OH234439   6.569   0.039   1.810
11499TIP3    H134440   6.479   0.051   1.840
11499TIP3    H234441   6.586  -0.055   1.819
11500TIP3   OH234442   7.371   3.473   4.720
11500TIP3    H134443   7.399   3.411   4.652
11500TIP3    H234444   7.303   3.526   4.677
11501TIP3   OH234445   0.951   2.885   6.209
11501TIP3    H134446   0.965   2.849   6.296
11501TIP3    H234447   0.856   2.894   6.202
11502TIP3   OH234448   2.590   6.967   0.647
11502TIP3    H134449   2.619   6.882   0.681
11502TIP3    H234450   2.649   7.030   0.688
11503TIP3   OH234451   0.135   4.713   1.566
11503TIP3    H134452   0.069   4.664   1.518
11503TIP3    H234453   0.107   4.710   1.658
11504TIP3   OH234454   4.758   0.055   5.250
11504TIP3    H134455   4.718  -0.018   5.297
11504TIP3    H234456   4.824   0.089   5.311
11505TIP3   OH234457   1.702   2.474   3.774
11505TIP3    H134458   1.708   2.385   3.739
11505TIP3    H234459   1.626   2.473   3.831
11506TIP3   OH234460   5.088   5.972   0.296
11506TIP3    H134461   5.066   6.014   0.213
11506TIP3    H234462   5.094   6.044   0.359
11507TIP3   OH234463   2.415   3.020   2.650
11507TIP3    H134464   2.345   3.042   2.589
11507TIP3    H234465   2.379   3.041   2.736
11508TIP3   OH234466   5.533   2.422   2.313
11508TIP3    H134467   5.553   2.329   2.321
11508TIP3    H234468   5.465   2.438   2.379
11509TIP3   OH234469   1.165   3.251   3.691
11509TIP3    H134470   1.250   3.216   3.717
11509TIP3    H234471   1.151   3.324   3.752
11510TIP3   OH234472   5.302   4.707   2.464
11510TIP3    H134473   5.246   4.708   2.387
11510TIP3    H234474   5.317   4.615   2.482
11511TIP3   OH234475   6.315   7.156   6.596
11511TIP3    H134476   6.276   7.080   6.640
11511TIP3    H234477   6.407   7.133   6.586
11512TIP3   OH234478   6.388   2.972   4.200
11512TIP3    H134479   6.444   2.927   4.264
11512TIP3    H234480   6.371   2.907   4.133
11513TIP3   OH234481   3.169   7.277   3.515
11513TIP3    H134482   3.133   7.316   3.435
11513TIP3    H234483   3.120   7.196   3.526
11514TIP3   OH234484   5.288   4.738   4.017
11514TIP3    H134485   5.380   4.750   4.041
11514TIP3    H234486   5.254   4.678   4.084
11515TIP3   OH234487   4.294   1.543   3.716
11515TIP3    H134488   4.293   1.625   3.665
11515TIP3    H234489   4.239   1.561   3.792
11516TIP3   OH234490   8.183   2.191   3.868
11516TIP3    H134491   8.193   2.197   3.773
11516TIP3    H234492   8.266   2.156   3.899
11517TIP3   OH234493   7.041   1.120   6.267
11517TIP3    H134494   7.096   1.128   6.190
11517TIP3    H234495   7.097   1.076   6.332
11518TIP3   OH234496   2.286   1.351   2.118
11518TIP3    H134497   2.357   1.410   2.098
11518TIP3    H234498   2.309   1.313   2.203
11519TIP3   OH234499   2.842   2.626   5.175
11519TIP3    H134500   2.839   2.658   5.084
11519TIP3    H234501   2.919   2.669   5.213
11520TIP3   OH234502   0.932   0.126   3.571
11520TIP3    H134503   0.871   0.198   3.589
11520TIP3    H234504   0.899   0.053   3.624
11521TIP3   OH234505   8.162   1.542   1.693
11521TIP3    H134506   8.251   1.519   1.718
11521TIP3    H234507   8.135   1.471   1.635
11522TIP3   OH234508   5.634   1.119   5.478
11522TIP3    H134509   5.599   1.187   5.536
11522TIP3    H234510   5.636   1.160   5.391
11523TIP3   OH234511   2.232   0.715   4.610
11523TIP3    H134512   2.307   0.657   4.598
11523TIP3    H234513   2.158   0.657   4.629
11524TIP3   OH234514   6.608   6.752   6.774
11524TIP3    H134515   6.680   6.815   6.778
11524TIP3    H234516   6.650   6.667   6.786
11525TIP3   OH234517   0.958   6.605   4.488
11525TIP3    H134518   0.875   6.646   4.512
11525TIP3    H234519   0.987   6.654   4.411
11526TIP3   OH234520   4.794   4.243   0.718
11526TIP3    H134521   4.775   4.242   0.812
11526TIP3    H234522   4.881   4.281   0.711
11527TIP3   OH234523   2.662   5.500   2.990
11527TIP3    H134524   2.625   5.434   2.932
11527TIP3    H234525   2.657   5.581   2.941
11528TIP3   OH234526   2.357   5.284   5.792
11528TIP3    H134527   2.383   5.342   5.721
11528TIP3    H234528   2.429   5.289   5.855
11529TIP3   OH234529   6.949   3.079   4.993
11529TIP3    H134530   6.960   2.987   4.968
11529TIP3    H234531   6.868   3.106   4.950
11530TIP3   OH234532   3.778   5.534   2.473
11530TIP3    H134533   3.737   5.593   2.536
11530TIP3    H234534   3.871   5.552   2.481
11531TIP3   OH234535   6.652   3.538   5.582
11531TIP3    H134536   6.708   3.460   5.574
11531TIP3    H234537   6.696   3.592   5.647
11532TIP3   OH234538   4.631   1.007   0.427
11532TIP3    H134539   4.666   0.940   0.369
11532TIP3    H234540   4.552   0.968   0.465
11533TIP3   OH234541   0.942   6.843   3.194
11533TIP3    H134542   0.849   6.855   3.210
11533TIP3    H234543   0.978   6.932   3.192
11534TIP3   OH234544   5.513   1.679   5.767
11534TIP3    H134545   5.473   1.677   5.853
11534TIP3    H234546   5.462   1.744   5.718
11535TIP3   OH234547   4.764   0.987   6.707
11535TIP3    H134548   4.727   1.070   6.736
11535TIP3    H234549   4.739   0.980   6.615
11536TIP3   OH234550   2.979   4.910   3.363
11536TIP3    H134551   2.989   4.818   3.339
11536TIP3    H234552   3.030   4.919   3.443
11537TIP3   OH234553   7.990   2.906   4.358
11537TIP3    H134554   8.043   2.909   4.278
11537TIP3    H234555   7.928   2.978   4.349
11538TIP3   OH234556   4.760   4.632   5.764
11538TIP3    H134557   4.748   4.641   5.859
11538TIP3    H234558   4.774   4.538   5.751
11539TIP3   OH234559   5.240   6.848   2.547
11539TIP3    H134560   5.199   6.762   2.541
11539TIP3    H234561   5.331   6.834   2.522
11540TIP3   OH234562   1.390   2.408   5.350
11540TIP3    H134563   1.299   2.431   5.331
11540TIP3    H234564   1.384   2.356   5.430
11541TIP3   OH234565   2.673   5.475   5.592
11541TIP3    H134566   2.646   5.447   5.505
11541TIP3    H234567   2.592   5.499   5.636
11542TIP3   OH234568   2.904   5.095   3.163
11542TIP3    H134569   2.913   5.033   3.236
11542TIP3    H234570   2.860   5.170   3.201
11543TIP3   OH234571   3.880   2.599   4.969
11543TIP3    H134572   3.849   2.586   4.879
11543TIP3    H234573   3.903   2.511   5.000
11544TIP3   OH234574   6.223   1.491   3.150
11544TIP3    H134575   6.233   1.396   3.142
11544TIP3    H234576   6.139   1.510   3.108
11545TIP3   OH234577   1.590   3.841   2.178
11545TIP3    H134578   1.664   3.782   2.198
11545TIP3    H234579   1.593   3.851   2.083
11546TIP3   OH234580   6.631   4.067   2.022
11546TIP3    H134581   6.582   3.989   1.997
11546TIP3    H234582   6.684   4.087   1.945
11547TIP3   OH234583   1.433   0.368   3.115
11547TIP3    H134584   1.499   0.431   3.087
11547TIP3    H234585   1.461   0.341   3.202
11548TIP3   OH234586   4.395   6.872   2.450
11548TIP3    H134587   4.414   6.816   2.525
11548TIP3    H234588   4.326   6.825   2.403
11549TIP3   OH234589   0.697   1.692   5.205
11549TIP3    H134590   0.752   1.629   5.159
11549TIP3    H234591   0.747   1.774   5.204
11550TIP3   OH234592   0.584   1.728   6.242
11550TIP3    H134593   0.674   1.734   6.275
11550TIP3    H234594   0.587   1.772   6.157
11551TIP3   OH234595   7.929   5.840   2.612
11551TIP3    H134596   8.017   5.802   2.611
11551TIP3    H234597   7.902   5.836   2.703
11552TIP3   OH234598   1.831   4.926   2.804
11552TIP3    H134599   1.801   5.017   2.809
11552TIP3    H234600   1.820   4.893   2.893
11553TIP3   OH234601   6.223   2.758   1.255
11553TIP3    H134602   6.261   2.691   1.312
11553TIP3    H234603   6.174   2.815   1.313
11554TIP3   OH234604   2.896   4.766   2.004
11554TIP3    H134605   2.832   4.822   2.049
11554TIP3    H234606   2.843   4.715   1.942
11555TIP3   OH234607   4.424   3.583   3.325
11555TIP3    H134608   4.445   3.498   3.286
11555TIP3    H234609   4.337   3.571   3.362
11556TIP3   OH234610   3.728   4.483   4.387
11556TIP3    H134611   3.808   4.531   4.407
11556TIP3    H234612   3.673   4.496   4.464
11557TIP3   OH234613   5.119   5.816   4.177
11557TIP3    H134614   5.043   5.872   4.190
11557TIP3    H234615   5.187   5.853   4.234
11558TIP3   OH234616   1.080   7.063   4.479
11558TIP3    H134617   0.987   7.061   4.457
11558TIP3    H234618   1.120   6.995   4.425
11559TIP3   OH234619   1.946   6.115   5.848
11559TIP3    H134620   1.999   6.100   5.927
11559TIP3    H234621   1.870   6.165   5.880
11560TIP3   OH234622   0.542   0.913   6.594
11560TIP3    H134623   0.478   0.982   6.575
11560TIP3    H234624   0.489   0.842   6.631
11561TIP3   OH234625   0.861   2.870   2.485
11561TIP3    H134626   0.808   2.847   2.409
11561TIP3    H234627   0.940   2.909   2.449
11562TIP3   OH234628   0.822   2.539   0.667
11562TIP3    H134629   0.891   2.606   0.667
11562TIP3    H234630   0.829   2.497   0.582
11563TIP3   OH234631   1.994   4.907   3.454
11563TIP3    H134632   2.071   4.855   3.433
11563TIP3    H234633   2.005   4.987   3.403
11564TIP3   OH234634   2.882   2.099   1.209
11564TIP3    H134635   2.952   2.140   1.157
11564TIP3    H234636   2.928   2.053   1.279
11565TIP3   OH234637   6.020   6.648   4.798
11565TIP3    H134638   6.095   6.697   4.832
11565TIP3    H234639   5.982   6.605   4.875
11566TIP3   OH234640   6.169   1.003   2.371
11566TIP3    H134641   6.260   1.003   2.344
11566TIP3    H234642   6.159   0.923   2.423
11567TIP3   OH234643   2.048   3.363   3.315
11567TIP3    H134644   2.118   3.404   3.264
11567TIP3    H234645   2.077   3.273   3.329
11568TIP3   OH234646   2.608   5.477   6.577
11568TIP3    H134647   2.540   5.471   6.509
11568TIP3    H234648   2.663   5.400   6.562
11569TIP3   OH234649   7.204   1.658   4.744
11569TIP3    H134650   7.258   1.706   4.807
11569TIP3    H234651   7.159   1.592   4.797
11570TIP3   OH234652   0.270   3.345   0.601
11570TIP3    H134653   0.312   3.302   0.526
11570TIP3    H234654   0.176   3.342   0.581
11571TIP3   OH234655   8.178   6.851   3.592
11571TIP3    H134656   8.143   6.860   3.504
11571TIP3    H234657   8.164   6.759   3.614
11572TIP3   OH234658   1.708   3.276   2.029
11572TIP3    H134659   1.772   3.208   2.007
11572TIP3    H234660   1.741   3.355   1.987
11573TIP3   OH234661   3.155   1.393   5.180
11573TIP3    H134662   3.073   1.414   5.226
11573TIP3    H234663   3.160   1.298   5.181
11574TIP3   OH234664   2.213   4.488   0.736
11574TIP3    H134665   2.117   4.481   0.733
11574TIP3    H234666   2.235   4.543   0.661
11575TIP3   OH234667   6.549   2.216   1.078
11575TIP3    H134668   6.589   2.190   0.995
11575TIP3    H234669   6.499   2.139   1.106
11576TIP3   OH234670   7.848   2.568   1.491
11576TIP3    H134671   7.850   2.662   1.471
11576TIP3    H234672   7.806   2.562   1.576
11577TIP3   OH234673   3.021   2.957   3.628
11577TIP3    H134674   3.019   2.862   3.617
11577TIP3    H234675   2.948   2.976   3.688
11578TIP3   OH234676   5.037   2.022   6.163
11578TIP3    H134677   5.042   2.118   6.162
11578TIP3    H234678   4.953   2.003   6.203
11579TIP3   OH234679   0.455   2.883   2.447
11579TIP3    H134680   0.474   2.797   2.408
11579TIP3    H234681   0.489   2.876   2.536
11580TIP3   OH234682   6.816   4.194   0.335
11580TIP3    H134683   6.756   4.245   0.390
11580TIP3    H234684   6.821   4.108   0.376
11581TIP3   OH234685   3.467   0.974   2.346
11581TIP3    H134686   3.432   0.916   2.279
11581TIP3    H234687   3.526   1.033   2.299
11582TIP3   OH234688   6.286   6.463   2.119
11582TIP3    H134689   6.311   6.427   2.204
11582TIP3    H234690   6.224   6.398   2.083
11583TIP3   OH234691   3.108   7.401   6.375
11583TIP3    H134692   3.029   7.402   6.429
11583TIP3    H234693   3.116   7.490   6.342
11584TIP3   OH234694   7.259   0.605   3.576
11584TIP3    H134695   7.239   0.531   3.633
11584TIP3    H234696   7.301   0.566   3.499
11585TIP3   OH234697   0.244   5.283   1.657
11585TIP3    H134698   0.177   5.347   1.682
11585TIP3    H234699   0.211   5.200   1.691
11586TIP3   OH234700   7.360   5.632   0.029
11586TIP3    H134701   7.428   5.616  -0.037
11586TIP3    H234702   7.389   5.582   0.105
11587TIP3   OH234703   6.249   4.384   5.903
11587TIP3    H134704   6.310   4.458   5.900
11587TIP3    H234705   6.198   4.398   5.983
11588TIP3   OH234706   1.395   3.146   0.834
11588TIP3    H134707   1.456   3.075   0.853
11588TIP3    H234708   1.450   3.219   0.806
11589TIP3   OH234709   7.858   6.071   5.986
11589TIP3    H134710   7.911   6.147   5.963
11589TIP3    H234711   7.776   6.083   5.938
11590TIP3   OH234712   5.424   6.273   3.736
11590TIP3    H134713   5.475   6.203   3.697
11590TIP3    H234714   5.404   6.243   3.824
11591TIP3   OH234715   6.353   2.397   5.230
11591TIP3    H134716   6.388   2.483   5.252
11591TIP3    H234717   6.351   2.350   5.314
11592TIP3   OH234718   1.377   6.277   1.611
11592TIP3    H134719   1.465   6.287   1.575
11592TIP3    H234720   1.342   6.366   1.615
11593TIP3   OH234721   7.148   2.491   2.541
11593TIP3    H134722   7.138   2.513   2.448
11593TIP3    H234723   7.192   2.406   2.540
11594TIP3   OH234724   3.711   3.229   4.458
11594TIP3    H134725   3.651   3.197   4.390
11594TIP3    H234726   3.664   3.215   4.540
11595TIP3   OH234727   3.305   3.510   3.897
11595TIP3    H134728   3.333   3.575   3.961
11595TIP3    H234729   3.382   3.495   3.842
11596TIP3   OH234730   6.050   1.019   5.453
11596TIP3    H134731   6.046   0.938   5.402
11596TIP3    H234732   6.025   1.088   5.390
11597TIP3   OH234733   1.941   3.787   3.105
11597TIP3    H134734   2.033   3.792   3.077
11597TIP3    H234735   1.905   3.872   3.082
11598TIP3   OH234736   5.505   0.344  -0.007
11598TIP3    H134737   5.585   0.308  -0.045
11598TIP3    H234738   5.527   0.356   0.086
11599TIP3   OH234739   4.926   0.100   3.356
11599TIP3    H134740   5.008   0.135   3.390
11599TIP3    H234741   4.879   0.070   3.434
11600TIP3   OH234742   7.373   2.047   6.062
11600TIP3    H134743   7.373   2.132   6.017
11600TIP3    H234744   7.448   2.051   6.121
11601TIP3   OH234745   7.450   6.756   1.563
11601TIP3    H134746   7.485   6.790   1.645
11601TIP3    H234747   7.452   6.661   1.574
11602TIP3   OH234748   4.379   2.099   3.604
11602TIP3    H134749   4.436   2.127   3.532
11602TIP3    H234750   4.440   2.061   3.668
11603TIP3   OH234751   2.153   7.580   5.524
11603TIP3    H134752   2.236   7.560   5.568
11603TIP3    H234753   2.172   7.568   5.431
11604TIP3   OH234754   0.862   7.622   4.742
11604TIP3    H134755   0.878   7.529   4.754
11604TIP3    H234756   0.934   7.652   4.686
11605TIP3   OH234757   5.865   4.517   1.940
11605TIP3    H134758   5.909   4.454   1.997
11605TIP3    H234759   5.774   4.516   1.969
11606TIP3   OH234760   4.955   7.299   3.159
11606TIP3    H134761   5.010   7.255   3.224
11606TIP3    H234762   4.956   7.391   3.184
11607TIP3   OH234763   5.655   4.158   5.952
11607TIP3    H134764   5.751   4.162   5.959
11607TIP3    H234765   5.626   4.248   5.964
11608TIP3   OH234766   4.829   5.325   0.086
11608TIP3    H134767   4.838   5.247   0.031
11608TIP3    H234768   4.818   5.291   0.174
11609TIP3   OH234769   5.319   1.200   4.453
11609TIP3    H134770   5.285   1.111   4.457
11609TIP3    H234771   5.242   1.255   4.435
11610TIP3   OH234772   7.415   7.495   4.488
11610TIP3    H134773   7.492   7.448   4.454
11610TIP3    H234774   7.354   7.497   4.415
11611TIP3   OH234775   1.124   7.824   1.630
11611TIP3    H134776   1.128   7.785   1.717
11611TIP3    H234777   1.172   7.907   1.639
11612TIP3   OH234778   7.587   4.625   6.777
11612TIP3    H134779   7.519   4.654   6.716
11612TIP3    H234780   7.602   4.533   6.754
11613TIP3   OH234781   5.977   7.558   5.619
11613TIP3    H134782   6.047   7.595   5.674
11613TIP3    H234783   5.900   7.557   5.676
11614TIP3   OH234784   5.336   4.416   1.743
11614TIP3    H134785   5.314   4.327   1.716
11614TIP3    H234786   5.340   4.465   1.662
11615TIP3   OH234787   1.393   1.942   6.716
11615TIP3    H134788   1.367   1.871   6.657
11615TIP3    H234789   1.485   1.958   6.694
11616TIP3   OH234790   6.157   1.209   5.936
11616TIP3    H134791   6.108   1.206   5.854
11616TIP3    H234792   6.186   1.119   5.950
11617TIP3   OH234793   1.235   4.019   5.014
11617TIP3    H134794   1.320   3.987   5.046
11617TIP3    H234795   1.215   4.094   5.070
11618TIP3   OH234796   0.910   7.149   2.530
11618TIP3    H134797   0.915   7.233   2.576
11618TIP3    H234798   0.951   7.086   2.589
11619TIP3   OH234799   8.119   4.252   6.516
11619TIP3    H134800   8.166   4.261   6.599
11619TIP3    H234801   8.165   4.182   6.470
11620TIP3   OH234802   1.690   0.191   1.430
11620TIP3    H134803   1.679   0.109   1.479
11620TIP3    H234804   1.780   0.218   1.448
11621TIP3   OH234805   0.607   4.880   0.547
11621TIP3    H134806   0.681   4.864   0.487
11621TIP3    H234807   0.531   4.845   0.501
11622TIP3   OH234808   5.265   5.206   5.575
11622TIP3    H134809   5.318   5.191   5.497
11622TIP3    H234810   5.296   5.141   5.638
11623TIP3   OH234811   7.338   6.997   2.466
11623TIP3    H134812   7.373   6.909   2.478
11623TIP3    H234813   7.342   7.036   2.554
11624TIP3   OH234814   6.308   6.549   5.856
11624TIP3    H134815   6.312   6.543   5.761
11624TIP3    H234816   6.235   6.491   5.881
11625TIP3   OH234817   3.200   7.189   4.121
11625TIP3    H134818   3.287   7.183   4.082
11625TIP3    H234819   3.200   7.123   4.190
11626TIP3   OH234820   2.005   1.851   4.388
11626TIP3    H134821   1.965   1.895   4.463
11626TIP3    H234822   1.931   1.814   4.340
11627TIP3   OH234823   4.396   1.291   3.933
11627TIP3    H134824   4.477   1.333   3.904
11627TIP3    H234825   4.361   1.249   3.854
11628TIP3   OH234826   4.818   6.792   4.726
11628TIP3    H134827   4.828   6.851   4.651
11628TIP3    H234828   4.802   6.850   4.800
11629TIP3   OH234829   4.677   1.966   2.087
11629TIP3    H134830   4.607   1.906   2.115
11629TIP3    H234831   4.717   1.922   2.012
11630TIP3   OH234832   3.758   5.661   4.963
11630TIP3    H134833   3.743   5.742   4.915
11630TIP3    H234834   3.687   5.657   5.027
11631TIP3   OH234835   2.061   3.069   3.603
11631TIP3    H134836   2.043   2.983   3.640
11631TIP3    H234837   2.079   3.052   3.510
11632TIP3   OH234838   7.689   4.049   4.536
11632TIP3    H134839   7.665   3.956   4.540
11632TIP3    H234840   7.785   4.049   4.538
11633TIP3   OH234841   3.985   0.010   0.253
11633TIP3    H134842   3.956   0.059   0.176
11633TIP3    H234843   3.907  -0.035   0.284
11634TIP3   OH234844   6.226   3.738   2.357
11634TIP3    H134845   6.269   3.822   2.343
11634TIP3    H234846   6.133   3.756   2.344
11635TIP3   OH234847   1.841   4.057   3.009
11635TIP3    H134848   1.897   4.134   2.999
11635TIP3    H234849   1.816   4.034   2.919
11636TIP3   OH234850   2.018   2.203   4.167
11636TIP3    H134851   2.092   2.203   4.228
11636TIP3    H234852   1.980   2.291   4.175
11637TIP3   OH234853   0.072   6.290   0.122
11637TIP3    H134854   0.167   6.285   0.118
11637TIP3    H234855   0.043   6.229   0.053
11638TIP3   OH234856   3.979   3.742   0.377
11638TIP3    H134857   3.933   3.675   0.429
11638TIP3    H234858   3.924   3.753   0.299
11639TIP3   OH234859   4.687   7.825   3.959
11639TIP3    H134860   4.767   7.859   3.919
11639TIP3    H234861   4.717   7.755   4.017
11640TIP3   OH234862   6.132   3.628   0.686
11640TIP3    H134863   6.152   3.643   0.593
11640TIP3    H234864   6.190   3.557   0.712
11641TIP3   OH234865   0.064   5.769   6.350
11641TIP3    H134866  -0.007   5.757   6.413
11641TIP3    H234867   0.036   5.719   6.273
11642TIP3   OH234868   0.644   4.058   0.425
11642TIP3    H134869   0.627   4.119   0.354
11642TIP3    H234870   0.738   4.065   0.440
11643TIP3   OH234871   0.605   1.863   0.703
11643TIP3    H134872   0.559   1.817   0.632
11643TIP3    H234873   0.648   1.937   0.659
11644TIP3   OH234874   1.515   7.570   3.227
11644TIP3    H134875   1.569   7.617   3.290
11644TIP3    H234876   1.577   7.533   3.164
11645TIP3   OH234877   6.739   5.267   5.109
11645TIP3    H134878   6.814   5.217   5.142
11645TIP3    H234879   6.757   5.278   5.016
11646TIP3   OH234880   2.878   2.624   2.781
11646TIP3    H134881   2.799   2.665   2.745
11646TIP3    H234882   2.919   2.583   2.705
11647TIP3   OH234883   7.923   3.546   0.772
11647TIP3    H134884   8.002   3.509   0.733
11647TIP3    H234885   7.853   3.523   0.711
11648TIP3   OH234886   1.822   7.570   3.047
11648TIP3    H134887   1.846   7.604   3.133
11648TIP3    H234888   1.903   7.537   3.010
11649TIP3   OH234889   7.964   2.521   1.219
11649TIP3    H134890   7.925   2.518   1.306
11649TIP3    H234891   8.049   2.564   1.233
11650TIP3   OH234892   0.455   4.605   5.546
11650TIP3    H134893   0.393   4.603   5.619
11650TIP3    H234894   0.433   4.685   5.498
11651TIP3   OH234895   4.286   1.192   3.721
11651TIP3    H134896   4.213   1.254   3.727
11651TIP3    H234897   4.243   1.106   3.720
11652TIP3   OH234898   4.823   3.197   2.876
11652TIP3    H134899   4.824   3.113   2.922
11652TIP3    H234900   4.735   3.232   2.894
11653TIP3   OH234901   2.501   3.505   1.222
11653TIP3    H134902   2.561   3.480   1.151
11653TIP3    H234903   2.543   3.580   1.264
11654TIP3   OH234904   3.135   7.030   5.073
11654TIP3    H134905   3.138   6.965   5.143
11654TIP3    H234906   3.094   7.106   5.112
11655TIP3   OH234907   2.421   6.164   3.621
11655TIP3    H134908   2.368   6.095   3.581
11655TIP3    H234909   2.491   6.117   3.666
11656TIP3   OH234910   6.833   5.860   3.459
11656TIP3    H134911   6.831   5.857   3.555
11656TIP3    H234912   6.885   5.938   3.439
11657TIP3   OH234913   3.878   4.523   5.392
11657TIP3    H134914   3.795   4.546   5.432
11657TIP3    H234915   3.940   4.521   5.464
11658TIP3   OH234916   2.898   2.228   2.694
11658TIP3    H134917   2.852   2.155   2.736
11658TIP3    H234918   2.828   2.283   2.659
11659TIP3   OH234919   2.265   0.959   2.537
11659TIP3    H134920   2.204   0.906   2.588
11659TIP3    H234921   2.210   1.025   2.495
11660TIP3   OH234922   1.394   4.716   5.242
11660TIP3    H134923   1.373   4.628   5.211
11660TIP3    H234924   1.404   4.706   5.336
11661TIP3   OH234925   5.882   7.547   6.037
11661TIP3    H134926   5.869   7.489   6.113
11661TIP3    H234927   5.822   7.513   5.971
11662TIP3   OH234928   2.986   2.343   1.604
11662TIP3    H134929   2.990   2.328   1.510
11662TIP3    H234930   2.983   2.438   1.614
11663TIP3   OH234931   6.252   7.834   2.802
11663TIP3    H134932   6.199   7.770   2.754
11663TIP3    H234933   6.297   7.884   2.734
11664TIP3   OH234934   1.819   2.821   6.358
11664TIP3    H134935   1.905   2.825   6.316
11664TIP3    H234936   1.796   2.913   6.372
11665TIP3   OH234937   0.244   6.949   0.953
11665TIP3    H134938   0.186   6.873   0.954
11665TIP3    H234939   0.204   7.011   1.014
11666TIP3   OH234940   7.721   5.498   2.254
11666TIP3    H134941   7.768   5.576   2.223
11666TIP3    H234942   7.730   5.502   2.349
11667TIP3   OH234943   4.231   3.091   6.586
11667TIP3    H134944   4.179   3.157   6.632
11667TIP3    H234945   4.168   3.022   6.564
11668TIP3   OH234946   3.827   1.633   5.307
11668TIP3    H134947   3.908   1.584   5.293
11668TIP3    H234948   3.806   1.669   5.221
11669TIP3   OH234949   2.461   3.998   1.195
11669TIP3    H134950   2.420   4.080   1.168
11669TIP3    H234951   2.416   3.973   1.275
11670TIP3   OH234952   1.411   1.859   2.292
11670TIP3    H134953   1.462   1.786   2.326
11670TIP3    H234954   1.466   1.936   2.307
11671TIP3   OH234955   3.425   5.220   1.967
11671TIP3    H134956   3.476   5.278   2.024
11671TIP3    H234957   3.354   5.189   2.022
11672TIP3   OH234958   1.285   2.186   3.316
11672TIP3    H134959   1.220   2.228   3.372
11672TIP3    H234960   1.354   2.157   3.376
11673TIP3   OH234961   8.162   3.788   4.962
11673TIP3    H134962   8.170   3.713   5.021
11673TIP3    H234963   8.252   3.811   4.940
11674TIP3   OH234964   4.568   3.969   0.011
11674TIP3    H134965   4.517   4.007  -0.061
11674TIP3    H234966   4.510   3.973   0.087
11675TIP3   OH234967   1.241   0.763   2.924
11675TIP3    H134968   1.274   0.815   2.997
11675TIP3    H234969   1.233   0.675   2.959
11676TIP3   OH234970   4.871   3.996   1.189
11676TIP3    H134971   4.960   4.008   1.156
11676TIP3    H234972   4.816   4.038   1.124
11677TIP3   OH234973   1.372   4.981   4.255
11677TIP3    H134974   1.376   5.052   4.191
11677TIP3    H234975   1.463   4.962   4.276
11678TIP3   OH234976   5.785   6.125   2.003
11678TIP3    H134977   5.724   6.131   1.930
11678TIP3    H234978   5.753   6.052   2.056
11679TIP3   OH234979   3.153   5.563   4.298
11679TIP3    H134980   3.066   5.594   4.273
11679TIP3    H234981   3.159   5.580   4.392
11680TIP3   OH234982   2.622   2.037   6.422
11680TIP3    H134983   2.705   2.065   6.462
11680TIP3    H234984   2.555   2.082   6.474
11681TIP3   OH234985   4.847   4.684   2.512
11681TIP3    H134986   4.891   4.640   2.439
11681TIP3    H234987   4.882   4.773   2.510
11682TIP3   OH234988   1.603   0.240   6.663
11682TIP3    H134989   1.642   0.313   6.710
11682TIP3    H234990   1.517   0.271   6.636
11683TIP3   OH234991   1.123   2.057   1.054
11683TIP3    H134992   1.056   1.993   1.034
11683TIP3    H234993   1.193   2.007   1.096
11684TIP3   OH234994   7.077   2.655   0.877
11684TIP3    H134995   7.055   2.747   0.890
11684TIP3    H234996   7.168   2.655   0.850
11685TIP3   OH234997   8.287   0.830   0.724
11685TIP3    H134998   8.217   0.896   0.723
11685TIP3    H234999   8.339   0.849   0.646
11686TIP3   OH235000   8.171   1.879   0.082
11686TIP3    H135001   8.151   1.941   0.151
11686TIP3    H235002   8.150   1.925   0.001
11687TIP3   OH235003   1.301   5.319   1.347
11687TIP3    H135004   1.298   5.229   1.379
11687TIP3    H235005   1.344   5.313   1.262
11688TIP3   OH235006   0.708   3.576   0.385
11688TIP3    H135007   0.677   3.651   0.334
11688TIP3    H235008   0.718   3.506   0.320
11689TIP3   OH235009  -0.001   4.215   2.417
11689TIP3    H135010   0.025   4.271   2.344
11689TIP3    H235011  -0.066   4.155   2.380
11690TIP3   OH235012   1.463   4.317   3.698
11690TIP3    H135013   1.471   4.222   3.706
11690TIP3    H235014   1.548   4.351   3.724
11691TIP3   OH235015   5.164   6.831   3.842
11691TIP3    H135016   5.212   6.751   3.866
11691TIP3    H235017   5.120   6.808   3.760
11692TIP3   OH235018   3.298   0.805   5.736
11692TIP3    H135019   3.253   0.885   5.710
11692TIP3    H235020   3.234   0.758   5.790
11693TIP3   OH235021   8.168   2.073   4.560
11693TIP3    H135022   8.198   2.155   4.520
11693TIP3    H235023   8.191   2.081   4.653
11694TIP3   OH235024   6.019   1.413   6.071
11694TIP3    H135025   6.065   1.337   6.035
11694TIP3    H235026   5.946   1.375   6.121
11695TIP3   OH235027   6.048   7.367   0.766
11695TIP3    H135028   6.091   7.433   0.821
11695TIP3    H235029   6.013   7.303   0.828
11696TIP3   OH235030   7.735   0.944   5.683
11696TIP3    H135031   7.737   1.002   5.607
11696TIP3    H235032   7.770   0.861   5.651
11697TIP3   OH235033   1.090   3.102   1.951
11697TIP3    H135034   1.108   3.192   1.925
11697TIP3    H235035   1.168   3.053   1.925
11698TIP3   OH235036   8.083   5.946   5.113
11698TIP3    H135037   8.148   6.008   5.146
11698TIP3    H235038   8.081   5.876   5.178
11699TIP3   OH235039   1.988   3.840   6.278
11699TIP3    H135040   1.932   3.900   6.228
11699TIP3    H235041   2.076   3.859   6.248
11700TIP3   OH235042   5.052   3.891   2.733
11700TIP3    H135043   5.005   3.869   2.813
11700TIP3    H235044   4.983   3.917   2.671
11701TIP3   OH235045   4.123   7.094   0.459
11701TIP3    H135046   4.158   7.006   0.473
11701TIP3    H235047   4.093   7.094   0.368
11702TIP3   OH235048   0.392   1.600   2.974
11702TIP3    H135049   0.378   1.606   3.068
11702TIP3    H235050   0.477   1.640   2.960
11703TIP3   OH235051   0.389   2.450   6.279
11703TIP3    H135052   0.459   2.511   6.256
11703TIP3    H235053   0.426   2.394   6.348
11704TIP3   OH235054   4.244   2.695   3.913
11704TIP3    H135055   4.165   2.732   3.874
11704TIP3    H235056   4.312   2.760   3.896
11705TIP3   OH235057   0.440   2.293   4.049
11705TIP3    H135058   0.380   2.334   3.987
11705TIP3    H235059   0.501   2.243   3.994
11706TIP3   OH235060   2.589   2.586   4.057
11706TIP3    H135061   2.583   2.597   3.962
11706TIP3    H235062   2.498   2.580   4.086
11707TIP3   OH235063   3.396   5.765   5.969
11707TIP3    H135064   3.397   5.823   6.045
11707TIP3    H235065   3.488   5.739   5.958
11708TIP3   OH235066   3.218   5.624   2.717
11708TIP3    H135067   3.137   5.580   2.694
11708TIP3    H235068   3.216   5.707   2.669
11709TIP3   OH235069   3.175   4.666   5.909
11709TIP3    H135070   3.159   4.733   5.841
11709TIP3    H235071   3.241   4.609   5.871
11710TIP3   OH235072   1.753   1.284   5.177
11710TIP3    H135073   1.763   1.221   5.249
11710TIP3    H235074   1.842   1.309   5.154
11711TIP3   OH235075   1.816   7.559   6.337
11711TIP3    H135076   1.734   7.607   6.352
11711TIP3    H235077   1.860   7.609   6.268
11712TIP3   OH235078   5.842   6.957   6.332
11712TIP3    H135079   5.904   6.991   6.268
11712TIP3    H235080   5.883   6.973   6.417
11713TIP3   OH235081   1.103   2.706   3.258
11713TIP3    H135082   1.074   2.796   3.270
11713TIP3    H235083   1.053   2.674   3.183
11714TIP3   OH235084   3.968   3.130   4.446
11714TIP3    H135085   3.992   3.112   4.537
11714TIP3    H235086   3.881   3.170   4.451
11715TIP3   OH235087   1.999   5.528   1.206
11715TIP3    H135088   2.003   5.515   1.112
11715TIP3    H235089   2.053   5.606   1.222
11716TIP3   OH235090   2.842   3.759   4.041
11716TIP3    H135091   2.788   3.828   4.003
11716TIP3    H235092   2.930   3.777   4.008
11717TIP3   OH235093   5.799   1.195   0.161
11717TIP3    H135094   5.881   1.223   0.201
11717TIP3    H235095   5.810   1.101   0.147
11718TIP3   OH235096   5.164   6.440   4.733
11718TIP3    H135097   5.075   6.438   4.768
11718TIP3    H235098   5.159   6.497   4.656
11719TIP3   OH235099   7.936   2.452   2.890
11719TIP3    H135100   7.935   2.547   2.878
11719TIP3    H235101   8.007   2.436   2.953
11720TIP3   OH235102   1.482   6.411   2.896
11720TIP3    H135103   1.419   6.478   2.925
11720TIP3    H235104   1.440   6.328   2.920
11721TIP3   OH235105   7.391   6.257   0.481
11721TIP3    H135106   7.409   6.347   0.507
11721TIP3    H235107   7.337   6.265   0.402
11722TIP3   OH235108   1.105   2.364   0.566
11722TIP3    H135109   1.043   2.420   0.520
11722TIP3    H235110   1.094   2.278   0.526
11723TIP3   OH235111   5.908   2.601   5.662
11723TIP3    H135112   5.926   2.539   5.591
11723TIP3    H235113   5.932   2.686   5.627
11724TIP3   OH235114   5.135   0.003   0.263
11724TIP3    H135115   5.047   0.026   0.294
11724TIP3    H235116   5.178   0.088   0.248
11725TIP3   OH235117   3.251   0.249   3.622
11725TIP3    H135118   3.323   0.191   3.597
11725TIP3    H235119   3.276   0.283   3.708
11726TIP3   OH235120   1.995   1.661   1.130
11726TIP3    H135121   1.929   1.721   1.094
11726TIP3    H235122   2.000   1.685   1.223
11727TIP3   OH235123   1.327   6.925   0.129
11727TIP3    H135124   1.390   6.996   0.141
11727TIP3    H235125   1.334   6.902   0.036
11728TIP3   OH235126   3.431   5.632   0.428
11728TIP3    H135127   3.522   5.656   0.411
11728TIP3    H235128   3.418   5.551   0.379
11729TIP3   OH235129   8.068   6.360   3.614
11729TIP3    H135130   8.044   6.313   3.694
11729TIP3    H235131   8.101   6.444   3.645
11730TIP3   OH235132   2.435   3.520   1.502
11730TIP3    H135133   2.492   3.573   1.558
11730TIP3    H235134   2.474   3.527   1.415
11731TIP3   OH235135   3.438   0.512   3.552
11731TIP3    H135136   3.438   0.455   3.628
11731TIP3    H235137   3.529   0.540   3.542
11732TIP3   OH235138   4.886   2.353   5.723
11732TIP3    H135139   4.979   2.374   5.719
11732TIP3    H235140   4.863   2.330   5.632
11733TIP3   OH235141   3.644   2.050   4.469
11733TIP3    H135142   3.681   2.138   4.467
11733TIP3    H235143   3.602   2.039   4.383
11734TIP3   OH235144   4.945   3.171   5.740
11734TIP3    H135145   4.977   3.245   5.790
11734TIP3    H235146   4.871   3.138   5.791
11735TIP3   OH235147   6.833   0.041   0.068
11735TIP3    H135148   6.926   0.021   0.070
11735TIP3    H235149   6.815   0.065  -0.023
11736TIP3   OH235150   0.299   2.620   2.646
11736TIP3    H135151   0.286   2.580   2.732
11736TIP3    H235152   0.378   2.674   2.656
11737TIP3   OH235153   1.883   1.889   4.719
11737TIP3    H135154   1.833   1.928   4.791
11737TIP3    H235155   1.952   1.953   4.700
11738TIP3   OH235156   3.268   6.920   4.716
11738TIP3    H135157   3.217   7.000   4.704
11738TIP3    H235158   3.316   6.935   4.797
11739TIP3   OH235159   4.002   1.028   0.086
11739TIP3    H135160   3.970   0.996   0.170
11739TIP3    H235161   4.056   1.104   0.107
11740TIP3   OH235162   1.079   7.528   1.961
11740TIP3    H135163   1.046   7.605   2.009
11740TIP3    H235164   1.084   7.459   2.028
11741TIP3   OH235165   7.924   3.563   4.111
11741TIP3    H135166   7.983   3.508   4.163
11741TIP3    H235167   7.855   3.588   4.173
11742TIP3   OH235168   6.299   2.438   6.380
11742TIP3    H135169   6.311   2.467   6.470
11742TIP3    H235170   6.204   2.443   6.366
11743TIP3   OH235171   1.660   0.656   5.174
11743TIP3    H135172   1.666   0.576   5.122
11743TIP3    H235173   1.690   0.630   5.261
11744TIP3   OH235174   4.191   0.174   6.605
11744TIP3    H135175   4.194   0.093   6.554
11744TIP3    H235176   4.142   0.150   6.684
11745TIP3   OH235177   2.822   6.589   1.156
11745TIP3    H135178   2.764   6.630   1.220
11745TIP3    H235179   2.843   6.659   1.095
11746TIP3   OH235180   0.981   7.741   3.588
11746TIP3    H135181   0.929   7.661   3.590
11746TIP3    H235182   0.932   7.803   3.643
11747TIP3   OH235183   5.566   0.462   5.745
11747TIP3    H135184   5.511   0.396   5.787
11747TIP3    H235185   5.555   0.540   5.799
11748TIP3   OH235186   6.388   4.328   4.375
11748TIP3    H135187   6.428   4.332   4.461
11748TIP3    H235188   6.294   4.325   4.392
11749TIP3   OH235189   1.617   2.705   0.165
11749TIP3    H135190   1.558   2.672   0.097
11749TIP3    H235191   1.673   2.630   0.185
11750TIP3   OH235192   6.028   2.875   4.306
11750TIP3    H135193   6.058   2.820   4.233
11750TIP3    H235194   6.066   2.835   4.384
11751TIP3   OH235195   0.864   2.463   1.751
11751TIP3    H135196   0.791   2.433   1.697
11751TIP3    H235197   0.928   2.392   1.745
11752TIP3   OH235198   6.047   5.460   4.113
11752TIP3    H135199   6.045   5.532   4.049
11752TIP3    H235200   5.959   5.424   4.112
11753TIP3   OH235201   3.762   4.186   5.517
11753TIP3    H135202   3.698   4.238   5.469
11753TIP3    H235203   3.711   4.142   5.585
11754TIP3   OH235204   2.486   7.673   2.785
11754TIP3    H135205   2.544   7.620   2.840
11754TIP3    H235206   2.525   7.760   2.788
11755TIP3   OH235207   1.412   7.450   3.569
11755TIP3    H135208   1.452   7.368   3.540
11755TIP3    H235209   1.475   7.487   3.630
11756TIP3   OH235210   0.735   5.284   1.841
11756TIP3    H135211   0.651   5.278   1.795
11756TIP3    H235212   0.799   5.303   1.772
11757TIP3   OH235213   2.929   4.963   2.377
11757TIP3    H135214   2.915   5.018   2.454
11757TIP3    H235215   2.841   4.947   2.342
11758TIP3   OH235216   4.295   0.795   4.044
11758TIP3    H135217   4.234   0.793   4.118
11758TIP3    H235218   4.302   0.704   4.016
11759TIP3   OH235219   2.884   6.094   0.584
11759TIP3    H135220   2.931   6.137   0.512
11759TIP3    H235221   2.808   6.053   0.542
11760TIP3   OH235222   7.173   4.193   4.274
11760TIP3    H135223   7.099   4.163   4.327
11760TIP3    H235224   7.249   4.148   4.310
11761TIP3   OH235225   4.318   7.432   5.713
11761TIP3    H135226   4.391   7.387   5.671
11761TIP3    H235227   4.285   7.369   5.777
11762TIP3   OH235228   2.577   2.438   5.876
11762TIP3    H135229   2.639   2.366   5.888
11762TIP3    H235230   2.596   2.470   5.788
11763TIP3   OH235231   4.167   5.113   5.480
11763TIP3    H135232   4.173   5.202   5.514
11763TIP3    H235233   4.080   5.083   5.506
11764TIP3   OH235234   5.971   4.256   3.744
11764TIP3    H135235   5.935   4.313   3.812
11764TIP3    H235236   6.020   4.189   3.791
11765TIP3   OH235237   7.568   1.368   1.352
11765TIP3    H135238   7.522   1.298   1.398
11765TIP3    H235239   7.576   1.337   1.262
11766TIP3   OH235240   2.071   5.550   4.448
11766TIP3    H135241   2.030   5.548   4.535
11766TIP3    H235242   1.999   5.534   4.387
11767TIP3   OH235243   7.170   7.210   4.573
11767TIP3    H135244   7.187   7.116   4.578
11767TIP3    H235245   7.251   7.250   4.606
11768TIP3   OH235246   3.231   6.775   5.865
11768TIP3    H135247   3.258   6.724   5.789
11768TIP3    H235248   3.143   6.806   5.844
11769TIP3   OH235249   2.218   7.139   2.531
11769TIP3    H135250   2.211   7.072   2.463
11769TIP3    H235251   2.299   7.118   2.577
11770TIP3   OH235252   3.652   7.318   0.365
11770TIP3    H135253   3.686   7.232   0.338
11770TIP3    H235254   3.649   7.369   0.285
11771TIP3   OH235255   0.479   7.756   5.741
11771TIP3    H135256   0.428   7.754   5.822
11771TIP3    H235257   0.499   7.849   5.728
11772TIP3   OH235258   2.334   5.916   5.431
11772TIP3    H135259   2.409   5.937   5.375
11772TIP3    H235260   2.274   5.870   5.372
11773TIP3   OH235261   5.058   3.409   5.839
11773TIP3    H135262   5.118   3.428   5.767
11773TIP3    H235263   5.113   3.366   5.905
11774TIP3   OH235264   3.724   7.163   3.844
11774TIP3    H135265   3.677   7.246   3.844
11774TIP3    H235266   3.744   7.148   3.751
11775TIP3   OH235267   2.096   3.242   4.554
11775TIP3    H135268   2.125   3.260   4.465
11775TIP3    H235269   2.170   3.269   4.609
11776TIP3   OH235270   2.376   6.532   0.650
11776TIP3    H135271   2.407   6.600   0.589
11776TIP3    H235272   2.281   6.533   0.640
11777TIP3   OH235273  -0.003   1.206   1.650
11777TIP3    H135274   0.082   1.164   1.660
11777TIP3    H235275  -0.057   1.141   1.605
11778TIP3   OH235276   4.571   0.570   0.094
11778TIP3    H135277   4.589   0.480   0.120
11778TIP3    H235278   4.573   0.569  -0.001
11779TIP3   OH235279   2.411   3.500   5.312
11779TIP3    H135280   2.345   3.564   5.287
11779TIP3    H235281   2.491   3.550   5.323
11780TIP3   OH235282   2.700   3.234   2.780
11780TIP3    H135283   2.666   3.147   2.804
11780TIP3    H235284   2.754   3.218   2.703
11781TIP3   OH235285   7.831   7.179   6.351
11781TIP3    H135286   7.840   7.092   6.312
11781TIP3    H235287   7.914   7.223   6.332
11782TIP3   OH235288   3.436   3.285   1.906
11782TIP3    H135289   3.453   3.263   1.814
11782TIP3    H235290   3.441   3.380   1.910
11783TIP3   OH235291   5.015   6.096   1.703
11783TIP3    H135292   5.046   6.129   1.618
11783TIP3    H235293   5.061   6.150   1.768
11784TIP3   OH235294   2.063   7.477   2.338
11784TIP3    H135295   2.041   7.566   2.311
11784TIP3    H235296   2.110   7.440   2.263
11785TIP3   OH235297   3.110   1.711   4.849
11785TIP3    H135298   3.184   1.769   4.831
11785TIP3    H235299   3.113   1.697   4.944
11786TIP3   OH235300   0.543   4.704   6.605
11786TIP3    H135301   0.635   4.703   6.629
11786TIP3    H235302   0.543   4.699   6.510
11787TIP3   OH235303   6.176   4.527   1.637
11787TIP3    H135304   6.103   4.586   1.652
11787TIP3    H235305   6.190   4.484   1.722
11788TIP3   OH235306   5.678   1.246   1.306
11788TIP3    H135307   5.692   1.154   1.284
11788TIP3    H235308   5.673   1.290   1.221
11789TIP3   OH235309   7.200   3.349   4.962
11789TIP3    H135310   7.208   3.269   4.910
11789TIP3    H235311   7.227   3.419   4.902
11790TIP3   OH235312   6.783   0.393   5.741
11790TIP3    H135313   6.849   0.331   5.709
11790TIP3    H235314   6.748   0.351   5.819
11791TIP3   OH235315   1.644   5.281   1.415
11791TIP3    H135316   1.578   5.273   1.484
11791TIP3    H235317   1.705   5.209   1.431
11792TIP3   OH235318   6.929   7.357   0.710
11792TIP3    H135319   6.934   7.403   0.626
11792TIP3    H235320   6.848   7.388   0.750
11793TIP3   OH235321   2.025   6.107   6.594
11793TIP3    H135322   1.941   6.137   6.627
11793TIP3    H235323   2.019   6.011   6.596
11794TIP3   OH235324   2.431   0.111   6.517
11794TIP3    H135325   2.487   0.164   6.460
11794TIP3    H235326   2.482   0.033   6.536
11795TIP3   OH235327   7.835   4.922   0.092
11795TIP3    H135328   7.854   4.953   0.180
11795TIP3    H235329   7.787   4.995   0.051
11796TIP3   OH235330   2.292   5.669   4.198
11796TIP3    H135331   2.313   5.681   4.290
11796TIP3    H235332   2.259   5.579   4.193
11797TIP3   OH235333   5.933   5.205   4.583
11797TIP3    H135334   5.983   5.179   4.660
11797TIP3    H235335   5.994   5.254   4.529
11798TIP3   OH235336   0.052   0.173   0.254
11798TIP3    H135337  -0.034   0.143   0.283
11798TIP3    H235338   0.050   0.268   0.266
11799TIP3   OH235339   6.433   3.609   5.233
11799TIP3    H135340   6.387   3.693   5.235
11799TIP3    H235341   6.427   3.577   5.323
11800TIP3   OH235342   0.701   6.590   0.048
11800TIP3    H135343   0.615   6.554   0.069
11800TIP3    H235344   0.685   6.682   0.028
11801TIP3   OH235345   2.944   2.291   4.951
11801TIP3    H135346   2.883   2.364   4.965
11801TIP3    H235347   2.965   2.295   4.858
11802TIP3   OH235348   8.121   1.463   2.548
11802TIP3    H135349   8.116   1.389   2.488
11802TIP3    H235350   8.043   1.456   2.602
11803TIP3   OH235351   0.032   2.032   4.795
11803TIP3    H135352   0.107   1.973   4.803
11803TIP3    H235353   0.057   2.110   4.845
11804TIP3   OH235354   4.118   2.415   0.306
11804TIP3    H135355   4.069   2.486   0.347
11804TIP3    H235356   4.169   2.458   0.237
11805TIP3   OH235357   1.487   3.455   1.341
11805TIP3    H135358   1.460   3.546   1.335
11805TIP3    H235359   1.522   3.446   1.430
11806TIP3   OH235360   4.438   4.532   1.501
11806TIP3    H135361   4.511   4.473   1.521
11806TIP3    H235362   4.464   4.616   1.540
11807TIP3   OH235363   6.269   2.459   4.331
11807TIP3    H135364   6.190   2.459   4.384
11807TIP3    H235365   6.340   2.440   4.393
11808TIP3   OH235366   3.218   0.252   4.084
11808TIP3    H135367   3.251   0.341   4.095
11808TIP3    H235368   3.281   0.197   4.130
11809TIP3   OH235369   1.325   2.762   2.886
11809TIP3    H135370   1.353   2.671   2.875
11809TIP3    H235371   1.324   2.797   2.797
11810TIP3   OH235372   3.743   5.923   4.770
11810TIP3    H135373   3.834   5.950   4.764
11810TIP3    H235374   3.731   5.858   4.700
11811TIP3   OH235375   5.174   2.080   5.168
11811TIP3    H135376   5.207   2.167   5.190
11811TIP3    H235377   5.108   2.095   5.101
11812TIP3   OH235378   6.140   2.834   0.474
11812TIP3    H135379   6.140   2.742   0.500
11812TIP3    H235380   6.145   2.831   0.378
11813TIP3   OH235381   4.827   4.757   3.284
11813TIP3    H135382   4.815   4.662   3.281
11813TIP3    H235383   4.739   4.792   3.269
11814TIP3   OH235384   2.298   4.224   1.182
11814TIP3    H135385   2.278   4.316   1.167
11814TIP3    H235386   2.236   4.176   1.127
11815TIP3   OH235387   8.175   5.703   3.365
11815TIP3    H135388   8.105   5.760   3.399
11815TIP3    H235389   8.195   5.739   3.279
11816TIP3   OH235390   3.343   1.569   0.044
11816TIP3    H135391   3.293   1.490   0.027
11816TIP3    H235392   3.290   1.619   0.106
11817TIP3   OH235393   3.192   7.770   2.582
11817TIP3    H135394   3.111   7.814   2.557
11817TIP3    H235395   3.175   7.737   2.670
11818TIP3   OH235396   1.490   0.933   4.849
11818TIP3    H135397   1.575   0.965   4.879
11818TIP3    H235398   1.476   0.853   4.899
11819TIP3   OH235399   5.153   7.452   2.977
11819TIP3    H135400   5.238   7.485   3.004
11819TIP3    H235401   5.138   7.375   3.032
11820TIP3   OH235402   7.300   4.903   3.368
11820TIP3    H135403   7.378   4.910   3.422
11820TIP3    H235404   7.228   4.928   3.426
11821TIP3   OH235405   5.705   5.687   3.603
11821TIP3    H135406   5.780   5.658   3.655
11821TIP3    H235407   5.702   5.626   3.529
11822TIP3   OH235408   7.785   0.865   4.283
11822TIP3    H135409   7.695   0.862   4.316
11822TIP3    H235410   7.811   0.773   4.277
11823TIP3   OH235411   4.294   1.666   0.324
11823TIP3    H135412   4.310   1.698   0.413
11823TIP3    H235413   4.201   1.643   0.324
11824TIP3   OH235414   1.624   3.109   2.233
11824TIP3    H135415   1.561   3.140   2.299
11824TIP3    H235416   1.626   3.179   2.168
11825TIP3   OH235417   8.149   3.459   3.110
11825TIP3    H135418   8.208   3.532   3.129
11825TIP3    H235419   8.159   3.401   3.185
11826TIP3   OH235420   7.599  -0.007   0.456
11826TIP3    H135421   7.674  -0.015   0.515
11826TIP3    H235422   7.626   0.058   0.391
11827TIP3   OH235423   0.186   1.292   3.849
11827TIP3    H135424   0.190   1.279   3.754
11827TIP3    H235425   0.095   1.274   3.872
11828TIP3   OH235426   1.527   6.978   4.931
11828TIP3    H135427   1.499   6.933   4.852
11828TIP3    H235428   1.557   6.908   4.990
11829TIP3   OH235429   7.574   3.250   2.662
11829TIP3    H135430   7.666   3.242   2.636
11829TIP3    H235431   7.573   3.321   2.726
11830TIP3   OH235432   3.336   6.667   2.354
11830TIP3    H135433   3.344   6.760   2.374
11830TIP3    H235434   3.397   6.624   2.413
11831TIP3   OH235435   8.291   0.624   5.137
11831TIP3    H135436   8.257   0.566   5.068
11831TIP3    H235437   8.285   0.571   5.217
11832TIP3   OH235438   7.993   4.717   1.197
11832TIP3    H135439   8.071   4.677   1.235
11832TIP3    H235440   7.942   4.643   1.164
11833TIP3   OH235441   0.595   2.943   0.269
11833TIP3    H135442   0.601   2.868   0.210
11833TIP3    H235443   0.543   3.007   0.222
11834TIP3   OH235444   3.350   0.459   0.057
11834TIP3    H135445   3.404   0.408  -0.004
11834TIP3    H235446   3.413   0.504   0.113
11835TIP3   OH235447   2.959   2.364   3.778
11835TIP3    H135448   3.055   2.368   3.786
11835TIP3    H235449   2.928   2.423   3.847
11836TIP3   OH235450   8.174   6.811   1.914
11836TIP3    H135451   8.240   6.879   1.923
11836TIP3    H235452   8.173   6.790   1.820
11837TIP3   OH235453   5.689   7.483   0.208
11837TIP3    H135454   5.693   7.548   0.138
11837TIP3    H235455   5.631   7.522   0.273
11838TIP3   OH235456   6.665   6.491   2.176
11838TIP3    H135457   6.630   6.434   2.245
11838TIP3    H235458   6.590   6.540   2.144
11839TIP3   OH235459   2.929   4.606   3.314
11839TIP3    H135460   2.943   4.514   3.337
11839TIP3    H235461   2.981   4.619   3.235
11840TIP3   OH235462   7.750   6.297   4.064
11840TIP3    H135463   7.671   6.275   4.114
11840TIP3    H235464   7.734   6.261   3.977
11841TIP3   OH235465   4.098   3.920   6.518
11841TIP3    H135466   4.037   3.990   6.541
11841TIP3    H235467   4.075   3.847   6.575
11842TIP3   OH235468   6.625   3.951   2.917
11842TIP3    H135469   6.659   3.966   2.829
11842TIP3    H235470   6.547   4.006   2.922
11843TIP3   OH235471   2.828   0.291   1.901
11843TIP3    H135472   2.837   0.295   1.996
11843TIP3    H235473   2.752   0.346   1.882
11844TIP3   OH235474   1.476   4.016   6.000
11844TIP3    H135475   1.390   3.972   6.000
11844TIP3    H235476   1.496   4.029   6.093
11845TIP3   OH235477   2.407   1.612   1.862
11845TIP3    H135478   2.461   1.677   1.816
11845TIP3    H235479   2.438   1.615   1.952
11846TIP3   OH235480   3.517   3.170   4.745
11846TIP3    H135481   3.507   3.104   4.676
11846TIP3    H235482   3.521   3.120   4.826
11847TIP3   OH235483   3.340   2.985   6.311
11847TIP3    H135484   3.406   2.924   6.345
11847TIP3    H235485   3.390   3.051   6.263
11848TIP3   OH235486   6.352   2.026   2.122
11848TIP3    H135487   6.393   2.005   2.206
11848TIP3    H235488   6.380   2.117   2.105
11849TIP3   OH235489   6.585   5.462   0.588
11849TIP3    H135490   6.605   5.509   0.669
11849TIP3    H235491   6.651   5.394   0.582
11850TIP3   OH235492   4.647   7.772   5.211
11850TIP3    H135493   4.685   7.824   5.140
11850TIP3    H235494   4.718   7.762   5.274
11851TIP3   OH235495   1.123   1.271   6.070
11851TIP3    H135496   1.057   1.265   6.000
11851TIP3    H235497   1.140   1.180   6.095
11852TIP3   OH235498   3.917   2.365   5.104
11852TIP3    H135499   3.914   2.283   5.153
11852TIP3    H235500   3.973   2.422   5.156
11853TIP3   OH235501   7.563   6.757   0.645
11853TIP3    H135502   7.546   6.776   0.738
11853TIP3    H235503   7.559   6.842   0.602
11854TIP3   OH235504   2.733   3.350   4.304
11854TIP3    H135505   2.751   3.257   4.292
11854TIP3    H235506   2.820   3.391   4.308
11855TIP3   OH235507   0.063   3.408   2.552
11855TIP3    H135508   0.062   3.403   2.457
11855TIP3    H235509   0.126   3.478   2.572
11856TIP3   OH235510   0.788   4.786   1.411
11856TIP3    H135511   0.826   4.765   1.326
11856TIP3    H235512   0.763   4.702   1.448
11857TIP3   OH235513   1.250   1.069   5.698
11857TIP3    H135514   1.311   1.046   5.629
11857TIP3    H235515   1.241   1.164   5.691
11858TIP3   OH235516   0.877   7.125   1.969
11858TIP3    H135517   0.934   7.061   2.012
11858TIP3    H235518   0.887   7.204   2.021
11859TIP3   OH235519   6.387   0.354   5.473
11859TIP3    H135520   6.354   0.408   5.400
11859TIP3    H235521   6.476   0.387   5.488
11860TIP3   OH235522   5.669   0.491   1.413
11860TIP3    H135523   5.700   0.444   1.491
11860TIP3    H235524   5.651   0.422   1.349
11861TIP3   OH235525   2.614   2.481   5.158
11861TIP3    H135526   2.697   2.521   5.182
11861TIP3    H235527   2.560   2.487   5.236
11862TIP3   OH235528   3.831   3.684   4.918
11862TIP3    H135529   3.750   3.728   4.892
11862TIP3    H235530   3.890   3.697   4.844
11863TIP3   OH235531   6.392   6.359   6.581
11863TIP3    H135532   6.395   6.298   6.655
11863TIP3    H235533   6.317   6.330   6.529
11864TIP3   OH235534   5.453   7.126   0.055
11864TIP3    H135535   5.500   7.140   0.138
11864TIP3    H235536   5.392   7.056   0.074
11865TIP3   OH235537   3.817   0.111   2.231
11865TIP3    H135538   3.775   0.056   2.164
11865TIP3    H235539   3.871   0.172   2.181
11866TIP3   OH235540  -0.047   2.746   1.246
11866TIP3    H135541  -0.015   2.691   1.175
11866TIP3    H235542  -0.002   2.830   1.234
11867TIP3   OH235543   4.780   4.721   1.397
11867TIP3    H135544   4.800   4.800   1.347
11867TIP3    H235545   4.713   4.749   1.460
11868TIP3   OH235546   0.311   7.762   4.394
11868TIP3    H135547   0.274   7.734   4.478
11868TIP3    H235548   0.343   7.851   4.411
11869TIP3   OH235549  -0.026   6.449   0.323
11869TIP3    H135550   0.023   6.386   0.270
11869TIP3    H235551   0.030   6.464   0.400
11870TIP3   OH235552   4.531   4.256   2.506
11870TIP3    H135553   4.625   4.236   2.508
11870TIP3    H235554   4.498   4.225   2.591
11871TIP3   OH235555   1.221   5.090   1.164
11871TIP3    H135556   1.253   5.083   1.254
11871TIP3    H235557   1.133   5.053   1.167
11872TIP3   OH235558   1.496   4.832   3.442
11872TIP3    H135559   1.461   4.915   3.408
11872TIP3    H235560   1.565   4.859   3.502
11873TIP3   OH235561   4.877   2.017   3.220
11873TIP3    H135562   4.864   2.081   3.289
11873TIP3    H235563   4.901   2.070   3.143
11874TIP3   OH235564   2.589   4.972   2.569
11874TIP3    H135565   2.614   4.879   2.566
11874TIP3    H235566   2.496   4.973   2.544
11875TIP3   OH235567   2.091   7.639   1.596
11875TIP3    H135568   2.168   7.582   1.598
11875TIP3    H235569   2.080   7.667   1.687
11876TIP3   OH235570   6.642   3.607   4.883
11876TIP3    H135571   6.702   3.682   4.886
11876TIP3    H235572   6.593   3.619   4.801
11877TIP3   OH235573   3.520   4.986   0.172
11877TIP3    H135574   3.455   5.037   0.124
11877TIP3    H235575   3.531   4.906   0.121
11878TIP3   OH235576   6.832   5.927   5.004
11878TIP3    H135577   6.906   5.917   4.944
11878TIP3    H235578   6.824   5.842   5.047
11879TIP3   OH235579   4.714   5.834   0.113
11879TIP3    H135580   4.755   5.769   0.169
11879TIP3    H235581   4.641   5.868   0.165
11880TIP3   OH235582   0.768   1.839   0.925
11880TIP3    H135583   0.715   1.873   0.997
11880TIP3    H235584   0.715   1.853   0.847
11881TIP3   OH235585   8.299   4.595   1.219
11881TIP3    H135586   8.295   4.689   1.237
11881TIP3    H235587   8.290   4.554   1.305
11882TIP3   OH235588   4.595   2.256   6.242
11882TIP3    H135589   4.538   2.196   6.194
11882TIP3    H235590   4.537   2.302   6.303
11883TIP3   OH235591   2.465   7.222   2.722
11883TIP3    H135592   2.545   7.250   2.677
11883TIP3    H235593   2.464   7.127   2.712
11884TIP3   OH235594   2.027   2.741   2.773
11884TIP3    H135595   2.019   2.824   2.819
11884TIP3    H235596   2.054   2.765   2.684
11885TIP3   OH235597   7.825   7.684   4.632
11885TIP3    H135598   7.860   7.628   4.562
11885TIP3    H235599   7.801   7.624   4.702
11886TIP3   OH235600   6.370   3.006   2.394
11886TIP3    H135601   6.376   3.076   2.458
11886TIP3    H235602   6.331   3.046   2.317
11887TIP3   OH235603   3.439   1.614   3.923
11887TIP3    H135604   3.432   1.594   3.829
11887TIP3    H235605   3.445   1.528   3.964
11888TIP3   OH235606   2.646   2.967   2.092
11888TIP3    H135607   2.563   3.007   2.067
11888TIP3    H235608   2.642   2.960   2.187
11889TIP3   OH235609   5.926   5.048   3.260
11889TIP3    H135610   5.944   5.134   3.300
11889TIP3    H235611   5.964   5.055   3.172
11890TIP3   OH235612   5.613   7.524   5.367
11890TIP3    H135613   5.703   7.498   5.344
11890TIP3    H235614   5.558   7.458   5.325
11891TIP3   OH235615   0.498   3.270   3.018
11891TIP3    H135616   0.487   3.306   3.106
11891TIP3    H235617   0.536   3.184   3.032
11892TIP3   OH235618   3.427   5.884   4.692
11892TIP3    H135619   3.397   5.909   4.779
11892TIP3    H235620   3.382   5.802   4.674
11893TIP3   OH235621   2.491   3.806   4.175
11893TIP3    H135622   2.478   3.769   4.263
11893TIP3    H235623   2.509   3.731   4.119
11894TIP3   OH235624   6.242   0.298   2.598
11894TIP3    H135625   6.331   0.302   2.564
11894TIP3    H235626   6.249   0.246   2.678
11895TIP3   OH235627   7.514   7.261   3.644
11895TIP3    H135628   7.589   7.202   3.639
11895TIP3    H235629   7.439   7.206   3.620
11896TIP3   OH235630   7.011   7.542   4.643
11896TIP3    H135631   6.990   7.455   4.609
11896TIP3    H235632   6.937   7.596   4.614
11897TIP3   OH235633   4.604   4.931   4.382
11897TIP3    H135634   4.538   4.976   4.329
11897TIP3    H235635   4.598   4.972   4.468
11898TIP3   OH235636   1.471   6.124   2.502
11898TIP3    H135637   1.442   6.211   2.528
11898TIP3    H235638   1.394   6.069   2.514
11899TIP3   OH235639   5.767   3.684   2.105
11899TIP3    H135640   5.739   3.775   2.091
11899TIP3    H235641   5.688   3.632   2.090
11900TIP3   OH235642   4.145   3.023   3.846
11900TIP3    H135643   4.184   3.037   3.760
11900TIP3    H235644   4.057   2.992   3.828
11901TIP3   OH235645   7.288   1.238   2.565
11901TIP3    H135646   7.207   1.212   2.609
11901TIP3    H235647   7.276   1.210   2.474
11902TIP3   OH235648   6.982   3.122   4.599
11902TIP3    H135649   6.935   3.188   4.547
11902TIP3    H235650   7.003   3.053   4.537
11903TIP3   OH235651   7.450   1.750   6.699
11903TIP3    H135652   7.368   1.762   6.651
11903TIP3    H235653   7.457   1.655   6.712
11904TIP3   OH235654   3.045   5.885   6.049
11904TIP3    H135655   3.092   5.812   6.008
11904TIP3    H235656   3.098   5.962   6.030
11905TIP3   OH235657   1.148   6.719   4.693
11905TIP3    H135658   1.101   6.696   4.613
11905TIP3    H235659   1.079   6.726   4.760
11906TIP3   OH235660   1.973   1.815   1.784
11906TIP3    H135661   1.923   1.893   1.761
11906TIP3    H235662   2.064   1.844   1.789
11907TIP3   OH235663   0.971   0.455   3.437
11907TIP3    H135664   0.915   0.532   3.427
11907TIP3    H235665   0.958   0.406   3.356
11908TIP3   OH235666   6.256   2.962   2.121
11908TIP3    H135667   6.190   2.894   2.102
11908TIP3    H235668   6.225   3.039   2.073
11909TIP3   OH235669   3.215   5.293   0.684
11909TIP3    H135670   3.208   5.198   0.678
11909TIP3    H235671   3.125   5.324   0.676
11910TIP3   OH235672   7.059   1.913   4.255
11910TIP3    H135673   7.139   1.894   4.304
11910TIP3    H235674   7.082   1.895   4.164
11911TIP3   OH235675   5.648   6.871   4.551
11911TIP3    H135676   5.724   6.831   4.595
11911TIP3    H235677   5.683   6.901   4.467
11912TIP3   OH235678   1.180   5.857   4.005
11912TIP3    H135679   1.221   5.866   4.091
11912TIP3    H235680   1.138   5.942   3.989
11913TIP3   OH235681   7.207   2.965   1.842
11913TIP3    H135682   7.279   2.908   1.816
11913TIP3    H235683   7.235   3.053   1.815
11914TIP3   OH235684   7.939   0.274   0.568
11914TIP3    H135685   7.895   0.249   0.649
11914TIP3    H235686   7.869   0.280   0.503
11915TIP3   OH235687   2.741   3.053   3.424
11915TIP3    H135688   2.659   3.072   3.378
11915TIP3    H235689   2.734   2.961   3.449
11916TIP3   OH235690   5.626   6.204   3.386
11916TIP3    H135691   5.590   6.188   3.473
11916TIP3    H235692   5.580   6.143   3.329
11917TIP3   OH235693   7.205   2.820   5.483
11917TIP3    H135694   7.296   2.840   5.504
11917TIP3    H235695   7.156   2.844   5.562
11918TIP3   OH235696   4.363   1.479   2.528
11918TIP3    H135697   4.292   1.415   2.537
11918TIP3    H235698   4.383   1.506   2.617
11919TIP3   OH235699   3.771   4.231   4.740
11919TIP3    H135700   3.784   4.188   4.824
11919TIP3    H235701   3.857   4.227   4.698
11920TIP3   OH235702   7.699   2.790   3.700
11920TIP3    H135703   7.726   2.794   3.791
11920TIP3    H235704   7.647   2.870   3.687
11921TIP3   OH235705   1.573   3.734   4.092
11921TIP3    H135706   1.503   3.796   4.113
11921TIP3    H235707   1.558   3.712   4.000
11922TIP3   OH235708   0.697   5.804   5.733
11922TIP3    H135709   0.643   5.726   5.730
11922TIP3    H235710   0.736   5.811   5.645
11923TIP3   OH235711   7.868   4.854   4.475
11923TIP3    H135712   7.930   4.786   4.451
11923TIP3    H235713   7.881   4.866   4.569
11924TIP3   OH235714   5.606   6.304   2.234
11924TIP3    H135715   5.639   6.228   2.282
11924TIP3    H235716   5.573   6.267   2.152
11925TIP3   OH235717   0.393   0.301   2.181
11925TIP3    H135718   0.396   0.359   2.104
11925TIP3    H235719   0.482   0.270   2.191
11926TIP3   OH235720   1.538   1.740   5.433
11926TIP3    H135721   1.631   1.741   5.408
11926TIP3    H235722   1.491   1.762   5.353
11927TIP3   OH235723   7.672   5.855   0.030
11927TIP3    H135724   7.751   5.869   0.081
11927TIP3    H235725   7.600   5.874   0.091
11928TIP3   OH235726   3.259   5.740   1.989
11928TIP3    H135727   3.270   5.654   2.031
11928TIP3    H235728   3.294   5.728   1.901
11929TIP3   OH235729   6.788   7.299   3.955
11929TIP3    H135730   6.700   7.301   3.993
11929TIP3    H235731   6.817   7.391   3.957
11930TIP3   OH235732   6.747   1.184   0.635
11930TIP3    H135733   6.778   1.208   0.722
11930TIP3    H235734   6.809   1.118   0.604
11931TIP3   OH235735   1.774   5.158   3.329
11931TIP3    H135736   1.765   5.237   3.382
11931TIP3    H235737   1.708   5.097   3.363
11932TIP3   OH235738   6.024   6.984   6.148
11932TIP3    H135739   6.020   7.064   6.097
11932TIP3    H235740   6.090   6.931   6.104
11933TIP3   OH235741   0.378   5.307   4.881
11933TIP3    H135742   0.414   5.289   4.968
11933TIP3    H235743   0.332   5.391   4.891
11934TIP3   OH235744   0.638   1.682   3.001
11934TIP3    H135745   0.697   1.625   3.050
11934TIP3    H235746   0.690   1.714   2.928
11935TIP3   OH235747   3.465   1.752   1.396
11935TIP3    H135748   3.552   1.768   1.431
11935TIP3    H235749   3.405   1.782   1.464
11936TIP3   OH235750   0.407   5.376   2.729
11936TIP3    H135751   0.435   5.396   2.818
11936TIP3    H235752   0.333   5.316   2.740
11937TIP3   OH235753   0.149   0.705   2.138
11937TIP3    H135754   0.062   0.730   2.170
11937TIP3    H235755   0.201   0.694   2.218
11938TIP3   OH235756   6.510   0.522   6.159
11938TIP3    H135757   6.442   0.464   6.126
11938TIP3    H235758   6.462   0.591   6.205
11939TIP3   OH235759   3.543   0.015   0.395
11939TIP3    H135760   3.506   0.088   0.346
11939TIP3    H235761   3.538  -0.059   0.335
11940TIP3   OH235762   6.207   4.790   5.175
11940TIP3    H135763   6.193   4.882   5.198
11940TIP3    H235764   6.120   4.759   5.148
11941TIP3   OH235765   3.412   7.354   3.369
11941TIP3    H135766   3.347   7.298   3.411
11941TIP3    H235767   3.472   7.293   3.326
11942TIP3   OH235768   4.137   6.406   0.514
11942TIP3    H135769   4.106   6.440   0.430
11942TIP3    H235770   4.129   6.311   0.506
11943TIP3   OH235771   0.140   1.702   5.918
11943TIP3    H135772   0.166   1.778   5.970
11943TIP3    H235773   0.184   1.628   5.960
11944TIP3   OH235774   7.009   3.408   1.014
11944TIP3    H135775   7.052   3.493   1.011
11944TIP3    H235776   6.943   3.412   0.945
11945TIP3   OH235777   0.556   3.186   1.034
11945TIP3    H135778   0.650   3.202   1.044
11945TIP3    H235779   0.514   3.268   1.060
11946TIP3   OH235780   3.106   4.051   2.290
11946TIP3    H135781   3.152   3.972   2.262
11946TIP3    H235782   3.171   4.099   2.342
11947TIP3   OH235783   1.431   3.838   5.593
11947TIP3    H135784   1.507   3.825   5.536
11947TIP3    H235785   1.466   3.830   5.682
11948TIP3   OH235786   1.006   6.392   3.129
11948TIP3    H135787   0.933   6.403   3.190
11948TIP3    H235788   1.012   6.297   3.115
11949TIP3   OH235789   4.451   0.634   1.220
11949TIP3    H135790   4.405   0.714   1.192
11949TIP3    H235791   4.514   0.617   1.150
11950TIP3   OH235792   6.213   3.498   3.179
11950TIP3    H135793   6.248   3.431   3.121
11950TIP3    H235794   6.211   3.455   3.265
11951TIP3   OH235795   6.334   0.903   5.252
11951TIP3    H135796   6.302   0.875   5.338
11951TIP3    H235797   6.429   0.895   5.259
11952TIP3   OH235798   2.508   6.477   2.164
11952TIP3    H135799   2.563   6.422   2.108
11952TIP3    H235800   2.560   6.491   2.243
11953TIP3   OH235801   0.741   1.905   2.282
11953TIP3    H135802   0.752   1.871   2.371
11953TIP3    H235803   0.822   1.883   2.238
11954TIP3   OH235804   0.873   2.277   3.317
11954TIP3    H135805   0.867   2.330   3.238
11954TIP3    H235806   0.796   2.220   3.314
11955TIP3   OH235807   6.488   1.187   6.151
11955TIP3    H135808   6.426   1.119   6.127
11955TIP3    H235809   6.479   1.254   6.082
11956TIP3   OH235810   0.994   3.206   6.346
11956TIP3    H135811   0.984   3.112   6.330
11956TIP3    H235812   0.929   3.226   6.413
11957TIP3   OH235813   3.164   7.726   1.414
11957TIP3    H135814   3.198   7.701   1.500
11957TIP3    H235815   3.090   7.783   1.434
11958TIP3   OH235816   3.706   1.745   4.730
11958TIP3    H135817   3.802   1.747   4.728
11958TIP3    H235818   3.681   1.697   4.651
11959TIP3   OH235819   4.675   3.597   6.332
11959TIP3    H135820   4.638   3.530   6.389
11959TIP3    H235821   4.650   3.570   6.244
11960TIP3   OH235822   3.499   7.335   5.177
11960TIP3    H135823   3.403   7.338   5.170
11960TIP3    H235824   3.518   7.243   5.195
11961TIP3   OH235825   0.447   1.295   1.543
11961TIP3    H135826   0.534   1.259   1.529
11961TIP3    H235827   0.451   1.383   1.504
11962TIP3   OH235828   6.528   2.583   4.253
11962TIP3    H135829   6.572   2.505   4.288
11962TIP3    H235830   6.483   2.552   4.175
11963TIP3   OH235831   4.143   4.769   6.304
11963TIP3    H135832   4.049   4.753   6.303
11963TIP3    H235833   4.157   4.835   6.237
11964TIP3   OH235834   2.192   7.285   5.433
11964TIP3    H135835   2.097   7.289   5.427
11964TIP3    H235836   2.213   7.193   5.413
11965TIP3   OH235837   7.685   5.744   4.394
11965TIP3    H135838   7.685   5.757   4.488
11965TIP3    H235839   7.777   5.738   4.370
11966TIP3   OH235840   6.356   7.741   2.351
11966TIP3    H135841   6.375   7.707   2.263
11966TIP3    H235842   6.272   7.786   2.342
11967TIP3   OH235843   2.476   5.971   6.164
11967TIP3    H135844   2.418   6.044   6.185
11967TIP3    H235845   2.458   5.952   6.071
11968TIP3   OH235846   3.067   3.354   3.996
11968TIP3    H135847   3.116   3.423   3.952
11968TIP3    H235848   3.128   3.280   4.001
11969TIP3   OH235849   2.991   4.726   3.668
11969TIP3    H135850   3.054   4.678   3.614
11969TIP3    H235851   3.017   4.818   3.658
11970TIP3   OH235852   2.093   6.132   2.771
11970TIP3    H135853   2.150   6.105   2.843
11970TIP3    H235854   2.070   6.050   2.727
11971TIP3   OH235855   6.782   4.506   6.371
11971TIP3    H135856   6.797   4.575   6.436
11971TIP3    H235857   6.856   4.447   6.381
11972TIP3   OH235858   3.706   0.711   5.541
11972TIP3    H135859   3.737   0.683   5.455
11972TIP3    H235860   3.613   0.692   5.541
11973TIP3   OH235861   1.572   5.472   3.909
11973TIP3    H135862   1.512   5.472   3.984
11973TIP3    H235863   1.535   5.407   3.849
11974TIP3   OH235864   3.443   5.113   6.688
11974TIP3    H135865   3.497   5.138   6.763
11974TIP3    H235866   3.353   5.134   6.716
11975TIP3   OH235867   3.866   4.722   6.295
11975TIP3    H135868   3.859   4.627   6.286
11975TIP3    H235869   3.804   4.757   6.230
11976TIP3   OH235870   0.600   5.924   2.847
11976TIP3    H135871   0.529   5.924   2.783
11976TIP3    H235872   0.601   5.834   2.881
11977TIP3   OH235873   3.917   3.653   2.714
11977TIP3    H135874   3.904   3.596   2.790
11977TIP3    H235875   4.007   3.684   2.722
11978TIP3   OH235876   0.632   3.253   0.729
11978TIP3    H135877   0.630   3.218   0.818
11978TIP3    H235878   0.596   3.341   0.737
11979TIP3   OH235879   1.176   2.461   3.011
11979TIP3    H135880   1.199   2.508   3.092
11979TIP3    H235881   1.252   2.473   2.954
11980TIP3   OH235882   0.687   4.195   4.331
11980TIP3    H135883   0.634   4.273   4.345
11980TIP3    H235884   0.747   4.192   4.406
11981TIP3   OH235885   2.587   3.960   1.882
11981TIP3    H135886   2.612   3.926   1.797
11981TIP3    H235887   2.491   3.950   1.885
11982TIP3   OH235888   8.009   0.166   1.099
11982TIP3    H135889   8.023   0.195   1.189
11982TIP3    H235890   8.093   0.182   1.055
11983TIP3   OH235891   2.824   3.934   5.548
11983TIP3    H135892   2.799   3.996   5.479
11983TIP3    H235893   2.884   3.873   5.504
11984TIP3   OH235894   1.509   6.380   1.334
11984TIP3    H135895   1.497   6.451   1.397
11984TIP3    H235896   1.583   6.330   1.368
11985TIP3   OH235897   2.651   3.934   2.553
11985TIP3    H135898   2.588   3.909   2.621
11985TIP3    H235899   2.705   4.001   2.594
11986TIP3   OH235900   4.869   3.529   0.023
11986TIP3    H135901   4.797   3.481   0.063
11986TIP3    H235902   4.947   3.493   0.064
11987TIP3   OH235903   0.816   1.731   4.334
11987TIP3    H135904   0.773   1.739   4.248
11987TIP3    H235905   0.907   1.710   4.313
11988TIP3   OH235906   2.990   0.378   3.585
11988TIP3    H135907   3.074   0.351   3.624
11988TIP3    H235908   2.976   0.316   3.513
11989TIP3   OH235909   0.246   3.773   1.380
11989TIP3    H135910   0.197   3.733   1.452
11989TIP3    H235911   0.322   3.814   1.422
11990TIP3   OH235912   5.038   0.116   5.674
11990TIP3    H135913   5.125   0.106   5.634
11990TIP3    H235914   5.036   0.206   5.705
11991TIP3   OH235915   2.636   7.409   3.621
11991TIP3    H135916   2.694   7.423   3.696
11991TIP3    H235917   2.600   7.321   3.634
11992TIP3   OH235918   4.389   0.115   3.602
11992TIP3    H135919   4.316   0.055   3.619
11992TIP3    H235920   4.438   0.073   3.531
11993TIP3   OH235921   8.138   2.678   1.520
11993TIP3    H135922   8.187   2.687   1.438
11993TIP3    H235923   8.053   2.719   1.502
11994TIP3   OH235924   0.682   2.701   1.656
11994TIP3    H135925   0.615   2.765   1.630
11994TIP3    H235926   0.634   2.635   1.707
11995TIP3   OH235927   1.955   6.611   1.868
11995TIP3    H135928   1.959   6.551   1.793
11995TIP3    H235929   1.941   6.697   1.828
11996TIP3   OH235930   6.871   1.673   5.710
11996TIP3    H135931   6.906   1.762   5.722
11996TIP3    H235932   6.810   1.681   5.637
11997TIP3   OH235933   1.134   2.585   0.762
11997TIP3    H135934   1.098   2.505   0.723
11997TIP3    H235935   1.229   2.574   0.755
11998TIP3   OH235936   1.054   5.645   4.566
11998TIP3    H135937   1.129   5.615   4.516
11998TIP3    H235938   0.978   5.623   4.513
11999TIP3   OH235939   8.293   1.315   0.009
11999TIP3    H135940   8.224   1.260  -0.027
11999TIP3    H235941   8.318   1.373  -0.063
12000TIP3   OH235942   6.136   1.868   3.845
12000TIP3    H135943   6.128   1.957   3.881
12000TIP3    H235944   6.175   1.882   3.759
12001TIP3   OH235945   0.559   4.767   4.569
12001TIP3    H135946   0.467   4.743   4.563
12001TIP3    H235947   0.592   4.760   4.479
12002TIP3   OH235948   3.322   4.895   6.534
12002TIP3    H135949   3.412   4.894   6.500
12002TIP3    H235950   3.332   4.900   6.629
12003TIP3   OH235951   7.123   7.626   5.940
12003TIP3    H135952   7.042   7.646   5.893
12003TIP3    H235953   7.113   7.535   5.967
12004TIP3   OH235954   3.685   7.118   4.223
12004TIP3    H135955   3.718   7.091   4.309
12004TIP3    H235956   3.733   7.198   4.203
12005TIP3   OH235957   2.516   3.059   5.375
12005TIP3    H135958   2.466   3.057   5.294
12005TIP3    H235959   2.603   3.027   5.350
12006TIP3   OH235960   0.955   5.763   2.390
12006TIP3    H135961   0.911   5.804   2.315
12006TIP3    H235962   1.044   5.796   2.386
12007TIP3   OH235963   1.000   0.443   5.113
12007TIP3    H135964   0.980   0.536   5.126
12007TIP3    H235965   1.046   0.440   5.029
12008TIP3   OH235966   6.578   4.668   4.782
12008TIP3    H135967   6.511   4.659   4.850
12008TIP3    H235968   6.638   4.595   4.799
12009TIP3   OH235969   5.930   1.821   5.003
12009TIP3    H135970   5.926   1.910   4.970
12009TIP3    H235971   5.860   1.775   4.958
12010TIP3   OH235972   2.744   4.138   1.051
12010TIP3    H135973   2.771   4.071   0.988
12010TIP3    H235974   2.663   4.173   1.015
12011TIP3   OH235975   5.965   4.367   3.415
12011TIP3    H135976   6.036   4.431   3.424
12011TIP3    H235977   5.946   4.339   3.505
12012TIP3   OH235978   3.092   6.659   4.525
12012TIP3    H135979   3.151   6.677   4.599
12012TIP3    H235980   3.076   6.745   4.487
12013TIP3   OH235981   6.812   7.244   5.065
12013TIP3    H135982   6.895   7.270   5.024
12013TIP3    H235983   6.839   7.195   5.143
12014TIP3   OH235984   1.954   1.754   3.891
12014TIP3    H135985   1.878   1.696   3.894
12014TIP3    H235986   1.944   1.810   3.969
12015TIP3   OH235987   4.913   6.785   5.766
12015TIP3    H135988   5.004   6.755   5.768
12015TIP3    H235989   4.916   6.871   5.724
12016TIP3   OH235990   8.182   4.012   3.922
12016TIP3    H135991   8.165   3.997   3.829
12016TIP3    H235992   8.095   4.026   3.960
12017TIP3   OH235993   4.923   7.602   3.185
12017TIP3    H135994   4.860   7.674   3.192
12017TIP3    H235995   5.008   7.645   3.179
12018TIP3   OH235996   1.773   6.644   5.045
12018TIP3    H135997   1.856   6.674   5.009
12018TIP3    H235998   1.796   6.599   5.126
12019TIP3   OH235999   4.207   2.222   0.456
12019TIP3    H136000   4.201   2.268   0.539
12019TIP3    H236001   4.188   2.289   0.390
12020TIP3   OH236002   4.678   3.976   1.473
12020TIP3    H136003   4.664   4.053   1.419
12020TIP3    H236004   4.706   4.010   1.557
12021TIP3   OH236005   6.439   5.257   1.172
12021TIP3    H136006   6.419   5.165   1.191
12021TIP3    H236007   6.527   5.254   1.134
12022TIP3   OH236008   8.104   0.553   6.444
12022TIP3    H136009   8.036   0.621   6.440
12022TIP3    H236010   8.065   0.484   6.498
12023TIP3   OH236011   0.639   0.324   6.382
12023TIP3    H136012   0.550   0.288   6.375
12023TIP3    H236013   0.666   0.340   6.292
12024TIP3   OH236014   6.884   6.939   5.493
12024TIP3    H136015   6.910   6.975   5.578
12024TIP3    H236016   6.860   6.849   5.512
12025TIP3   OH236017   6.345   2.387   0.234
12025TIP3    H136018   6.377   2.302   0.263
12025TIP3    H236019   6.422   2.428   0.193
12026TIP3   OH236020   2.731   6.631   3.067
12026TIP3    H136021   2.677   6.566   3.112
12026TIP3    H236022   2.686   6.714   3.081
12027TIP3   OH236023   5.181   5.782   3.635
12027TIP3    H136024   5.276   5.772   3.629
12027TIP3    H236025   5.146   5.695   3.619
12028TIP3   OH236026   7.595   0.369   1.268
12028TIP3    H136027   7.553   0.310   1.331
12028TIP3    H236028   7.636   0.437   1.323
12029TIP3   OH236029   4.772   5.056   3.416
12029TIP3    H136030   4.839   4.996   3.448
12029TIP3    H236031   4.727   5.086   3.495
12030TIP3   OH236032   3.743   6.814   3.289
12030TIP3    H136033   3.693   6.777   3.362
12030TIP3    H236034   3.830   6.832   3.325
12031TIP3   OH236035   4.669   3.866   0.623
12031TIP3    H136036   4.672   3.856   0.718
12031TIP3    H236037   4.589   3.916   0.607
12032TIP3   OH236038   3.289   5.076   2.948
12032TIP3    H136039   3.279   4.983   2.970
12032TIP3    H236040   3.237   5.086   2.868
12033TIP3   OH236041   0.564   6.019   6.444
12033TIP3    H136042   0.485   5.973   6.416
12033TIP3    H236043   0.596   6.063   6.365
12034TIP3   OH236044   6.318   2.551   2.091
12034TIP3    H136045   6.371   2.562   2.169
12034TIP3    H236046   6.336   2.630   2.039
12035TIP3   OH236047   2.549   1.350   5.757
12035TIP3    H136048   2.598   1.284   5.708
12035TIP3    H236049   2.503   1.302   5.825
12036TIP3   OH236050   7.674   0.843   3.174
12036TIP3    H136051   7.603   0.797   3.131
12036TIP3    H236052   7.742   0.777   3.186
12037TIP3   OH236053   5.845   3.836   0.921
12037TIP3    H136054   5.896   3.906   0.881
12037TIP3    H236055   5.867   3.841   1.014
12038TIP3   OH236056   1.441   5.650   0.497
12038TIP3    H136057   1.443   5.622   0.405
12038TIP3    H236058   1.432   5.569   0.547
12039TIP3   OH236059   6.131   0.172   0.092
12039TIP3    H136060   6.082   0.145   0.014
12039TIP3    H236061   6.223   0.159   0.068
12040TIP3   OH236062   4.260   4.983   0.109
12040TIP3    H136063   4.258   5.077   0.129
12040TIP3    H236064   4.179   4.968   0.061
12041TIP3   OH236065   1.307   6.529   3.686
12041TIP3    H136066   1.213   6.520   3.700
12041TIP3    H236067   1.315   6.580   3.605
12042TIP3   OH236068   7.747   2.021   1.962
12042TIP3    H136069   7.817   2.045   1.901
12042TIP3    H236070   7.771   1.934   1.993
12043TIP3   OH236071   6.592   0.287   6.395
12043TIP3    H136072   6.611   0.346   6.468
12043TIP3    H236073   6.520   0.232   6.427
12044TIP3   OH236074   8.113   2.376  -0.047
12044TIP3    H136075   8.095   2.288  -0.015
12044TIP3    H236076   8.189   2.405   0.003
12045TIP3   OH236077   0.531   7.678   0.685
12045TIP3    H136078   0.469   7.651   0.752
12045TIP3    H236079   0.553   7.596   0.639
12046TIP3   OH236080   7.429   0.336   4.923
12046TIP3    H136081   7.480   0.256   4.912
12046TIP3    H236082   7.486   0.406   4.890
12047TIP3   OH236083   5.334   7.805   2.033
12047TIP3    H136084   5.311   7.870   1.966
12047TIP3    H236085   5.319   7.721   1.990
12048TIP3   OH236086   2.316   7.110   6.671
12048TIP3    H136087   2.395   7.065   6.640
12048TIP3    H236088   2.340   7.203   6.668
12049TIP3   OH236089   6.840   6.235   5.354
12049TIP3    H136090   6.922   6.239   5.403
12049TIP3    H236091   6.772   6.249   5.421
12050TIP3   OH236092   3.611   6.961   5.190
12050TIP3    H136093   3.589   6.924   5.276
12050TIP3    H236094   3.702   6.990   5.199
12051TIP3   OH236095   4.608   4.439   0.366
12051TIP3    H136096   4.541   4.475   0.425
12051TIP3    H236097   4.639   4.361   0.410
12052TIP3   OH236098   1.494   1.282   6.490
12052TIP3    H136099   1.477   1.279   6.396
12052TIP3    H236100   1.564   1.347   6.500
12053TIP3   OH236101   5.691   4.608   6.259
12053TIP3    H136102   5.603   4.570   6.253
12053TIP3    H236103   5.681   4.698   6.227
12054TIP3   OH236104   6.647   1.868   0.143
12054TIP3    H136105   6.627   1.906   0.058
12054TIP3    H236106   6.585   1.910   0.203
12055TIP3   OH236107   7.874   0.306   4.977
12055TIP3    H136108   7.841   0.254   5.051
12055TIP3    H236109   7.909   0.385   5.018
12056TIP3   OH236110   7.973   5.364   2.466
12056TIP3    H136111   7.890   5.317   2.468
12056TIP3    H236112   8.020   5.326   2.392
12057TIP3   OH236113   0.141   7.790   5.365
12057TIP3    H136114   0.083   7.806   5.440
12057TIP3    H236115   0.224   7.830   5.391
12058TIP3   OH236116   5.861   4.939   2.338
12058TIP3    H136117   5.910   5.003   2.391
12058TIP3    H236118   5.802   4.897   2.400
12059TIP3   OH236119   7.423   1.402   0.238
12059TIP3    H136120   7.473   1.349   0.301
12059TIP3    H236121   7.335   1.365   0.241
12060TIP3   OH236122   7.876   7.091   1.195
12060TIP3    H136123   7.788   7.119   1.219
12060TIP3    H236124   7.867   6.999   1.172
12061TIP3   OH236125   5.924   3.290   4.100
12061TIP3    H136126   5.868   3.244   4.038
12061TIP3    H236127   5.893   3.381   4.098
12062TIP3   OH236128   3.878   7.793   3.379
12062TIP3    H136129   3.907   7.744   3.456
12062TIP3    H236130   3.951   7.785   3.317
12063TIP3   OH236131   5.660   2.849   1.132
12063TIP3    H136132   5.646   2.941   1.107
12063TIP3    H236133   5.588   2.829   1.191
12064TIP3   OH236134   7.891   4.225   2.505
12064TIP3    H136135   7.840   4.252   2.429
12064TIP3    H236136   7.888   4.129   2.504
12065TIP3   OH236137   6.932   2.780   3.604
12065TIP3    H136138   6.900   2.757   3.517
12065TIP3    H236139   7.016   2.823   3.587
12066TIP3   OH236140   1.957   0.790   5.794
12066TIP3    H136141   1.908   0.871   5.779
12066TIP3    H236142   1.891   0.728   5.828
12067TIP3   OH236143   5.317   6.734   1.450
12067TIP3    H136144   5.328   6.824   1.480
12067TIP3    H236145   5.389   6.686   1.492
12068TIP3   OH236146   0.457   6.143   2.868
12068TIP3    H136147   0.497   6.056   2.873
12068TIP3    H236148   0.487   6.188   2.947
12069TIP3   OH236149   6.427   2.282   5.777
12069TIP3    H136150   6.470   2.197   5.789
12069TIP3    H236151   6.474   2.341   5.836
12070TIP3   OH236152   0.769   0.678   0.680
12070TIP3    H136153   0.762   0.708   0.771
12070TIP3    H236154   0.694   0.716   0.636
12071TIP3   OH236155   1.695   3.935   2.471
12071TIP3    H136156   1.627   3.898   2.527
12071TIP3    H236157   1.672   3.905   2.383
12072TIP3   OH236158   6.622   3.179   5.601
12072TIP3    H136159   6.547   3.156   5.656
12072TIP3    H236160   6.583   3.218   5.522
12073TIP3   OH236161   4.129   3.669   1.058
12073TIP3    H136162   4.064   3.611   1.096
12073TIP3    H236163   4.154   3.627   0.975
12074TIP3   OH236164   5.035   1.452   1.230
12074TIP3    H136165   5.005   1.362   1.235
12074TIP3    H236166   5.075   1.470   1.315
12075TIP3   OH236167   3.580   4.005   5.267
12075TIP3    H136168   3.546   3.926   5.309
12075TIP3    H236169   3.664   3.978   5.230
12076TIP3   OH236170   6.617   5.473   5.255
12076TIP3    H136171   6.528   5.480   5.221
12076TIP3    H236172   6.657   5.403   5.204
12077TIP3   OH236173   3.461   0.959   0.823
12077TIP3    H136174   3.529   0.995   0.765
12077TIP3    H236175   3.482   0.866   0.828
12078TIP3   OH236176   4.493   1.461   0.410
12078TIP3    H136177   4.498   1.450   0.505
12078TIP3    H236178   4.422   1.524   0.397
12079TIP3   OH236179   0.780   4.733   2.090
12079TIP3    H136180   0.865   4.775   2.100
12079TIP3    H236181   0.801   4.642   2.066
12080TIP3   OH236182   3.394   4.568   4.369
12080TIP3    H136183   3.430   4.615   4.294
12080TIP3    H236184   3.370   4.482   4.333
12081TIP3   OH236185   6.806   7.086   1.548
12081TIP3    H136186   6.730   7.145   1.554
12081TIP3    H236187   6.789   7.019   1.615
12082TIP3   OH236188   2.690   5.752   3.362
12082TIP3    H136189   2.752   5.770   3.291
12082TIP3    H236190   2.615   5.807   3.343
12083TIP3   OH236191   4.717   5.021   5.156
12083TIP3    H136192   4.673   5.053   5.235
12083TIP3    H236193   4.687   5.081   5.087
12084TIP3   OH236194   0.122   6.894   6.188
12084TIP3    H136195   0.100   6.814   6.141
12084TIP3    H236196   0.202   6.925   6.146
12085TIP3   OH236197   6.718   0.380   3.074
12085TIP3    H136198   6.668   0.307   3.037
12085TIP3    H236199   6.654   0.430   3.125
12086TIP3   OH236200   3.189   1.168   3.680
12086TIP3    H136201   3.148   1.094   3.726
12086TIP3    H236202   3.215   1.227   3.751
12087TIP3   OH236203   4.301   2.288   5.888
12087TIP3    H136204   4.276   2.197   5.903
12087TIP3    H236205   4.302   2.297   5.793
12088TIP3   OH236206   1.598   4.402   4.755
12088TIP3    H136207   1.632   4.446   4.832
12088TIP3    H236208   1.647   4.439   4.682
12089TIP3   OH236209   3.193   1.978   2.742
12089TIP3    H136210   3.164   2.037   2.673
12089TIP3    H236211   3.254   2.030   2.794
12090TIP3   OH236212   5.498   2.873   3.260
12090TIP3    H136213   5.521   2.839   3.347
12090TIP3    H236214   5.513   2.967   3.266
12091TIP3   OH236215   1.406   0.165   3.602
12091TIP3    H136216   1.349   0.241   3.613
12091TIP3    H236217   1.358   0.092   3.642
12092TIP3   OH236218   2.157   0.251   5.468
12092TIP3    H136219   2.188   0.184   5.407
12092TIP3    H236220   2.217   0.325   5.454
12093TIP3   OH236221   5.284   1.768   2.432
12093TIP3    H136222   5.269   1.820   2.511
12093TIP3    H236223   5.221   1.803   2.368
12094TIP3   OH236224   3.335   7.735   2.292
12094TIP3    H136225   3.302   7.699   2.210
12094TIP3    H236226   3.271   7.803   2.316
12095TIP3   OH236227   2.465   6.460   6.339
12095TIP3    H136228   2.530   6.521   6.376
12095TIP3    H236229   2.514   6.412   6.271
12096TIP3   OH236230   7.100   0.675   5.510
12096TIP3    H136231   7.090   0.766   5.481
12096TIP3    H236232   7.015   0.635   5.494
12097TIP3   OH236233   1.795   4.736   3.465
12097TIP3    H136234   1.856   4.786   3.412
12097TIP3    H236235   1.753   4.800   3.522
12098TIP3   OH236236   5.195   0.574   0.605
12098TIP3    H136237   5.166   0.656   0.645
12098TIP3    H236238   5.182   0.588   0.511
12099TIP3   OH236239   8.216   4.642   2.449
12099TIP3    H136240   8.215   4.560   2.499
12099TIP3    H236241   8.175   4.706   2.507
12100TIP3   OH236242   1.289   3.827   2.709
12100TIP3    H136243   1.203   3.801   2.676
12100TIP3    H236244   1.295   3.788   2.796
12101TIP3   OH236245   2.308   2.643   5.589
12101TIP3    H136246   2.248   2.700   5.541
12101TIP3    H236247   2.259   2.562   5.601
12102TIP3   OH236248   4.029   3.864   5.424
12102TIP3    H136249   4.017   3.873   5.330
12102TIP3    H236250   4.031   3.953   5.457
12103TIP3   OH236251   1.183   1.305   5.262
12103TIP3    H136252   1.244   1.254   5.208
12103TIP3    H236253   1.110   1.246   5.278
12104TIP3   OH236254   1.414   4.338   0.251
12104TIP3    H136255   1.398   4.426   0.285
12104TIP3    H236256   1.474   4.298   0.314
12105TIP3   OH236257   6.413   1.800   4.740
12105TIP3    H136258   6.333   1.769   4.783
12105TIP3    H236259   6.452   1.720   4.703
12106TIP3   OH236260   6.064   3.121   3.609
12106TIP3    H136261   5.978   3.158   3.625
12106TIP3    H236262   6.087   3.076   3.690
12107TIP3   OH236263   3.241   3.298   4.744
12107TIP3    H136264   3.240   3.244   4.665
12107TIP3    H236265   3.331   3.292   4.776
12108TIP3   OH236266   0.716   4.914   1.091
12108TIP3    H136267   0.676   4.971   1.025
12108TIP3    H236268   0.646   4.855   1.118
12109TIP3   OH236269   4.714   5.372   1.429
12109TIP3    H136270   4.694   5.345   1.519
12109TIP3    H236271   4.808   5.388   1.429
12110TIP3   OH236272   3.376   4.325   2.120
12110TIP3    H136273   3.445   4.263   2.096
12110TIP3    H236274   3.308   4.313   2.053
12111TIP3   OH236275   3.124   6.393   3.326
12111TIP3    H136276   3.066   6.394   3.402
12111TIP3    H236277   3.128   6.484   3.298
12112TIP3   OH236278   6.907   2.932   0.371
12112TIP3    H136279   6.981   2.992   0.379
12112TIP3    H236280   6.880   2.913   0.461
12113TIP3   OH236281   4.021   1.084   5.257
12113TIP3    H136282   4.071   1.166   5.265
12113TIP3    H236283   3.939   1.102   5.302
12114TIP3   OH236284   0.492   7.751   3.654
12114TIP3    H136285   0.397   7.748   3.647
12114TIP3    H236286   0.522   7.789   3.571
12115TIP3   OH236287   7.654   4.778   6.022
12115TIP3    H136288   7.598   4.827   6.083
12115TIP3    H236289   7.624   4.805   5.935
12116TIP3   OH236290   8.033   2.040   1.913
12116TIP3    H136291   8.061   1.970   1.854
12116TIP3    H236292   8.025   2.117   1.856
12117TIP3   OH236293   2.895   5.559   6.792
12117TIP3    H136294   2.964   5.549   6.726
12117TIP3    H236295   2.815   5.576   6.742
12118TIP3   OH236296   6.728   5.028   0.776
12118TIP3    H136297   6.692   4.949   0.815
12118TIP3    H236298   6.671   5.047   0.702
12119TIP3   OH236299   1.161   1.681   3.470
12119TIP3    H136300   1.109   1.686   3.549
12119TIP3    H236301   1.179   1.772   3.447
12120TIP3   OH236302   3.866   0.400   6.509
12120TIP3    H136303   3.811   0.384   6.432
12120TIP3    H236304   3.925   0.325   6.512
12121TIP3   OH236305   8.225   6.395   4.232
12121TIP3    H136306   8.191   6.482   4.209
12121TIP3    H236307   8.148   6.345   4.257
12122TIP3   OH236308   7.595   6.014   0.487
12122TIP3    H136309   7.528   5.967   0.537
12122TIP3    H236310   7.561   6.103   0.480
12123TIP3   OH236311   6.012   4.471   1.056
12123TIP3    H136312   5.946   4.531   1.020
12123TIP3    H236313   6.090   4.526   1.068
12124TIP3   OH236314   5.728   5.311   0.063
12124TIP3    H136315   5.791   5.254   0.020
12124TIP3    H236316   5.690   5.258   0.133
12125TIP3   OH236317   1.759   6.712   3.186
12125TIP3    H136318   1.689   6.694   3.123
12125TIP3    H236319   1.840   6.690   3.139
12126TIP3   OH236320   7.226   6.257   4.061
12126TIP3    H136321   7.142   6.255   4.016
12126TIP3    H236322   7.203   6.268   4.154
12127TIP3   OH236323   3.537   6.430   6.631
12127TIP3    H136324   3.631   6.445   6.637
12127TIP3    H236325   3.528   6.346   6.587
12128TIP3   OH236326   3.834   7.501   2.750
12128TIP3    H136327   3.864   7.412   2.729
12128TIP3    H236328   3.741   7.490   2.770
12129TIP3   OH236329   5.847   6.366   3.875
12129TIP3    H136330   5.869   6.323   3.792
12129TIP3    H236331   5.931   6.380   3.918
12130TIP3   OH236332   6.013   7.219   6.664
12130TIP3    H136333   6.040   7.147   6.608
12130TIP3    H236334   6.087   7.232   6.725
12131TIP3   OH236335   3.428   3.861   0.562
12131TIP3    H136336   3.435   3.791   0.498
12131TIP3    H236337   3.411   3.939   0.510
12132TIP3   OH236338   7.858   5.018   1.114
12132TIP3    H136339   7.901   4.951   1.168
12132TIP3    H236340   7.842   4.974   1.031
12133TIP3   OH236341   3.780   0.905   4.902
12133TIP3    H136342   3.716   0.865   4.959
12133TIP3    H236343   3.756   0.876   4.814
12134TIP3   OH236344   5.759   1.607   3.780
12134TIP3    H136345   5.786   1.527   3.825
12134TIP3    H236346   5.823   1.618   3.710
12135TIP3   OH236347   7.547   3.521   1.610
12135TIP3    H136348   7.465   3.489   1.649
12135TIP3    H236349   7.555   3.472   1.528
12136TIP3   OH236350   1.215   7.080   5.676
12136TIP3    H136351   1.123   7.086   5.700
12136TIP3    H236352   1.222   6.996   5.629
12137TIP3   OH236353   4.103   5.071   2.634
12137TIP3    H136354   4.177   5.069   2.573
12137TIP3    H236355   4.132   5.129   2.705
12138TIP3   OH236356   8.256   7.640   3.692
12138TIP3    H136357   8.168   7.609   3.713
12138TIP3    H236358   8.283   7.688   3.770
12139TIP3   OH236359   4.005   3.313   2.306
12139TIP3    H136360   3.911   3.298   2.316
12139TIP3    H236361   4.043   3.226   2.304
12140TIP3   OH236362   2.608   2.701   1.972
12140TIP3    H136363   2.607   2.796   1.986
12140TIP3    H236364   2.634   2.690   1.881
12141TIP3   OH236365   6.470   4.598   3.900
12141TIP3    H136366   6.470   4.566   3.990
12141TIP3    H236367   6.378   4.618   3.882
12142TIP3   OH236368   2.250   0.136   5.726
12142TIP3    H136369   2.206   0.135   5.641
12142TIP3    H236370   2.178   0.144   5.789
12143TIP3   OH236371   8.021   5.019   3.836
12143TIP3    H136372   7.986   4.981   3.916
12143TIP3    H236373   7.972   5.100   3.824
12144TIP3   OH236374   3.784   2.364   2.587
12144TIP3    H136375   3.746   2.358   2.499
12144TIP3    H236376   3.803   2.274   2.611
12145TIP3   OH236377   5.771   0.725   1.298
12145TIP3    H136378   5.863   0.698   1.301
12145TIP3    H236379   5.723   0.651   1.335
12146TIP3   OH236380   0.293   3.050   5.338
12146TIP3    H136381   0.240   2.982   5.379
12146TIP3    H236382   0.354   3.078   5.407
12147TIP3   OH236383   7.963   4.569   5.813
12147TIP3    H136384   7.874   4.538   5.825
12147TIP3    H236385   8.013   4.524   5.881
12148TIP3   OH236386   7.323   3.540   6.490
12148TIP3    H136387   7.326   3.532   6.394
12148TIP3    H236388   7.236   3.507   6.513
12149TIP3   OH236389   6.430   1.216   0.573
12149TIP3    H136390   6.482   1.150   0.618
12149TIP3    H236391   6.433   1.190   0.481
12150TIP3   OH236392   8.155   0.274   5.748
12150TIP3    H136393   8.236   0.291   5.796
12150TIP3    H236394   8.086   0.297   5.810
12151TIP3   OH236395   3.933   4.100   1.414
12151TIP3    H136396   3.968   4.073   1.329
12151TIP3    H236397   3.849   4.053   1.421
12152TIP3   OH236398   8.169   2.678   4.397
12152TIP3    H136399   8.158   2.655   4.305
12152TIP3    H236400   8.106   2.749   4.412
12153TIP3   OH236401   1.368   1.274   0.509
12153TIP3    H136402   1.325   1.211   0.566
12153TIP3    H236403   1.449   1.297   0.555
12154TIP3   OH236404   7.209   2.505   2.843
12154TIP3    H136405   7.217   2.568   2.915
12154TIP3    H236406   7.228   2.556   2.764
12155TIP3   OH236407   4.943   2.612   3.111
12155TIP3    H136408   4.989   2.654   3.038
12155TIP3    H236409   5.012   2.566   3.160
12156TIP3   OH236410   3.145   7.100   6.738
12156TIP3    H136411   3.180   7.131   6.821
12156TIP3    H236412   3.190   7.016   6.724
12157TIP3   OH236413   0.399   0.982   5.084
12157TIP3    H136414   0.437   0.906   5.127
12157TIP3    H236415   0.339   0.945   5.019
12158TIP3   OH236416   8.054   2.344   2.041
12158TIP3    H136417   8.092   2.412   1.985
12158TIP3    H236418   8.078   2.370   2.130
12159TIP3   OH236419   6.925   5.670   6.609
12159TIP3    H136420   7.001   5.622   6.574
12159TIP3    H236421   6.964   5.735   6.667
12160TIP3   OH236422   0.300   3.404   4.779
12160TIP3    H136423   0.296   3.447   4.864
12160TIP3    H236424   0.228   3.444   4.729
12161TIP3   OH236425   7.479   6.554   6.402
12161TIP3    H136426   7.472   6.597   6.488
12161TIP3    H236427   7.573   6.556   6.382
12162TIP3   OH236428   2.676   2.772   5.465
12162TIP3    H136429   2.645   2.705   5.404
12162TIP3    H236430   2.598   2.798   5.514
12163TIP3   OH236431   2.056   0.071   2.910
12163TIP3    H136432   2.021  -0.009   2.870
12163TIP3    H236433   2.022   0.070   3.000
12164TIP3   OH236434   5.225   4.905   3.070
12164TIP3    H136435   5.183   4.872   3.149
12164TIP3    H236436   5.301   4.849   3.058
12165TIP3   OH236437   6.412   7.024   3.962
12165TIP3    H136438   6.349   6.984   4.022
12165TIP3    H236439   6.400   6.976   3.880
12166TIP3   OH236440   0.394   6.005   2.056
12166TIP3    H136441   0.321   5.959   2.097
12166TIP3    H236442   0.378   5.997   1.962
12167TIP3   OH236443   4.070   6.880   2.914
12167TIP3    H136444   4.067   6.793   2.954
12167TIP3    H236445   4.158   6.886   2.876
12168TIP3   OH236446   0.862   4.682   5.044
12168TIP3    H136447   0.928   4.743   5.012
12168TIP3    H236448   0.784   4.700   4.991
12169TIP3   OH236449   6.576   0.488   2.476
12169TIP3    H136450   6.593   0.453   2.563
12169TIP3    H236451   6.607   0.579   2.480
12170TIP3   OH236452   1.062   0.892   5.780
12170TIP3    H136453   1.124   0.829   5.743
12170TIP3    H236454   1.105   0.977   5.769
12171TIP3   OH236455   5.386   5.841   3.286
12171TIP3    H136456   5.440   5.920   3.274
12171TIP3    H236457   5.298   5.868   3.260
12172TIP3   OH236458   3.252   3.766   5.743
12172TIP3    H136459   3.200   3.691   5.714
12172TIP3    H236460   3.268   3.816   5.664
12173TIP3   OH236461   2.064   1.499   4.271
12173TIP3    H136462   1.998   1.523   4.206
12173TIP3    H236463   2.108   1.423   4.233
12174TIP3   OH236464   6.771   1.610   4.170
12174TIP3    H136465   6.741   1.620   4.080
12174TIP3    H236466   6.735   1.525   4.198
12175TIP3   OH236467   5.568   6.956   2.150
12175TIP3    H136468   5.621   6.956   2.230
12175TIP3    H236469   5.523   7.040   2.151
12176TIP3   OH236470   4.671   6.141   0.047
12176TIP3    H136471   4.725   6.095  -0.017
12176TIP3    H236472   4.679   6.089   0.127
12177TIP3   OH236473   0.424   3.859   4.652
12177TIP3    H136474   0.514   3.865   4.685
12177TIP3    H236475   0.370   3.894   4.722
12178TIP3   OH236476   6.157   2.660   0.860
12178TIP3    H136477   6.183   2.713   0.785
12178TIP3    H236478   6.121   2.723   0.922
12179TIP3   OH236479   5.135   2.428   5.013
12179TIP3    H136480   5.101   2.501   5.064
12179TIP3    H236481   5.125   2.455   4.922
12180TIP3   OH236482   8.025   4.192   2.098
12180TIP3    H136483   8.060   4.273   2.060
12180TIP3    H236484   7.972   4.154   2.028
12181TIP3   OH236485   8.100   0.126   6.180
12181TIP3    H136486   8.081   0.038   6.212
12181TIP3    H236487   8.173   0.157   6.235
12182TIP3   OH236488   6.849   3.620   2.321
12182TIP3    H136489   6.755   3.640   2.320
12182TIP3    H236490   6.855   3.535   2.365
12183TIP3   OH236491   3.972   5.045   1.514
12183TIP3    H136492   3.895   5.101   1.512
12183TIP3    H236493   4.031   5.087   1.577
12184TIP3   OH236494   5.656   4.251   3.531
12184TIP3    H136495   5.735   4.196   3.521
12184TIP3    H236496   5.688   4.332   3.570
12185TIP3   OH236497   0.485   6.849   1.403
12185TIP3    H136498   0.411   6.893   1.362
12185TIP3    H236499   0.522   6.794   1.334
12186TIP3   OH236500   3.123   2.705  -0.043
12186TIP3    H136501   3.216   2.723  -0.030
12186TIP3    H236502   3.097   2.656   0.035
12187TIP3   OH236503   4.521   7.134   3.772
12187TIP3    H136504   4.569   7.189   3.833
12187TIP3    H236505   4.584   7.112   3.703
12188TIP3   OH236506   8.108   5.356   2.713
12188TIP3    H136507   8.154   5.440   2.712
12188TIP3    H236508   8.047   5.362   2.639
12189TIP3   OH236509   6.769   1.916   3.600
12189TIP3    H136510   6.787   1.935   3.508
12189TIP3    H236511   6.713   1.988   3.629
12190TIP3   OH236512   1.815  -0.023   0.016
12190TIP3    H136513   1.858   0.040  -0.042
12190TIP3    H236514   1.845   0.001   0.104
12191TIP3   OH236515   0.545   2.598   2.359
12191TIP3    H136516   0.630   2.633   2.332
12191TIP3    H236517   0.564   2.551   2.440
12192TIP3   OH236518   7.232   6.973   4.664
12192TIP3    H136519   7.155   6.928   4.697
12192TIP3    H236520   7.305   6.936   4.714
12193TIP3   OH236521   5.163   3.835   5.722
12193TIP3    H136522   5.113   3.772   5.774
12193TIP3    H236523   5.096   3.891   5.681
12194TIP3   OH236524   1.551   0.683   3.799
12194TIP3    H136525   1.621   0.620   3.783
12194TIP3    H236526   1.569   0.716   3.887
12195TIP3   OH236527   4.117   1.670   2.587
12195TIP3    H136528   4.107   1.691   2.494
12195TIP3    H236529   4.200   1.710   2.612
12196TIP3   OH236530   2.935   3.767   2.121
12196TIP3    H136531   2.900   3.769   2.210
12196TIP3    H236532   2.957   3.858   2.102
12197TIP3   OH236533   8.208   5.150   5.164
12197TIP3    H136534   8.127   5.197   5.183
12197TIP3    H236535   8.180   5.059   5.153
12198TIP3   OH236536   5.288   4.666   5.101
12198TIP3    H136537   5.233   4.737   5.068
12198TIP3    H236538   5.345   4.644   5.027
12199TIP3   OH236539   6.016   3.758   6.497
12199TIP3    H136540   6.106   3.768   6.526
12199TIP3    H236541   5.964   3.758   6.578
12200TIP3   OH236542   3.639   0.415   4.503
12200TIP3    H136543   3.708   0.382   4.446
12200TIP3    H236544   3.686   0.443   4.582
12201TIP3   OH236545   5.186   3.781   1.174
12201TIP3    H136546   5.106   3.728   1.181
12201TIP3    H236547   5.256   3.717   1.158
12202TIP3   OH236548   6.265   7.099   2.935
12202TIP3    H136549   6.252   7.193   2.923
12202TIP3    H236550   6.359   7.087   2.923
12203TIP3   OH236551   6.068   4.588   5.427
12203TIP3    H136552   6.017   4.669   5.438
12203TIP3    H236553   6.151   4.606   5.472
12204TIP3   OH236554   6.343   4.472   1.197
12204TIP3    H136555   6.351   4.566   1.183
12204TIP3    H236556   6.402   4.433   1.132
12205TIP3   OH236557   6.353   1.358   3.487
12205TIP3    H136558   6.277   1.360   3.429
12205TIP3    H236559   6.315   1.350   3.575
12206TIP3   OH236560   5.994   2.222   4.505
12206TIP3    H136561   6.082   2.186   4.518
12206TIP3    H236562   5.941   2.147   4.477
12207TIP3   OH236563   6.475   7.432   0.391
12207TIP3    H136564   6.558   7.418   0.437
12207TIP3    H236565   6.410   7.390   0.447
12208TIP3   OH236566   2.163   7.188   4.622
12208TIP3    H136567   2.206   7.147   4.697
12208TIP3    H236568   2.172   7.124   4.551
12209TIP3   OH236569   1.213   3.791   3.374
12209TIP3    H136570   1.281   3.731   3.344
12209TIP3    H236571   1.203   3.853   3.302
12210TIP3   OH236572   4.931   3.751   6.639
12210TIP3    H136573   4.861   3.794   6.590
12210TIP3    H236574   5.001   3.816   6.644
12211TIP3   OH236575   8.166   3.395   4.800
12211TIP3    H136576   8.244   3.410   4.854
12211TIP3    H236577   8.184   3.441   4.719
12212TIP3   OH236578   8.135   0.882   6.463
12212TIP3    H136579   8.053   0.881   6.414
12212TIP3    H236580   8.109   0.897   6.554
12213TIP3   OH236581   5.613   2.285   5.196
12213TIP3    H136582   5.632   2.198   5.160
12213TIP3    H236583   5.525   2.305   5.164
12214TIP3   OH236584   2.576   2.584   3.756
12214TIP3    H136585   2.550   2.670   3.721
12214TIP3    H236586   2.495   2.548   3.793
12215TIP3   OH236587   7.432   6.435   1.542
12215TIP3    H136588   7.468   6.455   1.455
12215TIP3    H236589   7.339   6.418   1.526
12216TIP3   OH236590   5.314   4.620   6.650
12216TIP3    H136591   5.307   4.613   6.745
12216TIP3    H236592   5.364   4.543   6.624
12217TIP3   OH236593   5.889   5.916   4.631
12217TIP3    H136594   5.899   5.913   4.726
12217TIP3    H236595   5.796   5.933   4.617
12218TIP3   OH236596   5.289   4.563   1.524
12218TIP3    H136597   5.331   4.610   1.452
12218TIP3    H236598   5.198   4.552   1.496
12219TIP3   OH236599   1.270   3.600   0.634
12219TIP3    H136600   1.176   3.612   0.649
12219TIP3    H236601   1.284   3.506   0.644
12220TIP3   OH236602   6.428   4.988   0.908
12220TIP3    H136603   6.461   5.076   0.888
12220TIP3    H236604   6.417   4.946   0.823
12221TIP3   OH236605   3.721   1.220   1.658
12221TIP3    H136606   3.639   1.171   1.666
12221TIP3    H236607   3.772   1.171   1.593
12222TIP3   OH236608   0.179   2.742   2.031
12222TIP3    H136609   0.257   2.688   2.043
12222TIP3    H236610   0.110   2.695   2.078
12223TIP3   OH236611   4.283   1.740   0.789
12223TIP3    H136612   4.331   1.750   0.707
12223TIP3    H236613   4.293   1.824   0.833
12224TIP3   OH236614   8.229   1.446   4.189
12224TIP3    H136615   8.299   1.433   4.253
12224TIP3    H236616   8.185   1.362   4.183
12225TIP3   OH236617   4.176   1.343   5.273
12225TIP3    H136618   4.209   1.334   5.184
12225TIP3    H236619   4.207   1.429   5.302
12226TIP3   OH236620   1.174   1.922   5.967
12226TIP3    H136621   1.143   1.997   5.917
12226TIP3    H236622   1.143   1.938   6.056
12227TIP3   OH236623   0.994   5.332   4.428
12227TIP3    H136624   0.992   5.307   4.521
12227TIP3    H236625   0.971   5.252   4.381
12228TIP3   OH236626   2.486   2.344   4.664
12228TIP3    H136627   2.476   2.261   4.617
12228TIP3    H236628   2.404   2.355   4.711
12229TIP3   OH236629   6.440   4.906   3.659
12229TIP3    H136630   6.472   4.984   3.613
12229TIP3    H236631   6.345   4.917   3.660
12230TIP3   OH236632   4.182   1.007   5.918
12230TIP3    H136633   4.102   0.956   5.930
12230TIP3    H236634   4.213   0.982   5.831
12231TIP3   OH236635   8.057   6.090   5.713
12231TIP3    H136636   7.967   6.056   5.707
12231TIP3    H236637   8.055   6.170   5.661
12232TIP3   OH236638   8.213   7.554   4.522
12232TIP3    H136639   8.302   7.587   4.534
12232TIP3    H236640   8.218   7.461   4.546
12233TIP3   OH236641   4.282   1.522   0.955
12233TIP3    H136642   4.264   1.592   0.892
12233TIP3    H236643   4.207   1.464   0.949
12234TIP3   OH236644   5.118   7.262   5.834
12234TIP3    H136645   5.065   7.264   5.913
12234TIP3    H236646   5.157   7.349   5.829
12235TIP3   OH236647   6.529   2.066   2.804
12235TIP3    H136648   6.583   2.141   2.777
12235TIP3    H236649   6.591   2.004   2.842
12236TIP3   OH236650   6.261   4.229   4.729
12236TIP3    H136651   6.283   4.264   4.815
12236TIP3    H236652   6.341   4.241   4.677
12237TIP3   OH236653   1.184   0.673   5.032
12237TIP3    H136654   1.248   0.719   4.977
12237TIP3    H236655   1.137   0.742   5.078
12238TIP3   OH236656   8.096   6.432   6.334
12238TIP3    H136657   8.184   6.412   6.302
12238TIP3    H236658   8.043   6.357   6.307
12239TIP3   OH236659   1.521   3.951   6.276
12239TIP3    H136660   1.568   4.001   6.342
12239TIP3    H236661   1.481   3.878   6.324
12240TIP3   OH236662   4.655   7.338   3.935
12240TIP3    H136663   4.727   7.381   3.982
12240TIP3    H236664   4.577   7.383   3.966
12241TIP3   OH236665   2.300   5.089   6.614
12241TIP3    H136666   2.358   5.030   6.663
12241TIP3    H236667   2.332   5.084   6.524
12242TIP3   OH236668   8.116   2.847   5.545
12242TIP3    H136669   8.171   2.892   5.480
12242TIP3    H236670   8.137   2.755   5.534
12243TIP3   OH236671   4.580   7.259   4.705
12243TIP3    H136672   4.676   7.266   4.710
12243TIP3    H236673   4.550   7.350   4.705
12244TIP3   OH236674   8.099   5.424   6.125
12244TIP3    H136675   8.126   5.344   6.170
12244TIP3    H236676   8.005   5.412   6.111
12245TIP3   OH236677   6.793   3.485   0.860
12245TIP3    H136678   6.833   3.495   0.774
12245TIP3    H236679   6.707   3.526   0.852
12246TIP3   OH236680   4.256   7.337   2.855
12246TIP3    H136681   4.319   7.315   2.786
12246TIP3    H236682   4.310   7.376   2.924
12247TIP3   OH236683   0.857   1.081   5.628
12247TIP3    H136684   0.775   1.037   5.648
12247TIP3    H236685   0.922   1.011   5.623
12248TIP3   OH236686   5.863   5.761   2.604
12248TIP3    H136687   5.952   5.727   2.615
12248TIP3    H236688   5.852   5.770   2.509
12249TIP3   OH236689   1.125   0.288   0.652
12249TIP3    H136690   1.035   0.258   0.649
12249TIP3    H236691   1.176   0.210   0.672
12250TIP3   OH236692   4.336   6.861   3.237
12250TIP3    H136693   4.360   6.905   3.319
12250TIP3    H236694   4.383   6.909   3.169
12251TIP3   OH236695   7.532   6.830   3.881
12251TIP3    H136696   7.515   6.768   3.953
12251TIP3    H236697   7.562   6.910   3.924
12252TIP3   OH236698   0.550   2.668   6.099
12252TIP3    H136699   0.628   2.616   6.118
12252TIP3    H236700   0.519   2.636   6.014
12253TIP3   OH236701   8.208   2.945   3.051
12253TIP3    H136702   8.167   2.868   3.011
12253TIP3    H236703   8.287   2.959   2.999
12254TIP3   OH236704   7.870   2.889   5.634
12254TIP3    H136705   7.946   2.868   5.580
12254TIP3    H236706   7.829   2.963   5.589
12255TIP3   OH236707   2.924   6.710   2.665
12255TIP3    H136708   2.995   6.651   2.640
12255TIP3    H236709   2.879   6.664   2.736
12256TIP3   OH236710   5.924   7.239   2.433
12256TIP3    H136711   5.936   7.289   2.353
12256TIP3    H236712   6.013   7.228   2.468
12257TIP3   OH236713   1.115   2.707   1.344
12257TIP3    H136714   1.183   2.707   1.276
12257TIP3    H236715   1.092   2.615   1.354
12258TIP3   OH236716   4.920   5.850   5.988
12258TIP3    H136717   4.914   5.941   5.959
12258TIP3    H236718   4.830   5.818   5.984
12259TIP3   OH236719   3.886   3.877   0.780
12259TIP3    H136720   3.842   3.940   0.836
12259TIP3    H236721   3.817   3.842   0.724
12260TIP3   OH236722   5.131   0.521   4.419
12260TIP3    H136723   5.191   0.595   4.431
12260TIP3    H236724   5.055   0.543   4.473
12261TIP3   OH236725   0.134   0.794   2.726
12261TIP3    H136726   0.104   0.885   2.729
12261TIP3    H236727   0.063   0.744   2.766
12262TIP3   OH236728   2.357   0.067   1.478
12262TIP3    H136729   2.413   0.000   1.439
12262TIP3    H236730   2.283   0.073   1.418
12263TIP3   OH236731   4.727   0.924   4.899
12263TIP3    H136732   4.699   0.908   4.989
12263TIP3    H236733   4.646   0.936   4.850
12264TIP3   OH236734   7.701   2.955   2.616
12264TIP3    H136735   7.690   2.874   2.665
12264TIP3    H236736   7.758   3.009   2.670
12265TIP3   OH236737   3.096   5.371   5.903
12265TIP3    H136738   3.153   5.443   5.877
12265TIP3    H236739   3.118   5.354   5.994
12266TIP3   OH236740   2.296   2.672   1.583
12266TIP3    H136741   2.291   2.701   1.674
12266TIP3    H236742   2.235   2.598   1.577
12267TIP3   OH236743   0.510   0.413   6.599
12267TIP3    H136744   0.433   0.355   6.605
12267TIP3    H236745   0.546   0.396   6.512
12268TIP3   OH236746   1.046   7.128   4.071
12268TIP3    H136747   1.001   7.054   4.112
12268TIP3    H236748   1.133   7.095   4.049
12269TIP3   OH236749   4.367   1.708   6.526
12269TIP3    H136750   4.353   1.748   6.440
12269TIP3    H236751   4.289   1.730   6.576
12270TIP3   OH236752   2.680   6.745   0.321
12270TIP3    H136753   2.731   6.703   0.251
12270TIP3    H236754   2.702   6.694   0.400
12271TIP3   OH236755   1.616   3.475   5.425
12271TIP3    H136756   1.610   3.509   5.514
12271TIP3    H236757   1.669   3.539   5.377
12272TIP3   OH236758   4.539   1.817   5.320
12272TIP3    H136759   4.453   1.834   5.359
12272TIP3    H236760   4.600   1.828   5.393
12273TIP3   OH236761   3.655   3.850   2.670
12273TIP3    H136762   3.688   3.928   2.716
12273TIP3    H236763   3.725   3.786   2.678
12274TIP3   OH236764   6.292   6.027   5.687
12274TIP3    H136765   6.263   6.105   5.734
12274TIP3    H236766   6.251   6.035   5.601
12275TIP3   OH236767   6.062   3.029   4.549
12275TIP3    H136768   6.080   3.061   4.636
12275TIP3    H236769   5.983   2.975   4.559
12276TIP3   OH236770   5.271   5.647   6.112
12276TIP3    H136771   5.202   5.604   6.061
12276TIP3    H236772   5.302   5.718   6.056
12277TIP3   OH236773   3.815   7.130   6.058
12277TIP3    H136774   3.888   7.090   6.011
12277TIP3    H236775   3.778   7.058   6.110
12278TIP3   OH236776   5.918   3.026   3.344
12278TIP3    H136777   5.850   3.084   3.309
12278TIP3    H236778   5.999   3.076   3.335
12279TIP3   OH236779   1.077   7.355   5.162
12279TIP3    H136780   1.115   7.319   5.081
12279TIP3    H236781   1.055   7.445   5.140
12280TIP3   OH236782   1.102   7.295   1.767
12280TIP3    H136783   1.152   7.213   1.765
12280TIP3    H236784   1.011   7.268   1.761
12281TIP3   OH236785   0.213   2.379   4.264
12281TIP3    H136786   0.143   2.398   4.202
12281TIP3    H236787   0.283   2.342   4.211
12282TIP3   OH236788   5.260   1.404   4.761
12282TIP3    H136789   5.186   1.430   4.706
12282TIP3    H236790   5.252   1.460   4.839
12283TIP3   OH236791   7.442   5.815   1.789
12283TIP3    H136792   7.367   5.756   1.783
12283TIP3    H236793   7.406   5.902   1.777
12284TIP3   OH236794   0.528   2.464   0.777
12284TIP3    H136795   0.468   2.506   0.838
12284TIP3    H236796   0.596   2.529   0.761
12285TIP3   OH236797   3.569   2.281   6.226
12285TIP3    H136798   3.503   2.213   6.241
12285TIP3    H236799   3.650   2.245   6.262
12286TIP3   OH236800   0.400   5.380   4.067
12286TIP3    H136801   0.310   5.404   4.046
12286TIP3    H236802   0.421   5.310   4.004
12287TIP3   OH236803   7.213   0.522   2.003
12287TIP3    H136804   7.148   0.453   1.992
12287TIP3    H236805   7.175   0.598   1.959
12288TIP3   OH236806   3.840   1.679   4.288
12288TIP3    H136807   3.780   1.726   4.347
12288TIP3    H236808   3.789   1.604   4.257
12289TIP3   OH236809   7.263   3.343   5.983
12289TIP3    H136810   7.168   3.333   5.995
12289TIP3    H236811   7.271   3.414   5.919
12290TIP3   OH236812   4.496   2.181   3.099
12290TIP3    H136813   4.513   2.106   3.156
12290TIP3    H236814   4.401   2.186   3.094
12291TIP3   OH236815   2.206   0.354   6.403
12291TIP3    H136816   2.213   0.348   6.498
12291TIP3    H236817   2.125   0.403   6.388
12292TIP3   OH236818   3.597   0.243   5.074
12292TIP3    H136819   3.525   0.188   5.103
12292TIP3    H236820   3.558   0.330   5.063
12293TIP3   OH236821   2.484   3.444   3.047
12293TIP3    H136822   2.572   3.467   3.075
12293TIP3    H236823   2.427   3.471   3.119
12294TIP3   OH236824   0.361   3.676   2.103
12294TIP3    H136825   0.345   3.769   2.083
12294TIP3    H236826   0.353   3.671   2.199
12295TIP3   OH236827   5.107   7.332   0.674
12295TIP3    H136828   5.103   7.428   0.683
12295TIP3    H236829   5.192   7.309   0.711
12296TIP3   OH236830   3.031   6.773   5.548
12296TIP3    H136831   3.009   6.692   5.594
12296TIP3    H236832   3.002   6.759   5.458
12297TIP3   OH236833   1.528   0.175   1.870
12297TIP3    H136834   1.540   0.096   1.924
12297TIP3    H236835   1.439   0.166   1.835
12298TIP3   OH236836   1.441   4.924   2.181
12298TIP3    H136837   1.399   4.988   2.123
12298TIP3    H236838   1.411   4.839   2.149
12299TIP3   OH236839   1.653   3.640   6.174
12299TIP3    H136840   1.593   3.616   6.102
12299TIP3    H236841   1.596   3.680   6.240
12300TIP3   OH236842   1.214   4.370   5.768
12300TIP3    H136843   1.233   4.308   5.698
12300TIP3    H236844   1.246   4.454   5.735
12301TIP3   OH236845   2.802   0.085   6.675
12301TIP3    H136846   2.756   0.017   6.626
12301TIP3    H236847   2.737   0.120   6.735
12302TIP3   OH236848   5.766   5.562   3.363
12302TIP3    H136849   5.707   5.603   3.301
12302TIP3    H236850   5.853   5.586   3.334
12303TIP3   OH236851   2.599   3.484   6.589
12303TIP3    H136852   2.532   3.493   6.657
12303TIP3    H236853   2.679   3.467   6.637
12304TIP3   OH236854   2.797   2.317   1.399
12304TIP3    H136855   2.705   2.303   1.421
12304TIP3    H236856   2.823   2.240   1.350
12305TIP3   OH236857   1.116   5.154   3.802
12305TIP3    H136858   1.062   5.228   3.776
12305TIP3    H236859   1.087   5.133   3.891
12306TIP3   OH236860   7.631   1.801   1.574
12306TIP3    H136861   7.577   1.726   1.598
12306TIP3    H236862   7.630   1.803   1.479
12307TIP3   OH236863   7.048   6.572   4.098
12307TIP3    H136864   7.051   6.651   4.045
12307TIP3    H236865   7.043   6.500   4.034
12308TIP3   OH236866   3.763   0.624   1.156
12308TIP3    H136867   3.790   0.683   1.227
12308TIP3    H236868   3.667   0.625   1.160
12309TIP3   OH236869   3.212   2.732   4.261
12309TIP3    H136870   3.179   2.822   4.269
12309TIP3    H236871   3.136   2.680   4.237
12310TIP3   OH236872   3.347   4.296   4.371
12310TIP3    H136873   3.354   4.241   4.448
12310TIP3    H236874   3.427   4.279   4.321
12311TIP3   OH236875   4.753   1.080   1.527
12311TIP3    H136876   4.677   1.072   1.469
12311TIP3    H236877   4.813   1.138   1.480
12312TIP3   OH236878   7.132   0.195   6.350
12312TIP3    H136879   7.210   0.211   6.298
12312TIP3    H236880   7.121   0.100   6.348
12313TIP3   OH236881   1.809   2.765   5.648
12313TIP3    H136882   1.759   2.830   5.698
12313TIP3    H236883   1.785   2.780   5.557
12314TIP3   OH236884   7.407   3.019   3.122
12314TIP3    H136885   7.452   3.081   3.065
12314TIP3    H236886   7.458   2.939   3.116
12315TIP3   OH236887   0.741   6.356   5.282
12315TIP3    H136888   0.738   6.443   5.322
12315TIP3    H236889   0.807   6.363   5.213
12316TIP3   OH236890   3.320   0.665   3.291
12316TIP3    H136891   3.273   0.662   3.374
12316TIP3    H236892   3.392   0.726   3.306
12317TIP3   OH236893   5.755   3.861   5.920
12317TIP3    H136894   5.845   3.874   5.951
12317TIP3    H236895   5.717   3.949   5.919
12318TIP3   OH236896   5.966   6.599   4.399
12318TIP3    H136897   5.939   6.564   4.314
12318TIP3    H236898   6.056   6.568   4.410
12319TIP3   OH236899   2.427   3.357   2.332
12319TIP3    H136900   2.339   3.392   2.346
12319TIP3    H236901   2.469   3.423   2.276
12320TIP3   OH236902   2.559   5.736   6.515
12320TIP3    H136903   2.560   5.789   6.594
12320TIP3    H236904   2.594   5.652   6.541
12321TIP3   OH236905   6.000   4.156   2.287
12321TIP3    H136906   6.079   4.117   2.325
12321TIP3    H236907   5.929   4.096   2.313
12322TIP3   OH236908   0.398   0.668   1.900
12322TIP3    H136909   0.367   0.692   1.813
12322TIP3    H236910   0.464   0.734   1.921
12323TIP3   OH236911   2.244   0.990   2.123
12323TIP3    H136912   2.163   0.941   2.115
12323TIP3    H236913   2.296   0.964   2.047
12324TIP3   OH236914   3.725   3.354   1.592
12324TIP3    H136915   3.756   3.332   1.680
12324TIP3    H236916   3.804   3.354   1.538
12325TIP3   OH236917   8.218   4.742   4.076
12325TIP3    H136918   8.268   4.815   4.112
12325TIP3    H236919   8.127   4.769   4.086
12326TIP3   OH236920   6.257   7.355   0.586
12326TIP3    H136921   6.261   7.374   0.679
12326TIP3    H236922   6.176   7.305   0.575
12327TIP3   OH236923   3.037   0.977   4.734
12327TIP3    H136924   3.029   1.033   4.811
12327TIP3    H236925   2.999   1.029   4.663
12328TIP3   OH236926   3.184   3.905   1.637
12328TIP3    H136927   3.231   3.822   1.630
12328TIP3    H236928   3.154   3.923   1.548
12329TIP3   OH236929   5.213   4.423   6.102
12329TIP3    H136930   5.194   4.353   6.041
12329TIP3    H236931   5.152   4.493   6.079
12330TIP3   OH236932   1.097   4.562   5.185
12330TIP3    H136933   1.164   4.588   5.123
12330TIP3    H236934   1.016   4.602   5.151
12331TIP3   OH236935   0.129   2.071   3.953
12331TIP3    H136936   0.084   2.052   4.035
12331TIP3    H236937   0.222   2.063   3.974
12332TIP3   OH236938   2.174   4.684   0.506
12332TIP3    H136939   2.247   4.746   0.503
12332TIP3    H236940   2.102   4.729   0.463
12333TIP3   OH236941   2.235   1.965   3.951
12333TIP3    H136942   2.301   2.021   3.992
12333TIP3    H236943   2.210   2.011   3.871
12334TIP3   OH236944   0.357   0.832   3.480
12334TIP3    H136945   0.337   0.744   3.448
12334TIP3    H236946   0.277   0.883   3.464
12335TIP3   OH236947   3.311   5.228   3.190
12335TIP3    H136948   3.304   5.170   3.114
12335TIP3    H236949   3.269   5.310   3.161
12336TIP3   OH236950   0.240   5.209   5.612
12336TIP3    H136951   0.274   5.182   5.698
12336TIP3    H236952   0.245   5.305   5.613
12337TIP3   OH236953   6.384   4.387   5.553
12337TIP3    H136954   6.404   4.345   5.469
12337TIP3    H236955   6.372   4.480   5.531
12338TIP3   OH236956   0.005   7.295   5.182
12338TIP3    H136957   0.030   7.382   5.215
12338TIP3    H236958  -0.089   7.303   5.165
12339TIP3   OH236959   3.729   6.758   4.175
12339TIP3    H136960   3.731   6.701   4.097
12339TIP3    H236961   3.662   6.823   4.156
12340TIP3   OH236962   2.143   7.417   6.249
12340TIP3    H136963   2.122   7.399   6.341
12340TIP3    H236964   2.089   7.492   6.226
12341TIP3   OH236965   3.967   1.672   2.832
12341TIP3    H136966   3.975   1.765   2.853
12341TIP3    H236967   4.022   1.659   2.755
12342TIP3   OH236968   3.479   0.941   1.974
12342TIP3    H136969   3.548   0.888   2.014
12342TIP3    H236970   3.402   0.884   1.972
12343TIP3   OH236971   2.362   1.666   2.904
12343TIP3    H136972   2.384   1.646   2.995
12343TIP3    H236973   2.312   1.747   2.908
12344TIP3   OH236974   6.108   7.428   4.987
12344TIP3    H136975   6.193   7.472   4.981
12344TIP3    H236976   6.123   7.353   5.044
12345TIP3   OH236977   2.272   5.878   4.793
12345TIP3    H136978   2.189   5.838   4.769
12345TIP3    H236979   2.277   5.958   4.741
12346TIP3   OH236980   5.357   6.368   2.470
12346TIP3    H136981   5.412   6.405   2.400
12346TIP3    H236982   5.371   6.426   2.545
12347TIP3   OH236983   6.176   6.033   0.358
12347TIP3    H136984   6.198   5.982   0.435
12347TIP3    H236985   6.094   5.994   0.326
12348TIP3   OH236986   7.167   5.112   4.401
12348TIP3    H136987   7.255   5.079   4.416
12348TIP3    H236988   7.123   5.042   4.352
12349TIP3   OH236989   8.018   7.684   3.467
12349TIP3    H136990   8.027   7.714   3.557
12349TIP3    H236991   8.104   7.701   3.428
12350TIP3   OH236992   3.796   2.091   5.878
12350TIP3    H136993   3.713   2.132   5.853
12350TIP3    H236994   3.776   2.044   5.959
12351TIP3   OH236995   5.086   0.913   3.221
12351TIP3    H136996   5.178   0.888   3.218
12351TIP3    H236997   5.041   0.836   3.255
12352TIP3   OH236998   2.726   5.154   4.087
12352TIP3    H136999   2.690   5.149   3.999
12352TIP3    H237000   2.765   5.241   4.093
12353TIP3   OH237001   2.842   1.441   5.268
12353TIP3    H137002   2.795   1.367   5.230
12353TIP3    H237003   2.827   1.432   5.362
12354TIP3   OH237004   1.332   0.763   0.548
12354TIP3    H137005   1.317   0.730   0.636
12354TIP3    H237006   1.353   0.685   0.496
12355TIP3   OH237007   7.782   5.960   1.657
12355TIP3    H137008   7.766   5.921   1.744
12355TIP3    H237009   7.860   6.013   1.669
12356TIP3   OH237010   6.084   1.920   4.667
12356TIP3    H137011   6.130   2.001   4.646
12356TIP3    H237012   6.136   1.881   4.738
12357TIP3   OH237013   0.372   3.994   2.179
12357TIP3    H137014   0.347   4.086   2.171
12357TIP3    H237015   0.406   3.986   2.268
12358TIP3   OH237016   3.252   5.036   3.930
12358TIP3    H137017   3.312   5.039   3.856
12358TIP3    H237018   3.278   5.109   3.986
12359TIP3   OH237019   3.530   3.122   6.129
12359TIP3    H137020   3.608   3.110   6.182
12359TIP3    H237021   3.547   3.201   6.077
12360TIP3   OH237022   7.779   5.665   4.079
12360TIP3    H137023   7.777   5.593   4.143
12360TIP3    H237024   7.863   5.655   4.035
12361TIP3   OH237025   2.100   0.132   5.988
12361TIP3    H137026   2.187   0.106   6.017
12361TIP3    H237027   2.043   0.111   6.062
12362TIP3   OH237028   7.411   0.917   2.197
12362TIP3    H137029   7.414   0.962   2.112
12362TIP3    H237030   7.502   0.911   2.225
12363TIP3   OH237031   3.899   6.439   0.813
12363TIP3    H137032   3.824   6.486   0.776
12363TIP3    H237033   3.953   6.416   0.737
12364TIP3   OH237034   2.312   1.443   6.458
12364TIP3    H137035   2.373   1.370   6.451
12364TIP3    H237036   2.366   1.521   6.450
12365TIP3   OH237037   1.714   3.351   6.435
12365TIP3    H137038   1.670   3.280   6.481
12365TIP3    H237039   1.698   3.334   6.342
12366TIP3   OH237040   5.243   5.978   4.451
12366TIP3    H137041   5.306   5.914   4.484
12366TIP3    H237042   5.172   5.977   4.514
12367TIP3   OH237043   7.385   5.189   1.421
12367TIP3    H137044   7.391   5.139   1.502
12367TIP3    H237045   7.295   5.177   1.391
12368TIP3   OH237046   4.593   4.113   6.606
12368TIP3    H137047   4.543   4.183   6.649
12368TIP3    H237048   4.615   4.149   6.520
12369TIP3   OH237049   2.550   0.291   5.695
12369TIP3    H137050   2.507   0.300   5.610
12369TIP3    H237051   2.495   0.230   5.744
12370TIP3   OH237052   3.372   1.476   3.619
12370TIP3    H137053   3.359   1.393   3.573
12370TIP3    H237054   3.305   1.534   3.583
12371TIP3   OH237055   1.888   1.025   5.695
12371TIP3    H137056   1.812   1.080   5.717
12371TIP3    H237057   1.880   1.011   5.601
12372TIP3   OH237058   4.329   2.493   1.747
12372TIP3    H137059   4.380   2.569   1.721
12372TIP3    H237060   4.393   2.429   1.776
12373TIP3   OH237061   5.871   0.085   2.206
12373TIP3    H137062   5.827   0.168   2.192
12373TIP3    H237063   5.803   0.019   2.197
12374TIP3   OH237064   5.019   7.121   1.712
12374TIP3    H137065   4.952   7.053   1.721
12374TIP3    H237066   4.998   7.185   1.780
12375TIP3   OH237067   2.596   7.609   6.087
12375TIP3    H137068   2.594   7.619   5.992
12375TIP3    H237069   2.635   7.523   6.102
12376TIP3   OH237070   5.768   2.888   0.328
12376TIP3    H137071   5.740   2.889   0.237
12376TIP3    H237072   5.863   2.877   0.324
12377TIP3   OH237073   1.983   4.673   0.275
12377TIP3    H137074   1.988   4.583   0.307
12377TIP3    H237075   2.061   4.684   0.221
12378TIP3   OH237076   1.552   5.140   5.563
12378TIP3    H137077   1.555   5.062   5.508
12378TIP3    H237078   1.637   5.143   5.605
12379TIP3   OH237079   1.417   0.851   6.175
12379TIP3    H137080   1.368   0.893   6.104
12379TIP3    H237081   1.382   0.762   6.179
12380TIP3   OH237082   3.436   5.621   2.358
12380TIP3    H137083   3.464   5.581   2.440
12380TIP3    H237084   3.424   5.714   2.380
12381TIP3   OH237085   4.099   4.381   5.548
12381TIP3    H137086   4.134   4.373   5.459
12381TIP3    H237087   4.148   4.454   5.586
12382TIP3   OH237088   5.194   0.071   1.269
12382TIP3    H137089   5.114   0.047   1.315
12382TIP3    H237090   5.170   0.149   1.218
12383TIP3   OH237091   3.126   7.332   1.957
12383TIP3    H137092   3.062   7.289   2.014
12383TIP3    H237093   3.133   7.274   1.882
12384TIP3   OH237094   1.773   2.258   3.197
12384TIP3    H137095   1.763   2.264   3.292
12384TIP3    H237096   1.684   2.254   3.163
12385TIP3   OH237097   0.431   0.379   2.955
12385TIP3    H137098   0.452   0.296   2.911
12385TIP3    H237099   0.499   0.389   3.021
12386TIP3   OH237100   3.902   5.263   0.468
12386TIP3    H137101   3.862   5.187   0.427
12386TIP3    H237102   3.943   5.229   0.548
12387TIP3   OH237103   5.948   4.549   0.417
12387TIP3    H137104   5.863   4.507   0.433
12387TIP3    H237105   6.001   4.480   0.378
12388TIP3   OH237106   0.750   4.827   6.406
12388TIP3    H137107   0.735   4.810   6.313
12388TIP3    H237108   0.808   4.757   6.435
12389TIP3   OH237109   2.076   6.853   5.193
12389TIP3    H137110   2.022   6.803   5.131
12389TIP3    H237111   2.136   6.902   5.138
12390TIP3   OH237112   2.607   5.232   3.820
12390TIP3    H137113   2.516   5.205   3.804
12390TIP3    H237114   2.601   5.327   3.831
12391TIP3   OH237115   3.150   0.183   4.334
12391TIP3    H137116   3.128   0.199   4.242
12391TIP3    H237117   3.244   0.170   4.334
12392TIP3   OH237118   2.497   4.167   5.874
12392TIP3    H137119   2.587   4.141   5.894
12392TIP3    H237120   2.470   4.220   5.949
12393TIP3   OH237121   4.261   7.115   6.532
12393TIP3    H137122   4.300   7.093   6.448
12393TIP3    H237123   4.188   7.054   6.542
12394TIP3   OH237124   5.556   5.450   2.321
12394TIP3    H137125   5.555   5.518   2.388
12394TIP3    H237126   5.473   5.403   2.334
12395TIP3   OH237127   8.238   1.654   3.922
12395TIP3    H137128   8.194   1.582   3.967
12395TIP3    H237129   8.255   1.719   3.990
12396TIP3   OH237130   0.748   0.822   3.995
12396TIP3    H137131   0.762   0.889   4.062
12396TIP3    H237132   0.654   0.806   3.996
12397TIP3   OH237133   3.970   7.815   2.757
12397TIP3    H137134   4.004   7.727   2.739
12397TIP3    H237135   3.953   7.815   2.851
12398TIP3   OH237136   5.586   7.334   0.670
12398TIP3    H137137   5.636   7.253   0.661
12398TIP3    H237138   5.644   7.394   0.718
12399TIP3   OH237139   3.414   6.530   0.680
12399TIP3    H137140   3.449   6.595   0.618
12399TIP3    H237141   3.458   6.449   0.656
12400TIP3   OH237142   6.559   4.056   0.530
12400TIP3    H137143   6.591   4.145   0.544
12400TIP3    H237144   6.520   4.031   0.614
12401TIP3   OH237145   2.374   3.251   5.065
12401TIP3    H137146   2.326   3.188   5.012
12401TIP3    H237147   2.398   3.321   5.004
12402TIP3   OH237148   4.680   6.025   5.653
12402TIP3    H137149   4.684   6.096   5.588
12402TIP3    H237150   4.623   6.059   5.722
12403TIP3   OH237151   5.889   6.184   1.460
12403TIP3    H137152   5.955   6.193   1.529
12403TIP3    H237153   5.843   6.267   1.460
12404TIP3   OH237154   2.152   4.563   2.312
12404TIP3    H137155   2.234   4.611   2.316
12404TIP3    H237156   2.087   4.629   2.287
12405TIP3   OH237157   2.124   3.648   2.087
12405TIP3    H137158   2.103   3.597   2.008
12405TIP3    H237159   2.216   3.672   2.076
12406TIP3   OH237160   0.201   2.185   6.420
12406TIP3    H137161   0.170   2.229   6.341
12406TIP3    H237162   0.178   2.093   6.407
12407TIP3   OH237163   6.592   7.230   0.893
12407TIP3    H137164   6.507   7.191   0.915
12407TIP3    H237165   6.656   7.173   0.936
12408TIP3   OH237166   5.430   1.183   3.798
12408TIP3    H137167   5.463   1.095   3.817
12408TIP3    H237168   5.357   1.169   3.738
12409TIP3   OH237169   2.275   0.301   3.472
12409TIP3    H137170   2.183   0.281   3.456
12409TIP3    H237171   2.301   0.356   3.399
12410TIP3   OH237172   6.649   7.635   1.920
12410TIP3    H137173   6.563   7.593   1.921
12410TIP3    H237174   6.631   7.727   1.904
12411TIP3   OH237175   0.115   4.143   3.993
12411TIP3    H137176   0.079   4.225   4.027
12411TIP3    H237177   0.038   4.089   3.975
12412TIP3   OH237178   4.298   2.675   0.830
12412TIP3    H137179   4.371   2.654   0.889
12412TIP3    H237180   4.221   2.674   0.886
12413TIP3   OH237181   6.350   6.795   2.320
12413TIP3    H137182   6.313   6.866   2.373
12413TIP3    H237183   6.350   6.720   2.379
12414TIP3   OH237184   3.014   0.248   6.717
12414TIP3    H137185   3.010   0.229   6.810
12414TIP3    H237186   2.923   0.244   6.687
12415TIP3   OH237187   4.235   5.403   5.832
12415TIP3    H137188   4.266   5.481   5.878
12415TIP3    H237189   4.205   5.344   5.901
12416TIP3   OH237190   7.260   0.203   4.005
12416TIP3    H137191   7.341   0.154   3.992
12416TIP3    H237192   7.196   0.158   3.949
12417TIP3   OH237193   3.060   0.383   0.515
12417TIP3    H137194   2.998   0.329   0.563
12417TIP3    H237195   3.057   0.349   0.426
12418TIP3   OH237196   5.219   4.457   2.528
12418TIP3    H137197   5.136   4.411   2.541
12418TIP3    H237198   5.281   4.411   2.584
12419TIP3   OH237199   1.799   0.063   0.819
12419TIP3    H137200   1.797   0.136   0.880
12419TIP3    H237201   1.888   0.030   0.824
12420TIP3   OH237202   4.742   7.484   2.027
12420TIP3    H137203   4.780   7.489   2.115
12420TIP3    H237204   4.688   7.562   2.020
12421TIP3   OH237205   7.992   1.589   2.222
12421TIP3    H137206   7.906   1.567   2.188
12421TIP3    H237207   8.053   1.540   2.167
12422TIP3   OH237208   4.086   3.112   0.249
12422TIP3    H137209   4.127   3.122   0.163
12422TIP3    H237210   4.158   3.097   0.309
12423TIP3   OH237211   2.617   3.161   3.168
12423TIP3    H137212   2.614   3.231   3.233
12423TIP3    H237213   2.711   3.148   3.152
12424TIP3   OH237214   0.201   5.302   0.854
12424TIP3    H137215   0.109   5.320   0.875
12424TIP3    H237216   0.250   5.370   0.899
12425TIP3   OH237217   3.257   7.575   3.349
12425TIP3    H137218   3.319   7.506   3.373
12425TIP3    H237219   3.195   7.578   3.422
12426TIP3   OH237220   1.591   0.771   2.047
12426TIP3    H137221   1.671   0.721   2.064
12426TIP3    H237222   1.612   0.859   2.078
12427TIP3   OH237223   8.176   7.585   0.618
12427TIP3    H137224   8.258   7.619   0.654
12427TIP3    H237225   8.165   7.500   0.662
12428TIP3   OH237226   6.204   7.612   6.325
12428TIP3    H137227   6.152   7.635   6.248
12428TIP3    H237228   6.149   7.550   6.373
12429TIP3   OH237229   4.420   5.964   2.627
12429TIP3    H137230   4.455   5.992   2.542
12429TIP3    H237231   4.495   5.927   2.673
12430TIP3   OH237232   6.851   6.252   0.626
12430TIP3    H137233   6.781   6.257   0.692
12430TIP3    H237234   6.931   6.272   0.674
12431TIP3   OH237235   2.790   0.378   1.370
12431TIP3    H137236   2.761   0.292   1.400
12431TIP3    H237237   2.736   0.440   1.419
12432TIP3   OH237238   5.927   3.853   2.967
12432TIP3    H137239   5.849   3.809   2.932
12432TIP3    H237240   5.969   3.787   3.021
12433TIP3   OH237241   5.491   6.748   2.494
12433TIP3    H137242   5.587   6.746   2.502
12433TIP3    H237243   5.472   6.686   2.425
12434TIP3   OH237244   2.646   2.413   3.189
12434TIP3    H137245   2.713   2.479   3.206
12434TIP3    H237246   2.644   2.406   3.093
12435TIP3   OH237247   4.866   4.881   4.912
12435TIP3    H137248   4.791   4.906   4.966
12435TIP3    H237249   4.831   4.880   4.822
12436TIP3   OH237250   6.410   5.258   0.720
12436TIP3    H137251   6.487   5.249   0.663
12436TIP3    H237252   6.408   5.351   0.743
12437TIP3   OH237253   0.220   6.503   3.751
12437TIP3    H137254   0.220   6.445   3.674
12437TIP3    H237255   0.293   6.473   3.804
12438TIP3   OH237256   2.708   4.205   0.614
12438TIP3    H137257   2.693   4.120   0.572
12438TIP3    H237258   2.625   4.224   0.658
12439TIP3   OH237259   4.039   2.371   2.032
12439TIP3    H137260   4.070   2.461   2.018
12439TIP3    H237261   4.107   2.331   2.086
12440TIP3   OH237262   0.279   1.270   4.583
12440TIP3    H137263   0.372   1.251   4.590
12440TIP3    H237264   0.258   1.318   4.663
12441TIP3   OH237265   0.691   6.052   3.248
12441TIP3    H137266   0.682   5.960   3.274
12441TIP3    H237267   0.639   6.100   3.314
12442TIP3   OH237268   2.137   6.442   2.403
12442TIP3    H137269   2.170   6.448   2.313
12442TIP3    H237270   2.099   6.529   2.420
12443TIP3   OH237271   4.915   3.599   4.564
12443TIP3    H137272   4.954   3.513   4.551
12443TIP3    H237273   4.824   3.581   4.588
12444TIP3   OH237274   7.728   2.099   4.777
12444TIP3    H137275   7.790   2.153   4.728
12444TIP3    H237276   7.675   2.057   4.710
12445TIP3   OH237277   6.757   4.517   4.477
12445TIP3    H137278   6.791   4.606   4.485
12445TIP3    H237279   6.691   4.522   4.408
12446TIP3   OH237280   7.220   4.152   4.561
12446TIP3    H137281   7.305   4.179   4.597
12446TIP3    H237282   7.159   4.219   4.592
12447TIP3   OH237283   5.748   4.945   2.092
12447TIP3    H137284   5.657   4.946   2.122
12447TIP3    H237285   5.800   4.957   2.172
12448TIP3   OH237286   6.213   0.723   0.195
12448TIP3    H137287   6.257   0.681   0.122
12448TIP3    H237288   6.243   0.814   0.193
12449TIP3   OH237289   3.083   7.658   6.206
12449TIP3    H137290   3.003   7.703   6.182
12449TIP3    H237291   3.153   7.712   6.167
12450TIP3   OH237292   0.056   3.394   3.949
12450TIP3    H137293   0.070   3.318   4.006
12450TIP3    H237294   0.142   3.433   3.938
12451TIP3   OH237295   8.202   1.680   6.765
12451TIP3    H137296   8.106   1.690   6.767
12451TIP3    H237297   8.223   1.638   6.849
12452TIP3   OH237298   2.965   4.339   3.359
12452TIP3    H137299   3.023   4.291   3.418
12452TIP3    H237300   3.011   4.337   3.275
12453TIP3   OH237301   8.140   7.193   1.215
12453TIP3    H137302   8.153   7.105   1.251
12453TIP3    H237303   8.060   7.185   1.163
12454TIP3   OH237304   6.403   3.276   3.358
12454TIP3    H137305   6.476   3.309   3.304
12454TIP3    H237306   6.388   3.346   3.422
12455TIP3   OH237307   3.116   5.736   6.512
12455TIP3    H137308   3.048   5.764   6.450
12455TIP3    H237309   3.158   5.661   6.469
12456TIP3   OH237310   4.285   3.850   2.234
12456TIP3    H137311   4.226   3.776   2.243
12456TIP3    H237312   4.366   3.822   2.276
12457TIP3   OH237313   5.543   6.983   0.854
12457TIP3    H137314   5.461   6.988   0.904
12457TIP3    H237315   5.531   6.909   0.795
12458TIP3   OH237316   3.947   3.296   3.607
12458TIP3    H137317   3.928   3.341   3.525
12458TIP3    H237318   3.912   3.207   3.595
12459TIP3   OH237319   3.507   2.567   6.737
12459TIP3    H137320   3.581   2.518   6.702
12459TIP3    H237321   3.441   2.562   6.667
12460TIP3   OH237322   0.275   1.515   5.390
12460TIP3    H137323   0.342   1.582   5.378
12460TIP3    H237324   0.305   1.463   5.465
12461TIP3   OH237325   4.937   3.323   6.185
12461TIP3    H137326   4.881   3.302   6.110
12461TIP3    H237327   4.985   3.243   6.203
12462TIP3   OH237328   3.511   2.799   5.647
12462TIP3    H137329   3.543   2.844   5.725
12462TIP3    H237330   3.566   2.721   5.641
12463TIP3   OH237331   0.318   2.785   4.576
12463TIP3    H137332   0.363   2.801   4.492
12463TIP3    H237333   0.277   2.699   4.565
12464TIP3   OH237334   7.260   2.245   2.498
12464TIP3    H137335   7.301   2.281   2.419
12464TIP3    H237336   7.180   2.202   2.467
12465TIP3   OH237337   8.059   3.706   1.644
12465TIP3    H137338   7.968   3.734   1.654
12465TIP3    H237339   8.096   3.714   1.732
12466TIP3   OH237340   5.287   4.179   1.668
12466TIP3    H137341   5.329   4.135   1.594
12466TIP3    H237342   5.193   4.166   1.654
12467TIP3   OH237343   1.836   1.966   0.152
12467TIP3    H137344   1.752   2.010   0.163
12467TIP3    H237345   1.825   1.912   0.073
12468TIP3   OH237346   1.354   7.671   4.003
12468TIP3    H137347   1.318   7.709   4.083
12468TIP3    H237348   1.357   7.577   4.020
12469TIP3   OH237349   8.334   5.961   0.384
12469TIP3    H137350   8.256   5.916   0.350
12469TIP3    H237351   8.304   6.050   0.402
12470TIP3   OH237352   0.337   4.354   3.525
12470TIP3    H137353   0.395   4.426   3.499
12470TIP3    H237354   0.259   4.398   3.560
12471TIP3   OH237355   4.321   2.003   1.177
12471TIP3    H137356   4.308   2.010   1.271
12471TIP3    H237357   4.327   1.909   1.160
12472TIP3   OH237358   6.607   0.937   4.478
12472TIP3    H137359   6.630   0.981   4.560
12472TIP3    H237360   6.616   0.844   4.497
12473TIP3   OH237361   3.046   5.261   1.674
12473TIP3    H137362   3.040   5.298   1.586
12473TIP3    H237363   3.056   5.167   1.659
12474TIP3   OH237364   3.998   6.888   3.685
12474TIP3    H137365   4.091   6.879   3.663
12474TIP3    H237366   3.996   6.885   3.780
12475TIP3   OH237367   0.286   5.499   5.616
12475TIP3    H137368   0.242   5.582   5.633
12475TIP3    H237369   0.306   5.501   5.522
12476TIP3   OH237370   6.397   2.891   5.218
12476TIP3    H137371   6.305   2.919   5.210
12476TIP3    H237372   6.434   2.950   5.284
12477TIP3   OH237373   6.677   2.218   4.629
12477TIP3    H137374   6.770   2.206   4.649
12477TIP3    H237375   6.657   2.145   4.570
12478TIP3   OH237376   0.086   6.845   4.543
12478TIP3    H137377   0.158   6.791   4.577
12478TIP3    H237378   0.045   6.790   4.476
12479TIP3   OH237379   0.749   0.765   3.691
12479TIP3    H137380   0.743   0.771   3.787
12479TIP3    H237381   0.716   0.850   3.660
12480TIP3   OH237382   5.963   1.444   4.865
12480TIP3    H137383   5.996   1.360   4.834
12480TIP3    H237384   5.869   1.432   4.873
12481TIP3   OH237385   4.257   2.934   5.907
12481TIP3    H137386   4.311   2.876   5.959
12481TIP3    H237387   4.242   2.887   5.825
12482TIP3   OH237388   0.817   3.637   4.462
12482TIP3    H137389   0.896   3.660   4.511
12482TIP3    H237390   0.845   3.569   4.401
12483TIP3   OH237391   0.094   1.354   1.352
12483TIP3    H137392   0.000   1.361   1.335
12483TIP3    H237393   0.100   1.301   1.432
12484TIP3   OH237394   0.353   3.563   3.478
12484TIP3    H137395   0.435   3.576   3.527
12484TIP3    H237396   0.381   3.535   3.391
12485TIP3   OH237397   6.967   2.476   0.320
12485TIP3    H137398   6.973   2.517   0.407
12485TIP3    H237399   7.020   2.397   0.327
12486TIP3   OH237400   7.540   7.489   1.987
12486TIP3    H137401   7.624   7.533   1.974
12486TIP3    H237402   7.530   7.482   2.082
12487TIP3   OH237403   6.464   5.074   2.433
12487TIP3    H137404   6.430   4.986   2.413
12487TIP3    H237405   6.558   5.067   2.418
12488TIP3   OH237406   0.267   1.868   3.171
12488TIP3    H137407   0.244   1.787   3.216
12488TIP3    H237408   0.184   1.914   3.161
12489TIP3   OH237409   7.211   1.739   3.669
12489TIP3    H137410   7.244   1.766   3.755
12489TIP3    H237411   7.289   1.715   3.619
12490TIP3   OH237412   4.775   3.232   2.411
12490TIP3    H137413   4.722   3.298   2.455
12490TIP3    H237414   4.735   3.223   2.325
12491TIP3   OH237415   2.229   6.209   0.647
12491TIP3    H137416   2.205   6.276   0.584
12491TIP3    H237417   2.148   6.193   0.697
12492TIP3   OH237418   2.512   6.233   4.237
12492TIP3    H137419   2.469   6.154   4.269
12492TIP3    H237420   2.586   6.246   4.297
12493TIP3   OH237421   2.935   0.205   3.135
12493TIP3    H137422   2.896   0.121   3.113
12493TIP3    H237423   2.951   0.200   3.230
12494TIP3   OH237424   2.599   1.312   6.233
12494TIP3    H137425   2.527   1.305   6.171
12494TIP3    H237426   2.665   1.365   6.188
12495TIP3   OH237427   6.129   5.672   4.384
12495TIP3    H137428   6.210   5.632   4.414
12495TIP3    H237429   6.133   5.761   4.419
12496TIP3   OH237430   2.431   0.192   5.092
12496TIP3    H137431   2.526   0.201   5.090
12496TIP3    H237432   2.414   0.103   5.060
12497TIP3   OH237433   7.075   3.282   1.513
12497TIP3    H137434   7.063   3.262   1.420
12497TIP3    H237435   6.992   3.320   1.540
12498TIP3   OH237436   6.451   5.516   4.264
12498TIP3    H137437   6.394   5.570   4.209
12498TIP3    H237438   6.418   5.528   4.353
12499TIP3   OH237439   0.354   7.283   1.012
12499TIP3    H137440   0.269   7.254   1.042
12499TIP3    H237441   0.360   7.374   1.042
12500TIP3   OH237442   6.787   6.286   4.470
12500TIP3    H137443   6.835   6.335   4.403
12500TIP3    H237444   6.843   6.292   4.547
12501TIP3   OH237445   7.203   1.037   2.289
12501TIP3    H137446   7.289   0.994   2.292
12501TIP3    H237447   7.177   1.034   2.197
12502TIP3   OH237448   4.961   0.906   1.190
12502TIP3    H137449   4.911   0.974   1.145
12502TIP3    H237450   5.052   0.934   1.181
12503TIP3   OH237451   4.614   1.173   2.815
12503TIP3    H137452   4.633   1.256   2.772
12503TIP3    H237453   4.555   1.196   2.887
12504TIP3   OH237454   2.324   3.184   0.808
12504TIP3    H137455   2.253   3.121   0.816
12504TIP3    H237456   2.404   3.132   0.810
12505TIP3   OH237457   6.874   3.072   1.227
12505TIP3    H137458   6.817   3.062   1.150
12505TIP3    H237459   6.814   3.073   1.301
12506TIP3   OH237460   0.999   0.994   6.032
12506TIP3    H137461   0.967   0.968   5.946
12506TIP3    H237462   0.942   0.949   6.094
12507TIP3   OH237463   7.198   0.970   4.468
12507TIP3    H137464   7.196   0.891   4.522
12507TIP3    H237465   7.273   1.020   4.500
12508TIP3   OH237466   1.921   7.637   4.631
12508TIP3    H137467   1.906   7.557   4.681
12508TIP3    H237468   1.889   7.616   4.543
12509TIP3   OH237469   1.641   3.312   2.557
12509TIP3    H137470   1.696   3.234   2.547
12509TIP3    H237471   1.618   3.313   2.650
12510TIP3   OH237472   8.133   6.031   6.433
12510TIP3    H137473   8.093   5.961   6.382
12510TIP3    H237474   8.067   6.055   6.499
12511TIP3   OH237475   5.886   6.716   3.079
12511TIP3    H137476   5.825   6.750   3.145
12511TIP3    H237477   5.943   6.790   3.059
12512TIP3   OH237478   1.401   6.482   0.505
12512TIP3    H137479   1.432   6.508   0.591
12512TIP3    H237480   1.317   6.438   0.523
12513TIP3   OH237481   4.688   1.851  -0.038
12513TIP3    H137482   4.646   1.888   0.040
12513TIP3    H237483   4.701   1.758  -0.016
12514TIP3   OH237484   1.625   1.466   2.837
12514TIP3    H137485   1.576   1.396   2.794
12514TIP3    H237486   1.570   1.493   2.910
12515TIP3   OH237487   1.311   1.951   3.747
12515TIP3    H137488   1.247   1.880   3.739
12515TIP3    H237489   1.258   2.029   3.762
12516TIP3   OH237490   4.958   6.882   1.453
12516TIP3    H137491   4.931   6.968   1.485
12516TIP3    H237492   4.953   6.890   1.357
12517TIP3   OH237493   0.591   3.776   6.177
12517TIP3    H137494   0.660   3.766   6.112
12517TIP3    H237495   0.621   3.848   6.233
12518TIP3   OH237496   0.173   2.432   1.628
12518TIP3    H137497   0.141   2.344   1.647
12518TIP3    H237498   0.166   2.440   1.533
12519TIP3   OH237499   5.716   4.291   6.222
12519TIP3    H137500   5.742   4.199   6.230
12519TIP3    H237501   5.666   4.309   6.302
12520TIP3   OH237502   4.689   3.843   6.454
12520TIP3    H137503   4.608   3.864   6.501
12520TIP3    H237504   4.666   3.769   6.397
12521TIP3   OH237505   2.437   4.626   5.147
12521TIP3    H137506   2.489   4.692   5.101
12521TIP3    H237507   2.373   4.676   5.198
12522TIP3   OH237508   2.436   2.814   1.011
12522TIP3    H137509   2.444   2.871   1.087
12522TIP3    H237510   2.515   2.761   1.012
12523TIP3   OH237511   5.874   6.179   5.328
12523TIP3    H137512   5.927   6.258   5.323
12523TIP3    H237513   5.784   6.210   5.324
12524TIP3   OH237514   1.438   4.098   5.384
12524TIP3    H137515   1.512   4.136   5.337
12524TIP3    H237516   1.456   4.004   5.387
12525TIP3   OH237517   5.088   6.201   3.125
12525TIP3    H137518   5.138   6.242   3.195
12525TIP3    H237519   5.105   6.108   3.135
12526TIP3   OH237520   7.706   0.659   6.123
12526TIP3    H137521   7.682   0.624   6.037
12526TIP3    H237522   7.767   0.730   6.103
12527TIP3   OH237523   5.652   2.509   1.256
12527TIP3    H137524   5.633   2.480   1.167
12527TIP3    H237525   5.582   2.572   1.276
12528TIP3   OH237526   8.298   1.201   0.757
12528TIP3    H137527   8.337   1.273   0.707
12528TIP3    H237528   8.302   1.231   0.848
12529TIP3   OH237529   3.744   6.002   3.143
12529TIP3    H137530   3.761   6.083   3.096
12529TIP3    H237531   3.822   5.988   3.197
12530TIP3   OH237532   2.771   5.320   6.228
12530TIP3    H137533   2.745   5.404   6.188
12530TIP3    H237534   2.740   5.254   6.166
12531TIP3   OH237535   3.737   4.581   2.662
12531TIP3    H137536   3.783   4.497   2.662
12531TIP3    H237537   3.724   4.601   2.569
12532TIP3   OH237538   1.692   1.793   5.983
12532TIP3    H137539   1.746   1.741   6.042
12532TIP3    H237540   1.733   1.879   5.982
12533TIP3   OH237541   2.694   5.495   5.125
12533TIP3    H137542   2.723   5.467   5.038
12533TIP3    H237543   2.759   5.560   5.151
12534TIP3   OH237544   5.419   4.933   6.017
12534TIP3    H137545   5.423   4.988   6.095
12534TIP3    H237546   5.399   4.845   6.051
12535TIP3   OH237547   2.061   7.352   4.803
12535TIP3    H137548   2.097   7.288   4.742
12535TIP3    H237549   2.137   7.400   4.835
12536TIP3   OH237550   5.163   0.180   3.981
12536TIP3    H137551   5.068   0.178   3.993
12536TIP3    H237552   5.176   0.237   3.905
12537TIP3   OH237553   2.737   0.543   0.756
12537TIP3    H137554   2.816   0.531   0.808
12537TIP3    H237555   2.763   0.606   0.688
12538TIP3   OH237556   7.367   6.569   3.737
12538TIP3    H137557   7.419   6.627   3.681
12538TIP3    H237558   7.279   6.575   3.701
12539TIP3   OH237559   4.294   5.036   3.505
12539TIP3    H137560   4.205   5.040   3.469
12539TIP3    H237561   4.303   5.117   3.555
12540TIP3   OH237562   7.659   3.699   0.008
12540TIP3    H137563   7.731   3.676   0.066
12540TIP3    H237564   7.675   3.791  -0.015
12541TIP3   OH237565   1.142   4.484   2.240
12541TIP3    H137566   1.087   4.453   2.168
12541TIP3    H237567   1.144   4.579   2.230
12542TIP3   OH237568   2.705   0.831   6.664
12542TIP3    H137569   2.779   0.779   6.633
12542TIP3    H237570   2.633   0.807   6.607
12543TIP3   OH237571   1.672   6.979   4.494
12543TIP3    H137572   1.603   6.928   4.452
12543TIP3    H237573   1.751   6.956   4.445
12544TIP3   OH237574   6.315   2.891   1.034
12544TIP3    H137575   6.366   2.844   0.968
12544TIP3    H237576   6.330   2.842   1.115
12545TIP3   OH237577   4.757   0.706   3.750
12545TIP3    H137578   4.783   0.777   3.691
12545TIP3    H237579   4.814   0.717   3.827
12546TIP3   OH237580   4.283   2.918   4.484
12546TIP3    H137581   4.376   2.896   4.473
12546TIP3    H237582   4.284   3.004   4.526
12547TIP3   OH237583   2.486   6.831   5.788
12547TIP3    H137584   2.464   6.800   5.876
12547TIP3    H237585   2.492   6.751   5.736
12548TIP3   OH237586   4.746   4.727   0.801
12548TIP3    H137587   4.684   4.662   0.833
12548TIP3    H237588   4.697   4.809   0.801
12549TIP3   OH237589   2.692   2.214   2.045
12549TIP3    H137590   2.628   2.162   1.997
12549TIP3    H237591   2.727   2.275   1.981
12550TIP3   OH237592   0.466   7.272   3.851
12550TIP3    H137593   0.506   7.358   3.836
12550TIP3    H237594   0.384   7.275   3.802
12551TIP3   OH237595   5.088   0.579   4.881
12551TIP3    H137596   5.037   0.561   4.960
12551TIP3    H237597   5.035   0.643   4.833
12552TIP3   OH237598   0.130   1.659   3.682
12552TIP3    H137599   0.105   1.627   3.769
12552TIP3    H237600   0.157   1.750   3.697
12553TIP3   OH237601   2.001   2.873   0.172
12553TIP3    H137602   2.031   2.805   0.232
12553TIP3    H237603   2.002   2.954   0.224
12554TIP3   OH237604  -0.070   0.355   2.693
12554TIP3    H137605  -0.063   0.352   2.598
12554TIP3    H237606  -0.002   0.417   2.721
12555TIP3   OH237607   4.382   3.634   6.348
12555TIP3    H137608   4.359   3.649   6.256
12555TIP3    H237609   4.388   3.722   6.385
12556TIP3   OH237610   5.072   6.398   0.918
12556TIP3    H137611   5.084   6.485   0.881
12556TIP3    H237612   4.981   6.398   0.950
12557TIP3   OH237613   3.520   1.914   3.322
12557TIP3    H137614   3.478   1.828   3.313
12557TIP3    H237615   3.536   1.942   3.232
12558TIP3   OH237616   0.856   4.462   2.061
12558TIP3    H137617   0.820   4.374   2.075
12558TIP3    H237618   0.929   4.448   2.000
12559TIP3   OH237619   2.917   2.536   1.845
12559TIP3    H137620   2.986   2.473   1.865
12559TIP3    H237621   2.848   2.484   1.803
12560TIP3   OH237622   2.342   6.242   0.162
12560TIP3    H137623   2.367   6.163   0.115
12560TIP3    H237624   2.251   6.229   0.186
12561TIP3   OH237625   5.922   7.459   2.577
12561TIP3    H137626   5.921   7.374   2.533
12561TIP3    H237627   5.946   7.521   2.507
12562TIP3   OH237628   4.919   1.370   5.976
12562TIP3    H137629   4.853   1.363   5.907
12562TIP3    H237630   4.997   1.330   5.939
12563TIP3   OH237631   2.469   5.489   3.927
12563TIP3    H137632   2.404   5.559   3.930
12563TIP3    H237633   2.457   5.441   4.008
12564TIP3   OH237634   4.780   5.976   1.683
12564TIP3    H137635   4.762   5.904   1.744
12564TIP3    H237636   4.875   5.989   1.688
12565TIP3   OH237637   7.001   2.151   3.564
12565TIP3    H137638   6.962   2.223   3.614
12565TIP3    H237639   6.997   2.180   3.473
12566TIP3   OH237640   3.851   6.435   5.674
12566TIP3    H137641   3.756   6.431   5.665
12566TIP3    H237642   3.867   6.425   5.768
12567TIP3   OH237643   0.714   5.161   3.116
12567TIP3    H137644   0.731   5.114   3.034
12567TIP3    H237645   0.619   5.158   3.126
12568TIP3   OH237646   4.662   6.195   1.933
12568TIP3    H137647   4.683   6.103   1.914
12568TIP3    H237648   4.601   6.191   2.006
12569TIP3   OH237649   6.974   7.626   4.235
12569TIP3    H137650   6.886   7.613   4.200
12569TIP3    H237651   6.961   7.662   4.322
12570TIP3   OH237652   0.707   6.286   0.342
12570TIP3    H137653   0.791   6.325   0.321
12570TIP3    H237654   0.722   6.242   0.426
12571TIP3   OH237655   6.969   1.877   2.862
12571TIP3    H137656   6.981   1.784   2.844
12571TIP3    H237657   7.024   1.894   2.939
12572TIP3   OH237658   4.027   4.514   2.497
12572TIP3    H137659   4.032   4.421   2.521
12572TIP3    H237660   3.968   4.516   2.422
12573TIP3   OH237661   0.514   4.882   3.198
12573TIP3    H137662   0.595   4.881   3.249
12573TIP3    H237663   0.453   4.829   3.250
12574TIP3   OH237664   3.203   5.227   6.715
12574TIP3    H137665   3.160   5.182   6.788
12574TIP3    H237666   3.145   5.214   6.640
12575TIP3   OH237667   1.896   0.855   5.474
12575TIP3    H137668   1.903   0.762   5.455
12575TIP3    H237669   1.820   0.885   5.424
12576TIP3   OH237670   7.241   2.563   1.750
12576TIP3    H137671   7.334   2.575   1.731
12576TIP3    H237672   7.215   2.488   1.696
12577TIP3   OH237673   3.794   0.489   2.712
12577TIP3    H137674   3.867   0.433   2.738
12577TIP3    H237675   3.718   0.449   2.754
12578TIP3   OH237676   6.092   0.881   6.194
12578TIP3    H137677   6.006   0.918   6.175
12578TIP3    H237678   6.086   0.853   6.285
12579TIP3   OH237679   4.168   3.266   4.317
12579TIP3    H137680   4.135   3.202   4.380
12579TIP3    H237681   4.096   3.277   4.255
12580TIP3   OH237682   1.296   0.597   6.184
12580TIP3    H137683   1.262   0.518   6.226
12580TIP3    H237684   1.236   0.614   6.112
12581TIP3   OH237685   3.801   2.501   3.182
12581TIP3    H137686   3.737   2.432   3.199
12581TIP3    H237687   3.872   2.456   3.136
12582TIP3   OH237688   5.935   5.669   5.668
12582TIP3    H137689   5.945   5.680   5.573
12582TIP3    H237690   5.916   5.576   5.679
12583TIP3   OH237691   1.931   7.169   5.485
12583TIP3    H137692   1.907   7.181   5.577
12583TIP3    H237693   1.858   7.205   5.436
12584TIP3   OH237694   3.084   3.215   0.256
12584TIP3    H137695   3.059   3.144   0.198
12584TIP3    H237696   3.040   3.195   0.339
12585TIP3   OH237697   1.565   1.467   5.304
12585TIP3    H137698   1.649   1.426   5.285
12585TIP3    H237699   1.517   1.403   5.356
12586TIP3   OH237700   3.680   1.617   5.985
12586TIP3    H137701   3.606   1.629   6.045
12586TIP3    H237702   3.755   1.601   6.041
12587TIP3   OH237703   6.312   6.059   1.611
12587TIP3    H137704   6.303   6.115   1.534
12587TIP3    H237705   6.354   6.115   1.676
12588TIP3   OH237706   5.739   5.992   6.767
12588TIP3    H137707   5.756   6.086   6.778
12588TIP3    H237708   5.763   5.973   6.676
12589TIP3   OH237709   6.226   7.314   2.019
12589TIP3    H137710   6.208   7.309   1.925
12589TIP3    H237711   6.143   7.290   2.060
12590TIP3   OH237712   5.903   0.584   0.202
12590TIP3    H137713   5.956   0.509   0.231
12590TIP3    H237714   5.866   0.556   0.119
12591TIP3   OH237715   3.873   7.172   5.061
12591TIP3    H137716   3.965   7.182   5.038
12591TIP3    H237717   3.874   7.135   5.149
12592TIP3   OH237718   0.803   4.549   3.707
12592TIP3    H137719   0.879   4.513   3.753
12592TIP3    H237720   0.833   4.559   3.616
12593TIP3   OH237721   5.652   5.217   2.168
12593TIP3    H137722   5.668   5.170   2.249
12593TIP3    H237723   5.616   5.302   2.195
12594TIP3   OH237724   2.142   3.182   2.039
12594TIP3    H137725   2.141   3.109   1.977
12594TIP3    H237726   2.069   3.164   2.098
12595TIP3   OH237727   2.376   7.392   6.663
12595TIP3    H137728   2.335   7.424   6.743
12595TIP3    H237729   2.362   7.463   6.599
12596TIP3   OH237730   2.079   0.328   3.130
12596TIP3    H137731   2.058   0.384   3.056
12596TIP3    H237732   2.152   0.274   3.100
12597TIP3   OH237733   5.530   5.460   0.597
12597TIP3    H137734   5.545   5.551   0.625
12597TIP3    H237735   5.615   5.418   0.606
12598TIP3   OH237736   4.885   7.601   3.714
12598TIP3    H137737   4.872   7.534   3.647
12598TIP3    H237738   4.817   7.584   3.779
12599TIP3   OH237739  -0.031   4.860   5.811
12599TIP3    H137740  -0.023   4.893   5.722
12599TIP3    H237741   0.014   4.925   5.866
12600TIP3   OH237742   1.296   5.774   5.544
12600TIP3    H137743   1.342   5.756   5.463
12600TIP3    H237744   1.358   5.751   5.613
12601TIP3   OH237745   7.941   2.955   5.214
12601TIP3    H137746   7.859   2.934   5.258
12601TIP3    H237747   7.984   3.018   5.273
12602TIP3   OH237748   6.631   0.931   1.586
12602TIP3    H137749   6.725   0.929   1.601
12602TIP3    H237750   6.621   0.931   1.491
12603TIP3   OH237751   0.699   5.689   3.525
12603TIP3    H137752   0.656   5.695   3.439
12603TIP3    H237753   0.631   5.712   3.588
12604TIP3   OH237754   5.015   3.984   0.531
12604TIP3    H137755   4.957   3.921   0.486
12604TIP3    H237756   4.981   3.987   0.620
12605TIP3   OH237757   1.243   6.077   1.832
12605TIP3    H137758   1.187   6.021   1.886
12605TIP3    H237759   1.331   6.067   1.869
12606TIP3   OH237760   6.928   4.716   1.959
12606TIP3    H137761   6.945   4.688   1.869
12606TIP3    H237762   7.005   4.768   1.983
12607TIP3   OH237763   8.153   6.090   1.218
12607TIP3    H137764   8.154   6.020   1.283
12607TIP3    H237765   8.138   6.046   1.135
12608TIP3   OH237766   6.662   6.391   0.168
12608TIP3    H137767   6.655   6.299   0.142
12608TIP3    H237768   6.645   6.391   0.262
12609TIP3   OH237769   3.333   7.199   2.934
12609TIP3    H137770   3.259   7.258   2.949
12609TIP3    H237771   3.405   7.237   2.984
12610TIP3   OH237772   1.211   3.138   0.273
12610TIP3    H137773   1.167   3.174   0.350
12610TIP3    H237774   1.298   3.178   0.274
12611TIP3   OH237775   5.266   5.664   1.887
12611TIP3    H137776   5.351   5.640   1.848
12611TIP3    H237777   5.246   5.750   1.850
12612TIP3   OH237778   4.763   5.207   0.330
12612TIP3    H137779   4.753   5.184   0.422
12612TIP3    H237780   4.822   5.140   0.295
12613TIP3   OH237781   5.402   6.131   5.860
12613TIP3    H137782   5.379   6.056   5.916
12613TIP3    H237783   5.498   6.128   5.854
12614TIP3   OH237784   0.306   7.527   2.143
12614TIP3    H137785   0.241   7.511   2.212
12614TIP3    H237786   0.285   7.615   2.111
12615TIP3   OH237787   2.379   2.553   1.915
12615TIP3    H137788   2.431   2.492   1.864
12615TIP3    H237789   2.443   2.601   1.968
12616TIP3   OH237790   5.178   4.360   3.293
12616TIP3    H137791   5.268   4.388   3.313
12616TIP3    H237792   5.154   4.304   3.366
12617TIP3   OH237793   1.295   2.162   4.603
12617TIP3    H137794   1.345   2.111   4.540
12617TIP3    H237795   1.217   2.110   4.620
12618TIP3   OH237796   3.801   5.841   2.255
12618TIP3    H137797   3.790   5.802   2.341
12618TIP3    H237798   3.882   5.803   2.221
12619TIP3   OH237799   3.890   4.136   1.821
12619TIP3    H137800   3.965   4.097   1.776
12619TIP3    H237801   3.923   4.219   1.855
12620TIP3   OH237802   0.495   0.179   1.820
12620TIP3    H137803   0.404   0.150   1.830
12620TIP3    H237804   0.494   0.269   1.853
12621TIP3   OH237805   0.182   3.662   4.137
12621TIP3    H137806   0.092   3.677   4.107
12621TIP3    H237807   0.224   3.615   4.065
12622TIP3   OH237808   2.489   7.564   0.150
12622TIP3    H137809   2.546   7.641   0.148
12622TIP3    H237810   2.406   7.596   0.187
12623TIP3   OH237811   6.259   3.439   0.049
12623TIP3    H137812   6.212   3.373   0.100
12623TIP3    H237813   6.319   3.479   0.112
12624TIP3   OH237814   5.559   6.057   3.634
12624TIP3    H137815   5.480   6.015   3.599
12624TIP3    H237816   5.579   6.007   3.713
12625TIP3   OH237817   4.396   4.394   3.665
12625TIP3    H137818   4.382   4.300   3.668
12625TIP3    H237819   4.367   4.420   3.577
12626TIP3   OH237820   4.909   4.950   6.718
12626TIP3    H137821   4.882   4.881   6.778
12626TIP3    H237822   4.841   5.016   6.724
12627TIP3   OH237823   0.411   4.370   5.320
12627TIP3    H137824   0.498   4.374   5.360
12627TIP3    H237825   0.352   4.352   5.393
12628TIP3   OH237826   6.468   5.714   0.367
12628TIP3    H137827   6.537   5.710   0.433
12628TIP3    H237828   6.434   5.625   0.362
12629TIP3   OH237829   6.977   5.847   4.261
12629TIP3    H137830   6.973   5.867   4.354
12629TIP3    H237831   7.071   5.839   4.243
12630TIP3   OH237832   1.083   0.798   1.350
12630TIP3    H137833   1.136   0.793   1.430
12630TIP3    H237834   1.071   0.706   1.324
12631TIP3   OH237835   2.598   3.345   1.673
12631TIP3    H137836   2.683   3.385   1.694
12631TIP3    H237837   2.535   3.393   1.727
12632TIP3   OH237838   4.698   7.608   0.333
12632TIP3    H137839   4.684   7.656   0.252
12632TIP3    H237840   4.757   7.663   0.384
12633TIP3   OH237841   1.938   7.153   0.374
12633TIP3    H137842   1.864   7.212   0.360
12633TIP3    H237843   1.928   7.086   0.307
12634TIP3   OH237844   1.207   1.728   6.249
12634TIP3    H137845   1.278   1.688   6.199
12634TIP3    H237846   1.186   1.808   6.200
12635TIP3   OH237847   7.038   4.733   4.708
12635TIP3    H137848   6.965   4.722   4.769
12635TIP3    H237849   7.107   4.773   4.761
12636TIP3   OH237850   1.097   7.264   1.335
12636TIP3    H137851   1.179   7.309   1.352
12636TIP3    H237852   1.099   7.188   1.393
12637TIP3   OH237853   6.790   6.357   2.654
12637TIP3    H137854   6.809   6.286   2.593
12637TIP3    H237855   6.718   6.405   2.613
12638TIP3   OH237856   3.899   7.431   2.185
12638TIP3    H137857   3.958   7.472   2.248
12638TIP3    H237858   3.918   7.475   2.102
12639TIP3   OH237859   0.334   6.903   3.522
12639TIP3    H137860   0.327   6.914   3.428
12639TIP3    H237861   0.246   6.921   3.556
12640TIP3   OH237862   5.776   0.344   5.625
12640TIP3    H137863   5.735   0.261   5.599
12640TIP3    H237864   5.710   0.386   5.680
12641TIP3   OH237865   0.652   1.560   1.015
12641TIP3    H137866   0.606   1.610   1.082
12641TIP3    H237867   0.640   1.468   1.041
12642TIP3   OH237868   6.915   6.226   4.702
12642TIP3    H137869   6.987   6.284   4.726
12642TIP3    H237870   6.949   6.138   4.716
12643TIP3   OH237871   2.217   1.629   0.455
12643TIP3    H137872   2.284   1.692   0.429
12643TIP3    H237873   2.266   1.550   0.478
12644TIP3   OH237874   7.935   7.875   6.034
12644TIP3    H137875   7.942   7.807   6.102
12644TIP3    H237876   7.945   7.957   6.082
12645TIP3   OH237877   7.614   1.416   5.013
12645TIP3    H137878   7.650   1.460   5.091
12645TIP3    H237879   7.686   1.363   4.980
12646TIP3   OH237880   1.005   0.338  -0.034
12646TIP3    H137881   0.938   0.285   0.009
12646TIP3    H237882   1.068   0.357   0.035
12647TIP3   OH237883   4.454   6.180   5.446
12647TIP3    H137884   4.423   6.125   5.518
12647TIP3    H237885   4.375   6.222   5.412
12648TIP3   OH237886   4.519   4.803   5.734
12648TIP3    H137887   4.502   4.709   5.740
12648TIP3    H237888   4.451   4.843   5.789
12649TIP3   OH237889   7.388   3.631   2.194
12649TIP3    H137890   7.298   3.624   2.227
12649TIP3    H237891   7.426   3.705   2.241
12650TIP3   OH237892   2.923   1.394   1.145
12650TIP3    H137893   2.962   1.430   1.065
12650TIP3    H237894   2.998   1.374   1.201
12651TIP3   OH237895   4.511   5.941   4.703
12651TIP3    H137896   4.479   5.930   4.614
12651TIP3    H237897   4.570   6.017   4.698
12652TIP3   OH237898   7.999   6.224   3.831
12652TIP3    H137899   7.906   6.215   3.854
12652TIP3    H237900   8.031   6.134   3.823
12653TIP3   OH237901   5.600   6.497   3.473
12653TIP3    H137902   5.606   6.409   3.437
12653TIP3    H237903   5.661   6.498   3.546
12654TIP3   OH237904   3.667   4.045   1.648
12654TIP3    H137905   3.692   4.005   1.565
12654TIP3    H237906   3.748   4.049   1.699
12655TIP3   OH237907   7.922   5.133   4.416
12655TIP3    H137908   7.964   5.169   4.494
12655TIP3    H237909   7.888   5.048   4.444
12656TIP3   OH237910   7.347   2.987   2.211
12656TIP3    H137911   7.277   2.996   2.146
12656TIP3    H237912   7.422   2.957   2.160
12657TIP3   OH237913   6.772   0.162   1.963
12657TIP3    H137914   6.710   0.120   1.903
12657TIP3    H237915   6.747   0.129   2.050
12658TIP3   OH237916   7.658   6.808   3.333
12658TIP3    H137917   7.730   6.768   3.285
12658TIP3    H237918   7.640   6.889   3.286
12659TIP3   OH237919   7.218   2.502   1.429
12659TIP3    H137920   7.251   2.428   1.480
12659TIP3    H237921   7.134   2.470   1.393
12660TIP3   OH237922   4.422   1.193   5.792
12660TIP3    H137923   4.333   1.225   5.781
12660TIP3    H237924   4.426   1.163   5.883
12661TIP3   OH237925   6.103   4.667   1.280
12661TIP3    H137926   6.134   4.733   1.341
12661TIP3    H237927   6.125   4.702   1.193
12662TIP3   OH237928   5.966   0.893   1.068
12662TIP3    H137929   5.978   0.857   1.156
12662TIP3    H237930   5.891   0.846   1.032
12663TIP3   OH237931   3.388   4.735   3.459
12663TIP3    H137932   3.367   4.745   3.367
12663TIP3    H237933   3.449   4.807   3.478
12664TIP3   OH237934   8.114   2.624   4.128
12664TIP3    H137935   8.022   2.638   4.103
12664TIP3    H237936   8.163   2.641   4.047
12665TIP3   OH237937   4.983   2.234   4.763
12665TIP3    H137938   5.011   2.304   4.703
12665TIP3    H237939   5.013   2.153   4.722
12666TIP3   OH237940   4.675   6.597   6.709
12666TIP3    H137941   4.696   6.539   6.783
12666TIP3    H237942   4.761   6.623   6.674
12667TIP3   OH237943   5.800   6.185   2.857
12667TIP3    H137944   5.863   6.117   2.833
12667TIP3    H237945   5.788   6.236   2.777
12668TIP3   OH237946   5.830   6.263   6.806
12668TIP3    H137947   5.925   6.258   6.818
12668TIP3    H237948   5.819   6.278   6.712
12669TIP3   OH237949   7.493   6.819   0.918
12669TIP3    H137950   7.556   6.768   0.970
12669TIP3    H237951   7.408   6.789   0.949
12670TIP3   OH237952   5.511   6.574   1.541
12670TIP3    H137953   5.546   6.515   1.607
12670TIP3    H237954   5.585   6.592   1.483
12671TIP3   OH237955   0.912   0.226   4.660
12671TIP3    H137956   0.846   0.261   4.600
12671TIP3    H237957   0.875   0.143   4.691
12672TIP3   OH237958   7.420   6.701   5.413
12672TIP3    H137959   7.477   6.692   5.337
12672TIP3    H237960   7.476   6.678   5.488
12673TIP3   OH237961   0.617   7.562   4.615
12673TIP3    H137962   0.563   7.574   4.693
12673TIP3    H237963   0.704   7.593   4.642
12674TIP3   OH237964   3.388   4.146   1.699
12674TIP3    H137965   3.466   4.104   1.664
12674TIP3    H237966   3.322   4.077   1.700
12675TIP3   OH237967   6.489   6.608   0.229
12675TIP3    H137968   6.459   6.661   0.156
12675TIP3    H237969   6.541   6.538   0.188
12676TIP3   OH237970   6.822   2.704   5.391
12676TIP3    H137971   6.870   2.743   5.318
12676TIP3    H237972   6.812   2.612   5.366
12677TIP3   OH237973   3.842   7.364   4.209
12677TIP3    H137974   3.797   7.377   4.292
12677TIP3    H237975   3.823   7.443   4.159
12678TIP3   OH237976   5.855   7.765   3.574
12678TIP3    H137977   5.867   7.740   3.482
12678TIP3    H237978   5.804   7.846   3.570
12679TIP3   OH237979   2.099   6.095   5.433
12679TIP3    H137980   2.191   6.067   5.425
12679TIP3    H237981   2.102   6.168   5.495
12680TIP3   OH237982   0.302   2.255   0.596
12680TIP3    H137983   0.386   2.289   0.629
12680TIP3    H237984   0.238   2.280   0.663
12681TIP3   OH237985   3.143   1.407   2.562
12681TIP3    H137986   3.177   1.437   2.646
12681TIP3    H237987   3.063   1.360   2.583
12682TIP3   OH237988   7.226   5.368   3.500
12682TIP3    H137989   7.214   5.453   3.542
12682TIP3    H237990   7.179   5.307   3.555
12683TIP3   OH237991   2.772   2.335   0.733
12683TIP3    H137992   2.822   2.400   0.781
12683TIP3    H237993   2.825   2.256   0.736
12684TIP3   OH237994   4.168   3.856   1.274
12684TIP3    H137995   4.221   3.778   1.290
12684TIP3    H237996   4.096   3.826   1.218
12685TIP3   OH237997   2.964   4.632   6.110
12685TIP3    H137998   2.970   4.727   6.104
12685TIP3    H237999   2.995   4.601   6.024
12686TIP3   OH238000   3.264   0.577   0.531
12686TIP3    H138001   3.192   0.514   0.542
12686TIP3    H238002   3.307   0.578   0.616
12687TIP3   OH238003   0.448   0.180   0.430
12687TIP3    H138004   0.512   0.248   0.412
12687TIP3    H238005   0.406   0.164   0.346
12688TIP3   OH238006   5.534   6.037   3.196
12688TIP3    H138007   5.619   5.999   3.221
12688TIP3    H238008   5.544   6.059   3.104
12689TIP3   OH238009   4.557   0.811   3.315
12689TIP3    H138010   4.593   0.747   3.377
12689TIP3    H238011   4.633   0.863   3.288
12690TIP3   OH238012   7.837   2.087   0.503
12690TIP3    H138013   7.746   2.080   0.532
12690TIP3    H238014   7.888   2.049   0.575
12691TIP3   OH238015   4.094   7.372   3.985
12691TIP3    H138016   4.132   7.335   3.905
12691TIP3    H238017   4.053   7.297   4.028
12692TIP3   OH238018   7.170   3.119   4.790
12692TIP3    H138019   7.113   3.107   4.714
12692TIP3    H238020   7.117   3.091   4.865
12693TIP3   OH238021   4.941   1.267   4.736
12693TIP3    H138022   4.973   1.357   4.729
12693TIP3    H238023   4.925   1.240   4.645
12694TIP3   OH238024   2.606   0.560   5.582
12694TIP3    H138025   2.672   0.491   5.591
12694TIP3    H238026   2.618   0.594   5.494
12695TIP3   OH238027   4.099   6.496   3.994
12695TIP3    H138028   4.185   6.514   4.032
12695TIP3    H238029   4.089   6.401   4.001
12696TIP3   OH238030   5.598   2.141   2.295
12696TIP3    H138031   5.590   2.090   2.214
12696TIP3    H238032   5.691   2.137   2.317
12697TIP3   OH238033   6.394   7.115   1.929
12697TIP3    H138034   6.332   7.042   1.924
12697TIP3    H238035   6.348   7.184   1.975
12698TIP3   OH238036   3.620   1.665   6.476
12698TIP3    H138037   3.676   1.593   6.505
12698TIP3    H238038   3.594   1.710   6.557
12699TIP3   OH238039   4.037   2.451   2.720
12699TIP3    H138040   4.051   2.403   2.639
12699TIP3    H238041   4.106   2.517   2.721
12700TIP3   OH238042   0.122   7.513   5.299
12700TIP3    H138043   0.197   7.500   5.357
12700TIP3    H238044   0.124   7.607   5.277
12701TIP3   OH238045   2.395   2.871   6.607
12701TIP3    H138046   2.335   2.820   6.662
12701TIP3    H238047   2.450   2.919   6.669
12702TIP3   OH238048   7.770   3.254   2.166
12702TIP3    H138049   7.744   3.225   2.254
12702TIP3    H238050   7.738   3.344   2.160
12703TIP3   OH238051   1.895   5.887   2.076
12703TIP3    H138052   1.835   5.850   2.011
12703TIP3    H238053   1.898   5.822   2.146
12704TIP3   OH238054   2.314   5.850   1.584
12704TIP3    H138055   2.322   5.945   1.573
12704TIP3    H238056   2.231   5.839   1.631
12705TIP3   OH238057   1.305   5.576   1.910
12705TIP3    H138058   1.371   5.512   1.883
12705TIP3    H238059   1.224   5.526   1.920
12706TIP3   OH238060   1.493   1.351   2.031
12706TIP3    H138061   1.582   1.357   1.998
12706TIP3    H238062   1.439   1.337   1.953
12707TIP3   OH238063   5.022   2.381   1.863
12707TIP3    H138064   5.083   2.363   1.792
12707TIP3    H238065   5.061   2.338   1.940
12708TIP3   OH238066   7.493   0.514   4.301
12708TIP3    H138067   7.437   0.445   4.265
12708TIP3    H238068   7.545   0.545   4.226
12709TIP3   OH238069   5.316   2.450   1.213
12709TIP3    H138070   5.385   2.497   1.259
12709TIP3    H238071   5.263   2.518   1.173
12710TIP3   OH238072   3.961   0.308   3.847
12710TIP3    H138073   3.890   0.276   3.902
12710TIP3    H238074   4.041   0.282   3.893
12711TIP3   OH238075   2.732   3.979   2.109
12711TIP3    H138076   2.783   3.900   2.097
12711TIP3    H238077   2.679   3.987   2.030
12712TIP3   OH238078   0.109   6.092   1.937
12712TIP3    H138079   0.091   6.183   1.958
12712TIP3    H238080   0.027   6.046   1.956
12713TIP3   OH238081   3.115   1.654   6.083
12713TIP3    H138082   3.135   1.583   6.022
12713TIP3    H238083   3.084   1.610   6.163
12714TIP3   OH238084   0.501   4.610   2.788
12714TIP3    H138085   0.408   4.633   2.782
12714TIP3    H238086   0.529   4.599   2.697
12715TIP3   OH238087   7.862   4.076   4.905
12715TIP3    H138088   7.910   4.013   4.851
12715TIP3    H238089   7.837   4.026   4.983
12716TIP3   OH238090   3.958   2.717   0.592
12716TIP3    H138091   4.032   2.761   0.635
12716TIP3    H238092   3.927   2.781   0.528
12717TIP3   OH238093   5.151   1.613   1.820
12717TIP3    H138094   5.135   1.686   1.880
12717TIP3    H238095   5.069   1.603   1.771
12718TIP3   OH238096   6.033   6.270   1.715
12718TIP3    H138097   5.953   6.304   1.755
12718TIP3    H238098   6.102   6.331   1.744
12719TIP3   OH238099   6.153   2.697   5.455
12719TIP3    H138100   6.074   2.750   5.471
12719TIP3    H238101   6.121   2.620   5.409
12720TIP3   OH238102   1.787   1.924   1.260
12720TIP3    H138103   1.826   1.939   1.174
12720TIP3    H238104   1.806   2.003   1.310
12721TIP3   OH238105   5.426   1.618   2.625
12721TIP3    H138106   5.372   1.682   2.579
12721TIP3    H238107   5.364   1.553   2.658
12722TIP3   OH238108   0.626   5.023   0.781
12722TIP3    H138109   0.593   5.112   0.770
12722TIP3    H238110   0.619   4.984   0.694
12723TIP3   OH238111   4.339   2.895   3.310
12723TIP3    H138112   4.295   2.824   3.357
12723TIP3    H238113   4.405   2.850   3.257
12724TIP3   OH238114   2.830   4.742   5.337
12724TIP3    H138115   2.840   4.775   5.427
12724TIP3    H238116   2.813   4.821   5.285
12725TIP3   OH238117   3.120   2.251   5.289
12725TIP3    H138118   3.202   2.208   5.316
12725TIP3    H238119   3.138   2.285   5.202
12726TIP3   OH238120   6.075   6.112   4.297
12726TIP3    H138121   6.083   6.064   4.215
12726TIP3    H238122   5.982   6.134   4.304
12727TIP3   OH238123   2.256   4.681   4.511
12727TIP3    H138124   2.224   4.638   4.432
12727TIP3    H238125   2.345   4.648   4.522
12728TIP3   OH238126   8.038   6.369   2.114
12728TIP3    H138127   7.952   6.406   2.135
12728TIP3    H238128   8.021   6.276   2.102
12729TIP3   OH238129   6.787   5.543   4.460
12729TIP3    H138130   6.763   5.455   4.434
12729TIP3    H238131   6.864   5.564   4.406
12730TIP3   OH238132   5.269   3.961   3.385
12730TIP3    H138133   5.184   4.006   3.389
12730TIP3    H238134   5.333   4.031   3.401
12731TIP3   OH238135   5.806   2.115   3.296
12731TIP3    H138136   5.833   2.029   3.265
12731TIP3    H238137   5.883   2.170   3.283
12732TIP3   OH238138   1.604   2.326   0.568
12732TIP3    H138139   1.607   2.293   0.658
12732TIP3    H238140   1.530   2.281   0.528
12733TIP3   OH238141   5.539   3.103   3.625
12733TIP3    H138142   5.487   3.125   3.702
12733TIP3    H238143   5.521   3.174   3.563
12734TIP3   OH238144   1.931   2.123   2.655
12734TIP3    H138145   2.027   2.119   2.662
12734TIP3    H238146   1.900   2.066   2.725
12735TIP3   OH238147   6.978   1.874   0.682
12735TIP3    H138148   7.060   1.888   0.730
12735TIP3    H238149   6.909   1.903   0.741
12736TIP3   OH238150   5.727   3.355   2.514
12736TIP3    H138151   5.634   3.343   2.535
12736TIP3    H238152   5.727   3.415   2.439
12737TIP3   OH238153   3.147   6.323   1.052
12737TIP3    H138154   3.215   6.386   1.026
12737TIP3    H238155   3.104   6.364   1.127
12738TIP3   OH238156   7.222   4.040   6.231
12738TIP3    H138157   7.234   4.119   6.284
12738TIP3    H238158   7.144   3.998   6.268
12739TIP3   OH238159   6.486   2.809   3.040
12739TIP3    H138160   6.403   2.764   3.029
12739TIP3    H238161   6.467   2.879   3.103
12740TIP3   OH238162   7.774   4.573   0.675
12740TIP3    H138163   7.811   4.541   0.757
12740TIP3    H238164   7.683   4.544   0.677
12741TIP3   OH238165   1.021   4.924   0.761
12741TIP3    H138166   1.023   5.017   0.737
12741TIP3    H238167   0.951   4.887   0.708
12742TIP3   OH238168   7.268   0.401   6.202
12742TIP3    H138169   7.240   0.328   6.147
12742TIP3    H238170   7.287   0.471   6.140
12743TIP3   OH238171   4.257   4.787   1.501
12743TIP3    H138172   4.255   4.722   1.571
12743TIP3    H238173   4.242   4.736   1.421
12744TIP3   OH238174   2.698   3.325   5.458
12744TIP3    H138175   2.626   3.263   5.448
12744TIP3    H238176   2.777   3.274   5.436
12745TIP3   OH238177   3.955   4.751   0.108
12745TIP3    H138178   4.043   4.723   0.081
12745TIP3    H238179   3.899   4.731   0.032
12746TIP3   OH238180   7.491   4.239   4.627
12746TIP3    H138181   7.528   4.327   4.624
12746TIP3    H238182   7.551   4.187   4.573
12747TIP3   OH238183   5.550   7.206   5.788
12747TIP3    H138184   5.581   7.116   5.794
12747TIP3    H238185   5.460   7.198   5.756
12748TIP3   OH238186   5.030   4.579   3.556
12748TIP3    H138187   5.035   4.502   3.613
12748TIP3    H238188   5.058   4.652   3.612
12749TIP3   OH238189   5.186   7.695   2.228
12749TIP3    H138190   5.248   7.718   2.159
12749TIP3    H238191   5.150   7.611   2.202
12750TIP3   OH238192   1.007   2.124   6.741
12750TIP3    H138193   0.966   2.109   6.655
12750TIP3    H238194   0.954   2.072   6.802
12751TIP3   OH238195   5.056   1.060   0.320
12751TIP3    H138196   5.084   1.080   0.231
12751TIP3    H238197   5.090   1.133   0.373
12752TIP3   OH238198   0.798   4.163   4.588
12752TIP3    H138199   0.715   4.194   4.624
12752TIP3    H238200   0.865   4.213   4.634
12753TIP3   OH238201   7.066   1.583   0.395
12753TIP3    H138202   6.992   1.642   0.409
12753TIP3    H238203   7.051   1.546   0.308
12754TIP3   OH238204   1.983   1.834   5.830
12754TIP3    H138205   1.988   1.893   5.905
12754TIP3    H238206   1.995   1.746   5.868
12755TIP3   OH238207   7.899   1.916   1.544
12755TIP3    H138208   7.820   1.865   1.565
12755TIP3    H238209   7.967   1.849   1.530
12756TIP3   OH238210   3.839   0.241   6.008
12756TIP3    H138211   3.764   0.219   5.953
12756TIP3    H238212   3.915   0.208   5.959
12757TIP3   OH238213   7.853   7.080   3.692
12757TIP3    H138214   7.905   7.000   3.685
12757TIP3    H238215   7.775   7.062   3.640
12758TIP3   OH238216   5.142   5.839   1.412
12758TIP3    H138217   5.127   5.876   1.325
12758TIP3    H238218   5.056   5.809   1.441
12759TIP3   OH238219   6.226   0.652   3.474
12759TIP3    H138220   6.247   0.683   3.562
12759TIP3    H238221   6.221   0.731   3.421
12760TIP3   OH238222   5.899   1.929   6.079
12760TIP3    H138223   5.958   1.986   6.029
12760TIP3    H238224   5.835   1.899   6.014
12761TIP3   OH238225   2.136   7.203   6.493
12761TIP3    H138226   2.188   7.177   6.417
12761TIP3    H238227   2.179   7.162   6.568
12762TIP3   OH238228   5.901   0.967   1.463
12762TIP3    H138229   5.987   0.946   1.500
12762TIP3    H238230   5.903   0.928   1.376
12763TIP3   OH238231   4.864   2.941   4.341
12763TIP3    H138232   4.840   2.860   4.385
12763TIP3    H238233   4.781   2.976   4.309
12764TIP3   OH238234   2.739   3.805   4.796
12764TIP3    H138235   2.802   3.764   4.738
12764TIP3    H238236   2.775   3.892   4.814
12765TIP3   OH238237   4.380   6.662   0.632
12765TIP3    H138238   4.333   6.590   0.674
12765TIP3    H238239   4.410   6.717   0.705
12766TIP3   OH238240   2.874   5.057   2.685
12766TIP3    H138241   2.880   5.031   2.777
12766TIP3    H238242   2.782   5.043   2.661
12767TIP3   OH238243   1.424   1.255   5.432
12767TIP3    H138244   1.415   1.161   5.419
12767TIP3    H238245   1.339   1.291   5.406
12768TIP3   OH238246   1.314   4.787   4.982
12768TIP3    H138247   1.382   4.805   4.916
12768TIP3    H238248   1.363   4.776   5.063
12769TIP3   OH238249   5.545   0.596   0.504
12769TIP3    H138250   5.509   0.632   0.423
12769TIP3    H238251   5.626   0.552   0.477
12770TIP3   OH238252   2.970   7.833   4.396
12770TIP3    H138253   2.899   7.887   4.429
12770TIP3    H238254   2.967   7.845   4.301
12771TIP3   OH238255   2.127   4.501   4.016
12771TIP3    H138256   2.067   4.427   4.023
12771TIP3    H238257   2.084   4.562   3.956
12772TIP3   OH238258   7.196   2.399   4.575
12772TIP3    H138259   7.128   2.453   4.616
12772TIP3    H238260   7.276   2.452   4.582
12773TIP3   OH238261   7.260   3.742   6.118
12773TIP3    H138262   7.181   3.792   6.100
12773TIP3    H238263   7.227   3.655   6.144
12774TIP3   OH238264   6.527   6.037   0.544
12774TIP3    H138265   6.432   6.036   0.529
12774TIP3    H238266   6.552   5.944   0.543
12775TIP3   OH238267   7.125   1.087   5.116
12775TIP3    H138268   7.188   1.025   5.153
12775TIP3    H238269   7.173   1.169   5.112
12776TIP3   OH238270   1.149   1.272   1.851
12776TIP3    H138271   1.187   1.204   1.907
12776TIP3    H238272   1.225   1.319   1.815
12777TIP3   OH238273   2.485   5.370   1.876
12777TIP3    H138274   2.435   5.442   1.915
12777TIP3    H238275   2.568   5.410   1.850
12778TIP3   OH238276   6.010   6.527   1.965
12778TIP3    H138277   5.988   6.441   2.001
12778TIP3    H238278   6.035   6.579   2.042
12779TIP3   OH238279   2.870   6.576   5.670
12779TIP3    H138280   2.816   6.541   5.599
12779TIP3    H238281   2.884   6.501   5.729
12780TIP3   OH238282   7.518   2.764   3.074
12780TIP3    H138283   7.605   2.743   3.040
12780TIP3    H238284   7.491   2.684   3.119
12781TIP3   OH238285   3.567   4.533   5.299
12781TIP3    H138286   3.569   4.532   5.203
12781TIP3    H238287   3.537   4.446   5.324
12782TIP3   OH238288   0.811   5.289   6.440
12782TIP3    H138289   0.791   5.347   6.513
12782TIP3    H238290   0.858   5.215   6.480
12783TIP3   OH238291   8.004   1.125   6.129
12783TIP3    H138292   8.009   1.221   6.121
12783TIP3    H238293   8.081   1.093   6.083
12784TIP3   OH238294   6.072   1.762   5.776
12784TIP3    H138295   6.033   1.746   5.862
12784TIP3    H238296   6.034   1.695   5.720
12785TIP3   OH238297   4.421   5.680   1.140
12785TIP3    H138298   4.382   5.743   1.201
12785TIP3    H238299   4.474   5.622   1.195
12786TIP3   OH238300   5.711   6.877   1.277
12786TIP3    H138301   5.689   6.892   1.369
12786TIP3    H238302   5.675   6.953   1.231
12787TIP3   OH238303   4.383   6.300   3.697
12787TIP3    H138304   4.374   6.292   3.602
12787TIP3    H238305   4.396   6.394   3.711
12788TIP3   OH238306   6.386   7.050   1.006
12788TIP3    H138307   6.314   7.021   1.063
12788TIP3    H238308   6.380   6.994   0.929
12789TIP3   OH238309   2.984   1.317   0.394
12789TIP3    H138310   3.068   1.304   0.349
12789TIP3    H238311   2.924   1.260   0.347
12790TIP3   OH238312   5.975   0.551   3.894
12790TIP3    H138313   5.922   0.628   3.874
12790TIP3    H238314   5.928   0.507   3.965
12791TIP3   OH238315   1.271   1.112   6.260
12791TIP3    H138316   1.306   1.024   6.244
12791TIP3    H238317   1.240   1.109   6.350
12792TIP3   OH238318   7.397   0.675   5.374
12792TIP3    H138319   7.306   0.651   5.392
12792TIP3    H238320   7.449   0.618   5.431
12793TIP3   OH238321   1.558   7.206   2.732
12793TIP3    H138322   1.503   7.130   2.746
12793TIP3    H238323   1.517   7.252   2.658
12794TIP3   OH238324   3.727   4.024   2.924
12794TIP3    H138325   3.779   3.955   2.965
12794TIP3    H238326   3.776   4.047   2.844
12795TIP3   OH238327   6.331   7.307   3.698
12795TIP3    H138328   6.414   7.268   3.725
12795TIP3    H238329   6.356   7.382   3.644
12796TIP3   OH238330   3.697   5.997   1.023
12796TIP3    H138331   3.666   6.053   0.952
12796TIP3    H238332   3.640   5.920   1.020
12797TIP3   OH238333   5.940   0.833   1.887
12797TIP3    H138334   6.003   0.849   1.957
12797TIP3    H238335   5.909   0.744   1.903
12798TIP3   OH238336   3.037   3.382   2.169
12798TIP3    H138337   3.105   3.341   2.116
12798TIP3    H238338   3.057   3.355   2.259
12799TIP3   OH238339   7.377   1.256   2.826
12799TIP3    H138340   7.301   1.238   2.882
12799TIP3    H238341   7.339   1.273   2.740
12800TIP3   OH238342   6.876   6.929   5.787
12800TIP3    H138343   6.886   6.833   5.788
12800TIP3    H238344   6.889   6.955   5.878
12801TIP3   OH238345   1.668   7.572   2.250
12801TIP3    H138346   1.701   7.594   2.162
12801TIP3    H238347   1.610   7.645   2.273
12802TIP3   OH238348   6.092   6.680   1.320
12802TIP3    H138349   6.042   6.623   1.379
12802TIP3    H238350   6.138   6.740   1.378
12803TIP3   OH238351   6.970   3.068   3.344
12803TIP3    H138352   7.028   3.043   3.416
12803TIP3    H238353   6.909   2.995   3.337
12804TIP3   OH238354   5.184   3.643   1.445
12804TIP3    H138355   5.277   3.664   1.439
12804TIP3    H238356   5.181   3.565   1.501
12805TIP3   OH238357   4.913   2.894   2.988
12805TIP3    H138358   4.875   2.871   2.903
12805TIP3    H238359   4.899   2.817   3.042
12806TIP3   OH238360   5.520   2.421   3.972
12806TIP3    H138361   5.573   2.348   3.940
12806TIP3    H238362   5.518   2.410   4.067
12807TIP3   OH238363   5.936   6.745   3.736
12807TIP3    H138364   5.964   6.771   3.824
12807TIP3    H238365   6.017   6.722   3.690
12808TIP3   OH238366   6.915   1.632   1.453
12808TIP3    H138367   6.894   1.725   1.450
12808TIP3    H238368   6.946   1.617   1.543
12809TIP3   OH238369   4.947   6.782   6.048
12809TIP3    H138370   5.012   6.759   6.114
12809TIP3    H238371   4.996   6.831   5.982
12810TIP3   OH238372   2.259   4.090   5.732
12810TIP3    H138373   2.328   4.143   5.771
12810TIP3    H238374   2.199   4.153   5.693
12811TIP3   OH238375   5.660   5.653   1.434
12811TIP3    H138376   5.567   5.629   1.432
12811TIP3    H238377   5.706   5.570   1.425
12812TIP3   OH238378   5.426   0.980   6.023
12812TIP3    H138379   5.457   0.923   6.093
12812TIP3    H238380   5.334   0.994   6.042
12813TIP3   OH238381   3.915   5.315   5.238
12813TIP3    H138382   4.006   5.322   5.210
12813TIP3    H238383   3.890   5.405   5.259
12814TIP3   OH238384   8.123   5.015   3.406
12814TIP3    H138385   8.164   5.033   3.491
12814TIP3    H238386   8.143   4.923   3.389
12815TIP3   OH238387   4.283   3.112   2.669
12815TIP3    H138388   4.357   3.091   2.726
12815TIP3    H238389   4.215   3.049   2.694
12816TIP3   OH238390   2.976   0.476   0.877
12816TIP3    H138391   3.003   0.428   0.798
12816TIP3    H238392   2.946   0.408   0.937
12817TIP3   OH238393   5.716   0.294   6.215
12817TIP3    H138394   5.637   0.247   6.242
12817TIP3    H238395   5.778   0.279   6.286
12818TIP3   OH238396   5.359   3.759   6.682
12818TIP3    H138397   5.303   3.801   6.747
12818TIP3    H238398   5.298   3.726   6.616
12819TIP3   OH238399   6.954   1.759   2.121
12819TIP3    H138400   6.886   1.723   2.065
12819TIP3    H238401   6.907   1.809   2.188
12820TIP3   OH238402   1.471   5.628   0.235
12820TIP3    H138403   1.567   5.630   0.240
12820TIP3    H238404   1.452   5.621   0.141
12821TIP3   OH238405   2.328   7.345   6.033
12821TIP3    H138406   2.393   7.301   6.088
12821TIP3    H238407   2.280   7.401   6.095
12822TIP3   OH238408   6.750   3.868   0.762
12822TIP3    H138409   6.669   3.846   0.716
12822TIP3    H238410   6.819   3.849   0.698
12823TIP3   OH238411   6.339   5.494   0.857
12823TIP3    H138412   6.410   5.529   0.910
12823TIP3    H238413   6.281   5.568   0.843
12824TIP3   OH238414   5.975   0.955   2.924
12824TIP3    H138415   5.886   0.985   2.943
12824TIP3    H238416   6.028   0.996   2.993
12825TIP3   OH238417   2.701   0.520   2.605
12825TIP3    H138418   2.659   0.498   2.688
12825TIP3    H238419   2.781   0.567   2.630
12826TIP3   OH238420   0.939   0.344   3.201
12826TIP3    H138421   0.868   0.300   3.154
12826TIP3    H238422   1.016   0.331   3.145
12827TIP3   OH238423   6.024   4.461   4.949
12827TIP3    H138424   6.090   4.397   4.976
12827TIP3    H238425   6.075   4.532   4.908
12828TIP3   OH238426   0.272   7.320   0.165
12828TIP3    H138427   0.295   7.313   0.072
12828TIP3    H238428   0.255   7.229   0.192
12829TIP3   OH238429   1.170   5.172   1.629
12829TIP3    H138430   1.264   5.165   1.649
12829TIP3    H238431   1.143   5.082   1.611
12830TIP3   OH238432   0.310   6.735   0.522
12830TIP3    H138433   0.397   6.773   0.536
12830TIP3    H238434   0.309   6.656   0.577
12831TIP3   OH238435   2.820   0.741   0.582
12831TIP3    H138436   2.864   0.820   0.550
12831TIP3    H238437   2.856   0.670   0.528
12832TIP3   OH238438   6.578   6.342   1.586
12832TIP3    H138439   6.577   6.285   1.664
12832TIP3    H238440   6.652   6.311   1.535
12833TIP3   OH238441   5.972   2.473   5.430
12833TIP3    H138442   6.001   2.384   5.450
12833TIP3    H238443   5.882   2.462   5.399
12834TIP3   OH238444   7.865   5.029   5.492
12834TIP3    H138445   7.921   5.033   5.569
12834TIP3    H238446   7.838   4.937   5.487
12835TIP3   OH238447   1.018   2.845   2.166
12835TIP3    H138448   0.983   2.922   2.122
12835TIP3    H238449   0.942   2.806   2.210
12836TIP3   OH238450   3.556   1.839  -0.093
12836TIP3    H138451   3.540   1.812  -0.003
12836TIP3    H238452   3.639   1.887  -0.089
12837TIP3   OH238453   4.917   1.228   3.378
12837TIP3    H138454   4.959   1.223   3.292
12837TIP3    H238455   4.987   1.207   3.440
12838TIP3   OH238456   0.354   7.191   4.388
12838TIP3    H138457   0.401   7.264   4.428
12838TIP3    H238458   0.377   7.196   4.295
12839TIP3   OH238459   0.669   7.061   2.493
12839TIP3    H138460   0.759   7.089   2.508
12839TIP3    H238461   0.626   7.138   2.457
12840TIP3   OH238462   0.935   0.164   4.024
12840TIP3    H138463   0.976   0.247   3.999
12840TIP3    H238464   0.853   0.162   3.974
12841TIP3   OH238465   4.726   0.809   2.805
12841TIP3    H138466   4.715   0.718   2.833
12841TIP3    H238467   4.647   0.854   2.836
12842TIP3   OH238468   0.676   4.246   2.096
12842TIP3    H138469   0.661   4.193   2.175
12842TIP3    H238470   0.615   4.210   2.032
12843TIP3   OH238471   0.178   0.532   1.070
12843TIP3    H138472   0.096   0.493   1.099
12843TIP3    H238473   0.170   0.536   0.974
12844TIP3   OH238474   4.178   1.380   4.644
12844TIP3    H138475   4.107   1.317   4.655
12844TIP3    H238476   4.141   1.450   4.591
12845TIP3   OH238477   6.731   1.092   2.635
12845TIP3    H138478   6.781   1.104   2.716
12845TIP3    H238479   6.793   1.114   2.565
12846TIP3   OH238480   7.643   7.583   3.516
12846TIP3    H138481   7.553   7.554   3.501
12846TIP3    H238482   7.638   7.678   3.519
12847TIP3   OH238483   6.284   3.669   0.364
12847TIP3    H138484   6.210   3.627   0.321
12847TIP3    H238485   6.354   3.604   0.361
12848TIP3   OH238486   0.148   7.000   5.620
12848TIP3    H138487   0.108   6.994   5.534
12848TIP3    H238488   0.226   6.945   5.614
12849TIP3   OH238489   7.489   5.718   4.183
12849TIP3    H138490   7.560   5.700   4.244
12849TIP3    H238491   7.460   5.806   4.205
12850TIP3   OH238492   4.669   6.195   4.703
12850TIP3    H138493   4.707   6.159   4.783
12850TIP3    H238494   4.735   6.256   4.670
12851TIP3   OH238495   7.095   6.616   3.672
12851TIP3    H138496   7.079   6.703   3.637
12851TIP3    H238497   7.020   6.564   3.642
12852TIP3   OH238498   6.122   7.299   3.883
12852TIP3    H138499   6.056   7.235   3.857
12852TIP3    H238500   6.170   7.318   3.802
12853TIP3   OH238501   1.473   5.268   6.685
12853TIP3    H138502   1.385   5.238   6.704
12853TIP3    H238503   1.493   5.232   6.598
12854TIP3   OH238504   5.845   7.573   4.081
12854TIP3    H138505   5.867   7.512   4.011
12854TIP3    H238506   5.812   7.518   4.152
12855TIP3   OH238507   5.464   7.695   1.132
12855TIP3    H138508   5.508   7.735   1.057
12855TIP3    H238509   5.386   7.654   1.095
12856TIP3   OH238510   1.214   5.825   1.118
12856TIP3    H138511   1.309   5.811   1.121
12856TIP3    H238512   1.180   5.749   1.071
12857TIP3   OH238513   5.749   4.521   3.632
12857TIP3    H138514   5.841   4.529   3.657
12857TIP3    H238515   5.738   4.582   3.559
12858TIP3   OH238516   4.134   3.721   4.186
12858TIP3    H138517   4.093   3.690   4.267
12858TIP3    H238518   4.065   3.715   4.120
12859TIP3   OH238519   5.395   3.534   0.137
12859TIP3    H138520   5.332   3.480   0.185
12859TIP3    H238521   5.358   3.541   0.049
12860TIP3   OH238522   2.746   7.854   2.739
12860TIP3    H138523   2.782   7.942   2.752
12860TIP3    H238524   2.815   7.795   2.768
12861TIP3   OH238525   1.935   4.082   2.120
12861TIP3    H138526   1.954   3.990   2.101
12861TIP3    H238527   1.992   4.131   2.061
12862TIP3   OH238528   7.707   0.832   0.716
12862TIP3    H138529   7.765   0.759   0.740
12862TIP3    H238530   7.733   0.903   0.775
12863TIP3   OH238531   5.822   1.113   2.391
12863TIP3    H138532   5.742   1.146   2.432
12863TIP3    H238533   5.878   1.088   2.465
12864TIP3   OH238534   2.552   6.254   5.197
12864TIP3    H138535   2.466   6.257   5.154
12864TIP3    H238536   2.603   6.322   5.154
12865TIP3   OH238537   1.598   4.674   0.731
12865TIP3    H138538   1.516   4.640   0.696
12865TIP3    H238539   1.612   4.626   0.813
12866TIP3   OH238540   4.427   6.203   3.189
12866TIP3    H138541   4.494   6.175   3.251
12866TIP3    H238542   4.424   6.134   3.123
12867TIP3   OH238543   5.574   0.139   6.444
12867TIP3    H138544   5.658   0.097   6.462
12867TIP3    H238545   5.511   0.068   6.444
12868TIP3   OH238546   7.781   5.623   5.054
12868TIP3    H138547   7.753   5.537   5.085
12868TIP3    H238548   7.876   5.616   5.048
12869TIP3   OH238549   5.901   4.781   5.492
12869TIP3    H138550   5.807   4.801   5.494
12869TIP3    H238551   5.938   4.830   5.564
12870TIP3   OH238552   3.669   0.093   1.229
12870TIP3    H138553   3.714   0.023   1.277
12870TIP3    H238554   3.637   0.152   1.297
12871TIP3   OH238555   8.117   1.646   1.397
12871TIP3    H138556   8.124   1.620   1.489
12871TIP3    H238557   8.032   1.613   1.369
12872TIP3   OH238558   7.565   5.043   4.432
12872TIP3    H138559   7.630   4.983   4.395
12872TIP3    H238560   7.494   4.986   4.462
12873TIP3   OH238561   3.855   1.454   6.557
12873TIP3    H138562   3.847   1.387   6.489
12873TIP3    H238563   3.945   1.486   6.548
12874TIP3   OH238564   6.061   4.359   2.748
12874TIP3    H138565   6.020   4.389   2.666
12874TIP3    H238566   5.987   4.344   2.807
12875TIP3   OH238567   3.327   2.904   3.154
12875TIP3    H138568   3.283   2.944   3.079
12875TIP3    H238569   3.288   2.817   3.161
12876TIP3   OH238570   0.556   3.203   0.212
12876TIP3    H138571   0.641   3.189   0.253
12876TIP3    H238572   0.568   3.280   0.156
12877TIP3   OH238573   7.496   7.222   5.997
12877TIP3    H138574   7.488   7.127   5.989
12877TIP3    H238575   7.516   7.251   5.908
12878TIP3   OH238576   6.610   4.625   5.858
12878TIP3    H138577   6.662   4.698   5.894
12878TIP3    H238578   6.521   4.641   5.893
12879TIP3   OH238579   4.969   7.044   4.132
12879TIP3    H138580   5.034   7.044   4.062
12879TIP3    H238581   4.937   6.954   4.135
12880TIP3   OH238582   1.280   3.595   6.125
12880TIP3    H138583   1.298   3.585   6.219
12880TIP3    H238584   1.250   3.686   6.116
12881TIP3   OH238585   6.648   1.357   4.300
12881TIP3    H138586   6.561   1.392   4.322
12881TIP3    H238587   6.633   1.303   4.223
12882TIP3   OH238588   4.502   5.563   6.434
12882TIP3    H138589   4.455   5.480   6.439
12882TIP3    H238590   4.435   5.630   6.442
12883TIP3   OH238591   0.432   3.700   4.946
12883TIP3    H138592   0.416   3.622   4.999
12883TIP3    H238593   0.519   3.730   4.973
12884TIP3   OH238594   3.348   0.656   6.726
12884TIP3    H138595   3.441   0.666   6.706
12884TIP3    H238596   3.330   0.563   6.712
12885TIP3   OH238597   6.433   2.816   6.081
12885TIP3    H138598   6.457   2.732   6.118
12885TIP3    H238599   6.490   2.826   6.004
12886TIP3   OH238600   6.273   6.412   3.780
12886TIP3    H138601   6.271   6.338   3.719
12886TIP3    H238602   6.271   6.372   3.867
12887TIP3   OH238603   6.895   7.649   1.819
12887TIP3    H138604   6.824   7.612   1.871
12887TIP3    H238605   6.933   7.718   1.874
12888TIP3   OH238606   2.312   1.308   4.515
12888TIP3    H138607   2.244   1.252   4.477
12888TIP3    H238608   2.264   1.375   4.564
12889TIP3   OH238609   2.193   2.545   3.102
12889TIP3    H138610   2.103   2.511   3.107
12889TIP3    H238611   2.247   2.477   3.142
12890TIP3   OH238612   6.247   5.276   3.707
12890TIP3    H138613   6.253   5.282   3.803
12890TIP3    H238614   6.298   5.350   3.675
12891TIP3   OH238615   7.753   7.300   6.080
12891TIP3    H138616   7.737   7.343   6.164
12891TIP3    H238617   7.681   7.237   6.071
12892TIP3   OH238618   0.269   4.596   0.150
12892TIP3    H138619   0.352   4.559   0.180
12892TIP3    H238620   0.281   4.690   0.157
12893TIP3   OH238621   4.377   7.141   5.281
12893TIP3    H138622   4.319   7.073   5.317
12893TIP3    H238623   4.326   7.222   5.289
12894TIP3   OH238624   2.933   4.510   2.325
12894TIP3    H138625   2.966   4.573   2.389
12894TIP3    H238626   2.949   4.424   2.365
12895TIP3   OH238627   6.570   5.975   5.720
12895TIP3    H138628   6.493   6.031   5.710
12895TIP3    H238629   6.570   5.949   5.812
12896TIP3   OH238630   4.940   2.135   5.015
12896TIP3    H138631   4.853   2.163   5.042
12896TIP3    H238632   4.938   2.140   4.919
12897TIP3   OH238633   1.363   7.758   6.489
12897TIP3    H138634   1.283   7.713   6.517
12897TIP3    H238635   1.332   7.827   6.430
12898TIP3   OH238636   2.152   0.162   1.008
12898TIP3    H138637   2.222   0.182   1.071
12898TIP3    H238638   2.071   0.184   1.055
12899TIP3   OH238639   6.000   2.974   6.211
12899TIP3    H138640   6.088   2.971   6.248
12899TIP3    H238641   6.000   3.053   6.157
12900TIP3   OH238642   6.782   1.984   3.344
12900TIP3    H138643   6.781   2.068   3.298
12900TIP3    H238644   6.863   1.942   3.315
12901TIP3   OH238645   0.934   7.084   5.704
12901TIP3    H138646   0.903   6.999   5.733
12901TIP3    H238647   0.879   7.147   5.750
12902TIP3   OH238648   7.375   5.301  -0.020
12902TIP3    H138649   7.433   5.345   0.041
12902TIP3    H238650   7.382   5.208   0.001
12903TIP3   OH238651   1.806   7.380   1.852
12903TIP3    H138652   1.779   7.304   1.904
12903TIP3    H238653   1.882   7.350   1.802
12904TIP3   OH238654   4.328   1.405   3.305
12904TIP3    H138655   4.241   1.386   3.340
12904TIP3    H238656   4.385   1.339   3.345
12905TIP3   OH238657   2.259   3.022   2.389
12905TIP3    H138658   2.212   3.101   2.416
12905TIP3    H238659   2.210   2.990   2.313
12906TIP3   OH238660   8.061   7.782   0.272
12906TIP3    H138661   8.080   7.829   0.353
12906TIP3    H238662   8.027   7.697   0.301
12907TIP3   OH238663   0.488   5.262   0.725
12907TIP3    H138664   0.519   5.352   0.720
12907TIP3    H238665   0.417   5.264   0.788
12908TIP3   OH238666   7.504   6.178   3.450
12908TIP3    H138667   7.599   6.189   3.440
12908TIP3    H238668   7.491   6.084   3.457
12909TIP3   OH238669   4.530   3.330   0.485
12909TIP3    H138670   4.569   3.243   0.472
12909TIP3    H238671   4.437   3.313   0.496
12910TIP3   OH238672   2.854   2.815   1.813
12910TIP3    H138673   2.886   2.725   1.816
12910TIP3    H238674   2.844   2.834   1.719
12911TIP3   OH238675   7.631   1.002   3.697
12911TIP3    H138676   7.558   1.062   3.706
12911TIP3    H238677   7.679   1.034   3.621
12912TIP3   OH238678   7.766   1.396   4.595
12912TIP3    H138679   7.749   1.360   4.682
12912TIP3    H238680   7.688   1.450   4.576
12913TIP3   OH238681   4.561   5.856   5.167
12913TIP3    H138682   4.602   5.941   5.153
12913TIP3    H238683   4.489   5.874   5.228
12914TIP3   OH238684   6.112   3.239   1.029
12914TIP3    H138685   6.061   3.179   1.083
12914TIP3    H238686   6.143   3.306   1.090
12915TIP3   OH238687   7.552   6.041   6.132
12915TIP3    H138688   7.555   6.074   6.043
12915TIP3    H238689   7.530   6.117   6.186
12916TIP3   OH238690   2.773   7.614   3.471
12916TIP3    H138691   2.705   7.681   3.463
12916TIP3    H238692   2.731   7.543   3.520
12917TIP3   OH238693   0.595   3.660   1.058
12917TIP3    H138694   0.563   3.715   0.987
12917TIP3    H238695   0.622   3.721   1.127
12918TIP3   OH238696   0.290   6.663   5.274
12918TIP3    H138697   0.333   6.596   5.327
12918TIP3    H238698   0.211   6.620   5.240
12919TIP3   OH238699   0.095   3.627   3.526
12919TIP3    H138700   0.184   3.593   3.538
12919TIP3    H238701   0.073   3.665   3.611
12920TIP3   OH238702   3.127   2.673   6.753
12920TIP3    H138703   3.185   2.691   6.828
12920TIP3    H238704   3.131   2.578   6.743
12921TIP3   OH238705   1.126   0.275   5.762
12921TIP3    H138706   1.082   0.190   5.761
12921TIP3    H238707   1.125   0.302   5.854
12922TIP3   OH238708   0.268   5.892   0.281
12922TIP3    H138709   0.183   5.934   0.294
12922TIP3    H238710   0.330   5.951   0.322
12923TIP3   OH238711   7.475   0.816   1.504
12923TIP3    H138712   7.471   0.724   1.478
12923TIP3    H238713   7.387   0.850   1.488
12924TIP3   OH238714   5.681   1.152   4.037
12924TIP3    H138715   5.593   1.163   4.073
12924TIP3    H238716   5.678   1.068   3.991
12925TIP3   OH238717   1.593   5.543   2.365
12925TIP3    H138718   1.507   5.582   2.352
12925TIP3    H238719   1.653   5.598   2.313
12926TIP3   OH238720   7.289   4.717   1.147
12926TIP3    H138721   7.337   4.649   1.099
12926TIP3    H238722   7.260   4.778   1.079
12927TIP3   OH238723   1.709   2.137   4.352
12927TIP3    H138724   1.737   2.108   4.265
12927TIP3    H238725   1.786   2.124   4.407
12928TIP3   OH238726   3.231   2.659   6.107
12928TIP3    H138727   3.299   2.614   6.157
12928TIP3    H238728   3.185   2.712   6.172
12929TIP3   OH238729   0.882   6.521   2.480
12929TIP3    H138730   0.886   6.451   2.415
12929TIP3    H238731   0.814   6.493   2.542
12930TIP3   OH238732   5.801   1.288   6.133
12930TIP3    H138733   5.726   1.250   6.178
12930TIP3    H238734   5.791   1.260   6.041
12931TIP3   OH238735   7.103   3.078   2.818
12931TIP3    H138736   7.068   3.072   2.729
12931TIP3    H238737   7.116   3.172   2.832
12932TIP3   OH238738   3.454   2.035   0.506
12932TIP3    H138739   3.426   2.122   0.535
12932TIP3    H238740   3.549   2.034   0.522
12933TIP3   OH238741   7.921  -0.039   1.281
12933TIP3    H138742   7.959  -0.018   1.195
12933TIP3    H238743   7.868   0.038   1.302
12934TIP3   OH238744   8.269   4.926   4.568
12934TIP3    H138745   8.236   4.838   4.589
12934TIP3    H238746   8.257   4.976   4.649
12935TIP3   OH238747   4.963   6.998   2.342
12935TIP3    H138748   4.945   7.022   2.251
12935TIP3    H238749   5.001   6.910   2.337
12936TIP3   OH238750   5.034   5.112   1.469
12936TIP3    H138751   5.068   5.053   1.536
12936TIP3    H238752   4.940   5.095   1.467
12937TIP3   OH238753   5.375   1.784   5.398
12937TIP3    H138754   5.451   1.740   5.361
12937TIP3    H238755   5.300   1.744   5.353
12938TIP3   OH238756   6.761   4.929   5.071
12938TIP3    H138757   6.807   4.920   5.154
12938TIP3    H238758   6.815   4.988   5.019
12939TIP3   OH238759   3.911   2.116   0.543
12939TIP3    H138760   3.982   2.169   0.507
12939TIP3    H238761   3.952   2.067   0.615
12940TIP3   OH238762   6.056   3.431   2.944
12940TIP3    H138763   6.074   3.474   2.860
12940TIP3    H238764   6.040   3.502   3.005
12941TIP3   OH238765   2.639   5.237   5.304
12941TIP3    H138766   2.566   5.275   5.255
12941TIP3    H238767   2.602   5.209   5.387
12942TIP3   OH238768   2.396  -0.013   0.029
12942TIP3    H138769   2.367   0.057  -0.031
12942TIP3    H238770   2.424   0.034   0.108
12943TIP3   OH238771   6.160   5.431   2.086
12943TIP3    H138772   6.091   5.456   2.148
12943TIP3    H238773   6.221   5.379   2.138
12944TIP3   OH238774   8.007   1.856   3.931
12944TIP3    H138775   8.070   1.848   4.003
12944TIP3    H238776   8.027   1.781   3.875
12945TIP3   OH238777   0.292   4.385   1.360
12945TIP3    H138778   0.256   4.325   1.425
12945TIP3    H238779   0.292   4.335   1.278
12946TIP3   OH238780   4.130   6.886   1.923
12946TIP3    H138781   4.071   6.961   1.925
12946TIP3    H238782   4.191   6.905   1.852
12947TIP3   OH238783   4.974   6.855   1.039
12947TIP3    H138784   4.984   6.941   0.998
12947TIP3    H238785   4.929   6.873   1.121
12948TIP3   OH238786   1.676   4.776   1.172
12948TIP3    H138787   1.609   4.832   1.133
12948TIP3    H238788   1.717   4.732   1.097
12949TIP3   OH238789   0.681   7.007   2.773
12949TIP3    H138790   0.653   7.016   2.682
12949TIP3    H238791   0.708   7.095   2.799
12950TIP3   OH238792   4.061   5.334   1.330
12950TIP3    H138793   3.979   5.376   1.307
12950TIP3    H238794   4.048   5.303   1.420
12951TIP3   OH238795   1.830   1.060   4.713
12951TIP3    H138796   1.897   1.125   4.689
12951TIP3    H238797   1.747   1.103   4.695
12952TIP3   OH238798   7.881   3.946   2.517
12952TIP3    H138799   7.813   3.890   2.556
12952TIP3    H238800   7.945   3.958   2.588
12953TIP3   OH238801   2.355   5.967   0.046
12953TIP3    H138802   2.292   5.911   0.093
12953TIP3    H238803   2.441   5.936   0.075
12954TIP3   OH238804   1.062   5.657   5.595
12954TIP3    H138805   0.991   5.707   5.554
12954TIP3    H238806   1.135   5.720   5.601
12955TIP3   OH238807   7.901   3.162   0.814
12955TIP3    H138808   7.916   3.204   0.729
12955TIP3    H238809   7.976   3.103   0.824
12956TIP3   OH238810   0.662   6.177   1.830
12956TIP3    H138811   0.624   6.232   1.762
12956TIP3    H238812   0.721   6.118   1.784
12957TIP3   OH238813   5.368   3.015   4.848
12957TIP3    H138814   5.434   3.084   4.854
12957TIP3    H238815   5.379   2.977   4.761
12958TIP3   OH238816   1.050   6.060   6.190
12958TIP3    H138817   1.062   5.996   6.119
12958TIP3    H238818   1.138   6.079   6.221
12959TIP3   OH238819   0.803   5.769   6.591
12959TIP3    H138820   0.821   5.813   6.675
12959TIP3    H238821   0.847   5.824   6.526
12960TIP3   OH238822   0.803   0.401   5.847
12960TIP3    H138823   0.789   0.367   5.759
12960TIP3    H238824   0.821   0.494   5.834
12961TIP3   OH238825   2.383   4.038   6.417
12961TIP3    H138826   2.340   3.981   6.352
12961TIP3    H238827   2.424   3.978   6.478
12962TIP3   OH238828   5.604   3.179   1.854
12962TIP3    H138829   5.616   3.086   1.836
12962TIP3    H238830   5.616   3.221   1.769
12963TIP3   OH238831   4.928   7.069   5.784
12963TIP3    H138832   4.960   7.156   5.761
12963TIP3    H238833   4.980   7.044   5.861
12964TIP3   OH238834   6.305   3.216   6.815
12964TIP3    H138835   6.386   3.247   6.855
12964TIP3    H238836   6.330   3.192   6.726
12965TIP3   OH238837   4.659   5.067   2.760
12965TIP3    H138838   4.726   5.107   2.816
12965TIP3    H238839   4.652   4.977   2.791
12966TIP3   OH238840   0.324   4.199   5.099
12966TIP3    H138841   0.399   4.207   5.158
12966TIP3    H238842   0.255   4.251   5.140
12967TIP3   OH238843   7.461   2.047   1.046
12967TIP3    H138844   7.410   2.110   0.997
12967TIP3    H238845   7.531   2.098   1.086
12968TIP3   OH238846   1.412   2.055   5.049
12968TIP3    H138847   1.439   2.100   5.130
12968TIP3    H238848   1.405   2.125   4.984
12969TIP3   OH238849   0.538   2.510   0.057
12969TIP3    H138850   0.461   2.488   0.111
12969TIP3    H238851   0.591   2.430   0.057
12970TIP3   OH238852   3.770   6.419   1.418
12970TIP3    H138853   3.774   6.342   1.362
12970TIP3    H238854   3.741   6.490   1.360
12971TIP3   OH238855   2.288   7.556   3.963
12971TIP3    H138856   2.336   7.479   3.992
12971TIP3    H238857   2.308   7.623   4.029
12972TIP3   OH238858   2.014   4.270   6.416
12972TIP3    H138859   2.090   4.265   6.358
12972TIP3    H238860   2.032   4.345   6.472
12973TIP3   OH238861   3.977   5.346   1.596
12973TIP3    H138862   3.974   5.439   1.573
12973TIP3    H238863   3.890   5.327   1.629
12974TIP3   OH238864   4.667   2.002   2.382
12974TIP3    H138865   4.717   1.960   2.312
12974TIP3    H238866   4.650   2.091   2.350
12975TIP3   OH238867   4.502   4.175   5.860
12975TIP3    H138868   4.501   4.080   5.852
12975TIP3    H238869   4.510   4.207   5.771
12976TIP3   OH238870   7.537   7.724   5.856
12976TIP3    H138871   7.539   7.809   5.900
12976TIP3    H238872   7.614   7.678   5.890
12977TIP3   OH238873   7.825   5.465   4.771
12977TIP3    H138874   7.877   5.401   4.820
12977TIP3    H238875   7.737   5.428   4.769
12978TIP3   OH238876   4.515   1.265   1.660
12978TIP3    H138877   4.453   1.338   1.653
12978TIP3    H238878   4.568   1.271   1.580
12979TIP3   OH238879   1.119   2.421   3.817
12979TIP3    H138880   1.062   2.382   3.751
12979TIP3    H238881   1.080   2.506   3.835
12980TIP3   OH238882   7.270   7.798   5.715
12980TIP3    H138883   7.202   7.856   5.679
12980TIP3    H238884   7.225   7.748   5.783
12981TIP3   OH238885   2.413   4.066   3.661
12981TIP3    H138886   2.404   3.974   3.635
12981TIP3    H238887   2.326   4.092   3.690
12982TIP3   OH238888   3.692   3.967   3.754
12982TIP3    H138889   3.638   4.014   3.690
12982TIP3    H238890   3.698   4.027   3.828
12983TIP3   OH238891   1.250   4.038   0.582
12983TIP3    H138892   1.195   4.081   0.647
12983TIP3    H238893   1.207   4.055   0.498
12984TIP3   OH238894   0.495   5.920   5.155
12984TIP3    H138895   0.533   6.007   5.147
12984TIP3    H238896   0.418   5.922   5.098
12985TIP3   OH238897   4.120   1.547   6.554
12985TIP3    H138898   4.117   1.463   6.508
12985TIP3    H238899   4.142   1.524   6.644
12986TIP3   OH238900   4.123   0.317   0.795
12986TIP3    H138901   4.179   0.303   0.719
12986TIP3    H238902   4.143   0.406   0.824
12987TIP3   OH238903   6.703   4.797   3.757
12987TIP3    H138904   6.690   4.721   3.814
12987TIP3    H238905   6.618   4.842   3.757
12988TIP3   OH238906   2.799   3.786   3.390
12988TIP3    H138907   2.751   3.858   3.350
12988TIP3    H238908   2.877   3.776   3.337
12989TIP3   OH238909   4.576   7.809   1.270
12989TIP3    H138910   4.577   7.823   1.175
12989TIP3    H238911   4.668   7.817   1.296
12990TIP3   OH238912   6.458   7.729   6.347
12990TIP3    H138913   6.451   7.814   6.303
12990TIP3    H238914   6.371   7.690   6.339
12991TIP3   OH238915   2.913   0.155   4.792
12991TIP3    H138916   2.898   0.231   4.850
12991TIP3    H238917   2.843   0.161   4.727
12992TIP3   OH238918   1.449   7.168   0.191
12992TIP3    H138919   1.521   7.179   0.129
12992TIP3    H238920   1.407   7.254   0.195
12993TIP3   OH238921   3.341   2.561   4.860
12993TIP3    H138922   3.319   2.523   4.775
12993TIP3    H238923   3.398   2.495   4.901
12994TIP3   OH238924   1.229   0.979   3.155
12994TIP3    H138925   1.136   0.977   3.179
12994TIP3    H238926   1.261   1.062   3.189
12995TIP3   OH238927   6.974   2.868   5.201
12995TIP3    H138928   7.041   2.937   5.200
12995TIP3    H238929   7.022   2.787   5.181
12996TIP3   OH238930   2.669   7.770   2.372
12996TIP3    H138931   2.592   7.724   2.339
12996TIP3    H238932   2.716   7.705   2.424
12997TIP3   OH238933   0.680   7.281   4.864
12997TIP3    H138934   0.702   7.214   4.928
12997TIP3    H238935   0.763   7.324   4.844
12998TIP3   OH238936   1.787   1.558   4.008
12998TIP3    H138937   1.706   1.581   3.962
12998TIP3    H238938   1.783   1.463   4.018
12999TIP3   OH238939   5.694   5.090   3.448
12999TIP3    H138940   5.765   5.079   3.385
12999TIP3    H238941   5.615   5.065   3.400
13000TIP3   OH238942   1.109   6.590   1.415
13000TIP3    H138943   1.112   6.498   1.392
13000TIP3    H238944   1.075   6.592   1.505
13001TIP3   OH238945   5.082   3.067   4.844
13001TIP3    H138946   5.177   3.056   4.857
13001TIP3    H238947   5.075   3.136   4.778
13002TIP3   OH238948   7.091   3.185   2.124
13002TIP3    H138949   7.095   3.222   2.036
13002TIP3    H238950   7.001   3.200   2.153
13003TIP3   OH238951   8.340   4.099   4.931
13003TIP3    H138952   8.389   4.031   4.885
13003TIP3    H238953   8.327   4.063   5.019
13004TIP3   OH238954   4.984   7.413   4.375
13004TIP3    H138955   4.930   7.445   4.303
13004TIP3    H238956   5.023   7.332   4.341
13005TIP3   OH238957   2.055   6.508   3.861
13005TIP3    H138958   2.040   6.571   3.791
13005TIP3    H238959   2.090   6.431   3.817
13006TIP3   OH238960   1.827   5.208   5.921
13006TIP3    H138961   1.785   5.123   5.931
13006TIP3    H238962   1.909   5.200   5.970
13007TIP3   OH238963   1.368   2.411   5.971
13007TIP3    H138964   1.315   2.427   5.893
13007TIP3    H238965   1.456   2.396   5.938
13008TIP3   OH238966   4.513   3.633   0.136
13008TIP3    H138967   4.502   3.539   0.127
13008TIP3    H238968   4.570   3.644   0.212
13009TIP3   OH238969   2.772   1.261   3.852
13009TIP3    H138970   2.766   1.170   3.822
13009TIP3    H238971   2.854   1.264   3.902
13010TIP3   OH238972   4.748   6.066   2.988
13010TIP3    H138973   4.831   6.021   2.998
13010TIP3    H238974   4.771   6.159   2.991
13011TIP3   OH238975   1.714   7.586   5.597
13011TIP3    H138976   1.710   7.564   5.690
13011TIP3    H238977   1.622   7.594   5.570
13012TIP3   OH238978   8.154   2.936   2.677
13012TIP3    H138979   8.088   3.005   2.666
13012TIP3    H238980   8.236   2.978   2.655
13013TIP3   OH238981   4.456   4.874   0.805
13013TIP3    H138982   4.478   4.957   0.846
13013TIP3    H238983   4.437   4.815   0.878
13014TIP3   OH238984   2.580   4.216   6.388
13014TIP3    H138985   2.502   4.162   6.396
13014TIP3    H238986   2.648   4.167   6.435
13015TIP3   OH238987   5.690   1.408   1.523
13015TIP3    H138988   5.735   1.334   1.562
13015TIP3    H238989   5.668   1.379   1.434
13016TIP3   OH238990   6.387   1.595   3.399
13016TIP3    H138991   6.367   1.524   3.460
13016TIP3    H238992   6.325   1.584   3.327
13017TIP3   OH238993   5.820   4.778   5.920
13017TIP3    H138994   5.758   4.711   5.892
13017TIP3    H238995   5.906   4.738   5.909
13018TIP3   OH238996   3.415   6.371   5.876
13018TIP3    H138997   3.372   6.323   5.805
13018TIP3    H238998   3.343   6.413   5.923
13019TIP3   OH238999   7.896   3.882   6.757
13019TIP3    H139000   7.886   3.906   6.849
13019TIP3    H239001   7.982   3.915   6.732
13020TIP3   OH239002   0.815   5.921   4.108
13020TIP3    H139003   0.838   5.970   4.187
13020TIP3    H239004   0.875   5.955   4.041
13021TIP3   OH239005   1.259   2.546   0.172
13021TIP3    H139006   1.188   2.598   0.136
13021TIP3    H239007   1.284   2.592   0.253
13022TIP3   OH239008   2.435   2.269   0.366
13022TIP3    H139009   2.478   2.187   0.341
13022TIP3    H239010   2.351   2.242   0.401
13023TIP3   OH239011   0.941   3.087   3.070
13023TIP3    H139012   1.010   3.032   3.033
13023TIP3    H239013   0.928   3.052   3.158
13024TIP3   OH239014   6.398   5.417   0.381
13024TIP3    H139015   6.446   5.420   0.464
13024TIP3    H239016   6.376   5.325   0.369
13025TIP3   OH239017   3.342   5.923   0.042
13025TIP3    H139018   3.303   5.836   0.051
13025TIP3    H239019   3.280   5.972  -0.013
13026TIP3   OH239020   7.811   0.794   1.226
13026TIP3    H139021   7.803   0.725   1.292
13026TIP3    H239022   7.750   0.769   1.157
13027TIP3   OH239023   2.734   7.710   0.109
13027TIP3    H139024   2.821   7.722   0.145
13027TIP3    H239025   2.738   7.624   0.066
13028TIP3   OH239026   1.949   1.160   4.252
13028TIP3    H139027   1.928   1.209   4.332
13028TIP3    H239028   1.967   1.071   4.283
13029TIP3   OH239029   2.218   1.677   2.223
13029TIP3    H139030   2.185   1.620   2.153
13029TIP3    H239031   2.245   1.616   2.292
13030TIP3   OH239032   4.999   4.348   5.016
13030TIP3    H139033   4.989   4.396   4.934
13030TIP3    H239034   4.923   4.290   5.019
13031TIP3   OH239035   2.144   0.074   4.950
13031TIP3    H139036   2.220   0.028   4.985
13031TIP3    H239037   2.147   0.056   4.856
13032TIP3   OH239038   8.080   1.674   3.697
13032TIP3    H139039   8.116   1.702   3.613
13032TIP3    H239040   8.157   1.664   3.754
13033TIP3   OH239041   3.824   4.440   6.311
13033TIP3    H139042   3.790   4.416   6.225
13033TIP3    H239043   3.877   4.365   6.338
13034TIP3   OH239044   5.347   3.220   1.600
13034TIP3    H139045   5.345   3.132   1.637
13034TIP3    H239046   5.439   3.247   1.605
13035TIP3   OH239047   1.465   0.728   4.997
13035TIP3    H139048   1.487   0.646   4.953
13035TIP3    H239049   1.536   0.741   5.061
13036TIP3   OH239050   6.559   7.095   6.399
13036TIP3    H139051   6.600   7.166   6.349
13036TIP3    H239052   6.613   7.018   6.381
13037TIP3   OH239053   3.418   0.410   2.778
13037TIP3    H139054   3.439   0.325   2.817
13037TIP3    H239055   3.486   0.424   2.712
13038TIP3   OH239056   2.814   7.195   1.151
13038TIP3    H139057   2.795   7.125   1.214
13038TIP3    H239058   2.767   7.170   1.072
13039TIP3   OH239059   4.923   0.048   4.709
13039TIP3    H139060   4.842   0.040   4.760
13039TIP3    H239061   4.894   0.085   4.625
13040TIP3   OH239062   5.762   6.153   0.920
13040TIP3    H139063   5.716   6.128   1.000
13040TIP3    H239064   5.699   6.204   0.870
13041TIP3   OH239065   3.889   1.937   4.154
13041TIP3    H139066   3.865   1.853   4.192
13041TIP3    H239067   3.819   1.957   4.091
13042TIP3   OH239068   6.434   6.192   4.979
13042TIP3    H139069   6.504   6.219   4.920
13042TIP3    H239070   6.461   6.226   5.065
13043TIP3   OH239071   6.158   0.561   2.883
13043TIP3    H139072   6.248   0.530   2.869
13043TIP3    H239073   6.121   0.567   2.795
13044TIP3   OH239074   2.800   3.733   0.054
13044TIP3    H139075   2.879   3.744   0.000
13044TIP3    H239076   2.728   3.752  -0.006
13045TIP3   OH239077   8.163   7.487   1.077
13045TIP3    H139078   8.185   7.437   1.156
13045TIP3    H239079   8.115   7.424   1.022
13046TIP3   OH239080   0.967   4.853   5.515
13046TIP3    H139081   0.954   4.867   5.422
13046TIP3    H239082   0.890   4.804   5.544
13047TIP3   OH239083   5.550   3.134   6.311
13047TIP3    H139084   5.477   3.083   6.348
13047TIP3    H239085   5.628   3.100   6.357
13048TIP3   OH239086   0.521   6.019   1.012
13048TIP3    H139087   0.599   5.973   1.042
13048TIP3    H239088   0.460   5.949   0.987
13049TIP3   OH239089   6.660   3.798   5.235
13049TIP3    H139090   6.725   3.753   5.181
13049TIP3    H239091   6.584   3.739   5.235
13050TIP3   OH239092   7.462   4.280   0.918
13050TIP3    H139093   7.539   4.235   0.884
13050TIP3    H239094   7.448   4.242   1.005
13051TIP3   OH239095   0.996   7.147   6.479
13051TIP3    H139096   0.914   7.120   6.520
13051TIP3    H239097   0.988   7.242   6.467
13052TIP3   OH239098   0.853   0.346   1.892
13052TIP3    H139099   0.948   0.341   1.886
13052TIP3    H239100   0.832   0.437   1.873
13053TIP3   OH239101   6.321   2.076   1.826
13053TIP3    H139102   6.318   2.022   1.905
13053TIP3    H239103   6.249   2.043   1.772
13054TIP3   OH239104   4.534   2.721   6.604
13054TIP3    H139105   4.546   2.711   6.699
13054TIP3    H239106   4.611   2.679   6.566
13055TIP3   OH239107   2.652   3.105   6.563
13055TIP3    H139108   2.670   3.080   6.654
13055TIP3    H239109   2.572   3.156   6.568
13056TIP3   OH239110   1.695   4.950   3.603
13056TIP3    H139111   1.677   4.935   3.696
13056TIP3    H239112   1.744   5.032   3.601
13057TIP3   OH239113   5.259   5.731   4.806
13057TIP3    H139114   5.259   5.817   4.848
13057TIP3    H239115   5.253   5.750   4.712
13058TIP3   OH239116   0.755   2.753   2.243
13058TIP3    H139117   0.709   2.834   2.220
13058TIP3    H239118   0.771   2.709   2.159
13059TIP3   OH239119   5.919   7.611   4.903
13059TIP3    H139120   5.972   7.685   4.874
13059TIP3    H239121   5.982   7.540   4.918
13060TIP3   OH239122   0.106   2.789   3.292
13060TIP3    H139123   0.014   2.769   3.310
13060TIP3    H239124   0.146   2.704   3.276
13061TIP3   OH239125   1.394   6.132   0.525
13061TIP3    H139126   1.317   6.186   0.541
13061TIP3    H239127   1.360   6.043   0.520
13062TIP3   OH239128   0.460   0.593   4.662
13062TIP3    H139129   0.395   0.663   4.666
13062TIP3    H239130   0.529   0.627   4.605
13063TIP3   OH239131   1.696   7.813   3.019
13063TIP3    H139132   1.731   7.724   3.021
13063TIP3    H239133   1.660   7.826   3.107
13064TIP3   OH239134   2.853   1.117   6.490
13064TIP3    H139135   2.774   1.104   6.542
13064TIP3    H239136   2.896   1.031   6.490
13065TIP3   OH239137   3.344   3.700   1.551
13065TIP3    H139138   3.319   3.656   1.470
13065TIP3    H239139   3.437   3.680   1.562
13066TIP3   OH239140   5.974   4.320   5.743
13066TIP3    H139141   6.051   4.374   5.725
13066TIP3    H239142   5.992   4.237   5.699
13067TIP3   OH239143   6.231   2.574   0.435
13067TIP3    H139144   6.327   2.576   0.443
13067TIP3    H239145   6.216   2.546   0.344
13068TIP3   OH239146   1.122   2.686   5.073
13068TIP3    H139147   1.061   2.613   5.066
13068TIP3    H239148   1.164   2.673   5.158
13069TIP3   OH239149   4.457   1.903   4.415
13069TIP3    H139150   4.483   1.813   4.400
13069TIP3    H239151   4.373   1.912   4.369
13070TIP3   OH239152   6.047   6.918   4.338
13070TIP3    H139153   6.026   6.856   4.407
13070TIP3    H239154   6.084   6.994   4.383
13071TIP3   OH239155   0.930   4.575   4.237
13071TIP3    H139156   1.014   4.593   4.280
13071TIP3    H239157   0.918   4.648   4.176
13072TIP3   OH239158   8.002   1.003   5.199
13072TIP3    H139159   8.000   1.082   5.144
13072TIP3    H239160   8.056   1.028   5.274
13073TIP3   OH239161   1.954   4.040   3.876
13073TIP3    H139162   1.863   4.052   3.900
13073TIP3    H239163   1.968   3.945   3.881
13074TIP3   OH239164   5.635   3.424   0.223
13074TIP3    H139165   5.672   3.489   0.282
13074TIP3    H239166   5.551   3.462   0.196
13075TIP3   OH239167   1.009   7.246   3.556
13075TIP3    H139168   0.986   7.327   3.600
13075TIP3    H239169   1.092   7.265   3.512
13076TIP3   OH239170   1.196   6.439   4.895
13076TIP3    H139171   1.229   6.402   4.976
13076TIP3    H239172   1.257   6.511   4.875
13077TIP3   OH239173   8.050   4.555   3.090
13077TIP3    H139174   8.007   4.635   3.121
13077TIP3    H239175   8.118   4.537   3.154
13078TIP3   OH239176   7.176   1.522   1.849
13078TIP3    H139177   7.210   1.607   1.877
13078TIP3    H239178   7.085   1.539   1.826
13079TIP3   OH239179   7.572   3.784   0.519
13079TIP3    H139180   7.664   3.811   0.519
13079TIP3    H239181   7.563   3.732   0.439
13080TIP3   OH239182   7.346   6.399   2.388
13080TIP3    H139183   7.398   6.430   2.462
13080TIP3    H239184   7.396   6.324   2.354
13081TIP3   OH239185   6.563   2.598   2.227
13081TIP3    H139186   6.647   2.608   2.271
13081TIP3    H239187   6.500   2.641   2.285
13082TIP3   OH239188   7.929   4.933   0.743
13082TIP3    H139189   7.957   4.905   0.830
13082TIP3    H239190   7.993   4.894   0.683
13083TIP3   OH239191   1.959   2.804   1.817
13083TIP3    H139192   2.020   2.730   1.820
13083TIP3    H239193   1.907   2.796   1.897
13084TIP3   OH239194   6.693   2.346   4.339
13084TIP3    H139195   6.747   2.400   4.396
13084TIP3    H239196   6.749   2.272   4.315
13085TIP3   OH239197   4.887   5.781   0.320
13085TIP3    H139198   4.965   5.824   0.286
13085TIP3    H239199   4.859   5.836   0.393
13086TIP3   OH239200   6.918   6.120   6.502
13086TIP3    H139201   6.974   6.053   6.542
13086TIP3    H239202   6.976   6.166   6.442
13087TIP3   OH239203   4.575   6.543   0.886
13087TIP3    H139204   4.496   6.512   0.841
13087TIP3    H239205   4.564   6.638   0.891
13088TIP3   OH239206   0.526   1.497   2.556
13088TIP3    H139207   0.484   1.446   2.625
13088TIP3    H239208   0.533   1.585   2.593
13089TIP3   OH239209   4.025   2.771   6.047
13089TIP3    H139210   4.062   2.685   6.028
13089TIP3    H239211   3.992   2.803   5.963
13090TIP3   OH239212   7.322   0.979   1.102
13090TIP3    H139213   7.394   1.042   1.094
13090TIP3    H239214   7.363   0.900   1.136
13091TIP3   OH239215   5.423   1.996   0.940
13091TIP3    H139216   5.351   1.933   0.930
13091TIP3    H239217   5.380   2.077   0.964
13092TIP3   OH239218   2.501   0.790   3.265
13092TIP3    H139219   2.414   0.829   3.259
13092TIP3    H239220   2.502   0.744   3.349
13093TIP3   OH239221   7.681   2.191   1.359
13093TIP3    H139222   7.666   2.208   1.266
13093TIP3    H239223   7.627   2.114   1.379
13094TIP3   OH239224   6.292   5.866   0.574
13094TIP3    H139225   6.347   5.816   0.514
13094TIP3    H239226   6.324   5.841   0.661
13095TIP3   OH239227   4.451   7.494   4.897
13095TIP3    H139228   4.539   7.517   4.866
13095TIP3    H239229   4.435   7.406   4.864
13096TIP3   OH239230   4.161   3.510   2.446
13096TIP3    H139231   4.177   3.528   2.538
13096TIP3    H239232   4.121   3.423   2.445
13097TIP3   OH239233   4.217   0.695   4.800
13097TIP3    H139234   4.185   0.783   4.780
13097TIP3    H239235   4.140   0.648   4.833
13098TIP3   OH239236   3.689   5.264   2.332
13098TIP3    H139237   3.737   5.323   2.391
13098TIP3    H239238   3.756   5.231   2.273
13099TIP3   OH239239   5.256   5.337   2.670
13099TIP3    H139240   5.163   5.346   2.649
13099TIP3    H239241   5.266   5.247   2.699
13100TIP3   OH239242   0.346   7.511   1.159
13100TIP3    H139243   0.405   7.552   1.222
13100TIP3    H239244   0.292   7.582   1.126
13101TIP3   OH239245   4.254   2.499   6.255
13101TIP3    H139246   4.258   2.594   6.258
13101TIP3    H239247   4.321   2.469   6.316
13102TIP3   OH239248   1.507   3.411   4.645
13102TIP3    H139249   1.485   3.345   4.709
13102TIP3    H239250   1.556   3.477   4.694
13103TIP3   OH239251   5.874   0.431   2.885
13103TIP3    H139252   5.923   0.351   2.866
13103TIP3    H239253   5.929   0.478   2.948
13104TIP3   OH239254   3.711   7.316   4.723
13104TIP3    H139255   3.628   7.283   4.758
13104TIP3    H239256   3.736   7.386   4.783
13105TIP3   OH239257   3.572   3.584   1.663
13105TIP3    H139258   3.521   3.557   1.739
13105TIP3    H239259   3.622   3.506   1.639
13106TIP3   OH239260   4.314   2.073   2.609
13106TIP3    H139261   4.229   2.062   2.566
13106TIP3    H239262   4.374   2.097   2.538
13107TIP3   OH239263   2.165   6.879   3.630
13107TIP3    H139264   2.137   6.943   3.564
13107TIP3    H239265   2.099   6.809   3.625
13108TIP3   OH239266   5.216   2.263   1.386
13108TIP3    H139267   5.252   2.337   1.336
13108TIP3    H239268   5.290   2.203   1.395
13109TIP3   OH239269   4.627   1.719   4.579
13109TIP3    H139270   4.567   1.657   4.539
13109TIP3    H239271   4.570   1.788   4.614
13110TIP3   OH239272   4.746   2.652   5.702
13110TIP3    H139273   4.712   2.712   5.769
13110TIP3    H239274   4.787   2.581   5.752
13111TIP3   OH239275   1.336   1.681   1.612
13111TIP3    H139276   1.425   1.691   1.644
13111TIP3    H239277   1.283   1.663   1.690
13112TIP3   OH239278   2.128   0.614   3.268
13112TIP3    H139279   2.155   0.692   3.219
13112TIP3    H239280   2.202   0.554   3.262
13113TIP3   OH239281   2.072   6.564   2.103
13113TIP3    H139282   2.137   6.500   2.072
13113TIP3    H239283   2.021   6.585   2.025
13114TIP3   OH239284   6.891   4.241   2.555
13114TIP3    H139285   6.799   4.214   2.543
13114TIP3    H239286   6.912   4.291   2.477
13115TIP3   OH239287   3.784   5.878   1.259
13115TIP3    H139288   3.768   5.910   1.171
13115TIP3    H239289   3.711   5.821   1.278
13116TIP3   OH239290   5.039   2.716   1.698
13116TIP3    H139291   4.962   2.687   1.747
13116TIP3    H239292   5.110   2.659   1.728
13117TIP3   OH239293   5.186   3.611   4.065
13117TIP3    H139294   5.180   3.520   4.035
13117TIP3    H239295   5.187   3.605   4.160
13118TIP3   OH239296   3.205   7.392   6.741
13118TIP3    H139297   3.117   7.429   6.730
13118TIP3    H239298   3.191   7.297   6.741
13119TIP3   OH239299   7.242   6.730   2.745
13119TIP3    H139300   7.155   6.723   2.786
13119TIP3    H239301   7.293   6.784   2.806
13120TIP3   OH239302   4.446   7.426   4.118
13120TIP3    H139303   4.435   7.351   4.177
13120TIP3    H239304   4.479   7.496   4.174
13121TIP3   OH239305   1.829   0.104   4.882
13121TIP3    H139306   1.854   0.108   4.789
13121TIP3    H239307   1.871   0.181   4.921
13122TIP3   OH239308   0.286   1.349   5.857
13122TIP3    H139309   0.377   1.376   5.849
13122TIP3    H239310   0.258   1.383   5.942
13123TIP3   OH239311   5.043   2.304   0.862
13123TIP3    H139312   5.044   2.339   0.951
13123TIP3    H239313   4.963   2.340   0.823
13124TIP3   OH239314   3.250   0.102   2.602
13124TIP3    H139315   3.184   0.160   2.640
13124TIP3    H239316   3.331   0.126   2.646
13125TIP3   OH239317   0.041   2.390   0.128
13125TIP3    H139318   0.109   2.448   0.094
13125TIP3    H239319   0.088   2.318   0.169
13126TIP3   OH239320   5.327   4.144   6.791
13126TIP3    H139321   5.410   4.163   6.833
13126TIP3    H239322   5.350   4.115   6.703
13127TIP3   OH239323   5.352   0.310   5.812
13127TIP3    H139324   5.330   0.263   5.892
13127TIP3    H239325   5.348   0.243   5.743
13128TIP3   OH239326   4.462   2.709   1.631
13128TIP3    H139327   4.548   2.667   1.630
13128TIP3    H239328   4.481   2.802   1.621
13129TIP3   OH239329   3.177   0.678   0.180
13129TIP3    H139330   3.250   0.616   0.185
13129TIP3    H239331   3.217   0.763   0.195
13130TIP3   OH239332   4.129   6.472   6.472
13130TIP3    H139333   4.079   6.553   6.463
13130TIP3    H239334   4.214   6.492   6.433
13131TIP3   OH239335   5.938   7.233   4.385
13131TIP3    H139336   6.012   7.187   4.426
13131TIP3    H239337   5.971   7.259   4.299
13132TIP3   OH239338   0.035   5.061   6.028
13132TIP3    H139339   0.083   5.034   6.106
13132TIP3    H239340   0.089   5.130   5.989
13133TIP3   OH239341   4.129   3.676   3.630
13133TIP3    H139342   4.196   3.707   3.690
13133TIP3    H239343   4.046   3.700   3.671
13134TIP3   OH239344   7.452   4.692   2.754
13134TIP3    H139345   7.493   4.611   2.724
13134TIP3    H239346   7.520   4.736   2.805
13135TIP3   OH239347   2.234   7.403   0.547
13135TIP3    H139348   2.286   7.425   0.470
13135TIP3    H239349   2.146   7.386   0.512
13136TIP3   OH239350   7.521   5.808   0.998
13136TIP3    H139351   7.512   5.746   1.070
13136TIP3    H239352   7.589   5.771   0.942
13137TIP3   OH239353   6.158   5.354   5.955
13137TIP3    H139354   6.159   5.395   6.041
13137TIP3    H239355   6.070   5.372   5.922
13138TIP3   OH239356   5.447   6.529   0.099
13138TIP3    H139357   5.539   6.517   0.126
13138TIP3    H239358   5.407   6.578   0.170
13139TIP3   OH239359   5.649   5.564   4.175
13139TIP3    H139360   5.643   5.468   4.172
13139TIP3    H239361   5.665   5.590   4.084
13140TIP3   OH239362   1.340   4.032   1.382
13140TIP3    H139363   1.328   3.972   1.455
13140TIP3    H239364   1.431   4.059   1.388
13141TIP3   OH239365   0.989   3.842   4.997
13141TIP3    H139366   0.962   3.868   5.086
13141TIP3    H239367   1.078   3.808   5.008
13142TIP3   OH239368   8.121   5.625   5.691
13142TIP3    H139369   8.130   5.720   5.700
13142TIP3    H239370   8.181   5.589   5.756
13143TIP3   OH239371   0.824   2.293   2.183
13143TIP3    H139372   0.751   2.261   2.128
13143TIP3    H239373   0.814   2.245   2.265
13144TIP3   OH239374   7.956   1.344   5.659
13144TIP3    H139375   7.908   1.278   5.709
13144TIP3    H239376   7.905   1.356   5.579
13145TIP3   OH239377   6.364   5.619   4.549
13145TIP3    H139378   6.335   5.538   4.592
13145TIP3    H239379   6.361   5.685   4.618
13146TIP3   OH239380   0.964   7.822   1.983
13146TIP3    H139381   0.996   7.903   1.943
13146TIP3    H239382   0.924   7.775   1.910
13147TIP3   OH239383   3.116   0.289   2.743
13147TIP3    H139384   3.200   0.335   2.740
13147TIP3    H239385   3.056   0.351   2.783
13148TIP3   OH239386   3.698   4.080   2.477
13148TIP3    H139387   3.679   4.001   2.527
13148TIP3    H239388   3.616   4.130   2.478
13149TIP3   OH239389   4.921   1.866   4.568
13149TIP3    H139390   4.830   1.895   4.574
13149TIP3    H239391   4.915   1.775   4.536
13150TIP3   OH239392   6.331   5.623   1.676
13150TIP3    H139393   6.398   5.671   1.626
13150TIP3    H239394   6.278   5.580   1.610
13151TIP3   OH239395   2.995   4.319   6.169
13151TIP3    H139396   2.982   4.298   6.077
13151TIP3    H239397   2.978   4.237   6.215
13152TIP3   OH239398   2.765   0.331   5.360
13152TIP3    H139399   2.775   0.421   5.331
13152TIP3    H239400   2.772   0.279   5.280
13153TIP3   OH239401   3.815   6.009   0.468
13153TIP3    H139402   3.758   6.080   0.438
13153TIP3    H239403   3.759   5.956   0.525
13154TIP3   OH239404   4.651   0.716   1.422
13154TIP3    H139405   4.570   0.672   1.399
13154TIP3    H239406   4.715   0.646   1.433
13155TIP3   OH239407   6.026   0.731   5.826
13155TIP3    H139408   6.092   0.667   5.853
13155TIP3    H239409   6.075   0.795   5.774
13156TIP3   OH239410   3.954   5.534   5.571
13156TIP3    H139411   3.867   5.496   5.557
13156TIP3    H239412   3.942   5.594   5.646
13157TIP3   OH239413   6.161   3.929   2.853
13157TIP3    H139414   6.224   3.878   2.904
13157TIP3    H239415   6.076   3.905   2.889
13158TIP3   OH239416   6.690   6.004   3.730
13158TIP3    H139417   6.604   6.037   3.703
13158TIP3    H239418   6.671   5.947   3.805
13159TIP3   OH239419   1.227   3.332   0.736
13159TIP3    H139420   1.145   3.334   0.785
13159TIP3    H239421   1.285   3.277   0.788
13160TIP3   OH239422   5.034   5.569   5.975
13160TIP3    H139423   5.013   5.628   5.903
13160TIP3    H239424   4.966   5.585   6.040
13161TIP3   OH239425   0.177   2.596   6.333
13161TIP3    H139426   0.236   2.522   6.320
13161TIP3    H239427   0.090   2.561   6.315
13162TIP3   OH239428   2.317   1.204   2.356
13162TIP3    H139429   2.285   1.123   2.317
13162TIP3    H239430   2.363   1.176   2.435
13163TIP3   OH239431   0.398   0.380   1.323
13163TIP3    H139432   0.433   0.448   1.265
13163TIP3    H239433   0.384   0.304   1.267
13164TIP3   OH239434   1.626   3.660   3.121
13164TIP3    H139435   1.691   3.591   3.105
13164TIP3    H239436   1.570   3.657   3.043
13165TIP3   OH239437   0.410   4.415   3.983
13165TIP3    H139438   0.468   4.418   3.907
13165TIP3    H239439   0.391   4.322   3.995
13166TIP3   OH239440   2.070   1.984   2.404
13166TIP3    H139441   2.089   1.988   2.498
13166TIP3    H239442   2.082   2.075   2.374
13167TIP3   OH239443   6.465   1.541   4.648
13167TIP3    H139444   6.424   1.497   4.574
13167TIP3    H239445   6.534   1.482   4.676
13168TIP3   OH239446   2.543   2.780   3.209
13168TIP3    H139447   2.548   2.807   3.117
13168TIP3    H239448   2.626   2.737   3.225
13169TIP3   OH239449   7.434   4.155   3.780
13169TIP3    H139450   7.522   4.131   3.810
13169TIP3    H239451   7.441   4.158   3.685
13170TIP3   OH239452   6.906   0.109   1.144
13170TIP3    H139453   6.820   0.152   1.143
13170TIP3    H239454   6.929   0.104   1.237
13171TIP3   OH239455   2.564   5.269   2.852
13171TIP3    H139456   2.572   5.174   2.866
13171TIP3    H239457   2.477   5.280   2.814
13172TIP3   OH239458   4.429   4.991   1.304
13172TIP3    H139459   4.433   5.071   1.356
13172TIP3    H239460   4.335   4.973   1.297
13173TIP3   OH239461   1.683   5.826   0.488
13173TIP3    H139462   1.637   5.748   0.519
13173TIP3    H239463   1.701   5.809   0.396
13174TIP3   OH239464   2.783   2.230   5.894
13174TIP3    H139465   2.735   2.175   5.955
13174TIP3    H239466   2.829   2.168   5.837
13175TIP3   OH239467   5.678   1.401   4.907
13175TIP3    H139468   5.666   1.306   4.904
13175TIP3    H239469   5.608   1.433   4.963
13176TIP3   OH239470   2.555   2.744   2.934
13176TIP3    H139471   2.584   2.653   2.931
13176TIP3    H239472   2.460   2.739   2.927
13177TIP3   OH239473   7.849   6.576   1.444
13177TIP3    H139474   7.855   6.653   1.388
13177TIP3    H239475   7.932   6.530   1.430
13178TIP3   OH239476   5.693   1.407   1.085
13178TIP3    H139477   5.640   1.484   1.106
13178TIP3    H239478   5.783   1.439   1.081
13179TIP3   OH239479   0.189   5.838   0.602
13179TIP3    H139480   0.123   5.872   0.541
13179TIP3    H239481   0.161   5.870   0.688
13180TIP3   OH239482   5.026   5.274   4.955
13180TIP3    H139483   5.075   5.268   4.874
13180TIP3    H239484   4.936   5.250   4.931
13181TIP3   OH239485   8.221  -0.053   5.339
13181TIP3    H139486   8.191  -0.141   5.363
13181TIP3    H239487   8.316  -0.061   5.329
13182TIP3   OH239488   2.162   4.312   2.410
13182TIP3    H139489   2.101   4.266   2.352
13182TIP3    H239490   2.167   4.400   2.374
13183TIP3   OH239491   6.632   2.508   0.700
13183TIP3    H139492   6.726   2.527   0.709
13183TIP3    H239493   6.591   2.559   0.770
13184TIP3   OH239494   5.694   7.697   0.578
13184TIP3    H139495   5.764   7.635   0.560
13184TIP3    H239496   5.621   7.668   0.523
13185TIP3   OH239497   4.878   1.611   4.465
13185TIP3    H139498   4.868   1.535   4.408
13185TIP3    H239499   4.797   1.614   4.516
13186TIP3   OH239500   3.777   0.851   0.076
13186TIP3    H139501   3.851   0.910   0.064
13186TIP3    H239502   3.775   0.834   0.170
13187TIP3   OH239503   3.429   1.628   2.704
13187TIP3    H139504   3.370   1.579   2.760
13187TIP3    H239505   3.484   1.561   2.662
13188TIP3   OH239506   1.362   7.758   1.787
13188TIP3    H139507   1.438   7.802   1.750
13188TIP3    H239508   1.373   7.765   1.882
13189TIP3   OH239509   1.157   6.804   6.721
13189TIP3    H139510   1.210   6.771   6.649
13189TIP3    H239511   1.161   6.900   6.711
13190TIP3   OH239512   5.437   0.348   0.996
13190TIP3    H139513   5.437   0.411   0.925
13190TIP3    H239514   5.449   0.263   0.953
13191TIP3   OH239515   0.661   7.002   2.116
13191TIP3    H139516   0.728   7.045   2.063
13191TIP3    H239517   0.696   7.003   2.205
13192TIP3   OH239518   6.276   7.251   6.063
13192TIP3    H139519   6.188   7.287   6.069
13192TIP3    H239520   6.272   7.168   6.110
13193TIP3   OH239521   6.977   5.729   1.353
13193TIP3    H139522   6.990   5.659   1.416
13193TIP3    H239523   6.941   5.801   1.404
13194TIP3   OH239524   4.061   1.825   0.170
13194TIP3    H139525   4.071   1.887   0.098
13194TIP3    H239526   4.089   1.873   0.247
13195TIP3   OH239527   3.603   0.150   5.767
13195TIP3    H139528   3.515   0.158   5.730
13195TIP3    H239529   3.604   0.064   5.809
13196TIP3   OH239530   3.521   2.050   2.599
13196TIP3    H139531   3.468   1.995   2.541
13196TIP3    H239532   3.541   2.127   2.546
13197TIP3   OH239533   5.666   3.659   6.077
13197TIP3    H139534   5.687   3.723   6.009
13197TIP3    H239535   5.581   3.687   6.111
13198TIP3   OH239536   3.323   1.235   4.806
13198TIP3    H139537   3.266   1.310   4.820
13198TIP3    H239538   3.385   1.238   4.879
13199TIP3   OH239539   4.490   7.169   5.994
13199TIP3    H139540   4.497   7.263   6.007
13199TIP3    H239541   4.581   7.139   5.985
13200TIP3   OH239542   0.512   4.897   3.788
13200TIP3    H139543   0.444   4.951   3.828
13200TIP3    H239544   0.466   4.843   3.724
13201TIP3   OH239545   3.296   7.784   6.444
13201TIP3    H139546   3.201   7.785   6.441
13201TIP3    H239547   3.318   7.806   6.535
13202TIP3   OH239548   6.308   2.606   1.452
13202TIP3    H139549   6.214   2.599   1.469
13202TIP3    H239550   6.349   2.600   1.538
13203TIP3   OH239551   2.233   2.952   4.570
13203TIP3    H139552   2.170   3.004   4.520
13203TIP3    H239553   2.189   2.937   4.654
13204TIP3   OH239554   7.155   4.512   5.090
13204TIP3    H139555   7.171   4.501   5.184
13204TIP3    H239556   7.127   4.603   5.081
13205TIP3   OH239557   6.249   6.610   6.499
13205TIP3    H139558   6.227   6.521   6.526
13205TIP3    H239559   6.338   6.604   6.464
13206TIP3   OH239560   2.693   2.032   0.044
13206TIP3    H139561   2.690   1.936   0.045
13206TIP3    H239562   2.786   2.053   0.050
13207TIP3   OH239563   7.623   0.682   1.059
13207TIP3    H139564   7.573   0.715   0.985
13207TIP3    H239565   7.654   0.596   1.031
13208TIP3   OH239566   2.304   0.560   5.818
13208TIP3    H139567   2.259   0.507   5.884
13208TIP3    H239568   2.265   0.647   5.826
13209TIP3   OH239569   4.016   0.714   2.065
13209TIP3    H139570   4.019   0.738   1.973
13209TIP3    H239571   4.102   0.674   2.082
13210TIP3   OH239572   5.231   7.453   1.671
13210TIP3    H139573   5.290   7.378   1.676
13210TIP3    H239574   5.264   7.505   1.598
13211TIP3   OH239575   0.782   5.508   6.642
13211TIP3    H139576   0.780   5.601   6.618
13211TIP3    H239577   0.872   5.494   6.674
13212TIP3   OH239578   2.684   7.235   4.264
13212TIP3    H139579   2.724   7.188   4.191
13212TIP3    H239580   2.721   7.323   4.258
13213TIP3   OH239581   5.195   1.304   6.408
13213TIP3    H139582   5.258   1.303   6.479
13213TIP3    H239583   5.158   1.392   6.409
13214TIP3   OH239584   1.580   0.219   4.233
13214TIP3    H139585   1.505   0.249   4.284
13214TIP3    H239586   1.656   0.236   4.289
13215TIP3   OH239587   1.678   2.385   1.900
13215TIP3    H139588   1.696   2.317   1.965
13215TIP3    H239589   1.705   2.347   1.817
13216TIP3   OH239590   1.686   6.775   1.622
13216TIP3    H139591   1.774   6.785   1.658
13216TIP3    H239592   1.655   6.865   1.609
13217TIP3   OH239593   2.702   4.678   4.382
13217TIP3    H139594   2.672   4.761   4.345
13217TIP3    H239595   2.793   4.669   4.353
13218TIP3   OH239596   7.923   1.209   3.747
13218TIP3    H139597   7.861   1.183   3.679
13218TIP3    H239598   7.879   1.280   3.793
13219TIP3   OH239599   4.272   6.909   3.614
13219TIP3    H139600   4.255   6.989   3.564
13219TIP3    H239601   4.365   6.914   3.636
13220TIP3   OH239602   7.467   2.307   5.192
13220TIP3    H139603   7.441   2.262   5.273
13220TIP3    H239604   7.546   2.355   5.215
13221TIP3   OH239605   1.360   6.915   4.696
13221TIP3    H139606   1.307   6.837   4.710
13221TIP3    H239607   1.301   6.988   4.718
13222TIP3   OH239608   3.670   1.276   3.827
13222TIP3    H139609   3.584   1.311   3.852
13222TIP3    H239610   3.677   1.294   3.733
13223TIP3   OH239611   3.611   0.629   6.679
13223TIP3    H139612   3.694   0.629   6.727
13223TIP3    H239613   3.623   0.562   6.611
13224TIP3   OH239614   0.694   5.980   2.540
13224TIP3    H139615   0.722   6.022   2.459
13224TIP3    H239616   0.679   6.053   2.601
13225TIP3   OH239617   3.161   4.461   5.643
13225TIP3    H139618   3.243   4.503   5.618
13225TIP3    H239619   3.093   4.508   5.595
13226TIP3   OH239620   2.889   1.084   4.528
13226TIP3    H139621   2.972   1.117   4.491
13226TIP3    H239622   2.826   1.153   4.508
13227TIP3   OH239623   0.734   6.078   5.429
13227TIP3    H139624   0.777   6.145   5.376
13227TIP3    H239625   0.652   6.118   5.458
13228TIP3   OH239626   4.776   1.617   3.146
13228TIP3    H139627   4.790   1.561   3.070
13228TIP3    H239628   4.771   1.557   3.220
13229TIP3   OH239629   2.540   6.862   4.728
13229TIP3    H139630   2.600   6.847   4.656
13229TIP3    H239631   2.579   6.934   4.778
13230TIP3   OH239632   7.215   3.938   0.780
13230TIP3    H139633   7.217   3.961   0.873
13230TIP3    H239634   7.302   3.902   0.763
13231TIP3   OH239635   6.559   5.278   4.170
13231TIP3    H139636   6.522   5.359   4.206
13231TIP3    H239637   6.490   5.213   4.181
13232TIP3   OH239638   4.466   3.251   6.376
13232TIP3    H139639   4.435   3.182   6.435
13232TIP3    H239640   4.444   3.219   6.288
13233TIP3   OH239641   7.944   2.213   5.546
13233TIP3    H139642   7.939   2.179   5.457
13233TIP3    H239643   7.883   2.287   5.548
13234TIP3   OH239644   4.631   5.252   2.528
13234TIP3    H139645   4.626   5.204   2.611
13234TIP3    H239646   4.680   5.331   2.550
13235TIP3   OH239647   1.611   3.249   2.828
13235TIP3    H139648   1.702   3.255   2.857
13235TIP3    H239649   1.566   3.208   2.902
13236TIP3   OH239650   1.935   2.235   2.210
13236TIP3    H139651   1.882   2.229   2.290
13236TIP3    H239652   2.022   2.207   2.237
13237TIP3   OH239653   7.754   3.431   1.320
13237TIP3    H139654   7.833   3.432   1.374
13237TIP3    H239655   7.769   3.361   1.256
13238TIP3   OH239656   0.696   3.936   4.299
13238TIP3    H139657   0.622   3.928   4.359
13238TIP3    H239658   0.713   4.030   4.293
13239TIP3   OH239659   7.942   4.147   0.296
13239TIP3    H139660   7.892   4.207   0.350
13239TIP3    H239661   8.033   4.177   0.304
13240TIP3   OH239662   4.294   0.701   6.277
13240TIP3    H139663   4.301   0.615   6.320
13240TIP3    H239664   4.312   0.764   6.347
13241TIP3   OH239665   2.108   0.526   0.711
13241TIP3    H139666   2.184   0.474   0.686
13241TIP3    H239667   2.139   0.617   0.708
13242TIP3   OH239668   1.337   1.658   4.868
13242TIP3    H139669   1.310   1.694   4.784
13242TIP3    H239670   1.398   1.588   4.846
13243TIP3   OH239671   7.633   6.997   3.565
13243TIP3    H139672   7.667   6.920   3.518
13243TIP3    H239673   7.549   6.967   3.601
13244TIP3   OH239674   5.619   0.237   1.260
13244TIP3    H139675   5.590   0.182   1.188
13244TIP3    H239676   5.637   0.176   1.331
13245TIP3   OH239677   1.747   0.806   6.431
13245TIP3    H139678   1.692   0.783   6.356
13245TIP3    H239679   1.830   0.836   6.392
13246TIP3   OH239680   2.473   4.537   6.356
13246TIP3    H139681   2.524   4.462   6.385
13246TIP3    H239682   2.392   4.533   6.407
13247TIP3   OH239683   3.649   5.787   1.662
13247TIP3    H139684   3.571   5.742   1.632
13247TIP3    H239685   3.619   5.841   1.735
13248TIP3   OH239686   4.362   3.968   2.558
13248TIP3    H139687   4.375   4.052   2.514
13248TIP3    H239688   4.356   3.905   2.486
13249TIP3   OH239689   2.939   3.124   1.277
13249TIP3    H139690   2.857   3.173   1.267
13249TIP3    H239691   2.912   3.038   1.310
13250TIP3   OH239692   2.321   0.731   0.636
13250TIP3    H139693   2.413   0.760   0.635
13250TIP3    H239694   2.271   0.813   0.639
13251TIP3   OH239695   2.306   5.421   1.508
13251TIP3    H139696   2.388   5.455   1.544
13251TIP3    H239697   2.262   5.382   1.584
13252TIP3   OH239698   1.922   2.029   5.110
13252TIP3    H139699   1.972   2.072   5.179
13252TIP3    H239700   1.833   2.063   5.119
13253TIP3   OH239701   4.546   1.515   5.615
13253TIP3    H139702   4.559   1.446   5.680
13253TIP3    H239703   4.606   1.493   5.544
13254TIP3   OH239704   3.028   4.773   4.433
13254TIP3    H139705   2.975   4.817   4.499
13254TIP3    H239706   3.071   4.844   4.386
13255TIP3   OH239707   6.360   4.190   1.758
13255TIP3    H139708   6.287   4.166   1.814
13255TIP3    H239709   6.385   4.109   1.714
13256TIP3   OH239710   0.301   7.788   5.959
13256TIP3    H139711   0.328   7.809   6.048
13256TIP3    H239712   0.279   7.695   5.961
13257TIP3   OH239713   7.979   6.937   6.318
13257TIP3    H139714   8.021   6.951   6.403
13257TIP3    H239715   8.039   6.975   6.254
13258TIP3   OH239716   2.021   6.156   0.836
13258TIP3    H139717   1.973   6.239   0.829
13258TIP3    H239718   2.005   6.126   0.925
13259TIP3   OH239719   2.625   0.821   4.291
13259TIP3    H139720   2.696   0.880   4.264
13259TIP3    H239721   2.642   0.740   4.242
13260TIP3   OH239722   8.031   5.453   1.703
13260TIP3    H139723   8.077   5.477   1.623
13260TIP3    H239724   8.065   5.366   1.725
13261TIP3   OH239725   0.375   2.053   0.920
13261TIP3    H139726   0.353   2.014   0.836
13261TIP3    H239727   0.447   1.999   0.953
13262TIP3   OH239728   5.836   2.231   1.629
13262TIP3    H139729   5.840   2.327   1.623
13262TIP3    H239730   5.867   2.200   1.544
13263TIP3   OH239731   3.467   7.827   6.197
13263TIP3    H139732   3.438   7.837   6.288
13263TIP3    H239733   3.393   7.787   6.152
13264TIP3   OH239734   1.674   7.226   0.021
13264TIP3    H139735   1.682   7.287   0.094
13264TIP3    H239736   1.643   7.279  -0.052
13265TIP3   OH239737   1.838   6.821   0.997
13265TIP3    H139738   1.809   6.895   1.050
13265TIP3    H239739   1.892   6.769   1.056
13266TIP3   OH239740   8.083   7.063   5.652
13266TIP3    H139741   7.992   7.074   5.677
13266TIP3    H239742   8.082   7.000   5.580
13267TIP3   OH239743   6.274   3.816   5.349
13267TIP3    H139744   6.351   3.865   5.378
13267TIP3    H239745   6.211   3.826   5.420
13268TIP3   OH239746   0.530   1.515   5.831
13268TIP3    H139747   0.592   1.544   5.764
13268TIP3    H239748   0.564   1.430   5.859
13269TIP3   OH239749   3.070   2.399   2.335
13269TIP3    H139750   2.988   2.437   2.303
13269TIP3    H239751   3.136   2.431   2.274
13270TIP3   OH239752   5.319   7.129   6.147
13270TIP3    H139753   5.245   7.151   6.203
13270TIP3    H239754   5.342   7.211   6.104
13271TIP3   OH239755   6.643   7.105   5.296
13271TIP3    H139756   6.599   7.125   5.379
13271TIP3    H239757   6.733   7.135   5.308
13272TIP3   OH239758   0.974   7.296   2.155
13272TIP3    H139759   0.888   7.308   2.195
13272TIP3    H239760   1.000   7.208   2.182
13273TIP3   OH239761   0.324   2.871   0.529
13273TIP3    H139762   0.310   2.914   0.445
13273TIP3    H239763   0.387   2.926   0.575
13274TIP3   OH239764   2.504   4.869   1.683
13274TIP3    H139765   2.593   4.894   1.656
13274TIP3    H239766   2.455   4.865   1.601
13275TIP3   OH239767   3.832   4.284   5.272
13275TIP3    H139768   3.798   4.337   5.200
13275TIP3    H239769   3.859   4.348   5.338
13276TIP3   OH239770   5.087   1.836   5.959
13276TIP3    H139771   5.114   1.762   6.013
13276TIP3    H239772   5.070   1.907   6.021
13277TIP3   OH239773   4.720   7.333   4.271
13277TIP3    H139774   4.696   7.424   4.289
13277TIP3    H239775   4.640   7.283   4.286
13278TIP3   OH239776   1.709   4.316   3.468
13278TIP3    H139777   1.661   4.399   3.473
13278TIP3    H239778   1.765   4.317   3.545
13279TIP3   OH239779   5.559   6.113   2.958
13279TIP3    H139780   5.482   6.139   2.908
13279TIP3    H239781   5.633   6.148   2.909
13280TIP3   OH239782   4.771   5.483   3.336
13280TIP3    H139783   4.677   5.485   3.319
13280TIP3    H239784   4.778   5.468   3.430
13281TIP3   OH239785   6.052   3.809   5.532
13281TIP3    H139786   5.967   3.843   5.504
13281TIP3    H239787   6.033   3.723   5.569
13282TIP3   OH239788   3.323   2.301   0.001
13282TIP3    H139789   3.348   2.271  -0.086
13282TIP3    H239790   3.391   2.267   0.060
13283TIP3   OH239791   3.127   6.041   0.775
13283TIP3    H139792   3.180   6.095   0.717
13283TIP3    H239793   3.047   6.023   0.726
13284TIP3   OH239794   6.790   6.631   2.429
13284TIP3    H139795   6.811   6.596   2.343
13284TIP3    H239796   6.875   6.654   2.467
13285TIP3   OH239797   5.173   5.402   3.179
13285TIP3    H139798   5.230   5.325   3.164
13285TIP3    H239799   5.212   5.446   3.254
13286TIP3   OH239800   1.669   2.521   2.586
13286TIP3    H139801   1.692   2.593   2.527
13286TIP3    H239802   1.750   2.472   2.597
13287TIP3   OH239803   2.073   3.400   5.225
13287TIP3    H139804   2.047   3.427   5.137
13287TIP3    H239805   1.991   3.378   5.269
13288TIP3   OH239806   5.185   1.837   2.701
13288TIP3    H139807   5.145   1.915   2.739
13288TIP3    H239808   5.113   1.790   2.660
13289TIP3   OH239809   4.567   4.660   2.119
13289TIP3    H139810   4.662   4.666   2.121
13289TIP3    H239811   4.549   4.590   2.056
13290TIP3   OH239812   7.063   6.855   3.555
13290TIP3    H139813   7.120   6.932   3.566
13290TIP3    H239814   7.051   6.848   3.461
13291TIP3   OH239815   4.520   0.415   4.734
13291TIP3    H139816   4.483   0.446   4.651
13291TIP3    H239817   4.516   0.320   4.729
13292TIP3   OH239818   1.021   4.882   6.685
13292TIP3    H139819   1.103   4.876   6.636
13292TIP3    H239820   1.048   4.899   6.775
13293TIP3   OH239821   6.062   4.109   0.243
13293TIP3    H139822   6.077   4.065   0.159
13293TIP3    H239823   6.127   4.071   0.302
13294TIP3   OH239824   4.538   6.073   2.402
13294TIP3    H139825   4.500   6.161   2.403
13294TIP3    H239826   4.633   6.088   2.402
13295TIP3   OH239827   3.572   6.456   5.635
13295TIP3    H139828   3.492   6.466   5.687
13295TIP3    H239829   3.553   6.382   5.577
13296TIP3   OH239830   6.625   6.853   2.416
13296TIP3    H139831   6.580   6.887   2.339
13296TIP3    H239832   6.671   6.775   2.385
13297TIP3   OH239833   7.491   3.419   1.364
13297TIP3    H139834   7.586   3.425   1.348
13297TIP3    H239835   7.451   3.458   1.286
13298TIP3   OH239836   8.125   2.329   0.737
13298TIP3    H139837   8.033   2.350   0.752
13298TIP3    H239838   8.161   2.317   0.825
13299TIP3   OH239839   4.055   6.469   2.321
13299TIP3    H139840   3.978   6.516   2.288
13299TIP3    H239841   4.047   6.476   2.416
13300TIP3   OH239842   0.480   4.426   4.421
13300TIP3    H139843   0.536   4.467   4.354
13300TIP3    H239844   0.391   4.432   4.385
13301TIP3   OH239845   3.178   5.036   5.500
13301TIP3    H139846   3.206   5.068   5.414
13301TIP3    H239847   3.173   5.115   5.554
13302TIP3   OH239848   7.147   0.431   4.355
13302TIP3    H139849   7.136   0.337   4.372
13302TIP3    H239850   7.064   0.458   4.316
13303TIP3   OH239851   5.236   2.755   2.155
13303TIP3    H139852   5.203   2.671   2.123
13303TIP3    H239853   5.316   2.771   2.105
13304TIP3   OH239854   1.337   5.897   5.866
13304TIP3    H139855   1.302   5.862   5.948
13304TIP3    H239856   1.388   5.824   5.829
13305TIP3   OH239857   2.030   4.758   1.217
13305TIP3    H139858   2.086   4.767   1.140
13305TIP3    H239859   1.971   4.833   1.213
13306TIP3   OH239860   5.906   1.465   0.380
13306TIP3    H139861   5.827   1.516   0.393
13306TIP3    H239862   5.926   1.428   0.466
13307TIP3   OH239863   2.786   2.673   3.223
13307TIP3    H139864   2.869   2.666   3.270
13307TIP3    H239865   2.808   2.722   3.144
13308TIP3   OH239866   0.935   5.911   0.382
13308TIP3    H139867   0.983   5.829   0.376
13308TIP3    H239868   0.994   5.976   0.345
13309TIP3   OH239869   2.238   7.435   2.624
13309TIP3    H139870   2.323   7.390   2.625
13309TIP3    H239871   2.180   7.376   2.576
13310TIP3   OH239872   3.968   0.835   6.736
13310TIP3    H139873   3.990   0.744   6.758
13310TIP3    H239874   3.940   0.831   6.644
13311TIP3   OH239875   4.829   4.429   6.222
13311TIP3    H139876   4.785   4.500   6.269
13311TIP3    H239877   4.881   4.474   6.155
13312TIP3   OH239878   1.310   6.513   4.290
13312TIP3    H139879   1.341   6.566   4.364
13312TIP3    H239880   1.302   6.425   4.326
13313TIP3   OH239881   2.288   5.821   6.320
13313TIP3    H139882   2.345   5.857   6.252
13313TIP3    H239883   2.316   5.865   6.401
13314TIP3   OH239884   3.170   3.323   5.112
13314TIP3    H139885   3.192   3.237   5.078
13314TIP3    H239886   3.242   3.344   5.173
13315TIP3   OH239887   1.949   5.173   3.012
13315TIP3    H139888   1.861   5.171   2.975
13315TIP3    H239889   2.003   5.208   2.941
13316TIP3   OH239890   5.181   3.389   0.267
13316TIP3    H139891   5.181   3.296   0.244
13316TIP3    H239892   5.090   3.409   0.287
13317TIP3   OH239893   2.285   1.154   2.809
13317TIP3    H139894   2.218   1.153   2.740
13317TIP3    H239895   2.319   1.243   2.809
13318TIP3   OH239896   8.158   1.482   5.776
13318TIP3    H139897   8.081   1.427   5.770
13318TIP3    H239898   8.197   1.461   5.861
13319TIP3   OH239899   5.574   5.163   3.921
13319TIP3    H139900   5.597   5.210   4.002
13319TIP3    H239901   5.570   5.232   3.854
13320TIP3   OH239902   3.763   1.939   5.565
13320TIP3    H139903   3.724   1.987   5.638
13320TIP3    H239904   3.711   1.965   5.489
13321TIP3   OH239905   0.244   0.178   4.261
13321TIP3    H139906   0.245   0.195   4.167
13321TIP3    H239907   0.226   0.263   4.301
13322TIP3   OH239908   3.024   4.756   1.415
13322TIP3    H139909   3.012   4.834   1.470
13322TIP3    H239910   2.963   4.691   1.452
13323TIP3   OH239911   5.390   0.121   5.999
13323TIP3    H139912   5.370   0.030   5.977
13323TIP3    H239913   5.474   0.118   6.045
13324TIP3   OH239914   2.063   2.878   2.170
13324TIP3    H139915   2.001   2.806   2.163
13324TIP3    H239916   2.009   2.957   2.161
13325TIP3   OH239917   0.744   3.695   1.644
13325TIP3    H139918   0.762   3.779   1.602
13325TIP3    H239919   0.667   3.712   1.698
13326TIP3   OH239920   0.980   3.130   4.240
13326TIP3    H139921   1.070   3.135   4.273
13326TIP3    H239922   0.937   3.067   4.298
13327TIP3   OH239923   5.584   7.718   5.853
13327TIP3    H139924   5.593   7.635   5.806
13327TIP3    H239925   5.557   7.781   5.786
13328TIP3   OH239926   1.193   1.820   5.092
13328TIP3    H139927   1.247   1.744   5.113
13328TIP3    H239928   1.252   1.879   5.045
13329TIP3   OH239929   5.265   1.570   5.238
13329TIP3    H139930   5.307   1.497   5.193
13329TIP3    H239931   5.237   1.628   5.167
13330TIP3   OH239932   1.054   5.401   1.936
13330TIP3    H139933   0.970   5.428   1.972
13330TIP3    H239934   1.046   5.307   1.922
13331TIP3   OH239935   6.015   3.681   3.167
13331TIP3    H139936   6.090   3.641   3.212
13331TIP3    H239937   5.939   3.631   3.197
13332TIP3   OH239938   5.462   1.955   3.709
13332TIP3    H139939   5.457   1.872   3.661
13332TIP3    H239940   5.504   2.015   3.647
13333TIP3   OH239941   1.739   6.230   4.405
13333TIP3    H139942   1.778   6.290   4.342
13333TIP3    H239943   1.803   6.160   4.416
13334TIP3   OH239944   7.313   2.162   2.062
13334TIP3    H139945   7.237   2.111   2.091
13334TIP3    H239946   7.386   2.126   2.113
13335TIP3   OH239947   2.512   2.521   5.409
13335TIP3    H139948   2.559   2.488   5.486
13335TIP3    H239949   2.433   2.563   5.446
13336TIP3   OH239950   1.143   6.730   0.260
13336TIP3    H139951   1.155   6.764   0.349
13336TIP3    H239952   1.216   6.767   0.210
13337TIP3   OH239953   6.177   3.159   1.385
13337TIP3    H139954   6.095   3.114   1.368
13337TIP3    H239955   6.217   3.111   1.458
13338TIP3   OH239956   8.046   6.838   0.043
13338TIP3    H139957   8.086   6.767   0.095
13338TIP3    H239958   8.061   6.813  -0.048
13339TIP3   OH239959   0.197   0.868   1.007
13339TIP3    H139960   0.216   0.837   0.918
13339TIP3    H239961   0.254   0.816   1.063
13340TIP3   OH239962   7.549   3.529   2.803
13340TIP3    H139963   7.536   3.621   2.823
13340TIP3    H239964   7.603   3.496   2.875
13341TIP3   OH239965   7.719   4.153   3.563
13341TIP3    H139966   7.679   4.226   3.610
13341TIP3    H239967   7.809   4.150   3.595
13342TIP3   OH239968   5.504   4.883   2.454
13342TIP3    H139969   5.464   4.799   2.476
13342TIP3    H239970   5.590   4.880   2.495
13343TIP3   OH239971   2.592   6.904   3.019
13343TIP3    H139972   2.681   6.939   3.012
13343TIP3    H239973   2.566   6.887   2.929
13344TIP3   OH239974   1.543   6.914   6.475
13344TIP3    H139975   1.515   6.978   6.410
13344TIP3    H239976   1.554   6.964   6.556
13345TIP3   OH239977   0.298   1.961   4.305
13345TIP3    H139978   0.386   1.979   4.271
13345TIP3    H239979   0.274   1.877   4.266
13346TIP3   OH239980   6.446   0.566   1.681
13346TIP3    H139981   6.378   0.593   1.618
13346TIP3    H239982   6.435   0.472   1.689
13347TIP3   OH239983   3.693   4.975   2.354
13347TIP3    H139984   3.650   5.059   2.336
13347TIP3    H239985   3.727   4.985   2.443
13348TIP3   OH239986   6.554   2.384   5.990
13348TIP3    H139987   6.528   2.416   6.077
13348TIP3    H239988   6.641   2.347   6.003
13349TIP3   OH239989   0.568   2.890   4.023
13349TIP3    H139990   0.628   2.963   4.039
13349TIP3    H239991   0.584   2.829   4.095
13350TIP3   OH239992   7.264   2.161   3.013
13350TIP3    H139993   7.193   2.200   2.962
13350TIP3    H239994   7.241   2.069   3.020
13351TIP3   OH239995   2.294   1.220   3.721
13351TIP3    H139996   2.212   1.263   3.695
13351TIP3    H239997   2.362   1.269   3.677
13352TIP3   OH239998   4.101   5.928   0.953
13352TIP3    H139999   4.081   5.935   1.047
13352TIP3    H240000   4.028   5.877   0.917
13353TIP3   OH240001   1.612   1.895   5.117
13353TIP3    H140002   1.531   1.920   5.074
13353TIP3    H240003   1.612   1.944   5.200
13354TIP3   OH240004   7.217   5.718   4.236
13354TIP3    H140005   7.283   5.701   4.303
13354TIP3    H240006   7.260   5.697   4.154
13355TIP3   OH240007   2.002   0.242   5.084
13355TIP3    H140008   2.054   0.181   5.032
13355TIP3    H240009   2.067   0.296   5.130
13356TIP3   OH240010   1.530   1.658   3.305
13356TIP3    H140011   1.446   1.703   3.311
13356TIP3    H240012   1.570   1.694   3.226
13357TIP3   OH240013   7.694   7.491   2.481
13357TIP3    H140014   7.632   7.424   2.452
13357TIP3    H240015   7.645   7.545   2.543
13358TIP3   OH240016   3.353   5.936   0.354
13358TIP3    H140017   3.349   5.879   0.278
13358TIP3    H240018   3.340   5.877   0.429
13359TIP3   OH240019   1.633   7.729   6.452
13359TIP3    H140020   1.538   7.740   6.457
13359TIP3    H240021   1.666   7.767   6.533
13360TIP3   OH240022   6.902   5.751   2.024
13360TIP3    H140023   6.938   5.667   1.995
13360TIP3    H240024   6.840   5.729   2.093
13361TIP3   OH240025   6.766   2.379   4.022
13361TIP3    H140026   6.812   2.294   4.025
13361TIP3    H240027   6.831   2.441   4.055
13362TIP3   OH240028   5.333   7.524   1.343
13362TIP3    H140029   5.378   7.509   1.426
13362TIP3    H240030   5.334   7.619   1.332
13363TIP3   OH240031   4.490   3.398   4.137
13363TIP3    H140032   4.457   3.315   4.170
13363TIP3    H240033   4.517   3.446   4.216
13364TIP3   OH240034   0.033   2.078   4.252
13364TIP3    H140035   0.001   2.159   4.292
13364TIP3    H240036   0.111   2.056   4.303
13365TIP3   OH240037   6.015   3.588   1.975
13365TIP3    H140038   5.942   3.630   2.021
13365TIP3    H240039   5.974   3.546   1.899
13366TIP3   OH240040   5.376   5.551   1.611
13366TIP3    H140041   5.305   5.488   1.602
13366TIP3    H240042   5.445   5.502   1.656
13367TIP3   OH240043   0.289   4.143   3.760
13367TIP3    H140044   0.221   4.201   3.795
13367TIP3    H240045   0.280   4.062   3.810
13368TIP3   OH240046   5.034   1.933   5.648
13368TIP3    H140047   5.053   1.885   5.729
13368TIP3    H240048   5.014   1.865   5.584
13369TIP3   OH240049   7.958   0.460   2.744
13369TIP3    H140050   7.981   0.400   2.815
13369TIP3    H240051   7.984   0.414   2.664
13370TIP3   OH240052   5.959   3.004   0.612
13370TIP3    H140053   6.046   2.976   0.586
13370TIP3    H240054   5.920   2.927   0.654
13371TIP3   OH240055   7.530   7.361   5.753
13371TIP3    H140056   7.439   7.391   5.747
13371TIP3    H240057   7.582   7.437   5.725
13372TIP3   OH240058   1.695   2.106   5.855
13372TIP3    H140059   1.791   2.108   5.845
13372TIP3    H240060   1.668   2.026   5.809
13373TIP3   OH240061   5.735   1.234   1.984
13373TIP3    H140062   5.719   1.153   1.936
13373TIP3    H240063   5.654   1.285   1.974
13374TIP3   OH240064   0.897   4.583   1.773
13374TIP3    H140065   0.813   4.626   1.788
13374TIP3    H240066   0.946   4.645   1.720
13375TIP3   OH240067   1.033   4.134   0.704
13375TIP3    H140068   0.985   4.060   0.666
13375TIP3    H240069   1.060   4.103   0.790
13376TIP3   OH240070   4.028   4.585   5.949
13376TIP3    H140071   3.979   4.518   5.902
13376TIP3    H240072   4.119   4.556   5.944
13377TIP3   OH240073   1.300   0.691   2.659
13377TIP3    H140074   1.291   0.714   2.751
13377TIP3    H240075   1.285   0.773   2.611
13378TIP3   OH240076   1.263   3.218   2.906
13378TIP3    H140077   1.218   3.285   2.958
13378TIP3    H240078   1.293   3.265   2.828
13379TIP3   OH240079   2.772   2.825   2.509
13379TIP3    H140080   2.837   2.874   2.458
13379TIP3    H240081   2.759   2.876   2.588
13380TIP3   OH240082   2.221   3.728   2.501
13380TIP3    H140083   2.280   3.690   2.565
13380TIP3    H240084   2.145   3.756   2.552
13381TIP3   OH240085   6.813   1.211   4.983
13381TIP3    H140086   6.880   1.272   5.012
13381TIP3    H240087   6.810   1.144   5.051
13382TIP3   OH240088   7.594   7.242   3.909
13382TIP3    H140089   7.529   7.274   3.846
13382TIP3    H240090   7.554   7.162   3.944
13383TIP3   OH240091   2.213   7.464   4.603
13383TIP3    H140092   2.210   7.375   4.568
13383TIP3    H240093   2.142   7.466   4.668
13384TIP3   OH240094   0.170   2.849   2.314
13384TIP3    H140095   0.251   2.865   2.363
13384TIP3    H240096   0.188   2.771   2.262
13385TIP3   OH240097   5.426   5.947   2.368
13385TIP3    H140098   5.404   5.905   2.452
13385TIP3    H240099   5.421   5.876   2.304
13386TIP3   OH240100   6.276   6.497   4.663
13386TIP3    H140101   6.242   6.534   4.581
13386TIP3    H240102   6.345   6.436   4.635
13387TIP3   OH240103   3.660   1.292   3.543
13387TIP3    H140104   3.688   1.279   3.452
13387TIP3    H240105   3.584   1.234   3.552
13388TIP3   OH240106   8.072   1.286   1.846
13388TIP3    H140107   8.126   1.248   1.777
13388TIP3    H240108   8.119   1.264   1.927
13389TIP3   OH240109   0.175   2.158   4.976
13389TIP3    H140110   0.161   2.251   4.991
13389TIP3    H240111   0.231   2.130   5.049
13390TIP3   OH240112   2.015   2.500   0.185
13390TIP3    H140113   1.968   2.423   0.216
13390TIP3    H240114   2.015   2.559   0.261
13391TIP3   OH240115   3.494   2.514   4.160
13391TIP3    H140116   3.557   2.445   4.184
13391TIP3    H240117   3.466   2.550   4.244
13392TIP3   OH240118   6.564   2.758   3.347
13392TIP3    H140119   6.636   2.811   3.382
13392TIP3    H240120   6.536   2.805   3.268
13393TIP3   OH240121   5.823   6.936   0.032
13393TIP3    H140122   5.728   6.936   0.022
13393TIP3    H240123   5.854   6.867  -0.027
13394TIP3   OH240124   3.974   2.234   0.156
13394TIP3    H140125   3.885   2.212   0.184
13394TIP3    H240126   4.008   2.292   0.224
13395TIP3   OH240127   6.783   1.653   4.906
13395TIP3    H140128   6.707   1.601   4.933
13395TIP3    H240129   6.849   1.588   4.881
13396TIP3   OH240130   0.831   2.969   5.513
13396TIP3    H140131   0.915   2.946   5.554
13396TIP3    H240132   0.815   2.899   5.449
13397TIP3   OH240133   5.412   2.035   0.568
13397TIP3    H140134   5.368   2.073   0.643
13397TIP3    H240135   5.490   2.089   0.556
13398TIP3   OH240136   7.007   0.457   6.441
13398TIP3    H140137   7.020   0.381   6.384
13398TIP3    H240138   6.981   0.420   6.525
13399TIP3   OH240139   2.312   6.664   4.480
13399TIP3    H140140   2.277   6.694   4.396
13399TIP3    H240141   2.347   6.577   4.462
13400TIP3   OH240142   1.194   4.773   3.303
13400TIP3    H140143   1.202   4.696   3.359
13400TIP3    H240144   1.124   4.825   3.344
13401TIP3   OH240145   5.799   5.434   4.832
13401TIP3    H140146   5.877   5.461   4.783
13401TIP3    H240147   5.831   5.371   4.897
13402TIP3   OH240148   1.961   4.746   2.296
13402TIP3    H140149   1.960   4.781   2.386
13402TIP3    H240150   1.883   4.783   2.256
13403TIP3   OH240151   2.934   3.803   6.139
13403TIP3    H140152   3.009   3.781   6.194
13403TIP3    H240153   2.972   3.817   6.052
13404TIP3   OH240154   0.720   3.354   5.960
13404TIP3    H140155   0.813   3.348   5.935
13404TIP3    H240156   0.700   3.268   5.997
13405TIP3   OH240157   5.328   1.434   6.175
13405TIP3    H140158   5.336   1.404   6.266
13405TIP3    H240159   5.405   1.489   6.161
13406TIP3   OH240160   1.672   2.673   6.599
13406TIP3    H140161   1.741   2.607   6.613
13406TIP3    H240162   1.692   2.710   6.513
13407TIP3   OH240163   6.346   5.753   5.384
13407TIP3    H140164   6.441   5.744   5.395
13407TIP3    H240165   6.313   5.766   5.472
13408TIP3   OH240166   3.126   5.695   0.814
13408TIP3    H140167   3.108   5.745   0.894
13408TIP3    H240168   3.042   5.693   0.768
13409TIP3   OH240169   1.131   4.618   5.470
13409TIP3    H140170   1.096   4.707   5.468
13409TIP3    H240171   1.145   4.595   5.378
13410TIP3   OH240172   3.491   3.116   0.768
13410TIP3    H140173   3.566   3.060   0.745
13410TIP3    H240174   3.525   3.176   0.834
13411TIP3   OH240175   4.094   0.731   4.225
13411TIP3    H140176   4.064   0.817   4.253
13411TIP3    H240177   4.017   0.690   4.186
13412TIP3   OH240178   3.713   2.424   5.290
13412TIP3    H140179   3.722   2.330   5.303
13412TIP3    H240180   3.724   2.436   5.195
13413TIP3   OH240181   3.165   4.378   2.792
13413TIP3    H140182   3.188   4.471   2.804
13413TIP3    H240183   3.095   4.363   2.855
13414TIP3   OH240184   1.985   6.687   3.679
13414TIP3    H140185   1.925   6.744   3.727
13414TIP3    H240186   1.936   6.658   3.603
13415TIP3   OH240187   4.900   0.560   1.704
13415TIP3    H140188   4.953   0.527   1.631
13415TIP3    H240189   4.815   0.520   1.691
13416TIP3   OH240190   1.215   6.292   0.927
13416TIP3    H140191   1.308   6.287   0.949
13416TIP3    H240192   1.178   6.350   0.993
13417TIP3   OH240193   3.938   5.096   3.804
13417TIP3    H140194   3.844   5.077   3.805
13417TIP3    H240195   3.945   5.183   3.765
13418TIP3   OH240196   0.234   1.091   1.290
13418TIP3    H140197   0.228   1.101   1.385
13418TIP3    H240198   0.178   1.159   1.254
13419TIP3   OH240199   2.421   6.845   1.182
13419TIP3    H140200   2.327   6.843   1.195
13419TIP3    H240201   2.434   6.808   1.095
13420TIP3   OH240202   1.415   4.444  -0.036
13420TIP3    H140203   1.498   4.482  -0.063
13420TIP3    H240204   1.432   4.409   0.052
13421TIP3   OH240205   0.760   0.079   3.340
13421TIP3    H140206   0.775  -0.016   3.334
13421TIP3    H240207   0.830   0.110   3.398
13422TIP3   OH240208   7.195   5.062   6.359
13422TIP3    H140209   7.220   5.139   6.411
13422TIP3    H240210   7.165   5.098   6.275
13423TIP3   OH240211   7.898   1.984   1.226
13423TIP3    H140212   7.810   1.980   1.262
13423TIP3    H240213   7.955   1.985   1.303
13424TIP3   OH240214   1.684   0.165   3.619
13424TIP3    H140215   1.591   0.160   3.598
13424TIP3    H240216   1.720   0.081   3.592
13425TIP3   OH240217   2.265   2.078   1.978
13425TIP3    H140218   2.192   2.075   1.917
13425TIP3    H240219   2.338   2.113   1.927
13426TIP3   OH240220   2.067   7.378   3.976
13426TIP3    H140221   2.011   7.410   3.906
13426TIP3    H240222   2.148   7.428   3.967
13427TIP3   OH240223   0.432   2.022   5.532
13427TIP3    H140224   0.395   1.941   5.566
13427TIP3    H240225   0.525   2.016   5.551
13428TIP3   OH240226   1.850   2.182   3.785
13428TIP3    H140227   1.927   2.127   3.800
13428TIP3    H240228   1.788   2.126   3.739
13429TIP3   OH240229   1.272   6.868   0.589
13429TIP3    H140230   1.253   6.941   0.530
13429TIP3    H240231   1.350   6.827   0.550
13430TIP3   OH240232   2.717   6.766   0.771
13430TIP3    H140233   2.801   6.802   0.800
13430TIP3    H240234   2.729   6.671   0.775
13431TIP3   OH240235   1.568   3.902   1.919
13431TIP3    H140236   1.582   3.856   1.836
13431TIP3    H240237   1.604   3.990   1.903
13432TIP3   OH240238   3.137   1.129   1.956
13432TIP3    H140239   3.178   1.134   2.043
13432TIP3    H240240   3.195   1.179   1.899
13433TIP3   OH240241   7.366   4.662   1.940
13433TIP3    H140242   7.320   4.626   1.864
13433TIP3    H240243   7.322   4.745   1.959
13434TIP3   OH240244   2.799   3.404   0.773
13434TIP3    H140245   2.838   3.427   0.689
13434TIP3    H240246   2.834   3.318   0.794
13435TIP3   OH240247   7.037   2.793   4.863
13435TIP3    H140248   7.127   2.762   4.871
13435TIP3    H240249   7.022   2.801   4.768
13436TIP3   OH240250   4.617   2.318   2.726
13436TIP3    H140251   4.659   2.393   2.769
13436TIP3    H240252   4.631   2.333   2.633
13437TIP3   OH240253   8.051   2.259   5.279
13437TIP3    H140254   8.037   2.353   5.280
13437TIP3    H240255   8.027   2.231   5.190
13438TIP3   OH240256   2.254   1.919   0.544
13438TIP3    H140257   2.185   1.863   0.579
13438TIP3    H240258   2.333   1.893   0.593
13439TIP3   OH240259   0.283   2.181   3.719
13439TIP3    H140260   0.222   2.145   3.654
13439TIP3    H240261   0.230   2.191   3.798
13440TIP3   OH240262   1.953   5.846   3.336
13440TIP3    H140263   1.991   5.914   3.392
13440TIP3    H240264   1.861   5.842   3.363
13441TIP3   OH240265   5.079   0.411   2.094
13441TIP3    H140266   5.018   0.459   2.151
13441TIP3    H240267   5.028   0.392   2.016
13442TIP3   OH240268   2.668   2.475   2.927
13442TIP3    H140269   2.661   2.391   2.881
13442TIP3    H240270   2.710   2.534   2.864
13443TIP3   OH240271   5.026   3.531   1.276
13443TIP3    H140272   5.083   3.502   1.205
13443TIP3    H240273   5.085   3.554   1.347
13444TIP3   OH240274   2.001   7.454   2.867
13444TIP3    H140275   2.019   7.383   2.804
13444TIP3    H240276   2.086   7.497   2.880
13445TIP3   OH240277   5.020   0.824   1.485
13445TIP3    H140278   4.928   0.799   1.472
13445TIP3    H240279   5.049   0.853   1.399
13446TIP3   OH240280   8.181   5.050   2.590
13446TIP3    H140281   8.129   5.057   2.670
13446TIP3    H240282   8.126   5.002   2.529
13447TIP3   OH240283   5.702   0.980   1.208
13447TIP3    H140284   5.733   0.891   1.223
13447TIP3    H240285   5.644   0.973   1.132
13448TIP3   OH240286   7.230   2.404   4.997
13448TIP3    H140287   7.214   2.322   4.951
13448TIP3    H240288   7.301   2.383   5.059
13449TIP3   OH240289   4.773   5.820   2.319
13449TIP3    H140290   4.830   5.886   2.279
13449TIP3    H240291   4.713   5.871   2.374
13450TIP3   OH240292   0.321   6.487   2.465
13450TIP3    H140293   0.312   6.571   2.509
13450TIP3    H240294   0.414   6.465   2.473
13451TIP3   OH240295   5.153   0.257   0.910
13451TIP3    H140296   5.239   0.215   0.915
13451TIP3    H240297   5.122   0.260   1.001
13452TIP3   OH240298   4.544   5.944   1.546
13452TIP3    H140299   4.629   5.926   1.586
13452TIP3    H240300   4.525   6.035   1.570
13453TIP3   OH240301   3.217   2.482   0.373
13453TIP3    H140302   3.133   2.440   0.355
13453TIP3    H240303   3.194   2.571   0.399
13454TIP3   OH240304   3.474   0.467   3.184
13454TIP3    H140305   3.527   0.494   3.109
13454TIP3    H240306   3.422   0.545   3.206
13455TIP3   OH240307   3.171   2.007   1.781
13455TIP3    H140308   3.154   1.937   1.718
13455TIP3    H240309   3.138   1.973   1.864
13456TIP3   OH240310   5.744   6.005   1.339
13456TIP3    H140311   5.777   6.078   1.391
13456TIP3    H240312   5.811   5.937   1.346
13457TIP3   OH240313   7.564   7.291   5.399
13457TIP3    H140314   7.475   7.266   5.372
13457TIP3    H240315   7.579   7.376   5.358
13458TIP3   OH240316   2.059   1.896   2.095
13458TIP3    H140317   2.094   1.807   2.096
13458TIP3    H240318   2.135   1.952   2.107
13459TIP3   OH240319   4.023   3.145   4.719
13459TIP3    H140320   4.110   3.121   4.750
13459TIP3    H240321   3.965   3.129   4.793
13460TIP3   OH240322   7.055   6.811   3.974
13460TIP3    H140323   7.138   6.853   3.998
13460TIP3    H240324   7.037   6.843   3.885
13461TIP3   OH240325   6.103   6.651   0.138
13461TIP3    H140326   6.155   6.695   0.206
13461TIP3    H240327   6.167   6.601   0.087
13462TIP3   OH240328   5.754   3.596   2.368
13462TIP3    H140329   5.786   3.621   2.282
13462TIP3    H240330   5.659   3.590   2.359
13463TIP3   OH240331   5.796   2.609   2.470
13463TIP3    H140332   5.720   2.578   2.421
13463TIP3    H240333   5.766   2.687   2.515
13464TIP3   OH240334   5.571   5.311   4.235
13464TIP3    H140335   5.636   5.246   4.263
13464TIP3    H240336   5.493   5.290   4.286
13465TIP3   OH240337   4.356   0.085   4.191
13465TIP3    H140338   4.265   0.064   4.208
13465TIP3    H240339   4.378   0.034   4.113
13466TIP3   OH240340   6.613   5.104   2.030
13466TIP3    H140341   6.646   5.191   2.050
13466TIP3    H240342   6.691   5.050   2.018
13467TIP3   OH240343   6.371   2.716   3.986
13467TIP3    H140344   6.437   2.782   3.969
13467TIP3    H240345   6.417   2.632   3.977
13468TIP3   OH240346   6.863   5.204   3.755
13468TIP3    H140347   6.797   5.170   3.816
13468TIP3    H240348   6.830   5.179   3.668
13469TIP3   OH240349   4.796   3.841   0.086
13469TIP3    H140350   4.781   3.748   0.069
13469TIP3    H240351   4.712   3.883   0.066
13470TIP3   OH240352   6.359   0.042   0.620
13470TIP3    H140353   6.329   0.097   0.692
13470TIP3    H240354   6.418   0.097   0.570
13471TIP3   OH240355   0.686   7.613   0.208
13471TIP3    H140356   0.673   7.529   0.163
13471TIP3    H240357   0.599   7.635   0.241
13472TIP3   OH240358   4.121   4.219   3.077
13472TIP3    H140359   4.073   4.281   3.132
13472TIP3    H240360   4.090   4.133   3.105
13473TIP3   OH240361   2.246   4.250   6.277
13473TIP3    H140362   2.315   4.258   6.211
13473TIP3    H240363   2.286   4.198   6.347
13474TIP3   OH240364   0.385   5.660   3.483
13474TIP3    H140365   0.386   5.624   3.394
13474TIP3    H240366   0.293   5.656   3.510
13475TIP3   OH240367   4.335   5.900   5.305
13475TIP3    H140368   4.350   5.976   5.361
13475TIP3    H240369   4.307   5.830   5.365
13476TIP3   OH240370   7.449   6.471   2.644
13476TIP3    H140371   7.495   6.502   2.722
13476TIP3    H240372   7.370   6.429   2.678
13477TIP3   OH240373   5.414   3.951   1.779
13477TIP3    H140374   5.410   3.991   1.692
13477TIP3    H240375   5.332   3.977   1.822
13478TIP3   OH240376   6.393   3.843   6.400
13478TIP3    H140377   6.351   3.827   6.484
13478TIP3    H240378   6.338   3.798   6.337
13479TIP3   OH240379   1.924   4.315   5.553
13479TIP3    H140380   2.018   4.317   5.571
13479TIP3    H240381   1.885   4.290   5.637
13480TIP3   OH240382   0.880   5.610   0.239
13480TIP3    H140383   0.960   5.607   0.187
13480TIP3    H240384   0.906   5.653   0.321
13481TIP3   OH240385   3.472   4.126   0.478
13481TIP3    H140386   3.438   4.195   0.421
13481TIP3    H240387   3.561   4.153   0.498
13482TIP3   OH240388   2.771   7.137   6.099
13482TIP3    H140389   2.742   7.051   6.068
13482TIP3    H240390   2.823   7.118   6.177
13483TIP3   OH240391   7.515   5.122   0.140
13483TIP3    H140392   7.608   5.142   0.142
13483TIP3    H240393   7.497   5.084   0.226
13484TIP3   OH240394   1.870   1.587   2.154
13484TIP3    H140395   1.961   1.596   2.125
13484TIP3    H240396   1.875   1.593   2.250
13485TIP3   OH240397   3.476   4.283   5.697
13485TIP3    H140398   3.451   4.262   5.607
13485TIP3    H240399   3.548   4.223   5.716
13486TIP3   OH240400   2.873   2.277   4.306
13486TIP3    H140401   2.779   2.291   4.294
13486TIP3    H240402   2.879   2.192   4.349
13487TIP3   OH240403   7.960   7.562   1.568
13487TIP3    H140404   7.932   7.584   1.479
13487TIP3    H240405   8.015   7.485   1.558
13488TIP3   OH240406   7.855   3.273   1.101
13488TIP3    H140407   7.891   3.188   1.126
13488TIP3    H240408   7.862   3.275   1.005
13489TIP3   OH240409   5.390   3.418   5.218
13489TIP3    H140410   5.355   3.435   5.131
13489TIP3    H240411   5.312   3.413   5.274
13490TIP3   OH240412   7.332   4.970   3.088
13490TIP3    H140413   7.306   4.958   3.180
13490TIP3    H240414   7.259   5.017   3.049
13491TIP3   OH240415   4.401   0.781   6.041
13491TIP3    H140416   4.388   0.775   6.136
13491TIP3    H240417   4.362   0.864   6.016
13492TIP3   OH240418   6.834   3.468   2.844
13492TIP3    H140419   6.821   3.531   2.914
13492TIP3    H240420   6.786   3.504   2.770
13493TIP3   OH240421   1.899   3.583   6.239
13493TIP3    H140422   1.806   3.573   6.218
13493TIP3    H240423   1.911   3.676   6.255
13494TIP3   OH240424   1.337   4.924   4.508
13494TIP3    H140425   1.325   4.971   4.426
13494TIP3    H240426   1.260   4.945   4.560
13495TIP3   OH240427   5.735   1.659   6.183
13495TIP3    H140428   5.741   1.645   6.088
13495TIP3    H240429   5.794   1.593   6.220
13496TIP3   OH240430   8.124   6.390   5.760
13496TIP3    H140431   8.085   6.361   5.843
13496TIP3    H240432   8.074   6.468   5.737
13497TIP3   OH240433   7.920   2.283   1.075
13497TIP3    H140434   8.011   2.257   1.065
13497TIP3    H240435   7.920   2.339   1.153
13498TIP3   OH240436   7.364   4.619   4.356
13498TIP3    H140437   7.444   4.580   4.320
13498TIP3    H240438   7.294   4.584   4.302
13499TIP3   OH240439   2.512   5.527   1.214
13499TIP3    H140440   2.484   5.605   1.261
13499TIP3    H240441   2.593   5.501   1.258
13500TIP3   OH240442   5.259   2.156   5.598
13500TIP3    H140443   5.183   2.104   5.623
13500TIP3    H240444   5.233   2.246   5.615
13501TIP3   OH240445   4.005   4.319   4.647
13501TIP3    H140446   4.028   4.345   4.558
13501TIP3    H240447   3.940   4.384   4.675
13502TIP3   OH240448   4.316   5.489   4.501
13502TIP3    H140449   4.403   5.448   4.504
13502TIP3    H240450   4.304   5.525   4.589
13503TIP3   OH240451   5.098   5.726   2.452
13503TIP3    H140452   5.174   5.747   2.507
13503TIP3    H240453   5.132   5.664   2.387
13504TIP3   OH240454   2.291   0.415   5.099
13504TIP3    H140455   2.327   0.327   5.104
13504TIP3    H240456   2.294   0.438   5.006
13505TIP3   OH240457   0.235   5.066   1.008
13505TIP3    H140458   0.217   5.150   0.967
13505TIP3    H240459   0.263   5.009   0.936
13506TIP3   OH240460   7.773   0.890   0.235
13506TIP3    H140461   7.733   0.870   0.320
13506TIP3    H240462   7.820   0.972   0.250
13507TIP3   OH240463   6.559   5.061   6.159
13507TIP3    H140464   6.534   5.152   6.176
13507TIP3    H240465   6.584   5.060   6.067
13508TIP3   OH240466   7.243   3.997   3.874
13508TIP3    H140467   7.301   4.071   3.854
13508TIP3    H240468   7.219   3.962   3.788
13509TIP3   OH240469   6.942   7.797   3.931
13509TIP3    H140470   7.007   7.805   4.000
13509TIP3    H240471   6.987   7.751   3.860
13510TIP3   OH240472   0.622   0.878   0.034
13510TIP3    H140473   0.613   0.962   0.080
13510TIP3    H240474   0.709   0.882  -0.006
13511TIP3   OH240475   3.461   0.483   5.067
13511TIP3    H140476   3.405   0.517   4.997
13511TIP3    H240477   3.423   0.518   5.148
13512TIP3   OH240478   2.985   3.891   4.440
13512TIP3    H140479   2.983   3.973   4.390
13512TIP3    H240480   2.902   3.849   4.420
13513TIP3   OH240481   0.365   6.884   4.219
13513TIP3    H140482   0.443   6.881   4.165
13513TIP3    H240483   0.299   6.927   4.165
13514TIP3   OH240484   7.772   7.738   1.709
13514TIP3    H140485   7.805   7.816   1.666
13514TIP3    H240486   7.831   7.668   1.681
13515TIP3   OH240487   4.775   5.795   4.752
13515TIP3    H140488   4.849   5.755   4.798
13515TIP3    H240489   4.711   5.811   4.821
13516TIP3   OH240490   5.781   7.343   6.745
13516TIP3    H140491   5.803   7.360   6.836
13516TIP3    H240492   5.854   7.291   6.712
13517TIP3   OH240493   8.232   5.026   3.668
13517TIP3    H140494   8.152   5.014   3.719
13517TIP3    H240495   8.270   5.108   3.701
13518TIP3   OH240496   6.621   6.244   0.393
13518TIP3    H140497   6.596   6.164   0.439
13518TIP3    H240498   6.687   6.285   0.449
13519TIP3   OH240499   3.372   2.477   6.262
13519TIP3    H140500   3.450   2.422   6.253
13519TIP3    H240501   3.305   2.418   6.296
13520TIP3   OH240502   4.206   5.254   6.665
13520TIP3    H140503   4.275   5.201   6.624
13520TIP3    H240504   4.204   5.335   6.613
13521TIP3   OH240505   4.661   7.794   6.436
13521TIP3    H140506   4.657   7.877   6.388
13521TIP3    H240507   4.573   7.783   6.471
13522TIP3   OH240508   0.076   5.347   0.076
13522TIP3    H140509   0.075   5.307  -0.011
13522TIP3    H240510   0.070   5.272   0.136
13523TIP3   OH240511   6.839   6.412   3.190
13523TIP3    H140512   6.782   6.369   3.127
13523TIP3    H240513   6.872   6.489   3.144
13524TIP3   OH240514   6.337   6.217   3.056
13524TIP3    H140515   6.352   6.130   3.020
13524TIP3    H240516   6.255   6.210   3.104
13525TIP3   OH240517   2.860   0.952   4.164
13525TIP3    H140518   2.819   1.038   4.177
13525TIP3    H240519   2.826   0.923   4.079
13526TIP3   OH240520   1.915   7.754   2.567
13526TIP3    H140521   1.897   7.782   2.657
13526TIP3    H240522   1.838   7.701   2.543
13527TIP3   OH240523   3.477   2.082   4.273
13527TIP3    H140524   3.395   2.093   4.322
13527TIP3    H240525   3.478   1.990   4.249
13528TIP3   OH240526   6.743   7.228   5.937
13528TIP3    H140527   6.757   7.309   5.888
13528TIP3    H240528   6.786   7.243   6.021
13529TIP3   OH240529   2.822   2.634   5.943
13529TIP3    H140530   2.830   2.656   5.851
13529TIP3    H240531   2.738   2.589   5.951
13530TIP3   OH240532   7.474   5.969   5.089
13530TIP3    H140533   7.548   6.026   5.068
13530TIP3    H240534   7.464   5.977   5.184
13531TIP3   OH240535   4.364   6.538   5.035
13531TIP3    H140536   4.310   6.566   4.961
13531TIP3    H240537   4.398   6.453   5.008
13532TIP3   OH240538   7.838   0.225   1.333
13532TIP3    H140539   7.764   0.278   1.303
13532TIP3    H240540   7.873   0.273   1.408
13533TIP3   OH240541   7.038   4.455   2.845
13533TIP3    H140542   7.076   4.450   2.757
13533TIP3    H240543   7.083   4.527   2.887
13534TIP3   OH240544   5.585   4.832   4.766
13534TIP3    H140545   5.658   4.788   4.808
13534TIP3    H240546   5.624   4.883   4.696
13535TIP3   OH240547   0.949   7.345   4.804
13535TIP3    H140548   0.974   7.267   4.852
13535TIP3    H240549   1.027   7.401   4.806
13536TIP3   OH240550   0.854   1.578   1.603
13536TIP3    H140551   0.887   1.496   1.641
13536TIP3    H240552   0.849   1.638   1.678
13537TIP3   OH240553   4.929   6.197   5.428
13537TIP3    H140554   4.999   6.144   5.465
13537TIP3    H240555   4.872   6.134   5.382
13538TIP3   OH240556   4.260   5.707   5.488
13538TIP3    H140557   4.182   5.741   5.533
13538TIP3    H240558   4.323   5.693   5.558
13539TIP3   OH240559   0.329   3.802   3.328
13539TIP3    H140560   0.331   3.869   3.397
13539TIP3    H240561   0.300   3.723   3.373
13540TIP3   OH240562   1.094   7.344   4.223
13540TIP3    H140563   1.076   7.316   4.313
13540TIP3    H240564   1.062   7.272   4.169
13541TIP3   OH240565   0.114   2.480   3.667
13541TIP3    H140566   0.184   2.500   3.605
13541TIP3    H240567   0.038   2.461   3.612
13542TIP3   OH240568   6.390   3.499   6.359
13542TIP3    H140569   6.312   3.489   6.304
13542TIP3    H240570   6.464   3.491   6.298
13543TIP3   OH240571   3.173   2.314   6.145
13543TIP3    H140572   3.087   2.343   6.115
13543TIP3    H240573   3.229   2.391   6.134
13544TIP3   OH240574   2.441   7.166   0.886
13544TIP3    H140575   2.355   7.144   0.852
13544TIP3    H240576   2.429   7.252   0.928
13545TIP3   OH240577   7.762   0.408   3.820
13545TIP3    H140578   7.755   0.405   3.915
13545TIP3    H240579   7.672   0.392   3.789
13546TIP3   OH240580   8.145   0.652   2.728
13546TIP3    H140581   8.093   0.575   2.752
13546TIP3    H240582   8.091   0.727   2.754
13547TIP3   OH240583   5.520   2.795   0.010
13547TIP3    H140584   5.539   2.701   0.010
13547TIP3    H240585   5.605   2.837   0.012
13548TIP3   OH240586   0.933   2.823   6.487
13548TIP3    H140587   0.979   2.763   6.547
13548TIP3    H240588   0.876   2.874   6.544
13549TIP3   OH240589   3.770   2.753   2.350
13549TIP3    H140590   3.753   2.683   2.288
13549TIP3    H240591   3.768   2.833   2.298
13550TIP3   OH240592   4.054   1.781   3.715
13550TIP3    H140593   4.055   1.857   3.772
13550TIP3    H240594   4.076   1.816   3.628
13551TIP3   OH240595   1.920   5.676   2.593
13551TIP3    H140596   1.835   5.667   2.550
13551TIP3    H240597   1.900   5.718   2.677
13552TIP3   OH240598   4.965   4.265   0.225
13552TIP3    H140599   4.897   4.272   0.158
13552TIP3    H240600   5.040   4.311   0.189
13553TIP3   OH240601   7.462   1.697   5.199
13553TIP3    H140602   7.390   1.749   5.164
13553TIP3    H240603   7.505   1.755   5.262
13554TIP3   OH240604   6.034   4.925   5.705
13554TIP3    H140605   6.015   4.843   5.750
13554TIP3    H240606   6.043   4.989   5.776
13555TIP3   OH240607   8.104   5.763   0.746
13555TIP3    H140608   8.164   5.703   0.791
13555TIP3    H240609   8.124   5.753   0.653
13556TIP3   OH240610   2.941   5.280   0.955
13556TIP3    H140611   2.849   5.265   0.980
13556TIP3    H240612   2.936   5.327   0.872
13557TIP3   OH240613   1.380   1.493   4.006
13557TIP3    H140614   1.300   1.469   4.053
13557TIP3    H240615   1.376   1.442   3.925
13558TIP3   OH240616   1.676   7.779   1.385
13558TIP3    H140617   1.734   7.705   1.368
13558TIP3    H240618   1.603   7.766   1.325
13559TIP3   OH240619   6.145   6.325   6.453
13559TIP3    H140620   6.058   6.363   6.441
13559TIP3    H240621   6.169   6.290   6.367
13560TIP3   OH240622   4.095   3.669   3.362
13560TIP3    H140623   4.095   3.690   3.456
13560TIP3    H240624   4.041   3.591   3.354
13561TIP3   OH240625   0.716   5.962   5.954
13561TIP3    H140626   0.700   5.902   5.881
13561TIP3    H240627   0.748   6.042   5.913
13562TIP3   OH240628   4.162   6.811   5.053
13562TIP3    H140629   4.078   6.856   5.057
13562TIP3    H240630   4.143   6.721   5.080
13563TIP3   OH240631   1.956   0.027   3.462
13563TIP3    H140632   1.978   0.116   3.486
13563TIP3    H240633   1.937   0.031   3.368
13564TIP3   OH240634   5.072   4.912   2.510
13564TIP3    H140635   5.039   4.850   2.575
13564TIP3    H240636   5.162   4.930   2.538
13565TIP3   OH240637   4.546   2.594   0.931
13565TIP3    H140638   4.522   2.614   1.021
13565TIP3    H240639   4.557   2.499   0.930
13566TIP3   OH240640   1.711   2.039   4.875
13566TIP3    H140641   1.688   2.014   4.964
13566TIP3    H240642   1.636   2.012   4.822
13567TIP3   OH240643   0.562   2.967   6.394
13567TIP3    H140644   0.504   2.897   6.366
13567TIP3    H240645   0.511   3.016   6.458
13568TIP3   OH240646   3.610   6.651   6.377
13568TIP3    H140647   3.574   6.580   6.325
13568TIP3    H240648   3.569   6.730   6.342
13569TIP3   OH240649   2.367   4.861   6.402
13569TIP3    H140650   2.441   4.890   6.455
13569TIP3    H240651   2.399   4.863   6.312
13570TIP3   OH240652   6.675   6.927   0.015
13570TIP3    H140653   6.664   6.945   0.108
13570TIP3    H240654   6.704   7.009  -0.023
13571TIP3   OH240655   3.641   2.247   3.191
13571TIP3    H140656   3.593   2.201   3.122
13571TIP3    H240657   3.587   2.235   3.269
13572TIP3   OH240658   0.659   6.888   5.513
13572TIP3    H140659   0.636   6.836   5.591
13572TIP3    H240660   0.750   6.864   5.495
13573TIP3   OH240661   0.319   5.246   5.926
13573TIP3    H140662   0.287   5.335   5.909
13573TIP3    H240663   0.361   5.251   6.011
13574TIP3   OH240664   5.236   5.016   3.951
13574TIP3    H140665   5.307   5.037   3.891
13574TIP3    H240666   5.251   4.925   3.977
13575TIP3   OH240667   4.588   7.018   0.715
13575TIP3    H140668   4.670   6.971   0.730
13575TIP3    H240669   4.613   7.099   0.673
13576TIP3   OH240670   3.283   5.499   2.076
13576TIP3    H140671   3.367   5.474   2.115
13576TIP3    H240672   3.258   5.425   2.022
13577TIP3   OH240673   4.255   2.079   2.893
13577TIP3    H140674   4.287   2.071   2.803
13577TIP3    H240675   4.173   2.030   2.894
13578TIP3   OH240676   0.691   2.730   0.085
13578TIP3    H140677   0.734   2.725   0.000
13578TIP3    H240678   0.644   2.647   0.093
13579TIP3   OH240679   1.509   2.685   5.698
13579TIP3    H140680   1.444   2.744   5.657
13579TIP3    H240681   1.531   2.728   5.780
13580TIP3   OH240682   4.097   6.307   5.134
13580TIP3    H140683   4.167   6.264   5.084
13580TIP3    H240684   4.020   6.253   5.117
13581TIP3   OH240685   3.221   7.478   4.187
13581TIP3    H140686   3.139   7.516   4.158
13581TIP3    H240687   3.210   7.384   4.177
13582TIP3   OH240688   2.833   4.999   1.365
13582TIP3    H140689   2.823   4.989   1.270
13582TIP3    H240690   2.766   4.941   1.402
13583TIP3   OH240691   1.521   7.069   1.840
13583TIP3    H140692   1.573   7.053   1.762
13583TIP3    H240693   1.585   7.094   1.907
13584TIP3   OH240694   2.226   3.622   4.190
13584TIP3    H140695   2.282   3.547   4.172
13584TIP3    H240696   2.195   3.607   4.280
13585TIP3   OH240697   7.288   6.153   0.177
13585TIP3    H140698   7.211   6.112   0.216
13585TIP3    H240699   7.352   6.082   0.172
13586TIP3   OH240700   5.005   1.474   4.130
13586TIP3    H140701   4.931   1.414   4.139
13586TIP3    H240702   5.060   1.435   4.063
13587TIP3   OH240703   4.388   3.546   5.423
13587TIP3    H140704   4.322   3.556   5.354
13587TIP3    H240705   4.456   3.491   5.383
13588TIP3   OH240706   6.301   3.399   3.727
13588TIP3    H140707   6.371   3.346   3.765
13588TIP3    H240708   6.225   3.380   3.782
13589TIP3   OH240709   3.722   3.504   6.227
13589TIP3    H140710   3.753   3.424   6.183
13589TIP3    H240711   3.797   3.531   6.281
13590TIP3   OH240712   3.263   2.453   6.579
13590TIP3    H140713   3.194   2.391   6.603
13590TIP3    H240714   3.337   2.399   6.552
13591TIP3   OH240715   1.098   1.042   3.934
13591TIP3    H140716   1.096   0.959   3.886
13591TIP3    H240717   1.052   1.104   3.877
13592TIP3   OH240718   2.398   5.850   3.858
13592TIP3    H140719   2.479   5.800   3.844
13592TIP3    H240720   2.427   5.940   3.869
13593TIP3   OH240721   6.443   5.355   2.716
13593TIP3    H140722   6.464   5.448   2.715
13593TIP3    H240723   6.496   5.319   2.787
13594TIP3   OH240724   0.974   2.571   2.654
13594TIP3    H140725   0.975   2.631   2.580
13594TIP3    H240726   0.974   2.627   2.731
13595TIP3   OH240727   3.993   0.854   0.581
13595TIP3    H140728   4.023   0.764   0.595
13595TIP3    H240729   3.898   0.849   0.592
13596TIP3   OH240730   6.692   3.453   0.439
13596TIP3    H140731   6.693   3.393   0.364
13596TIP3    H240732   6.785   3.468   0.460
13597TIP3   OH240733   4.828   1.293   0.103
13597TIP3    H140734   4.808   1.292   0.196
13597TIP3    H240735   4.787   1.214   0.068
13598TIP3   OH240736   5.050   0.208   1.504
13598TIP3    H140737   5.142   0.182   1.500
13598TIP3    H240738   5.029   0.208   1.598
13599TIP3   OH240739   1.681   6.306   6.477
13599TIP3    H140740   1.749   6.326   6.542
13599TIP3    H240741   1.612   6.263   6.527
13600TIP3   OH240742   2.642   3.960   4.446
13600TIP3    H140743   2.587   4.025   4.403
13600TIP3    H240744   2.580   3.894   4.478
13601TIP3   OH240745   0.299   5.622   2.071
13601TIP3    H140746   0.341   5.552   2.020
13601TIP3    H240747   0.369   5.686   2.085
13602TIP3   OH240748   7.922   4.955   2.486
13602TIP3    H140749   7.839   4.962   2.533
13602TIP3    H240750   7.898   4.926   2.398
13603TIP3   OH240751   0.455   1.443   0.752
13603TIP3    H140752   0.412   1.517   0.796
13603TIP3    H240753   0.420   1.366   0.796
13604TIP3   OH240754   1.217   2.473   5.746
13604TIP3    H140755   1.172   2.556   5.763
13604TIP3    H240756   1.148   2.412   5.720
13605TIP3   OH240757   5.035   4.364   0.750
13605TIP3    H140758   5.054   4.412   0.831
13605TIP3    H240759   5.121   4.344   0.713
13606TIP3   OH240760   2.281   1.472   5.875
13606TIP3    H140761   2.197   1.518   5.874
13606TIP3    H240762   2.298   1.449   5.784
13607TIP3   OH240763   1.574   4.279   5.678
13607TIP3    H140764   1.485   4.246   5.670
13607TIP3    H240765   1.627   4.201   5.694
13608TIP3   OH240766   1.306   2.401   2.174
13608TIP3    H140767   1.390   2.406   2.219
13608TIP3    H240768   1.243   2.438   2.237
13609TIP3   OH240769   0.405   2.706   4.304
13609TIP3    H140770   0.317   2.718   4.268
13609TIP3    H240771   0.428   2.616   4.279
13610TIP3   OH240772   7.985   0.409   1.871
13610TIP3    H140773   8.021   0.472   1.809
13610TIP3    H240774   8.045   0.411   1.945
13611TIP3   OH240775   1.947   7.441   5.649
13611TIP3    H140776   2.013   7.481   5.592
13611TIP3    H240777   1.867   7.490   5.630
13612TIP3   OH240778   4.305   5.898   0.177
13612TIP3    H140779   4.260   5.836   0.119
13612TIP3    H240780   4.308   5.853   0.262
13613TIP3   OH240781   7.341   2.094   1.771
13613TIP3    H140782   7.292   2.094   1.853
13613TIP3    H240783   7.408   2.161   1.783
13614TIP3   OH240784   5.476   7.127   2.582
13614TIP3    H140785   5.417   7.103   2.510
13614TIP3    H240786   5.564   7.114   2.547
13615TIP3   OH240787   3.650   5.759   3.271
13615TIP3    H140788   3.740   5.730   3.262
13615TIP3    H240789   3.644   5.838   3.218
13616TIP3   OH240790   4.319   2.194   5.079
13616TIP3    H140791   4.289   2.142   5.004
13616TIP3    H240792   4.311   2.285   5.050
13617TIP3   OH240793   6.164   1.470   5.432
13617TIP3    H140794   6.224   1.542   5.412
13617TIP3    H240795   6.169   1.412   5.356
13618TIP3   OH240796   2.206   5.038   0.650
13618TIP3    H140797   2.227   4.966   0.710
13618TIP3    H240798   2.123   5.012   0.610
13619TIP3   OH240799   6.874   2.686   6.495
13619TIP3    H140800   6.825   2.622   6.547
13619TIP3    H240801   6.870   2.766   6.547
13620TIP3   OH240802   6.595   3.258   6.373
13620TIP3    H140803   6.591   3.336   6.318
13620TIP3    H240804   6.599   3.185   6.310
13621TIP3   OH240805   7.129   4.268   4.910
13621TIP3    H140806   7.215   4.268   4.868
13621TIP3    H240807   7.120   4.357   4.944
13622TIP3   OH240808   1.792   6.132   6.712
13622TIP3    H140809   1.772   6.201   6.776
13622TIP3    H240810   1.707   6.092   6.693
13623TIP3   OH240811   0.136   2.994   1.436
13623TIP3    H140812   0.181   2.910   1.447
13623TIP3    H240813   0.052   2.982   1.480
13624TIP3   OH240814   3.969   4.564   4.141
13624TIP3    H140815   3.910   4.528   4.074
13624TIP3    H240816   3.938   4.654   4.154
13625TIP3   OH240817   4.686   6.929   5.365
13625TIP3    H140818   4.731   7.013   5.351
13625TIP3    H240819   4.593   6.949   5.350
13626TIP3   OH240820   3.567   5.670   1.348
13626TIP3    H140821   3.571   5.602   1.415
13626TIP3    H240822   3.473   5.686   1.335
13627TIP3   OH240823   5.307   6.193   3.295
13627TIP3    H140824   5.378   6.146   3.252
13627TIP3    H240825   5.288   6.141   3.373
13628TIP3   OH240826   5.500   1.105   5.784
13628TIP3    H140827   5.465   1.064   5.705
13628TIP3    H240828   5.458   1.058   5.856
13629TIP3   OH240829   5.147   5.328   2.128
13629TIP3    H140830   5.149   5.274   2.207
13629TIP3    H240831   5.226   5.304   2.080
13630TIP3   OH240832   3.476   3.067   6.634
13630TIP3    H140833   3.411   3.002   6.660
13630TIP3    H240834   3.439   3.151   6.661
13631TIP3   OH240835   4.004   0.568   4.917
13631TIP3    H140836   4.027   0.646   4.967
13631TIP3    H240837   3.975   0.505   4.983
13632TIP3   OH240838   5.043   2.092   3.868
13632TIP3    H140839   5.049   2.051   3.954
13632TIP3    H240840   5.070   2.183   3.883
13633TIP3   OH240841   0.369   0.403   1.945
13633TIP3    H140842   0.283   0.417   1.906
13633TIP3    H240843   0.411   0.489   1.943
13634TIP3   OH240844   5.071   2.262   0.255
13634TIP3    H140845   5.053   2.211   0.334
13634TIP3    H240846   5.146   2.219   0.214
13635TIP3   OH240847   2.063   2.902   3.006
13635TIP3    H140848   2.071   2.931   3.097
13635TIP3    H240849   2.002   2.829   3.009
13636TIP3   OH240850   3.455   4.069   2.283
13636TIP3    H140851   3.517   4.006   2.321
13636TIP3    H240852   3.443   4.135   2.350
13637TIP3   OH240853   7.259   1.370   2.279
13637TIP3    H140854   7.285   1.353   2.188
13637TIP3    H240855   7.164   1.371   2.277
13638TIP3   OH240856   2.496   1.894   2.059
13638TIP3    H140857   2.538   1.959   2.002
13638TIP3    H240858   2.416   1.938   2.089
13639TIP3   OH240859   7.832   5.896   4.998
13639TIP3    H140860   7.923   5.917   5.015
13639TIP3    H240861   7.803   5.850   5.077
13640TIP3   OH240862   3.317   0.170   4.827
13640TIP3    H140863   3.401   0.214   4.816
13640TIP3    H240864   3.339   0.079   4.843
13641TIP3   OH240865   1.505   6.169   4.254
13641TIP3    H140866   1.518   6.116   4.332
13641TIP3    H240867   1.582   6.152   4.200
13642TIP3   OH240868   1.364   1.633   0.526
13642TIP3    H140869   1.303   1.605   0.594
13642TIP3    H240870   1.450   1.600   0.555
13643TIP3   OH240871   4.177   3.463   2.981
13643TIP3    H140872   4.178   3.433   2.889
13643TIP3    H240873   4.259   3.430   3.018
13644TIP3   OH240874   3.744   0.173   0.820
13644TIP3    H140875   3.678   0.236   0.794
13644TIP3    H240876   3.793   0.216   0.891
13645TIP3   OH240877   5.849   6.763   5.622
13645TIP3    H140878   5.883   6.735   5.708
13645TIP3    H240879   5.911   6.727   5.559
13646TIP3   OH240880   4.379   5.900   6.123
13646TIP3    H140881   4.425   5.817   6.114
13646TIP3    H240882   4.442   5.958   6.165
13647TIP3   OH240883   3.262   3.032   5.828
13647TIP3    H140884   3.329   3.028   5.760
13647TIP3    H240885   3.235   3.123   5.830
13648TIP3   OH240886   7.544   3.237   6.022
13648TIP3    H140887   7.455   3.244   5.989
13648TIP3    H240888   7.534   3.220   6.115
13649TIP3   OH240889   4.585   7.079   0.211
13649TIP3    H140890   4.531   7.081   0.290
13649TIP3    H240891   4.621   6.991   0.208
13650TIP3   OH240892   1.408   6.960   2.778
13650TIP3    H140893   1.478   6.906   2.741
13650TIP3    H240894   1.330   6.905   2.775
13651TIP3   OH240895   4.172   3.100   5.043
13651TIP3    H140896   4.157   3.179   4.992
13651TIP3    H240897   4.087   3.081   5.082
13652TIP3   OH240898   5.419   1.028   0.016
13652TIP3    H140899   5.478   0.955   0.035
13652TIP3    H240900   5.454   1.067  -0.065
13653TIP3   OH240901   7.502   6.836   0.140
13653TIP3    H140902   7.597   6.819   0.138
13653TIP3    H240903   7.484   6.875   0.055
13654TIP3   OH240904   7.242   6.239   1.365
13654TIP3    H140905   7.156   6.257   1.329
13654TIP3    H240906   7.298   6.227   1.289
13655TIP3   OH240907   1.848   6.686   6.316
13655TIP3    H140908   1.903   6.730   6.380
13655TIP3    H240909   1.807   6.757   6.266
13656TIP3   OH240910   2.570   1.750   3.986
13656TIP3    H140911   2.496   1.699   3.954
13656TIP3    H240912   2.535   1.801   4.058
13657TIP3   OH240913   2.207   3.491   5.855
13657TIP3    H140914   2.264   3.521   5.784
13657TIP3    H240915   2.228   3.549   5.928
13658TIP3   OH240916   1.254   7.269   0.932
13658TIP3    H140917   1.343   7.234   0.940
13658TIP3    H240918   1.202   7.217   0.992
13659TIP3   OH240919   6.181   6.291   2.329
13659TIP3    H140920   6.122   6.251   2.265
13659TIP3    H240921   6.248   6.225   2.345
13660TIP3   OH240922   7.725   2.919   1.771
13660TIP3    H140923   7.779   2.842   1.754
13660TIP3    H240924   7.769   2.990   1.724
13661TIP3   OH240925   0.856   1.568   2.798
13661TIP3    H140926   0.849   1.530   2.711
13661TIP3    H240927   0.894   1.655   2.783
13662TIP3   OH240928   3.462   7.723   5.237
13662TIP3    H140929   3.370   7.745   5.248
13662TIP3    H240930   3.509   7.804   5.254
13663TIP3   OH240931   4.758   4.557   3.878
13663TIP3    H140932   4.669   4.562   3.913
13663TIP3    H240933   4.772   4.641   3.835
13664TIP3   OH240934   3.328   2.105   1.490
13664TIP3    H140935   3.314   2.197   1.513
13664TIP3    H240936   3.369   2.067   1.568
13665TIP3   OH240937   0.441   3.164   5.817
13665TIP3    H140938   0.371   3.146   5.754
13665TIP3    H240939   0.516   3.115   5.783
13666TIP3   OH240940   2.227   3.363   1.652
13666TIP3    H140941   2.277   3.418   1.592
13666TIP3    H240942   2.192   3.293   1.596
13667TIP3   OH240943   2.930   7.854   5.574
13667TIP3    H140944   2.931   7.765   5.608
13667TIP3    H240945   2.878   7.849   5.494
13668TIP3   OH240946   8.186   2.575   5.534
13668TIP3    H140947   8.266   2.622   5.511
13668TIP3    H240948   8.216   2.487   5.558
13669TIP3   OH240949   0.111   5.781   5.117
13669TIP3    H140950   0.192   5.747   5.079
13669TIP3    H240951   0.058   5.703   5.135
13670TIP3   OH240952   6.093   7.674   2.654
13670TIP3    H140953   6.063   7.588   2.681
13670TIP3    H240954   6.065   7.682   2.563
13671TIP3   OH240955   0.249   4.297   5.570
13671TIP3    H140956   0.280   4.318   5.658
13671TIP3    H240957   0.184   4.364   5.550
13672TIP3   OH240958   1.681   3.752   1.146
13672TIP3    H140959   1.769   3.740   1.180
13672TIP3    H240960   1.624   3.740   1.222
13673TIP3   OH240961   1.775   5.939   4.680
13673TIP3    H140962   1.749   5.847   4.670
13673TIP3    H240963   1.695   5.985   4.704
13674TIP3   OH240964   7.260   2.427   2.028
13674TIP3    H140965   7.294   2.338   2.021
13674TIP3    H240966   7.258   2.459   1.937
13675TIP3   OH240967   1.478   6.248   1.000
13675TIP3    H140968   1.533   6.180   0.960
13675TIP3    H240969   1.523   6.270   1.081
13676TIP3   OH240970   5.379   0.097   0.879
13676TIP3    H140971   5.402   0.096   0.786
13676TIP3    H240972   5.359   0.006   0.900
13677TIP3   OH240973   7.825   2.085   2.659
13677TIP3    H140974   7.791   2.139   2.731
13677TIP3    H240975   7.913   2.117   2.644
13678TIP3   OH240976   1.507   7.783   0.082
13678TIP3    H140977   1.453   7.840   0.137
13678TIP3    H240978   1.445   7.719   0.046
13679TIP3   OH240979   5.990   7.241   6.091
13679TIP3    H140980   5.943   7.287   6.160
13679TIP3    H240981   5.939   7.258   6.012
13680TIP3   OH240982   3.346   6.737   0.428
13680TIP3    H140983   3.343   6.790   0.348
13680TIP3    H240984   3.378   6.796   0.495
13681TIP3   OH240985   2.046   2.874   5.834
13681TIP3    H140986   1.988   2.837   5.768
13681TIP3    H240987   2.133   2.872   5.795
13682TIP3   OH240988   8.298   0.537   5.556
13682TIP3    H140989   8.207   0.555   5.581
13682TIP3    H240990   8.291   0.472   5.486
13683TIP3   OH240991   6.011   6.468   5.261
13683TIP3    H140992   6.100   6.496   5.238
13683TIP3    H240993   5.983   6.531   5.327
13684TIP3   OH240994   3.646   7.257   2.985
13684TIP3    H140995   3.667   7.164   2.990
13684TIP3    H240996   3.689   7.296   3.061
13685TIP3   OH240997   2.846   3.476   1.754
13685TIP3    H140998   2.916   3.413   1.737
13685TIP3    H240999   2.831   3.470   1.848
13686TIP3   OH241000   2.399   3.142   2.965
13686TIP3    H141001   2.470   3.139   3.029
13686TIP3    H241002   2.403   3.231   2.928
13687TIP3   OH241003   4.091   3.292   6.694
13687TIP3    H141004   4.143   3.337   6.628
13687TIP3    H241005   4.002   3.323   6.681
13688TIP3   OH241006   4.125   0.792   2.714
13688TIP3    H141007   4.116   0.887   2.711
13688TIP3    H241008   4.140   0.767   2.622
13689TIP3   OH241009   0.795   3.049   4.764
13689TIP3    H141010   0.756   2.961   4.770
13689TIP3    H241011   0.880   3.035   4.723
13690TIP3   OH241012   7.932   3.817   4.822
13690TIP3    H141013   7.998   3.824   4.891
13690TIP3    H241014   7.975   3.766   4.754
13691TIP3   OH241015   4.686   1.790   4.255
13691TIP3    H141016   4.701   1.874   4.211
13691TIP3    H241017   4.774   1.755   4.271
13692TIP3   OH241018   6.129   2.577   4.695
13692TIP3    H141019   6.119   2.524   4.774
13692TIP3    H241020   6.222   2.568   4.672
13693TIP3   OH241021   4.300   3.943   4.927
13693TIP3    H141022   4.347   3.957   4.844
13693TIP3    H241023   4.218   3.990   4.917
13694TIP3   OH241024   3.926   7.134   4.033
13694TIP3    H141025   3.849   7.132   3.977
13694TIP3    H241026   3.898   7.180   4.112
13695TIP3   OH241027   6.750   7.790   1.123
13695TIP3    H141028   6.710   7.780   1.037
13695TIP3    H241029   6.676   7.800   1.183
13696TIP3   OH241030   8.049   0.742   5.260
13696TIP3    H141031   8.028   0.830   5.231
13696TIP3    H241032   8.137   0.725   5.227
13697TIP3   OH241033   6.701   5.301   6.455
13697TIP3    H141034   6.775   5.305   6.515
13697TIP3    H241035   6.626   5.329   6.507
13698TIP3   OH241036   0.698   4.034   6.195
13698TIP3    H141037   0.791   4.029   6.218
13698TIP3    H241038   0.696   4.014   6.101
13699TIP3   OH241039   3.771   0.248   0.355
13699TIP3    H141040   3.803   0.300   0.428
13699TIP3    H241041   3.820   0.166   0.360
13700TIP3   OH241042   3.959   4.249   4.306
13700TIP3    H141043   3.890   4.194   4.268
13700TIP3    H241044   4.015   4.271   4.231
13701TIP3   OH241045   8.238   5.028   6.545
13701TIP3    H141046   8.321   5.063   6.511
13701TIP3    H241047   8.178   5.102   6.543
13702TIP3   OH241048   8.030   4.229   4.339
13702TIP3    H141049   8.052   4.168   4.410
13702TIP3    H241050   7.957   4.279   4.374
13703TIP3   OH241051   3.730   1.737   1.480
13703TIP3    H141052   3.785   1.811   1.459
13703TIP3    H241053   3.790   1.663   1.490
13704TIP3   OH241054   1.204   1.767   0.854
13704TIP3    H141055   1.139   1.798   0.916
13704TIP3    H241056   1.198   1.671   0.858
13705TIP3   OH241057   3.426   2.067   1.235
13705TIP3    H141058   3.392   2.070   1.324
13705TIP3    H241059   3.513   2.027   1.243
13706TIP3   OH241060   0.376   3.288   2.028
13706TIP3    H141061   0.442   3.326   1.970
13706TIP3    H241062   0.321   3.235   1.970
13707TIP3   OH241063   4.249   7.366   4.469
13707TIP3    H141064   4.206   7.444   4.435
13707TIP3    H241065   4.211   7.353   4.556
13708TIP3   OH241066   8.144   5.643   2.575
13708TIP3    H141067   8.238   5.638   2.589
13708TIP3    H241068   8.133   5.643   2.480
13709TIP3   OH241069   6.554   2.613   6.523
13709TIP3    H141070   6.538   2.602   6.617
13709TIP3    H241071   6.615   2.542   6.500
13710TIP3   OH241072   5.592   4.545   2.358
13710TIP3    H141073   5.508   4.517   2.323
13710TIP3    H241074   5.646   4.466   2.357
13711TIP3   OH241075   2.981   7.653   0.972
13711TIP3    H141076   3.068   7.665   1.012
13711TIP3    H241077   2.971   7.729   0.915
13712TIP3   OH241078   6.058   0.688   4.764
13712TIP3    H141079   6.051   0.717   4.855
13712TIP3    H241080   6.057   0.592   4.770
13713TIP3   OH241081   4.079   7.485   2.386
13713TIP3    H141082   4.174   7.490   2.392
13713TIP3    H241083   4.057   7.401   2.427
13714TIP3   OH241084   5.960   4.197   5.987
13714TIP3    H141085   5.984   4.267   6.048
13714TIP3    H241086   5.954   4.241   5.902
13715TIP3   OH241087   5.197   0.641   1.589
13715TIP3    H141088   5.118   0.674   1.546
13715TIP3    H241089   5.266   0.650   1.522
13716TIP3   OH241090   2.999   7.290   5.564
13716TIP3    H141091   3.008   7.287   5.659
13716TIP3    H241092   2.975   7.201   5.539
13717TIP3   OH241093   4.673   7.528   6.546
13717TIP3    H141094   4.593   7.492   6.584
13717TIP3    H241095   4.666   7.622   6.560
13718TIP3   OH241096   4.577   1.165   0.721
13718TIP3    H141097   4.554   1.258   0.710
13718TIP3    H241098   4.519   1.119   0.660
13719TIP3   OH241099   2.010   0.069   1.584
13719TIP3    H141100   1.982   0.008   1.515
13719TIP3    H241101   2.092   0.032   1.616
13720TIP3   OH241102   6.872   7.585   5.165
13720TIP3    H141103   6.899   7.668   5.126
13720TIP3    H241104   6.946   7.558   5.219
13721TIP3   OH241105   1.869   3.033   4.797
13721TIP3    H141106   1.917   2.999   4.722
13721TIP3    H241107   1.846   2.956   4.848
13722TIP3   OH241108   2.174   7.138   0.729
13722TIP3    H141109   2.081   7.149   0.749
13722TIP3    H241110   2.190   7.196   0.654
13723TIP3   OH241111   5.054   5.974   2.348
13723TIP3    H141112   5.111   5.986   2.273
13723TIP3    H241113   5.062   5.882   2.372
13724TIP3   OH241114   7.084   4.974   6.590
13724TIP3    H141115   7.105   4.989   6.498
13724TIP3    H241116   7.101   4.881   6.604
13725TIP3   OH241117   5.924   4.895   4.747
13725TIP3    H141118   5.848   4.952   4.756
13725TIP3    H241119   5.998   4.948   4.777
13726TIP3   OH241120   1.278   0.960   5.970
13726TIP3    H141121   1.271   0.983   5.878
13726TIP3    H241122   1.188   0.962   6.002
13727TIP3   OH241123   6.427   3.685   2.805
13727TIP3    H141124   6.346   3.700   2.757
13727TIP3    H241125   6.405   3.706   2.896
13728TIP3   OH241126   5.421   0.998   3.433
13728TIP3    H141127   5.369   1.067   3.393
13728TIP3    H241128   5.378   0.917   3.406
13729TIP3   OH241129   5.765   7.385   5.829
13729TIP3    H141130   5.677   7.350   5.843
13729TIP3    H241131   5.806   7.323   5.769
13730TIP3   OH241132   2.569   7.399   0.370
13730TIP3    H141133   2.649   7.351   0.351
13730TIP3    H241134   2.552   7.449   0.290
13731TIP3   OH241135   5.772   4.495   3.240
13731TIP3    H141136   5.837   4.462   3.302
13731TIP3    H241137   5.691   4.449   3.263
13732TIP3   OH241138   3.297   6.697   3.098
13732TIP3    H141139   3.212   6.695   3.141
13732TIP3    H241140   3.302   6.784   3.058
13733TIP3   OH241141   1.895   5.652   2.267
13733TIP3    H141142   1.888   5.580   2.204
13733TIP3    H241143   1.964   5.625   2.327
13734TIP3   OH241144   4.164   4.200   5.775
13734TIP3    H141145   4.238   4.143   5.757
13734TIP3    H241146   4.160   4.260   5.701
13735TIP3   OH241147   2.253   6.034   2.995
13735TIP3    H141148   2.278   6.102   3.057
13735TIP3    H241149   2.188   5.981   3.042
13736TIP3   OH241150   1.270   7.158   2.137
13736TIP3    H141151   1.265   7.253   2.149
13736TIP3    H241152   1.228   7.122   2.215
13737TIP3   OH241153   1.485   4.151   3.423
13737TIP3    H141154   1.532   4.096   3.360
13737TIP3    H241155   1.550   4.217   3.449
13738TIP3   OH241156   5.368   5.676   5.289
13738TIP3    H141157   5.322   5.628   5.221
13738TIP3    H241158   5.382   5.612   5.359
13739TIP3   OH241159   0.807   5.610   6.053
13739TIP3    H141160   0.794   5.695   6.095
13739TIP3    H241161   0.896   5.616   6.016
13740TIP3   OH241162   6.423   0.821   2.556
13740TIP3    H141163   6.415   0.763   2.480
13740TIP3    H241164   6.409   0.763   2.631
13741TIP3   OH241165   3.552   1.183   2.056
13741TIP3    H141166   3.491   1.215   1.989
13741TIP3    H241167   3.517   1.097   2.080
13742TIP3   OH241168   1.437   3.103   6.228
13742TIP3    H141169   1.524   3.142   6.217
13742TIP3    H241170   1.448   3.040   6.299
13743TIP3   OH241171   3.040   3.105   1.885
13743TIP3    H141172   3.042   3.170   1.815
13743TIP3    H241173   3.080   3.149   1.960
13744TIP3   OH241174   3.186   1.164   0.943
13744TIP3    H141175   3.130   1.241   0.940
13744TIP3    H241176   3.134   1.098   0.988
13745TIP3   OH241177   8.152   2.383   6.585
13745TIP3    H141178   8.234   2.431   6.601
13745TIP3    H241179   8.170   2.294   6.616
13746TIP3   OH241180   0.045   3.493   1.257
13746TIP3    H141181  -0.007   3.426   1.301
13746TIP3    H241182   0.129   3.493   1.304
13747TIP3   OH241183   0.830   5.531   4.342
13747TIP3    H141184   0.864   5.454   4.388
13747TIP3    H241185   0.743   5.545   4.379
13748TIP3   OH241186   4.100   4.184   0.184
13748TIP3    H141187   4.116   4.206   0.092
13748TIP3    H241188   4.018   4.228   0.205
13749TIP3   OH241189   6.211   3.391   0.474
13749TIP3    H141190   6.202   3.296   0.464
13749TIP3    H241191   6.306   3.406   0.479
13750TIP3   OH241192   8.030   7.091   0.235
13750TIP3    H141193   7.956   7.151   0.238
13750TIP3    H241194   8.010   7.030   0.164
13751TIP3   OH241195   3.958   6.923   6.225
13751TIP3    H141196   4.022   6.853   6.225
13751TIP3    H241197   3.876   6.880   6.200
13752TIP3   OH241198   1.866   5.283   6.453
13752TIP3    H141199   1.938   5.250   6.508
13752TIP3    H241200   1.894   5.372   6.428
13753TIP3   OH241201   1.527   2.679   3.300
13753TIP3    H141202   1.447   2.627   3.286
13753TIP3    H241203   1.559   2.651   3.385
13754TIP3   OH241204   1.761   4.954   5.937
13754TIP3    H141205   1.675   4.961   5.895
13754TIP3    H241206   1.784   4.861   5.929
13755TIP3   OH241207   3.059   4.141   4.877
13755TIP3    H141208   3.077   4.191   4.798
13755TIP3    H241209   3.051   4.051   4.847
13756TIP3   OH241210   3.057   3.860   5.921
13756TIP3    H141211   3.138   3.847   5.873
13756TIP3    H241212   3.045   3.955   5.924
13757TIP3   OH241213   0.566   3.150   3.697
13757TIP3    H141214   0.618   3.191   3.767
13757TIP3    H241215   0.491   3.209   3.686
13758TIP3   OH241216   4.793   2.981   3.355
13758TIP3    H141217   4.878   3.005   3.393
13758TIP3    H241218   4.787   2.887   3.368
13759TIP3   OH241219   4.011   4.128   1.153
13759TIP3    H141220   3.932   4.173   1.123
13759TIP3    H241221   4.042   4.080   1.077
13760TIP3   OH241222   4.370   2.428   4.954
13760TIP3    H141223   4.321   2.449   4.874
13760TIP3    H241224   4.453   2.474   4.944
13761TIP3   OH241225   6.668   5.672   3.575
13761TIP3    H141226   6.733   5.664   3.645
13761TIP3    H241227   6.719   5.698   3.498
13762TIP3   OH241228   0.643   5.119   6.744
13762TIP3    H141229   0.673   5.206   6.772
13762TIP3    H241230   0.702   5.097   6.671
13763TIP3   OH241231   5.803   4.246   2.850
13763TIP3    H141232   5.750   4.183   2.803
13763TIP3    H241233   5.786   4.228   2.943
13764TIP3   OH241234   5.714   2.403   1.855
13764TIP3    H141235   5.763   2.407   1.937
13764TIP3    H241236   5.719   2.311   1.828
13765TIP3   OH241237   5.536   1.911   6.738
13765TIP3    H141238   5.527   1.924   6.644
13765TIP3    H241239   5.495   1.826   6.755
13766TIP3   OH241240   6.700   5.614   0.836
13766TIP3    H141241   6.689   5.567   0.919
13766TIP3    H241242   6.720   5.704   0.862
13767TIP3   OH241243   5.103   5.436   0.360
13767TIP3    H141244   5.193   5.407   0.372
13767TIP3    H241245   5.051   5.356   0.368
13768TIP3   OH241246   7.099   1.093   2.005
13768TIP3    H141247   7.054   1.178   2.013
13768TIP3    H241248   7.192   1.116   2.009
13769TIP3   OH241249   7.102   6.296   0.431
13769TIP3    H141250   7.128   6.284   0.522
13769TIP3    H241251   7.064   6.384   0.428
13770TIP3   OH241252   3.595   2.828   0.105
13770TIP3    H141253   3.620   2.884   0.179
13770TIP3    H241254   3.640   2.866   0.030
13771TIP3   OH241255   7.525   1.339   0.849
13771TIP3    H141256   7.599   1.387   0.885
13771TIP3    H241257   7.453   1.402   0.848
13772TIP3   OH241258   3.959   6.162   0.975
13772TIP3    H141259   3.913   6.219   0.914
13772TIP3    H241260   3.937   6.073   0.946
13773TIP3   OH241261   1.612   3.526   0.501
13773TIP3    H141262   1.585   3.463   0.567
13773TIP3    H241263   1.541   3.590   0.498
13774TIP3   OH241264   1.078   0.488   2.030
13774TIP3    H141265   1.164   0.452   2.048
13774TIP3    H241266   1.093   0.582   2.018
13775TIP3   OH241267   6.076   3.167   1.938
13775TIP3    H141268   6.149   3.228   1.948
13775TIP3    H241269   6.013   3.193   2.005
13776TIP3   OH241270   4.793   7.731   1.711
13776TIP3    H141271   4.876   7.698   1.745
13776TIP3    H241272   4.803   7.727   1.616
13777TIP3   OH241273   7.925   0.771   4.584
13777TIP3    H141274   7.829   0.771   4.582
13777TIP3    H241275   7.950   0.691   4.538
13778TIP3   OH241276   1.172   7.549   4.693
13778TIP3    H141277   1.262   7.548   4.661
13778TIP3    H241278   1.181   7.556   4.788
13779TIP3   OH241279   5.217   0.256   2.363
13779TIP3    H141280   5.166   0.318   2.311
13779TIP3    H241281   5.172   0.172   2.352
13780TIP3   OH241282   1.407   5.109   3.395
13780TIP3    H141283   1.448   5.195   3.402
13780TIP3    H241284   1.363   5.110   3.310
13781TIP3   OH241285   2.719   4.369   5.691
13781TIP3    H141286   2.626   4.361   5.673
13781TIP3    H241287   2.748   4.279   5.707
13782TIP3   OH241288   3.416   1.782   2.935
13782TIP3    H141289   3.415   1.774   2.839
13782TIP3    H241290   3.323   1.789   2.959
13783TIP3   OH241291   4.223   2.393   1.368
13783TIP3    H141292   4.244   2.482   1.398
13783TIP3    H241293   4.248   2.337   1.441
13784TIP3   OH241294   4.987   4.522   3.998
13784TIP3    H141295   4.891   4.518   3.995
13784TIP3    H241296   5.015   4.449   3.943
13785TIP3   OH241297   4.300   0.947   6.720
13785TIP3    H141298   4.209   0.920   6.713
13785TIP3    H241299   4.299   1.040   6.696
13786TIP3   OH241300   5.996   5.751   6.351
13786TIP3    H141301   5.999   5.678   6.412
13786TIP3    H241302   6.077   5.744   6.301
13787TIP3   OH241303   5.449   6.822   4.737
13787TIP3    H141304   5.530   6.829   4.788
13787TIP3    H241305   5.474   6.852   4.649
13788TIP3   OH241306   2.639   1.255   1.710
13788TIP3    H141307   2.620   1.252   1.804
13788TIP3    H241308   2.576   1.317   1.675
13789TIP3   OH241309   4.985   0.430   3.207
13789TIP3    H141310   4.963   0.337   3.212
13789TIP3    H241311   5.071   0.432   3.164
13790TIP3   OH241312   2.734   2.365   2.550
13790TIP3    H141313   2.680   2.435   2.587
13790TIP3    H241314   2.719   2.371   2.456
13791TIP3   OH241315   8.139   5.285   4.008
13791TIP3    H141316   8.061   5.261   4.058
13791TIP3    H241317   8.106   5.306   3.920
13792TIP3   OH241318   7.691   7.623   2.219
13792TIP3    H141319   7.707   7.548   2.276
13792TIP3    H241320   7.714   7.699   2.272
13793TIP3   OH241321   6.968   7.799   6.711
13793TIP3    H141322   6.999   7.825   6.624
13793TIP3    H241323   7.044   7.808   6.768
13794TIP3   OH241324   5.978   3.181   6.027
13794TIP3    H141325   5.894   3.218   6.051
13794TIP3    H241326   5.993   3.211   5.937
13795TIP3   OH241327   2.135   1.431   0.025
13795TIP3    H141328   2.110   1.507   0.078
13795TIP3    H241329   2.202   1.464  -0.035
13796TIP3   OH241330   4.104   0.198   6.070
13796TIP3    H141331   4.191   0.209   6.031
13796TIP3    H241332   4.087   0.105   6.064
13797TIP3   OH241333   0.860   3.601   5.486
13797TIP3    H141334   0.931   3.664   5.477
13797TIP3    H241335   0.901   3.516   5.472
13798TIP3   OH241336   3.686   6.731   6.632
13798TIP3    H141337   3.645   6.674   6.567
13798TIP3    H241338   3.745   6.787   6.582
13799TIP3   OH241339   4.762   4.279   3.843
13799TIP3    H141340   4.733   4.370   3.837
13799TIP3    H241341   4.682   4.230   3.859
13800TIP3   OH241342   7.615   6.963   4.433
13800TIP3    H141343   7.643   7.051   4.411
13800TIP3    H241344   7.695   6.910   4.427
13801TIP3   OH241345   1.211   1.486   0.841
13801TIP3    H141346   1.167   1.494   0.925
13801TIP3    H241347   1.167   1.413   0.797
13802TIP3   OH241348   4.604   4.738   1.598
13802TIP3    H141349   4.636   4.697   1.678
13802TIP3    H241350   4.587   4.829   1.622
13803TIP3   OH241351   0.669   7.477   2.586
13803TIP3    H141352   0.708   7.556   2.550
13803TIP3    H241353   0.576   7.484   2.565
13804TIP3   OH241354   3.227   1.299   3.941
13804TIP3    H141355   3.165   1.231   3.970
13804TIP3    H241356   3.172   1.364   3.898
13805TIP3   OH241357   2.424   6.764   2.245
13805TIP3    H141358   2.421   6.741   2.337
13805TIP3    H241359   2.437   6.681   2.200
13806TIP3   OH241360   8.135   5.954   0.973
13806TIP3    H141361   8.196   6.020   0.941
13806TIP3    H241362   8.095   5.917   0.894
13807TIP3   OH241363   7.721   5.249   1.709
13807TIP3    H141364   7.771   5.197   1.646
13807TIP3    H241365   7.715   5.194   1.787
13808TIP3   OH241366   6.671   2.139   6.354
13808TIP3    H141367   6.636   2.050   6.362
13808TIP3    H241368   6.595   2.192   6.330
13809TIP3   OH241369   4.448   6.705   2.670
13809TIP3    H141370   4.450   6.609   2.678
13809TIP3    H241371   4.533   6.733   2.703
13810TIP3   OH241372   4.795   3.179   1.511
13810TIP3    H141373   4.759   3.240   1.575
13810TIP3    H241374   4.883   3.160   1.543
13811TIP3   OH241375   2.251   4.730   5.318
13811TIP3    H141376   2.171   4.694   5.279
13811TIP3    H241377   2.219   4.787   5.389
13812TIP3   OH241378   3.171   4.369   6.542
13812TIP3    H141379   3.096   4.348   6.598
13812TIP3    H241380   3.210   4.446   6.584
13813TIP3   OH241381   2.640   1.268   3.495
13813TIP3    H141382   2.596   1.208   3.555
13813TIP3    H241383   2.658   1.216   3.417
13814TIP3   OH241384   7.434   7.215   6.640
13814TIP3    H141385   7.395   7.230   6.726
13814TIP3    H241386   7.372   7.255   6.579
13815TIP3   OH241387   7.860   5.543   1.900
13815TIP3    H141388   7.830   5.460   1.935
13815TIP3    H241389   7.913   5.520   1.824
13816TIP3   OH241390   6.260   2.700   6.471
13816TIP3    H141391   6.339   2.651   6.447
13816TIP3    H241392   6.287   2.751   6.548
13817TIP3   OH241393   0.701   5.732   4.632
13817TIP3    H141394   0.769   5.779   4.585
13817TIP3    H241395   0.666   5.670   4.569
13818TIP3   OH241396   5.975   4.766   3.388
13818TIP3    H141397   5.978   4.841   3.328
13818TIP3    H241398   6.056   4.718   3.370
13819TIP3   OH241399   6.549   1.234   1.251
13819TIP3    H141400   6.605   1.291   1.304
13819TIP3    H241401   6.550   1.274   1.164
13820TIP3   OH241402   5.334   2.257   3.704
13820TIP3    H141403   5.387   2.296   3.634
13820TIP3    H241404   5.350   2.163   3.696
13821TIP3   OH241405   6.549   5.367   3.036
13821TIP3    H141406   6.474   5.411   3.074
13821TIP3    H241407   6.581   5.309   3.105
13822TIP3   OH241408   8.146   1.006   2.959
13822TIP3    H141409   8.151   0.961   3.044
13822TIP3    H241410   8.057   1.042   2.956
13823TIP3   OH241411   6.571   3.486   5.933
13823TIP3    H141412   6.640   3.537   5.891
13823TIP3    H241413   6.518   3.454   5.860
13824TIP3   OH241414   0.038   0.534   3.006
13824TIP3    H141415   0.112   0.580   3.045
13824TIP3    H241416   0.074   0.493   2.926
13825TIP3   OH241417   7.152   5.133   2.230
13825TIP3    H141418   7.156   5.051   2.182
13825TIP3    H241419   7.215   5.190   2.184
13826TIP3   OH241420   1.648   5.608   2.628
13826TIP3    H141421   1.633   5.568   2.542
13826TIP3    H241422   1.707   5.548   2.672
13827TIP3   OH241423   6.882   6.912   3.767
13827TIP3    H141424   6.949   6.932   3.702
13827TIP3    H241425   6.801   6.943   3.728
13828TIP3   OH241426   3.728   1.380   1.986
13828TIP3    H141427   3.658   1.326   2.023
13828TIP3    H241428   3.799   1.319   1.968
13829TIP3   OH241429   4.000   4.928   4.578
13829TIP3    H141430   3.943   4.933   4.655
13829TIP3    H241431   4.088   4.945   4.612
13830TIP3   OH241432   0.206   7.452   4.910
13830TIP3    H141433   0.163   7.408   4.984
13830TIP3    H241434   0.158   7.534   4.900
13831TIP3   OH241435   0.583   4.337   4.649
13831TIP3    H141436   0.548   4.371   4.566
13831TIP3    H241437   0.510   4.348   4.711
13832TIP3   OH241438   6.653   5.721   2.517
13832TIP3    H141439   6.714   5.648   2.517
13832TIP3    H241440   6.576   5.688   2.470
13833TIP3   OH241441   6.753   5.734   3.248
13833TIP3    H141442   6.662   5.747   3.220
13833TIP3    H241443   6.760   5.781   3.331
13834TIP3   OH241444   7.695   7.796   6.627
13834TIP3    H141445   7.667   7.776   6.716
13834TIP3    H241446   7.753   7.871   6.637
13835TIP3   OH241447   0.870   0.178   5.052
13835TIP3    H141448   0.895   0.270   5.052
13835TIP3    H241449   0.943   0.134   5.008
13836TIP3   OH241450   2.215   5.317   1.285
13836TIP3    H141451   2.244   5.347   1.371
13836TIP3    H241452   2.171   5.393   1.247
13837TIP3   OH241453   2.848   1.898   6.181
13837TIP3    H141454   2.836   1.821   6.124
13837TIP3    H241455   2.809   1.872   6.264
13838TIP3   OH241456   4.710   6.417   4.268
13838TIP3    H141457   4.755   6.418   4.184
13838TIP3    H241458   4.618   6.427   4.247
13839TIP3   OH241459   1.223   1.299   4.266
13839TIP3    H141460   1.305   1.253   4.253
13839TIP3    H241461   1.208   1.296   4.360
13840TIP3   OH241462   2.178   5.349   5.137
13840TIP3    H141463   2.111   5.416   5.127
13840TIP3    H241464   2.229   5.354   5.056
13841TIP3   OH241465   1.680   3.263   4.924
13841TIP3    H141466   1.731   3.304   4.854
13841TIP3    H241467   1.717   3.175   4.933
13842TIP3   OH241468   1.345   2.176   1.830
13842TIP3    H141469   1.282   2.247   1.841
13842TIP3    H241470   1.386   2.167   1.916
13843TIP3   OH241471   2.354   2.431   3.547
13843TIP3    H141472   2.444   2.435   3.579
13843TIP3    H241473   2.354   2.485   3.468
13844TIP3   OH241474   5.829   6.658   6.172
13844TIP3    H141475   5.855   6.608   6.250
13844TIP3    H241476   5.808   6.745   6.206
13845TIP3   OH241477   3.278   5.261   6.437
13845TIP3    H141478   3.321   5.184   6.400
13845TIP3    H241479   3.311   5.267   6.526
13846TIP3   OH241480   6.252   5.560   3.381
13846TIP3    H141481   6.293   5.589   3.462
13846TIP3    H241482   6.174   5.615   3.373
13847TIP3   OH241483   7.021   6.382   0.169
13847TIP3    H141484   7.062   6.322   0.231
13847TIP3    H241485   6.945   6.417   0.215
13848TIP3   OH241486   4.329   1.128   0.587
13848TIP3    H141487   4.325   1.201   0.525
13848TIP3    H241488   4.240   1.121   0.621
13849TIP3   OH241489   7.052   4.586   2.517
13849TIP3    H141490   7.069   4.496   2.544
13849TIP3    H241491   7.100   4.595   2.434
13850TIP3   OH241492   5.603   4.096   5.404
13850TIP3    H141493   5.536   4.151   5.363
13850TIP3    H241494   5.682   4.150   5.403
13851TIP3   OH241495   5.377   7.321   3.736
13851TIP3    H141496   5.429   7.342   3.658
13851TIP3    H241497   5.313   7.392   3.742
13852TIP3   OH241498   4.246   0.448   2.907
13852TIP3    H141499   4.276   0.495   2.984
13852TIP3    H241500   4.299   0.368   2.905
13853TIP3   OH241501   7.369   4.028   3.507
13853TIP3    H141502   7.442   3.978   3.543
13853TIP3    H241503   7.292   3.975   3.526
13854TIP3   OH241504   4.501   7.447   6.041
13854TIP3    H141505   4.531   7.448   6.132
13854TIP3    H241506   4.578   7.474   5.990
13855TIP3   OH241507   3.285   0.621   4.924
13855TIP3    H141508   3.229   0.692   4.956
13855TIP3    H241509   3.232   0.577   4.857
13856TIP3   OH241510   7.748   2.556   4.465
13856TIP3    H141511   7.805   2.501   4.411
13856TIP3    H241512   7.805   2.589   4.534
13857TIP3   OH241513   4.451   6.393   6.478
13857TIP3    H141514   4.473   6.484   6.459
13857TIP3    H241515   4.535   6.351   6.496
13858TIP3   OH241516   2.741   7.523   4.847
13858TIP3    H141517   2.772   7.573   4.772
13858TIP3    H241518   2.663   7.477   4.816
13859TIP3   OH241519   1.280   2.358   0.967
13859TIP3    H141520   1.202   2.384   1.017
13859TIP3    H241521   1.253   2.363   0.875
13860TIP3   OH241522   6.962   5.266   2.365
13860TIP3    H141523   7.010   5.344   2.391
13860TIP3    H241524   7.028   5.211   2.322
13861TIP3   OH241525   4.536   1.118   3.245
13861TIP3    H141526   4.525   1.026   3.221
13861TIP3    H241527   4.484   1.129   3.324
13862TIP3   OH241528   5.166   5.013   2.182
13862TIP3    H141529   5.117   5.035   2.261
13862TIP3    H241530   5.107   5.033   2.110
13863TIP3   OH241531   6.059   0.246   6.740
13863TIP3    H141532   6.138   0.196   6.717
13863TIP3    H241533   6.079   0.335   6.713
13864TIP3   OH241534   5.901   1.008   4.864
13864TIP3    H141535   5.928   0.970   4.780
13864TIP3    H241536   5.930   1.099   4.860
13865TIP3   OH241537   6.332   7.017   3.421
13865TIP3    H141538   6.391   6.995   3.493
13865TIP3    H241539   6.385   7.004   3.342
13866TIP3   OH241540   5.718   0.205   5.273
13866TIP3    H141541   5.772   0.127   5.283
13866TIP3    H241542   5.636   0.172   5.236
13867TIP3   OH241543   8.242   7.051   0.785
13867TIP3    H141544   8.334   7.030   0.769
13867TIP3    H241545   8.193   7.002   0.719
13868TIP3   OH241546   5.002   2.142   0.480
13868TIP3    H141547   5.017   2.050   0.501
13868TIP3    H241548   5.043   2.190   0.551
13869TIP3   OH241549   6.798   2.475   6.250
13869TIP3    H141550   6.866   2.421   6.210
13869TIP3    H241551   6.801   2.452   6.343
13870TIP3   OH241552   1.817   2.542   2.233
13870TIP3    H141553   1.879   2.540   2.306
13870TIP3    H241554   1.800   2.450   2.213
13871TIP3   OH241555   2.509   1.242   6.490
13871TIP3    H141556   2.582   1.219   6.547
13871TIP3    H241557   2.551   1.270   6.408
13872TIP3   OH241558   6.289   4.781   0.455
13872TIP3    H141559   6.222   4.803   0.391
13872TIP3    H241560   6.357   4.736   0.404
13873TIP3   OH241561   5.289   4.817   0.875
13873TIP3    H141562   5.223   4.847   0.937
13873TIP3    H241563   5.257   4.732   0.845
13874TIP3   OH241564   2.578   6.207   0.909
13874TIP3    H141565   2.558   6.235   0.820
13874TIP3    H241566   2.494   6.209   0.955
13875TIP3   OH241567   6.351   0.145   2.857
13875TIP3    H141568   6.402   0.156   2.937
13875TIP3    H241569   6.349   0.050   2.842
13876TIP3   OH241570   0.478   0.139   2.554
13876TIP3    H141571   0.496   0.137   2.648
13876TIP3    H241572   0.541   0.077   2.516
13877TIP3   OH241573   8.041   0.925   5.796
13877TIP3    H141574   7.998   0.947   5.714
13877TIP3    H241575   8.118   0.981   5.799
13878TIP3   OH241576   3.478   6.898   5.789
13878TIP3    H141577   3.397   6.870   5.830
13878TIP3    H241578   3.537   6.823   5.801
13879TIP3   OH241579   3.847   1.160   5.783
13879TIP3    H141580   3.890   1.084   5.745
13879TIP3    H241581   3.780   1.184   5.719
13880TIP3   OH241582   4.673   1.332   5.818
13880TIP3    H141583   4.706   1.296   5.736
13880TIP3    H241584   4.599   1.276   5.841
13881TIP3   OH241585   4.547   0.719   4.217
13881TIP3    H141586   4.481   0.788   4.224
13881TIP3    H241587   4.601   0.728   4.296
13882TIP3   OH241588   0.698   6.224   2.654
13882TIP3    H141589   0.678   6.318   2.646
13882TIP3    H241590   0.645   6.195   2.728
13883TIP3   OH241591   5.068   6.190   1.428
13883TIP3    H141592   5.098   6.169   1.339
13883TIP3    H241593   4.974   6.202   1.419
13884TIP3   OH241594   1.580   1.769   1.313
13884TIP3    H141595   1.659   1.814   1.280
13884TIP3    H241596   1.513   1.790   1.248
13885TIP3   OH241597   2.581   6.107   5.462
13885TIP3    H141598   2.607   6.024   5.422
13885TIP3    H241599   2.581   6.170   5.389
13886TIP3   OH241600   4.735   4.055   1.734
13886TIP3    H141601   4.730   3.979   1.793
13886TIP3    H241602   4.696   4.127   1.783
13887TIP3   OH241603   6.392   4.652   6.009
13887TIP3    H141604   6.441   4.643   6.091
13887TIP3    H241605   6.309   4.693   6.036
13888TIP3   OH241606   3.390   3.720   3.450
13888TIP3    H141607   3.368   3.784   3.383
13888TIP3    H241608   3.348   3.753   3.529
13889TIP3   OH241609   0.558   4.286   1.649
13889TIP3    H141610   0.651   4.289   1.631
13889TIP3    H241611   0.523   4.368   1.615
13890TIP3   OH241612   2.176   5.307   5.414
13890TIP3    H141613   2.266   5.276   5.420
13890TIP3    H241614   2.160   5.317   5.320
13891TIP3   OH241615   2.879   7.721   5.322
13891TIP3    H141616   2.846   7.639   5.361
13891TIP3    H241617   2.864   7.710   5.228
13892TIP3   OH241618   7.284   1.334   1.995
13892TIP3    H141619   7.377   1.341   1.975
13892TIP3    H241620   7.241   1.387   1.928
13893TIP3   OH241621   2.324   3.562   6.628
13893TIP3    H141622   2.263   3.608   6.571
13893TIP3    H241623   2.294   3.471   6.626
13894TIP3   OH241624   5.616   4.524   4.459
13894TIP3    H141625   5.586   4.560   4.375
13894TIP3    H241626   5.699   4.568   4.475
13895TIP3   OH241627   5.902   4.549   4.616
13895TIP3    H141628   5.956   4.619   4.651
13895TIP3    H241629   5.818   4.557   4.663
13896TIP3   OH241630   5.176   6.566   5.103
13896TIP3    H141631   5.234   6.592   5.032
13896TIP3    H241632   5.088   6.568   5.066
13897TIP3   OH241633   2.026   2.613   1.028
13897TIP3    H141634   2.099   2.551   1.036
13897TIP3    H241635   1.967   2.572   0.964
13898TIP3   OH241636   3.838   7.752   5.774
13898TIP3    H141637   3.762   7.710   5.734
13898TIP3    H241638   3.829   7.735   5.867
13899TIP3   OH241639   4.755   7.003   4.898
13899TIP3    H141640   4.844   7.016   4.931
13899TIP3    H241641   4.700   7.051   4.959
13900TIP3   OH241642   3.139   0.528   5.568
13900TIP3    H141643   3.153   0.447   5.518
13900TIP3    H241644   3.118   0.594   5.502
13901TIP3   OH241645   7.227   4.192   3.327
13901TIP3    H141646   7.150   4.138   3.345
13901TIP3    H241647   7.290   4.166   3.395
13902TIP3   OH241648   3.245   5.254   4.076
13902TIP3    H141649   3.156   5.264   4.109
13902TIP3    H241650   3.291   5.333   4.104
13903TIP3   OH241651   2.936   0.204   2.490
13903TIP3    H141652   2.883   0.150   2.432
13903TIP3    H241653   3.006   0.237   2.434
13904TIP3   OH241654   6.141   2.223   5.448
13904TIP3    H141655   6.123   2.182   5.533
13904TIP3    H241656   6.232   2.253   5.455
13905TIP3   OH241657   0.109   0.506   1.934
13905TIP3    H141658   0.148   0.550   2.010
13905TIP3    H241659   0.072   0.577   1.881
13906TIP3   OH241660   1.247   1.219   2.848
13906TIP3    H141661   1.189   1.295   2.847
13906TIP3    H241662   1.188   1.143   2.846
13907TIP3   OH241663   0.332   6.204   6.185
13907TIP3    H141664   0.320   6.209   6.280
13907TIP3    H241665   0.412   6.154   6.173
13908TIP3   OH241666   2.885   1.627   3.960
13908TIP3    H141667   2.896   1.711   4.004
13908TIP3    H241668   2.796   1.629   3.925
13909TIP3   OH241669   7.156   3.165   3.118
13909TIP3    H141670   7.175   3.140   3.028
13909TIP3    H241671   7.178   3.087   3.169
13910TIP3   OH241672   1.570   6.146   3.823
13910TIP3    H141673   1.575   6.202   3.746
13910TIP3    H241674   1.516   6.072   3.796
13911TIP3   OH241675   7.743   4.079   4.253
13911TIP3    H141676   7.691   4.067   4.333
13911TIP3    H241677   7.740   3.994   4.209
13912TIP3   OH241678   7.604   2.442   2.565
13912TIP3    H141679   7.549   2.402   2.632
13912TIP3    H241680   7.581   2.396   2.484
13913TIP3   OH241681   2.443   6.791   0.192
13913TIP3    H141682   2.520   6.784   0.249
13913TIP3    H241683   2.384   6.850   0.240
13914TIP3   OH241684   3.248   1.897   4.003
13914TIP3    H141685   3.200   1.851   4.072
13914TIP3    H241686   3.336   1.862   4.006
13915TIP3   OH241687   5.627   6.274   0.689
13915TIP3    H141688   5.580   6.215   0.630
13915TIP3    H241689   5.595   6.361   0.667
13916TIP3   OH241690   6.289   1.366   6.611
13916TIP3    H141691   6.315   1.400   6.696
13916TIP3    H241692   6.370   1.369   6.559
13917TIP3   OH241693   6.302   6.020   6.122
13917TIP3    H141694   6.327   6.033   6.213
13917TIP3    H241695   6.240   6.091   6.104
13918TIP3   OH241696   1.332   3.342   5.327
13918TIP3    H141697   1.399   3.303   5.382
13918TIP3    H241698   1.255   3.347   5.383
13919TIP3   OH241699   2.342   3.280   1.256
13919TIP3    H141700   2.249   3.299   1.262
13919TIP3    H241701   2.383   3.365   1.239
13920TIP3   OH241702   4.633   5.497   3.613
13920TIP3    H141703   4.599   5.410   3.590
13920TIP3    H241704   4.560   5.540   3.658
13921TIP3   OH241705   0.302   5.105   2.059
13921TIP3    H141706   0.207   5.096   2.046
13921TIP3    H241707   0.319   5.198   2.048
13922TIP3   OH241708   5.966   6.563   2.495
13922TIP3    H141709   6.053   6.587   2.464
13922TIP3    H241710   5.940   6.490   2.439
13923TIP3   OH241711   4.490   1.901   4.702
13923TIP3    H141712   4.548   1.919   4.776
13923TIP3    H241713   4.516   1.965   4.635
13924TIP3   OH241714   1.409   3.498   4.079
13924TIP3    H141715   1.496   3.512   4.115
13924TIP3    H241716   1.354   3.565   4.120
13925TIP3   OH241717   2.998   7.490   4.053
13925TIP3    H141718   2.987   7.408   4.005
13925TIP3    H241719   2.968   7.557   3.992
13926TIP3   OH241720   1.231   3.839   4.804
13926TIP3    H141721   1.314   3.804   4.772
13926TIP3    H241722   1.242   3.848   4.898
13927TIP3   OH241723   2.401   5.808   0.712
13927TIP3    H141724   2.338   5.875   0.738
13927TIP3    H241725   2.377   5.731   0.764
13928TIP3   OH241726   5.742   4.825   2.607
13928TIP3    H141727   5.722   4.733   2.592
13928TIP3    H241728   5.818   4.824   2.666
13929TIP3   OH241729   1.502   7.056   1.325
13929TIP3    H141730   1.508   7.149   1.305
13929TIP3    H241731   1.438   7.022   1.263
13930TIP3   OH241732   7.136   6.925   0.268
13930TIP3    H141733   7.151   6.897   0.178
13930TIP3    H241734   7.188   6.865   0.321
13931TIP3   OH241735   3.764   0.795   4.617
13931TIP3    H141736   3.697   0.810   4.550
13931TIP3    H241737   3.836   0.752   4.571
13932TIP3   OH241738   1.927   6.995   3.168
13932TIP3    H141739   1.909   7.082   3.132
13932TIP3    H241740   1.842   6.951   3.168
13933TIP3   OH241741   7.859   5.691   0.294
13933TIP3    H141742   7.953   5.709   0.298
13933TIP3    H241743   7.818   5.776   0.311
13934TIP3   OH241744   2.015   5.887   3.062
13934TIP3    H141745   1.960   5.965   3.049
13934TIP3    H241746   2.029   5.884   3.157
13935TIP3   OH241747   7.594   5.024   2.306
13935TIP3    H141748   7.538   4.947   2.295
13935TIP3    H241749   7.533   5.097   2.316
13936TIP3   OH241750   5.348   6.501   3.607
13936TIP3    H141751   5.349   6.413   3.643
13936TIP3    H241752   5.439   6.518   3.582
13937TIP3   OH241753   3.976   0.637   4.503
13937TIP3    H141754   3.965   0.581   4.426
13937TIP3    H241755   4.028   0.585   4.564
13938TIP3   OH241756   3.677   2.106   4.053
13938TIP3    H141757   3.672   2.187   4.003
13938TIP3    H241758   3.617   2.119   4.127
13939TIP3   OH241759   3.827   3.289   5.496
13939TIP3    H141760   3.891   3.359   5.510
13939TIP3    H241761   3.844   3.226   5.565
13940TIP3   OH241762   0.141   5.161   2.971
13940TIP3    H141763   0.190   5.188   2.894
13940TIP3    H241764   0.088   5.238   2.993
13941TIP3   OH241765   3.765   4.823   1.851
13941TIP3    H141766   3.721   4.769   1.785
13941TIP3    H241767   3.854   4.833   1.817
13942TIP3   OH241768   5.169   3.434   1.603
13942TIP3    H141769   5.199   3.474   1.685
13942TIP3    H241770   5.190   3.341   1.613
13943TIP3   OH241771   1.678   3.186   4.516
13943TIP3    H141772   1.677   3.251   4.587
13943TIP3    H241773   1.620   3.117   4.547
13944TIP3   OH241774   5.032   5.397   6.510
13944TIP3    H141775   5.100   5.437   6.455
13944TIP3    H241776   4.957   5.458   6.503
13945TIP3   OH241777   4.186   5.388   6.170
13945TIP3    H141778   4.244   5.458   6.141
13945TIP3    H241779   4.237   5.308   6.162
13946TIP3   OH241780   4.260   1.387   1.885
13946TIP3    H141781   4.300   1.413   1.802
13946TIP3    H241782   4.224   1.300   1.868
13947TIP3   OH241783   1.981   6.579   0.273
13947TIP3    H141784   1.924   6.542   0.340
13947TIP3    H241785   2.038   6.640   0.320
13948TIP3   OH241786   2.307   7.828   2.365
13948TIP3    H141787   2.269   7.783   2.440
13948TIP3    H241788   2.343   7.757   2.311
13949TIP3   OH241789   4.929   6.638   1.557
13949TIP3    H141790   4.945   6.715   1.503
13949TIP3    H241791   4.968   6.659   1.642
13950TIP3   OH241792   7.063   7.760   2.028
13950TIP3    H141793   7.007   7.713   2.090
13950TIP3    H241794   7.124   7.693   1.996
13951TIP3   OH241795   0.540   4.906   1.627
13951TIP3    H141796   0.495   4.866   1.553
13951TIP3    H241797   0.574   4.988   1.591
13952TIP3   OH241798   2.863   7.159   6.798
13952TIP3    H141799   2.848   7.116   6.882
13952TIP3    H241800   2.955   7.143   6.779
13953TIP3   OH241801   5.223   1.284   0.339
13953TIP3    H141802   5.275   1.355   0.376
13953TIP3    H241803   5.206   1.311   0.248
13954TIP3   OH241804   4.943   5.620   5.301
13954TIP3    H141805   4.919   5.535   5.264
13954TIP3    H241806   4.967   5.601   5.391
13955TIP3   OH241807   2.411   1.216   3.123
13955TIP3    H141808   2.452   1.234   3.038
13955TIP3    H241809   2.459   1.141   3.158
13956TIP3   OH241810   6.478   6.446   2.360
13956TIP3    H141811   6.418   6.504   2.406
13956TIP3    H241812   6.429   6.364   2.351
13957TIP3   OH241813   4.913   6.487   6.115
13957TIP3    H141814   4.891   6.530   6.198
13957TIP3    H241815   5.007   6.502   6.105
13958TIP3   OH241816   8.016   3.333   5.090
13958TIP3    H141817   7.970   3.344   5.173
13958TIP3    H241818   8.051   3.244   5.094
13959TIP3   OH241819   7.773   7.514   1.160
13959TIP3    H141820   7.742   7.449   1.224
13959TIP3    H241821   7.704   7.517   1.094
13960TIP3   OH241822   5.504   4.384   0.903
13960TIP3    H141823   5.585   4.364   0.951
13960TIP3    H241824   5.534   4.407   0.815
13961TIP3   OH241825   0.662   4.503   4.236
13961TIP3    H141826   0.691   4.484   4.146
13961TIP3    H241827   0.743   4.506   4.287
13962TIP3   OH241828   5.926   2.095   1.389
13962TIP3    H141829   5.908   2.184   1.358
13962TIP3    H241830   6.021   2.087   1.382
13963TIP3   OH241831   1.674   6.695   0.799
13963TIP3    H141832   1.597   6.749   0.818
13963TIP3    H241833   1.738   6.722   0.864
13964TIP3   OH241834   6.064   2.047   5.911
13964TIP3    H141835   6.023   2.132   5.925
13964TIP3    H241836   6.060   2.034   5.816
13965TIP3   OH241837   2.348   3.971   3.305
13965TIP3    H141838   2.385   3.918   3.234
13965TIP3    H241839   2.414   4.037   3.323
13966TIP3   OH241840   7.815   5.304   0.841
13966TIP3    H141841   7.767   5.241   0.895
13966TIP3    H241842   7.848   5.253   0.767
13967TIP3   OH241843   2.137   1.369   1.651
13967TIP3    H141844   2.056   1.419   1.659
13967TIP3    H241845   2.146   1.354   1.557
13968TIP3   OH241846   1.832   0.496   0.012
13968TIP3    H141847   1.816   0.550   0.090
13968TIP3    H241848   1.884   0.423   0.043
13969TIP3   OH241849   4.364   3.758   0.718
13969TIP3    H141850   4.366   3.824   0.648
13969TIP3    H241851   4.436   3.699   0.697
13970TIP3   OH241852   1.814   3.642   5.329
13970TIP3    H141853   1.862   3.653   5.248
13970TIP3    H241854   1.873   3.675   5.397
13971TIP3   OH241855   3.648   4.556   0.923
13971TIP3    H141856   3.643   4.526   0.832
13971TIP3    H241857   3.738   4.586   0.934
13972TIP3   OH241858   0.620   7.341   0.280
13972TIP3    H141859   0.561   7.393   0.333
13972TIP3    H241860   0.592   7.250   0.294
13973TIP3   OH241861   1.506   7.192   5.834
13973TIP3    H141862   1.520   7.196   5.739
13973TIP3    H241863   1.437   7.256   5.851
13974TIP3   OH241864   7.940   5.819   6.097
13974TIP3    H141865   8.028   5.841   6.131
13974TIP3    H241866   7.901   5.904   6.078
13975TIP3   OH241867   6.404   6.775   4.443
13975TIP3    H141868   6.473   6.732   4.493
13975TIP3    H241869   6.445   6.854   4.408
13976TIP3   OH241870   5.924   4.806   6.593
13976TIP3    H141871   5.957   4.872   6.533
13976TIP3    H241872   6.002   4.761   6.625
13977TIP3   OH241873   0.245   6.134   1.066
13977TIP3    H141874   0.338   6.134   1.046
13977TIP3    H241875   0.240   6.123   1.161
13978TIP3   OH241876   2.729   2.676   6.590
13978TIP3    H141877   2.704   2.684   6.682
13978TIP3    H241878   2.664   2.617   6.552
13979TIP3   OH241879   5.007   5.083   0.542
13979TIP3    H141880   4.915   5.073   0.567
13979TIP3    H241881   5.017   5.030   0.464
13980TIP3   OH241882   5.211   1.104   6.195
13980TIP3    H141883   5.217   1.162   6.270
13980TIP3    H241884   5.146   1.038   6.221
13981TIP3   OH241885   0.429   1.695   4.109
13981TIP3    H141886   0.430   1.602   4.084
13981TIP3    H241887   0.340   1.711   4.140
13982TIP3   OH241888   1.369   5.319   0.160
13982TIP3    H141889   1.393   5.230   0.134
13982TIP3    H241890   1.419   5.376   0.101
13983TIP3   OH241891   0.099   1.689   4.597
13983TIP3    H141892   0.125   1.767   4.646
13983TIP3    H241893   0.025   1.719   4.543
13984TIP3   OH241894   2.170   1.978   4.987
13984TIP3    H141895   2.077   1.974   5.010
13984TIP3    H241896   2.215   1.939   5.062
13985TIP3   OH241897   5.212   7.067   3.966
13985TIP3    H141898   5.300   7.061   4.004
13985TIP3    H241899   5.197   6.983   3.924
13986TIP3   OH241900   1.116   0.127   3.358
13986TIP3    H141901   1.185   0.184   3.390
13986TIP3    H241902   1.057   0.117   3.432
13987TIP3   OH241903   1.309   2.715   4.889
13987TIP3    H141904   1.234   2.713   4.949
13987TIP3    H241905   1.371   2.654   4.928
13988TIP3   OH241906   3.991   1.168   4.594
13988TIP3    H141907   4.072   1.168   4.543
13988TIP3    H241908   3.995   1.087   4.645
13989TIP3   OH241909   0.133   6.446   0.550
13989TIP3    H141910   0.083   6.414   0.625
13989TIP3    H241911   0.209   6.388   0.545
13990TIP3   OH241912   3.738   3.116   0.112
13990TIP3    H141913   3.766   3.038   0.159
13990TIP3    H241914   3.643   3.108   0.104
13991TIP3   OH241915   5.263   2.340   6.680
13991TIP3    H141916   5.339   2.285   6.702
13991TIP3    H241917   5.187   2.286   6.702
13992TIP3   OH241918   6.890   0.267   6.633
13992TIP3    H141919   6.808   0.302   6.666
13992TIP3    H241920   6.867   0.180   6.600
13993TIP3   OH241921   6.979   7.150   0.350
13993TIP3    H141922   7.044   7.090   0.313
13993TIP3    H241923   6.988   7.229   0.297
13994TIP3   OH241924   3.776   0.819   2.365
13994TIP3    H141925   3.793   0.906   2.329
13994TIP3    H241926   3.833   0.813   2.442
13995TIP3   OH241927   8.188   7.801   5.899
13995TIP3    H141928   8.095   7.791   5.920
13995TIP3    H241929   8.201   7.748   5.820
13996TIP3   OH241930   8.233   6.684   1.405
13996TIP3    H141931   8.323   6.653   1.419
13996TIP3    H241932   8.181   6.605   1.399
13997TIP3   OH241933   0.648   3.018   5.719
13997TIP3    H141934   0.680   2.984   5.635
13997TIP3    H241935   0.706   2.979   5.784
13998TIP3   OH241936   7.777   2.230   2.918
13998TIP3    H141937   7.690   2.254   2.950
13998TIP3    H241938   7.823   2.313   2.909
13999TIP3   OH241939   7.668   2.325   5.571
13999TIP3    H141940   7.655   2.401   5.629
13999TIP3    H241941   7.640   2.250   5.624
14000TIP3   OH241942   3.211   5.177   4.739
14000TIP3    H141943   3.208   5.097   4.790
14000TIP3    H241944   3.286   5.225   4.774
14001TIP3   OH241945   3.592   6.908   2.694
14001TIP3    H141946   3.566   6.844   2.760
14001TIP3    H241947   3.610   6.856   2.616
14002TIP3   OH241948   0.977   6.158   3.389
14002TIP3    H141949   0.927   6.168   3.470
14002TIP3    H241950   0.918   6.190   3.321
14003TIP3   OH241951   7.833   5.430   1.421
14003TIP3    H141952   7.879   5.346   1.412
14003TIP3    H241953   7.827   5.444   1.516
14004TIP3   OH241954   0.624   1.063   4.413
14004TIP3    H141955   0.590   1.137   4.464
14004TIP3    H241956   0.710   1.045   4.451
14005TIP3   OH241957   6.855   6.070   3.999
14005TIP3    H141958   6.783   6.011   3.977
14005TIP3    H241959   6.818   6.128   4.066
14006TIP3   OH241960   0.040   6.363   2.082
14006TIP3    H141961  -0.052   6.390   2.088
14006TIP3    H241962   0.087   6.429   2.133
14007TIP3   OH241963   3.311   6.502   0.977
14007TIP3    H141964   3.402   6.496   1.005
14007TIP3    H241965   3.315   6.493   0.881
14008TIP3   OH241966   2.753   6.866   6.018
14008TIP3    H141967   2.747   6.772   6.035
14008TIP3    H241968   2.819   6.874   5.949
14009TIP3   OH241969   5.485   3.993   1.019
14009TIP3    H141970   5.416   4.056   1.039
14009TIP3    H241971   5.526   3.975   1.104
14010TIP3   OH241972   4.465   0.041   5.411
14010TIP3    H141973   4.508   0.120   5.379
14010TIP3    H241974   4.527  -0.030   5.391
14011TIP3   OH241975   4.209   1.172   4.089
14011TIP3    H141976   4.256   1.233   4.033
14011TIP3    H241977   4.139   1.137   4.033
14012TIP3   OH241978   6.568   5.861   6.667
14012TIP3    H141979   6.571   5.917   6.590
14012TIP3    H241980   6.657   5.863   6.703
14013TIP3   OH241981   2.067   6.675   1.497
14013TIP3    H141982   2.140   6.623   1.463
14013TIP3    H241983   1.989   6.641   1.453
14014TIP3   OH241984   1.194   1.338   5.683
14014TIP3    H141985   1.120   1.383   5.724
14014TIP3    H241986   1.239   1.407   5.634
14015TIP3   OH241987   3.461   6.193   0.674
14015TIP3    H141988   3.468   6.101   0.701
14015TIP3    H241989   3.371   6.202   0.642
14016TIP3   OH241990   0.202   0.669   2.415
14016TIP3    H141991   0.255   0.717   2.478
14016TIP3    H241992   0.112   0.685   2.442
14017TIP3   OH241993   7.075   5.989   1.176
14017TIP3    H141994   7.095   5.938   1.255
14017TIP3    H241995   7.100   5.931   1.104
14018TIP3   OH241996   5.028   5.984   4.638
14018TIP3    H141997   4.959   5.919   4.648
14018TIP3    H241998   5.044   6.016   4.727
14019TIP3   OH241999   6.892   5.170   6.618
14019TIP3    H142000   6.877   5.210   6.704
14019TIP3    H242001   6.953   5.099   6.635
14020TIP3   OH242002   6.542   0.306   4.672
14020TIP3    H142003   6.529   0.215   4.644
14020TIP3    H242004   6.610   0.302   4.738
14021TIP3   OH242005   5.814   4.011   4.999
14021TIP3    H142006   5.829   4.045   4.911
14021TIP3    H242007   5.784   3.921   4.985
14022TIP3   OH242008   2.802   6.089   3.718
14022TIP3    H142009   2.757   6.022   3.668
14022TIP3    H242010   2.894   6.061   3.718
14023TIP3   OH242011   6.113   0.749   2.091
14023TIP3    H142012   6.173   0.700   2.034
14023TIP3    H242013   6.150   0.837   2.094
14024TIP3   OH242014   3.923   6.091   5.083
14024TIP3    H142015   4.005   6.044   5.098
14024TIP3    H242016   3.892   6.059   4.999
14025TIP3   OH242017   3.824   7.689   1.510
14025TIP3    H142018   3.863   7.772   1.484
14025TIP3    H242019   3.891   7.647   1.564
14026TIP3   OH242020   7.287   3.363   3.687
14026TIP3    H142021   7.214   3.303   3.672
14026TIP3    H242022   7.262   3.443   3.642
14027TIP3   OH242023   0.781   1.990   5.186
14027TIP3    H142024   0.724   2.067   5.191
14027TIP3    H242025   0.867   2.026   5.164
14028TIP3   OH242026   5.985   4.699   1.753
14028TIP3    H142027   5.924   4.662   1.817
14028TIP3    H242028   6.016   4.780   1.793
14029TIP3   OH242029   6.318   0.941   0.616
14029TIP3    H142030   6.413   0.936   0.612
14029TIP3    H242031   6.299   1.033   0.635
14030TIP3   OH242032   5.281   5.376   4.667
14030TIP3    H142033   5.214   5.427   4.622
14030TIP3    H242034   5.233   5.300   4.702
14031TIP3   OH242035   4.839   6.872   1.823
14031TIP3    H142036   4.915   6.824   1.856
14031TIP3    H242037   4.787   6.807   1.776
14032TIP3   OH242038   7.638   4.689   1.256
14032TIP3    H142039   7.718   4.735   1.281
14032TIP3    H242040   7.569   4.731   1.307
14033TIP3   OH242041   5.766   3.665   3.705
14033TIP3    H142042   5.844   3.687   3.756
14033TIP3    H242043   5.745   3.576   3.731
14034TIP3   OH242044   5.777   7.856   1.802
14034TIP3    H142045   5.741   7.795   1.866
14034TIP3    H242046   5.731   7.836   1.720
14035TIP3   OH242047   1.898   3.998   1.774
14035TIP3    H142048   1.906   3.978   1.681
14035TIP3    H242049   1.965   3.944   1.816
14036TIP3   OH242050   4.748   1.791   5.528
14036TIP3    H142051   4.796   1.773   5.609
14036TIP3    H242052   4.798   1.745   5.460
14037TIP3   OH242053   2.952   1.933   2.514
14037TIP3    H142054   2.969   2.024   2.488
14037TIP3    H242055   2.894   1.899   2.446
14038TIP3   OH242056   4.245   2.177   2.213
14038TIP3    H142057   4.268   2.120   2.287
14038TIP3    H242058   4.200   2.120   2.151
14039TIP3   OH242059   4.236   7.171   3.158
14039TIP3    H142060   4.225   7.146   3.249
14039TIP3    H242061   4.147   7.187   3.126
14040TIP3   OH242062   2.557   3.049   4.695
14040TIP3    H142063   2.642   3.091   4.712
14040TIP3    H242064   2.547   3.052   4.600
14041TIP3   OH242065   4.038   0.547   3.338
14041TIP3    H142066   4.132   0.554   3.321
14041TIP3    H242067   4.027   0.464   3.383
14042TIP3   OH242068   4.012   5.380   1.957
14042TIP3    H142069   4.099   5.420   1.951
14042TIP3    H242070   3.954   5.453   1.979
14043TIP3   OH242071   2.356   4.189   4.055
14043TIP3    H142072   2.302   4.245   4.111
14043TIP3    H242073   2.381   4.246   3.982
14044TIP3   OH242074   3.649   4.105   4.519
14044TIP3    H142075   3.674   4.158   4.594
14044TIP3    H242076   3.554   4.118   4.511
14045TIP3   OH242077   2.015   3.079   6.288
14045TIP3    H142078   2.075   3.037   6.349
14045TIP3    H242079   2.037   3.172   6.292
14046TIP3   OH242080   1.592   2.880   4.322
14046TIP3    H142081   1.526   2.895   4.389
14046TIP3    H242082   1.595   2.961   4.271
14047TIP3   OH242083   1.138   3.679   3.821
14047TIP3    H142084   1.158   3.592   3.855
14047TIP3    H242085   1.049   3.672   3.786
14048TIP3   OH242086   5.471   3.315   5.690
14048TIP3    H142087   5.510   3.237   5.652
14048TIP3    H242088   5.402   3.340   5.628
14049TIP3   OH242089   7.523   3.121   0.409
14049TIP3    H142090   7.517   3.130   0.504
14049TIP3    H242091   7.504   3.029   0.392
14050TIP3   OH242092   5.543   7.505   5.629
14050TIP3    H142093   5.467   7.563   5.630
14050TIP3    H242094   5.578   7.514   5.540
14051TIP3   OH242095   7.399   1.498   2.467
14051TIP3    H142096   7.354   1.447   2.399
14051TIP3    H242097   7.440   1.570   2.419
14052TIP3   OH242098   1.161   7.433   0.748
14052TIP3    H142099   1.148   7.398   0.660
14052TIP3    H242100   1.199   7.361   0.798
14053TIP3   OH242101   4.426   0.049   5.718
14053TIP3    H142102   4.521   0.048   5.729
14053TIP3    H242103   4.408  -0.023   5.658
14054TIP3   OH242104   5.793   4.672   4.912
14054TIP3    H142105   5.745   4.694   4.992
14054TIP3    H242106   5.857   4.606   4.939
14055TIP3   OH242107   2.558   4.473   4.211
14055TIP3    H142108   2.608   4.481   4.130
14055TIP3    H242109   2.604   4.529   4.273
14056TIP3   OH242110   0.890   5.834   0.853
14056TIP3    H142111   0.868   5.827   0.760
14056TIP3    H242112   0.968   5.890   0.854
14057TIP3   OH242113   1.367   0.266   0.167
14057TIP3    H142114   1.353   0.273   0.261
14057TIP3    H242115   1.317   0.339   0.130
14058TIP3   OH242116   2.280   2.952   6.171
14058TIP3    H142117   2.368   2.979   6.144
14058TIP3    H242118   2.259   3.010   6.244
14059TIP3   OH242119   2.676   0.907   2.764
14059TIP3    H142120   2.619   0.878   2.694
14059TIP3    H242121   2.618   0.921   2.839
14060TIP3   OH242122   5.461   0.137   3.709
14060TIP3    H142123   5.504   0.149   3.794
14060TIP3    H242124   5.383   0.086   3.729
14061TIP3   OH242125   1.176   1.484   2.570
14061TIP3    H142126   1.214   1.463   2.655
14061TIP3    H242127   1.249   1.482   2.509
14062TIP3   OH242128   2.642   0.238   2.535
14062TIP3    H142129   2.670   0.328   2.551
14062TIP3    H242130   2.640   0.198   2.622
14063TIP3   OH242131   7.983   4.608   4.428
14063TIP3    H142132   7.941   4.564   4.355
14063TIP3    H242133   8.077   4.605   4.408
14064TIP3   OH242134   6.597   7.396   6.802
14064TIP3    H142135   6.642   7.312   6.794
14064TIP3    H242136   6.652   7.458   6.755
14065TIP3   OH242137   2.194   3.076   5.280
14065TIP3    H142138   2.205   2.991   5.238
14065TIP3    H242139   2.120   3.063   5.340
14066TIP3   OH242140   6.165   6.816   1.549
14066TIP3    H142141   6.112   6.747   1.588
14066TIP3    H242142   6.103   6.869   1.499
14067TIP3   OH242143   3.072   2.846   5.701
14067TIP3    H142144   3.095   2.760   5.737
14067TIP3    H242145   3.137   2.905   5.738
14068TIP3   OH242146   7.744   0.181   0.786
14068TIP3    H142147   7.747   0.183   0.881
14068TIP3    H242148   7.677   0.245   0.763
14069TIP3   OH242149   3.385   1.753   4.408
14069TIP3    H142150   3.306   1.699   4.402
14069TIP3    H242151   3.428   1.722   4.487
14070TIP3   OH242152   7.643   3.583   4.701
14070TIP3    H142153   7.581   3.515   4.729
14070TIP3    H242154   7.726   3.537   4.690
14071TIP3   OH242155   4.923   3.933   5.629
14071TIP3    H142156   4.885   3.906   5.713
14071TIP3    H242157   4.896   4.025   5.620
14072TIP3   OH242158   4.993   4.032   0.122
14072TIP3    H142159   4.905   3.994   0.122
14072TIP3    H242160   4.982   4.118   0.163
14073TIP3   OH242161   4.815   1.582   6.278
14073TIP3    H142162   4.782   1.607   6.365
14073TIP3    H242163   4.878   1.651   6.256
14074TIP3   OH242164   0.478   4.165   1.890
14074TIP3    H142165   0.491   4.181   1.797
14074TIP3    H242166   0.526   4.085   1.907
14075TIP3   OH242167   2.117   7.148   2.215
14075TIP3    H142168   2.116   7.071   2.272
14075TIP3    H242169   2.031   7.188   2.229
14076TIP3   OH242170   6.837   7.510   0.483
14076TIP3    H142171   6.873   7.569   0.417
14076TIP3    H242172   6.772   7.562   0.529
14077TIP3   OH242173   7.388   0.882   0.404
14077TIP3    H142174   7.310   0.921   0.443
14077TIP3    H242175   7.354   0.819   0.341
14078TIP3   OH242176   3.429   1.778   2.470
14078TIP3    H142177   3.444   1.731   2.552
14078TIP3    H242178   3.340   1.813   2.479
14079TIP3   OH242179   4.939   3.587   6.368
14079TIP3    H142180   4.919   3.561   6.278
14079TIP3    H242181   4.855   3.585   6.413
14080TIP3   OH242182   2.452   6.364   3.873
14080TIP3    H142183   2.481   6.440   3.823
14080TIP3    H242184   2.370   6.338   3.832
14081TIP3   OH242185   0.981   0.833   2.576
14081TIP3    H142186   1.032   0.777   2.517
14081TIP3    H242187   0.905   0.779   2.599
14082TIP3   OH242188   0.508   6.564   3.026
14082TIP3    H142189   0.569   6.588   2.957
14082TIP3    H242190   0.435   6.625   3.017
14083TIP3   OH242191   7.908   4.497   4.177
14083TIP3    H142192   7.886   4.534   4.092
14083TIP3    H242193   7.969   4.426   4.157
14084TIP3   OH242194   4.878   5.368   5.211
14084TIP3    H142195   4.841   5.339   5.294
14084TIP3    H242196   4.903   5.288   5.166
14085TIP3   OH242197   3.694   1.989   1.074
14085TIP3    H142198   3.730   1.909   1.115
14085TIP3    H242199   3.660   1.960   0.990
14086TIP3   OH242200   8.126   6.590   3.080
14086TIP3    H142201   8.086   6.631   3.157
14086TIP3    H242202   8.062   6.526   3.051
14087TIP3   OH242203   1.808   6.899   6.692
14087TIP3    H142204   1.815   6.991   6.718
14087TIP3    H242205   1.795   6.852   6.775
14088TIP3   OH242206   7.395   1.846   4.622
14088TIP3    H142207   7.484   1.811   4.626
14088TIP3    H242208   7.340   1.775   4.654
14089TIP3   OH242209   7.536   5.931   2.944
14089TIP3    H142210   7.523   5.932   2.849
14089TIP3    H242211   7.450   5.914   2.980
14090TIP3   OH242212   1.947   4.527   1.330
14090TIP3    H142213   1.981   4.611   1.300
14090TIP3    H242214   1.977   4.521   1.421
14091TIP3   OH242215   5.397   2.638   6.131
14091TIP3    H142216   5.380   2.548   6.102
14091TIP3    H242217   5.491   2.640   6.151
14092TIP3   OH242218   8.120   4.229   1.128
14092TIP3    H142219   8.044   4.177   1.101
14092TIP3    H242220   8.129   4.211   1.221
14093TIP3   OH242221   5.999   3.235   5.518
14093TIP3    H142222   5.910   3.270   5.514
14093TIP3    H242223   6.006   3.179   5.441
14094TIP3   OH242224   3.334   6.032   1.458
14094TIP3    H142225   3.425   6.065   1.460
14094TIP3    H242226   3.317   6.005   1.548
14095TIP3   OH242227   6.675   4.707   2.682
14095TIP3    H142228   6.769   4.696   2.699
14095TIP3    H242229   6.646   4.622   2.650
14096TIP3   OH242230   6.011   2.107   3.938
14096TIP3    H142231   6.008   2.133   4.031
14096TIP3    H242232   6.068   2.172   3.897
14097TIP3   OH242233   0.133   1.609   1.257
14097TIP3    H142234   0.112   1.523   1.294
14097TIP3    H242235   0.185   1.589   1.179
14098TIP3   OH242236   5.732   1.009   1.811
14098TIP3    H142237   5.648   0.964   1.823
14098TIP3    H242238   5.796   0.938   1.804
14099TIP3   OH242239   2.481   2.892   4.923
14099TIP3    H142240   2.520   2.805   4.917
14099TIP3    H242241   2.506   2.936   4.841
14100TIP3   OH242242   2.729   2.483   5.630
14100TIP3    H142243   2.795   2.552   5.627
14100TIP3    H242244   2.780   2.401   5.633
14101TIP3   OH242245   1.667   1.943   6.663
14101TIP3    H142246   1.713   1.976   6.740
14101TIP3    H242247   1.720   1.870   6.632
14102TIP3   OH242248   0.176   1.673   0.740
14102TIP3    H142249   0.157   1.649   0.831
14102TIP3    H242250   0.261   1.718   0.745
14103TIP3   OH242251   7.486   7.068   5.630
14103TIP3    H142252   7.428   7.040   5.700
14103TIP3    H242253   7.548   7.127   5.672
14104TIP3   OH242254   6.079   7.724   4.098
14104TIP3    H142255   5.999   7.672   4.085
14104TIP3    H242256   6.146   7.679   4.046
14105TIP3   OH242257   2.653   7.229   3.100
14105TIP3    H142258   2.693   7.305   3.142
14105TIP3    H242259   2.577   7.209   3.155
14106TIP3   OH242260   2.511   2.841   3.663
14106TIP3    H142261   2.449   2.910   3.641
14106TIP3    H242262   2.540   2.862   3.752
14107TIP3   OH242263   5.387   5.682   4.263
14107TIP3    H142264   5.320   5.616   4.279
14107TIP3    H242265   5.470   5.636   4.277
14108TIP3   OH242266   0.242   0.927   6.684
14108TIP3    H142267   0.211   0.942   6.595
14108TIP3    H242268   0.175   0.872   6.724
14109TIP3   OH242269   1.920   0.764   4.224
14109TIP3    H142270   1.963   0.820   4.289
14109TIP3    H242271   1.887   0.690   4.274
14110TIP3   OH242272   4.181   5.813   0.409
14110TIP3    H142273   4.164   5.718   0.410
14110TIP3    H242274   4.223   5.830   0.493
14111TIP3   OH242275   4.865   1.674   1.528
14111TIP3    H142276   4.851   1.768   1.542
14111TIP3    H242277   4.791   1.632   1.572
14112TIP3   OH242278   4.202   3.839   5.894
14112TIP3    H142279   4.110   3.859   5.880
14112TIP3    H242280   4.246   3.873   5.816
14113TIP3   OH242281   4.188   7.838   0.667
14113TIP3    H142282   4.204   7.821   0.760
14113TIP3    H242283   4.114   7.782   0.645
14114TIP3   OH242284   3.817   1.541   3.351
14114TIP3    H142285   3.833   1.521   3.444
14114TIP3    H242286   3.804   1.456   3.310
14115TIP3   OH242287   7.654   0.479   4.847
14115TIP3    H142288   7.662   0.442   4.759
14115TIP3    H242289   7.723   0.437   4.898
14116TIP3   OH242290   1.519   6.155   2.200
14116TIP3    H142291   1.503   6.154   2.295
14116TIP3    H242292   1.609   6.186   2.191
14117TIP3   OH242293   7.376   7.634   5.012
14117TIP3    H142294   7.296   7.600   4.972
14117TIP3    H242295   7.377   7.727   4.988
14118TIP3   OH242296   8.153   7.308   0.732
14118TIP3    H142297   8.078   7.283   0.787
14118TIP3    H242298   8.191   7.225   0.705
14119TIP3   OH242299   2.889   6.112   2.101
14119TIP3    H142300   2.891   6.077   2.190
14119TIP3    H242301   2.966   6.168   2.095
14120TIP3   OH242302   7.706   2.421   5.330
14120TIP3    H142303   7.796   2.451   5.321
14120TIP3    H242304   7.696   2.404   5.424
14121TIP3   OH242305   4.219   1.318   5.677
14121TIP3    H142306   4.265   1.398   5.650
14121TIP3    H242307   4.242   1.254   5.610
14122TIP3   OH242308   4.401   3.019   0.338
14122TIP3    H142309   4.359   3.061   0.413
14122TIP3    H242310   4.495   3.031   0.352
14123TIP3   OH242311   6.812   0.667   5.503
14123TIP3    H142312   6.784   0.672   5.594
14123TIP3    H242313   6.750   0.722   5.456
14124TIP3   OH242314   5.734   1.533   5.432
14124TIP3    H142315   5.728   1.493   5.518
14124TIP3    H242316   5.719   1.460   5.371
14125TIP3   OH242317   6.371   4.693   4.968
14125TIP3    H142318   6.444   4.700   5.029
14125TIP3    H242319   6.294   4.680   5.023
14126TIP3   OH242320   4.143   5.499   6.553
14126TIP3    H142321   4.174   5.535   6.636
14126TIP3    H242322   4.141   5.573   6.493
14127TIP3   OH242323   3.317   0.953   6.084
14127TIP3    H142324   3.341   0.946   5.991
14127TIP3    H242325   3.382   0.899   6.130
14128TIP3   OH242326   6.090   2.326   0.550
14128TIP3    H142327   6.138   2.405   0.525
14128TIP3    H242328   6.058   2.290   0.467
14129TIP3   OH242329   5.414   4.977   1.955
14129TIP3    H142330   5.412   5.048   2.019
14129TIP3    H242331   5.496   4.990   1.907
14130TIP3   OH242332   5.058   6.200   4.456
14130TIP3    H142333   5.143   6.233   4.487
14130TIP3    H242334   5.038   6.127   4.514
14131TIP3   OH242335   0.985   3.299   5.886
14131TIP3    H142336   0.978   3.293   5.791
14131TIP3    H242337   1.012   3.211   5.913
14132TIP3   OH242338   5.043   1.379   0.904
14132TIP3    H142339   5.010   1.308   0.959
14132TIP3    H242340   5.008   1.360   0.817
14133TIP3   OH242341   6.468   7.154   5.516
14133TIP3    H142342   6.552   7.178   5.554
14133TIP3    H242343   6.434   7.086   5.574
14134TIP3   OH242344   0.916   6.254   2.431
14134TIP3    H142345   0.829   6.221   2.407
14134TIP3    H242346   0.930   6.222   2.520
14135TIP3   OH242347   5.763   5.560   2.815
14135TIP3    H142348   5.843   5.567   2.867
14135TIP3    H242349   5.765   5.636   2.757
14136TIP3   OH242350   0.732   4.154   6.504
14136TIP3    H142351   0.648   4.132   6.545
14136TIP3    H242352   0.714   4.234   6.455
14137TIP3   OH242353   6.320   1.875   5.736
14137TIP3    H142354   6.226   1.873   5.751
14137TIP3    H242355   6.359   1.854   5.821
14138TIP3   OH242356   6.543   4.162   1.182
14138TIP3    H142357   6.568   4.098   1.116
14138TIP3    H242358   6.549   4.247   1.137
14139TIP3   OH242359   8.052   7.179   5.386
14139TIP3    H142360   8.068   7.085   5.386
14139TIP3    H242361   7.961   7.188   5.359
14140TIP3   OH242362   5.721   7.713   6.354
14140TIP3    H142363   5.701   7.711   6.260
14140TIP3    H242364   5.676   7.636   6.389
14141TIP3   OH242365   8.151   5.589   0.059
14141TIP3    H142366   8.111   5.591  -0.028
14141TIP3    H242367   8.187   5.500   0.067
14142TIP3   OH242368   4.988   0.243   2.534
14142TIP3    H142369   5.072   0.288   2.524
14142TIP3    H242370   5.004   0.156   2.499
14143TIP3   OH242371   7.900   6.963   2.348
14143TIP3    H142372   7.917   6.899   2.278
14143TIP3    H242373   7.856   7.035   2.304
14144TIP3   OH242374   1.576   7.142   6.652
14144TIP3    H142375   1.654   7.167   6.703
14144TIP3    H242376   1.586   7.189   6.569
14145TIP3   OH242377   4.807   7.630   4.118
14145TIP3    H142378   4.826   7.540   4.090
14145TIP3    H242379   4.893   7.671   4.127
14146TIP3   OH242380   1.036   7.733   1.039
14146TIP3    H142381   1.123   7.702   1.063
14146TIP3    H242382   0.986   7.727   1.120
14147TIP3   OH242383   8.055   6.272   0.931
14147TIP3    H142384   8.117   6.333   0.891
14147TIP3    H242385   7.972   6.289   0.886
14148TIP3   OH242386   3.648   6.030   5.187
14148TIP3    H142387   3.649   6.031   5.091
14148TIP3    H242388   3.597   6.108   5.211
14149TIP3   OH242389   3.446   2.372   3.658
14149TIP3    H142390   3.536   2.395   3.681
14149TIP3    H242391   3.453   2.328   3.574
14150TIP3   OH242392   6.712   3.404   3.959
14150TIP3    H142393   6.788   3.453   3.930
14150TIP3    H242394   6.745   3.346   4.029
14151TIP3   OH242395   2.635   0.404   6.005
14151TIP3    H142396   2.726   0.375   6.004
14151TIP3    H242397   2.607   0.402   5.913
14152TIP3   OH242398   2.254   3.882   6.242
14152TIP3    H142399   2.308   3.804   6.251
14152TIP3    H242400   2.286   3.924   6.162
14153TIP3   OH242401   6.569   6.411   3.826
14153TIP3    H142402   6.589   6.452   3.910
14153TIP3    H242403   6.475   6.423   3.814
14154TIP3   OH242404   6.850   0.461   6.028
14154TIP3    H142405   6.913   0.479   5.958
14154TIP3    H242406   6.774   0.515   6.006
14155TIP3   OH242407   7.250   4.733   5.991
14155TIP3    H142408   7.291   4.738   5.905
14155TIP3    H242409   7.181   4.667   5.981
14156TIP3   OH242410   2.287   5.175   4.063
14156TIP3    H142411   2.360   5.216   4.108
14156TIP3    H242412   2.212   5.189   4.121
14157TIP3   OH242413   1.797   0.894   0.913
14157TIP3    H142414   1.891   0.899   0.932
14157TIP3    H242415   1.792   0.868   0.821
14158TIP3   OH242416   1.888   0.395   1.485
14158TIP3    H142417   1.951   0.467   1.487
14158TIP3    H242418   1.816   0.428   1.431
14159TIP3   OH242419   2.150   2.517   0.548
14159TIP3    H142420   2.111   2.430   0.546
14159TIP3    H242421   2.244   2.501   0.541
14160TIP3   OH242422   4.555   4.829   3.535
14160TIP3    H142423   4.488   4.782   3.487
14160TIP3    H242424   4.518   4.916   3.549
14161TIP3   OH242425   6.774   0.176   1.591
14161TIP3    H142426   6.729   0.180   1.675
14161TIP3    H242427   6.714   0.219   1.530
14162TIP3   OH242428   8.034   3.903   4.336
14162TIP3    H142429   8.004   3.988   4.368
14162TIP3    H242430   8.117   3.888   4.380
14163TIP3   OH242431   4.165   7.061   4.343
14163TIP3    H142432   4.148   7.154   4.359
14163TIP3    H242433   4.082   7.018   4.363
14164TIP3   OH242434   4.402   4.065   1.976
14164TIP3    H142435   4.417   3.975   1.948
14164TIP3    H242436   4.307   4.072   1.983
14165TIP3   OH242437   0.505   5.638   4.852
14165TIP3    H142438   0.567   5.678   4.913
14165TIP3    H242439   0.452   5.711   4.820
14166TIP3   OH242440   1.721   5.064   4.656
14166TIP3    H142441   1.807   5.076   4.696
14166TIP3    H242442   1.731   4.985   4.602
14167TIP3   OH242443   2.459   6.086   2.261
14167TIP3    H142444   2.380   6.068   2.311
14167TIP3    H242445   2.428   6.114   2.175
14168TIP3   OH242446   2.438   2.990   1.216
14168TIP3    H142447   2.379   2.946   1.278
14168TIP3    H242448   2.408   3.081   1.216
14169TIP3   OH242449   6.824   5.106   1.752
14169TIP3    H142450   6.839   5.057   1.832
14169TIP3    H242451   6.729   5.108   1.742
14170TIP3   OH242452   4.752   2.005   4.069
14170TIP3    H142453   4.843   2.028   4.087
14170TIP3    H242454   4.711   2.088   4.044
14171TIP3   OH242455   3.474   2.301   6.559
14171TIP3    H142456   3.550   2.345   6.523
14171TIP3    H242457   3.500   2.209   6.566
14172TIP3   OH242458   2.877   6.810   6.313
14172TIP3    H142459   2.881   6.897   6.272
14172TIP3    H242460   2.966   6.793   6.343
14173TIP3   OH242461   6.497   1.594   3.097
14173TIP3    H142462   6.522   1.660   3.161
14173TIP3    H242463   6.422   1.549   3.136
14174TIP3   OH242464   1.088   6.725   3.888
14174TIP3    H142465   1.075   6.635   3.857
14174TIP3    H242466   1.183   6.732   3.902
14175TIP3   OH242467   5.747   1.402   5.708
14175TIP3    H142468   5.765   1.318   5.749
14175TIP3    H242469   5.652   1.414   5.718
14176TIP3   OH242470  -0.007   7.372   0.090
14176TIP3    H142471   0.078   7.343   0.123
14176TIP3    H242472  -0.066   7.360   0.165
14177TIP3   OH242473   7.831   6.653   5.166
14177TIP3    H142474   7.836   6.567   5.207
14177TIP3    H242475   7.888   6.646   5.089
14178TIP3   OH242476   6.392   7.388   6.482
14178TIP3    H142477   6.484   7.382   6.459
14178TIP3    H242478   6.373   7.306   6.527
14179TIP3   OH242479   1.181   2.808   6.060
14179TIP3    H142480   1.225   2.770   6.136
14179TIP3    H242481   1.098   2.841   6.094
14180TIP3   OH242482   4.731   1.890   1.267
14180TIP3    H142483   4.805   1.829   1.271
14180TIP3    H242484   4.685   1.877   1.351
14181TIP3   OH242485   7.920   3.403   2.394
14181TIP3    H142486   7.862   3.461   2.444
14181TIP3    H242487   7.862   3.357   2.333
14182TIP3   OH242488   6.626   3.487   6.201
14182TIP3    H142489   6.661   3.577   6.198
14182TIP3    H242490   6.613   3.464   6.109
14183TIP3   OH242491   6.591   5.666   0.108
14183TIP3    H142492   6.674   5.707   0.085
14183TIP3    H242493   6.563   5.712   0.187
14184TIP3   OH242494   2.404   3.629   6.233
14184TIP3    H142495   2.350   3.567   6.184
14184TIP3    H242496   2.442   3.578   6.304
14185TIP3   OH242497   5.430   7.794   0.071
14185TIP3    H142498   5.430   7.809  -0.023
14185TIP3    H242499   5.506   7.738   0.087
14186TIP3   OH242500   0.138   2.189   1.941
14186TIP3    H142501   0.059   2.167   1.990
14186TIP3    H242502   0.120   2.275   1.904
14187TIP3   OH242503   2.480   1.165   2.578
14187TIP3    H142504   2.467   1.145   2.671
14187TIP3    H242505   2.536   1.242   2.578
14188TIP3   OH242506   3.307   5.145   0.066
14188TIP3    H142507   3.366   5.216   0.043
14188TIP3    H242508   3.226   5.164   0.019
14189TIP3   OH242509   1.134   6.722   1.943
14189TIP3    H142510   1.128   6.704   2.037
14189TIP3    H242511   1.190   6.800   1.937
14190TIP3   OH242512   2.801   3.175   4.800
14190TIP3    H142513   2.841   3.110   4.858
14190TIP3    H242514   2.745   3.227   4.858
14191TIP3   OH242515   6.413   7.522   1.931
14191TIP3    H142516   6.347   7.489   1.991
14191TIP3    H242517   6.419   7.457   1.861
14192TIP3   OH242518   0.021   7.498   2.957
14192TIP3    H142519   0.058   7.556   2.890
14192TIP3    H242520  -0.040   7.443   2.908
14193TIP3   OH242521   4.712   1.301   5.404
14193TIP3    H142522   4.626   1.266   5.380
14193TIP3    H242523   4.746   1.240   5.469
14194TIP3   OH242524   7.775   5.323   6.284
14194TIP3    H142525   7.763   5.269   6.206
14194TIP3    H242526   7.816   5.403   6.252
14195TIP3   OH242527   2.474   6.478   0.118
14195TIP3    H142528   2.420   6.553   0.095
14195TIP3    H242529   2.413   6.404   0.118
14196TIP3   OH242530   6.413   5.823   0.828
14196TIP3    H142531   6.392   5.749   0.885
14196TIP3    H242532   6.495   5.858   0.864
14197TIP3   OH242533   4.893   2.826   4.966
14197TIP3    H142534   4.921   2.885   4.896
14197TIP3    H242535   4.816   2.869   5.004
14198TIP3   OH242536   4.913   0.755   5.949
14198TIP3    H142537   4.937   0.729   5.860
14198TIP3    H242538   4.916   0.674   6.000
14199TIP3   OH242539   1.745   5.127   0.053
14199TIP3    H142540   1.657   5.090   0.066
14199TIP3    H242541   1.795   5.055   0.014
14200TIP3   OH242542   2.734   4.389   1.229
14200TIP3    H142543   2.739   4.303   1.189
14200TIP3    H242544   2.821   4.402   1.268
14201TIP3   OH242545   4.281   3.451   0.404
14201TIP3    H142546   4.231   3.469   0.324
14201TIP3    H242547   4.214   3.443   0.472
14202TIP3   OH242548   4.815   4.177   4.365
14202TIP3    H142549   4.893   4.232   4.372
14202TIP3    H242550   4.743   4.235   4.389
14203TIP3   OH242551   6.536   0.392   4.184
14203TIP3    H142552   6.598   0.320   4.171
14203TIP3    H242553   6.558   0.456   4.117
14204TIP3   OH242554   1.505   4.404   3.154
14204TIP3    H142555   1.585   4.364   3.189
14204TIP3    H242556   1.435   4.343   3.179
14205TIP3   OH242557   7.952   6.475   6.689
14205TIP3    H142558   8.020   6.409   6.692
14205TIP3    H242559   7.981   6.537   6.623
14206TIP3   OH242560   1.235   3.060   4.308
14206TIP3    H142561   1.246   2.998   4.380
14206TIP3    H242562   1.280   3.020   4.234
14207TIP3   OH242563   3.200   1.368   0.626
14207TIP3    H142564   3.191   1.288   0.678
14207TIP3    H242565   3.193   1.339   0.535
14208TIP3   OH242566   3.431   2.122   4.887
14208TIP3    H142567   3.356   2.147   4.834
14208TIP3    H242568   3.503   2.177   4.855
14209TIP3   OH242569   3.412   0.057   5.146
14209TIP3    H142570   3.459   0.030   5.067
14209TIP3    H242571   3.397  -0.024   5.194
14210TIP3   OH242572   2.349   4.834   0.250
14210TIP3    H142573   2.320   4.925   0.250
14210TIP3    H242574   2.395   4.824   0.334
14211TIP3   OH242575   0.272   3.624   0.540
14211TIP3    H142576   0.215   3.570   0.485
14211TIP3    H242577   0.249   3.600   0.629
14212TIP3   OH242578   3.129   1.325   1.299
14212TIP3    H142579   3.146   1.399   1.357
14212TIP3    H242580   3.063   1.273   1.345
14213TIP3   OH242581   1.195   7.285   2.843
14213TIP3    H142582   1.252   7.348   2.888
14213TIP3    H242583   1.120   7.273   2.903
14214TIP3   OH242584   6.445   5.842   3.580
14214TIP3    H142585   6.463   5.867   3.490
14214TIP3    H242586   6.503   5.767   3.596
14215TIP3   OH242587   6.333   5.139   1.756
14215TIP3    H142588   6.397   5.210   1.747
14215TIP3    H242589   6.297   5.152   1.844
14216TIP3   OH242590   4.260   4.524   3.441
14216TIP3    H142591   4.244   4.598   3.499
14216TIP3    H242592   4.345   4.543   3.401
14217TIP3   OH242593   2.852   1.632   2.518
14217TIP3    H142594   2.803   1.709   2.492
14217TIP3    H242595   2.833   1.620   2.611
14218TIP3   OH242596   6.199   3.778   6.224
14218TIP3    H142597   6.235   3.749   6.140
14218TIP3    H242598   6.105   3.758   6.218
14219TIP3   OH242599   0.077   6.988   1.935
14219TIP3    H142600   0.084   7.054   2.004
14219TIP3    H242601   0.109   7.033   1.856
14220TIP3   OH242602   3.390   5.504   4.186
14220TIP3    H142603   3.304   5.525   4.223
14220TIP3    H242604   3.453   5.537   4.250
14221TIP3   OH242605   2.264   1.913   1.417
14221TIP3    H142606   2.219   1.981   1.467
14221TIP3    H242607   2.265   1.946   1.327
14222TIP3   OH242608   6.101   5.824   2.156
14222TIP3    H142609   6.142   5.764   2.218
14222TIP3    H242610   6.116   5.785   2.070
14223TIP3   OH242611   2.026   3.917   5.432
14223TIP3    H142612   2.104   3.911   5.376
14223TIP3    H242613   2.057   3.965   5.510
14224TIP3   OH242614   3.391   1.669   3.362
14224TIP3    H142615   3.436   1.687   3.445
14224TIP3    H242616   3.301   1.648   3.388
14225TIP3   OH242617   3.134   1.400   5.969
14225TIP3    H142618   3.175   1.362   6.048
14225TIP3    H242619   3.054   1.349   5.958
14226TIP3   OH242620   4.873   0.086   1.999
14226TIP3    H142621   4.806   0.071   2.065
14226TIP3    H242622   4.878   0.181   1.990
14227TIP3   OH242623   4.324   2.163   6.164
14227TIP3    H142624   4.285   2.248   6.182
14227TIP3    H242625   4.278   2.132   6.086
14228TIP3   OH242626   2.482   0.947   0.182
14228TIP3    H142627   2.491   0.856   0.153
14228TIP3    H242628   2.547   0.957   0.252
14229TIP3   OH242629   7.572   5.426   4.048
14229TIP3    H142630   7.661   5.404   4.023
14229TIP3    H242631   7.547   5.358   4.111
14230TIP3   OH242632   3.646   1.850   0.856
14230TIP3    H142633   3.580   1.783   0.873
14230TIP3    H242634   3.723   1.801   0.827
14231TIP3   OH242635   2.033   5.919   2.574
14231TIP3    H142636   1.951   5.958   2.545
14231TIP3    H242637   2.018   5.825   2.569
14232TIP3   OH242638   2.535   4.248   1.873
14232TIP3    H142639   2.505   4.239   1.963
14232TIP3    H242640   2.547   4.158   1.842
14233TIP3   OH242641   4.967   0.404   5.657
14233TIP3    H142642   4.904   0.474   5.671
14233TIP3    H242643   5.050   0.448   5.642
14234TIP3   OH242644   3.090   0.941   2.461
14234TIP3    H142645   3.139   1.022   2.477
14234TIP3    H242646   3.125   0.907   2.379
14235TIP3   OH242647   5.325   7.441   4.400
14235TIP3    H142648   5.364   7.448   4.312
14235TIP3    H242649   5.280   7.357   4.399
14236TIP3   OH242650   4.632   0.664   4.733
14236TIP3    H142651   4.709   0.665   4.789
14236TIP3    H242652   4.606   0.572   4.729
14237TIP3   OH242653   3.963   5.087   0.078
14237TIP3    H142654   3.998   5.028   0.012
14237TIP3    H242655   3.946   5.169   0.031
14238TIP3   OH242656   6.966   2.564   3.851
14238TIP3    H142657   6.904   2.625   3.893
14238TIP3    H242658   6.971   2.594   3.760
14239TIP3   OH242659   4.571   4.482   6.310
14239TIP3    H142660   4.491   4.525   6.342
14239TIP3    H242661   4.631   4.485   6.384
14240TIP3   OH242662   5.395   7.654   4.853
14240TIP3    H142663   5.479   7.695   4.830
14240TIP3    H242664   5.353   7.638   4.768
14241TIP3   OH242665   1.925   4.236   1.092
14241TIP3    H142666   2.017   4.253   1.073
14241TIP3    H242667   1.923   4.147   1.127
14242TIP3   OH242668   5.963   0.440   4.662
14242TIP3    H142669   5.955   0.385   4.585
14242TIP3    H242670   6.054   0.428   4.691
14243TIP3   OH242671   5.651   3.871   2.687
14243TIP3    H142672   5.731   3.853   2.636
14243TIP3    H242673   5.581   3.830   2.636
14244TIP3   OH242674   3.362   5.288   4.985
14244TIP3    H142675   3.433   5.223   4.986
14244TIP3    H242676   3.363   5.327   5.072
14245TIP3   OH242677   2.856   6.164   0.846
14245TIP3    H142678   2.853   6.172   0.750
14245TIP3    H242679   2.764   6.159   0.872
14246TIP3   OH242680   7.399   6.915   5.983
14246TIP3    H142681   7.362   6.927   5.895
14246TIP3    H242682   7.324   6.905   6.040
14247TIP3   OH242683   1.862   4.969   1.277
14247TIP3    H142684   1.812   4.900   1.234
14247TIP3    H242685   1.835   4.964   1.369
14248TIP3   OH242686   2.432   6.430   1.583
14248TIP3    H142687   2.478   6.387   1.511
14248TIP3    H242688   2.493   6.495   1.616
14249TIP3   OH242689   0.551   6.860   0.551
14249TIP3    H142690   0.643   6.835   0.537
14249TIP3    H242691   0.540   6.856   0.646
14250TIP3   OH242692   6.502   5.470   6.592
14250TIP3    H142693   6.419   5.487   6.547
14250TIP3    H242694   6.479   5.473   6.685
14251TIP3   OH242695   1.912   3.651   1.224
14251TIP3    H142696   1.957   3.655   1.140
14251TIP3    H242697   1.893   3.558   1.237
14252TIP3   OH242698   4.478   6.788   0.894
14252TIP3    H142699   4.389   6.817   0.914
14252TIP3    H242700   4.517   6.862   0.848
14253TIP3   OH242701   1.935   2.276   5.780
14253TIP3    H142702   1.969   2.213   5.844
14253TIP3    H242703   1.905   2.349   5.834
14254TIP3   OH242704   1.226   6.319   0.645
14254TIP3    H142705   1.134   6.326   0.620
14254TIP3    H242706   1.228   6.344   0.737
14255TIP3   OH242707   0.629   4.151   2.969
14255TIP3    H142708   0.536   4.129   2.962
14255TIP3    H242709   0.659   4.104   3.047
14256TIP3   OH242710   6.334   0.107   1.514
14256TIP3    H142711   6.271   0.108   1.442
14256TIP3    H242712   6.302   0.037   1.572
14257TIP3   OH242713   6.532   2.805   0.548
14257TIP3    H142714   6.554   2.714   0.528
14257TIP3    H242715   6.515   2.845   0.463
14258TIP3   OH242716   5.809   4.253   5.103
14258TIP3    H142717   5.871   4.286   5.038
14258TIP3    H242718   5.811   4.158   5.092
14259TIP3   OH242719   3.832   1.320   4.456
14259TIP3    H142720   3.860   1.250   4.515
14259TIP3    H242721   3.737   1.309   4.450
14260TIP3   OH242722   3.780   4.135   5.004
14260TIP3    H142723   3.763   4.041   4.999
14260TIP3    H242724   3.787   4.153   5.098
14261TIP3   OH242725   6.166   3.102   3.208
14261TIP3    H142726   6.243   3.045   3.215
14261TIP3    H242727   6.183   3.157   3.133
14262TIP3   OH242728   4.096   5.892   4.475
14262TIP3    H142729   4.026   5.957   4.476
14262TIP3    H242730   4.074   5.836   4.400
14263TIP3   OH242731   2.472   1.528   0.519
14263TIP3    H142732   2.497   1.441   0.553
14263TIP3    H242733   2.552   1.580   0.528
14264TIP3   OH242734   1.356   1.117   1.309
14264TIP3    H142735   1.438   1.069   1.300
14264TIP3    H242736   1.296   1.075   1.247
14265TIP3   OH242737   2.586   3.089   4.428
14265TIP3    H142738   2.677   3.079   4.402
14265TIP3    H242739   2.540   3.111   4.346
14266TIP3   OH242740   5.733   3.296   5.476
14266TIP3    H142741   5.657   3.239   5.468
14266TIP3    H242742   5.705   3.379   5.436
14267TIP3   OH242743   2.847   6.314   5.779
14267TIP3    H142744   2.854   6.233   5.727
14267TIP3    H242745   2.852   6.284   5.870
14268TIP3   OH242746   2.975   6.004   1.640
14268TIP3    H142747   2.950   5.917   1.669
14268TIP3    H242748   3.021   6.042   1.715
14269TIP3   OH242749   7.092   7.015   1.762
14269TIP3    H142750   7.137   7.047   1.684
14269TIP3    H242751   7.028   6.953   1.729
14270TIP3   OH242752   2.710   4.473   5.048
14270TIP3    H142753   2.731   4.393   5.001
14270TIP3    H242754   2.724   4.452   5.140
14271TIP3   OH242755   5.814   5.361   5.351
14271TIP3    H142756   5.908   5.357   5.370
14271TIP3    H242757   5.804   5.440   5.298
14272TIP3   OH242758   3.497   5.824   5.328
14272TIP3    H142759   3.578   5.875   5.333
14272TIP3    H242760   3.432   5.878   5.373
14273TIP3   OH242761   6.079   1.551   3.642
14273TIP3    H142762   6.072   1.625   3.702
14273TIP3    H242763   6.159   1.505   3.671
14274TIP3   OH242764   4.871   3.767   4.138
14274TIP3    H142765   4.932   3.701   4.105
14274TIP3    H242766   4.926   3.824   4.192
14275TIP3   OH242767   1.658   3.230   1.704
14275TIP3    H142768   1.655   3.217   1.609
14275TIP3    H242769   1.725   3.168   1.734
14276TIP3   OH242770   2.614   4.503   3.285
14276TIP3    H142771   2.648   4.485   3.372
14276TIP3    H242772   2.627   4.597   3.272
14277TIP3   OH242773   4.690   5.028   3.164
14277TIP3    H142774   4.621   5.094   3.172
14277TIP3    H242775   4.736   5.031   3.248
14278TIP3   OH242776   6.422   2.640   5.334
14278TIP3    H142777   6.424   2.728   5.296
14278TIP3    H242778   6.341   2.638   5.385
14279TIP3   OH242779   8.278   4.755   3.436
14279TIP3    H142780   8.372   4.774   3.426
14279TIP3    H242781   8.256   4.785   3.524
14280TIP3   OH242782   1.551   6.441   5.509
14280TIP3    H142783   1.492   6.481   5.573
14280TIP3    H242784   1.634   6.486   5.521
14281TIP3   OH242785   2.987   6.982   0.187
14281TIP3    H142786   3.066   7.012   0.142
14281TIP3    H242787   2.968   6.897   0.147
14282TIP3   OH242788   0.453   0.546   1.116
14282TIP3    H142789   0.361   0.559   1.093
14282TIP3    H242790   0.493   0.510   1.037
14283TIP3   OH242791   1.137   5.422   2.870
14283TIP3    H142792   1.224   5.396   2.840
14283TIP3    H242793   1.150   5.454   2.959
14284TIP3   OH242794   1.435   3.460   4.369
14284TIP3    H142795   1.355   3.510   4.386
14284TIP3    H242796   1.474   3.447   4.455
14285TIP3   OH242797   0.757   1.848   1.265
14285TIP3    H142798   0.706   1.831   1.345
14285TIP3    H242799   0.727   1.933   1.235
14286TIP3   OH242800   3.501   4.261   4.847
14286TIP3    H142801   3.491   4.197   4.918
14286TIP3    H242802   3.585   4.239   4.807
14287TIP3   OH242803   6.564   3.285   5.085
14287TIP3    H142804   6.626   3.214   5.069
14287TIP3    H242805   6.478   3.246   5.069
14288TIP3   OH242806   7.403   7.462   3.426
14288TIP3    H142807   7.466   7.433   3.359
14288TIP3    H242808   7.431   7.416   3.505
14289TIP3   OH242809   1.710   5.886   3.458
14289TIP3    H142810   1.690   5.979   3.463
14289TIP3    H242811   1.639   5.843   3.506
14290TIP3   OH242812   0.745   0.103   1.841
14290TIP3    H142813   0.653   0.106   1.818
14290TIP3    H242814   0.767   0.194   1.865
14291TIP3   OH242815   3.863   2.972   3.742
14291TIP3    H142816   3.813   3.013   3.671
14291TIP3    H242817   3.864   2.879   3.721
14292TIP3   OH242818   5.310   3.393   6.436
14292TIP3    H142819   5.272   3.435   6.513
14292TIP3    H242820   5.256   3.423   6.363
14293TIP3   OH242821   3.915   4.460   3.532
14293TIP3    H142822   3.968   4.539   3.541
14293TIP3    H242823   3.832   4.481   3.574
14294TIP3   OH242824   2.194   7.707   4.452
14294TIP3    H142825   2.128   7.736   4.516
14294TIP3    H242826   2.229   7.627   4.490
14295TIP3   OH242827   8.243   1.918   5.630
14295TIP3    H142828   8.316   1.978   5.617
14295TIP3    H242829   8.185   1.963   5.692
14296TIP3   OH242830   1.514   2.950   3.223
14296TIP3    H142831   1.543   2.859   3.215
14296TIP3    H242832   1.421   2.943   3.245
14297TIP3   OH242833   6.549   1.527   6.573
14297TIP3    H142834   6.485   1.598   6.576
14297TIP3    H242835   6.515   1.466   6.508
14298TIP3   OH242836   5.477   3.432   5.945
14298TIP3    H142837   5.490   3.526   5.954
14298TIP3    H242838   5.513   3.411   5.858
14299TIP3   OH242839   4.697   3.951   3.722
14299TIP3    H142840   4.738   3.875   3.763
14299TIP3    H242841   4.664   4.003   3.796
14300TIP3   OH242842   3.991   0.996   0.352
14300TIP3    H142843   3.987   0.939   0.429
14300TIP3    H242844   3.941   1.074   0.378
14301TIP3   OH242845   1.674   5.833   2.283
14301TIP3    H142846   1.765   5.806   2.280
14301TIP3    H242847   1.654   5.861   2.194
14302TIP3   OH242848   2.360   2.773   0.330
14302TIP3    H142849   2.357   2.698   0.389
14302TIP3    H242850   2.440   2.819   0.353
14303TIP3   OH242851   7.067   6.276   3.208
14303TIP3    H142852   7.154   6.293   3.245
14303TIP3    H242853   7.017   6.355   3.226
14304TIP3   OH242854   6.841   2.750   5.960
14304TIP3    H142855   6.793   2.724   6.039
14304TIP3    H242856   6.908   2.682   5.950
14305TIP3   OH242857   6.644   7.315   2.751
14305TIP3    H142858   6.711   7.249   2.733
14305TIP3    H242859   6.670   7.354   2.834
14306TIP3   OH242860   3.339   2.900   4.619
14306TIP3    H142861   3.433   2.889   4.608
14306TIP3    H242862   3.315   2.966   4.554
14307TIP3   OH242863   4.736   3.556   6.710
14307TIP3    H142864   4.797   3.613   6.663
14307TIP3    H242865   4.706   3.493   6.644
14308TIP3   OH242866   4.583   7.432   0.879
14308TIP3    H142867   4.596   7.476   0.962
14308TIP3    H242868   4.665   7.445   0.831
14309TIP3   OH242869   0.727   3.277   5.647
14309TIP3    H142870   0.715   3.190   5.686
14309TIP3    H242871   0.818   3.276   5.615
14310TIP3   OH242872   0.895   1.372   2.214
14310TIP3    H142873   0.878   1.343   2.303
14310TIP3    H242874   0.848   1.455   2.206
14311TIP3   OH242875   5.176   6.583   2.852
14311TIP3    H142876   5.185   6.604   2.945
14311TIP3    H242877   5.112   6.646   2.819
14312TIP3   OH242878   1.485   5.374   1.871
14312TIP3    H142879   1.497   5.288   1.830
14312TIP3    H242880   1.547   5.431   1.826
14313TIP3   OH242881   0.956   3.531   4.078
14313TIP3    H142882   0.939   3.517   4.172
14313TIP3    H242883   0.956   3.626   4.069
14314TIP3   OH242884   4.704   0.225   2.381
14314TIP3    H142885   4.635   0.225   2.447
14314TIP3    H242886   4.785   0.219   2.431
14315TIP3   OH242887   2.082   5.786   5.793
14315TIP3    H142888   2.094   5.833   5.710
14315TIP3    H242889   2.036   5.706   5.768
14316TIP3   OH242890   6.485   5.014   5.037
14316TIP3    H142891   6.575   4.982   5.035
14316TIP3    H242892   6.463   5.031   4.945
14317TIP3   OH242893   8.190   6.865   0.995
14317TIP3    H142894   8.194   6.932   0.927
14317TIP3    H242895   8.264   6.806   0.975
14318TIP3   OH242896   7.877   2.324   1.839
14318TIP3    H142897   7.951   2.361   1.791
14318TIP3    H242898   7.909   2.315   1.929
14319TIP3   OH242899   1.743   6.457   4.795
14319TIP3    H142900   1.689   6.423   4.866
14319TIP3    H242901   1.745   6.551   4.808
14320TIP3   OH242902   1.273   4.667   3.694
14320TIP3    H142903   1.302   4.728   3.626
14320TIP3    H242904   1.218   4.604   3.648
14321TIP3   OH242905   3.776   3.695   1.808
14321TIP3    H142906   3.811   3.766   1.755
14321TIP3    H242907   3.704   3.659   1.757
14322TIP3   OH242908   1.335   7.398   4.125
14322TIP3    H142909   1.374   7.450   4.196
14322TIP3    H242910   1.252   7.367   4.161
14323TIP3   OH242911   1.289   6.000   3.229
14323TIP3    H142912   1.301   6.095   3.231
14323TIP3    H242913   1.219   5.983   3.291
14324TIP3   OH242914   8.033   5.256   3.224
14324TIP3    H142915   8.071   5.320   3.284
14324TIP3    H242916   7.940   5.252   3.250
14325TIP3   OH242917   4.117   5.885   5.130
14325TIP3    H142918   4.120   5.815   5.065
14325TIP3    H242919   4.209   5.905   5.147
14326TIP3   OH242920   5.241   7.529   0.290
14326TIP3    H142921   5.153   7.534   0.327
14326TIP3    H242922   5.269   7.439   0.307
14327TIP3   OH242923   1.018   3.124   2.207
14327TIP3    H142924   0.934   3.170   2.201
14327TIP3    H242925   1.045   3.110   2.116
14328TIP3   OH242926   6.804   6.947   4.421
14328TIP3    H142927   6.836   7.002   4.349
14328TIP3    H242928   6.708   6.955   4.417
14329TIP3   OH242929   7.563   4.426   1.299
14329TIP3    H142930   7.589   4.517   1.290
14329TIP3    H242931   7.634   4.385   1.350
14330TIP3   OH242932   5.463   1.964   3.266
14330TIP3    H142933   5.377   1.928   3.286
14330TIP3    H242934   5.495   1.999   3.349
14331TIP3   OH242935   5.092   5.193   1.199
14331TIP3    H142936   5.108   5.178   1.293
14331TIP3    H242937   5.001   5.222   1.195
14332TIP3   OH242938   1.707   4.526   4.985
14332TIP3    H142939   1.786   4.502   5.033
14332TIP3    H242940   1.636   4.480   5.031
14333TIP3   OH242941   7.300   3.552   0.451
14333TIP3    H142942   7.336   3.551   0.539
14333TIP3    H242943   7.356   3.613   0.402
14334TIP3   OH242944   4.406   5.770   1.406
14334TIP3    H142945   4.464   5.827   1.456
14334TIP3    H242946   4.390   5.695   1.464
14335TIP3   OH242947   2.004   2.547   2.422
14335TIP3    H142948   2.076   2.595   2.464
14335TIP3    H242949   1.954   2.510   2.495
14336TIP3   OH242950   4.592   2.689   0.667
14336TIP3    H142951   4.589   2.667   0.760
14336TIP3    H242952   4.525   2.633   0.627
14337TIP3   OH242953   4.321   0.311   1.215
14337TIP3    H142954   4.311   0.219   1.191
14337TIP3    H242955   4.239   0.334   1.259
14338TIP3   OH242956   6.756   7.441   0.135
14338TIP3    H142957   6.841   7.398   0.151
14338TIP3    H242958   6.694   7.392   0.189
14339TIP3   OH242959   7.357   2.700   2.347
14339TIP3    H142960   7.348   2.786   2.388
14339TIP3    H242961   7.438   2.707   2.296
14340TIP3   OH242962   3.877   0.509   4.251
14340TIP3    H142963   3.957   0.480   4.207
14340TIP3    H242964   3.837   0.428   4.284
14341TIP3   OH242965   5.149   1.127   4.879
14341TIP3    H142966   5.214   1.106   4.811
14341TIP3    H242967   5.086   1.183   4.834
14342TIP3   OH242968   6.273   5.130   4.567
14342TIP3    H142969   6.293   5.224   4.575
14342TIP3    H242970   6.283   5.112   4.474
14343TIP3   OH242971   5.389   4.387   4.573
14343TIP3    H142972   5.393   4.315   4.509
14343TIP3    H242973   5.436   4.459   4.531
14344TIP3   OH242974   3.014   1.619   0.206
14344TIP3    H142975   2.936   1.566   0.188
14344TIP3    H242976   3.003   1.698   0.153
14345TIP3   OH242977   0.450   5.808   5.911
14345TIP3    H142978   0.505   5.735   5.884
14345TIP3    H242979   0.463   5.875   5.844
14346TIP3   OH242980   4.536   4.288   0.137
14346TIP3    H142981   4.478   4.230   0.186
14346TIP3    H242982   4.570   4.350   0.202
14347TIP3   OH242983   6.795   7.153   3.229
14347TIP3    H142984   6.849   7.211   3.282
14347TIP3    H242985   6.787   7.073   3.281
14348TIP3   OH242986   6.774   2.009   1.625
14348TIP3    H142987   6.729   1.924   1.626
14348TIP3    H242988   6.721   2.064   1.682
14349TIP3   OH242989   0.334   4.156   0.457
14349TIP3    H142990   0.350   4.065   0.481
14349TIP3    H242991   0.408   4.180   0.400
14350TIP3   OH242992   6.982   1.432   2.289
14350TIP3    H142993   6.927   1.410   2.365
14350TIP3    H242994   6.992   1.527   2.293
14351TIP3   OH242995   4.164   1.118   1.765
14351TIP3    H142996   4.231   1.050   1.755
14351TIP3    H242997   4.154   1.155   1.677
14352TIP3   OH242998   7.605   7.312   6.384
14352TIP3    H142999   7.689   7.286   6.347
14352TIP3    H243000   7.627   7.368   6.458
14353TIP3   OH243001   2.716   7.403   1.328
14353TIP3    H143002   2.780   7.381   1.260
14353TIP3    H243003   2.663   7.324   1.339
14354TIP3   OH243004   1.072   2.112   2.798
14354TIP3    H143005   1.034   2.058   2.867
14354TIP3    H243006   1.035   2.199   2.811
14355TIP3   OH243007   3.853   1.197   4.127
14355TIP3    H143008   3.856   1.110   4.166
14355TIP3    H243009   3.803   1.185   4.047
14356TIP3   OH243010   7.094   2.312   1.742
14356TIP3    H143011   7.092   2.239   1.804
14356TIP3    H243012   7.023   2.293   1.681
14357TIP3   OH243013   2.437   6.424   4.428
14357TIP3    H143014   2.489   6.364   4.482
14357TIP3    H243015   2.422   6.376   4.346
14358TIP3   OH243016   0.358   1.031   5.875
14358TIP3    H143017   0.425   1.044   5.808
14358TIP3    H243018   0.338   1.119   5.906
14359TIP3   OH243019   6.039   7.614   4.616
14359TIP3    H143020   6.098   7.625   4.541
14359TIP3    H243021   6.049   7.522   4.641
14360TIP3   OH243022   1.114   5.389   5.542
14360TIP3    H143023   1.054   5.321   5.573
14360TIP3    H243024   1.074   5.471   5.572
14361TIP3   OH243025   0.162   5.534   4.035
14361TIP3    H143026   0.215   5.598   3.988
14361TIP3    H243027   0.075   5.574   4.039
14362TIP3   OH243028   5.006   2.677   1.367
14362TIP3    H143029   5.057   2.738   1.419
14362TIP3    H243030   5.008   2.713   1.278
14363TIP3   OH243031   6.943   0.613   0.921
14363TIP3    H143032   7.003   0.547   0.955
14363TIP3    H243033   6.856   0.573   0.928
14364TIP3   OH243034   3.848   2.817   5.834
14364TIP3    H143035   3.779   2.883   5.827
14364TIP3    H243036   3.849   2.774   5.749
14365TIP3   OH243037   5.351   4.545   5.808
14365TIP3    H143038   5.362   4.452   5.786
14365TIP3    H243039   5.293   4.579   5.740
14366TIP3   OH243040   1.549   7.218   3.460
14366TIP3    H143041   1.600   7.199   3.538
14366TIP3    H243042   1.613   7.251   3.397
14367TIP3   OH243043   2.720   7.253   5.275
14367TIP3    H143044   2.658   7.220   5.339
14367TIP3    H243045   2.669   7.262   5.194
14368TIP3   OH243046   7.442   7.733   1.385
14368TIP3    H143047   7.409   7.652   1.424
14368TIP3    H243048   7.393   7.743   1.304
14369TIP3   OH243049   3.751   7.682   0.326
14369TIP3    H143050   3.820   7.746   0.308
14369TIP3    H243051   3.728   7.698   0.418
14370TIP3   OH243052   1.503   2.284   1.617
14370TIP3    H143053   1.446   2.240   1.679
14370TIP3    H243054   1.461   2.368   1.601
14371TIP3   OH243055   2.138   5.875   1.783
14371TIP3    H143056   2.128   5.805   1.847
14371TIP3    H243057   2.157   5.953   1.835
14372TIP3   OH243058   3.132   0.468   4.432
14372TIP3    H143059   3.213   0.418   4.422
14372TIP3    H243060   3.124   0.481   4.527
14373TIP3   OH243061   3.225  -0.048   2.371
14373TIP3    H143062   3.202   0.015   2.303
14373TIP3    H243063   3.250   0.006   2.447
14374TIP3   OH243064   3.832   3.975   3.464
14374TIP3    H143065   3.767   4.037   3.496
14374TIP3    H243066   3.795   3.889   3.484
14375TIP3   OH243067   3.448   1.376   3.204
14375TIP3    H143068   3.370   1.355   3.152
14375TIP3    H243069   3.424   1.454   3.254
14376TIP3   OH243070   4.572   7.686   1.987
14376TIP3    H143071   4.483   7.656   1.971
14376TIP3    H243072   4.582   7.763   1.931
14377TIP3   OH243073   7.109   4.517   2.239
14377TIP3    H143074   7.167   4.442   2.227
14377TIP3    H243075   7.025   4.487   2.204
14378TIP3   OH243076   3.373   3.676   2.848
14378TIP3    H143077   3.452   3.680   2.902
14378TIP3    H243078   3.318   3.610   2.892
14379TIP3   OH243079   6.121   1.873   2.360
14379TIP3    H143080   6.198   1.850   2.308
14379TIP3    H243081   6.116   1.806   2.427
14380TIP3   OH243082   7.333   3.080   1.260
14380TIP3    H143083   7.256   3.123   1.223
14380TIP3    H243084   7.407   3.116   1.210
14381TIP3   OH243085   5.813   2.649   4.342
14381TIP3    H143086   5.832   2.728   4.392
14381TIP3    H243087   5.874   2.584   4.376
14382TIP3   OH243088   4.546   2.359   0.038
14382TIP3    H143089   4.621   2.416   0.055
14382TIP3    H243090   4.575   2.273   0.069
14383TIP3   OH243091   0.222   2.011   2.612
14383TIP3    H143092   0.162   2.024   2.539
14383TIP3    H243093   0.306   2.043   2.579
14384TIP3   OH243094   1.193   6.090   1.232
14384TIP3    H143095   1.099   6.074   1.227
14384TIP3    H243096   1.234   6.008   1.204
14385TIP3   OH243097   2.099   5.058   2.110
14385TIP3    H143098   2.076   5.135   2.058
14385TIP3    H243099   2.050   5.069   2.192
14386TIP3   OH243100   0.117   4.499   2.303
14386TIP3    H143101   0.063   4.567   2.343
14386TIP3    H243102   0.096   4.503   2.210
14387TIP3   OH243103   0.823   4.959   1.769
14387TIP3    H143104   0.911   4.929   1.744
14387TIP3    H243105   0.789   5.002   1.690
14388TIP3   OH243106   5.248   7.783   3.632
14388TIP3    H143107   5.201   7.737   3.562
14388TIP3    H243108   5.214   7.745   3.713
14389TIP3   OH243109   6.656   6.937   5.094
14389TIP3    H143110   6.667   6.986   5.012
14389TIP3    H243111   6.659   7.004   5.163
14390TIP3   OH243112   0.867   0.917   1.862
14390TIP3    H143113   0.825   0.962   1.789
14390TIP3    H243114   0.865   0.981   1.933
14391TIP3   OH243115   2.262   6.660   5.502
14391TIP3    H143116   2.284   6.640   5.593
14391TIP3    H243117   2.168   6.675   5.503
14392TIP3   OH243118   6.720   0.067   2.230
14392TIP3    H143119   6.750   0.143   2.280
14392TIP3    H243120   6.654   0.026   2.287
14393TIP3   OH243121   4.001   2.391   2.994
14393TIP3    H143122   3.942   2.318   2.974
14393TIP3    H243123   4.032   2.421   2.909
14394TIP3   OH243124   1.890   7.855   4.809
14394TIP3    H143125   1.901   7.787   4.742
14394TIP3    H243126   1.803   7.890   4.794
14395TIP3   OH243127   1.672   2.823   5.426
14395TIP3    H143128   1.625   2.746   5.392
14395TIP3    H243129   1.605   2.890   5.434
14396TIP3   OH243130   1.821   1.667   4.251
14396TIP3    H143131   1.788   1.627   4.170
14396TIP3    H243132   1.747   1.718   4.284
14397TIP3   OH243133   2.753   3.370   1.353
14397TIP3    H143134   2.682   3.309   1.371
14397TIP3    H243135   2.740   3.396   1.262
14398TIP3   OH243136   5.360   0.444   1.232
14398TIP3    H143137   5.429   0.390   1.272
14398TIP3    H243138   5.373   0.434   1.138
14399TIP3   OH243139   3.670   5.460   0.373
14399TIP3    H143140   3.602   5.393   0.360
14399TIP3    H243141   3.719   5.429   0.450
14400TIP3   OH243142   6.473   3.942   5.476
14400TIP3    H143143   6.552   3.894   5.454
14400TIP3    H243144   6.470   3.944   5.571
14401TIP3   OH243145   6.331   4.146   5.385
14401TIP3    H143146   6.388   4.213   5.347
14401TIP3    H243147   6.391   4.078   5.417
14402TIP3   OH243148   7.741   0.892   4.799
14402TIP3    H143149   7.709   0.803   4.789
14402TIP3    H243150   7.715   0.936   4.717
14403TIP3   OH243151   7.184   5.865   5.221
14403TIP3    H143152   7.222   5.920   5.153
14403TIP3    H243153   7.094   5.897   5.231
14404TIP3   OH243154   1.799   2.206   6.405
14404TIP3    H143155   1.819   2.286   6.454
14404TIP3    H243156   1.712   2.180   6.437
14405TIP3   OH243157   4.306   4.161   6.648
14405TIP3    H143158   4.286   4.188   6.558
14405TIP3    H243159   4.278   4.234   6.702
14406TIP3   OH243160   0.250   1.795   2.320
14406TIP3    H143161   0.337   1.759   2.302
14406TIP3    H243162   0.225   1.755   2.403
14407TIP3   OH243163   4.553   3.105   3.889
14407TIP3    H143164   4.547   3.163   3.813
14407TIP3    H243165   4.574   3.164   3.962
14408TIP3   OH243166   4.916   3.476   0.349
14408TIP3    H143167   4.930   3.396   0.401
14408TIP3    H243168   4.863   3.447   0.275
14409TIP3   OH243169   5.096   4.859   5.071
14409TIP3    H143170   5.017   4.873   5.019
14409TIP3    H243171   5.073   4.890   5.158
14410TIP3   OH243172   7.226   1.632   2.614
14410TIP3    H143173   7.290   1.576   2.571
14410TIP3    H243174   7.219   1.709   2.557
14411TIP3   OH243175   0.892   5.368   4.099
14411TIP3    H143176   0.873   5.457   4.129
14411TIP3    H243177   0.840   5.311   4.156
14412TIP3   OH243178   5.950   1.124   5.176
14412TIP3    H143179   6.014   1.106   5.107
14412TIP3    H243180   5.870   1.083   5.145
14413TIP3   OH243181   2.307   5.447   4.398
14413TIP3    H143182   2.339   5.415   4.482
14413TIP3    H243183   2.215   5.468   4.413
14414TIP3   OH243184   2.714   0.562   1.091
14414TIP3    H143185   2.658   0.638   1.078
14414TIP3    H243186   2.727   0.558   1.186
14415TIP3   OH243187   1.189   2.647   4.105
14415TIP3    H143188   1.113   2.640   4.048
14415TIP3    H243189   1.261   2.671   4.046
14416TIP3   OH243190   2.674   6.313   2.048
14416TIP3    H143191   2.720   6.333   1.967
14416TIP3    H243192   2.736   6.260   2.098
14417TIP3   OH243193   0.149   4.759   6.564
14417TIP3    H143194   0.133   4.670   6.531
14417TIP3    H243195   0.140   4.814   6.486
14418TIP3   OH243196   4.467   6.547   3.778
14418TIP3    H143197   4.499   6.601   3.706
14418TIP3    H243198   4.424   6.608   3.837
14419TIP3   OH243199   2.086   1.570   2.652
14419TIP3    H143200   2.071   1.604   2.740
14419TIP3    H243201   2.008   1.595   2.603
14420TIP3   OH243202   5.165   2.327   2.593
14420TIP3    H143203   5.212   2.259   2.545
14420TIP3    H243204   5.075   2.323   2.559
14421TIP3   OH243205   5.935   0.746   0.670
14421TIP3    H143206   5.967   0.785   0.589
14421TIP3    H243207   6.010   0.698   0.705
14422TIP3   OH243208   6.123   0.348   5.186
14422TIP3    H143209   6.061   0.348   5.113
14422TIP3    H243210   6.203   0.385   5.149
14423TIP3   OH243211   7.255   2.802   0.132
14423TIP3    H143212   7.260   2.714   0.093
14423TIP3    H243213   7.202   2.790   0.211
14424TIP3   OH243214   2.759   7.020   4.022
14424TIP3    H143215   2.699   6.950   4.046
14424TIP3    H243216   2.713   7.069   3.954
14425TIP3   OH243217   3.939   2.667   2.911
14425TIP3    H143218   4.014   2.647   2.967
14425TIP3    H243219   3.872   2.700   2.970
14426TIP3   OH243220   0.671   2.466   4.940
14426TIP3    H143221   0.579   2.441   4.945
14426TIP3    H243222   0.671   2.561   4.954
14427TIP3   OH243223   3.631   7.155   2.589
14427TIP3    H143224   3.620   7.073   2.636
14427TIP3    H243225   3.681   7.211   2.648
14428TIP3   OH243226   7.032   3.756   2.948
14428TIP3    H143227   7.062   3.813   3.019
14428TIP3    H243228   7.081   3.675   2.959
14429TIP3   OH243229   6.528   2.068   2.361
14429TIP3    H143230   6.462   2.033   2.419
14429TIP3    H243231   6.543   2.157   2.393
14430TIP3   OH243232   5.781   0.065   5.844
14430TIP3    H143233   5.751   0.061   5.753
14430TIP3    H243234   5.723   0.006   5.892
14431TIP3   OH243235   1.985   4.537   2.556
14431TIP3    H143236   2.044   4.546   2.481
14431TIP3    H243237   1.900   4.517   2.518
14432TIP3   OH243238   3.554   4.653   1.666
14432TIP3    H143239   3.460   4.668   1.663
14432TIP3    H243240   3.573   4.631   1.757
14433TIP3   OH243241   2.360   0.324   4.543
14433TIP3    H143242   2.321   0.277   4.617
14433TIP3    H243243   2.453   0.302   4.548
14434TIP3   OH243244   3.589   5.553   5.835
14434TIP3    H143245   3.567   5.602   5.756
14434TIP3    H243246   3.513   5.497   5.850
14435TIP3   OH243247   3.997   6.436   4.652
14435TIP3    H143248   3.992   6.394   4.566
14435TIP3    H243249   3.939   6.385   4.708
14436TIP3   OH243250   5.085   3.158   5.166
14436TIP3    H143251   5.143   3.089   5.133
14436TIP3    H243252   5.023   3.112   5.223
14437TIP3   OH243253   3.878   3.612   6.626
14437TIP3    H143254   3.962   3.650   6.651
14437TIP3    H243255   3.872   3.531   6.676
14438TIP3   OH243256   2.713   1.170   4.181
14438TIP3    H143257   2.624   1.154   4.213
14438TIP3    H243258   2.731   1.261   4.206
14439TIP3   OH243259   3.543   5.166   1.040
14439TIP3    H143260   3.467   5.221   1.023
14439TIP3    H243261   3.567   5.186   1.130
14440TIP3   OH243262   5.942   3.080   1.165
14440TIP3    H143263   5.859   3.119   1.136
14440TIP3    H243264   5.925   3.050   1.254
14441TIP3   OH243265   6.126   1.304   3.333
14441TIP3    H143266   6.074   1.377   3.299
14441TIP3    H243267   6.062   1.233   3.345
14442TIP3   OH243268   1.593   1.698   1.714
14442TIP3    H143269   1.641   1.644   1.777
14442TIP3    H243270   1.659   1.723   1.650
14443TIP3   OH243271   3.956   4.515   1.202
14443TIP3    H143272   4.021   4.511   1.271
14443TIP3    H243273   3.873   4.529   1.247
14444TIP3   OH243274   4.954   5.077   2.003
14444TIP3    H143275   4.899   5.153   1.985
14444TIP3    H243276   4.908   5.003   1.963
14445TIP3   OH243277   3.694   1.240   2.900
14445TIP3    H143278   3.635   1.177   2.941
14445TIP3    H243279   3.643   1.279   2.829
14446TIP3   OH243280   1.666   4.318   1.584
14446TIP3    H143281   1.590   4.306   1.641
14446TIP3    H243282   1.741   4.311   1.643
14447TIP3   OH243283   6.940   2.609   0.588
14447TIP3    H143284   6.970   2.699   0.574
14447TIP3    H243285   6.957   2.592   0.680
14448TIP3   OH243286   0.189   6.071   1.374
14448TIP3    H143287   0.174   5.988   1.328
14448TIP3    H243288   0.160   6.054   1.464
14449TIP3   OH243289   4.595   7.346   3.108
14449TIP3    H143290   4.668   7.386   3.061
14449TIP3    H243291   4.517   7.381   3.064
14450TIP3   OH243292   6.113   6.677   2.187
14450TIP3    H143293   6.133   6.770   2.177
14450TIP3    H243294   6.173   6.646   2.254
14451TIP3   OH243295   8.171   2.201   3.582
14451TIP3    H143296   8.158   2.291   3.554
14451TIP3    H243297   8.087   2.158   3.563
14452TIP3   OH243298   0.542   5.195   6.427
14452TIP3    H143299   0.543   5.189   6.523
14452TIP3    H243300   0.627   5.233   6.405
14453TIP3   OH243301   0.567   7.654   5.291
14453TIP3    H143302   0.593   7.626   5.379
14453TIP3    H243303   0.591   7.580   5.235
14454TIP3   OH243304   6.740   3.038   1.489
14454TIP3    H143305   6.670   3.101   1.505
14454TIP3    H243306   6.796   3.044   1.566
14455TIP3   OH243307   7.781   1.087   2.747
14455TIP3    H143308   7.698   1.038   2.746
14455TIP3    H243309   7.790   1.120   2.658
14456TIP3   OH243310   5.101   6.915   4.436
14456TIP3    H143311   5.019   6.936   4.391
14456TIP3    H243312   5.132   6.835   4.393
14457TIP3   OH243313   6.099   1.631   2.472
14457TIP3    H143314   6.168   1.569   2.495
14457TIP3    H243315   6.018   1.589   2.501
14458TIP3   OH243316   5.686   0.755   5.339
14458TIP3    H143317   5.780   0.775   5.346
14458TIP3    H243318   5.679   0.664   5.366
14459TIP3   OH243319   6.548   5.086   3.234
14459TIP3    H143320   6.470   5.046   3.272
14459TIP3    H243321   6.552   5.173   3.272
14460TIP3   OH243322   4.610   3.447   6.097
14460TIP3    H143323   4.535   3.410   6.143
14460TIP3    H243324   4.658   3.372   6.065
14461TIP3   OH243325   2.277   0.638   0.370
14461TIP3    H143326   2.190   0.678   0.370
14461TIP3    H243327   2.311   0.656   0.457
14462TIP3   OH243328   3.692   2.750   6.175
14462TIP3    H143329   3.615   2.766   6.120
14462TIP3    H243330   3.658   2.754   6.265
14463TIP3   OH243331   6.849   5.506   2.553
14463TIP3    H143332   6.838   5.419   2.592
14463TIP3    H243333   6.917   5.494   2.487
14464TIP3   OH243334   7.448   3.758   5.813
14464TIP3    H143335   7.490   3.794   5.891
14464TIP3    H243336   7.354   3.765   5.831
14465TIP3   OH243337   7.952   7.796   3.747
14465TIP3    H143338   7.858   7.782   3.733
14465TIP3    H243339   7.962   7.798   3.842
14466TIP3   OH243340   4.512   7.349   6.741
14466TIP3    H143341   4.521   7.390   6.826
14466TIP3    H243342   4.452   7.276   6.756
14467TIP3   OH243343   4.790   0.245   1.238
14467TIP3    H143344   4.731   0.215   1.169
14467TIP3    H243345   4.768   0.190   1.313
14468TIP3   OH243346   2.017   3.902   1.224
14468TIP3    H143347   2.078   3.895   1.151
14468TIP3    H243348   1.983   3.813   1.236
14469TIP3   OH243349   8.047   6.639   6.495
14469TIP3    H143350   8.069   6.595   6.412
14469TIP3    H243351   8.117   6.704   6.506
14470TIP3   OH243352   3.019   7.501   5.952
14470TIP3    H143353   3.103   7.461   5.929
14470TIP3    H243354   3.033   7.538   6.040
14471TIP3   OH243355   2.144   0.315   2.784
14471TIP3    H143356   2.078   0.381   2.807
14471TIP3    H243357   2.119   0.237   2.834
14472TIP3   OH243358   5.428   3.647   3.113
14472TIP3    H143359   5.483   3.679   3.042
14472TIP3    H243360   5.354   3.605   3.069
14473TIP3   OH243361   0.817   4.989   4.605
14473TIP3    H143362   0.744   4.999   4.665
14473TIP3    H243363   0.777   4.956   4.524
14474TIP3   OH243364   3.040   1.129   4.031
14474TIP3    H143365   3.030   1.055   4.091
14474TIP3    H243366   3.042   1.090   3.944
14475TIP3   OH243367   7.862   1.926   4.558
14475TIP3    H143368   7.861   2.013   4.597
14475TIP3    H243369   7.844   1.941   4.466
14476TIP3   OH243370   5.152   1.487   2.312
14476TIP3    H143371   5.230   1.464   2.363
14476TIP3    H243372   5.177   1.471   2.221
14477TIP3   OH243373   1.299   3.353   5.812
14477TIP3    H143374   1.270   3.389   5.729
14477TIP3    H243375   1.395   3.357   5.808
14478TIP3   OH243376   1.590   7.287   4.322
14478TIP3    H143377   1.564   7.348   4.253
14478TIP3    H243378   1.635   7.216   4.276
14479TIP3   OH243379   2.629   2.333   4.202
14479TIP3    H143380   2.552   2.361   4.251
14479TIP3    H243381   2.635   2.395   4.129
14480TIP3   OH243382   0.867   5.711   2.924
14480TIP3    H143383   0.929   5.703   2.851
14480TIP3    H243384   0.922   5.708   3.002
14481TIP3   OH243385   7.780   4.022   6.511
14481TIP3    H143386   7.820   3.936   6.524
14481TIP3    H243387   7.795   4.041   6.418
14482TIP3   OH243388   3.871   0.765   6.481
14482TIP3    H143389   3.941   0.799   6.427
14482TIP3    H243390   3.857   0.675   6.450
14483TIP3   OH243391   6.756   0.737   5.759
14483TIP3    H143392   6.827   0.796   5.785
14483TIP3    H243393   6.717   0.708   5.841
14484TIP3   OH243394   3.019   6.622   3.191
14484TIP3    H143395   2.947   6.610   3.253
14484TIP3    H243396   2.976   6.642   3.108
14485TIP3   OH243397   4.331   6.499   4.614
14485TIP3    H143398   4.378   6.529   4.692
14485TIP3    H243399   4.398   6.455   4.561
14486TIP3   OH243400   0.192   3.611   1.614
14486TIP3    H143401   0.102   3.578   1.612
14486TIP3    H243402   0.214   3.616   1.707
14487TIP3   OH243403   4.703   3.550   5.646
14487TIP3    H143404   4.790   3.509   5.652
14487TIP3    H243405   4.721   3.637   5.612
14488TIP3   OH243406   7.773   2.221   3.897
14488TIP3    H143407   7.726   2.242   3.816
14488TIP3    H243408   7.817   2.302   3.921
14489TIP3   OH243409   6.702   7.445   5.769
14489TIP3    H143410   6.629   7.474   5.714
14489TIP3    H243411   6.691   7.493   5.851
14490TIP3   OH243412   2.649   1.464   4.950
14490TIP3    H143413   2.586   1.467   4.879
14490TIP3    H243414   2.600   1.429   5.024
14491TIP3   OH243415   2.433   2.828   4.446
14491TIP3    H143416   2.503   2.889   4.423
14491TIP3    H243417   2.369   2.882   4.494
14492TIP3   OH243418   7.619   6.982   4.086
14492TIP3    H143419   7.698   6.946   4.127
14492TIP3    H243420   7.572   7.024   4.158
14493TIP3   OH243421   5.290   4.241   1.055
14493TIP3    H143422   5.370   4.287   1.029
14493TIP3    H243423   5.231   4.311   1.084
14494TIP3   OH243424   3.918   4.044   3.203
14494TIP3    H143425   3.897   3.963   3.158
14494TIP3    H243426   3.881   4.034   3.290
14495TIP3   OH243427   1.712   7.112   5.995
14495TIP3    H143428   1.627   7.112   5.951
14495TIP3    H243429   1.777   7.111   5.924
14496TIP3   OH243430   5.032   4.390   5.613
14496TIP3    H143431   5.107   4.449   5.618
14496TIP3    H243432   5.021   4.373   5.519
14497TIP3   OH243433   6.024   2.586   6.313
14497TIP3    H143434   6.110   2.624   6.333
14497TIP3    H243435   6.027   2.569   6.219
14498TIP3   OH243436   0.843   6.522   4.187
14498TIP3    H143437   0.828   6.491   4.276
14498TIP3    H243438   0.863   6.615   4.197
14499TIP3   OH243439   8.091   5.302   0.566
14499TIP3    H143440   8.001   5.275   0.587
14499TIP3    H243441   8.125   5.230   0.513
14500TIP3   OH243442   7.896   5.783   6.361
14500TIP3    H143443   7.903   5.774   6.266
14500TIP3    H243444   7.802   5.793   6.377
14501TIP3   OH243445   2.561   6.952   6.208
14501TIP3    H143446   2.623   6.983   6.274
14501TIP3    H243447   2.617   6.920   6.137
14502TIP3   OH243448   2.929   2.440   6.639
14502TIP3    H143449   2.867   2.508   6.664
14502TIP3    H243450   2.954   2.462   6.549
14503TIP3   OH243451   0.543   1.361   2.851
14503TIP3    H143452   0.564   1.447   2.889
14503TIP3    H243453   0.448   1.359   2.847
14504TIP3   OH243454  -0.035   2.373   4.144
14504TIP3    H143455  -0.088   2.452   4.144
14504TIP3    H243456  -0.003   2.366   4.054
14505TIP3   OH243457   7.918   3.687   2.771
14505TIP3    H143458   7.869   3.764   2.798
14505TIP3    H243459   7.965   3.660   2.850
14506TIP3   OH243460   8.221   4.708   4.712
14506TIP3    H143461   8.157   4.642   4.741
14506TIP3    H243462   8.304   4.679   4.750
14507TIP3   OH243463   5.557   0.940   6.362
14507TIP3    H143464   5.603   0.864   6.327
14507TIP3    H243465   5.559   0.929   6.457
14508TIP3   OH243466   1.696   2.936   5.869
14508TIP3    H143467   1.747   2.992   5.927
14508TIP3    H243468   1.627   2.900   5.925
14509TIP3   OH243469   1.540   1.372   3.412
14509TIP3    H143470   1.601   1.393   3.482
14509TIP3    H243471   1.475   1.442   3.413
14510TIP3   OH243472   0.899   4.548   3.430
14510TIP3    H143473   0.827   4.604   3.400
14510TIP3    H243474   0.912   4.485   3.360
14511TIP3   OH243475   2.390   3.710   2.117
14511TIP3    H143476   2.430   3.734   2.201
14511TIP3    H243477   2.458   3.658   2.073
14512TIP3   OH243478   2.693   1.812   1.406
14512TIP3    H143479   2.785   1.787   1.410
14512TIP3    H243480   2.645   1.730   1.422
14513TIP3   OH243481   7.162   2.899   3.802
14513TIP3    H143482   7.199   2.906   3.890
14513TIP3    H243483   7.218   2.837   3.757
14514TIP3   OH243484   0.316   6.538   3.374
14514TIP3    H143485   0.267   6.591   3.437
14514TIP3    H243486   0.254   6.521   3.303
14515TIP3   OH243487   1.498   7.868   1.117
14515TIP3    H143488   1.422   7.876   1.059
14515TIP3    H243489   1.548   7.795   1.081
14516TIP3   OH243490   5.653   3.598   3.304
14516TIP3    H143491   5.697   3.532   3.250
14516TIP3    H243492   5.597   3.646   3.243
14517TIP3   OH243493   5.603   2.241   0.448
14517TIP3    H143494   5.553   2.308   0.495
14517TIP3    H243495   5.688   2.282   0.431
14518TIP3   OH243496   4.546   5.991   2.119
14518TIP3    H143497   4.461   6.031   2.107
14518TIP3    H243498   4.555   5.979   2.213
14519TIP3   OH243499   7.781   4.775   5.411
14519TIP3    H143500   7.759   4.788   5.318
14519TIP3    H243501   7.831   4.694   5.412
14520TIP3   OH243502   6.908   3.906   1.256
14520TIP3    H143503   6.875   3.850   1.326
14520TIP3    H243504   6.872   3.866   1.176
14521TIP3   OH243505   4.994   1.131   1.915
14521TIP3    H143506   5.059   1.095   1.855
14521TIP3    H243507   4.913   1.083   1.894
14522TIP3   OH243508   7.088   5.215   1.421
14522TIP3    H143509   7.068   5.254   1.506
14522TIP3    H243510   7.070   5.285   1.358
14523TIP3   OH243511   2.574   6.444   3.182
14523TIP3    H143512   2.569   6.383   3.256
14523TIP3    H243513   2.532   6.524   3.215
14524TIP3   OH243514   3.155   4.649   2.856
14524TIP3    H143515   3.126   4.678   2.942
14524TIP3    H243516   3.215   4.716   2.825
14525TIP3   OH243517   1.036   6.108   3.081
14525TIP3    H143518   0.950   6.087   3.045
14525TIP3    H243519   1.094   6.043   3.042
14526TIP3   OH243520   7.430   7.219   0.489
14526TIP3    H143521   7.389   7.214   0.402
14526TIP3    H243522   7.455   7.311   0.499
14527TIP3   OH243523   4.642   5.587   5.379
14527TIP3    H143524   4.730   5.582   5.341
14527TIP3    H243525   4.657   5.611   5.471
14528TIP3   OH243526   2.158   3.877   1.761
14528TIP3    H143527   2.230   3.911   1.815
14528TIP3    H243528   2.194   3.870   1.673
14529TIP3   OH243529   6.431   0.951   0.952
14529TIP3    H143530   6.396   1.012   1.016
14529TIP3    H243531   6.507   0.995   0.915
14530TIP3   OH243532   2.328   4.570   5.570
14530TIP3    H143533   2.405   4.525   5.535
14530TIP3    H243534   2.286   4.609   5.493
14531TIP3   OH243535   6.507   4.357   4.626
14531TIP3    H143536   6.484   4.449   4.630
14531TIP3    H243537   6.603   4.356   4.633
14532TIP3   OH243538   7.847   7.171   3.389
14532TIP3    H143539   7.847   7.266   3.398
14532TIP3    H243540   7.757   7.149   3.366
14533TIP3   OH243541   2.759   7.092   4.632
14533TIP3    H143542   2.834   7.146   4.609
14533TIP3    H243543   2.797   7.016   4.676
14534TIP3   OH243544   3.421   2.892   4.154
14534TIP3    H143545   3.435   2.896   4.059
14534TIP3    H243546   3.365   2.816   4.167
14535TIP3   OH243547   7.595   1.583   3.918
14535TIP3    H143548   7.651   1.536   3.857
14535TIP3    H243549   7.656   1.624   3.979
14536TIP3   OH243550   6.517   0.689   4.532
14536TIP3    H143551   6.575   0.613   4.525
14536TIP3    H243552   6.456   0.679   4.459
14537TIP3   OH243553   3.043   0.755   2.181
14537TIP3    H143554   3.025   0.796   2.096
14537TIP3    H243555   2.963   0.766   2.231
14538TIP3   OH243556   6.722   6.956   2.173
14538TIP3    H143557   6.799   7.003   2.143
14538TIP3    H243558   6.698   6.899   2.100
14539TIP3   OH243559   2.486   1.492   3.194
14539TIP3    H143560   2.464   1.400   3.179
14539TIP3    H243561   2.401   1.535   3.207
14540TIP3   OH243562   3.626   3.718   0.725
14540TIP3    H143563   3.601   3.632   0.691
14540TIP3    H243564   3.574   3.780   0.674
14541TIP3   OH243565   3.117   3.002   4.208
14541TIP3    H143566   3.037   2.979   4.161
14541TIP3    H243567   3.171   3.047   4.143
14542TIP3   OH243568   4.877   3.384   3.317
14542TIP3    H143569   4.869   3.478   3.333
14542TIP3    H243570   4.876   3.344   3.404
14543TIP3   OH243571   1.394   4.435   5.209
14543TIP3    H143572   1.443   4.385   5.144
14543TIP3    H243573   1.445   4.426   5.289
14544TIP3   OH243574   1.366   5.457   6.337
14544TIP3    H143575   1.447   5.454   6.387
14544TIP3    H243576   1.298   5.433   6.401
14545TIP3   OH243577   1.206   1.762   5.731
14545TIP3    H143578   1.274   1.698   5.753
14545TIP3    H243579   1.203   1.820   5.807
14546TIP3   OH243580   4.055   1.562   5.493
14546TIP3    H143581   4.090   1.573   5.581
14546TIP3    H243582   4.023   1.649   5.469
14547TIP3   OH243583   8.104   3.821   6.530
14547TIP3    H143584   8.111   3.895   6.589
14547TIP3    H243585   8.194   3.795   6.511
14548TIP3   OH243586   1.622   5.031   5.147
14548TIP3    H143587   1.603   5.119   5.112
14548TIP3    H243588   1.692   5.045   5.209
14549TIP3   OH243589   7.626   2.157   6.055
14549TIP3    H143590   7.569   2.232   6.040
14549TIP3    H243591   7.712   2.186   6.026
14550TIP3   OH243592   2.484   1.818   0.705
14550TIP3    H143593   2.503   1.725   0.716
14550TIP3    H243594   2.531   1.860   0.777
14551TIP3   OH243595   6.639   6.213   5.906
14551TIP3    H143596   6.684   6.188   5.987
14551TIP3    H243597   6.697   6.185   5.836
14552TIP3   OH243598   0.076   4.469   2.028
14552TIP3    H143599   0.109   4.556   2.006
14552TIP3    H243600   0.141   4.409   1.992
14553TIP3   OH243601   5.190   0.166   6.473
14553TIP3    H143602   5.201   0.103   6.544
14553TIP3    H243603   5.213   0.250   6.512
14554TIP3   OH243604   1.430   4.000   0.333
14554TIP3    H143605   1.445   3.920   0.384
14554TIP3    H243606   1.497   3.999   0.265
14555TIP3   OH243607   1.517   6.531   3.848
14555TIP3    H143608   1.446   6.511   3.787
14555TIP3    H243609   1.499   6.475   3.924
14556TIP3   OH243610   5.844   0.937   5.857
14556TIP3    H143611   5.886   0.852   5.846
14556TIP3    H243612   5.788   0.946   5.779
14557TIP3   OH243613   0.442   3.410   1.167
14557TIP3    H143614   0.386   3.434   1.242
14557TIP3    H243615   0.529   3.442   1.191
14558TIP3   OH243616   1.058   6.852   3.591
14558TIP3    H143617   1.049   6.772   3.643
14558TIP3    H243618   0.983   6.850   3.531
14559TIP3   OH243619   4.908   3.589   1.614
14559TIP3    H143620   4.868   3.629   1.537
14559TIP3    H243621   4.989   3.550   1.582
14560TIP3   OH243622   1.933   1.552   1.653
14560TIP3    H143623   1.871   1.614   1.615
14560TIP3    H243624   2.009   1.605   1.677
14561TIP3   OH243625   2.830   4.076   3.774
14561TIP3    H143626   2.890   4.010   3.737
14561TIP3    H243627   2.768   4.094   3.702
14562TIP3   OH243628   1.612   6.326   0.631
14562TIP3    H143629   1.522   6.352   0.611
14562TIP3    H243630   1.612   6.231   0.626
14563TIP3   OH243631   2.677   3.345   3.412
14563TIP3    H143632   2.738   3.289   3.459
14563TIP3    H243633   2.597   3.344   3.466
14564TIP3   OH243634   0.931   6.686   0.941
14564TIP3    H143635   0.986   6.715   0.868
14564TIP3    H243636   0.912   6.765   0.991
14565TIP3   OH243637   6.751   5.016   6.432
14565TIP3    H143638   6.697   5.087   6.397
14565TIP3    H243639   6.819   5.061   6.483
14566TIP3   OH243640   0.223   6.749   1.878
14566TIP3    H143641   0.317   6.770   1.883
14566TIP3    H243642   0.179   6.833   1.891
14567TIP3   OH243643   5.911   2.285   5.846
14567TIP3    H143644   5.848   2.259   5.780
14567TIP3    H243645   5.942   2.371   5.818
14568TIP3   OH243646   5.106   4.163   4.025
14568TIP3    H143647   5.104   4.224   4.099
14568TIP3    H243648   5.197   4.163   3.996
14569TIP3   OH243649   0.959   2.207   6.076
14569TIP3    H143650   0.970   2.218   5.982
14569TIP3    H243651   0.872   2.243   6.094
14570TIP3   OH243652   4.285   5.442   1.948
14570TIP3    H143653   4.321   5.530   1.959
14570TIP3    H243654   4.354   5.385   1.981
14571TIP3   OH243655   1.525   2.951   2.017
14571TIP3    H143656   1.536   3.024   2.079
14571TIP3    H243657   1.491   2.879   2.071
14572TIP3   OH243658   5.252   1.656   6.550
14572TIP3    H143659   5.183   1.713   6.515
14572TIP3    H243660   5.216   1.567   6.542
14573TIP3   OH243661   7.075   7.325   2.184
14573TIP3    H143662   7.012   7.254   2.173
14573TIP3    H243663   7.120   7.329   2.099
14574TIP3   OH243664   8.224   4.471   2.881
14574TIP3    H143665   8.260   4.551   2.843
14574TIP3    H243666   8.162   4.502   2.948
14575TIP3   OH243667   3.286   1.847   0.836
14575TIP3    H143668   3.209   1.902   0.823
14575TIP3    H243669   3.302   1.806   0.751
14576TIP3   OH243670   4.883   4.558   0.614
14576TIP3    H143671   4.846   4.616   0.681
14576TIP3    H243672   4.930   4.491   0.664
14577TIP3   OH243673   2.524   5.629   2.383
14577TIP3    H143674   2.515   5.704   2.441
14577TIP3    H243675   2.438   5.587   2.384
14578TIP3   OH243676   5.547   3.106   0.797
14578TIP3    H143677   5.630   3.084   0.755
14578TIP3    H243678   5.519   3.186   0.753
14579TIP3   OH243679   3.304   5.942   5.464
14579TIP3    H143680   3.250   5.886   5.519
14579TIP3    H243681   3.292   6.030   5.499
14580TIP3   OH243682   7.194   6.570   0.512
14580TIP3    H143683   7.145   6.649   0.536
14580TIP3    H243684   7.269   6.604   0.463
14581TIP3   OH243685   4.742   1.900   1.680
14581TIP3    H143686   4.818   1.958   1.684
14581TIP3    H243687   4.673   1.946   1.727
14582TIP3   OH243688   6.100   6.981   6.464
14582TIP3    H143689   6.163   6.943   6.525
14582TIP3    H243690   6.151   7.044   6.413
14583TIP3   OH243691   4.959   1.751   1.286
14583TIP3    H143692   4.944   1.699   1.365
14583TIP3    H243693   5.034   1.807   1.308
14584TIP3   OH243694   3.095   0.491   3.127
14584TIP3    H143695   3.078   0.399   3.106
14584TIP3    H243696   3.181   0.492   3.167
14585TIP3   OH243697   2.737   3.138   1.834
14585TIP3    H143698   2.690   3.161   1.754
14585TIP3    H243699   2.705   3.200   1.899
14586TIP3   OH243700   3.485   7.128   6.265
14586TIP3    H143701   3.468   7.182   6.188
14586TIP3    H243702   3.579   7.139   6.281
14587TIP3   OH243703   6.787   1.081   5.664
14587TIP3    H143704   6.817   1.127   5.586
14587TIP3    H243705   6.857   1.018   5.683
14588TIP3   OH243706   7.414   6.798   5.060
14588TIP3    H143707   7.327   6.790   5.099
14588TIP3    H243708   7.468   6.738   5.110
14589TIP3   OH243709   0.679   5.463   5.057
14589TIP3    H143710   0.590   5.453   5.092
14589TIP3    H243711   0.689   5.557   5.042
14590TIP3   OH243712   5.737   0.532   0.820
14590TIP3    H143713   5.719   0.449   0.776
14590TIP3    H243714   5.791   0.581   0.758
14591TIP3   OH243715   1.754   4.706   2.601
14591TIP3    H143716   1.844   4.732   2.581
14591TIP3    H243717   1.700   4.779   2.570
14592TIP3   OH243718   2.251   1.061   0.942
14592TIP3    H143719   2.197   1.045   0.865
14592TIP3    H243720   2.296   0.978   0.957
14593TIP3   OH243721   1.855   3.188   0.575
14593TIP3    H143722   1.798   3.224   0.643
14593TIP3    H243723   1.796   3.141   0.517
14594TIP3   OH243724   5.576   4.648   1.410
14594TIP3    H143725   5.650   4.631   1.468
14594TIP3    H243726   5.527   4.719   1.453
14595TIP3   OH243727   3.866   6.117   1.856
14595TIP3    H143728   3.892   6.125   1.764
14595TIP3    H243729   3.913   6.188   1.900
14596TIP3   OH243730   3.265   4.361   1.171
14596TIP3    H143731   3.181   4.337   1.133
14596TIP3    H243732   3.244   4.430   1.235
14597TIP3   OH243733   5.678   1.063   4.647
14597TIP3    H143734   5.748   1.000   4.628
14597TIP3    H243735   5.597   1.017   4.621
14598TIP3   OH243736   0.976   0.307   2.259
14598TIP3    H143737   0.889   0.328   2.293
14598TIP3    H243738   0.979   0.350   2.174
14599TIP3   OH243739   7.355   1.511   4.959
14599TIP3    H143740   7.349   1.577   5.028
14599TIP3    H243741   7.447   1.483   4.961
14600TIP3   OH243742   4.974   0.711   6.328
14600TIP3    H143743   4.998   0.762   6.406
14600TIP3    H243744   4.973   0.620   6.358
14601TIP3   OH243745   6.860   7.139   4.231
14601TIP3    H143746   6.770   7.126   4.201
14601TIP3    H243747   6.911   7.151   4.151
14602TIP3   OH243748   2.819   6.850   5.237
14602TIP3    H143749   2.851   6.761   5.221
14602TIP3    H243750   2.765   6.842   5.316
14603TIP3   OH243751   6.972   6.048   3.726
14603TIP3    H143752   6.877   6.058   3.717
14603TIP3    H243753   6.986   6.043   3.821
14604TIP3   OH243754   7.977   4.063   6.274
14604TIP3    H143755   7.987   4.146   6.228
14604TIP3    H243756   8.066   4.034   6.291
14605TIP3   OH243757   3.409   1.101   0.088
14605TIP3    H143758   3.378   1.028   0.142
14605TIP3    H243759   3.457   1.059   0.017
14606TIP3   OH243760   2.687   4.111   4.678
14606TIP3    H143761   2.690   4.063   4.595
14606TIP3    H243762   2.599   4.092   4.713
14607TIP3   OH243763   1.097   6.686   5.619
14607TIP3    H143764   1.142   6.656   5.540
14607TIP3    H243765   1.100   6.611   5.678
14608TIP3   OH243766   4.339   3.518   6.617
14608TIP3    H143767   4.298   3.595   6.658
14608TIP3    H243768   4.359   3.546   6.528
14609TIP3   OH243769   6.261   5.546   6.498
14609TIP3    H143770   6.276   5.617   6.560
14609TIP3    H243771   6.166   5.538   6.493
14610TIP3   OH243772   4.144   3.939   1.967
14610TIP3    H143773   4.176   3.886   1.894
14610TIP3    H243774   4.172   3.891   2.045
14611TIP3   OH243775   3.700   6.643   4.443
14611TIP3    H143776   3.696   6.680   4.354
14611TIP3    H243777   3.792   6.651   4.468
14612TIP3   OH243778   6.022   5.496   0.679
14612TIP3    H143779   6.082   5.542   0.738
14612TIP3    H243780   6.057   5.510   0.592
14613TIP3   OH243781   1.921   7.262   3.111
14613TIP3    H143782   2.014   7.257   3.092
14613TIP3    H243783   1.884   7.311   3.037
14614TIP3   OH243784   7.208   4.761   2.264
14614TIP3    H143785   7.184   4.812   2.188
14614TIP3    H243786   7.175   4.673   2.246
14615TIP3   OH243787   2.346   2.381   4.223
14615TIP3    H143788   2.293   2.322   4.277
14615TIP3    H243789   2.330   2.468   4.259
14616TIP3   OH243790   5.917   7.531   0.562
14616TIP3    H143791   5.911   7.487   0.478
14616TIP3    H243792   5.990   7.488   0.607
14617TIP3   OH243793   6.551   0.089   3.048
14617TIP3    H143794   6.508   0.008   3.023
14617TIP3    H243795   6.636   0.061   3.084
14618TIP3   OH243796   0.907   0.224   1.560
14618TIP3    H143797   0.820   0.225   1.600
14618TIP3    H243798   0.962   0.275   1.619
14619TIP3   OH243799   5.351   1.123   1.036
14619TIP3    H143800   5.419   1.179   0.998
14619TIP3    H243801   5.370   1.036   1.001
14620TIP3   OH243802   0.727   0.961   2.249
14620TIP3    H143803   0.751   0.996   2.335
14620TIP3    H243804   0.780   0.881   2.240
14621TIP3   OH243805   1.436   1.115   4.241
14621TIP3    H143806   1.477   1.035   4.272
14621TIP3    H243807   1.434   1.106   4.146
14622TIP3   OH243808   8.006   4.629   3.442
14622TIP3    H143809   8.089   4.669   3.417
14622TIP3    H243810   7.940   4.680   3.396
14623TIP3   OH243811   7.195   4.467   4.216
14623TIP3    H143812   7.246   4.464   4.135
14623TIP3    H243813   7.181   4.375   4.239
14624TIP3   OH243814   0.683   1.553   1.400
14624TIP3    H143815   0.718   1.555   1.489
14624TIP3    H243816   0.632   1.472   1.396
14625TIP3   OH243817   8.177   6.858   2.738
14625TIP3    H143818   8.233   6.809   2.798
14625TIP3    H243819   8.166   6.943   2.779
14626TIP3   OH243820   8.206   0.444   4.936
14626TIP3    H143821   8.135   0.476   4.881
14626TIP3    H243822   8.286   0.477   4.895
14627TIP3   OH243823   7.032   5.071   4.035
14627TIP3    H143824   7.010   5.031   4.119
14627TIP3    H243825   6.979   5.023   3.971
14628TIP3   OH243826   0.980   3.468   2.035
14628TIP3    H143827   0.924   3.391   2.049
14628TIP3    H243828   1.041   3.441   1.967
14629TIP3   OH243829   7.827   1.362   1.809
14629TIP3    H143830   7.860   1.403   1.729
14629TIP3    H243831   7.906   1.337   1.857
14630TIP3   OH243832   6.233   3.109   5.877
14630TIP3    H143833   6.141   3.120   5.903
14630TIP3    H243834   6.283   3.154   5.945
14631TIP3   OH243835   5.337   5.821   0.803
14631TIP3    H143836   5.419   5.795   0.760
14631TIP3    H243837   5.269   5.774   0.755
14632TIP3   OH243838   0.896   1.333   1.723
14632TIP3    H143839   0.865   1.245   1.701
14632TIP3    H243840   0.988   1.320   1.749
14633TIP3   OH243841   4.645   1.609   1.008
14633TIP3    H143842   4.624   1.692   0.967
14633TIP3    H243843   4.739   1.598   0.993
14634TIP3   OH243844   1.055   5.130   1.947
14634TIP3    H143845   1.047   5.082   2.029
14634TIP3    H243846   1.005   5.078   1.884
14635TIP3   OH243847   3.295   2.468   4.578
14635TIP3    H143848   3.351   2.395   4.553
14635TIP3    H243849   3.206   2.437   4.562
14636TIP3   OH243850   6.390   2.932   5.687
14636TIP3    H143851   6.354   2.939   5.598
14636TIP3    H243852   6.364   3.014   5.729
14637TIP3   OH243853   6.627   7.653   2.820
14637TIP3    H143854   6.653   7.680   2.732
14637TIP3    H243855   6.533   7.638   2.814
14638TIP3   OH243856   4.505   5.320   3.097
14638TIP3    H143857   4.489   5.394   3.156
14638TIP3    H243858   4.585   5.345   3.050
14639TIP3   OH243859   7.848   6.742   2.988
14639TIP3    H143860   7.856   6.837   2.991
14639TIP3    H243861   7.844   6.715   3.080
14640TIP3   OH243862   7.683   4.241   5.060
14640TIP3    H143863   7.612   4.181   5.083
14640TIP3    H243864   7.762   4.186   5.063
14641TIP3   OH243865   2.318   1.245   1.854
14641TIP3    H143866   2.263   1.236   1.776
14641TIP3    H243867   2.260   1.286   1.919
14642TIP3   OH243868   3.155   3.024   6.093
14642TIP3    H143869   3.205   3.027   6.174
14642TIP3    H243870   3.220   3.007   6.025
14643TIP3   OH243871   2.955   1.166   2.352
14643TIP3    H143872   2.992   1.090   2.396
14643TIP3    H243873   2.912   1.215   2.422
14644TIP3   OH243874   2.412   0.928   1.856
14644TIP3    H143875   2.339   0.924   1.795
14644TIP3    H243876   2.482   0.973   1.809
14645TIP3   OH243877   8.129   6.945   6.558
14645TIP3    H143878   8.202   6.893   6.524
14645TIP3    H243879   8.171   7.009   6.616
14646TIP3   OH243880   5.817   0.254   3.779
14646TIP3    H143881   5.780   0.335   3.744
14646TIP3    H243882   5.767   0.237   3.859
14647TIP3   OH243883   2.324   1.453   2.742
14647TIP3    H143884   2.341   1.533   2.791
14647TIP3    H243885   2.229   1.448   2.736
14648TIP3   OH243886   6.488   2.535   0.459
14648TIP3    H143887   6.475   2.453   0.411
14648TIP3    H243888   6.560   2.517   0.520
14649TIP3   OH243889   2.691   7.546   2.571
14649TIP3    H143890   2.662   7.601   2.644
14649TIP3    H243891   2.758   7.489   2.609
14650TIP3   OH243892   5.934   7.496   0.301
14650TIP3    H143893   5.864   7.482   0.237
14650TIP3    H243894   5.984   7.570   0.265
14651TIP3   OH243895   0.336   4.141   1.590
14651TIP3    H143896   0.382   4.063   1.557
14651TIP3    H243897   0.401   4.188   1.640
14652TIP3   OH243898   6.698   5.303   1.298
14652TIP3    H143899   6.740   5.229   1.341
14652TIP3    H243900   6.641   5.340   1.365
14653TIP3   OH243901   3.581   6.504   4.709
14653TIP3    H143902   3.608   6.590   4.742
14653TIP3    H243903   3.506   6.480   4.763
14654TIP3   OH243904   6.375   4.021   4.079
14654TIP3    H143905   6.304   3.990   4.023
14654TIP3    H243906   6.454   3.985   4.039
14655TIP3   OH243907   2.946   7.694   2.122
14655TIP3    H143908   2.906   7.629   2.179
14655TIP3    H243909   3.017   7.648   2.077
14656TIP3   OH243910   0.193   7.541   3.183
14656TIP3    H143911   0.199   7.458   3.231
14656TIP3    H243912   0.130   7.523   3.113
14657TIP3   OH243913   4.436   7.862   5.580
14657TIP3    H143914   4.421   7.876   5.486
14657TIP3    H243915   4.371   7.795   5.604
14658TIP3   OH243916   5.930   5.998   6.150
14658TIP3    H143917   5.902   5.918   6.106
14658TIP3    H243918   5.848   6.040   6.178
14659TIP3   OH243919   0.862   4.609   2.914
14659TIP3    H143920   0.921   4.676   2.881
14659TIP3    H243921   0.779   4.655   2.930
14660TIP3   OH243922   8.121   7.713   6.566
14660TIP3    H143923   8.200   7.669   6.534
14660TIP3    H243924   8.060   7.642   6.585
14661TIP3   OH243925   3.297   4.158   1.368
14661TIP3    H143926   3.306   4.200   1.282
14661TIP3    H243927   3.308   4.065   1.351
14662TIP3   OH243928   4.040   4.476   3.813
14662TIP3    H143929   4.005   4.395   3.777
14662TIP3    H243930   4.122   4.451   3.854
14663TIP3   OH243931   4.511   5.251   5.525
14663TIP3    H143932   4.502   5.166   5.483
14663TIP3    H243933   4.442   5.305   5.485
14664TIP3   OH243934   4.498   4.620   3.783
14664TIP3    H143935   4.503   4.691   3.720
14664TIP3    H243936   4.477   4.543   3.731
14665TIP3   OH243937   6.700   7.043   3.595
14665TIP3    H143938   6.720   7.003   3.511
14665TIP3    H243939   6.768   7.109   3.607
14666TIP3   OH243940   3.330   4.816   2.758
14666TIP3    H143941   3.314   4.897   2.709
14666TIP3    H243942   3.423   4.819   2.780
14667TIP3   OH243943   5.556   2.086   4.996
14667TIP3    H143944   5.508   2.095   5.079
14667TIP3    H243945   5.487   2.084   4.929
14668TIP3   OH243946   5.138   6.239   3.678
14668TIP3    H143947   5.170   6.278   3.759
14668TIP3    H243948   5.046   6.220   3.695
14669TIP3   OH243949   1.046   6.818   6.348
14669TIP3    H143950   1.128   6.832   6.395
14669TIP3    H243951   1.024   6.903   6.311
14670TIP3   OH243952   4.966   2.033   1.493
14670TIP3    H143953   4.950   1.973   1.419
14670TIP3    H243954   5.061   2.031   1.505
14671TIP3   OH243955   0.759   1.833   2.551
14671TIP3    H143956   0.807   1.750   2.550
14671TIP3    H243957   0.755   1.857   2.644
14672TIP3   OH243958   7.943   7.309   1.013
14672TIP3    H143959   7.911   7.224   1.042
14672TIP3    H243960   7.889   7.372   1.060
14673TIP3   OH243961   0.336   7.121   6.476
14673TIP3    H143962   0.281   7.074   6.414
14673TIP3    H243963   0.275   7.174   6.527
14674TIP3   OH243964   3.168   4.400   3.164
14674TIP3    H143965   3.247   4.361   3.127
14674TIP3    H243966   3.120   4.432   3.087
14675TIP3   OH243967   6.635   3.394   2.114
14675TIP3    H143968   6.620   3.489   2.115
14675TIP3    H243969   6.612   3.367   2.025
14676TIP3   OH243970   5.538   6.911   3.899
14676TIP3    H143971   5.620   6.960   3.891
14676TIP3    H243972   5.507   6.902   3.809
14677TIP3   OH243973   0.463   6.815   2.047
14677TIP3    H143974   0.526   6.881   2.075
14677TIP3    H243975   0.509   6.732   2.054
14678TIP3   OH243976   4.178   6.607   2.978
14678TIP3    H143977   4.263   6.650   2.990
14678TIP3    H243978   4.159   6.568   3.064
14679TIP3   OH243979   0.423   2.066   5.093
14679TIP3    H143980   0.480   2.016   5.035
14679TIP3    H243981   0.418   2.014   5.173
14680TIP3   OH243982   2.650   5.578   2.142
14680TIP3    H143983   2.614   5.603   2.227
14680TIP3    H243984   2.663   5.483   2.149
14681TIP3   OH243985   1.201   4.052   2.550
14681TIP3    H143986   1.167   4.009   2.471
14681TIP3    H243987   1.238   3.981   2.602
14682TIP3   OH243988   1.935   4.420   0.344
14682TIP3    H143989   1.960   4.372   0.423
14682TIP3    H243990   1.852   4.462   0.366
14683TIP3   OH243991   1.835   2.922   5.190
14683TIP3    H143992   1.928   2.900   5.181
14683TIP3    H243993   1.821   2.924   5.285
14684TIP3   OH243994   5.980   0.794   5.304
14684TIP3    H143995   6.049   0.728   5.316
14684TIP3    H243996   5.970   0.800   5.209
14685TIP3   OH243997   4.934   1.356   2.057
14685TIP3    H143998   4.940   1.267   2.021
14685TIP3    H243999   4.942   1.414   1.981
14686TIP3   OH244000   0.205   5.826   3.961
14686TIP3    H144001   0.126   5.772   3.966
14686TIP3    H244002   0.193   5.892   4.029
14687TIP3   OH244003   2.206   5.922   3.670
14687TIP3    H144004   2.114   5.932   3.696
14687TIP3    H244005   2.248   5.882   3.747
14688TIP3   OH244006   1.063   2.292   2.510
14688TIP3    H144007   0.985   2.246   2.542
14688TIP3    H244008   1.105   2.326   2.589
14689TIP3   OH244009   7.321   0.201   3.636
14689TIP3    H144010   7.347   0.221   3.546
14689TIP3    H244011   7.288   0.111   3.632
14690TIP3   OH244012   4.207   6.749   6.266
14690TIP3    H144013   4.255   6.736   6.348
14690TIP3    H244014   4.271   6.788   6.206
14691TIP3   OH244015   8.096   3.104   5.407
14691TIP3    H144016   8.190   3.123   5.412
14691TIP3    H244017   8.054   3.190   5.405
14692TIP3   OH244018   3.998   7.161   0.700
14692TIP3    H144019   3.971   7.248   0.670
14692TIP3    H244020   4.052   7.127   0.628
14693TIP3   OH244021   5.278   4.933   5.745
14693TIP3    H144022   5.330   4.890   5.677
14693TIP3    H244023   5.328   4.920   5.825
14694TIP3   OH244024   1.484   1.720   3.056
14694TIP3    H144025   1.431   1.795   3.084
14694TIP3    H244026   1.477   1.720   2.960
14695TIP3   OH244027   6.485   3.529   6.599
14695TIP3    H144028   6.562   3.517   6.543
14695TIP3    H244029   6.411   3.510   6.542
14696TIP3   OH244030   0.866   5.450   3.426
14696TIP3    H144031   0.803   5.518   3.450
14696TIP3    H244032   0.814   5.384   3.379
14697TIP3   OH244033   5.200   0.988   5.793
14697TIP3    H144034   5.247   0.981   5.711
14697TIP3    H244035   5.224   0.909   5.842
14698TIP3   OH244036   5.801   5.292   1.875
14698TIP3    H144037   5.829   5.381   1.851
14698TIP3    H244038   5.744   5.305   1.951
14699TIP3   OH244039   0.997   5.248   1.043
14699TIP3    H144040   1.066   5.273   1.105
14699TIP3    H244041   1.031   5.169   1.000
14700TIP3   OH244042   7.698   4.879   4.253
14700TIP3    H144043   7.681   4.797   4.206
14700TIP3    H244044   7.757   4.854   4.324
14701TIP3   OH244045   7.914   4.350   3.358
14701TIP3    H144046   7.847   4.355   3.289
14701TIP3    H244047   7.963   4.431   3.350
14702TIP3   OH244048   0.490   4.178   5.720
14702TIP3    H144049   0.501   4.216   5.808
14702TIP3    H244050   0.526   4.244   5.661
14703TIP3   OH244051   0.068   3.201   5.374
14703TIP3    H144052   0.155   3.182   5.338
14703TIP3    H244053   0.085   3.256   5.450
14704TIP3   OH244054   1.541   4.793   4.035
14704TIP3    H144055   1.589   4.732   4.092
14704TIP3    H244056   1.449   4.776   4.055
14705TIP3   OH244057   7.243   6.467   0.998
14705TIP3    H144058   7.237   6.450   0.904
14705TIP3    H244059   7.206   6.555   1.008
14706TIP3   OH244060   7.336   6.375   5.377
14706TIP3    H144061   7.274   6.413   5.439
14706TIP3    H244062   7.357   6.289   5.414
14707TIP3   OH244063   6.450   3.392   2.855
14707TIP3    H144064   6.468   3.477   2.815
14707TIP3    H244065   6.519   3.334   2.822
14708TIP3   OH244066   0.989   4.797   5.813
14708TIP3    H144067   0.931   4.867   5.846
14708TIP3    H244068   1.010   4.824   5.724
14709TIP3   OH244069   4.795   6.595   0.656
14709TIP3    H144070   4.738   6.549   0.717
14709TIP3    H244071   4.874   6.540   0.651
14710TIP3   OH244072   7.003   6.900   3.026
14710TIP3    H144073   7.050   6.945   3.095
14710TIP3    H244074   7.012   6.957   2.949
14711TIP3   OH244075   6.257   2.937   6.294
14711TIP3    H144076   6.230   2.892   6.374
14711TIP3    H244077   6.342   2.898   6.272
14712TIP3   OH244078   1.712   4.406   1.227
14712TIP3    H144079   1.772   4.453   1.286
14712TIP3    H244080   1.769   4.348   1.176
14713TIP3   OH244081   7.751   3.668   6.765
14713TIP3    H144082   7.802   3.748   6.780
14713TIP3    H244083   7.757   3.652   6.671
14714TIP3   OH244084   0.125   4.275   0.587
14714TIP3    H144085   0.162   4.261   0.674
14714TIP3    H244086   0.187   4.231   0.528
14715TIP3   OH244087   5.044   3.211   2.235
14715TIP3    H144088   4.965   3.226   2.287
14715TIP3    H244089   5.016   3.227   2.144
14716TIP3   OH244090   2.707   6.234   4.454
14716TIP3    H144091   2.776   6.291   4.489
14716TIP3    H244092   2.715   6.154   4.505
14717TIP3   OH244093   3.205   6.812   5.226
14717TIP3    H144094   3.137   6.745   5.233
14717TIP3    H244095   3.284   6.764   5.202
14718TIP3   OH244096   5.489   0.331   1.833
14718TIP3    H144097   5.501   0.240   1.858
14718TIP3    H244098   5.433   0.368   1.901
14719TIP3   OH244099   6.299   3.058   3.927
14719TIP3    H144100   6.300   3.009   3.845
14719TIP3    H244101   6.376   3.115   3.921
14720TIP3   OH244102   3.088   4.955   0.854
14720TIP3    H144103   3.125   4.867   0.844
14720TIP3    H244104   2.993   4.942   0.847
14721TIP3   OH244105   7.226   6.440   2.134
14721TIP3    H144106   7.244   6.427   2.227
14721TIP3    H244107   7.257   6.359   2.092
14722TIP3   OH244108   7.135   2.486   1.094
14722TIP3    H144109   7.104   2.555   1.034
14722TIP3    H244110   7.213   2.523   1.134
14723TIP3   OH244111   5.694   4.355   1.093
14723TIP3    H144112   5.750   4.277   1.089
14723TIP3    H244113   5.756   4.428   1.091
14724TIP3   OH244114   0.756   5.074   2.252
14724TIP3    H144115   0.836   5.033   2.219
14724TIP3    H244116   0.710   5.104   2.174
14725TIP3   OH244117   4.682   4.083   1.025
14725TIP3    H144118   4.628   4.047   0.955
14725TIP3    H244119   4.702   4.172   0.997
14726TIP3   OH244120   4.758   6.712   5.175
14726TIP3    H144121   4.689   6.716   5.108
14726TIP3    H244122   4.731   6.775   5.241
14727TIP3   OH244123   7.334   5.056   5.785
14727TIP3    H144124   7.423   5.053   5.820
14727TIP3    H244125   7.323   5.146   5.754
14728TIP3   OH244126   2.339   1.421   4.934
14728TIP3    H144127   2.249   1.392   4.918
14728TIP3    H244128   2.391   1.380   4.865
14729TIP3   OH244129   2.646   1.760   2.959
14729TIP3    H144130   2.629   1.786   3.050
14729TIP3    H244131   2.561   1.768   2.916
14730TIP3   OH244132   6.602   6.688   5.270
14730TIP3    H144133   6.651   6.607   5.282
14730TIP3    H244134   6.660   6.744   5.218
14731TIP3   OH244135   7.693   3.705   1.334
14731TIP3    H144136   7.776   3.751   1.321
14731TIP3    H244137   7.716   3.612   1.323
14732TIP3   OH244138   7.683   0.896   2.293
14732TIP3    H144139   7.773   0.908   2.266
14732TIP3    H244140   7.689   0.863   2.383
14733TIP3   OH244141   4.628   0.805   0.207
14733TIP3    H144142   4.587   0.720   0.189
14733TIP3    H244143   4.692   0.816   0.136
14734TIP3   OH244144   0.458   4.542   1.971
14734TIP3    H144145   0.470   4.622   2.022
14734TIP3    H244146   0.528   4.545   1.905
14735TIP3   OH244147   7.243   5.792   0.294
14735TIP3    H144148   7.163   5.836   0.322
14735TIP3    H244149   7.213   5.712   0.252
14736TIP3   OH244150   1.374   5.341   5.471
14736TIP3    H144151   1.415   5.276   5.528
14736TIP3    H244152   1.286   5.352   5.506
14737TIP3   OH244153   1.990   1.131   1.724
14737TIP3    H144154   2.017   1.212   1.680
14737TIP3    H244155   2.022   1.139   1.813
14738TIP3   OH244156   1.817   7.164   6.309
14738TIP3    H144157   1.858   7.135   6.391
14738TIP3    H244158   1.889   7.167   6.246
14739TIP3   OH244159   3.098   6.726   6.461
14739TIP3    H144160   3.160   6.668   6.505
14739TIP3    H244161   3.131   6.814   6.479
14740TIP3   OH244162   5.629   2.572   2.835
14740TIP3    H144163   5.723   2.580   2.847
14740TIP3    H244164   5.592   2.583   2.922
14741TIP3   OH244165   8.168   1.498   0.501
14741TIP3    H144166   8.196   1.535   0.417
14741TIP3    H244167   8.241   1.442   0.528
14742TIP3   OH244168   3.803   1.696   0.512
14742TIP3    H144169   3.823   1.783   0.476
14742TIP3    H244170   3.778   1.713   0.603
14743TIP3   OH244171   0.902   3.985   3.749
14743TIP3    H144172   0.870   4.025   3.830
14743TIP3    H244173   0.852   3.904   3.740
14744TIP3   OH244174   7.649   6.846   6.091
14744TIP3    H144175   7.570   6.872   6.043
14744TIP3    H244176   7.624   6.856   6.183
14745TIP3   OH244177   1.774   0.833   0.435
14745TIP3    H144178   1.759   0.794   0.521
14745TIP3    H244179   1.691   0.876   0.414
14746TIP3   OH244180   7.615   3.581   6.352
14746TIP3    H144181   7.608   3.649   6.419
14746TIP3    H244182   7.700   3.541   6.366
14747TIP3   OH244183   4.525   7.689   1.689
14747TIP3    H144184   4.493   7.776   1.711
14747TIP3    H244185   4.620   7.700   1.678
14748TIP3   OH244186   3.790   0.256   4.327
14748TIP3    H144187   3.866   0.208   4.359
14748TIP3    H244188   3.716   0.199   4.348
14749TIP3   OH244189   0.890   1.867   0.467
14749TIP3    H144190   0.938   1.946   0.492
14749TIP3    H244191   0.823   1.898   0.406
14750TIP3   OH244192   2.264   2.695   1.254
14750TIP3    H144193   2.229   2.662   1.171
14750TIP3    H244194   2.356   2.670   1.253
14751TIP3   OH244195   6.356   1.930   0.711
14751TIP3    H144196   6.278   1.884   0.743
14751TIP3    H244197   6.345   2.020   0.741
14752TIP3   OH244198   7.751   4.544   2.031
14752TIP3    H144199   7.705   4.588   1.960
14752TIP3    H244200   7.823   4.498   1.988
14753TIP3   OH244201   4.520   7.574   0.563
14753TIP3    H144202   4.564   7.571   0.478
14753TIP3    H244203   4.530   7.664   0.593
14754TIP3   OH244204   1.844   1.920   2.845
14754TIP3    H144205   1.795   1.876   2.913
14754TIP3    H244206   1.843   1.860   2.770
14755TIP3   OH244207   3.467   4.266   2.483
14755TIP3    H144208   3.376   4.276   2.511
14755TIP3    H244209   3.515   4.330   2.536
14756TIP3   OH244210   5.247   2.851   0.073
14756TIP3    H144211   5.342   2.843   0.068
14756TIP3    H244212   5.217   2.823  -0.014
14757TIP3   OH244213   3.574   5.898   6.456
14757TIP3    H144214   3.617   5.857   6.531
14757TIP3    H244215   3.643   5.948   6.413
14758TIP3   OH244216   4.597   4.582   0.989
14758TIP3    H144217   4.537   4.644   1.031
14758TIP3    H244218   4.539   4.518   0.947
14759TIP3   OH244219   7.347   1.515   5.590
14759TIP3    H144220   7.265   1.513   5.638
14759TIP3    H244221   7.396   1.440   5.623
14760TIP3   OH244222   7.497   1.589   1.720
14760TIP3    H144223   7.454   1.674   1.716
14760TIP3    H244224   7.437   1.530   1.675
14761TIP3   OH244225   5.821   1.875   3.601
14761TIP3    H144226   5.825   1.906   3.692
14761TIP3    H244227   5.728   1.863   3.584
14762TIP3   OH244228   0.464   1.520   6.411
14762TIP3    H144229   0.522   1.451   6.442
14762TIP3    H244230   0.522   1.595   6.398
14763TIP3   OH244231   4.607   3.291   5.784
14763TIP3    H144232   4.588   3.368   5.730
14763TIP3    H244233   4.530   3.235   5.773
14764TIP3   OH244234   3.495   2.334   4.469
14764TIP3    H144235   3.502   2.320   4.374
14764TIP3    H244236   3.528   2.423   4.482
14765TIP3   OH244237   3.454   0.813   4.011
14765TIP3    H144238   3.367   0.803   4.051
14765TIP3    H244239   3.437   0.855   3.926
14766TIP3   OH244240   2.571   7.153   1.625
14766TIP3    H144241   2.553   7.246   1.625
14766TIP3    H244242   2.566   7.126   1.533
14767TIP3   OH244243   2.907   4.847   0.357
14767TIP3    H144244   2.955   4.768   0.382
14767TIP3    H244245   2.926   4.909   0.426
14768TIP3   OH244246  -0.074   4.691   3.803
14768TIP3    H144247  -0.089   4.730   3.889
14768TIP3    H244248   0.012   4.650   3.809
14769TIP3   OH244249   7.391   1.468   6.696
14769TIP3    H144250   7.350   1.384   6.717
14769TIP3    H244251   7.467   1.445   6.642
14770TIP3   OH244252   1.337   6.928   3.657
14770TIP3    H144253   1.280   6.992   3.700
14770TIP3    H244254   1.277   6.859   3.629
14771TIP3   OH244255   4.208   4.804   3.886
14771TIP3    H144256   4.115   4.783   3.894
14771TIP3    H244257   4.217   4.887   3.933
14772TIP3   OH244258   6.257   5.264   4.013
14772TIP3    H144259   6.201   5.332   4.050
14772TIP3    H244260   6.257   5.194   4.078
14773TIP3   OH244261   1.406   6.750   5.621
14773TIP3    H144262   1.437   6.793   5.701
14773TIP3    H244263   1.317   6.722   5.642
14774TIP3   OH244264   4.375   7.345   1.586
14774TIP3    H144265   4.280   7.347   1.578
14774TIP3    H244266   4.406   7.419   1.533
14775TIP3   OH244267   4.388   4.406   2.304
14775TIP3    H144268   4.434   4.339   2.354
14775TIP3    H244269   4.357   4.360   2.226
14776TIP3   OH244270   6.291   5.249   0.117
14776TIP3    H144271   6.303   5.171   0.171
14776TIP3    H244272   6.379   5.284   0.104
14777TIP3   OH244273   4.068   1.354   0.981
14777TIP3    H144274   3.988   1.372   1.031
14777TIP3    H244275   4.040   1.293   0.913
14778TIP3   OH244276   8.233   5.678   6.117
14778TIP3    H144277   8.261   5.714   6.033
14778TIP3    H244278   8.171   5.609   6.094
14779TIP3   OH244279   7.406   1.581   0.944
14779TIP3    H144280   7.331   1.530   0.915
14779TIP3    H244281   7.389   1.598   1.037
14780TIP3   OH244282   7.331   0.981   6.656
14780TIP3    H144283   7.369   0.894   6.651
14780TIP3    H244284   7.300   0.999   6.567
14781TIP3   OH244285   5.968   6.710   5.389
14781TIP3    H144286   6.033   6.772   5.355
14781TIP3    H244287   5.890   6.725   5.334
14782TIP3   OH244288   7.065   5.840   3.171
14782TIP3    H144289   6.990   5.857   3.114
14782TIP3    H244290   7.051   5.898   3.247
14783TIP3   OH244291   4.975   3.254   4.288
14783TIP3    H144292   4.902   3.200   4.320
14783TIP3    H244293   5.015   3.289   4.368
14784TIP3   OH244294   6.356   5.196   6.579
14784TIP3    H144295   6.436   5.225   6.623
14784TIP3    H244296   6.330   5.118   6.626
14785TIP3   OH244297   1.846   3.753   5.635
14785TIP3    H144298   1.859   3.814   5.562
14785TIP3    H244299   1.902   3.678   5.613
14786TIP3   OH244300   1.781   1.305   0.681
14786TIP3    H144301   1.858   1.362   0.678
14786TIP3    H244302   1.744   1.321   0.768
14787TIP3   OH244303   4.806   6.887   3.800
14787TIP3    H144304   4.866   6.821   3.765
14787TIP3    H244305   4.863   6.960   3.825
14788TIP3   OH244306   0.070   7.708   0.321
14788TIP3    H144307  -0.021   7.728   0.299
14788TIP3    H244308   0.104   7.662   0.243
14789TIP3   OH244309   4.780   4.165   2.371
14789TIP3    H144310   4.733   4.153   2.288
14789TIP3    H244311   4.872   4.161   2.346
14790TIP3   OH244312   2.832   0.758   5.669
14790TIP3    H144313   2.866   0.809   5.595
14790TIP3    H244314   2.798   0.678   5.629
14791TIP3   OH244315   7.525   7.631   3.882
14791TIP3    H144316   7.464   7.560   3.902
14791TIP3    H244317   7.538   7.676   3.965
14792TIP3   OH244318   4.784   4.616   5.001
14792TIP3    H144319   4.861   4.560   5.011
14792TIP3    H244320   4.820   4.704   4.985
14793TIP3   OH244321   4.451   4.505   1.937
14793TIP3    H144322   4.434   4.464   1.853
14793TIP3    H244323   4.385   4.469   1.996
14794TIP3   OH244324   7.221   1.858   5.155
14794TIP3    H144325   7.227   1.848   5.250
14794TIP3    H244326   7.192   1.948   5.142
14795TIP3   OH244327   8.252   6.159   5.150
14795TIP3    H144328   8.321   6.195   5.094
14795TIP3    H244329   8.234   6.228   5.214
14796TIP3   OH244330   6.363   4.579   0.815
14796TIP3    H144331   6.400   4.526   0.885
14796TIP3    H244332   6.308   4.518   0.766
14797TIP3   OH244333   4.406   5.028   6.539
14797TIP3    H144334   4.431   5.116   6.509
14797TIP3    H244335   4.467   4.969   6.495
14798TIP3   OH244336   4.678   6.410   2.520
14798TIP3    H144337   4.756   6.386   2.470
14798TIP3    H244338   4.697   6.381   2.609
14799TIP3   OH244339   1.866   2.849   2.533
14799TIP3    H144340   1.875   2.808   2.619
14799TIP3    H244341   1.854   2.942   2.552
14800TIP3   OH244342   2.209   7.004   4.175
14800TIP3    H144343   2.238   6.977   4.262
14800TIP3    H244344   2.131   7.058   4.192
14801TIP3   OH244345   6.562   4.160   0.040
14801TIP3    H144346   6.656   4.145   0.035
14801TIP3    H244347   6.530   4.092   0.099
14802TIP3   OH244348   2.467   6.762   0.915
14802TIP3    H144349   2.394   6.802   0.867
14802TIP3    H244350   2.540   6.765   0.853
14803TIP3   OH244351   2.102   1.686   1.414
14803TIP3    H144352   2.164   1.759   1.419
14803TIP3    H244353   2.143   1.625   1.353
14804TIP3   OH244354   2.881   6.287   6.301
14804TIP3    H144355   2.962   6.237   6.293
14804TIP3    H244356   2.830   6.240   6.366
14805TIP3   OH244357   3.568   7.869   1.145
14805TIP3    H144358   3.539   7.837   1.059
14805TIP3    H244359   3.624   7.799   1.179
14806TIP3   OH244360   6.765   5.224   4.457
14806TIP3    H144361   6.851   5.241   4.495
14806TIP3    H244362   6.772   5.136   4.421
14807TIP3   OH244363   0.575   0.209   4.620
14807TIP3    H144364   0.637   0.242   4.555
14807TIP3    H244365   0.513   0.156   4.570
14808TIP3   OH244366   6.635   3.724   0.525
14808TIP3    H144367   6.567   3.657   0.525
14808TIP3    H244368   6.688   3.704   0.447
14809TIP3   OH244369   5.910   7.047   4.676
14809TIP3    H144370   5.986   6.990   4.687
14809TIP3    H244371   5.944   7.124   4.631
14810TIP3   OH244372   3.951   4.079   0.617
14810TIP3    H144373   3.982   4.052   0.531
14810TIP3    H244374   3.975   4.007   0.675
14811TIP3   OH244375   6.125   3.389   2.556
14811TIP3    H144376   6.078   3.454   2.608
14811TIP3    H244377   6.156   3.325   2.620
14812TIP3   OH244378   1.355   2.880   1.281
14812TIP3    H144379   1.433   2.933   1.296
14812TIP3    H244380   1.284   2.930   1.322
14813TIP3   OH244381   6.277   2.129   2.904
14813TIP3    H144382   6.352   2.139   2.846
14813TIP3    H244383   6.271   2.034   2.919
14814TIP3   OH244384   6.438   6.999   4.833
14814TIP3    H144385   6.515   6.999   4.775
14814TIP3    H244386   6.472   7.034   4.916
14815TIP3   OH244387   3.950   0.274   1.138
14815TIP3    H144388   3.874   0.317   1.099
14815TIP3    H244389   3.962   0.194   1.087
   8.29246   7.81821   6.77077   0.00000   0.00000  -2.76415   0.00000  -2.76415  -3.90911
