Title
  171
    1GLY      N    1   1.814   5.190   1.134  0.7854  0.8131 -0.2565
    1GLY    HT1    2   1.831   5.292   1.142  1.8504  0.6132  0.2176
    1GLY    HT2    3   1.836   5.166   1.035 -0.1519 -0.7756 -0.1067
    1GLY    HT3    4   1.889   5.149   1.193  0.4985 -2.9906 -2.1667
    1GLY     CA    5   1.666   5.166   1.179  0.2105  0.1638  0.3306
    1GLY    HA1    6   1.654   5.063   1.148  1.9094 -0.1151  0.4721
    1GLY    HA2    7   1.600   5.238   1.135 -0.0567 -0.4794 -0.3282
    1GLY      C    8   1.647   5.179   1.328 -0.1381 -0.4974 -0.0006
    1GLY      O    9   1.738   5.219   1.404  0.3694 -0.0768  0.1296
    2PRO      N   10   1.534   5.141   1.376 -0.2215  0.6401  0.6462
    2PRO     CD   11   1.418   5.111   1.293  0.4964  0.5907 -0.3554
    2PRO    HD1   12   1.442   5.045   1.207  0.2165  0.2858 -0.2006
    2PRO    HD2   13   1.386   5.209   1.250  0.5807  0.7023 -0.1633
    2PRO     CA   14   1.502   5.138   1.516  0.2276 -0.5232  0.0788
    2PRO     HA   15   1.481   5.240   1.543 -0.2365 -1.1698  2.2894
    2PRO     CB   16   1.374   5.051   1.522  0.4587  0.6394  0.3117
    2PRO    HB1   17   1.317   5.084   1.611 -1.0049  2.1782 -1.1353
    2PRO    HB2   18   1.403   4.947   1.546  0.6741  0.8753  1.1058
    2PRO     CG   19   1.309   5.066   1.390  0.3951  0.2385  0.5332
    2PRO    HG1   20   1.262   4.971   1.355  0.6188 -0.2720  1.5886
    2PRO    HG2   21   1.233   5.147   1.389 -0.5121 -0.5852 -0.4457
    2PRO      C   22   1.605   5.096   1.619  0.1207 -0.0603 -0.0141
    2PRO      O   23   1.672   4.991   1.598 -0.0587 -0.1643 -0.6952
    3GLY      N   24   1.632   5.176   1.722 -0.2887 -0.2805 -0.2014
    3GLY     HN   25   1.571   5.254   1.732 -0.7172 -0.1905 -2.9136
    3GLY     CA   26   1.722   5.145   1.831 -0.8054  0.1801  0.2455
    3GLY    HA1   27   1.759   5.044   1.824  1.0614  0.8668 -0.7045
    3GLY    HA2   28   1.674   5.176   1.923  0.2343  0.2922  0.7758
    3GLY      C   29   1.851   5.225   1.820 -0.1611 -0.0986 -0.0436
    3GLY      O   30   1.966   5.191   1.850 -0.6357  0.2608  0.2729
    4ASN      N   31   1.837   5.353   1.776  1.2400  0.4684  0.0116
    4ASN     HN   32   1.744   5.384   1.759  1.0213 -0.8628 -1.3688
    4ASN     CA   33   1.947   5.441   1.749 -0.2406  0.2353 -0.3827
    4ASN     HA   34   2.027   5.386   1.701 -1.0268 -0.6663 -0.6747
    4ASN     CB   35   1.890   5.551   1.663  0.7373 -0.1941  0.5986
    4ASN    HB1   36   1.813   5.618   1.707  0.6744 -0.2187  0.5266
    4ASN    HB2   37   1.839   5.501   1.578 -1.6806 -0.3941  2.0798
    4ASN     CG   38   1.995   5.642   1.615  0.0551  0.4807 -0.2193
    4ASN    OD1   39   2.017   5.751   1.671  0.2977  0.1301  0.0236
    4ASN    ND2   40   2.073   5.600   1.511  0.0283 -0.6553  0.1063
    4ASN   HD21   41   2.157   5.641   1.475  0.1368 -0.0384  1.0221
    4ASN   HD22   42   2.039   5.515   1.471  3.3347 -2.3026  0.4820
    4ASN      C   43   2.004   5.508   1.877  0.7938 -0.5341  0.3432
    4ASN      O   44   1.918   5.534   1.964  0.0514 -0.1365  0.4200
    5PRO      N   45   2.133   5.530   1.901 -0.5830  0.4001 -0.4611
    5PRO     CD   46   2.244   5.497   1.814  0.1710 -0.4330  0.0433
    5PRO    HD1   47   2.258   5.584   1.746 -0.9948  2.1649  2.8693
    5PRO    HD2   48   2.229   5.397   1.768  0.4273 -0.0157 -0.9764
    5PRO     CA   49   2.174   5.567   2.030 -0.1906  0.7778 -0.0104
    5PRO     HA   50   2.098   5.547   2.105 -1.4631  2.7481 -0.7083
    5PRO     CB   51   2.300   5.475   2.044 -0.4644 -0.4933  0.1750
    5PRO    HB1   52   2.263   5.370   2.053  1.0716 -1.3376 -2.4684
    5PRO    HB2   53   2.352   5.510   2.136 -1.6231 -0.8928  1.0174
    5PRO     CG   54   2.364   5.511   1.912 -0.2548  0.2890  0.1940
    5PRO    HG1   55   2.416   5.609   1.919 -0.9612  0.5606  2.4497
    5PRO    HG2   56   2.433   5.433   1.873  1.6857  2.4011 -0.8313
    5PRO      C   57   2.203   5.718   2.033  0.4501  0.0364 -0.5015
    5PRO      O   58   2.272   5.765   2.127 -1.1159  0.8798 -0.2960
    6GLY      N   59   2.141   5.805   1.953  0.8591  0.4103  0.7238
    6GLY     HN   60   2.080   5.770   1.882 -1.2594  2.0059  1.6413
    6GLY     CA   61   2.174   5.945   1.953 -0.6870 -0.2467  0.3184
    6GLY    HA1   62   2.169   5.981   2.055 -1.3644  1.4099 -0.2696
    6GLY    HA2   63   2.099   5.987   1.888 -0.4260 -0.9062 -0.4180
    6GLY      C   64   2.312   5.983   1.897 -0.4947  0.3473 -0.4201
    6GLY      O   65   2.388   5.891   1.861  0.7272 -0.1158 -0.0521
    7PRO      N   66   2.354   6.112   1.894  0.3982 -0.3389  0.0340
    7PRO     CD   67   2.254   6.216   1.923 -0.4880 -0.4529  0.6840
    7PRO    HD1   68   2.240   6.226   2.032 -1.2002  1.1316  0.4749
    7PRO    HD2   69   2.154   6.204   1.875 -0.3698 -2.8406  0.9130
    7PRO     CA   70   2.486   6.167   1.878  0.3875  0.1890  0.4378
    7PRO     HA   71   2.504   6.144   1.774 -1.1573 -1.3363  0.4682
    7PRO     CB   72   2.470   6.313   1.922 -0.4634 -0.1835 -0.0463
    7PRO    HB1   73   2.541   6.382   1.872  0.2555  1.0538  2.5146
    7PRO    HB2   74   2.478   6.324   2.032  0.2227  0.0247 -0.1126
    7PRO     CG   75   2.326   6.347   1.883  0.5720  0.4920  0.4816
    7PRO    HG1   76   2.284   6.438   1.930 -0.0497  0.4122  0.0814
    7PRO    HG2   77   2.327   6.360   1.773  0.8452  1.3978  0.5762
    7PRO      C   78   2.596   6.100   1.953 -0.3392 -0.0656  1.2917
    7PRO      O   79   2.568   6.047   2.059 -0.2280  0.7044  0.6366
    8GLY      N   80   2.717   6.092   1.902 -0.0931 -0.1239  0.4176
    8GLY     HN   81   2.742   6.141   1.819  1.0086  1.1251  1.4464
    8GLY     CA   82   2.825   6.011   1.971  0.3794  0.2749 -0.2562
    8GLY    HA1   83   2.897   5.983   1.896  0.2539  1.7203 -0.9533
    8GLY    HA2   84   2.781   5.926   2.020  0.1013  0.8498  0.5198
    8GLY      C   85   2.899   6.098   2.077 -0.3427  0.0757 -0.7280
    8GLY      O   86   2.892   6.219   2.077  0.0731 -0.2198 -0.7824
    9ASN      N   87   2.977   6.028   2.163  0.1147 -0.2093  0.1769
    9ASN     HN   88   2.996   5.931   2.149  1.4475 -0.0530  0.7086
    9ASN     CA   89   3.059   6.096   2.264  0.9645  0.2039 -0.1779
    9ASN     HA   90   3.004   6.179   2.307 -0.3053 -0.8748  0.3479
    9ASN     CB   91   3.094   5.998   2.378  0.2925 -0.2118 -0.1306
    9ASN    HB1   92   3.135   6.058   2.463 -0.9189 -0.6756  0.8043
    9ASN    HB2   93   3.178   5.935   2.341  0.5765  0.2577 -0.2854
    9ASN     CG   94   2.977   5.909   2.425 -0.6219 -0.4454 -0.7520
    9ASN    OD1   95   2.983   5.787   2.408 -0.2815  0.4110 -0.3962
    9ASN    ND2   96   2.874   5.965   2.495 -0.7981  0.4855  0.4827
    9ASN   HD21   97   2.800   5.907   2.529 -0.8681 -0.4794 -1.2046
    9ASN   HD22   98   2.870   6.065   2.487 -3.0965  0.3358 -1.9465
    9ASN      C   99   3.184   6.146   2.192  0.1701  0.1378 -0.3130
    9ASN      O  100   3.221   6.089   2.089 -0.8251  0.0325 -0.3802
   10PRO      N  101   3.246   6.251   2.240  0.0244 -0.2101  0.5899
   10PRO     CD  102   3.220   6.302   2.374 -0.1520  0.0446  0.3124
   10PRO    HD1  103   3.250   6.225   2.448  1.8861  0.8994  0.4493
   10PRO    HD2  104   3.115   6.336   2.387  0.5595  1.9043  1.6501
   10PRO     CA  105   3.321   6.345   2.160 -0.1989 -0.0338 -0.0078
   10PRO     HA  106   3.249   6.380   2.087 -2.6446 -1.7047  1.4467
   10PRO     CB  107   3.351   6.469   2.253  0.7124  0.7265 -0.0324
   10PRO    HB1  108   3.290   6.561   2.241  1.5253  1.2418 -0.2751
   10PRO    HB2  109   3.458   6.497   2.254  1.2612 -1.2676  0.3364
   10PRO     CG  110   3.323   6.415   2.395  0.1928  0.2374 -0.0294
   10PRO    HG1  111   3.411   6.357   2.430  1.0157 -0.7767 -3.4021
   10PRO    HG2  112   3.290   6.485   2.474  1.3542  1.9227 -0.9769
   10PRO      C  113   3.447   6.285   2.105  0.8805  0.6292  0.5799
   10PRO      O  114   3.485   6.327   1.995 -0.3680 -0.6609 -0.0310
   11GLY      N  115   3.523   6.193   2.169  0.6119  0.2038  0.6327
   11GLY     HN  116   3.481   6.149   2.248 -0.0116  0.5069  0.4750
   11GLY     CA  117   3.642   6.135   2.118  0.2626 -0.0425 -0.4296
   11GLY    HA1  118   3.706   6.128   2.205 -0.1189 -0.8331 -0.2050
   11GLY    HA2  119   3.680   6.202   2.042 -0.0318  1.6163  0.8110
   11GLY      C  120   3.602   6.001   2.060  0.4970 -0.0359 -0.2007
   11GLY      O  121   3.496   5.989   1.997 -0.0520  0.5039  0.6563
   12PRO      N  122   3.678   5.900   2.069  0.1576 -0.1503  0.2055
   12PRO     CD  123   3.811   5.914   2.125 -0.1322  0.2782 -0.8170
   12PRO    HD1  124   3.814   5.941   2.233  1.4640  1.7838 -1.1848
   12PRO    HD2  125   3.880   5.979   2.067 -1.3781  1.5204 -0.9256
   12PRO     CA  126   3.642   5.761   2.018  0.1071 -0.1751  0.1100
   12PRO     HA  127   3.589   5.766   1.924  1.4920  1.2308 -0.6320
   12PRO     CB  128   3.784   5.704   2.012 -0.7851  0.1580 -0.7630
   12PRO    HB1  129   3.824   5.738   1.914 -1.1034  2.5384 -0.1244
   12PRO    HB2  130   3.790   5.593   2.011  0.2766  0.1631  1.2444
   12PRO     CG  131   3.864   5.773   2.130 -0.6432 -0.5900  0.2566
   12PRO    HG1  132   3.829   5.719   2.221 -2.4394  0.4298  0.2085
   12PRO    HG2  133   3.975   5.766   2.124 -0.4012  2.0172  0.7102
   12PRO      C  134   3.563   5.689   2.122 -0.0219  0.5097 -0.8336
   12PRO      O  135   3.597   5.579   2.161  0.1185  0.1043 -0.0638
   13GLY      N  136   3.461   5.751   2.172 -0.2297  0.3985 -0.5157
   13GLY     HN  137   3.454   5.843   2.133 -0.9775  0.3291 -0.5461
   13GLY     CA  138   3.375   5.711   2.282 -0.5184  0.4404 -0.0507
   13GLY    HA1  139   3.296   5.645   2.249 -0.7160 -0.1426  1.4762
   13GLY    HA2  140   3.336   5.803   2.324  1.5298 -0.1443  3.5479
   13GLY      C  141   3.441   5.640   2.397 -0.2846  0.3557 -0.2931
   13GLY      O  142   3.539   5.679   2.454  0.6173 -0.1040 -0.0656
   14ASN      N  143   3.377   5.526   2.437  0.2558 -0.3558 -0.0422
   14ASN     HN  144   3.290   5.494   2.399  0.0597  0.6287 -0.4524
   14ASN     CA  145   3.424   5.445   2.549  0.1431 -0.6475 -0.3418
   14ASN     HA  146   3.532   5.447   2.547  0.1547 -1.1670 -2.4465
   14ASN     CB  147   3.357   5.489   2.680 -0.4965 -0.7081 -0.0641
   14ASN    HB1  148   3.362   5.410   2.759 -0.6316 -1.3840 -0.7146
   14ASN    HB2  149   3.249   5.503   2.657 -0.7429 -0.2743  1.2589
   14ASN     CG  150   3.421   5.613   2.753  0.5015  0.3392  1.2401
   14ASN    OD1  151   3.345   5.710   2.768 -0.0582  0.0022 -0.2797
   14ASN    ND2  152   3.557   5.615   2.772  0.1497  0.8887  0.0385
   14ASN   HD21  153   3.585   5.695   2.826 -0.1945  0.0674  1.4649
   14ASN   HD22  154   3.616   5.534   2.775  2.5703  2.5666  2.3323
   14ASN      C  155   3.387   5.299   2.513  0.2145 -0.3399  0.1367
   14ASN      O  156   3.291   5.278   2.437  0.0887  0.5114  0.1544
   15PRO      N  157   3.449   5.200   2.571  0.2326  0.0511 -0.6528
   15PRO     CD  158   3.583   5.194   2.633 -0.0135 -0.3490 -0.3760
   15PRO    HD1  159   3.576   5.222   2.740  2.5309 -0.8533 -0.0095
   15PRO    HD2  160   3.653   5.267   2.587  0.0676 -1.1035 -1.4967
   15PRO     CA  161   3.397   5.065   2.539  0.1019 -0.3673 -0.4513
   15PRO     HA  162   3.386   5.060   2.431  1.5090 -2.5489 -0.5648
   15PRO     CB  163   3.503   4.972   2.597 -0.3629  0.0568  0.1149
   15PRO    HB1  164   3.516   4.881   2.534 -0.1014  0.5695 -0.5856
   15PRO    HB2  165   3.482   4.948   2.703 -3.4066  2.3697  0.1576
   15PRO     CG  166   3.633   5.055   2.605  0.4380  0.6828 -0.1603
   15PRO    HG1  167   3.697   5.018   2.688 -0.8871  1.0864  1.0900
   15PRO    HG2  168   3.695   5.052   2.513 -1.9587  0.5646 -1.8312
   15PRO      C  169   3.257   5.034   2.602  0.0918  0.7423 -0.0413
   15PRO    OT1  170   3.162   4.998   2.528 -0.3429 -0.0478 -0.0239
   15PRO    OT2  171   3.239   5.035   2.725 -0.0114  0.0327  0.0608
   8.29868   7.82408   6.77585   0.00000   0.00000  -2.76622   0.00000  -2.76622  -3.91204
