Title t= 19330.00000 step= 9665000
44469
    1GLY      N    1   5.119   5.870   3.543
    1GLY    HT1    2   5.141   5.916   3.452
    1GLY    HT2    3   5.189   5.805   3.584
    1GLY    HT3    4   5.097   5.943   3.613
    1GLY     CA    5   5.001   5.786   3.516
    1GLY    HA1    6   5.041   5.690   3.488
    1GLY    HA2    7   4.942   5.830   3.437
    1GLY      C    8   4.915   5.768   3.640
    1GLY      O    9   4.952   5.826   3.741
    2PRO      N   10   4.806   5.696   3.642
    2PRO     CD   11   4.748   5.636   3.522
    2PRO    HD1   12   4.820   5.569   3.470
    2PRO    HD2   13   4.713   5.714   3.451
    2PRO     CA   14   4.714   5.697   3.763
    2PRO     HA   15   4.693   5.798   3.794
    2PRO     CB   16   4.586   5.620   3.712
    2PRO    HB1   17   4.516   5.704   3.689
    2PRO    HB2   18   4.545   5.541   3.778
    2PRO     CG   19   4.630   5.558   3.580
    2PRO    HG1   20   4.673   5.458   3.605
    2PRO    HG2   21   4.550   5.543   3.504
    2PRO      C   22   4.776   5.630   3.886
    2PRO      O   23   4.716   5.637   3.994
    3GLY      N   24   4.890   5.562   3.884
    3GLY     HN   25   4.936   5.546   3.797
    3GLY     CA   26   4.962   5.511   3.998
    3GLY    HA1   27   5.025   5.436   3.954
    3GLY    HA2   28   4.900   5.451   4.064
    3GLY      C   29   5.044   5.613   4.078
    3GLY      O   30   5.089   5.580   4.191
    4ASN      N   31   5.067   5.733   4.025
    4ASN     HN   32   5.020   5.756   3.940
    4ASN     CA   33   5.144   5.837   4.089
    4ASN     HA   34   5.152   5.803   4.191
    4ASN     CB   35   5.273   5.859   4.015
    4ASN    HB1   36   5.334   5.939   4.063
    4ASN    HB2   37   5.268   5.883   3.906
    4ASN     CG   38   5.353   5.738   4.021
    4ASN    OD1   39   5.402   5.673   3.926
    4ASN    ND2   40   5.379   5.685   4.147
    4ASN   HD21   41   5.451   5.618   4.165
    4ASN   HD22   42   5.341   5.727   4.229
    4ASN      C   43   5.072   5.969   4.096
    4ASN      O   44   4.979   5.979   4.020
    5PRO      N   45   5.112   6.062   4.177
    5PRO     CD   46   5.163   6.035   4.313
    5PRO    HD1   47   5.269   6.005   4.318
    5PRO    HD2   48   5.098   5.960   4.363
    5PRO     CA   49   5.093   6.210   4.152
    5PRO     HA   50   4.990   6.239   4.162
    5PRO     CB   51   5.172   6.277   4.264
    5PRO    HB1   52   5.122   6.374   4.281
    5PRO    HB2   53   5.282   6.286   4.248
    5PRO     CG   54   5.155   6.174   4.384
    5PRO    HG1   55   5.236   6.194   4.457
    5PRO    HG2   56   5.056   6.196   4.430
    5PRO      C   57   5.118   6.257   4.008
    5PRO      O   58   5.218   6.218   3.944
    6GLY      N   59   5.028   6.346   3.952
    6GLY     HN   60   4.946   6.364   4.004
    6GLY     CA   61   5.050   6.420   3.836
    6GLY    HA1   62   4.964   6.486   3.831
    6GLY    HA2   63   5.063   6.347   3.758
    6GLY      C   64   5.173   6.507   3.844
    6GLY      O   65   5.239   6.511   3.944
    7PRO      N   66   5.216   6.583   3.738
    7PRO     CD   67   5.175   6.561   3.596
    7PRO    HD1   68   5.071   6.590   3.571
    7PRO    HD2   69   5.196   6.455   3.569
    7PRO     CA   70   5.318   6.679   3.746
    7PRO     HA   71   5.412   6.632   3.771
    7PRO     CB   72   5.315   6.742   3.602
    7PRO    HB1   73   5.411   6.781   3.564
    7PRO    HB2   74   5.250   6.832   3.597
    7PRO     CG   75   5.275   6.633   3.506
    7PRO    HG1   76   5.220   6.667   3.415
    7PRO    HG2   77   5.367   6.573   3.491
    7PRO      C   78   5.308   6.784   3.857
    7PRO      O   79   5.195   6.816   3.899
    8GLY      N   80   5.418   6.836   3.907
    8GLY     HN   81   5.504   6.826   3.857
    8GLY     CA   82   5.429   6.925   4.025
    8GLY    HA1   83   5.373   7.012   3.995
    8GLY    HA2   84   5.532   6.956   4.038
    8GLY      C   85   5.379   6.876   4.163
    8GLY      O   86   5.337   6.761   4.174
    9ASN      N   87   5.385   6.955   4.269
    9ASN     HN   88   5.431   7.041   4.251
    9ASN     CA   89   5.336   6.927   4.404
    9ASN     HA   90   5.384   6.834   4.431
    9ASN     CB   91   5.366   7.036   4.507
    9ASN    HB1   92   5.334   7.024   4.612
    9ASN    HB2   93   5.316   7.129   4.471
    9ASN     CG   94   5.515   7.053   4.518
    9ASN    OD1   95   5.559   7.152   4.580
    9ASN    ND2   96   5.606   6.963   4.492
    9ASN   HD21   97   5.701   6.976   4.518
    9ASN   HD22   98   5.575   6.873   4.461
    9ASN      C   99   5.184   6.905   4.411
    9ASN      O  100   5.114   6.995   4.369
   10PRO      N  101   5.124   6.788   4.460
   10PRO     CD  102   5.201   6.666   4.502
   10PRO    HD1  103   5.272   6.691   4.584
   10PRO    HD2  104   5.267   6.639   4.417
   10PRO     CA  105   4.978   6.776   4.497
   10PRO     HA  106   4.918   6.764   4.408
   10PRO     CB  107   4.971   6.643   4.574
   10PRO    HB1  108   4.883   6.582   4.542
   10PRO    HB2  109   4.965   6.665   4.682
   10PRO     CG  110   5.098   6.558   4.540
   10PRO    HG1  111   5.119   6.500   4.632
   10PRO    HG2  112   5.082   6.488   4.455
   10PRO      C  113   4.910   6.897   4.559
   10PRO      O  114   4.973   6.959   4.646
   11GLY      N  115   4.790   6.946   4.516
   11GLY     HN  116   4.739   6.895   4.447
   11GLY     CA  117   4.726   7.059   4.579
   11GLY    HA1  118   4.654   7.097   4.508
   11GLY    HA2  119   4.799   7.130   4.617
   11GLY      C  120   4.654   7.019   4.705
   11GLY      O  121   4.667   6.905   4.756
   12PRO      N  122   4.574   7.120   4.763
   12PRO     CD  123   4.561   7.252   4.708
   12PRO    HD1  124   4.525   7.246   4.603
   12PRO    HD2  125   4.655   7.310   4.712
   12PRO     CA  126   4.482   7.103   4.884
   12PRO     HA  127   4.539   7.110   4.975
   12PRO     CB  128   4.386   7.226   4.864
   12PRO    HB1  129   4.344   7.257   4.962
   12PRO    HB2  130   4.295   7.198   4.808
   12PRO     CG  131   4.478   7.337   4.804
   12PRO    HG1  132   4.405   7.404   4.755
   12PRO    HG2  133   4.531   7.388   4.888
   12PRO      C  134   4.414   6.966   4.888
   12PRO      O  135   4.358   6.915   4.790
   13GLY      N  136   4.418   6.898   5.008
   13GLY     HN  137   4.460   6.940   5.088
   13GLY     CA  138   4.346   6.768   5.017
   13GLY    HA1  139   4.254   6.779   4.961
   13GLY    HA2  140   4.332   6.753   5.123
   13GLY      C  141   4.417   6.651   4.964
   13GLY      O  142   4.540   6.647   4.938
   14ASN      N  143   4.345   6.535   4.951
   14ASN     HN  144   4.253   6.526   4.988
   14ASN     CA  145   4.390   6.421   4.880
   14ASN     HA  146   4.495   6.411   4.902
   14ASN     CB  147   4.311   6.287   4.915
   14ASN    HB1  148   4.365   6.197   4.879
   14ASN    HB2  149   4.218   6.292   4.855
   14ASN     CG  150   4.284   6.272   5.061
   14ASN    OD1  151   4.183   6.317   5.113
   14ASN    ND2  152   4.371   6.194   5.123
   14ASN   HD21  153   4.361   6.186   5.222
   14ASN   HD22  154   4.450   6.162   5.071
   14ASN      C  155   4.393   6.449   4.731
   14ASN      O  156   4.299   6.521   4.687
   15PRO      N  157   4.493   6.399   4.650
   15PRO     CD  158   4.618   6.335   4.688
   15PRO    HD1  159   4.594   6.260   4.766
   15PRO    HD2  160   4.686   6.418   4.717
   15PRO     CA  161   4.479   6.426   4.509
   15PRO     HA  162   4.446   6.526   4.485
   15PRO     CB  163   4.627   6.399   4.464
   15PRO    HB1  164   4.687   6.491   4.482
   15PRO    HB2  165   4.633   6.372   4.356
   15PRO     CG  166   4.674   6.285   4.559
   15PRO    HG1  167   4.619   6.191   4.538
   15PRO    HG2  168   4.782   6.258   4.562
   15PRO      C  169   4.374   6.325   4.449
   15PRO    OT1  170   4.335   6.337   4.334
   15PRO    OT2  171   4.340   6.228   4.525
   16LIT    LIT  172   0.173   3.912   2.820
   17LIT    LIT  173   1.449   5.931   0.027
   18LIT    LIT  174   5.008   2.631   5.390
   19LIT    LIT  175   1.142   6.849   4.075
   20LIT    LIT  176   2.170   1.644   3.695
   21LIT    LIT  177   0.917   7.520   5.615
   22LIT    LIT  178   6.072   7.215   3.680
   23LIT    LIT  179   4.500   2.048   3.563
   24LIT    LIT  180   4.700   4.594   4.332
   25LIT    LIT  181   7.838   7.471   5.390
   26LIT    LIT  182   5.986   6.703   0.993
   27LIT    LIT  183   2.281   5.224   1.651
   28LIT    LIT  184   0.314   4.849   6.218
   29LIT    LIT  185   2.662   7.354   0.267
   30LIT    LIT  186   4.099   0.968   3.475
   31LIT    LIT  187   8.068   2.290   1.041
   32LIT    LIT  188   5.269   0.364   2.703
   33LIT    LIT  189   2.135   5.682   4.919
   34LIT    LIT  190   0.695   1.631   1.577
   35LIT    LIT  191   5.609   4.325   2.574
   36LIT    LIT  192   3.197   1.215   6.550
   37LIT    LIT  193   1.732   2.003   6.305
   38LIT    LIT  194   2.070   2.613   3.010
   39LIT    LIT  195   3.442   7.419   4.582
   40LIT    LIT  196   4.566   7.757   5.651
   41LIT    LIT  197   1.788   4.204   6.303
   42LIT    LIT  198   5.515   6.173   0.358
   43LIT    LIT  199   4.247   6.179   4.354
   44LIT    LIT  200   5.224   5.446   4.613
   45LIT    LIT  201   0.136   0.280   0.067
   46LIT    LIT  202   2.462   0.465   1.539
   47LIT    LIT  203   7.653   4.245   5.654
   48LIT    LIT  204   2.757   7.451   0.790
   49LIT    LIT  205   8.285   0.411   4.702
   50LIT    LIT  206   5.061   4.357   1.537
   51LIT    LIT  207   4.996   0.842   2.065
   52LIT    LIT  208   6.065   3.768   1.113
   53LIT    LIT  209   7.770   6.162   0.675
   54LIT    LIT  210   4.449   6.698   0.949
   55LIT    LIT  211   2.552   2.950   0.891
   56LIT    LIT  212   6.262   0.487   6.275
   57LIT    LIT  213   7.393   4.135   4.676
   58CLA    CLA  214   3.402   4.671   2.681
   59CLA    CLA  215   0.421   6.261   0.383
   60CLA    CLA  216   0.248   2.116   2.453
   61CLA    CLA  217   3.590   1.275   3.200
   62CLA    CLA  218   6.304   5.415   0.543
   63CLA    CLA  219   0.344   7.463   4.364
   64CLA    CLA  220   7.002   1.174   2.003
   65CLA    CLA  221   8.287   7.282   0.314
   66CLA    CLA  222   6.493   5.308   0.105
   67CLA    CLA  223   6.882   2.747   2.714
   68CLA    CLA  224   1.214   4.497   0.116
   69CLA    CLA  225   0.446   5.529   5.970
   70CLA    CLA  226   1.875   7.093   4.888
   71CLA    CLA  227   7.358   3.939   4.537
   72CLA    CLA  228   6.560   4.758   2.618
   73CLA    CLA  229   8.114   4.303   2.502
   74CLA    CLA  230   3.171   6.202   5.599
   75CLA    CLA  231   4.106   3.363   5.880
   76CLA    CLA  232   3.852   2.119   4.468
   77CLA    CLA  233   3.246   3.247   0.062
   78CLA    CLA  234   7.783   1.415   3.844
   79CLA    CLA  235   2.165   3.415   2.633
   80CLA    CLA  236   8.165   4.497   3.378
   81CLA    CLA  237   3.867   3.380   0.206
   82CLA    CLA  238   6.527   0.899   2.515
   83CLA    CLA  239   3.848   5.912   3.246
   84CLA    CLA  240   1.153   5.101   3.846
   85CLA    CLA  241   3.511   6.960   5.750
   86CLA    CLA  242   4.178   7.080   1.026
   87CLA    CLA  243   8.066   0.536   0.251
   88CLA    CLA  244   7.727   0.286   5.166
   89CLA    CLA  245   6.807   3.970   0.384
   90CLA    CLA  246   0.758   7.382   5.983
   91CLA    CLA  247   2.622   1.475   2.592
   92CLA    CLA  248   2.641   7.505   0.446
   93CLA    CLA  249   4.691   2.870   4.680
   94CLA    CLA  250   4.976   5.052   2.936
   95CLA    CLA  251   2.396   2.142   6.046
   96CLA    CLA  252   1.581   3.363   6.353
   97CLA    CLA  253   8.087   6.658   0.192
   98CLA    CLA  254   0.821   7.817   5.017
   99CLA    CLA  255   5.346   0.357   6.537
  100TIP3   OH2  256   4.498   0.680   4.937
  100TIP3    H1  257   4.412   0.723   4.942
  100TIP3    H2  258   4.561   0.752   4.940
  101TIP3   OH2  259   2.357   5.982   5.579
  101TIP3    H1  260   2.431   5.966   5.520
  101TIP3    H2  261   2.396   5.977   5.667
  102TIP3   OH2  262   5.676   0.680   0.924
  102TIP3    H1  263   5.603   0.684   0.862
  102TIP3    H2  264   5.731   0.608   0.891
  103TIP3   OH2  265   3.089   4.829   4.857
  103TIP3    H1  266   3.031   4.873   4.920
  103TIP3    H2  267   3.033   4.810   4.782
  104TIP3   OH2  268   7.560   3.188   1.506
  104TIP3    H1  269   7.651   3.169   1.485
  104TIP3    H2  270   7.555   3.178   1.601
  105TIP3   OH2  271   7.733   4.364   0.297
  105TIP3    H1  272   7.728   4.310   0.375
  105TIP3    H2  273   7.805   4.326   0.246
  106TIP3   OH2  274   5.712   5.921   6.589
  106TIP3    H1  275   5.772   5.856   6.553
  106TIP3    H2  276   5.684   5.884   6.673
  107TIP3   OH2  277   3.729   0.999   2.670
  107TIP3    H1  278   3.696   1.089   2.676
  107TIP3    H2  279   3.651   0.945   2.657
  108TIP3   OH2  280   7.156   7.796   6.466
  108TIP3    H1  281   7.084   7.734   6.474
  108TIP3    H2  282   7.226   7.746   6.424
  109TIP3   OH2  283   5.395   5.470   4.534
  109TIP3    H1  284   5.473   5.442   4.583
  109TIP3    H2  285   5.417   5.453   4.443
  110TIP3   OH2  286   5.397   4.369   1.351
  110TIP3    H1  287   5.475   4.369   1.295
  110TIP3    H2  288   5.428   4.402   1.435
  111TIP3   OH2  289   6.968   0.263   4.899
  111TIP3    H1  290   6.931   0.178   4.875
  111TIP3    H2  291   6.915   0.327   4.851
  112TIP3   OH2  292   2.923   1.902   5.422
  112TIP3    H1  293   2.857   1.909   5.491
  112TIP3    H2  294   2.872   1.891   5.341
  113TIP3   OH2  295   5.826   7.635   5.706
  113TIP3    H1  296   5.878   7.677   5.774
  113TIP3    H2  297   5.878   7.643   5.627
  114TIP3   OH2  298   6.907   4.419   0.302
  114TIP3    H1  299   6.886   4.504   0.263
  114TIP3    H2  300   6.964   4.440   0.376
  115TIP3   OH2  301   5.836   4.768   4.764
  115TIP3    H1  302   5.884   4.694   4.801
  115TIP3    H2  303   5.744   4.750   4.784
  116TIP3   OH2  304   3.615   4.666   2.909
  116TIP3    H1  305   3.555   4.655   2.983
  116TIP3    H2  306   3.558   4.669   2.832
  117TIP3   OH2  307   6.317   4.583   6.251
  117TIP3    H1  308   6.371   4.506   6.264
  117TIP3    H2  309   6.375   4.646   6.209
  118TIP3   OH2  310   1.078   6.071   2.845
  118TIP3    H1  311   1.134   6.070   2.768
  118TIP3    H2  312   1.078   6.162   2.873
  119TIP3   OH2  313   1.846   3.566   0.520
  119TIP3    H1  314   1.835   3.643   0.575
  119TIP3    H2  315   1.823   3.492   0.577
  120TIP3   OH2  316   8.026   0.272   3.989
  120TIP3    H1  317   8.025   0.306   3.899
  120TIP3    H2  318   8.118   0.250   4.005
  121TIP3   OH2  319   2.500   5.658   5.084
  121TIP3    H1  320   2.501   5.646   5.179
  121TIP3    H2  321   2.452   5.739   5.070
  122TIP3   OH2  322   0.532   0.918   0.688
  122TIP3    H1  323   0.465   0.978   0.655
  122TIP3    H2  324   0.585   0.895   0.612
  123TIP3   OH2  325   1.054   7.631   6.442
  123TIP3    H1  326   1.014   7.624   6.355
  123TIP3    H2  327   0.981   7.646   6.501
  124TIP3   OH2  328   0.665   5.995   4.237
  124TIP3    H1  329   0.670   6.014   4.331
  124TIP3    H2  330   0.701   5.907   4.228
  125TIP3   OH2  331   0.811   3.355   5.613
  125TIP3    H1  332   0.746   3.318   5.674
  125TIP3    H2  333   0.775   3.441   5.590
  126TIP3   OH2  334   0.951   2.298   5.114
  126TIP3    H1  335   0.968   2.315   5.207
  126TIP3    H2  336   1.031   2.324   5.069
  127TIP3   OH2  337   1.735   1.538   5.842
  127TIP3    H1  338   1.742   1.612   5.902
  127TIP3    H2  339   1.816   1.540   5.791
  128TIP3   OH2  340   6.512   6.785   1.642
  128TIP3    H1  341   6.587   6.844   1.648
  128TIP3    H2  342   6.550   6.697   1.648
  129TIP3   OH2  343   1.351   3.735   5.904
  129TIP3    H1  344   1.360   3.706   5.994
  129TIP3    H2  345   1.414   3.807   5.896
  130TIP3   OH2  346   7.440   6.084   6.120
  130TIP3    H1  347   7.402   6.021   6.058
  130TIP3    H2  348   7.365   6.136   6.150
  131TIP3   OH2  349   0.828   1.378   4.390
  131TIP3    H1  350   0.734   1.371   4.407
  131TIP3    H2  351   0.868   1.369   4.476
  132TIP3   OH2  352   0.174   4.135   1.342
  132TIP3    H1  353   0.090   4.093   1.322
  132TIP3    H2  354   0.209   4.084   1.414
  133TIP3   OH2  355   2.077   3.166   0.607
  133TIP3    H1  356   2.056   3.244   0.555
  133TIP3    H2  357   1.992   3.122   0.619
  134TIP3   OH2  358   2.841   2.234   5.269
  134TIP3    H1  359   2.810   2.313   5.225
  134TIP3    H2  360   2.912   2.263   5.325
  135TIP3   OH2  361   5.009   2.635   0.785
  135TIP3    H1  362   4.924   2.624   0.827
  135TIP3    H2  363   4.996   2.707   0.723
  136TIP3   OH2  364   1.408   3.184   5.011
  136TIP3    H1  365   1.374   3.095   5.019
  136TIP3    H2  366   1.471   3.179   4.939
  137TIP3   OH2  367   0.487   4.715   1.454
  137TIP3    H1  368   0.415   4.666   1.414
  137TIP3    H2  369   0.545   4.648   1.489
  138TIP3   OH2  370   5.431   3.979   0.631
  138TIP3    H1  371   5.428   3.961   0.725
  138TIP3    H2  372   5.418   4.073   0.624
  139TIP3   OH2  373   7.164   0.282   6.112
  139TIP3    H1  374   7.155   0.264   6.205
  139TIP3    H2  375   7.075   0.295   6.080
  140TIP3   OH2  376   7.538   2.144   2.055
  140TIP3    H1  377   7.595   2.090   2.109
  140TIP3    H2  378   7.461   2.090   2.038
  141TIP3   OH2  379   7.666   0.666   3.147
  141TIP3    H1  380   7.670   0.733   3.215
  141TIP3    H2  381   7.581   0.623   3.160
  142TIP3   OH2  382   3.860   1.044   0.416
  142TIP3    H1  383   3.917   1.074   0.346
  142TIP3    H2  384   3.803   0.979   0.375
  143TIP3   OH2  385   7.219   5.808   6.518
  143TIP3    H1  386   7.282   5.873   6.487
  143TIP3    H2  387   7.154   5.803   6.448
  144TIP3   OH2  388   4.108   5.558   3.245
  144TIP3    H1  389   4.039   5.561   3.311
  144TIP3    H2  390   4.180   5.607   3.283
  145TIP3   OH2  391   4.437   2.385   6.460
  145TIP3    H1  392   4.405   2.471   6.487
  145TIP3    H2  393   4.440   2.334   6.541
  146TIP3   OH2  394   4.277   2.644   4.503
  146TIP3    H1  395   4.327   2.634   4.422
  146TIP3    H2  396   4.198   2.692   4.477
  147TIP3   OH2  397   5.149   0.894   1.384
  147TIP3    H1  398   5.232   0.893   1.337
  147TIP3    H2  399   5.170   0.864   1.472
  148TIP3   OH2  400   7.668   3.068   5.817
  148TIP3    H1  401   7.584   3.021   5.815
  148TIP3    H2  402   7.649   3.152   5.776
  149TIP3   OH2  403   4.798   7.038   0.229
  149TIP3    H1  404   4.773   7.059   0.319
  149TIP3    H2  405   4.771   6.947   0.218
  150TIP3   OH2  406   5.654   1.051   0.334
  150TIP3    H1  407   5.599   0.983   0.295
  150TIP3    H2  408   5.609   1.133   0.313
  151TIP3   OH2  409   5.184   3.011   2.498
  151TIP3    H1  410   5.206   2.927   2.457
  151TIP3    H2  411   5.179   2.991   2.591
  152TIP3   OH2  412   4.483   0.038   2.965
  152TIP3    H1  413   4.421  -0.014   2.913
  152TIP3    H2  414   4.494  -0.012   3.046
  153TIP3   OH2  415   2.675   3.680   0.433
  153TIP3    H1  416   2.591   3.678   0.388
  153TIP3    H2  417   2.680   3.768   0.471
  154TIP3   OH2  418   5.171   4.197   6.077
  154TIP3    H1  419   5.237   4.257   6.112
  154TIP3    H2  420   5.088   4.245   6.085
  155TIP3   OH2  421   4.482   4.217   0.099
  155TIP3    H1  422   4.450   4.163   0.026
  155TIP3    H2  423   4.481   4.306   0.065
  156TIP3   OH2  424   8.129   7.770   3.923
  156TIP3    H1  425   8.112   7.769   4.017
  156TIP3    H2  426   8.213   7.725   3.913
  157TIP3   OH2  427   7.130   3.108   4.038
  157TIP3    H1  428   7.133   3.036   4.100
  157TIP3    H2  429   7.048   3.153   4.056
  158TIP3   OH2  430   8.213   1.983   6.052
  158TIP3    H1  431   8.149   1.928   6.097
  158TIP3    H2  432   8.260   2.027   6.123
  159TIP3   OH2  433   5.976   5.132   3.574
  159TIP3    H1  434   5.948   5.112   3.663
  159TIP3    H2  435   5.975   5.047   3.530
  160TIP3   OH2  436   2.726   2.201   5.622
  160TIP3    H1  437   2.820   2.195   5.606
  160TIP3    H2  438   2.719   2.258   5.699
  161TIP3   OH2  439   4.206   2.520   5.164
  161TIP3    H1  440   4.131   2.491   5.217
  161TIP3    H2  441   4.274   2.538   5.229
  162TIP3   OH2  442   1.591   5.352   2.623
  162TIP3    H1  443   1.567   5.349   2.531
  162TIP3    H2  444   1.670   5.407   2.625
  163TIP3   OH2  445   1.820   1.766   5.947
  163TIP3    H1  446   1.831   1.797   6.037
  163TIP3    H2  447   1.907   1.774   5.908
  164TIP3   OH2  448   6.010   7.163   6.093
  164TIP3    H1  449   5.942   7.108   6.054
  164TIP3    H2  450   6.088   7.145   6.040
  165TIP3   OH2  451   3.031   7.140   3.188
  165TIP3    H1  452   2.943   7.102   3.177
  165TIP3    H2  453   3.015   7.233   3.202
  166TIP3   OH2  454   4.114   0.412   0.447
  166TIP3    H1  455   4.127   0.484   0.508
  166TIP3    H2  456   4.189   0.418   0.388
  167TIP3   OH2  457   0.404   0.494   0.703
  167TIP3    H1  458   0.475   0.499   0.767
  167TIP3    H2  459   0.444   0.518   0.620
  168TIP3   OH2  460   7.316   2.032   0.539
  168TIP3    H1  461   7.356   2.010   0.455
  168TIP3    H2  462   7.387   2.070   0.590
  169TIP3   OH2  463   0.976   0.561   4.963
  169TIP3    H1  464   0.927   0.627   5.011
  169TIP3    H2  465   0.943   0.567   4.873
  170TIP3   OH2  466   8.153   2.123   1.073
  170TIP3    H1  467   8.179   2.038   1.108
  170TIP3    H2  468   8.211   2.137   0.999
  171TIP3   OH2  469   1.189   3.384   2.037
  171TIP3    H1  470   1.146   3.378   1.952
  171TIP3    H2  471   1.147   3.458   2.080
  172TIP3   OH2  472   3.220   1.687   4.666
  172TIP3    H1  473   3.219   1.768   4.716
  172TIP3    H2  474   3.306   1.649   4.683
  173TIP3   OH2  475   0.014   2.277   2.059
  173TIP3    H1  476   0.056   2.209   2.113
  173TIP3    H2  477  -0.045   2.323   2.119
  174TIP3   OH2  478   0.958   4.336   3.973
  174TIP3    H1  479   0.913   4.382   4.044
  174TIP3    H2  480   1.049   4.328   4.003
  175TIP3   OH2  481   7.841   0.668   5.436
  175TIP3    H1  482   7.870   0.749   5.478
  175TIP3    H2  483   7.768   0.694   5.380
  176TIP3   OH2  484   0.870   7.147   3.876
  176TIP3    H1  485   0.826   7.232   3.880
  176TIP3    H2  486   0.885   7.131   3.783
  177TIP3   OH2  487   1.210   6.271   6.519
  177TIP3    H1  488   1.185   6.209   6.588
  177TIP3    H2  489   1.276   6.225   6.468
  178TIP3   OH2  490   8.043   1.758   5.602
  178TIP3    H1  491   7.965   1.706   5.585
  178TIP3    H2  492   8.116   1.699   5.582
  179TIP3   OH2  493   0.692   4.718   3.540
  179TIP3    H1  494   0.616   4.672   3.504
  179TIP3    H2  495   0.715   4.668   3.618
  180TIP3   OH2  496   0.790   2.489   4.842
  180TIP3    H1  497   0.841   2.521   4.916
  180TIP3    H2  498   0.776   2.566   4.788
  181TIP3   OH2  499   2.063   0.177   4.082
  181TIP3    H1  500   2.115   0.218   4.151
  181TIP3    H2  501   2.018   0.250   4.040
  182TIP3   OH2  502   6.375   2.819   5.797
  182TIP3    H1  503   6.323   2.770   5.733
  182TIP3    H2  504   6.463   2.783   5.789
  183TIP3   OH2  505   7.620   2.490   6.611
  183TIP3    H1  506   7.692   2.551   6.620
  183TIP3    H2  507   7.551   2.540   6.566
  184TIP3   OH2  508   4.198   6.398   1.491
  184TIP3    H1  509   4.198   6.452   1.570
  184TIP3    H2  510   4.146   6.321   1.515
  185TIP3   OH2  511   0.241   1.705   2.424
  185TIP3    H1  512   0.154   1.695   2.386
  185TIP3    H2  513   0.301   1.687   2.352
  186TIP3   OH2  514   2.031   5.953   0.076
  186TIP3    H1  515   2.053   6.046   0.079
  186TIP3    H2  516   2.010   5.930   0.166
  187TIP3   OH2  517   5.198   1.968   2.191
  187TIP3    H1  518   5.273   1.985   2.134
  187TIP3    H2  519   5.204   2.036   2.259
  188TIP3   OH2  520   6.035   3.531   4.052
  188TIP3    H1  521   6.130   3.534   4.041
  188TIP3    H2  522   6.012   3.439   4.035
  189TIP3   OH2  523   6.113   2.865   3.738
  189TIP3    H1  524   6.075   2.793   3.688
  189TIP3    H2  525   6.045   2.889   3.801
  190TIP3   OH2  526   3.143   4.296   6.201
  190TIP3    H1  527   3.218   4.344   6.167
  190TIP3    H2  528   3.154   4.207   6.167
  191TIP3   OH2  529   1.190   1.767   0.857
  191TIP3    H1  530   1.139   1.841   0.891
  191TIP3    H2  531   1.250   1.807   0.795
  192TIP3   OH2  532   1.993   2.031   1.609
  192TIP3    H1  533   2.007   2.124   1.628
  192TIP3    H2  534   1.926   2.004   1.671
  193TIP3   OH2  535   4.490   5.083   4.574
  193TIP3    H1  536   4.401   5.094   4.539
  193TIP3    H2  537   4.539   5.157   4.540
  194TIP3   OH2  538   3.704   4.492   1.646
  194TIP3    H1  539   3.717   4.465   1.737
  194TIP3    H2  540   3.773   4.446   1.597
  195TIP3   OH2  541   1.202   3.732   1.099
  195TIP3    H1  542   1.130   3.793   1.118
  195TIP3    H2  543   1.281   3.777   1.130
  196TIP3   OH2  544   7.628   4.950   6.024
  196TIP3    H1  545   7.539   4.925   5.999
  196TIP3    H2  546   7.660   4.875   6.073
  197TIP3   OH2  547   2.413   5.469   1.233
  197TIP3    H1  548   2.325   5.492   1.202
  197TIP3    H2  549   2.453   5.424   1.158
  198TIP3   OH2  550   4.402   4.773   4.651
  198TIP3    H1  551   4.371   4.687   4.625
  198TIP3    H2  552   4.365   4.833   4.586
  199TIP3   OH2  553   5.352   2.719   2.760
  199TIP3    H1  554   5.440   2.746   2.786
  199TIP3    H2  555   5.336   2.767   2.678
  200TIP3   OH2  556   4.794   4.920   1.118
  200TIP3    H1  557   4.709   4.949   1.087
  200TIP3    H2  558   4.795   4.943   1.211
  201TIP3   OH2  559   5.357   5.096   4.471
  201TIP3    H1  560   5.325   5.017   4.426
  201TIP3    H2  561   5.452   5.086   4.472
  202TIP3   OH2  562   4.537   6.747   3.400
  202TIP3    H1  563   4.565   6.666   3.358
  202TIP3    H2  564   4.457   6.772   3.354
  203TIP3   OH2  565   3.799   3.393   5.383
  203TIP3    H1  566   3.893   3.382   5.373
  203TIP3    H2  567   3.778   3.345   5.464
  204TIP3   OH2  568   0.338   1.261   4.262
  204TIP3    H1  569   0.400   1.293   4.329
  204TIP3    H2  570   0.256   1.248   4.310
  205TIP3   OH2  571   0.236   5.547   5.217
  205TIP3    H1  572   0.269   5.462   5.247
  205TIP3    H2  573   0.292   5.570   5.143
  206TIP3   OH2  574   5.616   1.375   2.377
  206TIP3    H1  575   5.710   1.361   2.365
  206TIP3    H2  576   5.606   1.388   2.472
  207TIP3   OH2  577   6.346   1.658   5.863
  207TIP3    H1  578   6.278   1.723   5.882
  207TIP3    H2  579   6.417   1.679   5.924
  208TIP3   OH2  580   8.071   0.018   2.843
  208TIP3    H1  581   7.982   0.035   2.810
  208TIP3    H2  582   8.068  -0.073   2.874
  209TIP3   OH2  583   7.238   6.335   1.404
  209TIP3    H1  584   7.291   6.402   1.448
  209TIP3    H2  585   7.154   6.378   1.387
  210TIP3   OH2  586   6.839   1.983   1.762
  210TIP3    H1  587   6.836   1.965   1.856
  210TIP3    H2  588   6.786   2.062   1.751
  211TIP3   OH2  589   6.213   4.498   0.686
  211TIP3    H1  590   6.218   4.404   0.671
  211TIP3    H2  591   6.177   4.533   0.604
  212TIP3   OH2  592   0.320   7.676   3.805
  212TIP3    H1  593   0.273   7.605   3.761
  212TIP3    H2  594   0.262   7.752   3.798
  213TIP3   OH2  595   1.152   5.475   1.066
  213TIP3    H1  596   1.170   5.568   1.057
  213TIP3    H2  597   1.113   5.466   1.153
  214TIP3   OH2  598   1.240   5.552   5.255
  214TIP3    H1  599   1.216   5.531   5.165
  214TIP3    H2  600   1.317   5.499   5.273
  215TIP3   OH2  601   7.283   6.127   5.061
  215TIP3    H1  602   7.250   6.130   5.151
  215TIP3    H2  603   7.350   6.195   5.058
  216TIP3   OH2  604   0.032   0.362   2.766
  216TIP3    H1  605   0.103   0.407   2.811
  216TIP3    H2  606  -0.014   0.314   2.835
  217TIP3   OH2  607   0.152   7.717   6.215
  217TIP3    H1  608   0.220   7.676   6.268
  217TIP3    H2  609   0.072   7.711   6.267
  218TIP3   OH2  610   1.370   4.616   3.493
  218TIP3    H1  611   1.447   4.658   3.454
  218TIP3    H2  612   1.406   4.551   3.553
  219TIP3   OH2  613   6.209   3.888   2.669
  219TIP3    H1  614   6.216   3.955   2.737
  219TIP3    H2  615   6.221   3.936   2.587
  220TIP3   OH2  616   5.763   1.237   3.448
  220TIP3    H1  617   5.787   1.283   3.528
  220TIP3    H2  618   5.828   1.266   3.383
  221TIP3   OH2  619   4.580   6.739   2.678
  221TIP3    H1  620   4.529   6.795   2.736
  221TIP3    H2  621   4.631   6.800   2.624
  222TIP3   OH2  622   5.531   4.703   0.293
  222TIP3    H1  623   5.620   4.735   0.275
  222TIP3    H2  624   5.545   4.627   0.350
  223TIP3   OH2  625   1.293   0.569   4.430
  223TIP3    H1  626   1.308   0.529   4.344
  223TIP3    H2  627   1.206   0.539   4.456
  224TIP3   OH2  628   1.280   2.983   3.365
  224TIP3    H1  629   1.277   2.893   3.397
  224TIP3    H2  630   1.370   3.012   3.383
  225TIP3   OH2  631   5.725   3.546   1.174
  225TIP3    H1  632   5.792   3.479   1.186
  225TIP3    H2  633   5.658   3.504   1.119
  226TIP3   OH2  634   8.130   4.409   0.102
  226TIP3    H1  635   8.068   4.341   0.076
  226TIP3    H2  636   8.216   4.369   0.090
  227TIP3   OH2  637   7.834   5.501   1.481
  227TIP3    H1  638   7.922   5.509   1.445
  227TIP3    H2  639   7.780   5.474   1.406
  228TIP3   OH2  640   6.925   0.333   5.955
  228TIP3    H1  641   6.862   0.393   5.994
  228TIP3    H2  642   6.878   0.250   5.949
  229TIP3   OH2  643   7.762   1.510   4.990
  229TIP3    H1  644   7.794   1.435   4.940
  229TIP3    H2  645   7.808   1.585   4.953
  230TIP3   OH2  646   6.921   1.079   2.308
  230TIP3    H1  647   6.903   0.984   2.307
  230TIP3    H2  648   6.941   1.100   2.216
  231TIP3   OH2  649   0.603   0.800   5.012
  231TIP3    H1  650   0.582   0.769   4.923
  231TIP3    H2  651   0.616   0.720   5.062
  232TIP3   OH2  652   1.802   6.333   4.837
  232TIP3    H1  653   1.752   6.341   4.755
  232TIP3    H2  654   1.739   6.354   4.905
  233TIP3   OH2  655   3.587   0.284   0.354
  233TIP3    H1  656   3.672   0.300   0.396
  233TIP3    H2  657   3.555   0.203   0.394
  234TIP3   OH2  658   3.208   2.789   2.298
  234TIP3    H1  659   3.273   2.766   2.364
  234TIP3    H2  660   3.142   2.840   2.345
  235TIP3   OH2  661   7.779   6.395   2.165
  235TIP3    H1  662   7.842   6.379   2.236
  235TIP3    H2  663   7.696   6.409   2.210
  236TIP3   OH2  664   7.700   6.822   2.192
  236TIP3    H1  665   7.663   6.760   2.129
  236TIP3    H2  666   7.625   6.853   2.242
  237TIP3   OH2  667   5.666   0.828   1.159
  237TIP3    H1  668   5.685   0.782   1.077
  237TIP3    H2  669   5.746   0.817   1.211
  238TIP3   OH2  670   1.213   0.621   1.792
  238TIP3    H1  671   1.165   0.703   1.780
  238TIP3    H2  672   1.274   0.639   1.863
  239TIP3   OH2  673   5.080   6.566   1.366
  239TIP3    H1  674   5.092   6.649   1.320
  239TIP3    H2  675   5.072   6.591   1.458
  240TIP3   OH2  676   1.364   4.271   0.567
  240TIP3    H1  677   1.348   4.349   0.514
  240TIP3    H2  678   1.307   4.281   0.643
  241TIP3   OH2  679   5.553   1.400   3.700
  241TIP3    H1  680   5.540   1.480   3.751
  241TIP3    H2  681   5.643   1.407   3.668
  242TIP3   OH2  682   2.012   3.928   3.527
  242TIP3    H1  683   1.996   3.855   3.587
  242TIP3    H2  684   2.105   3.949   3.538
  243TIP3   OH2  685   4.245   5.807   1.530
  243TIP3    H1  686   4.161   5.835   1.568
  243TIP3    H2  687   4.250   5.714   1.548
  244TIP3   OH2  688   7.728   4.237   0.550
  244TIP3    H1  689   7.645   4.190   0.546
  244TIP3    H2  690   7.761   4.218   0.638
  245TIP3   OH2  691   2.087   5.898   3.986
  245TIP3    H1  692   2.053   5.810   3.997
  245TIP3    H2  693   2.179   5.886   3.963
  246TIP3   OH2  694   1.041   2.249   5.799
  246TIP3    H1  695   1.056   2.327   5.853
  246TIP3    H2  696   1.094   2.264   5.720
  247TIP3   OH2  697   3.590   3.018   1.471
  247TIP3    H1  698   3.563   3.075   1.399
  247TIP3    H2  699   3.631   2.943   1.428
  248TIP3   OH2  700   1.353   6.269   5.315
  248TIP3    H1  701   1.375   6.245   5.405
  248TIP3    H2  702   1.377   6.362   5.309
  249TIP3   OH2  703   7.546   5.513   0.880
  249TIP3    H1  704   7.566   5.458   0.956
  249TIP3    H2  705   7.477   5.466   0.834
  250TIP3   OH2  706   4.518   4.946   1.046
  250TIP3    H1  707   4.447   4.985   1.097
  250TIP3    H2  708   4.481   4.936   0.958
  251TIP3   OH2  709   4.271   4.032   3.838
  251TIP3    H1  710   4.200   4.093   3.815
  251TIP3    H2  711   4.322   4.079   3.904
  252TIP3   OH2  712   0.313   0.666   1.028
  252TIP3    H1  713   0.253   0.721   0.977
  252TIP3    H2  714   0.396   0.670   0.980
  253TIP3   OH2  715   0.899   3.390   1.932
  253TIP3    H1  716   0.839   3.316   1.925
  253TIP3    H2  717   0.881   3.429   2.018
  254TIP3   OH2  718   2.738   5.738   2.337
  254TIP3    H1  719   2.747   5.693   2.254
  254TIP3    H2  720   2.645   5.731   2.359
  255TIP3   OH2  721   5.620   6.861   2.773
  255TIP3    H1  722   5.528   6.845   2.794
  255TIP3    H2  723   5.662   6.876   2.857
  256TIP3   OH2  724   5.136   1.480   0.250
  256TIP3    H1  725   5.087   1.439   0.321
  256TIP3    H2  726   5.221   1.435   0.251
  257TIP3   OH2  727   6.280   5.968   5.325
  257TIP3    H1  728   6.233   5.949   5.407
  257TIP3    H2  729   6.365   6.000   5.354
  258TIP3   OH2  730   1.272   6.645   4.653
  258TIP3    H1  731   1.244   6.734   4.633
  258TIP3    H2  732   1.366   6.645   4.637
  259TIP3   OH2  733   3.248   0.999   3.582
  259TIP3    H1  734   3.223   0.935   3.648
  259TIP3    H2  735   3.340   0.979   3.562
  260TIP3   OH2  736   6.336   4.413   5.343
  260TIP3    H1  737   6.339   4.409   5.438
  260TIP3    H2  738   6.399   4.346   5.314
  261TIP3   OH2  739   5.060   7.019   0.957
  261TIP3    H1  740   5.067   7.085   0.887
  261TIP3    H2  741   4.967   7.018   0.979
  262TIP3   OH2  742   5.851   7.260   2.149
  262TIP3    H1  743   5.856   7.344   2.195
  262TIP3    H2  744   5.802   7.279   2.069
  263TIP3   OH2  745   4.262   1.665   5.329
  263TIP3    H1  746   4.267   1.721   5.407
  263TIP3    H2  747   4.206   1.592   5.356
  264TIP3   OH2  748   6.347   0.460   3.815
  264TIP3    H1  749   6.342   0.543   3.768
  264TIP3    H2  750   6.374   0.396   3.748
  265TIP3   OH2  751   2.558   5.479   0.517
  265TIP3    H1  752   2.480   5.487   0.462
  265TIP3    H2  753   2.561   5.561   0.566
  266TIP3   OH2  754   0.142   0.994   6.530
  266TIP3    H1  755   0.100   0.909   6.519
  266TIP3    H2  756   0.075   1.057   6.505
  267TIP3   OH2  757   7.142   2.360   6.469
  267TIP3    H1  758   7.108   2.276   6.439
  267TIP3    H2  759   7.215   2.338   6.526
  268TIP3   OH2  760   5.579   2.961   2.300
  268TIP3    H1  761   5.514   2.898   2.330
  268TIP3    H2  762   5.631   2.914   2.236
  269TIP3   OH2  763   7.982   5.127   6.545
  269TIP3    H1  764   8.047   5.161   6.606
  269TIP3    H2  765   7.935   5.204   6.513
  270TIP3   OH2  766   2.450   6.617   2.002
  270TIP3    H1  767   2.439   6.544   1.941
  270TIP3    H2  768   2.480   6.576   2.083
  271TIP3   OH2  769   4.761   4.309   4.570
  271TIP3    H1  770   4.739   4.266   4.488
  271TIP3    H2  771   4.790   4.238   4.627
  272TIP3   OH2  772   4.446   6.791   6.114
  272TIP3    H1  773   4.495   6.861   6.072
  272TIP3    H2  774   4.455   6.716   6.055
  273TIP3   OH2  775   2.163   1.755   1.206
  273TIP3    H1  776   2.186   1.838   1.166
  273TIP3    H2  777   2.116   1.779   1.286
  274TIP3   OH2  778   8.196   3.944   1.717
  274TIP3    H1  779   8.156   4.031   1.714
  274TIP3    H2  780   8.123   3.884   1.733
  275TIP3   OH2  781   1.206   0.151   3.232
  275TIP3    H1  782   1.143   0.172   3.163
  275TIP3    H2  783   1.189   0.060   3.254
  276TIP3   OH2  784   0.930   0.221   6.593
  276TIP3    H1  785   1.024   0.206   6.586
  276TIP3    H2  786   0.899   0.153   6.652
  277TIP3   OH2  787   5.243   2.225   5.277
  277TIP3    H1  788   5.263   2.166   5.203
  277TIP3    H2  789   5.300   2.195   5.347
  278TIP3   OH2  790   7.079   5.628   1.448
  278TIP3    H1  791   7.153   5.650   1.391
  278TIP3    H2  792   7.114   5.640   1.537
  279TIP3   OH2  793   7.947   5.106   6.266
  279TIP3    H1  794   7.965   5.110   6.360
  279TIP3    H2  795   7.905   5.189   6.246
  280TIP3   OH2  796   0.489   1.958   2.291
  280TIP3    H1  797   0.403   1.996   2.311
  280TIP3    H2  798   0.550   2.009   2.345
  281TIP3   OH2  799   3.772   2.100   5.338
  281TIP3    H1  800   3.765   2.178   5.284
  281TIP3    H2  801   3.754   2.131   5.427
  282TIP3   OH2  802   0.610   2.941   1.613
  282TIP3    H1  803   0.572   2.905   1.533
  282TIP3    H2  804   0.601   2.870   1.677
  283TIP3   OH2  805   6.771   1.933   1.249
  283TIP3    H1  806   6.732   1.879   1.317
  283TIP3    H2  807   6.834   1.988   1.295
  284TIP3   OH2  808   8.143   1.795   4.926
  284TIP3    H1  809   8.176   1.804   5.015
  284TIP3    H2  810   8.219   1.810   4.870
  285TIP3   OH2  811   6.541   0.048   1.587
  285TIP3    H1  812   6.522  -0.030   1.533
  285TIP3    H2  813   6.594   0.104   1.530
  286TIP3   OH2  814   0.521   2.739   2.982
  286TIP3    H1  815   0.521   2.831   2.955
  286TIP3    H2  816   0.537   2.690   2.901
  287TIP3   OH2  817   5.416   0.109   6.719
  287TIP3    H1  818   5.403   0.171   6.648
  287TIP3    H2  819   5.493   0.142   6.765
  288TIP3   OH2  820   5.606   2.391   4.312
  288TIP3    H1  821   5.511   2.383   4.316
  288TIP3    H2  822   5.623   2.432   4.227
  289TIP3   OH2  823   1.827   1.008   0.068
  289TIP3    H1  824   1.922   0.997   0.068
  289TIP3    H2  825   1.812   1.075   0.000
  290TIP3   OH2  826   6.986   6.907   1.283
  290TIP3    H1  827   6.898   6.901   1.244
  290TIP3    H2  828   7.010   6.999   1.275
  291TIP3   OH2  829   3.093   2.221   2.863
  291TIP3    H1  830   3.176   2.173   2.873
  291TIP3    H2  831   3.098   2.260   2.775
  292TIP3   OH2  832   6.763   4.184   5.149
  292TIP3    H1  833   6.792   4.149   5.065
  292TIP3    H2  834   6.809   4.131   5.214
  293TIP3   OH2  835   7.829   6.927   3.629
  293TIP3    H1  836   7.865   6.917   3.717
  293TIP3    H2  837   7.819   7.022   3.619
  294TIP3   OH2  838   3.622   6.734   1.679
  294TIP3    H1  839   3.528   6.716   1.669
  294TIP3    H2  840   3.660   6.651   1.705
  295TIP3   OH2  841   7.942   4.804   2.812
  295TIP3    H1  842   7.970   4.887   2.850
  295TIP3    H2  843   8.020   4.772   2.767
  296TIP3   OH2  844   8.261   1.835   5.811
  296TIP3    H1  845   8.258   1.884   5.894
  296TIP3    H2  846   8.215   1.891   5.749
  297TIP3   OH2  847   1.784   5.351   3.051
  297TIP3    H1  848   1.722   5.284   3.082
  297TIP3    H2  849   1.817   5.317   2.968
  298TIP3   OH2  850   3.347   6.812   6.705
  298TIP3    H1  851   3.293   6.733   6.699
  298TIP3    H2  852   3.299   6.878   6.655
  299TIP3   OH2  853   0.906   1.863   2.921
  299TIP3    H1  854   0.934   1.949   2.951
  299TIP3    H2  855   0.861   1.825   2.996
  300TIP3   OH2  856   0.735   2.496   6.745
  300TIP3    H1  857   0.650   2.539   6.738
  300TIP3    H2  858   0.797   2.561   6.710
  301TIP3   OH2  859   5.788   2.108   5.773
  301TIP3    H1  860   5.778   2.014   5.790
  301TIP3    H2  861   5.859   2.136   5.831
  302TIP3   OH2  862   8.027   3.217   5.166
  302TIP3    H1  863   8.017   3.127   5.196
  302TIP3    H2  864   8.074   3.262   5.237
  303TIP3   OH2  865   7.311   3.406   5.805
  303TIP3    H1  866   7.395   3.443   5.776
  303TIP3    H2  867   7.279   3.468   5.870
  304TIP3   OH2  868   5.114   4.183   4.656
  304TIP3    H1  869   5.025   4.148   4.658
  304TIP3    H2  870   5.108   4.260   4.598
  305TIP3   OH2  871   5.015   3.688   0.919
  305TIP3    H1  872   5.045   3.724   0.836
  305TIP3    H2  873   5.061   3.605   0.929
  306TIP3   OH2  874   6.864   7.297   2.846
  306TIP3    H1  875   6.844   7.380   2.803
  306TIP3    H2  876   6.911   7.246   2.780
  307TIP3   OH2  877   1.808   3.350   6.005
  307TIP3    H1  878   1.793   3.445   6.003
  307TIP3    H2  879   1.746   3.317   6.069
  308TIP3   OH2  880   6.687   4.586   2.197
  308TIP3    H1  881   6.701   4.498   2.162
  308TIP3    H2  882   6.593   4.592   2.212
  309TIP3   OH2  883   3.489   4.364   0.151
  309TIP3    H1  884   3.550   4.290   0.148
  309TIP3    H2  885   3.407   4.326   0.181
  310TIP3   OH2  886   3.358   4.840   4.892
  310TIP3    H1  887   3.390   4.789   4.817
  310TIP3    H2  888   3.263   4.837   4.885
  311TIP3   OH2  889   0.516   2.772   1.386
  311TIP3    H1  890   0.513   2.707   1.456
  311TIP3    H2  891   0.550   2.724   1.310
  312TIP3   OH2  892   1.165   5.484   2.193
  312TIP3    H1  893   1.191   5.542   2.122
  312TIP3    H2  894   1.165   5.397   2.154
  313TIP3   OH2  895   7.415   0.946   6.061
  313TIP3    H1  896   7.481   1.000   6.016
  313TIP3    H2  897   7.422   0.860   6.019
  314TIP3   OH2  898   1.316   1.469   0.752
  314TIP3    H1  899   1.379   1.417   0.803
  314TIP3    H2  900   1.369   1.507   0.682
  315TIP3   OH2  901   0.669   2.347   5.449
  315TIP3    H1  902   0.716   2.297   5.515
  315TIP3    H2  903   0.736   2.369   5.383
  316TIP3   OH2  904   5.707   2.518   5.490
  316TIP3    H1  905   5.653   2.449   5.530
  316TIP3    H2  906   5.645   2.588   5.469
  317TIP3   OH2  907   2.958   2.682   5.111
  317TIP3    H1  908   2.869   2.706   5.086
  317TIP3    H2  909   3.012   2.710   5.038
  318TIP3   OH2  910   1.756   4.613   3.109
  318TIP3    H1  911   1.818   4.540   3.110
  318TIP3    H2  912   1.712   4.608   3.194
  319TIP3   OH2  913   4.967   3.199   4.163
  319TIP3    H1  914   5.033   3.156   4.108
  319TIP3    H2  915   4.981   3.292   4.149
  320TIP3   OH2  916   0.798   0.648   0.404
  320TIP3    H1  917   0.800   0.730   0.454
  320TIP3    H2  918   0.835   0.670   0.319
  321TIP3   OH2  919   5.931   1.123   4.966
  321TIP3    H1  920   5.841   1.153   4.979
  321TIP3    H2  921   5.925   1.064   4.890
  322TIP3   OH2  922   7.478   4.852   2.124
  322TIP3    H1  923   7.570   4.877   2.123
  322TIP3    H2  924   7.466   4.807   2.208
  323TIP3   OH2  925   1.751   5.316   5.619
  323TIP3    H1  926   1.732   5.341   5.710
  323TIP3    H2  927   1.833   5.361   5.598
  324TIP3   OH2  928   2.449   3.603   1.649
  324TIP3    H1  929   2.456   3.657   1.727
  324TIP3    H2  930   2.424   3.516   1.682
  325TIP3   OH2  931   3.685   4.047   1.911
  325TIP3    H1  932   3.656   4.065   1.822
  325TIP3    H2  933   3.734   3.965   1.903
  326TIP3   OH2  934   2.195   2.499   4.414
  326TIP3    H1  935   2.237   2.536   4.491
  326TIP3    H2  936   2.112   2.463   4.446
  327TIP3   OH2  937   0.275   3.247   4.455
  327TIP3    H1  938   0.267   3.228   4.362
  327TIP3    H2  939   0.196   3.208   4.494
  328TIP3   OH2  940   1.273   0.029   1.287
  328TIP3    H1  941   1.289  -0.061   1.314
  328TIP3    H2  942   1.238   0.072   1.365
  329TIP3   OH2  943   3.170   0.184   4.067
  329TIP3    H1  944   3.178   0.091   4.046
  329TIP3    H2  945   3.200   0.191   4.157
  330TIP3   OH2  946   4.014   7.347   4.446
  330TIP3    H1  947   4.050   7.266   4.409
  330TIP3    H2  948   4.048   7.417   4.390
  331TIP3   OH2  949   5.302   6.246   6.002
  331TIP3    H1  950   5.225   6.300   6.024
  331TIP3    H2  951   5.365   6.308   5.966
  332TIP3   OH2  952   8.068   4.712   0.114
  332TIP3    H1  953   8.139   4.740   0.056
  332TIP3    H2  954   8.072   4.616   0.111
  333TIP3   OH2  955   6.298   7.766   0.800
  333TIP3    H1  956   6.362   7.697   0.786
  333TIP3    H2  957   6.252   7.775   0.717
  334TIP3   OH2  958   6.064   1.251   4.432
  334TIP3    H1  959   6.081   1.284   4.344
  334TIP3    H2  960   6.070   1.156   4.424
  335TIP3   OH2  961   8.155   2.527   6.347
  335TIP3    H1  962   8.164   2.550   6.439
  335TIP3    H2  963   8.204   2.594   6.300
  336TIP3   OH2  964   6.166   1.673   3.593
  336TIP3    H1  965   6.112   1.649   3.668
  336TIP3    H2  966   6.219   1.746   3.624
  337TIP3   OH2  967   2.974   0.887   1.362
  337TIP3    H1  968   3.067   0.875   1.342
  337TIP3    H2  969   2.945   0.800   1.392
  338TIP3   OH2  970   8.046   5.513   3.157
  338TIP3    H1  971   7.993   5.473   3.087
  338TIP3    H2  972   8.106   5.444   3.184
  339TIP3   OH2  973   0.412   4.948   1.592
  339TIP3    H1  974   0.381   4.903   1.671
  339TIP3    H2  975   0.411   4.880   1.524
  340TIP3   OH2  976   1.953   2.623   3.168
  340TIP3    H1  977   1.883   2.559   3.182
  340TIP3    H2  978   1.923   2.702   3.212
  341TIP3   OH2  979   4.053   0.352   5.693
  341TIP3    H1  980   4.068   0.427   5.635
  341TIP3    H2  981   3.973   0.375   5.740
  342TIP3   OH2  982   0.492   4.744   2.204
  342TIP3    H1  983   0.549   4.747   2.127
  342TIP3    H2  984   0.481   4.650   2.222
  343TIP3   OH2  985   8.026   3.752   5.251
  343TIP3    H1  986   8.046   3.803   5.330
  343TIP3    H2  987   8.082   3.791   5.183
  344TIP3   OH2  988   7.494   6.334   3.788
  344TIP3    H1  989   7.468   6.243   3.803
  344TIP3    H2  990   7.574   6.345   3.838
  345TIP3   OH2  991   4.632   7.712   5.043
  345TIP3    H1  992   4.624   7.798   5.002
  345TIP3    H2  993   4.543   7.677   5.043
  346TIP3   OH2  994   1.105   2.399   2.299
  346TIP3    H1  995   1.051   2.366   2.370
  346TIP3    H2  996   1.185   2.431   2.342
  347TIP3   OH2  997   8.158   7.350   4.195
  347TIP3    H1  998   8.215   7.394   4.258
  347TIP3    H2  999   8.180   7.257   4.203
  348TIP3   OH2 1000   1.431   6.050   0.183
  348TIP3    H1 1001   1.347   6.092   0.203
  348TIP3    H2 1002   1.497   6.114   0.210
  349TIP3   OH2 1003   5.698   1.830   4.893
  349TIP3    H1 1004   5.729   1.762   4.953
  349TIP3    H2 1005   5.773   1.887   4.880
  350TIP3   OH2 1006   1.145   4.634   5.187
  350TIP3    H1 1007   1.067   4.621   5.134
  350TIP3    H2 1008   1.218   4.632   5.125
  351TIP3   OH2 1009   7.480   6.536   4.044
  351TIP3    H1 1010   7.489   6.442   4.023
  351TIP3    H2 1011   7.389   6.546   4.071
  352TIP3   OH2 1012   0.209   4.740   0.843
  352TIP3    H1 1013   0.208   4.694   0.927
  352TIP3    H2 1014   0.136   4.801   0.848
  353TIP3   OH2 1015   6.616   5.975   4.347
  353TIP3    H1 1016   6.592   6.016   4.430
  353TIP3    H2 1017   6.543   5.997   4.288
  354TIP3   OH2 1018   4.680   1.495   3.053
  354TIP3    H1 1019   4.601   1.444   3.035
  354TIP3    H2 1020   4.654   1.585   3.031
  355TIP3   OH2 1021   0.423   4.043   5.091
  355TIP3    H1 1022   0.387   4.006   5.011
  355TIP3    H2 1023   0.466   3.969   5.134
  356TIP3   OH2 1024   0.544   0.251   3.767
  356TIP3    H1 1025   0.593   0.205   3.835
  356TIP3    H2 1026   0.485   0.185   3.730
  357TIP3   OH2 1027   4.473   0.177   5.583
  357TIP3    H1 1028   4.425   0.260   5.584
  357TIP3    H2 1029   4.446   0.134   5.502
  358TIP3   OH2 1030   5.064   2.186   3.169
  358TIP3    H1 1031   5.078   2.202   3.075
  358TIP3    H2 1032   4.970   2.201   3.181
  359TIP3   OH2 1033   3.815   4.670   3.531
  359TIP3    H1 1034   3.824   4.766   3.529
  359TIP3    H2 1035   3.898   4.639   3.569
  360TIP3   OH2 1036   0.340   5.543   4.258
  360TIP3    H1 1037   0.412   5.598   4.287
  360TIP3    H2 1038   0.376   5.494   4.184
  361TIP3   OH2 1039   0.012   2.684   5.507
  361TIP3    H1 1040  -0.045   2.609   5.490
  361TIP3    H2 1041   0.047   2.668   5.594
  362TIP3   OH2 1042   4.006   2.824   4.641
  362TIP3    H1 1043   4.062   2.865   4.575
  362TIP3    H2 1044   4.007   2.731   4.619
  363TIP3   OH2 1045   4.864   2.513   1.725
  363TIP3    H1 1046   4.818   2.595   1.742
  363TIP3    H2 1047   4.910   2.529   1.642
  364TIP3   OH2 1048   1.154   3.367   0.537
  364TIP3    H1 1049   1.114   3.303   0.595
  364TIP3    H2 1050   1.150   3.449   0.586
  365TIP3   OH2 1051   5.395   7.277   1.073
  365TIP3    H1 1052   5.453   7.336   1.025
  365TIP3    H2 1053   5.446   7.196   1.083
  366TIP3   OH2 1054   7.099   3.548   5.975
  366TIP3    H1 1055   7.006   3.563   5.990
  366TIP3    H2 1056   7.121   3.473   6.030
  367TIP3   OH2 1057   8.165   2.139   0.112
  367TIP3    H1 1058   8.260   2.137   0.106
  367TIP3    H2 1059   8.144   2.231   0.130
  368TIP3   OH2 1060   5.331   3.521   2.487
  368TIP3    H1 1061   5.307   3.433   2.458
  368TIP3    H2 1062   5.270   3.539   2.559
  369TIP3   OH2 1063   7.746   0.141   0.447
  369TIP3    H1 1064   7.779   0.224   0.413
  369TIP3    H2 1065   7.693   0.105   0.375
  370TIP3   OH2 1066   7.422   6.662   1.007
  370TIP3    H1 1067   7.483   6.599   0.971
  370TIP3    H2 1068   7.342   6.612   1.023
  371TIP3   OH2 1069   3.546   4.420   2.535
  371TIP3    H1 1070   3.533   4.504   2.580
  371TIP3    H2 1071   3.565   4.445   2.444
  372TIP3   OH2 1072   4.967   7.799   3.539
  372TIP3    H1 1073   5.010   7.875   3.578
  372TIP3    H2 1074   4.936   7.748   3.614
  373TIP3   OH2 1075   1.786   3.096   3.083
  373TIP3    H1 1076   1.765   3.187   3.105
  373TIP3    H2 1077   1.756   3.086   2.993
  374TIP3   OH2 1078   3.315   1.601   5.020
  374TIP3    H1 1079   3.233   1.619   5.066
  374TIP3    H2 1080   3.293   1.533   4.957
  375TIP3   OH2 1081   0.813   5.990   2.086
  375TIP3    H1 1082   0.805   6.085   2.085
  375TIP3    H2 1083   0.739   5.958   2.034
  376TIP3   OH2 1084   1.984   3.767   6.444
  376TIP3    H1 1085   1.901   3.816   6.439
  376TIP3    H2 1086   1.963   3.680   6.410
  377TIP3   OH2 1087   7.958   0.294   2.874
  377TIP3    H1 1088   7.986   0.270   2.786
  377TIP3    H2 1089   7.905   0.373   2.862
  378TIP3   OH2 1090   3.317   4.045   0.045
  378TIP3    H1 1091   3.401   4.063   0.087
  378TIP3    H2 1092   3.284   3.968   0.091
  379TIP3   OH2 1093   6.976   5.060   4.248
  379TIP3    H1 1094   6.980   5.152   4.273
  379TIP3    H2 1095   7.058   5.022   4.279
  380TIP3   OH2 1096   3.879   2.476   3.168
  380TIP3    H1 1097   3.913   2.536   3.234
  380TIP3    H2 1098   3.868   2.530   3.090
  381TIP3   OH2 1099   2.700   1.158   4.268
  381TIP3    H1 1100   2.770   1.222   4.272
  381TIP3    H2 1101   2.690   1.127   4.359
  382TIP3   OH2 1102   2.555   0.832   0.197
  382TIP3    H1 1103   2.534   0.884   0.275
  382TIP3    H2 1104   2.472   0.827   0.149
  383TIP3   OH2 1105   7.654   1.241   3.623
  383TIP3    H1 1106   7.689   1.263   3.709
  383TIP3    H2 1107   7.637   1.325   3.581
  384TIP3   OH2 1108   3.987   5.121   3.837
  384TIP3    H1 1109   4.075   5.146   3.866
  384TIP3    H2 1110   3.988   5.134   3.743
  385TIP3   OH2 1111   7.193   4.818   2.240
  385TIP3    H1 1112   7.205   4.840   2.148
  385TIP3    H2 1113   7.110   4.770   2.243
  386TIP3   OH2 1114   0.156   6.675   3.202
  386TIP3    H1 1115   0.228   6.682   3.265
  386TIP3    H2 1116   0.149   6.762   3.163
  387TIP3   OH2 1117   3.035   6.894   5.615
  387TIP3    H1 1118   3.114   6.843   5.634
  387TIP3    H2 1119   2.965   6.846   5.661
  388TIP3   OH2 1120   1.295   7.470   3.068
  388TIP3    H1 1121   1.340   7.463   2.984
  388TIP3    H2 1122   1.319   7.390   3.115
  389TIP3   OH2 1123   7.573   2.225   3.622
  389TIP3    H1 1124   7.570   2.303   3.678
  389TIP3    H2 1125   7.568   2.151   3.683
  390TIP3   OH2 1126   6.807   4.950   2.331
  390TIP3    H1 1127   6.796   5.027   2.386
  390TIP3    H2 1128   6.862   4.891   2.383
  391TIP3   OH2 1129   4.016   4.252   2.181
  391TIP3    H1 1130   3.922   4.244   2.199
  391TIP3    H2 1131   4.050   4.164   2.196
  392TIP3   OH2 1132   1.288   7.159   2.775
  392TIP3    H1 1133   1.233   7.235   2.793
  392TIP3    H2 1134   1.258   7.093   2.837
  393TIP3   OH2 1135   1.624   4.776   4.178
  393TIP3    H1 1136   1.704   4.808   4.138
  393TIP3    H2 1137   1.575   4.856   4.201
  394TIP3   OH2 1138   7.086   3.831   5.886
  394TIP3    H1 1139   7.142   3.859   5.958
  394TIP3    H2 1140   7.075   3.737   5.899
  395TIP3   OH2 1141   7.147   0.573   4.477
  395TIP3    H1 1142   7.127   0.593   4.569
  395TIP3    H2 1143   7.241   0.589   4.469
  396TIP3   OH2 1144   5.215   2.543   1.023
  396TIP3    H1 1145   5.212   2.638   1.029
  396TIP3    H2 1146   5.232   2.525   0.931
  397TIP3   OH2 1147   3.426   7.537   6.565
  397TIP3    H1 1148   3.424   7.512   6.473
  397TIP3    H2 1149   3.491   7.479   6.604
  398TIP3   OH2 1150   4.401   3.632   2.062
  398TIP3    H1 1151   4.417   3.546   2.023
  398TIP3    H2 1152   4.484   3.679   2.053
  399TIP3   OH2 1153   2.142   3.458   0.897
  399TIP3    H1 1154   2.142   3.465   0.801
  399TIP3    H2 1155   2.219   3.507   0.924
  400TIP3   OH2 1156   4.102   0.014   0.266
  400TIP3    H1 1157   4.037  -0.057   0.261
  400TIP3    H2 1158   4.063   0.079   0.324
  401TIP3   OH2 1159   5.142   1.412   1.976
  401TIP3    H1 1160   5.077   1.392   2.044
  401TIP3    H2 1161   5.207   1.466   2.020
  402TIP3   OH2 1162   8.015   1.945   5.406
  402TIP3    H1 1163   8.040   1.867   5.455
  402TIP3    H2 1164   7.919   1.942   5.403
  403TIP3   OH2 1165   3.962   1.397   2.919
  403TIP3    H1 1166   3.980   1.488   2.893
  403TIP3    H2 1167   4.021   1.345   2.865
  404TIP3   OH2 1168   5.945   0.897   5.182
  404TIP3    H1 1169   5.964   0.929   5.270
  404TIP3    H2 1170   6.022   0.923   5.131
  405TIP3   OH2 1171   6.171   0.376   6.403
  405TIP3    H1 1172   6.082   0.356   6.372
  405TIP3    H2 1173   6.179   0.325   6.484
  406TIP3   OH2 1174   8.165   2.257   6.640
  406TIP3    H1 1175   8.085   2.296   6.605
  406TIP3    H2 1176   8.144   2.237   6.731
  407TIP3   OH2 1177   1.644   6.983   1.227
  407TIP3    H1 1178   1.617   6.927   1.299
  407TIP3    H2 1179   1.657   7.069   1.267
  408TIP3   OH2 1180   1.380   0.472   4.727
  408TIP3    H1 1181   1.381   0.508   4.639
  408TIP3    H2 1182   1.395   0.548   4.784
  409TIP3   OH2 1183   1.065   6.427   4.834
  409TIP3    H1 1184   1.089   6.497   4.773
  409TIP3    H2 1185   1.029   6.472   4.910
  410TIP3   OH2 1186   0.356   1.868   6.361
  410TIP3    H1 1187   0.327   1.885   6.271
  410TIP3    H2 1188   0.433   1.923   6.373
  411TIP3   OH2 1189   7.120   5.425   5.219
  411TIP3    H1 1190   7.175   5.456   5.291
  411TIP3    H2 1191   7.040   5.393   5.262
  412TIP3   OH2 1192   1.011   6.678   0.542
  412TIP3    H1 1193   1.035   6.661   0.633
  412TIP3    H2 1194   0.979   6.768   0.542
  413TIP3   OH2 1195   4.101   4.635   6.750
  413TIP3    H1 1196   4.168   4.701   6.729
  413TIP3    H2 1197   4.150   4.562   6.787
  414TIP3   OH2 1198   4.225   5.728   5.319
  414TIP3    H1 1199   4.244   5.690   5.233
  414TIP3    H2 1200   4.139   5.769   5.308
  415TIP3   OH2 1201   2.339   5.158   1.486
  415TIP3    H1 1202   2.380   5.206   1.413
  415TIP3    H2 1203   2.359   5.066   1.468
  416TIP3   OH2 1204   7.388   7.821   4.130
  416TIP3    H1 1205   7.464   7.878   4.127
  416TIP3    H2 1206   7.316   7.877   4.160
  417TIP3   OH2 1207   1.927   6.202   0.713
  417TIP3    H1 1208   2.020   6.212   0.734
  417TIP3    H2 1209   1.883   6.267   0.768
  418TIP3   OH2 1210   4.528   0.295   3.249
  418TIP3    H1 1211   4.600   0.239   3.221
  418TIP3    H2 1212   4.450   0.254   3.212
  419TIP3   OH2 1213   4.208   3.267   4.230
  419TIP3    H1 1214   4.296   3.261   4.267
  419TIP3    H2 1215   4.213   3.342   4.169
  420TIP3   OH2 1216   0.052   5.284   3.368
  420TIP3    H1 1217   0.136   5.265   3.410
  420TIP3    H2 1218   0.068   5.268   3.275
  421TIP3   OH2 1219   8.123   5.174   2.430
  421TIP3    H1 1220   8.084   5.108   2.373
  421TIP3    H2 1221   8.207   5.195   2.389
  422TIP3   OH2 1222   0.980   2.432   6.419
  422TIP3    H1 1223   0.893   2.393   6.418
  422TIP3    H2 1224   1.028   2.384   6.486
  423TIP3   OH2 1225   0.557   4.400   5.731
  423TIP3    H1 1226   0.480   4.373   5.682
  423TIP3    H2 1227   0.631   4.370   5.678
  424TIP3   OH2 1228   5.515   2.996   0.616
  424TIP3    H1 1229   5.513   3.038   0.530
  424TIP3    H2 1230   5.586   3.041   0.662
  425TIP3   OH2 1231   2.247   5.005   2.514
  425TIP3    H1 1232   2.296   5.057   2.578
  425TIP3    H2 1233   2.157   5.008   2.546
  426TIP3   OH2 1234   2.427   5.121   0.599
  426TIP3    H1 1235   2.457   5.085   0.516
  426TIP3    H2 1236   2.491   5.189   0.620
  427TIP3   OH2 1237   0.925   3.871   2.921
  427TIP3    H1 1238   0.986   3.820   2.975
  427TIP3    H2 1239   0.841   3.861   2.965
  428TIP3   OH2 1240   2.519   6.259   2.717
  428TIP3    H1 1241   2.551   6.202   2.647
  428TIP3    H2 1242   2.574   6.337   2.711
  429TIP3   OH2 1243   8.221   3.024   1.121
  429TIP3    H1 1244   8.274   2.953   1.157
  429TIP3    H2 1245   8.146   2.980   1.081
  430TIP3   OH2 1246   1.718   1.259   6.277
  430TIP3    H1 1247   1.800   1.251   6.325
  430TIP3    H2 1248   1.740   1.237   6.187
  431TIP3   OH2 1249   1.456   1.298   0.946
  431TIP3    H1 1250   1.452   1.390   0.973
  431TIP3    H2 1251   1.529   1.295   0.884
  432TIP3   OH2 1252   5.398   0.158   6.276
  432TIP3    H1 1253   5.408   0.192   6.187
  432TIP3    H2 1254   5.387   0.235   6.331
  433TIP3   OH2 1255   3.750   0.670   6.401
  433TIP3    H1 1256   3.675   0.613   6.390
  433TIP3    H2 1257   3.824   0.610   6.415
  434TIP3   OH2 1258   1.459   4.220   4.023
  434TIP3    H1 1259   1.516   4.231   4.098
  434TIP3    H2 1260   1.411   4.139   4.040
  435TIP3   OH2 1261   2.825   2.132   1.963
  435TIP3    H1 1262   2.752   2.073   1.946
  435TIP3    H2 1263   2.871   2.139   1.879
  436TIP3   OH2 1264   1.325   2.610   0.818
  436TIP3    H1 1265   1.273   2.653   0.750
  436TIP3    H2 1266   1.349   2.526   0.779
  437TIP3   OH2 1267   5.572   7.265   3.160
  437TIP3    H1 1268   5.606   7.235   3.244
  437TIP3    H2 1269   5.615   7.349   3.145
  438TIP3   OH2 1270   0.690   3.496   5.287
  438TIP3    H1 1271   0.617   3.455   5.241
  438TIP3    H2 1272   0.737   3.544   5.219
  439TIP3   OH2 1273   3.481   2.203   0.846
  439TIP3    H1 1274   3.460   2.111   0.829
  439TIP3    H2 1275   3.498   2.239   0.759
  440TIP3   OH2 1276   8.001   3.330   1.118
  440TIP3    H1 1277   8.048   3.313   1.200
  440TIP3    H2 1278   8.070   3.342   1.053
  441TIP3   OH2 1279   7.749   3.445   5.528
  441TIP3    H1 1280   7.841   3.425   5.510
  441TIP3    H2 1281   7.701   3.408   5.454
  442TIP3   OH2 1282   0.363   4.887   6.402
  442TIP3    H1 1283   0.394   4.831   6.474
  442TIP3    H2 1284   0.335   4.967   6.445
  443TIP3   OH2 1285   2.498   3.988   1.560
  443TIP3    H1 1286   2.474   4.077   1.583
  443TIP3    H2 1287   2.417   3.938   1.565
  444TIP3   OH2 1288   2.632   6.690   6.486
  444TIP3    H1 1289   2.684   6.611   6.501
  444TIP3    H2 1290   2.584   6.672   6.405
  445TIP3   OH2 1291   5.583   6.149   2.086
  445TIP3    H1 1292   5.501   6.194   2.067
  445TIP3    H2 1293   5.621   6.129   2.000
  446TIP3   OH2 1294   4.267   5.004   4.794
  446TIP3    H1 1295   4.352   5.001   4.752
  446TIP3    H2 1296   4.239   4.912   4.799
  447TIP3   OH2 1297   7.517   2.154   4.753
  447TIP3    H1 1298   7.479   2.108   4.827
  447TIP3    H2 1299   7.573   2.089   4.710
  448TIP3   OH2 1300   0.453   6.155   1.336
  448TIP3    H1 1301   0.477   6.173   1.245
  448TIP3    H2 1302   0.528   6.184   1.387
  449TIP3   OH2 1303   2.703   4.716   6.382
  449TIP3    H1 1304   2.675   4.708   6.291
  449TIP3    H2 1305   2.693   4.628   6.418
  450TIP3   OH2 1306   7.126   2.117   4.154
  450TIP3    H1 1307   7.069   2.194   4.151
  450TIP3    H2 1308   7.205   2.145   4.107
  451TIP3   OH2 1309   2.133   6.069   3.795
  451TIP3    H1 1310   2.226   6.089   3.796
  451TIP3    H2 1311   2.114   6.035   3.882
  452TIP3   OH2 1312   7.680   3.699   2.136
  452TIP3    H1 1313   7.631   3.660   2.208
  452TIP3    H2 1314   7.729   3.770   2.176
  453TIP3   OH2 1315   7.065   6.720   3.055
  453TIP3    H1 1316   7.007   6.670   3.112
  453TIP3    H2 1317   7.006   6.761   2.991
  454TIP3   OH2 1318   0.445   4.692   3.346
  454TIP3    H1 1319   0.425   4.599   3.361
  454TIP3    H2 1320   0.501   4.692   3.269
  455TIP3   OH2 1321   5.282   2.599   2.145
  455TIP3    H1 1322   5.239   2.684   2.147
  455TIP3    H2 1323   5.210   2.536   2.143
  456TIP3   OH2 1324   0.200   3.181   1.929
  456TIP3    H1 1325   0.248   3.264   1.935
  456TIP3    H2 1326   0.190   3.167   1.835
  457TIP3   OH2 1327   5.838   6.205   5.288
  457TIP3    H1 1328   5.865   6.171   5.373
  457TIP3    H2 1329   5.912   6.186   5.230
  458TIP3   OH2 1330   5.026   3.295   3.842
  458TIP3    H1 1331   5.097   3.234   3.821
  458TIP3    H2 1332   4.947   3.242   3.838
  459TIP3   OH2 1333   1.929   0.264   4.785
  459TIP3    H1 1334   1.849   0.275   4.733
  459TIP3    H2 1335   1.930   0.340   4.843
  460TIP3   OH2 1336   1.098   5.021   6.565
  460TIP3    H1 1337   1.044   5.063   6.632
  460TIP3    H2 1338   1.107   5.087   6.497
  461TIP3   OH2 1339   0.036   0.473   3.328
  461TIP3    H1 1340   0.022   0.397   3.272
  461TIP3    H2 1341  -0.019   0.459   3.404
  462TIP3   OH2 1342   4.832   2.585   3.910
  462TIP3    H1 1343   4.827   2.583   4.006
  462TIP3    H2 1344   4.789   2.666   3.885
  463TIP3   OH2 1345   6.376   5.667   6.480
  463TIP3    H1 1346   6.456   5.615   6.468
  463TIP3    H2 1347   6.377   5.690   6.573
  464TIP3   OH2 1348   0.906   7.339   5.716
  464TIP3    H1 1349   0.898   7.344   5.811
  464TIP3    H2 1350   0.878   7.250   5.695
  465TIP3   OH2 1351   1.801   4.259   0.002
  465TIP3    H1 1352   1.727   4.237   0.059
  465TIP3    H2 1353   1.877   4.256   0.059
  466TIP3   OH2 1354   1.974   7.603   6.657
  466TIP3    H1 1355   2.037   7.533   6.644
  466TIP3    H2 1356   1.899   7.561   6.699
  467TIP3   OH2 1357   7.001   7.300   2.254
  467TIP3    H1 1358   7.023   7.391   2.236
  467TIP3    H2 1359   7.029   7.253   2.175
  468TIP3   OH2 1360   1.540   3.217   2.542
  468TIP3    H1 1361   1.452   3.253   2.529
  468TIP3    H2 1362   1.592   3.255   2.472
  469TIP3   OH2 1363   6.173   0.191   1.475
  469TIP3    H1 1364   6.263   0.162   1.458
  469TIP3    H2 1365   6.135   0.122   1.529
  470TIP3   OH2 1366   4.675   3.999   1.158
  470TIP3    H1 1367   4.715   3.920   1.195
  470TIP3    H2 1368   4.734   4.025   1.088
  471TIP3   OH2 1369   0.929   3.189   0.011
  471TIP3    H1 1370   0.953   3.181   0.104
  471TIP3    H2 1371   0.941   3.101  -0.025
  472TIP3   OH2 1372   5.185   0.809   3.872
  472TIP3    H1 1373   5.209   0.823   3.781
  472TIP3    H2 1374   5.137   0.726   3.872
  473TIP3   OH2 1375   5.418   4.914   2.940
  473TIP3    H1 1376   5.337   4.866   2.956
  473TIP3    H2 1377   5.487   4.850   2.958
  474TIP3   OH2 1378   3.875   5.086   5.965
  474TIP3    H1 1379   3.837   5.172   5.952
  474TIP3    H2 1380   3.950   5.084   5.907
  475TIP3   OH2 1381   8.189   6.814   3.311
  475TIP3    H1 1382   8.210   6.734   3.359
  475TIP3    H2 1383   8.172   6.786   3.221
  476TIP3   OH2 1384   7.808   3.619   5.787
  476TIP3    H1 1385   7.903   3.616   5.774
  476TIP3    H2 1386   7.772   3.619   5.699
  477TIP3   OH2 1387   3.925   0.836   5.803
  477TIP3    H1 1388   3.951   0.766   5.744
  477TIP3    H2 1389   3.919   0.795   5.889
  478TIP3   OH2 1390   3.813   6.823   2.875
  478TIP3    H1 1391   3.776   6.873   2.803
  478TIP3    H2 1392   3.859   6.750   2.833
  479TIP3   OH2 1393   1.192   3.230   3.078
  479TIP3    H1 1394   1.148   3.153   3.041
  479TIP3    H2 1395   1.120   3.288   3.104
  480TIP3   OH2 1396   2.345   2.597   1.564
  480TIP3    H1 1397   2.356   2.523   1.623
  480TIP3    H2 1398   2.356   2.674   1.620
  481TIP3   OH2 1399   5.366   3.577   0.621
  481TIP3    H1 1400   5.443   3.575   0.679
  481TIP3    H2 1401   5.401   3.605   0.537
  482TIP3   OH2 1402   3.301   1.356   1.941
  482TIP3    H1 1403   3.332   1.340   2.030
  482TIP3    H2 1404   3.358   1.303   1.886
  483TIP3   OH2 1405   3.712   6.234   1.258
  483TIP3    H1 1406   3.677   6.165   1.201
  483TIP3    H2 1407   3.648   6.240   1.329
  484TIP3   OH2 1408   6.896   2.424   5.988
  484TIP3    H1 1409   6.846   2.461   6.061
  484TIP3    H2 1410   6.976   2.476   5.985
  485TIP3   OH2 1411   2.655   7.615   5.360
  485TIP3    H1 1412   2.642   7.528   5.399
  485TIP3    H2 1413   2.577   7.665   5.386
  486TIP3   OH2 1414   7.774   0.165   3.080
  486TIP3    H1 1415   7.854   0.207   3.050
  486TIP3    H2 1416   7.746   0.217   3.155
  487TIP3   OH2 1417   5.223   1.225   5.896
  487TIP3    H1 1418   5.294   1.194   5.951
  487TIP3    H2 1419   5.256   1.219   5.807
  488TIP3   OH2 1420   5.118   1.535   2.509
  488TIP3    H1 1421   5.125   1.611   2.451
  488TIP3    H2 1422   5.111   1.573   2.597
  489TIP3   OH2 1423   4.536   3.151   6.008
  489TIP3    H1 1424   4.440   3.151   6.013
  489TIP3    H2 1425   4.555   3.178   5.918
  490TIP3   OH2 1426   3.013   1.317   0.242
  490TIP3    H1 1427   3.045   1.366   0.318
  490TIP3    H2 1428   2.962   1.245   0.280
  491TIP3   OH2 1429   7.511   6.935   1.821
  491TIP3    H1 1430   7.551   6.993   1.886
  491TIP3    H2 1431   7.557   6.852   1.830
  492TIP3   OH2 1432   7.259   0.991   1.985
  492TIP3    H1 1433   7.174   1.029   2.005
  492TIP3    H2 1434   7.292   0.959   2.070
  493TIP3   OH2 1435   2.514   4.872   1.795
  493TIP3    H1 1436   2.520   4.962   1.764
  493TIP3    H2 1437   2.580   4.825   1.743
  494TIP3   OH2 1438   7.870   2.361   0.091
  494TIP3    H1 1439   7.897   2.302   0.020
  494TIP3    H2 1440   7.805   2.418   0.050
  495TIP3   OH2 1441   2.702   0.546   0.918
  495TIP3    H1 1442   2.728   0.636   0.938
  495TIP3    H2 1443   2.606   0.547   0.924
  496TIP3   OH2 1444   0.910   4.275   6.003
  496TIP3    H1 1445   0.925   4.260   6.096
  496TIP3    H2 1446   0.855   4.353   6.000
  497TIP3   OH2 1447   5.586   2.327   2.703
  497TIP3    H1 1448   5.656   2.271   2.734
  497TIP3    H2 1449   5.611   2.351   2.614
  498TIP3   OH2 1450   6.433   0.536   2.793
  498TIP3    H1 1451   6.406   0.590   2.867
  498TIP3    H2 1452   6.501   0.587   2.749
  499TIP3   OH2 1453   5.894   6.124   5.545
  499TIP3    H1 1454   5.805   6.150   5.569
  499TIP3    H2 1455   5.945   6.139   5.625
  500TIP3   OH2 1456   0.888   3.132   4.129
  500TIP3    H1 1457   0.926   3.077   4.199
  500TIP3    H2 1458   0.917   3.090   4.048
  501TIP3   OH2 1459   3.091   7.419   2.656
  501TIP3    H1 1460   3.008   7.389   2.695
  501TIP3    H2 1461   3.065   7.468   2.578
  502TIP3   OH2 1462   8.078   7.125   4.354
  502TIP3    H1 1463   8.061   7.195   4.416
  502TIP3    H2 1464   8.003   7.066   4.364
  503TIP3   OH2 1465   7.574   1.164   2.119
  503TIP3    H1 1466   7.614   1.102   2.180
  503TIP3    H2 1467   7.535   1.230   2.175
  504TIP3   OH2 1468   6.059   3.578   1.168
  504TIP3    H1 1469   5.990   3.518   1.196
  504TIP3    H2 1470   6.140   3.528   1.177
  505TIP3   OH2 1471   3.311   4.783   0.411
  505TIP3    H1 1472   3.320   4.733   0.492
  505TIP3    H2 1473   3.217   4.802   0.405
  506TIP3   OH2 1474   6.449   1.812   1.828
  506TIP3    H1 1475   6.528   1.759   1.823
  506TIP3    H2 1476   6.393   1.765   1.889
  507TIP3   OH2 1477   2.529   2.176   0.468
  507TIP3    H1 1478   2.504   2.185   0.376
  507TIP3    H2 1479   2.451   2.140   0.510
  508TIP3   OH2 1480   3.225   0.402   4.564
  508TIP3    H1 1481   3.183   0.321   4.537
  508TIP3    H2 1482   3.237   0.451   4.483
  509TIP3   OH2 1483   6.994   7.423   4.627
  509TIP3    H1 1484   6.924   7.378   4.674
  509TIP3    H2 1485   7.018   7.364   4.556
  510TIP3   OH2 1486   4.428   7.114   1.404
  510TIP3    H1 1487   4.422   7.207   1.382
  510TIP3    H2 1488   4.376   7.105   1.484
  511TIP3   OH2 1489   6.844   6.206   3.309
  511TIP3    H1 1490   6.793   6.268   3.361
  511TIP3    H2 1491   6.910   6.260   3.265
  512TIP3   OH2 1492   3.478   1.048   1.614
  512TIP3    H1 1493   3.515   1.030   1.700
  512TIP3    H2 1494   3.546   1.023   1.552
  513TIP3   OH2 1495   5.926   3.369   1.299
  513TIP3    H1 1496   5.859   3.361   1.367
  513TIP3    H2 1497   5.998   3.312   1.328
  514TIP3   OH2 1498   2.931   2.167   1.406
  514TIP3    H1 1499   2.965   2.195   1.491
  514TIP3    H2 1500   2.846   2.129   1.426
  515TIP3   OH2 1501   2.886   5.084   4.938
  515TIP3    H1 1502   2.802   5.042   4.956
  515TIP3    H2 1503   2.916   5.116   5.023
  516TIP3   OH2 1504   8.057   5.971   0.166
  516TIP3    H1 1505   8.117   6.033   0.126
  516TIP3    H2 1506   8.094   5.953   0.252
  517TIP3   OH2 1507   1.644   2.846   3.185
  517TIP3    H1 1508   1.723   2.899   3.187
  517TIP3    H2 1509   1.649   2.793   3.265
  518TIP3   OH2 1510   0.932   5.702   1.495
  518TIP3    H1 1511   0.930   5.623   1.440
  518TIP3    H2 1512   0.858   5.692   1.554
  519TIP3   OH2 1513   2.582   4.789   3.147
  519TIP3    H1 1514   2.592   4.829   3.061
  519TIP3    H2 1515   2.532   4.709   3.130
  520TIP3   OH2 1516   3.675   4.889   4.359
  520TIP3    H1 1517   3.706   4.846   4.280
  520TIP3    H2 1518   3.722   4.846   4.431
  521TIP3   OH2 1519   6.912   6.798   5.661
  521TIP3    H1 1520   6.906   6.717   5.710
  521TIP3    H2 1521   6.837   6.796   5.601
  522TIP3   OH2 1522   2.335   6.861   1.763
  522TIP3    H1 1523   2.323   6.787   1.822
  522TIP3    H2 1524   2.249   6.903   1.761
  523TIP3   OH2 1525   4.180   4.117   4.572
  523TIP3    H1 1526   4.085   4.114   4.580
  523TIP3    H2 1527   4.208   4.026   4.586
  524TIP3   OH2 1528   1.174   1.690   1.355
  524TIP3    H1 1529   1.165   1.765   1.296
  524TIP3    H2 1530   1.201   1.728   1.438
  525TIP3   OH2 1531   6.319   3.181   6.614
  525TIP3    H1 1532   6.408   3.213   6.601
  525TIP3    H2 1533   6.268   3.222   6.544
  526TIP3   OH2 1534   2.672   2.248   0.057
  526TIP3    H1 1535   2.692   2.341   0.051
  526TIP3    H2 1536   2.752   2.204   0.028
  527TIP3   OH2 1537   1.493   2.924   0.611
  527TIP3    H1 1538   1.547   3.001   0.593
  527TIP3    H2 1539   1.550   2.850   0.592
  528TIP3   OH2 1540   0.736   6.069   6.364
  528TIP3    H1 1541   0.720   6.138   6.428
  528TIP3    H2 1542   0.698   5.991   6.403
  529TIP3   OH2 1543   1.490   4.896   3.103
  529TIP3    H1 1544   1.395   4.885   3.116
  529TIP3    H2 1545   1.530   4.853   3.179
  530TIP3   OH2 1546   5.857   0.569   3.139
  530TIP3    H1 1547   5.892   0.522   3.216
  530TIP3    H2 1548   5.804   0.639   3.176
  531TIP3   OH2 1549   7.726   4.877   2.659
  531TIP3    H1 1550   7.732   4.898   2.566
  531TIP3    H2 1551   7.815   4.850   2.683
  532TIP3   OH2 1552   2.734   6.195   0.190
  532TIP3    H1 1553   2.819   6.231   0.164
  532TIP3    H2 1554   2.744   6.171   0.282
  533TIP3   OH2 1555   2.107   4.432   0.493
  533TIP3    H1 1556   2.055   4.497   0.446
  533TIP3    H2 1557   2.192   4.434   0.450
  534TIP3   OH2 1558   4.503   1.100   0.957
  534TIP3    H1 1559   4.500   1.178   1.013
  534TIP3    H2 1560   4.596   1.076   0.954
  535TIP3   OH2 1561   4.372   2.739   3.067
  535TIP3    H1 1562   4.389   2.772   2.978
  535TIP3    H2 1563   4.336   2.651   3.053
  536TIP3   OH2 1564   5.338   0.605   4.084
  536TIP3    H1 1565   5.430   0.589   4.065
  536TIP3    H2 1566   5.335   0.693   4.121
  537TIP3   OH2 1567   5.528   4.226   5.251
  537TIP3    H1 1568   5.612   4.210   5.294
  537TIP3    H2 1569   5.551   4.254   5.162
  538TIP3   OH2 1570   6.599   6.919   3.491
  538TIP3    H1 1571   6.582   6.836   3.537
  538TIP3    H2 1572   6.548   6.912   3.410
  539TIP3   OH2 1573   2.088   1.070   0.141
  539TIP3    H1 1574   2.071   1.003   0.206
  539TIP3    H2 1575   2.096   1.151   0.191
  540TIP3   OH2 1576   2.161   7.189   0.490
  540TIP3    H1 1577   2.175   7.262   0.431
  540TIP3    H2 1578   2.170   7.111   0.435
  541TIP3   OH2 1579   4.998   3.685   0.446
  541TIP3    H1 1580   5.016   3.778   0.459
  541TIP3    H2 1581   5.062   3.658   0.380
  542TIP3   OH2 1582   0.340   2.122   6.655
  542TIP3    H1 1583   0.421   2.128   6.705
  542TIP3    H2 1584   0.284   2.065   6.706
  543TIP3   OH2 1585   5.467   5.763   6.548
  543TIP3    H1 1586   5.540   5.744   6.607
  543TIP3    H2 1587   5.496   5.840   6.499
  544TIP3   OH2 1588   4.323   3.809   3.699
  544TIP3    H1 1589   4.366   3.856   3.627
  544TIP3    H2 1590   4.318   3.874   3.770
  545TIP3   OH2 1591   5.872   5.668   0.413
  545TIP3    H1 1592   5.952   5.718   0.397
  545TIP3    H2 1593   5.901   5.590   0.461
  546TIP3   OH2 1594   4.886   0.839   3.641
  546TIP3    H1 1595   4.878   0.837   3.737
  546TIP3    H2 1596   4.947   0.911   3.624
  547TIP3   OH2 1597   7.145   7.602   5.993
  547TIP3    H1 1598   7.233   7.591   5.957
  547TIP3    H2 1599   7.098   7.653   5.928
  548TIP3   OH2 1600   3.985   0.983   2.607
  548TIP3    H1 1601   4.034   0.969   2.688
  548TIP3    H2 1602   3.895   1.001   2.637
  549TIP3   OH2 1603   4.993   5.015   6.495
  549TIP3    H1 1604   4.992   5.078   6.423
  549TIP3    H2 1605   4.906   4.973   6.492
  550TIP3   OH2 1606   6.088   4.271   5.462
  550TIP3    H1 1607   6.015   4.327   5.489
  550TIP3    H2 1608   6.127   4.316   5.387
  551TIP3   OH2 1609   6.407   4.179   0.155
  551TIP3    H1 1610   6.470   4.189   0.226
  551TIP3    H2 1611   6.323   4.205   0.193
  552TIP3   OH2 1612   7.561   6.935   3.018
  552TIP3    H1 1613   7.551   7.020   3.061
  552TIP3    H2 1614   7.625   6.889   3.073
  553TIP3   OH2 1615   6.708   2.756   3.363
  553TIP3    H1 1616   6.661   2.825   3.317
  553TIP3    H2 1617   6.800   2.780   3.357
  554TIP3   OH2 1618   7.332   6.453   0.699
  554TIP3    H1 1619   7.311   6.361   0.685
  554TIP3    H2 1620   7.297   6.473   0.785
  555TIP3   OH2 1621   4.641   5.726   1.288
  555TIP3    H1 1622   4.657   5.718   1.382
  555TIP3    H2 1623   4.698   5.797   1.260
  556TIP3   OH2 1624   6.152   0.120   6.049
  556TIP3    H1 1625   6.131   0.112   6.142
  556TIP3    H2 1626   6.092   0.058   6.005
  557TIP3   OH2 1627   0.186   6.289   1.877
  557TIP3    H1 1628   0.220   6.229   1.944
  557TIP3    H2 1629   0.264   6.334   1.844
  558TIP3   OH2 1630   3.089   1.093   1.119
  558TIP3    H1 1631   3.014   1.150   1.134
  558TIP3    H2 1632   3.052   1.006   1.107
  559TIP3   OH2 1633   4.329   1.967   3.558
  559TIP3    H1 1634   4.286   1.921   3.630
  559TIP3    H2 1635   4.280   1.941   3.480
  560TIP3   OH2 1636   4.491   5.797   3.000
  560TIP3    H1 1637   4.451   5.861   2.941
  560TIP3    H2 1638   4.577   5.779   2.961
  561TIP3   OH2 1639   5.123   7.281   1.100
  561TIP3    H1 1640   5.103   7.204   1.046
  561TIP3    H2 1641   5.218   7.289   1.096
  562TIP3   OH2 1642   0.719   1.311   4.034
  562TIP3    H1 1643   0.753   1.249   4.098
  562TIP3    H2 1644   0.626   1.289   4.027
  563TIP3   OH2 1645   4.758   4.696   3.995
  563TIP3    H1 1646   4.773   4.608   3.961
  563TIP3    H2 1647   4.728   4.747   3.919
  564TIP3   OH2 1648   5.209   7.785   5.760
  564TIP3    H1 1649   5.293   7.812   5.724
  564TIP3    H2 1650   5.225   7.696   5.793
  565TIP3   OH2 1651   3.094   2.176   4.446
  565TIP3    H1 1652   3.013   2.133   4.418
  565TIP3    H2 1653   3.140   2.195   4.364
  566TIP3   OH2 1654   7.720   2.453   5.294
  566TIP3    H1 1655   7.807   2.416   5.278
  566TIP3    H2 1656   7.686   2.473   5.207
  567TIP3   OH2 1657   1.755   3.334   4.506
  567TIP3    H1 1658   1.674   3.337   4.557
  567TIP3    H2 1659   1.740   3.266   4.441
  568TIP3   OH2 1660   8.008   3.917   6.347
  568TIP3    H1 1661   7.983   3.898   6.257
  568TIP3    H2 1662   7.972   4.003   6.366
  569TIP3   OH2 1663   2.983   7.514   4.633
  569TIP3    H1 1664   3.015   7.424   4.630
  569TIP3    H2 1665   2.977   7.534   4.726
  570TIP3   OH2 1666   3.897   5.558   5.287
  570TIP3    H1 1667   3.822   5.593   5.240
  570TIP3    H2 1668   3.958   5.632   5.296
  571TIP3   OH2 1669   4.344   7.285   6.278
  571TIP3    H1 1670   4.422   7.273   6.224
  571TIP3    H2 1671   4.342   7.209   6.336
  572TIP3   OH2 1672   3.779   1.835   1.901
  572TIP3    H1 1673   3.781   1.876   1.987
  572TIP3    H2 1674   3.709   1.879   1.854
  573TIP3   OH2 1675   6.513   4.477   2.770
  573TIP3    H1 1676   6.545   4.556   2.727
  573TIP3    H2 1677   6.515   4.498   2.863
  574TIP3   OH2 1678   3.608   5.023   1.970
  574TIP3    H1 1679   3.678   5.002   2.032
  574TIP3    H2 1680   3.634   5.107   1.932
  575TIP3   OH2 1681   0.190   3.494   2.661
  575TIP3    H1 1682   0.284   3.505   2.646
  575TIP3    H2 1683   0.178   3.512   2.755
  576TIP3   OH2 1684   0.629   7.654   0.206
  576TIP3    H1 1685   0.717   7.655   0.169
  576TIP3    H2 1686   0.618   7.566   0.240
  577TIP3   OH2 1687   7.077   1.495   2.002
  577TIP3    H1 1688   7.125   1.479   1.921
  577TIP3    H2 1689   7.020   1.419   2.011
  578TIP3   OH2 1690   0.976   3.696   3.706
  578TIP3    H1 1691   1.047   3.724   3.648
  578TIP3    H2 1692   0.918   3.643   3.650
  579TIP3   OH2 1693   6.099   0.882   0.104
  579TIP3    H1 1694   6.164   0.813   0.087
  579TIP3    H2 1695   6.061   0.859   0.188
  580TIP3   OH2 1696   0.445   2.782   2.200
  580TIP3    H1 1697   0.527   2.802   2.155
  580TIP3    H2 1698   0.392   2.861   2.191
  581TIP3   OH2 1699   0.595   6.646   6.712
  581TIP3    H1 1700   0.601   6.560   6.752
  581TIP3    H2 1701   0.502   6.669   6.717
  582TIP3   OH2 1702   8.042   4.557   2.004
  582TIP3    H1 1703   8.053   4.586   1.914
  582TIP3    H2 1704   8.101   4.614   2.055
  583TIP3   OH2 1705   3.154   5.335   3.238
  583TIP3    H1 1706   3.224   5.284   3.280
  583TIP3    H2 1707   3.111   5.381   3.311
  584TIP3   OH2 1708   3.284   7.653   6.782
  584TIP3    H1 1709   3.361   7.711   6.792
  584TIP3    H2 1710   3.314   7.584   6.723
  585TIP3   OH2 1711   1.925   4.702   3.802
  585TIP3    H1 1712   1.887   4.737   3.722
  585TIP3    H2 1713   1.852   4.662   3.849
  586TIP3   OH2 1714   2.150   7.736   5.721
  586TIP3    H1 1715   2.243   7.752   5.702
  586TIP3    H2 1716   2.105   7.816   5.694
  587TIP3   OH2 1717   3.663   2.842   4.572
  587TIP3    H1 1718   3.716   2.873   4.499
  587TIP3    H2 1719   3.675   2.747   4.571
  588TIP3   OH2 1720   2.970   0.083   0.023
  588TIP3    H1 1721   3.028   0.014   0.057
  588TIP3    H2 1722   2.885   0.041   0.015
  589TIP3   OH2 1723   4.973   0.464   2.376
  589TIP3    H1 1724   4.885   0.434   2.354
  589TIP3    H2 1725   4.958   0.532   2.441
  590TIP3   OH2 1726   2.922   0.510   4.987
  590TIP3    H1 1727   2.986   0.463   4.935
  590TIP3    H2 1728   2.969   0.537   5.066
  591TIP3   OH2 1729   5.420   3.600   6.214
  591TIP3    H1 1730   5.432   3.663   6.143
  591TIP3    H2 1731   5.367   3.530   6.176
  592TIP3   OH2 1732   1.237   2.173   1.961
  592TIP3    H1 1733   1.205   2.183   2.051
  592TIP3    H2 1734   1.313   2.230   1.957
  593TIP3   OH2 1735   6.638   3.710   0.438
  593TIP3    H1 1736   6.557   3.755   0.412
  593TIP3    H2 1737   6.706   3.776   0.426
  594TIP3   OH2 1738   0.544   3.738   6.692
  594TIP3    H1 1739   0.532   3.810   6.630
  594TIP3    H2 1740   0.455   3.709   6.712
  595TIP3   OH2 1741   4.676   2.510   6.391
  595TIP3    H1 1742   4.601   2.474   6.440
  595TIP3    H2 1743   4.692   2.595   6.431
  596TIP3   OH2 1744   8.011   6.821   0.627
  596TIP3    H1 1745   8.005   6.855   0.538
  596TIP3    H2 1746   8.088   6.864   0.664
  597TIP3   OH2 1747   8.273   5.885   4.728
  597TIP3    H1 1748   8.268   5.972   4.688
  597TIP3    H2 1749   8.236   5.826   4.663
  598TIP3   OH2 1750   2.653   1.493   4.381
  598TIP3    H1 1751   2.646   1.407   4.424
  598TIP3    H2 1752   2.574   1.540   4.410
  599TIP3   OH2 1753   0.305   3.767   4.472
  599TIP3    H1 1754   0.263   3.793   4.554
  599TIP3    H2 1755   0.291   3.673   4.466
  600TIP3   OH2 1756   5.820   4.393   5.488
  600TIP3    H1 1757   5.754   4.392   5.558
  600TIP3    H2 1758   5.826   4.485   5.462
  601TIP3   OH2 1759   6.837   0.956   5.573
  601TIP3    H1 1760   6.896   1.031   5.575
  601TIP3    H2 1761   6.882   0.889   5.625
  602TIP3   OH2 1762   2.032   5.961   2.691
  602TIP3    H1 1763   1.954   5.957   2.636
  602TIP3    H2 1764   2.105   5.945   2.631
  603TIP3   OH2 1765   0.447   2.989   5.864
  603TIP3    H1 1766   0.443   2.947   5.778
  603TIP3    H2 1767   0.520   2.946   5.909
  604TIP3   OH2 1768   7.609   5.663   3.853
  604TIP3    H1 1769   7.647   5.751   3.845
  604TIP3    H2 1770   7.616   5.626   3.765
  605TIP3   OH2 1771   6.431   7.628   1.343
  605TIP3    H1 1772   6.476   7.546   1.366
  605TIP3    H2 1773   6.460   7.646   1.253
  606TIP3   OH2 1774   5.895   0.683   1.536
  606TIP3    H1 1775   5.950   0.741   1.588
  606TIP3    H2 1776   5.923   0.595   1.560
  607TIP3   OH2 1777   6.461   4.650   0.516
  607TIP3    H1 1778   6.462   4.569   0.566
  607TIP3    H2 1779   6.378   4.648   0.469
  608TIP3   OH2 1780   0.403   4.187   0.968
  608TIP3    H1 1781   0.388   4.113   0.909
  608TIP3    H2 1782   0.435   4.257   0.910
  609TIP3   OH2 1783   0.980   2.942   4.292
  609TIP3    H1 1784   0.936   2.890   4.360
  609TIP3    H2 1785   0.989   2.881   4.219
  610TIP3   OH2 1786   4.234   3.822   0.602
  610TIP3    H1 1787   4.295   3.868   0.659
  610TIP3    H2 1788   4.165   3.886   0.583
  611TIP3   OH2 1789   2.631   6.582   4.097
  611TIP3    H1 1790   2.559   6.586   4.160
  611TIP3    H2 1791   2.588   6.580   4.011
  612TIP3   OH2 1792   5.570   1.435   2.000
  612TIP3    H1 1793   5.662   1.437   2.024
  612TIP3    H2 1794   5.530   1.506   2.050
  613TIP3   OH2 1795   2.467   2.008   0.157
  613TIP3    H1 1796   2.541   2.056   0.121
  613TIP3    H2 1797   2.398   2.074   0.167
  614TIP3   OH2 1798   0.411   5.863   4.500
  614TIP3    H1 1799   0.478   5.831   4.440
  614TIP3    H2 1800   0.351   5.913   4.444
  615TIP3   OH2 1801   0.434   0.115   5.384
  615TIP3    H1 1802   0.340   0.132   5.391
  615TIP3    H2 1803   0.441   0.054   5.311
  616TIP3   OH2 1804   7.689   4.853   5.019
  616TIP3    H1 1805   7.728   4.940   5.008
  616TIP3    H2 1806   7.712   4.805   4.940
  617TIP3   OH2 1807   5.942   7.047   5.053
  617TIP3    H1 1808   5.851   7.072   5.035
  617TIP3    H2 1809   5.959   7.077   5.142
  618TIP3   OH2 1810   7.437   3.141   2.042
  618TIP3    H1 1811   7.388   3.089   2.105
  618TIP3    H2 1812   7.484   3.205   2.094
  619TIP3   OH2 1813   2.194   5.398   4.211
  619TIP3    H1 1814   2.168   5.339   4.140
  619TIP3    H2 1815   2.289   5.392   4.215
  620TIP3   OH2 1816   3.493   2.443   4.030
  620TIP3    H1 1817   3.521   2.436   3.939
  620TIP3    H2 1818   3.412   2.391   4.035
  621TIP3   OH2 1819   2.582   5.482   0.140
  621TIP3    H1 1820   2.648   5.528   0.088
  621TIP3    H2 1821   2.602   5.389   0.129
  622TIP3   OH2 1822   1.302   7.529   2.695
  622TIP3    H1 1823   1.232   7.465   2.683
  622TIP3    H2 1824   1.342   7.506   2.779
  623TIP3   OH2 1825   5.786   5.015   2.425
  623TIP3    H1 1826   5.743   4.933   2.401
  623TIP3    H2 1827   5.879   4.998   2.407
  624TIP3   OH2 1828   3.770   6.537   0.206
  624TIP3    H1 1829   3.819   6.491   0.138
  624TIP3    H2 1830   3.837   6.567   0.268
  625TIP3   OH2 1831   0.202   1.287   1.215
  625TIP3    H1 1832   0.184   1.308   1.307
  625TIP3    H2 1833   0.197   1.192   1.211
  626TIP3   OH2 1834   2.318   1.683   5.292
  626TIP3    H1 1835   2.365   1.753   5.338
  626TIP3    H2 1836   2.284   1.725   5.213
  627TIP3   OH2 1837   0.590   2.411   5.037
  627TIP3    H1 1838   0.635   2.328   5.057
  627TIP3    H2 1839   0.634   2.444   4.959
  628TIP3   OH2 1840   7.078   7.592   0.911
  628TIP3    H1 1841   7.156   7.594   0.966
  628TIP3    H2 1842   7.098   7.529   0.843
  629TIP3   OH2 1843   0.126   6.526   1.656
  629TIP3    H1 1844   0.150   6.535   1.748
  629TIP3    H2 1845   0.122   6.431   1.641
  630TIP3   OH2 1846   0.340   1.137   6.659
  630TIP3    H1 1847   0.294   1.081   6.596
  630TIP3    H2 1848   0.432   1.132   6.633
  631TIP3   OH2 1849   5.018   6.673   5.960
  631TIP3    H1 1850   5.074   6.719   6.022
  631TIP3    H2 1851   5.016   6.729   5.883
  632TIP3   OH2 1852   5.700   4.940   6.048
  632TIP3    H1 1853   5.716   4.860   5.998
  632TIP3    H2 1854   5.700   4.911   6.140
  633TIP3   OH2 1855   8.104   5.069   6.049
  633TIP3    H1 1856   8.045   5.120   5.993
  633TIP3    H2 1857   8.054   5.052   6.129
  634TIP3   OH2 1858   0.222   5.894   3.062
  634TIP3    H1 1859   0.170   5.973   3.046
  634TIP3    H2 1860   0.169   5.843   3.123
  635TIP3   OH2 1861   6.745   5.160   3.474
  635TIP3    H1 1862   6.704   5.074   3.467
  635TIP3    H2 1863   6.827   5.142   3.521
  636TIP3   OH2 1864   0.877   0.991   4.571
  636TIP3    H1 1865   0.938   0.918   4.563
  636TIP3    H2 1866   0.883   1.037   4.487
  637TIP3   OH2 1867   1.141   7.030   3.455
  637TIP3    H1 1868   1.218   7.086   3.468
  637TIP3    H2 1869   1.178   6.944   3.434
  638TIP3   OH2 1870   1.165   6.413   3.180
  638TIP3    H1 1871   1.251   6.442   3.152
  638TIP3    H2 1872   1.179   6.374   3.266
  639TIP3   OH2 1873   1.202   5.854   1.018
  639TIP3    H1 1874   1.261   5.824   0.949
  639TIP3    H2 1875   1.162   5.934   0.983
  640TIP3   OH2 1876   1.715   5.489   3.357
  640TIP3    H1 1877   1.797   5.471   3.311
  640TIP3    H2 1878   1.648   5.440   3.309
  641TIP3   OH2 1879   5.627   6.158   0.928
  641TIP3    H1 1880   5.704   6.211   0.908
  641TIP3    H2 1881   5.609   6.176   1.021
  642TIP3   OH2 1882   6.227   2.657   4.295
  642TIP3    H1 1883   6.310   2.613   4.315
  642TIP3    H2 1884   6.162   2.612   4.349
  643TIP3   OH2 1885   3.738   5.332   5.942
  643TIP3    H1 1886   3.701   5.394   6.005
  643TIP3    H2 1887   3.803   5.384   5.894
  644TIP3   OH2 1888   4.425   6.607   6.354
  644TIP3    H1 1889   4.453   6.669   6.422
  644TIP3    H2 1890   4.417   6.660   6.275
  645TIP3   OH2 1891   1.643   4.539   2.441
  645TIP3    H1 1892   1.726   4.582   2.459
  645TIP3    H2 1893   1.580   4.584   2.497
  646TIP3   OH2 1894   8.165   0.366   4.547
  646TIP3    H1 1895   8.075   0.391   4.565
  646TIP3    H2 1896   8.173   0.373   4.451
  647TIP3   OH2 1897   1.485   5.462   0.954
  647TIP3    H1 1898   1.494   5.509   1.038
  647TIP3    H2 1899   1.486   5.370   0.978
  648TIP3   OH2 1900   5.393   3.599   3.108
  648TIP3    H1 1901   5.435   3.600   3.022
  648TIP3    H2 1902   5.313   3.651   3.097
  649TIP3   OH2 1903   2.760   6.446   5.806
  649TIP3    H1 1904   2.854   6.465   5.816
  649TIP3    H2 1905   2.739   6.392   5.883
  650TIP3   OH2 1906   1.039   7.516   3.618
  650TIP3    H1 1907   1.028   7.530   3.524
  650TIP3    H2 1908   1.044   7.604   3.655
  651TIP3   OH2 1909   4.633   5.032   3.669
  651TIP3    H1 1910   4.611   5.114   3.626
  651TIP3    H2 1911   4.626   5.051   3.762
  652TIP3   OH2 1912   0.701   0.363   1.331
  652TIP3    H1 1913   0.780   0.394   1.286
  652TIP3    H2 1914   0.629   0.400   1.281
  653TIP3   OH2 1915   0.019   3.453   5.012
  653TIP3    H1 1916   0.009   3.387   4.944
  653TIP3    H2 1917  -0.025   3.415   5.089
  654TIP3   OH2 1918   5.087   2.955   5.282
  654TIP3    H1 1919   5.132   3.032   5.247
  654TIP3    H2 1920   5.157   2.906   5.327
  655TIP3   OH2 1921   3.970   7.362   2.843
  655TIP3    H1 1922   4.000   7.388   2.755
  655TIP3    H2 1923   3.932   7.275   2.830
  656TIP3   OH2 1924   4.178   3.763   6.003
  656TIP3    H1 1925   4.272   3.782   5.993
  656TIP3    H2 1926   4.150   3.733   5.917
  657TIP3   OH2 1927   6.914   0.663   1.183
  657TIP3    H1 1928   6.936   0.756   1.174
  657TIP3    H2 1929   6.880   0.638   1.097
  658TIP3   OH2 1930   7.677   2.437   5.968
  658TIP3    H1 1931   7.647   2.449   6.058
  658TIP3    H2 1932   7.764   2.398   5.977
  659TIP3   OH2 1933   6.979   1.405   0.423
  659TIP3    H1 1934   7.031   1.330   0.452
  659TIP3    H2 1935   6.915   1.418   0.493
  660TIP3   OH2 1936   1.034   1.088   5.426
  660TIP3    H1 1937   0.949   1.044   5.434
  660TIP3    H2 1938   1.053   1.120   5.514
  661TIP3   OH2 1939   5.173   0.463   0.247
  661TIP3    H1 1940   5.190   0.396   0.181
  661TIP3    H2 1941   5.206   0.425   0.329
  662TIP3   OH2 1942   1.439   7.365   5.057
  662TIP3    H1 1943   1.532   7.345   5.065
  662TIP3    H2 1944   1.398   7.317   5.129
  663TIP3   OH2 1945   0.405   2.234   4.756
  663TIP3    H1 1946   0.341   2.281   4.809
  663TIP3    H2 1947   0.401   2.277   4.670
  664TIP3   OH2 1948   5.538   2.241   4.884
  664TIP3    H1 1949   5.593   2.311   4.919
  664TIP3    H2 1950   5.493   2.280   4.809
  665TIP3   OH2 1951   3.365   0.964   2.219
  665TIP3    H1 1952   3.297   0.926   2.274
  665TIP3    H2 1953   3.379   1.051   2.256
  666TIP3   OH2 1954   0.447   0.370   2.189
  666TIP3    H1 1955   0.366   0.380   2.239
  666TIP3    H2 1956   0.420   0.371   2.098
  667TIP3   OH2 1957   2.234   4.465   3.453
  667TIP3    H1 1958   2.221   4.501   3.540
  667TIP3    H2 1959   2.205   4.374   3.459
  668TIP3   OH2 1960   0.579   3.561   0.304
  668TIP3    H1 1961   0.493   3.528   0.276
  668TIP3    H2 1962   0.565   3.655   0.314
  669TIP3   OH2 1963   6.357   4.704   4.319
  669TIP3    H1 1964   6.273   4.679   4.358
  669TIP3    H2 1965   6.421   4.695   4.389
  670TIP3   OH2 1966   7.276   5.050   6.218
  670TIP3    H1 1967   7.294   4.956   6.223
  670TIP3    H2 1968   7.359   5.091   6.241
  671TIP3   OH2 1969   8.108   3.635   3.226
  671TIP3    H1 1970   8.070   3.568   3.282
  671TIP3    H2 1971   8.202   3.632   3.245
  672TIP3   OH2 1972   5.807   5.831   5.022
  672TIP3    H1 1973   5.768   5.862   5.103
  672TIP3    H2 1974   5.770   5.744   5.008
  673TIP3   OH2 1975   4.096   2.119   6.080
  673TIP3    H1 1976   4.177   2.108   6.030
  673TIP3    H2 1977   4.095   2.212   6.104
  674TIP3   OH2 1978   5.986   6.685   2.482
  674TIP3    H1 1979   5.943   6.722   2.558
  674TIP3    H2 1980   5.917   6.679   2.416
  675TIP3   OH2 1981   1.835   7.492   3.468
  675TIP3    H1 1982   1.773   7.547   3.516
  675TIP3    H2 1983   1.782   7.453   3.398
  676TIP3   OH2 1984   4.618   5.107   6.062
  676TIP3    H1 1985   4.605   5.176   5.998
  676TIP3    H2 1986   4.535   5.060   6.065
  677TIP3   OH2 1987   3.438   0.723   1.980
  677TIP3    H1 1988   3.420   0.671   1.902
  677TIP3    H2 1989   3.463   0.809   1.946
  678TIP3   OH2 1990   6.315   1.736   5.175
  678TIP3    H1 1991   6.304   1.827   5.203
  678TIP3    H2 1992   6.361   1.743   5.091
  679TIP3   OH2 1993   3.636   5.334   4.521
  679TIP3    H1 1994   3.578   5.258   4.525
  679TIP3    H2 1995   3.594   5.394   4.459
  680TIP3   OH2 1996   2.658   5.117   5.817
  680TIP3    H1 1997   2.714   5.179   5.769
  680TIP3    H2 1998   2.581   5.107   5.763
  681TIP3   OH2 1999   1.046   6.530   1.410
  681TIP3    H1 2000   1.094   6.449   1.430
  681TIP3    H2 2001   1.073   6.552   1.321
  682TIP3   OH2 2002   2.186   3.728   4.653
  682TIP3    H1 2003   2.147   3.787   4.716
  682TIP3    H2 2004   2.119   3.717   4.585
  683TIP3   OH2 2005   7.632   5.443   0.155
  683TIP3    H1 2006   7.640   5.422   0.062
  683TIP3    H2 2007   7.663   5.533   0.163
  684TIP3   OH2 2008   2.042   0.335   3.552
  684TIP3    H1 2009   2.036   0.405   3.617
  684TIP3    H2 2010   2.094   0.374   3.481
  685TIP3   OH2 2011   0.811   5.316   0.386
  685TIP3    H1 2012   0.807   5.375   0.311
  685TIP3    H2 2013   0.901   5.284   0.387
  686TIP3   OH2 2014   3.591   4.588   3.435
  686TIP3    H1 2015   3.587   4.493   3.441
  686TIP3    H2 2016   3.673   4.611   3.477
  687TIP3   OH2 2017   0.174   4.231   6.339
  687TIP3    H1 2018   0.146   4.243   6.429
  687TIP3    H2 2019   0.099   4.192   6.295
  688TIP3   OH2 2020   5.338   5.831   5.899
  688TIP3    H1 2021   5.261   5.869   5.941
  688TIP3    H2 2022   5.328   5.737   5.912
  689TIP3   OH2 2023   4.272   4.839   4.409
  689TIP3    H1 2024   4.182   4.851   4.381
  689TIP3    H2 2025   4.288   4.745   4.402
  690TIP3   OH2 2026   6.931   5.312   4.383
  690TIP3    H1 2027   6.950   5.403   4.363
  690TIP3    H2 2028   6.842   5.314   4.420
  691TIP3   OH2 2029   2.347   1.983   2.426
  691TIP3    H1 2030   2.403   1.910   2.449
  691TIP3    H2 2031   2.378   2.055   2.480
  692TIP3   OH2 2032   7.251   2.144   3.195
  692TIP3    H1 2033   7.264   2.183   3.282
  692TIP3    H2 2034   7.201   2.064   3.212
  693TIP3   OH2 2035   0.950   0.840   1.207
  693TIP3    H1 2036   0.941   0.789   1.127
  693TIP3    H2 2037   0.961   0.774   1.276
  694TIP3   OH2 2038   2.661   0.152   1.356
  694TIP3    H1 2039   2.582   0.173   1.306
  694TIP3    H2 2040   2.628   0.104   1.433
  695TIP3   OH2 2041   3.258   1.665   3.612
  695TIP3    H1 2042   3.231   1.588   3.562
  695TIP3    H2 2043   3.272   1.733   3.545
  696TIP3   OH2 2044   0.701   1.749   0.588
  696TIP3    H1 2045   0.665   1.758   0.499
  696TIP3    H2 2046   0.700   1.838   0.623
  697TIP3   OH2 2047   1.667   5.840   4.794
  697TIP3    H1 2048   1.584   5.864   4.835
  697TIP3    H2 2049   1.653   5.751   4.761
  698TIP3   OH2 2050   7.262   3.219   5.087
  698TIP3    H1 2051   7.240   3.127   5.096
  698TIP3    H2 2052   7.300   3.226   5.000
  699TIP3   OH2 2053   4.958   7.764   4.655
  699TIP3    H1 2054   4.995   7.756   4.743
  699TIP3    H2 2055   5.035   7.769   4.597
  700TIP3   OH2 2056   7.017   1.180   4.067
  700TIP3    H1 2057   7.014   1.095   4.023
  700TIP3    H2 2058   7.108   1.189   4.096
  701TIP3   OH2 2059   7.418   5.248   2.938
  701TIP3    H1 2060   7.441   5.217   2.850
  701TIP3    H2 2061   7.398   5.168   2.987
  702TIP3   OH2 2062   3.653   5.310   0.736
  702TIP3    H1 2063   3.735   5.265   0.717
  702TIP3    H2 2064   3.677   5.403   0.741
  703TIP3   OH2 2065   7.850   4.136   6.386
  703TIP3    H1 2066   7.768   4.141   6.436
  703TIP3    H2 2067   7.839   4.201   6.316
  704TIP3   OH2 2068   3.779   7.656   1.392
  704TIP3    H1 2069   3.841   7.637   1.322
  704TIP3    H2 2070   3.709   7.705   1.349
  705TIP3   OH2 2071   6.226   4.246   6.409
  705TIP3    H1 2072   6.270   4.206   6.484
  705TIP3    H2 2073   6.157   4.299   6.448
  706TIP3   OH2 2074   4.569   1.997   2.383
  706TIP3    H1 2075   4.491   1.981   2.436
  706TIP3    H2 2076   4.598   1.909   2.357
  707TIP3   OH2 2077   1.110   0.453   3.152
  707TIP3    H1 2078   1.061   0.370   3.143
  707TIP3    H2 2079   1.181   0.445   3.089
  708TIP3   OH2 2080   6.847   6.210   5.083
  708TIP3    H1 2081   6.765   6.192   5.129
  708TIP3    H2 2082   6.913   6.212   5.152
  709TIP3   OH2 2083   3.174   4.041   4.241
  709TIP3    H1 2084   3.146   4.023   4.151
  709TIP3    H2 2085   3.092   4.051   4.290
  710TIP3   OH2 2086   1.235   7.396   3.412
  710TIP3    H1 2087   1.139   7.400   3.408
  710TIP3    H2 2088   1.254   7.303   3.422
  711TIP3   OH2 2089   7.005   0.777   2.620
  711TIP3    H1 2090   7.090   0.806   2.587
  711TIP3    H2 2091   6.945   0.849   2.598
  712TIP3   OH2 2092   6.038   2.106   4.094
  712TIP3    H1 2093   5.961   2.161   4.077
  712TIP3    H2 2094   6.048   2.108   4.189
  713TIP3   OH2 2095   7.246   3.132   5.772
  713TIP3    H1 2096   7.159   3.114   5.808
  713TIP3    H2 2097   7.257   3.227   5.781
  714TIP3   OH2 2098   3.987   5.283   5.499
  714TIP3    H1 2099   3.955   5.357   5.447
  714TIP3    H2 2100   3.927   5.279   5.573
  715TIP3   OH2 2101   3.265   5.633   5.393
  715TIP3    H1 2102   3.258   5.699   5.462
  715TIP3    H2 2103   3.310   5.679   5.322
  716TIP3   OH2 2104   1.989   1.662   5.222
  716TIP3    H1 2105   1.907   1.622   5.195
  716TIP3    H2 2106   2.048   1.647   5.148
  717TIP3   OH2 2107   0.392   7.014   2.431
  717TIP3    H1 2108   0.461   7.003   2.497
  717TIP3    H2 2109   0.440   7.025   2.349
  718TIP3   OH2 2110   6.916   3.546   1.543
  718TIP3    H1 2111   6.826   3.581   1.546
  718TIP3    H2 2112   6.926   3.499   1.626
  719TIP3   OH2 2113   7.224   3.731   0.518
  719TIP3    H1 2114   7.316   3.738   0.542
  719TIP3    H2 2115   7.213   3.792   0.445
  720TIP3   OH2 2116   3.095   0.702   2.097
  720TIP3    H1 2117   3.099   0.709   2.002
  720TIP3    H2 2118   3.025   0.763   2.123
  721TIP3   OH2 2119   7.082   1.176   1.129
  721TIP3    H1 2120   7.084   1.262   1.171
  721TIP3    H2 2121   7.042   1.191   1.044
  722TIP3   OH2 2122   8.104   1.757   2.963
  722TIP3    H1 2123   8.069   1.717   3.043
  722TIP3    H2 2124   8.193   1.721   2.955
  723TIP3   OH2 2125   0.582   1.963   4.775
  723TIP3    H1 2126   0.549   2.050   4.753
  723TIP3    H2 2127   0.676   1.967   4.756
  724TIP3   OH2 2128   2.032   4.558   0.731
  724TIP3    H1 2129   1.953   4.609   0.745
  724TIP3    H2 2130   2.036   4.544   0.636
  725TIP3   OH2 2131   6.688   4.454   4.650
  725TIP3    H1 2132   6.782   4.466   4.637
  725TIP3    H2 2133   6.679   4.435   4.744
  726TIP3   OH2 2134   4.802   7.395   3.591
  726TIP3    H1 2135   4.731   7.442   3.635
  726TIP3    H2 2136   4.759   7.318   3.552
  727TIP3   OH2 2137   7.831   3.545   6.674
  727TIP3    H1 2138   7.847   3.511   6.586
  727TIP3    H2 2139   7.852   3.472   6.732
  728TIP3   OH2 2140   0.480   4.247   2.987
  728TIP3    H1 2141   0.544   4.306   3.025
  728TIP3    H2 2142   0.399   4.299   2.983
  729TIP3   OH2 2143   0.135   1.826   0.925
  729TIP3    H1 2144   0.047   1.865   0.926
  729TIP3    H2 2145   0.143   1.783   1.010
  730TIP3   OH2 2146   5.620   4.502   1.833
  730TIP3    H1 2147   5.693   4.452   1.871
  730TIP3    H2 2148   5.560   4.517   1.906
  731TIP3   OH2 2149   4.212   7.334   3.030
  731TIP3    H1 2150   4.135   7.315   2.976
  731TIP3    H2 2151   4.240   7.249   3.064
  732TIP3   OH2 2152   2.018   2.707   5.701
  732TIP3    H1 2153   1.982   2.767   5.766
  732TIP3    H2 2154   2.085   2.758   5.655
  733TIP3   OH2 2155   6.651   1.832   3.569
  733TIP3    H1 2156   6.721   1.824   3.634
  733TIP3    H2 2157   6.665   1.757   3.510
  734TIP3   OH2 2158   5.612   0.557   4.082
  734TIP3    H1 2159   5.641   0.510   4.160
  734TIP3    H2 2160   5.647   0.506   4.009
  735TIP3   OH2 2161   3.308   6.312   1.985
  735TIP3    H1 2162   3.374   6.280   1.924
  735TIP3    H2 2163   3.232   6.333   1.930
  736TIP3   OH2 2164   5.728   4.481   6.057
  736TIP3    H1 2165   5.703   4.551   6.118
  736TIP3    H2 2166   5.712   4.518   5.970
  737TIP3   OH2 2167   6.152   6.467   3.797
  737TIP3    H1 2168   6.217   6.403   3.823
  737TIP3    H2 2169   6.072   6.439   3.841
  738TIP3   OH2 2170   7.752   5.755   4.145
  738TIP3    H1 2171   7.696   5.829   4.169
  738TIP3    H2 2172   7.691   5.683   4.129
  739TIP3   OH2 2173   6.677   5.708   2.090
  739TIP3    H1 2174   6.765   5.743   2.102
  739TIP3    H2 2175   6.691   5.618   2.060
  740TIP3   OH2 2176   7.883   5.724   2.213
  740TIP3    H1 2177   7.912   5.709   2.303
  740TIP3    H2 2178   7.842   5.811   2.217
  741TIP3   OH2 2179   2.251   1.372   3.421
  741TIP3    H1 2180   2.306   1.328   3.356
  741TIP3    H2 2181   2.312   1.396   3.491
  742TIP3   OH2 2182   7.169   0.680   2.219
  742TIP3    H1 2183   7.199   0.626   2.145
  742TIP3    H2 2184   7.223   0.759   2.214
  743TIP3   OH2 2185   0.471   3.861   3.943
  743TIP3    H1 2186   0.528   3.847   3.868
  743TIP3    H2 2187   0.488   3.786   4.001
  744TIP3   OH2 2188   8.225   1.120   0.533
  744TIP3    H1 2189   8.184   1.205   0.550
  744TIP3    H2 2190   8.284   1.107   0.608
  745TIP3   OH2 2191   2.185   5.826   4.804
  745TIP3    H1 2192   2.116   5.821   4.737
  745TIP3    H2 2193   2.237   5.902   4.779
  746TIP3   OH2 2194   1.189   5.307   2.578
  746TIP3    H1 2195   1.158   5.334   2.664
  746TIP3    H2 2196   1.118   5.255   2.542
  747TIP3   OH2 2197   3.985   5.732   4.892
  747TIP3    H1 2198   4.049   5.778   4.837
  747TIP3    H2 2199   3.925   5.801   4.921
  748TIP3   OH2 2200   3.465   7.642   2.966
  748TIP3    H1 2201   3.553   7.624   2.933
  748TIP3    H2 2202   3.461   7.596   3.050
  749TIP3   OH2 2203   7.340   0.780   2.811
  749TIP3    H1 2204   7.304   0.799   2.725
  749TIP3    H2 2205   7.409   0.845   2.823
  750TIP3   OH2 2206   0.405   5.376   1.311
  750TIP3    H1 2207   0.478   5.438   1.313
  750TIP3    H2 2208   0.340   5.419   1.254
  751TIP3   OH2 2209   2.362   6.476   0.959
  751TIP3    H1 2210   2.351   6.543   0.892
  751TIP3    H2 2211   2.348   6.522   1.042
  752TIP3   OH2 2212   4.248   5.509   1.521
  752TIP3    H1 2213   4.263   5.545   1.609
  752TIP3    H2 2214   4.336   5.495   1.486
  753TIP3   OH2 2215   6.996   6.219   3.890
  753TIP3    H1 2216   7.067   6.223   3.954
  753TIP3    H2 2217   6.917   6.236   3.941
  754TIP3   OH2 2218   8.178   1.924   0.848
  754TIP3    H1 2219   8.083   1.930   0.861
  754TIP3    H2 2220   8.201   2.003   0.800
  755TIP3   OH2 2221   5.296   6.221   3.612
  755TIP3    H1 2222   5.289   6.200   3.519
  755TIP3    H2 2223   5.216   6.184   3.650
  756TIP3   OH2 2224   4.107   7.008   4.351
  756TIP3    H1 2225   4.044   7.033   4.284
  756TIP3    H2 2226   4.053   6.971   4.421
  757TIP3   OH2 2227   7.279   1.251   4.052
  757TIP3    H1 2228   7.350   1.250   4.115
  757TIP3    H2 2229   7.299   1.324   3.993
  758TIP3   OH2 2230   3.103   3.070   1.034
  758TIP3    H1 2231   3.165   3.142   1.038
  758TIP3    H2 2232   3.123   3.016   1.111
  759TIP3   OH2 2233   0.449   6.822   2.946
  759TIP3    H1 2234   0.447   6.906   2.992
  759TIP3    H2 2235   0.363   6.815   2.904
  760TIP3   OH2 2236   5.715   6.424   2.143
  760TIP3    H1 2237   5.750   6.345   2.103
  760TIP3    H2 2238   5.620   6.415   2.137
  761TIP3   OH2 2239   6.029   7.218   3.140
  761TIP3    H1 2240   5.970   7.160   3.186
  761TIP3    H2 2241   6.116   7.194   3.172
  762TIP3   OH2 2242   1.038   0.014   0.492
  762TIP3    H1 2243   1.122   0.049   0.461
  762TIP3    H2 2244   1.004   0.082   0.550
  763TIP3   OH2 2245   2.477   6.302   6.338
  763TIP3    H1 2246   2.395   6.259   6.360
  763TIP3    H2 2247   2.469   6.322   6.245
  764TIP3   OH2 2248   1.117   2.690   4.583
  764TIP3    H1 2249   1.041   2.722   4.534
  764TIP3    H2 2250   1.111   2.595   4.577
  765TIP3   OH2 2251   3.873   3.572   1.565
  765TIP3    H1 2252   3.802   3.527   1.520
  765TIP3    H2 2253   3.937   3.591   1.496
  766TIP3   OH2 2254   0.085   5.213   1.511
  766TIP3    H1 2255   0.171   5.182   1.482
  766TIP3    H2 2256   0.094   5.308   1.516
  767TIP3   OH2 2257   6.218   6.355   1.317
  767TIP3    H1 2258   6.232   6.272   1.362
  767TIP3    H2 2259   6.203   6.330   1.226
  768TIP3   OH2 2260   2.950   2.563   2.123
  768TIP3    H1 2261   2.914   2.633   2.178
  768TIP3    H2 2262   2.900   2.485   2.148
  769TIP3   OH2 2263   3.098   1.433   5.311
  769TIP3    H1 2264   3.175   1.393   5.271
  769TIP3    H2 2265   3.092   1.520   5.271
  770TIP3   OH2 2266   0.291   4.035   2.929
  770TIP3    H1 2267   0.327   4.122   2.911
  770TIP3    H2 2268   0.365   3.986   2.964
  771TIP3   OH2 2269   2.114   3.254   5.862
  771TIP3    H1 2270   2.175   3.212   5.801
  771TIP3    H2 2271   2.034   3.267   5.812
  772TIP3   OH2 2272   3.835   4.101   3.335
  772TIP3    H1 2273   3.914   4.155   3.342
  772TIP3    H2 2274   3.844   4.055   3.252
  773TIP3   OH2 2275   2.598   2.150   4.987
  773TIP3    H1 2276   2.599   2.092   5.063
  773TIP3    H2 2277   2.669   2.116   4.931
  774TIP3   OH2 2278   8.250   5.471   4.876
  774TIP3    H1 2279   8.278   5.509   4.793
  774TIP3    H2 2280   8.200   5.541   4.918
  775TIP3   OH2 2281   1.098   5.524   4.358
  775TIP3    H1 2282   1.120   5.530   4.265
  775TIP3    H2 2283   1.178   5.551   4.403
  776TIP3   OH2 2284   7.247   1.450   2.381
  776TIP3    H1 2285   7.263   1.537   2.345
  776TIP3    H2 2286   7.187   1.465   2.454
  777TIP3   OH2 2287   5.121   1.890   6.586
  777TIP3    H1 2288   5.157   1.846   6.663
  777TIP3    H2 2289   5.028   1.902   6.608
  778TIP3   OH2 2290   0.050   0.755   5.226
  778TIP3    H1 2291   0.001   0.804   5.292
  778TIP3    H2 2292   0.044   0.664   5.255
  779TIP3   OH2 2293   1.342   7.397   4.486
  779TIP3    H1 2294   1.414   7.434   4.435
  779TIP3    H2 2295   1.337   7.451   4.564
  780TIP3   OH2 2296   6.919   2.058   2.988
  780TIP3    H1 2297   6.880   2.064   2.901
  780TIP3    H2 2298   7.011   2.080   2.975
  781TIP3   OH2 2299   6.214   1.259   4.815
  781TIP3    H1 2300   6.298   1.233   4.777
  781TIP3    H2 2301   6.205   1.203   4.892
  782TIP3   OH2 2302   4.136   2.179   3.486
  782TIP3    H1 2303   4.145   2.177   3.391
  782TIP3    H2 2304   4.082   2.102   3.506
  783TIP3   OH2 2305   3.806   3.585   1.815
  783TIP3    H1 2306   3.805   3.556   1.724
  783TIP3    H2 2307   3.785   3.679   1.810
  784TIP3   OH2 2308   4.764   6.004   1.286
  784TIP3    H1 2309   4.739   6.044   1.203
  784TIP3    H2 2310   4.859   6.009   1.288
  785TIP3   OH2 2311   1.210   7.274   2.467
  785TIP3    H1 2312   1.143   7.288   2.535
  785TIP3    H2 2313   1.199   7.348   2.407
  786TIP3   OH2 2314   0.475   7.809   6.266
  786TIP3    H1 2315   0.563   7.804   6.304
  786TIP3    H2 2316   0.418   7.821   6.341
  787TIP3   OH2 2317   6.318   2.449   4.649
  787TIP3    H1 2318   6.395   2.478   4.697
  787TIP3    H2 2319   6.274   2.388   4.709
  788TIP3   OH2 2320   7.894   5.954   5.270
  788TIP3    H1 2321   7.910   5.947   5.364
  788TIP3    H2 2322   7.964   6.011   5.238
  789TIP3   OH2 2323   3.630   5.945   6.056
  789TIP3    H1 2324   3.712   5.986   6.026
  789TIP3    H2 2325   3.641   5.938   6.151
  790TIP3   OH2 2326   1.813   0.831   1.754
  790TIP3    H1 2327   1.848   0.797   1.672
  790TIP3    H2 2328   1.773   0.915   1.729
  791TIP3   OH2 2329   4.709   3.444   5.878
  791TIP3    H1 2330   4.657   3.500   5.935
  791TIP3    H2 2331   4.644   3.387   5.835
  792TIP3   OH2 2332   0.398   1.586   3.569
  792TIP3    H1 2333   0.443   1.507   3.540
  792TIP3    H2 2334   0.441   1.609   3.651
  793TIP3   OH2 2335   7.683   1.459   1.304
  793TIP3    H1 2336   7.729   1.465   1.387
  793TIP3    H2 2337   7.655   1.549   1.286
  794TIP3   OH2 2338   3.255   5.322   0.168
  794TIP3    H1 2339   3.305   5.399   0.141
  794TIP3    H2 2340   3.321   5.261   0.201
  795TIP3   OH2 2341   3.404   2.531   4.416
  795TIP3    H1 2342   3.485   2.484   4.397
  795TIP3    H2 2343   3.396   2.595   4.345
  796TIP3   OH2 2344   4.262   5.197   0.739
  796TIP3    H1 2345   4.202   5.157   0.676
  796TIP3    H2 2346   4.349   5.173   0.709
  797TIP3   OH2 2347   4.107   7.498   5.469
  797TIP3    H1 2348   4.146   7.585   5.479
  797TIP3    H2 2349   4.120   7.476   5.377
  798TIP3   OH2 2350   4.554   0.684   6.586
  798TIP3    H1 2351   4.498   0.670   6.663
  798TIP3    H2 2352   4.587   0.773   6.597
  799TIP3   OH2 2353   7.050   4.837   1.019
  799TIP3    H1 2354   7.042   4.762   0.960
  799TIP3    H2 2355   7.007   4.909   0.972
  800TIP3   OH2 2356   5.915   1.024   1.022
  800TIP3    H1 2357   6.009   1.016   1.005
  800TIP3    H2 2358   5.895   0.955   1.085
  801TIP3   OH2 2359   5.999   3.089   3.561
  801TIP3    H1 2360   6.049   3.050   3.489
  801TIP3    H2 2361   6.050   3.068   3.639
  802TIP3   OH2 2362   6.980   5.570   6.449
  802TIP3    H1 2363   6.965   5.546   6.358
  802TIP3    H2 2364   7.053   5.632   6.446
  803TIP3   OH2 2365   5.812   7.156   1.648
  803TIP3    H1 2366   5.728   7.123   1.619
  803TIP3    H2 2367   5.828   7.113   1.733
  804TIP3   OH2 2368   3.508   5.929   2.548
  804TIP3    H1 2369   3.550   5.882   2.621
  804TIP3    H2 2370   3.507   6.020   2.576
  805TIP3   OH2 2371   3.229   6.909   3.497
  805TIP3    H1 2372   3.190   6.881   3.580
  805TIP3    H2 2373   3.289   6.839   3.473
  806TIP3   OH2 2374   0.114   2.073   6.244
  806TIP3    H1 2375   0.126   1.982   6.269
  806TIP3    H2 2376   0.181   2.120   6.293
  807TIP3   OH2 2377   2.352   5.894   1.572
  807TIP3    H1 2378   2.420   5.851   1.623
  807TIP3    H2 2379   2.357   5.852   1.486
  808TIP3   OH2 2380   7.110   1.744   2.171
  808TIP3    H1 2381   7.051   1.746   2.246
  808TIP3    H2 2382   7.081   1.670   2.119
  809TIP3   OH2 2383   3.674   0.690   5.432
  809TIP3    H1 2384   3.768   0.703   5.421
  809TIP3    H2 2385   3.638   0.778   5.438
  810TIP3   OH2 2386   5.825   6.593   3.977
  810TIP3    H1 2387   5.822   6.502   3.947
  810TIP3    H2 2388   5.917   6.607   4.002
  811TIP3   OH2 2389   0.882   5.503   0.621
  811TIP3    H1 2390   0.869   5.598   0.615
  811TIP3    H2 2391   0.832   5.468   0.547
  812TIP3   OH2 2392   4.136   5.681   4.227
  812TIP3    H1 2393   4.151   5.734   4.148
  812TIP3    H2 2394   4.154   5.741   4.299
  813TIP3   OH2 2395   6.281   7.760   1.881
  813TIP3    H1 2396   6.230   7.770   1.962
  813TIP3    H2 2397   6.361   7.716   1.909
  814TIP3   OH2 2398   4.297   3.001   6.454
  814TIP3    H1 2399   4.357   2.926   6.459
  814TIP3    H2 2400   4.355   3.078   6.451
  815TIP3   OH2 2401   7.037   3.137   6.764
  815TIP3    H1 2402   6.970   3.143   6.832
  815TIP3    H2 2403   7.052   3.044   6.753
  816TIP3   OH2 2404   0.521   1.323   3.425
  816TIP3    H1 2405   0.551   1.262   3.358
  816TIP3    H2 2406   0.511   1.270   3.504
  817TIP3   OH2 2407   3.307   4.140   6.751
  817TIP3    H1 2408   3.340   4.187   6.828
  817TIP3    H2 2409   3.374   4.155   6.684
  818TIP3   OH2 2410   6.543   5.816   3.581
  818TIP3    H1 2411   6.563   5.727   3.552
  818TIP3    H2 2412   6.475   5.805   3.647
  819TIP3   OH2 2413   3.909   5.629   6.171
  819TIP3    H1 2414   3.984   5.584   6.210
  819TIP3    H2 2415   3.937   5.720   6.161
  820TIP3   OH2 2416   1.687   2.648   6.717
  820TIP3    H1 2417   1.662   2.561   6.748
  820TIP3    H2 2418   1.770   2.633   6.670
  821TIP3   OH2 2419   6.938   4.606   4.558
  821TIP3    H1 2420   6.936   4.629   4.465
  821TIP3    H2 2421   6.989   4.525   4.562
  822TIP3   OH2 2422   7.760   1.177   5.368
  822TIP3    H1 2423   7.685   1.134   5.408
  822TIP3    H2 2424   7.743   1.271   5.380
  823TIP3   OH2 2425   0.019   2.328   4.291
  823TIP3    H1 2426  -0.046   2.291   4.232
  823TIP3    H2 2427   0.086   2.261   4.298
  824TIP3   OH2 2428   1.990   0.004   0.441
  824TIP3    H1 2429   2.048   0.008   0.365
  824TIP3    H2 2430   1.918  -0.053   0.413
  825TIP3   OH2 2431   2.132   3.603   1.416
  825TIP3    H1 2432   2.227   3.614   1.427
  825TIP3    H2 2433   2.123   3.559   1.332
  826TIP3   OH2 2434   2.109   4.570   2.885
  826TIP3    H1 2435   2.139   4.636   2.947
  826TIP3    H2 2436   2.111   4.488   2.935
  827TIP3   OH2 2437   0.834   6.229   0.110
  827TIP3    H1 2438   0.894   6.300   0.135
  827TIP3    H2 2439   0.787   6.208   0.190
  828TIP3   OH2 2440   3.598   1.436   0.162
  828TIP3    H1 2441   3.647   1.354   0.155
  828TIP3    H2 2442   3.629   1.476   0.244
  829TIP3   OH2 2443   4.993   5.746   1.362
  829TIP3    H1 2444   5.055   5.813   1.333
  829TIP3    H2 2445   4.988   5.685   1.288
  830TIP3   OH2 2446   5.936   2.000   4.845
  830TIP3    H1 2447   5.877   2.052   4.790
  830TIP3    H2 2448   5.952   2.055   4.921
  831TIP3   OH2 2449   7.353   0.431   1.505
  831TIP3    H1 2450   7.312   0.391   1.428
  831TIP3    H2 2451   7.362   0.359   1.568
  832TIP3   OH2 2452   1.721   1.590   1.786
  832TIP3    H1 2453   1.671   1.611   1.707
  832TIP3    H2 2454   1.757   1.503   1.770
  833TIP3   OH2 2455   2.000   4.388   2.636
  833TIP3    H1 2456   1.965   4.436   2.711
  833TIP3    H2 2457   2.041   4.455   2.582
  834TIP3   OH2 2458   6.009   7.017   6.528
  834TIP3    H1 2459   5.999   7.085   6.462
  834TIP3    H2 2460   6.017   7.064   6.611
  835TIP3   OH2 2461   2.224   5.418   4.513
  835TIP3    H1 2462   2.142   5.461   4.490
  835TIP3    H2 2463   2.244   5.361   4.439
  836TIP3   OH2 2464   2.449   5.133   2.036
  836TIP3    H1 2465   2.483   5.218   2.064
  836TIP3    H2 2466   2.500   5.069   2.086
  837TIP3   OH2 2467   5.897   4.710   1.929
  837TIP3    H1 2468   5.977   4.742   1.970
  837TIP3    H2 2469   5.833   4.706   2.001
  838TIP3   OH2 2470   1.096   0.575   2.531
  838TIP3    H1 2471   1.073   0.624   2.452
  838TIP3    H2 2472   1.172   0.523   2.506
  839TIP3   OH2 2473   8.168   4.977   1.169
  839TIP3    H1 2474   8.084   4.970   1.124
  839TIP3    H2 2475   8.148   4.958   1.261
  840TIP3   OH2 2476   7.915   1.380   1.182
  840TIP3    H1 2477   7.824   1.382   1.213
  840TIP3    H2 2478   7.943   1.290   1.195
  841TIP3   OH2 2479   5.949   4.232   4.108
  841TIP3    H1 2480   5.889   4.169   4.068
  841TIP3    H2 2481   6.023   4.179   4.138
  842TIP3   OH2 2482   3.356   2.824   0.913
  842TIP3    H1 2483   3.323   2.845   1.000
  842TIP3    H2 2484   3.310   2.744   0.888
  843TIP3   OH2 2485   6.908   4.775   5.061
  843TIP3    H1 2486   6.980   4.829   5.028
  843TIP3    H2 2487   6.927   4.687   5.029
  844TIP3   OH2 2488   6.084   6.408   5.452
  844TIP3    H1 2489   6.170   6.429   5.415
  844TIP3    H2 2490   6.102   6.345   5.521
  845TIP3   OH2 2491   3.591   6.698   5.934
  845TIP3    H1 2492   3.604   6.786   5.899
  845TIP3    H2 2493   3.507   6.702   5.979
  846TIP3   OH2 2494   7.121   5.008   5.366
  846TIP3    H1 2495   7.144   4.939   5.429
  846TIP3    H2 2496   7.197   5.013   5.308
  847TIP3   OH2 2497   1.031   4.320   5.452
  847TIP3    H1 2498   1.081   4.270   5.388
  847TIP3    H2 2499   1.073   4.302   5.536
  848TIP3   OH2 2500   4.014   1.751   6.161
  848TIP3    H1 2501   3.995   1.657   6.151
  848TIP3    H2 2502   3.943   1.784   6.216
  849TIP3   OH2 2503   5.584   6.138   5.158
  849TIP3    H1 2504   5.507   6.155   5.211
  849TIP3    H2 2505   5.658   6.152   5.217
  850TIP3   OH2 2506   7.902   4.160   3.113
  850TIP3    H1 2507   7.855   4.229   3.158
  850TIP3    H2 2508   7.868   4.162   3.023
  851TIP3   OH2 2509   4.329   2.527   4.001
  851TIP3    H1 2510   4.281   2.608   4.020
  851TIP3    H2 2511   4.356   2.536   3.910
  852TIP3   OH2 2512   1.444   7.347   1.454
  852TIP3    H1 2513   1.397   7.339   1.537
  852TIP3    H2 2514   1.487   7.432   1.459
  853TIP3   OH2 2515   8.133   5.434   6.049
  853TIP3    H1 2516   8.180   5.362   6.089
  853TIP3    H2 2517   8.201   5.500   6.031
  854TIP3   OH2 2518   3.215   1.463   4.106
  854TIP3    H1 2519   3.234   1.427   4.193
  854TIP3    H2 2520   3.170   1.393   4.060
  855TIP3   OH2 2521   2.322   0.146   4.544
  855TIP3    H1 2522   2.393   0.193   4.500
  855TIP3    H2 2523   2.264   0.215   4.576
  856TIP3   OH2 2524   7.313   3.234   6.434
  856TIP3    H1 2525   7.224   3.200   6.434
  856TIP3    H2 2526   7.365   3.165   6.393
  857TIP3   OH2 2527   6.066   2.220   5.783
  857TIP3    H1 2528   6.110   2.232   5.868
  857TIP3    H2 2529   6.042   2.309   5.757
  858TIP3   OH2 2530   6.413   1.318   1.893
  858TIP3    H1 2531   6.363   1.250   1.939
  858TIP3    H2 2532   6.504   1.301   1.917
  859TIP3   OH2 2533   5.216   5.686   6.506
  859TIP3    H1 2534   5.173   5.757   6.458
  859TIP3    H2 2535   5.309   5.705   6.497
  860TIP3   OH2 2536   3.769   5.615   2.261
  860TIP3    H1 2537   3.792   5.702   2.230
  860TIP3    H2 2538   3.721   5.630   2.343
  861TIP3   OH2 2539   3.452   0.245   6.040
  861TIP3    H1 2540   3.372   0.197   6.064
  861TIP3    H2 2541   3.457   0.236   5.945
  862TIP3   OH2 2542   5.305   7.543   4.952
  862TIP3    H1 2543   5.356   7.479   4.904
  862TIP3    H2 2544   5.296   7.506   5.040
  863TIP3   OH2 2545   7.660   1.438   5.970
  863TIP3    H1 2546   7.696   1.375   5.908
  863TIP3    H2 2547   7.737   1.473   6.016
  864TIP3   OH2 2548   7.234   0.103   4.633
  864TIP3    H1 2549   7.191   0.123   4.549
  864TIP3    H2 2550   7.316   0.151   4.630
  865TIP3   OH2 2551   5.829   0.647   5.226
  865TIP3    H1 2552   5.734   0.644   5.215
  865TIP3    H2 2553   5.863   0.671   5.140
  866TIP3   OH2 2554   1.333   4.721   4.198
  866TIP3    H1 2555   1.300   4.767   4.121
  866TIP3    H2 2556   1.417   4.685   4.170
  867TIP3   OH2 2557   4.603   7.020   6.062
  867TIP3    H1 2558   4.697   7.008   6.051
  867TIP3    H2 2559   4.592   7.113   6.083
  868TIP3   OH2 2560   4.223   3.154   0.949
  868TIP3    H1 2561   4.159   3.092   0.914
  868TIP3    H2 2562   4.190   3.240   0.923
  869TIP3   OH2 2563   8.147   5.779   3.043
  869TIP3    H1 2564   8.166   5.827   3.123
  869TIP3    H2 2565   8.095   5.704   3.071
  870TIP3   OH2 2566   5.090   5.329   5.976
  870TIP3    H1 2567   5.098   5.253   6.033
  870TIP3    H2 2568   5.001   5.325   5.942
  871TIP3   OH2 2569   5.349   7.047   6.430
  871TIP3    H1 2570   5.377   7.114   6.369
  871TIP3    H2 2571   5.254   7.051   6.429
  872TIP3   OH2 2572   2.496   1.782   5.722
  872TIP3    H1 2573   2.440   1.706   5.736
  872TIP3    H2 2574   2.444   1.857   5.751
  873TIP3   OH2 2575   0.174   6.639   6.368
  873TIP3    H1 2576   0.100   6.671   6.316
  873TIP3    H2 2577   0.148   6.656   6.459
  874TIP3   OH2 2578   1.768   0.645   0.548
  874TIP3    H1 2579   1.677   0.651   0.578
  874TIP3    H2 2580   1.809   0.725   0.581
  875TIP3   OH2 2581   4.418   2.830   1.738
  875TIP3    H1 2582   4.382   2.817   1.826
  875TIP3    H2 2583   4.384   2.756   1.688
  876TIP3   OH2 2584   3.453   1.359   0.723
  876TIP3    H1 2585   3.476   1.421   0.792
  876TIP3    H2 2586   3.537   1.336   0.682
  877TIP3   OH2 2587   4.182   6.981   1.761
  877TIP3    H1 2588   4.188   7.050   1.695
  877TIP3    H2 2589   4.105   7.002   1.813
  878TIP3   OH2 2590   0.447   6.131   2.882
  878TIP3    H1 2591   0.490   6.088   2.955
  878TIP3    H2 2592   0.359   6.094   2.881
  879TIP3   OH2 2593   2.388   1.477   0.216
  879TIP3    H1 2594   2.334   1.441   0.146
  879TIP3    H2 2595   2.477   1.446   0.197
  880TIP3   OH2 2596   3.622   4.027   2.379
  880TIP3    H1 2597   3.699   4.083   2.368
  880TIP3    H2 2598   3.572   4.039   2.298
  881TIP3   OH2 2599   4.236   0.074   2.154
  881TIP3    H1 2600   4.177   0.126   2.100
  881TIP3    H2 2601   4.239  -0.012   2.112
  882TIP3   OH2 2602   8.090   2.604   5.831
  882TIP3    H1 2603   8.107   2.673   5.895
  882TIP3    H2 2604   7.996   2.610   5.814
  883TIP3   OH2 2605   5.812   2.920   4.632
  883TIP3    H1 2606   5.870   2.982   4.589
  883TIP3    H2 2607   5.868   2.847   4.658
  884TIP3   OH2 2608   1.196   5.648   6.568
  884TIP3    H1 2609   1.235   5.706   6.634
  884TIP3    H2 2610   1.228   5.681   6.484
  885TIP3   OH2 2611   0.412   4.747   5.176
  885TIP3    H1 2612   0.402   4.769   5.084
  885TIP3    H2 2613   0.336   4.787   5.219
  886TIP3   OH2 2614   5.895   5.393   3.590
  886TIP3    H1 2615   5.945   5.315   3.566
  886TIP3    H2 2616   5.874   5.380   3.683
  887TIP3   OH2 2617   6.881   0.500   2.865
  887TIP3    H1 2618   6.791   0.525   2.884
  887TIP3    H2 2619   6.878   0.467   2.775
  888TIP3   OH2 2620   8.044   6.087   3.666
  888TIP3    H1 2621   8.128   6.048   3.693
  888TIP3    H2 2622   7.982   6.015   3.670
  889TIP3   OH2 2623   6.991   2.804   3.182
  889TIP3    H1 2624   6.962   2.728   3.130
  889TIP3    H2 2625   6.973   2.879   3.125
  890TIP3   OH2 2626   5.630   7.272   3.884
  890TIP3    H1 2627   5.656   7.308   3.799
  890TIP3    H2 2628   5.549   7.223   3.865
  891TIP3   OH2 2629   3.327   3.902   3.887
  891TIP3    H1 2630   3.247   3.953   3.876
  891TIP3    H2 2631   3.299   3.821   3.929
  892TIP3   OH2 2632   2.657   6.635   2.991
  892TIP3    H1 2633   2.591   6.611   2.927
  892TIP3    H2 2634   2.619   6.710   3.037
  893TIP3   OH2 2635   1.045   5.499   3.450
  893TIP3    H1 2636   0.967   5.549   3.428
  893TIP3    H2 2637   1.012   5.410   3.467
  894TIP3   OH2 2638   0.265   4.338   1.146
  894TIP3    H1 2639   0.314   4.284   1.084
  894TIP3    H2 2640   0.297   4.311   1.232
  895TIP3   OH2 2641   5.478   1.896   5.277
  895TIP3    H1 2642   5.500   1.982   5.311
  895TIP3    H2 2643   5.452   1.912   5.186
  896TIP3   OH2 2644   7.639   4.983   0.415
  896TIP3    H1 2645   7.556   4.956   0.375
  896TIP3    H2 2646   7.704   4.925   0.377
  897TIP3   OH2 2647   5.411   0.837   2.537
  897TIP3    H1 2648   5.470   0.769   2.507
  897TIP3    H2 2649   5.356   0.856   2.461
  898TIP3   OH2 2650   4.617   5.413   2.127
  898TIP3    H1 2651   4.689   5.455   2.082
  898TIP3    H2 2652   4.551   5.482   2.136
  899TIP3   OH2 2653   6.606   0.494   1.609
  899TIP3    H1 2654   6.691   0.496   1.564
  899TIP3    H2 2655   6.629   0.479   1.701
  900TIP3   OH2 2656   7.740   2.060   4.075
  900TIP3    H1 2657   7.677   2.082   4.143
  900TIP3    H2 2658   7.740   1.964   4.071
  901TIP3   OH2 2659   7.166   7.010   2.368
  901TIP3    H1 2660   7.223   7.006   2.445
  901TIP3    H2 2661   7.200   7.083   2.316
  902TIP3   OH2 2662   2.961   5.886   0.193
  902TIP3    H1 2663   2.916   5.802   0.198
  902TIP3    H2 2664   2.932   5.923   0.109
  903TIP3   OH2 2665   2.988   5.604   1.535
  903TIP3    H1 2666   2.949   5.595   1.448
  903TIP3    H2 2667   3.068   5.654   1.521
  904TIP3   OH2 2668   1.161   5.755   4.916
  904TIP3    H1 2669   1.082   5.718   4.877
  904TIP3    H2 2670   1.154   5.849   4.901
  905TIP3   OH2 2671   3.004   2.478   5.580
  905TIP3    H1 2672   2.994   2.422   5.503
  905TIP3    H2 2673   3.016   2.566   5.544
  906TIP3   OH2 2674   7.532   2.335   0.414
  906TIP3    H1 2675   7.564   2.329   0.504
  906TIP3    H2 2676   7.611   2.353   0.362
  907TIP3   OH2 2677   6.327   5.653   1.077
  907TIP3    H1 2678   6.325   5.732   1.023
  907TIP3    H2 2679   6.310   5.581   1.016
  908TIP3   OH2 2680   6.606   5.963   6.304
  908TIP3    H1 2681   6.565   6.009   6.377
  908TIP3    H2 2682   6.545   5.974   6.231
  909TIP3   OH2 2683   7.212   5.195   5.079
  909TIP3    H1 2684   7.165   5.270   5.114
  909TIP3    H2 2685   7.215   5.210   4.984
  910TIP3   OH2 2686   7.384   0.933   4.547
  910TIP3    H1 2687   7.361   0.928   4.455
  910TIP3    H2 2688   7.464   0.987   4.549
  911TIP3   OH2 2689   2.064   7.450   5.744
  911TIP3    H1 2690   2.030   7.410   5.824
  911TIP3    H2 2691   2.078   7.542   5.767
  912TIP3   OH2 2692   7.216   7.725   3.936
  912TIP3    H1 2693   7.288   7.742   3.998
  912TIP3    H2 2694   7.257   7.734   3.850
  913TIP3   OH2 2695   5.400   0.363   2.837
  913TIP3    H1 2696   5.407   0.425   2.910
  913TIP3    H2 2697   5.490   0.333   2.822
  914TIP3   OH2 2698   1.107   4.774   6.437
  914TIP3    H1 2699   1.148   4.844   6.487
  914TIP3    H2 2700   1.052   4.819   6.373
  915TIP3   OH2 2701   4.930   6.057   4.654
  915TIP3    H1 2702   4.851   6.004   4.640
  915TIP3    H2 2703   4.919   6.091   4.743
  916TIP3   OH2 2704   1.060   3.473   3.379
  916TIP3    H1 2705   1.156   3.472   3.376
  916TIP3    H2 2706   1.034   3.406   3.316
  917TIP3   OH2 2707   4.975   4.466   1.003
  917TIP3    H1 2708   4.966   4.415   0.922
  917TIP3    H2 2709   5.027   4.542   0.977
  918TIP3   OH2 2710   6.620   2.022   3.371
  918TIP3    H1 2711   6.622   1.977   3.455
  918TIP3    H2 2712   6.558   1.972   3.318
  919TIP3   OH2 2713   5.716   2.516   1.994
  919TIP3    H1 2714   5.648   2.571   1.955
  919TIP3    H2 2715   5.748   2.461   1.923
  920TIP3   OH2 2716   5.579   2.320   5.641
  920TIP3    H1 2717   5.486   2.314   5.660
  920TIP3    H2 2718   5.623   2.288   5.720
  921TIP3   OH2 2719   4.238   5.999   0.985
  921TIP3    H1 2720   4.195   5.924   0.945
  921TIP3    H2 2721   4.318   5.963   1.023
  922TIP3   OH2 2722   0.542   4.531   2.358
  922TIP3    H1 2723   0.634   4.552   2.371
  922TIP3    H2 2724   0.508   4.517   2.446
  923TIP3   OH2 2725   7.920   5.236   5.849
  923TIP3    H1 2726   7.873   5.290   5.785
  923TIP3    H2 2727   8.008   5.274   5.852
  924TIP3   OH2 2728   1.286   5.579   1.611
  924TIP3    H1 2729   1.278   5.522   1.687
  924TIP3    H2 2730   1.297   5.520   1.537
  925TIP3   OH2 2731   3.518   3.902   1.576
  925TIP3    H1 2732   3.460   3.978   1.567
  925TIP3    H2 2733   3.558   3.893   1.490
  926TIP3   OH2 2734   7.716   1.079   3.396
  926TIP3    H1 2735   7.683   1.131   3.470
  926TIP3    H2 2736   7.659   1.103   3.323
  927TIP3   OH2 2737   8.302   1.519   1.821
  927TIP3    H1 2738   8.327   1.531   1.913
  927TIP3    H2 2739   8.277   1.427   1.815
  928TIP3   OH2 2740   2.371   3.759   0.113
  928TIP3    H1 2741   2.441   3.823   0.099
  928TIP3    H2 2742   2.313   3.770   0.038
  929TIP3   OH2 2743   5.298   4.456   1.087
  929TIP3    H1 2744   5.264   4.367   1.085
  929TIP3    H2 2745   5.355   4.459   1.164
  930TIP3   OH2 2746   2.109   4.636   6.392
  930TIP3    H1 2747   2.181   4.661   6.333
  930TIP3    H2 2748   2.081   4.718   6.431
  931TIP3   OH2 2749   7.363   0.295   3.216
  931TIP3    H1 2750   7.274   0.329   3.222
  931TIP3    H2 2751   7.394   0.321   3.130
  932TIP3   OH2 2752   3.054   1.527   4.520
  932TIP3    H1 2753   3.061   1.586   4.445
  932TIP3    H2 2754   3.098   1.574   4.591
  933TIP3   OH2 2755   4.898   4.409   0.465
  933TIP3    H1 2756   4.903   4.390   0.371
  933TIP3    H2 2757   4.844   4.488   0.471
  934TIP3   OH2 2758   4.668   6.873   6.661
  934TIP3    H1 2759   4.723   6.851   6.586
  934TIP3    H2 2760   4.579   6.851   6.633
  935TIP3   OH2 2761   2.838   1.257   1.176
  935TIP3    H1 2762   2.888   1.338   1.168
  935TIP3    H2 2763   2.762   1.281   1.230
  936TIP3   OH2 2764   2.387   1.832   6.567
  936TIP3    H1 2765   2.464   1.813   6.621
  936TIP3    H2 2766   2.422   1.842   6.478
  937TIP3   OH2 2767   4.152   1.291   2.755
  937TIP3    H1 2768   4.197   1.212   2.787
  937TIP3    H2 2769   4.190   1.305   2.668
  938TIP3   OH2 2770   6.983   6.300   4.363
  938TIP3    H1 2771   6.955   6.221   4.409
  938TIP3    H2 2772   7.047   6.269   4.299
  939TIP3   OH2 2773   7.346   7.132   4.689
  939TIP3    H1 2774   7.349   7.067   4.759
  939TIP3    H2 2775   7.323   7.214   4.734
  940TIP3   OH2 2776   4.170   3.407   4.531
  940TIP3    H1 2777   4.262   3.378   4.530
  940TIP3    H2 2778   4.119   3.327   4.527
  941TIP3   OH2 2779   6.581   7.123   0.422
  941TIP3    H1 2780   6.497   7.087   0.395
  941TIP3    H2 2781   6.632   7.048   0.452
  942TIP3   OH2 2782   4.796   3.799   1.588
  942TIP3    H1 2783   4.877   3.757   1.616
  942TIP3    H2 2784   4.732   3.777   1.656
  943TIP3   OH2 2785   2.574   0.367   5.531
  943TIP3    H1 2786   2.534   0.398   5.449
  943TIP3    H2 2787   2.533   0.282   5.547
  944TIP3   OH2 2788   6.701   6.869   0.501
  944TIP3    H1 2789   6.783   6.894   0.543
  944TIP3    H2 2790   6.727   6.825   0.421
  945TIP3   OH2 2791   0.607   2.972   5.077
  945TIP3    H1 2792   0.619   2.877   5.078
  945TIP3    H2 2793   0.696   3.007   5.075
  946TIP3   OH2 2794   5.916   1.384   3.980
  946TIP3    H1 2795   5.948   1.294   3.981
  946TIP3    H2 2796   5.851   1.387   4.051
  947TIP3   OH2 2797   2.686   3.404   1.672
  947TIP3    H1 2798   2.776   3.425   1.646
  947TIP3    H2 2799   2.636   3.483   1.653
  948TIP3   OH2 2800   4.833   4.314   1.231
  948TIP3    H1 2801   4.898   4.363   1.182
  948TIP3    H2 2802   4.879   4.235   1.261
  949TIP3   OH2 2803   7.973   0.077   2.128
  949TIP3    H1 2804   8.047   0.097   2.071
  949TIP3    H2 2805   7.939   0.163   2.153
  950TIP3   OH2 2806   5.582   4.652   5.443
  950TIP3    H1 2807   5.573   4.707   5.521
  950TIP3    H2 2808   5.583   4.563   5.477
  951TIP3   OH2 2809   0.924   7.141   0.799
  951TIP3    H1 2810   0.987   7.083   0.757
  951TIP3    H2 2811   0.838   7.106   0.773
  952TIP3   OH2 2812   3.681   5.257   1.020
  952TIP3    H1 2813   3.619   5.329   1.034
  952TIP3    H2 2814   3.659   5.222   0.934
  953TIP3   OH2 2815   3.230   6.365   5.351
  953TIP3    H1 2816   3.233   6.292   5.412
  953TIP3    H2 2817   3.153   6.416   5.378
  954TIP3   OH2 2818   5.029   6.133   0.393
  954TIP3    H1 2819   5.124   6.127   0.398
  954TIP3    H2 2820   4.998   6.076   0.464
  955TIP3   OH2 2821   6.976   3.592   4.710
  955TIP3    H1 2822   7.060   3.606   4.666
  955TIP3    H2 2823   6.996   3.528   4.779
  956TIP3   OH2 2824   3.131   0.460   1.589
  956TIP3    H1 2825   3.176   0.477   1.505
  956TIP3    H2 2826   3.176   0.384   1.625
  957TIP3   OH2 2827   7.763   5.028   5.772
  957TIP3    H1 2828   7.807   5.104   5.809
  957TIP3    H2 2829   7.730   4.979   5.847
  958TIP3   OH2 2830   0.930   6.839   0.179
  958TIP3    H1 2831   0.951   6.765   0.122
  958TIP3    H2 2832   1.007   6.895   0.175
  959TIP3   OH2 2833   2.596   2.729   5.237
  959TIP3    H1 2834   2.511   2.689   5.215
  959TIP3    H2 2835   2.628   2.764   5.154
  960TIP3   OH2 2836   1.824   2.450   1.814
  960TIP3    H1 2837   1.814   2.479   1.904
  960TIP3    H2 2838   1.870   2.366   1.821
  961TIP3   OH2 2839   5.941   4.290   0.431
  961TIP3    H1 2840   5.968   4.339   0.353
  961TIP3    H2 2841   6.015   4.234   0.451
  962TIP3   OH2 2842   1.985   4.640   0.324
  962TIP3    H1 2843   2.013   4.605   0.239
  962TIP3    H2 2844   1.891   4.656   0.313
  963TIP3   OH2 2845   3.489   7.042   4.717
  963TIP3    H1 2846   3.456   6.998   4.795
  963TIP3    H2 2847   3.557   7.101   4.748
  964TIP3   OH2 2848   6.684   5.186   1.462
  964TIP3    H1 2849   6.740   5.253   1.502
  964TIP3    H2 2850   6.683   5.209   1.369
  965TIP3   OH2 2851   7.748   2.534   4.341
  965TIP3    H1 2852   7.744   2.453   4.393
  965TIP3    H2 2853   7.835   2.533   4.302
  966TIP3   OH2 2854   6.641   3.772   2.923
  966TIP3    H1 2855   6.657   3.678   2.928
  966TIP3    H2 2856   6.723   3.809   2.891
  967TIP3   OH2 2857   7.120   5.094   4.688
  967TIP3    H1 2858   7.147   5.142   4.609
  967TIP3    H2 2859   7.073   5.158   4.741
  968TIP3   OH2 2860   6.857   1.491   5.778
  968TIP3    H1 2861   6.838   1.585   5.787
  968TIP3    H2 2862   6.873   1.479   5.684
  969TIP3   OH2 2863   4.202   6.956   6.357
  969TIP3    H1 2864   4.145   6.985   6.428
  969TIP3    H2 2865   4.157   6.880   6.320
  970TIP3   OH2 2866   5.001   5.963   5.055
  970TIP3    H1 2867   4.936   6.007   5.110
  970TIP3    H2 2868   4.969   5.873   5.047
  971TIP3   OH2 2869   1.748   1.332   4.252
  971TIP3    H1 2870   1.807   1.265   4.219
  971TIP3    H2 2871   1.788   1.415   4.225
  972TIP3   OH2 2872   8.042   6.423   0.917
  972TIP3    H1 2873   8.119   6.413   0.974
  972TIP3    H2 2874   8.072   6.481   0.847
  973TIP3   OH2 2875   0.158   3.702   3.556
  973TIP3    H1 2876   0.086   3.656   3.600
  973TIP3    H2 2877   0.181   3.645   3.483
  974TIP3   OH2 2878   6.310   5.651   1.355
  974TIP3    H1 2879   6.291   5.632   1.263
  974TIP3    H2 2880   6.405   5.644   1.361
  975TIP3   OH2 2881   0.873   6.214   4.917
  975TIP3    H1 2882   0.811   6.204   4.845
  975TIP3    H2 2883   0.928   6.288   4.890
  976TIP3   OH2 2884   3.533   3.164   1.964
  976TIP3    H1 2885   3.533   3.195   1.874
  976TIP3    H2 2886   3.442   3.175   1.993
  977TIP3   OH2 2887   4.460   1.679   2.594
  977TIP3    H1 2888   4.369   1.665   2.571
  977TIP3    H2 2889   4.504   1.697   2.511
  978TIP3   OH2 2890   4.963   0.570   5.787
  978TIP3    H1 2891   4.972   0.623   5.865
  978TIP3    H2 2892   5.042   0.588   5.736
  979TIP3   OH2 2893   1.780   5.132   6.477
  979TIP3    H1 2894   1.744   5.057   6.430
  979TIP3    H2 2895   1.716   5.150   6.546
  980TIP3   OH2 2896   4.898   6.352   1.927
  980TIP3    H1 2897   4.898   6.262   1.894
  980TIP3    H2 2898   4.987   6.382   1.913
  981TIP3   OH2 2899   4.337   3.131   2.753
  981TIP3    H1 2900   4.321   3.039   2.729
  981TIP3    H2 2901   4.287   3.181   2.688
  982TIP3   OH2 2902   5.366   1.975   6.512
  982TIP3    H1 2903   5.281   1.931   6.518
  982TIP3    H2 2904   5.346   2.068   6.529
  983TIP3   OH2 2905   4.575   7.288   6.091
  983TIP3    H1 2906   4.652   7.324   6.135
  983TIP3    H2 2907   4.573   7.332   6.005
  984TIP3   OH2 2908   5.097   5.021   5.235
  984TIP3    H1 2909   5.041   4.968   5.178
  984TIP3    H2 2910   5.160   5.061   5.175
  985TIP3   OH2 2911   4.242   0.926   3.355
  985TIP3    H1 2912   4.332   0.907   3.379
  985TIP3    H2 2913   4.209   0.845   3.315
  986TIP3   OH2 2914   0.866   0.981   4.082
  986TIP3    H1 2915   0.906   1.044   4.142
  986TIP3    H2 2916   0.782   0.960   4.123
  987TIP3   OH2 2917   1.692   6.068   0.785
  987TIP3    H1 2918   1.711   5.996   0.845
  987TIP3    H2 2919   1.777   6.109   0.770
  988TIP3   OH2 2920   6.343   4.004   2.121
  988TIP3    H1 2921   6.308   3.923   2.158
  988TIP3    H2 2922   6.379   3.979   2.036
  989TIP3   OH2 2923   1.504   5.525   2.103
  989TIP3    H1 2924   1.425   5.550   2.055
  989TIP3    H2 2925   1.492   5.432   2.123
  990TIP3   OH2 2926   0.581   5.052   4.720
  990TIP3    H1 2927   0.581   4.993   4.645
  990TIP3    H2 2928   0.656   5.024   4.773
  991TIP3   OH2 2929   1.137   3.696   6.227
  991TIP3    H1 2930   1.086   3.615   6.222
  991TIP3    H2 2931   1.220   3.669   6.267
  992TIP3   OH2 2932   4.000   4.471   6.308
  992TIP3    H1 2933   3.982   4.380   6.332
  992TIP3    H2 2934   3.917   4.504   6.275
  993TIP3   OH2 2935   7.995   0.624   2.917
  993TIP3    H1 2936   8.059   0.586   2.857
  993TIP3    H2 2937   8.005   0.719   2.906
  994TIP3   OH2 2938   2.745   2.742   0.260
  994TIP3    H1 2939   2.771   2.714   0.173
  994TIP3    H2 2940   2.759   2.665   0.315
  995TIP3   OH2 2941   1.817   1.509   6.672
  995TIP3    H1 2942   1.870   1.570   6.723
  995TIP3    H2 2943   1.879   1.440   6.646
  996TIP3   OH2 2944   7.334   3.358   0.615
  996TIP3    H1 2945   7.379   3.284   0.656
  996TIP3    H2 2946   7.265   3.382   0.676
  997TIP3   OH2 2947   3.850   0.819   4.511
  997TIP3    H1 2948   3.911   0.763   4.560
  997TIP3    H2 2949   3.852   0.785   4.422
  998TIP3   OH2 2950   0.810   4.974   3.580
  998TIP3    H1 2951   0.864   4.968   3.501
  998TIP3    H2 2952   0.756   4.895   3.578
  999TIP3   OH2 2953   1.289   6.444   4.114
  999TIP3    H1 2954   1.259   6.390   4.187
  999TIP3    H2 2955   1.213   6.452   4.057
 1000TIP3   OH2 2956   2.392   3.505   0.013
 1000TIP3    H1 2957   2.441   3.587   0.016
 1000TIP3    H2 2958   2.442   3.445   0.067
 1001TIP3   OH2 2959   5.663   4.771   2.359
 1001TIP3    H1 2960   5.681   4.800   2.270
 1001TIP3    H2 2961   5.668   4.675   2.354
 1002TIP3   OH2 2962   5.894   5.177   0.273
 1002TIP3    H1 2963   5.911   5.089   0.239
 1002TIP3    H2 2964   5.956   5.189   0.344
 1003TIP3   OH2 2965   2.249   2.808   4.909
 1003TIP3    H1 2966   2.199   2.889   4.897
 1003TIP3    H2 2967   2.249   2.794   5.003
 1004TIP3   OH2 2968   4.397   0.800   0.607
 1004TIP3    H1 2969   4.377   0.893   0.613
 1004TIP3    H2 2970   4.480   0.796   0.559
 1005TIP3   OH2 2971   1.667   6.921   3.475
 1005TIP3    H1 2972   1.702   6.992   3.529
 1005TIP3    H2 2973   1.711   6.842   3.508
 1006TIP3   OH2 2974   3.961   1.258   0.596
 1006TIP3    H1 2975   3.911   1.242   0.515
 1006TIP3    H2 2976   3.895   1.285   0.660
 1007TIP3   OH2 2977   4.899   7.132   5.059
 1007TIP3    H1 2978   4.942   7.089   5.133
 1007TIP3    H2 2979   4.900   7.225   5.082
 1008TIP3   OH2 2980   3.279   4.642   3.899
 1008TIP3    H1 2981   3.281   4.720   3.844
 1008TIP3    H2 2982   3.251   4.572   3.839
 1009TIP3   OH2 2983   8.150   3.603   1.635
 1009TIP3    H1 2984   8.073   3.653   1.662
 1009TIP3    H2 2985   8.193   3.660   1.571
 1010TIP3   OH2 2986   0.001   0.210   1.955
 1010TIP3    H1 2987   0.005   0.202   2.051
 1010TIP3    H2 2988  -0.020   0.302   1.940
 1011TIP3   OH2 2989   5.682   0.862   4.792
 1011TIP3    H1 2990   5.687   0.769   4.770
 1011TIP3    H2 2991   5.767   0.897   4.767
 1012TIP3   OH2 2992   5.929   0.605   4.144
 1012TIP3    H1 2993   5.864   0.652   4.197
 1012TIP3    H2 2994   5.892   0.605   4.056
 1013TIP3   OH2 2995   1.520   2.212   3.143
 1013TIP3    H1 2996   1.517   2.282   3.077
 1013TIP3    H2 2997   1.474   2.139   3.101
 1014TIP3   OH2 2998   5.138   1.051   2.656
 1014TIP3    H1 2999   5.070   1.116   2.636
 1014TIP3    H2 3000   5.184   1.088   2.732
 1015TIP3   OH2 3001   3.765   5.461   2.720
 1015TIP3    H1 3002   3.784   5.367   2.717
 1015TIP3    H2 3003   3.669   5.466   2.715
 1016TIP3   OH2 3004   7.384   1.923   6.075
 1016TIP3    H1 3005   7.343   1.900   5.991
 1016TIP3    H2 3006   7.431   1.844   6.101
 1017TIP3   OH2 3007   3.935   4.747   1.500
 1017TIP3    H1 3008   3.882   4.813   1.546
 1017TIP3    H2 3009   4.001   4.720   1.563
 1018TIP3   OH2 3010   6.667   6.617   2.990
 1018TIP3    H1 3011   6.615   6.574   2.922
 1018TIP3    H2 3012   6.664   6.557   3.064
 1019TIP3   OH2 3013   4.243   6.756   5.425
 1019TIP3    H1 3014   4.237   6.693   5.353
 1019TIP3    H2 3015   4.206   6.836   5.389
 1020TIP3   OH2 3016   3.676   4.429   2.281
 1020TIP3    H1 3017   3.698   4.371   2.208
 1020TIP3    H2 3018   3.744   4.412   2.347
 1021TIP3   OH2 3019   3.095   3.723   4.324
 1021TIP3    H1 3020   3.080   3.630   4.337
 1021TIP3    H2 3021   3.011   3.757   4.292
 1022TIP3   OH2 3022   3.259   5.970   4.465
 1022TIP3    H1 3023   3.300   5.912   4.529
 1022TIP3    H2 3024   3.292   6.057   4.487
 1023TIP3   OH2 3025   3.994   2.658   3.314
 1023TIP3    H1 3026   3.980   2.753   3.314
 1023TIP3    H2 3027   4.028   2.640   3.402
 1024TIP3   OH2 3028   1.316   3.993   4.040
 1024TIP3    H1 3029   1.224   3.985   4.068
 1024TIP3    H2 3030   1.338   3.907   4.005
 1025TIP3   OH2 3031   1.234   3.076   1.183
 1025TIP3    H1 3032   1.168   3.058   1.250
 1025TIP3    H2 3033   1.216   3.012   1.114
 1026TIP3   OH2 3034   0.027   1.564   2.899
 1026TIP3    H1 3035   0.115   1.532   2.923
 1026TIP3    H2 3036   0.028   1.567   2.803
 1027TIP3   OH2 3037   7.556   4.395   1.436
 1027TIP3    H1 3038   7.586   4.457   1.503
 1027TIP3    H2 3039   7.461   4.407   1.434
 1028TIP3   OH2 3040   8.057   4.312   1.332
 1028TIP3    H1 3041   8.027   4.234   1.379
 1028TIP3    H2 3042   7.979   4.367   1.324
 1029TIP3   OH2 3043   5.825   2.505   3.466
 1029TIP3    H1 3044   5.892   2.564   3.501
 1029TIP3    H2 3045   5.874   2.435   3.424
 1030TIP3   OH2 3046   7.729   1.789   4.121
 1030TIP3    H1 3047   7.804   1.730   4.113
 1030TIP3    H2 3048   7.663   1.753   4.061
 1031TIP3   OH2 3049   4.821   1.323   4.918
 1031TIP3    H1 3050   4.907   1.287   4.943
 1031TIP3    H2 3051   4.767   1.311   4.996
 1032TIP3   OH2 3052   1.318   7.531   5.430
 1032TIP3    H1 3053   1.323   7.591   5.356
 1032TIP3    H2 3054   1.403   7.487   5.431
 1033TIP3   OH2 3055   1.090   6.431   5.185
 1033TIP3    H1 3056   1.058   6.341   5.182
 1033TIP3    H2 3057   1.050   6.468   5.264
 1034TIP3   OH2 3058   7.302   7.427   0.835
 1034TIP3    H1 3059   7.364   7.491   0.799
 1034TIP3    H2 3060   7.226   7.432   0.777
 1035TIP3   OH2 3061   3.591   3.481   3.831
 1035TIP3    H1 3062   3.581   3.386   3.830
 1035TIP3    H2 3063   3.541   3.509   3.908
 1036TIP3   OH2 3064   6.770   0.857   3.345
 1036TIP3    H1 3065   6.747   0.934   3.292
 1036TIP3    H2 3066   6.802   0.793   3.282
 1037TIP3   OH2 3067   2.877   3.482   6.198
 1037TIP3    H1 3068   2.817   3.475   6.123
 1037TIP3    H2 3069   2.823   3.515   6.269
 1038TIP3   OH2 3070   0.240   2.144   3.235
 1038TIP3    H1 3071   0.167   2.163   3.294
 1038TIP3    H2 3072   0.219   2.192   3.155
 1039TIP3   OH2 3073   7.707   2.530   5.568
 1039TIP3    H1 3074   7.710   2.625   5.581
 1039TIP3    H2 3075   7.743   2.517   5.480
 1040TIP3   OH2 3076   0.867   3.329   4.323
 1040TIP3    H1 3077   0.848   3.411   4.278
 1040TIP3    H2 3078   0.863   3.263   4.254
 1041TIP3   OH2 3079   2.981   5.629   6.031
 1041TIP3    H1 3080   2.907   5.568   6.024
 1041TIP3    H2 3081   3.044   5.583   6.087
 1042TIP3   OH2 3082   6.008   4.480   5.751
 1042TIP3    H1 3083   5.920   4.446   5.766
 1042TIP3    H2 3084   5.994   4.569   5.719
 1043TIP3   OH2 3085   1.366   4.697   6.188
 1043TIP3    H1 3086   1.416   4.735   6.260
 1043TIP3    H2 3087   1.312   4.770   6.155
 1044TIP3   OH2 3088   1.799   3.668   2.970
 1044TIP3    H1 3089   1.758   3.677   2.884
 1044TIP3    H2 3090   1.856   3.744   2.978
 1045TIP3   OH2 3091   0.942   0.967   6.569
 1045TIP3    H1 3092   0.870   0.932   6.517
 1045TIP3    H2 3093   1.019   0.922   6.537
 1046TIP3   OH2 3094   1.460   2.369   5.765
 1046TIP3    H1 3095   1.482   2.282   5.732
 1046TIP3    H2 3096   1.378   2.356   5.813
 1047TIP3   OH2 3097   2.967   7.535   4.966
 1047TIP3    H1 3098   3.050   7.572   4.994
 1047TIP3    H2 3099   2.961   7.451   5.012
 1048TIP3   OH2 3100   0.985   4.705   3.898
 1048TIP3    H1 3101   1.009   4.797   3.902
 1048TIP3    H2 3102   0.893   4.704   3.926
 1049TIP3   OH2 3103   6.897   0.981   6.426
 1049TIP3    H1 3104   6.805   0.955   6.434
 1049TIP3    H2 3105   6.910   0.991   6.331
 1050TIP3   OH2 3106   3.200   3.859   5.804
 1050TIP3    H1 3107   3.273   3.894   5.855
 1050TIP3    H2 3108   3.236   3.780   5.763
 1051TIP3   OH2 3109   0.788   3.671   5.117
 1051TIP3    H1 3110   0.871   3.694   5.158
 1051TIP3    H2 3111   0.788   3.721   5.035
 1052TIP3   OH2 3112   7.003   3.946   4.532
 1052TIP3    H1 3113   7.006   3.969   4.439
 1052TIP3    H2 3114   7.092   3.961   4.564
 1053TIP3   OH2 3115   0.936   4.855   0.359
 1053TIP3    H1 3116   0.923   4.879   0.450
 1053TIP3    H2 3117   0.995   4.922   0.324
 1054TIP3   OH2 3118   4.206   2.545   4.891
 1054TIP3    H1 3119   4.218   2.551   4.985
 1054TIP3    H2 3120   4.281   2.593   4.854
 1055TIP3   OH2 3121   2.799   3.224   4.808
 1055TIP3    H1 3122   2.889   3.208   4.836
 1055TIP3    H2 3123   2.745   3.182   4.874
 1056TIP3   OH2 3124   3.833   7.128   3.426
 1056TIP3    H1 3125   3.910   7.077   3.401
 1056TIP3    H2 3126   3.867   7.198   3.482
 1057TIP3   OH2 3127   0.664   6.014   0.925
 1057TIP3    H1 3128   0.667   6.108   0.944
 1057TIP3    H2 3129   0.572   5.991   0.934
 1058TIP3   OH2 3130   7.665   0.374   6.569
 1058TIP3    H1 3131   7.704   0.330   6.645
 1058TIP3    H2 3132   7.583   0.328   6.555
 1059TIP3   OH2 3133   4.090   6.568   5.573
 1059TIP3    H1 3134   4.108   6.648   5.523
 1059TIP3    H2 3135   4.058   6.506   5.508
 1060TIP3   OH2 3136   0.674   2.168   2.455
 1060TIP3    H1 3137   0.640   2.257   2.442
 1060TIP3    H2 3138   0.636   2.140   2.538
 1061TIP3   OH2 3139   6.502   0.215   5.358
 1061TIP3    H1 3140   6.447   0.159   5.303
 1061TIP3    H2 3141   6.579   0.233   5.304
 1062TIP3   OH2 3142   5.357   5.795   0.090
 1062TIP3    H1 3143   5.418   5.792   0.016
 1062TIP3    H2 3144   5.329   5.886   0.094
 1063TIP3   OH2 3145   6.442   1.716   2.816
 1063TIP3    H1 3146   6.487   1.794   2.849
 1063TIP3    H2 3147   6.428   1.734   2.723
 1064TIP3   OH2 3148   6.142   0.681   2.462
 1064TIP3    H1 3149   6.106   0.605   2.507
 1064TIP3    H2 3150   6.194   0.725   2.530
 1065TIP3   OH2 3151   7.698   0.044   0.820
 1065TIP3    H1 3152   7.651   0.019   0.740
 1065TIP3    H2 3153   7.752  -0.032   0.841
 1066TIP3   OH2 3154   3.231   2.945   0.128
 1066TIP3    H1 3155   3.250   2.933   0.221
 1066TIP3    H2 3156   3.234   3.040   0.114
 1067TIP3   OH2 3157   7.050   4.120   1.482
 1067TIP3    H1 3158   6.959   4.117   1.452
 1067TIP3    H2 3159   7.097   4.061   1.423
 1068TIP3   OH2 3160   3.845   4.626   6.590
 1068TIP3    H1 3161   3.905   4.660   6.656
 1068TIP3    H2 3162   3.780   4.576   6.639
 1069TIP3   OH2 3163   3.570   6.327   4.062
 1069TIP3    H1 3164   3.490   6.365   4.099
 1069TIP3    H2 3165   3.542   6.293   3.976
 1070TIP3   OH2 3166   7.392   1.853   2.117
 1070TIP3    H1 3167   7.400   1.782   2.053
 1070TIP3    H2 3168   7.301   1.849   2.147
 1071TIP3   OH2 3169   0.795   4.342   5.587
 1071TIP3    H1 3170   0.802   4.438   5.593
 1071TIP3    H2 3171   0.876   4.315   5.544
 1072TIP3   OH2 3172   3.310   6.186   2.484
 1072TIP3    H1 3173   3.319   6.219   2.395
 1072TIP3    H2 3174   3.231   6.132   2.483
 1073TIP3   OH2 3175   5.642   3.808   0.665
 1073TIP3    H1 3176   5.617   3.741   0.729
 1073TIP3    H2 3177   5.561   3.856   0.647
 1074TIP3   OH2 3178   2.119   0.192   1.405
 1074TIP3    H1 3179   2.032   0.222   1.378
 1074TIP3    H2 3180   2.111   0.097   1.410
 1075TIP3   OH2 3181   2.383   2.269   5.634
 1075TIP3    H1 3182   2.362   2.176   5.641
 1075TIP3    H2 3183   2.382   2.301   5.724
 1076TIP3   OH2 3184   2.928   4.801   5.142
 1076TIP3    H1 3185   2.967   4.884   5.168
 1076TIP3    H2 3186   2.841   4.824   5.108
 1077TIP3   OH2 3187   4.540   4.503   1.056
 1077TIP3    H1 3188   4.583   4.434   1.005
 1077TIP3    H2 3189   4.612   4.548   1.100
 1078TIP3   OH2 3190   3.195   3.893   1.762
 1078TIP3    H1 3191   3.251   3.814   1.759
 1078TIP3    H2 3192   3.108   3.861   1.740
 1079TIP3   OH2 3193   2.748   7.206   4.430
 1079TIP3    H1 3194   2.828   7.203   4.377
 1079TIP3    H2 3195   2.762   7.140   4.498
 1080TIP3   OH2 3196   4.051   1.440   1.558
 1080TIP3    H1 3197   4.051   1.347   1.535
 1080TIP3    H2 3198   3.981   1.479   1.505
 1081TIP3   OH2 3199   5.237   7.564   1.912
 1081TIP3    H1 3200   5.273   7.516   1.838
 1081TIP3    H2 3201   5.281   7.649   1.908
 1082TIP3   OH2 3202   2.145   4.170   5.224
 1082TIP3    H1 3203   2.194   4.214   5.294
 1082TIP3    H2 3204   2.111   4.241   5.171
 1083TIP3   OH2 3205   0.595   0.634   1.465
 1083TIP3    H1 3206   0.516   0.632   1.412
 1083TIP3    H2 3207   0.617   0.727   1.473
 1084TIP3   OH2 3208   7.990   0.877   1.033
 1084TIP3    H1 3209   8.005   0.958   0.985
 1084TIP3    H2 3210   8.072   0.861   1.079
 1085TIP3   OH2 3211   1.349   2.636   5.248
 1085TIP3    H1 3212   1.388   2.597   5.326
 1085TIP3    H2 3213   1.421   2.686   5.208
 1086TIP3   OH2 3214   7.432   2.418   5.571
 1086TIP3    H1 3215   7.516   2.444   5.533
 1086TIP3    H2 3216   7.395   2.499   5.606
 1087TIP3   OH2 3217   5.982   4.798   5.099
 1087TIP3    H1 3218   6.065   4.800   5.146
 1087TIP3    H2 3219   5.984   4.715   5.051
 1088TIP3   OH2 3220   2.438   6.038   5.255
 1088TIP3    H1 3221   2.455   6.126   5.220
 1088TIP3    H2 3222   2.342   6.030   5.254
 1089TIP3   OH2 3223   7.921   1.321   0.736
 1089TIP3    H1 3224   7.836   1.360   0.755
 1089TIP3    H2 3225   7.911   1.282   0.649
 1090TIP3   OH2 3226   1.069   3.963   2.521
 1090TIP3    H1 3227   1.096   3.920   2.440
 1090TIP3    H2 3228   1.146   3.957   2.577
 1091TIP3   OH2 3229   4.760   1.152   1.370
 1091TIP3    H1 3230   4.671   1.121   1.353
 1091TIP3    H2 3231   4.748   1.240   1.406
 1092TIP3   OH2 3232   2.242   4.803   1.867
 1092TIP3    H1 3233   2.169   4.865   1.872
 1092TIP3    H2 3234   2.312   4.851   1.822
 1093TIP3   OH2 3235   6.592   2.636   6.474
 1093TIP3    H1 3236   6.598   2.584   6.394
 1093TIP3    H2 3237   6.541   2.581   6.534
 1094TIP3   OH2 3238   8.140   7.084   1.518
 1094TIP3    H1 3239   8.067   7.024   1.534
 1094TIP3    H2 3240   8.112   7.167   1.557
 1095TIP3   OH2 3241   4.276   2.940   0.717
 1095TIP3    H1 3242   4.305   2.877   0.783
 1095TIP3    H2 3243   4.200   2.898   0.676
 1096TIP3   OH2 3244   2.993   2.254   0.159
 1096TIP3    H1 3245   3.080   2.247   0.200
 1096TIP3    H2 3246   2.953   2.169   0.174
 1097TIP3   OH2 3247   6.540   2.653   1.201
 1097TIP3    H1 3248   6.589   2.641   1.282
 1097TIP3    H2 3249   6.451   2.626   1.222
 1098TIP3   OH2 3250   6.540   4.156   1.792
 1098TIP3    H1 3251   6.590   4.140   1.872
 1098TIP3    H2 3252   6.607   4.170   1.725
 1099TIP3   OH2 3253   5.249   4.903   0.878
 1099TIP3    H1 3254   5.345   4.899   0.873
 1099TIP3    H2 3255   5.229   4.996   0.871
 1100TIP3   OH2 3256   7.568   5.618   1.701
 1100TIP3    H1 3257   7.541   5.534   1.737
 1100TIP3    H2 3258   7.496   5.677   1.721
 1101TIP3   OH2 3259   3.673   4.680   6.008
 1101TIP3    H1 3260   3.650   4.773   6.004
 1101TIP3    H2 3261   3.588   4.635   6.012
 1102TIP3   OH2 3262   5.441   7.242   2.661
 1102TIP3    H1 3263   5.514   7.223   2.720
 1102TIP3    H2 3264   5.482   7.248   2.575
 1103TIP3   OH2 3265   0.274   0.312   6.092
 1103TIP3    H1 3266   0.337   0.279   6.156
 1103TIP3    H2 3267   0.203   0.348   6.145
 1104TIP3   OH2 3268   7.816   0.800   4.292
 1104TIP3    H1 3269   7.877   0.757   4.351
 1104TIP3    H2 3270   7.871   0.854   4.235
 1105TIP3   OH2 3271   3.947   2.148   3.132
 1105TIP3    H1 3272   3.873   2.152   3.193
 1105TIP3    H2 3273   3.980   2.058   3.140
 1106TIP3   OH2 3274   5.921   4.447   2.616
 1106TIP3    H1 3275   5.952   4.450   2.526
 1106TIP3    H2 3276   5.966   4.520   2.659
 1107TIP3   OH2 3277   5.469   0.090   4.313
 1107TIP3    H1 3278   5.409   0.017   4.300
 1107TIP3    H2 3279   5.471   0.136   4.229
 1108TIP3   OH2 3280   2.409   6.857   3.778
 1108TIP3    H1 3281   2.477   6.806   3.735
 1108TIP3    H2 3282   2.329   6.805   3.766
 1109TIP3   OH2 3283   5.956   0.440   1.624
 1109TIP3    H1 3284   6.046   0.411   1.613
 1109TIP3    H2 3285   5.919   0.379   1.689
 1110TIP3   OH2 3286   7.272   7.122   5.160
 1110TIP3    H1 3287   7.275   7.101   5.253
 1110TIP3    H2 3288   7.309   7.210   5.154
 1111TIP3   OH2 3289   5.170   4.181   3.425
 1111TIP3    H1 3290   5.116   4.190   3.346
 1111TIP3    H2 3291   5.233   4.252   3.419
 1112TIP3   OH2 3292   2.944   0.612   3.526
 1112TIP3    H1 3293   2.968   0.524   3.553
 1112TIP3    H2 3294   2.943   0.662   3.608
 1113TIP3   OH2 3295   1.978   2.631   4.085
 1113TIP3    H1 3296   2.073   2.633   4.097
 1113TIP3    H2 3297   1.947   2.713   4.125
 1114TIP3   OH2 3298   0.876   0.177   5.953
 1114TIP3    H1 3299   0.889   0.158   6.046
 1114TIP3    H2 3300   0.883   0.092   5.910
 1115TIP3   OH2 3301   5.773   0.556   3.680
 1115TIP3    H1 3302   5.695   0.548   3.626
 1115TIP3    H2 3303   5.793   0.467   3.707
 1116TIP3   OH2 3304   3.150   0.371   1.303
 1116TIP3    H1 3305   3.179   0.305   1.240
 1116TIP3    H2 3306   3.199   0.450   1.279
 1117TIP3   OH2 3307   1.062   7.437   1.250
 1117TIP3    H1 3308   1.009   7.410   1.175
 1117TIP3    H2 3309   1.145   7.390   1.239
 1118TIP3   OH2 3310   0.889   1.747   1.249
 1118TIP3    H1 3311   0.960   1.697   1.290
 1118TIP3    H2 3312   0.908   1.742   1.156
 1119TIP3   OH2 3313   2.242   3.510   0.646
 1119TIP3    H1 3314   2.189   3.491   0.569
 1119TIP3    H2 3315   2.321   3.551   0.612
 1120TIP3   OH2 3316   7.436   3.205   6.027
 1120TIP3    H1 3317   7.507   3.144   6.005
 1120TIP3    H2 3318   7.359   3.167   5.986
 1121TIP3   OH2 3319   8.268   3.325   4.388
 1121TIP3    H1 3320   8.273   3.420   4.399
 1121TIP3    H2 3321   8.278   3.310   4.294
 1122TIP3   OH2 3322   7.024   5.951   3.603
 1122TIP3    H1 3323   6.931   5.932   3.614
 1122TIP3    H2 3324   7.029   6.046   3.611
 1123TIP3   OH2 3325   1.374   7.189   0.836
 1123TIP3    H1 3326   1.351   7.142   0.756
 1123TIP3    H2 3327   1.351   7.280   0.817
 1124TIP3   OH2 3328   1.975   6.740   2.689
 1124TIP3    H1 3329   1.995   6.708   2.777
 1124TIP3    H2 3330   1.940   6.664   2.643
 1125TIP3   OH2 3331   1.225   0.439   6.402
 1125TIP3    H1 3332   1.165   0.432   6.329
 1125TIP3    H2 3333   1.170   0.459   6.477
 1126TIP3   OH2 3334   4.035   2.387   2.663
 1126TIP3    H1 3335   3.992   2.442   2.598
 1126TIP3    H2 3336   3.963   2.354   2.718
 1127TIP3   OH2 3337   0.403   6.799   0.567
 1127TIP3    H1 3338   0.445   6.714   0.559
 1127TIP3    H2 3339   0.469   6.862   0.537
 1128TIP3   OH2 3340   4.732   7.529   1.734
 1128TIP3    H1 3341   4.710   7.438   1.751
 1128TIP3    H2 3342   4.781   7.557   1.811
 1129TIP3   OH2 3343   5.149   7.098   3.900
 1129TIP3    H1 3344   5.123   7.006   3.904
 1129TIP3    H2 3345   5.068   7.146   3.917
 1130TIP3   OH2 3346   7.226   7.509   3.189
 1130TIP3    H1 3347   7.286   7.554   3.248
 1130TIP3    H2 3348   7.259   7.419   3.185
 1131TIP3   OH2 3349   7.162   2.855   4.145
 1131TIP3    H1 3350   7.253   2.855   4.114
 1131TIP3    H2 3351   7.112   2.817   4.073
 1132TIP3   OH2 3352   4.269   0.968   0.960
 1132TIP3    H1 3353   4.231   1.021   0.889
 1132TIP3    H2 3354   4.356   1.006   0.974
 1133TIP3   OH2 3355   6.400   7.258   0.719
 1133TIP3    H1 3356   6.482   7.268   0.672
 1133TIP3    H2 3357   6.422   7.273   0.811
 1134TIP3   OH2 3358   5.797   2.182   4.366
 1134TIP3    H1 3359   5.757   2.268   4.353
 1134TIP3    H2 3360   5.869   2.178   4.303
 1135TIP3   OH2 3361   1.128   3.195   3.456
 1135TIP3    H1 3362   1.172   3.265   3.407
 1135TIP3    H2 3363   1.191   3.123   3.455
 1136TIP3   OH2 3364   5.652   0.471   1.101
 1136TIP3    H1 3365   5.644   0.544   1.041
 1136TIP3    H2 3366   5.722   0.497   1.161
 1137TIP3   OH2 3367   3.377   6.470   6.276
 1137TIP3    H1 3368   3.471   6.485   6.268
 1137TIP3    H2 3369   3.338   6.557   6.276
 1138TIP3   OH2 3370   6.302   2.644   5.346
 1138TIP3    H1 3371   6.314   2.550   5.329
 1138TIP3    H2 3372   6.211   2.661   5.319
 1139TIP3   OH2 3373   3.197   2.590   3.807
 1139TIP3    H1 3374   3.210   2.518   3.869
 1139TIP3    H2 3375   3.284   2.629   3.798
 1140TIP3   OH2 3376   0.189   5.436   6.143
 1140TIP3    H1 3377   0.260   5.438   6.078
 1140TIP3    H2 3378   0.148   5.350   6.130
 1141TIP3   OH2 3379   1.826   6.316   3.113
 1141TIP3    H1 3380   1.804   6.254   3.044
 1141TIP3    H2 3381   1.922   6.313   3.118
 1142TIP3   OH2 3382   7.681   4.922   2.968
 1142TIP3    H1 3383   7.759   4.978   2.975
 1142TIP3    H2 3384   7.715   4.838   2.937
 1143TIP3   OH2 3385   3.855   0.695   6.053
 1143TIP3    H1 3386   3.853   0.603   6.025
 1143TIP3    H2 3387   3.899   0.693   6.138
 1144TIP3   OH2 3388   7.573   3.616   2.389
 1144TIP3    H1 3389   7.509   3.687   2.394
 1144TIP3    H2 3390   7.524   3.538   2.415
 1145TIP3   OH2 3391   2.134   0.560   1.874
 1145TIP3    H1 3392   2.105   0.504   1.802
 1145TIP3    H2 3393   2.057   0.612   1.896
 1146TIP3   OH2 3394   0.071   3.952   3.119
 1146TIP3    H1 3395  -0.023   3.944   3.106
 1146TIP3    H2 3396   0.089   4.045   3.112
 1147TIP3   OH2 3397   3.904   3.483   2.445
 1147TIP3    H1 3398   3.959   3.515   2.374
 1147TIP3    H2 3399   3.936   3.394   2.461
 1148TIP3   OH2 3400   5.984   1.672   3.797
 1148TIP3    H1 3401   6.003   1.627   3.880
 1148TIP3    H2 3402   5.971   1.763   3.822
 1149TIP3   OH2 3403   8.302   1.074   2.602
 1149TIP3    H1 3404   8.347   1.012   2.545
 1149TIP3    H2 3405   8.251   1.019   2.662
 1150TIP3   OH2 3406   6.247   3.024   5.358
 1150TIP3    H1 3407   6.266   2.953   5.297
 1150TIP3    H2 3408   6.292   3.100   5.321
 1151TIP3   OH2 3409   2.106   5.272   3.909
 1151TIP3    H1 3410   2.020   5.309   3.886
 1151TIP3    H2 3411   2.157   5.277   3.829
 1152TIP3   OH2 3412   7.957   5.405   2.342
 1152TIP3    H1 3413   7.997   5.381   2.258
 1152TIP3    H2 3414   8.006   5.354   2.407
 1153TIP3   OH2 3415   5.595   4.336   6.543
 1153TIP3    H1 3416   5.560   4.261   6.494
 1153TIP3    H2 3417   5.671   4.300   6.590
 1154TIP3   OH2 3418   7.220   2.611   5.574
 1154TIP3    H1 3419   7.164   2.626   5.498
 1154TIP3    H2 3420   7.177   2.657   5.646
 1155TIP3   OH2 3421   1.534   5.860   1.759
 1155TIP3    H1 3422   1.472   5.911   1.706
 1155TIP3    H2 3423   1.500   5.867   1.848
 1156TIP3   OH2 3424   6.611   1.455   4.652
 1156TIP3    H1 3425   6.675   1.411   4.708
 1156TIP3    H2 3426   6.562   1.384   4.611
 1157TIP3   OH2 3427   6.879   1.825   4.706
 1157TIP3    H1 3428   6.818   1.813   4.634
 1157TIP3    H2 3429   6.936   1.896   4.678
 1158TIP3   OH2 3430   8.175   7.059   3.669
 1158TIP3    H1 3431   8.095   7.043   3.719
 1158TIP3    H2 3432   8.160   7.144   3.626
 1159TIP3   OH2 3433   5.667   4.786   4.374
 1159TIP3    H1 3434   5.759   4.813   4.364
 1159TIP3    H2 3435   5.647   4.737   4.295
 1160TIP3   OH2 3436   0.758   1.160   3.314
 1160TIP3    H1 3437   0.727   1.099   3.248
 1160TIP3    H2 3438   0.738   1.118   3.398
 1161TIP3   OH2 3439   7.793   0.169   6.729
 1161TIP3    H1 3440   7.876   0.197   6.767
 1161TIP3    H2 3441   7.733   0.163   6.803
 1162TIP3   OH2 3442   4.312   0.115   4.769
 1162TIP3    H1 3443   4.327   0.206   4.792
 1162TIP3    H2 3444   4.298   0.071   4.853
 1163TIP3   OH2 3445   5.669   3.799   6.237
 1163TIP3    H1 3446   5.657   3.811   6.331
 1163TIP3    H2 3447   5.599   3.852   6.197
 1164TIP3   OH2 3448   3.196   5.206   4.963
 1164TIP3    H1 3449   3.261   5.250   5.018
 1164TIP3    H2 3450   3.189   5.118   5.000
 1165TIP3   OH2 3451   5.309   3.146   1.014
 1165TIP3    H1 3452   5.304   3.127   1.107
 1165TIP3    H2 3453   5.266   3.231   1.004
 1166TIP3   OH2 3454   0.453   2.951   1.917
 1166TIP3    H1 3455   0.383   3.015   1.914
 1166TIP3    H2 3456   0.440   2.896   1.840
 1167TIP3   OH2 3457   4.605   2.489   1.495
 1167TIP3    H1 3458   4.697   2.486   1.466
 1167TIP3    H2 3459   4.608   2.461   1.586
 1168TIP3   OH2 3460   0.282   1.327   1.846
 1168TIP3    H1 3461   0.264   1.415   1.811
 1168TIP3    H2 3462   0.197   1.284   1.847
 1169TIP3   OH2 3463   2.182   2.266   1.325
 1169TIP3    H1 3464   2.202   2.359   1.332
 1169TIP3    H2 3465   2.220   2.227   1.404
 1170TIP3   OH2 3466   1.934   4.069   1.550
 1170TIP3    H1 3467   1.939   4.151   1.599
 1170TIP3    H2 3468   2.009   4.019   1.579
 1171TIP3   OH2 3469   7.084   7.104   2.737
 1171TIP3    H1 3470   7.097   7.019   2.695
 1171TIP3    H2 3471   7.132   7.097   2.820
 1172TIP3   OH2 3472   5.504   1.108   6.461
 1172TIP3    H1 3473   5.544   1.153   6.535
 1172TIP3    H2 3474   5.502   1.016   6.487
 1173TIP3   OH2 3475   3.878   3.846   1.888
 1173TIP3    H1 3476   3.937   3.801   1.948
 1173TIP3    H2 3477   3.934   3.880   1.819
 1174TIP3   OH2 3478   0.320   7.138   2.889
 1174TIP3    H1 3479   0.410   7.170   2.884
 1174TIP3    H2 3480   0.287   7.144   2.799
 1175TIP3   OH2 3481   4.378   6.339   0.088
 1175TIP3    H1 3482   4.400   6.251   0.060
 1175TIP3    H2 3483   4.312   6.327   0.156
 1176TIP3   OH2 3484   6.396   6.861   3.324
 1176TIP3    H1 3485   6.319   6.806   3.340
 1176TIP3    H2 3486   6.451   6.809   3.266
 1177TIP3   OH2 3487   0.561   2.454   1.948
 1177TIP3    H1 3488   0.485   2.440   2.005
 1177TIP3    H2 3489   0.635   2.416   1.996
 1178TIP3   OH2 3490   7.508   0.223   0.634
 1178TIP3    H1 3491   7.565   0.146   0.641
 1178TIP3    H2 3492   7.474   0.219   0.544
 1179TIP3   OH2 3493   4.056   1.884   4.613
 1179TIP3    H1 3494   4.014   1.969   4.598
 1179TIP3    H2 3495   4.138   1.889   4.563
 1180TIP3   OH2 3496   5.219   1.442   5.407
 1180TIP3    H1 3497   5.247   1.501   5.337
 1180TIP3    H2 3498   5.256   1.357   5.385
 1181TIP3   OH2 3499   1.654   4.708   4.460
 1181TIP3    H1 3500   1.657   4.725   4.366
 1181TIP3    H2 3501   1.567   4.738   4.487
 1182TIP3   OH2 3502   1.709   4.927   0.508
 1182TIP3    H1 3503   1.627   4.975   0.511
 1182TIP3    H2 3504   1.683   4.835   0.498
 1183TIP3   OH2 3505   1.321   6.529   1.985
 1183TIP3    H1 3506   1.301   6.595   2.051
 1183TIP3    H2 3507   1.235   6.494   1.959
 1184TIP3   OH2 3508   4.633   6.446   2.674
 1184TIP3    H1 3509   4.622   6.539   2.652
 1184TIP3    H2 3510   4.546   6.408   2.660
 1185TIP3   OH2 3511   7.331   2.922   3.080
 1185TIP3    H1 3512   7.270   2.901   3.010
 1185TIP3    H2 3513   7.401   2.971   3.037
 1186TIP3   OH2 3514   2.255   6.374   4.016
 1186TIP3    H1 3515   2.331   6.323   3.988
 1186TIP3    H2 3516   2.274   6.464   3.988
 1187TIP3   OH2 3517   4.629   4.470   0.561
 1187TIP3    H1 3518   4.681   4.391   0.549
 1187TIP3    H2 3519   4.547   4.440   0.600
 1188TIP3   OH2 3520   0.345   4.178   5.814
 1188TIP3    H1 3521   0.287   4.181   5.738
 1188TIP3    H2 3522   0.290   4.206   5.887
 1189TIP3   OH2 3523   6.499   7.591   4.916
 1189TIP3    H1 3524   6.462   7.503   4.902
 1189TIP3    H2 3525   6.538   7.614   4.832
 1190TIP3   OH2 3526   8.016   1.334   5.437
 1190TIP3    H1 3527   7.969   1.409   5.473
 1190TIP3    H2 3528   7.962   1.306   5.363
 1191TIP3   OH2 3529   6.648   3.839   2.417
 1191TIP3    H1 3530   6.720   3.837   2.480
 1191TIP3    H2 3531   6.593   3.912   2.444
 1192TIP3   OH2 3532   7.077   6.368   2.169
 1192TIP3    H1 3533   7.095   6.381   2.262
 1192TIP3    H2 3534   7.013   6.436   2.146
 1193TIP3   OH2 3535   7.884   3.755   6.122
 1193TIP3    H1 3536   7.809   3.740   6.181
 1193TIP3    H2 3537   7.844   3.770   6.036
 1194TIP3   OH2 3538   4.072   6.738   2.283
 1194TIP3    H1 3539   4.157   6.744   2.326
 1194TIP3    H2 3540   4.058   6.825   2.245
 1195TIP3   OH2 3541   0.325   3.570   0.846
 1195TIP3    H1 3542   0.406   3.608   0.811
 1195TIP3    H2 3543   0.332   3.477   0.826
 1196TIP3   OH2 3544   0.716   4.037   2.109
 1196TIP3    H1 3545   0.716   4.093   2.031
 1196TIP3    H2 3546   0.664   4.086   2.173
 1197TIP3   OH2 3547   2.551   6.821   3.178
 1197TIP3    H1 3548   2.470   6.870   3.193
 1197TIP3    H2 3549   2.596   6.822   3.263
 1198TIP3   OH2 3550   1.204   0.988   5.131
 1198TIP3    H1 3551   1.177   1.060   5.187
 1198TIP3    H2 3552   1.130   0.976   5.071
 1199TIP3   OH2 3553   3.503   1.475   5.219
 1199TIP3    H1 3554   3.447   1.519   5.155
 1199TIP3    H2 3555   3.507   1.536   5.293
 1200TIP3   OH2 3556   4.552   3.255   5.728
 1200TIP3    H1 3557   4.521   3.328   5.675
 1200TIP3    H2 3558   4.524   3.177   5.679
 1201TIP3   OH2 3559   7.120   3.098   2.095
 1201TIP3    H1 3560   7.113   3.005   2.072
 1201TIP3    H2 3561   7.082   3.104   2.182
 1202TIP3   OH2 3562   2.416   3.726   0.657
 1202TIP3    H1 3563   2.411   3.734   0.752
 1202TIP3    H2 3564   2.509   3.737   0.637
 1203TIP3   OH2 3565   7.996   3.757   3.003
 1203TIP3    H1 3566   8.029   3.691   3.063
 1203TIP3    H2 3567   8.021   3.841   3.041
 1204TIP3   OH2 3568   3.034   6.933   4.987
 1204TIP3    H1 3569   3.076   6.941   4.901
 1204TIP3    H2 3570   2.951   6.889   4.969
 1205TIP3   OH2 3571   5.602   6.012   1.493
 1205TIP3    H1 3572   5.591   5.933   1.545
 1205TIP3    H2 3573   5.512   6.041   1.474
 1206TIP3   OH2 3574   0.188   7.455   1.306
 1206TIP3    H1 3575   0.259   7.426   1.248
 1206TIP3    H2 3576   0.129   7.380   1.310
 1207TIP3   OH2 3577   4.184   2.422   5.712
 1207TIP3    H1 3578   4.118   2.415   5.781
 1207TIP3    H2 3579   4.164   2.350   5.652
 1208TIP3   OH2 3580   5.229   1.922   2.625
 1208TIP3    H1 3581   5.275   1.926   2.709
 1208TIP3    H2 3582   5.285   1.868   2.570
 1209TIP3   OH2 3583   2.417   7.549   6.353
 1209TIP3    H1 3584   2.461   7.522   6.433
 1209TIP3    H2 3585   2.452   7.636   6.334
 1210TIP3   OH2 3586   4.253   2.278   2.557
 1210TIP3    H1 3587   4.180   2.330   2.592
 1210TIP3    H2 3588   4.304   2.254   2.634
 1211TIP3   OH2 3589   8.256   6.300   5.402
 1211TIP3    H1 3590   8.306   6.315   5.321
 1211TIP3    H2 3591   8.249   6.205   5.409
 1212TIP3   OH2 3592   2.276   3.876   6.154
 1212TIP3    H1 3593   2.243   3.959   6.187
 1212TIP3    H2 3594   2.198   3.822   6.143
 1213TIP3   OH2 3595   7.449   5.458   6.378
 1213TIP3    H1 3596   7.489   5.532   6.423
 1213TIP3    H2 3597   7.516   5.390   6.378
 1214TIP3   OH2 3598   0.400   1.168   0.429
 1214TIP3    H1 3599   0.442   1.200   0.509
 1214TIP3    H2 3600   0.336   1.235   0.407
 1215TIP3   OH2 3601   3.596   1.393   6.409
 1215TIP3    H1 3602   3.613   1.352   6.494
 1215TIP3    H2 3603   3.553   1.323   6.358
 1216TIP3   OH2 3604   3.178   0.129   6.054
 1216TIP3    H1 3605   3.110   0.081   6.008
 1216TIP3    H2 3606   3.206   0.070   6.124
 1217TIP3   OH2 3607   2.643   1.482   6.732
 1217TIP3    H1 3608   2.662   1.388   6.733
 1217TIP3    H2 3609   2.597   1.498   6.814
 1218TIP3   OH2 3610   0.232   0.310   2.585
 1218TIP3    H1 3611   0.173   0.323   2.659
 1218TIP3    H2 3612   0.234   0.215   2.572
 1219TIP3   OH2 3613   5.393   1.334   0.257
 1219TIP3    H1 3614   5.488   1.320   0.263
 1219TIP3    H2 3615   5.359   1.249   0.228
 1220TIP3   OH2 3616   1.971   5.082   6.289
 1220TIP3    H1 3617   1.986   5.154   6.229
 1220TIP3    H2 3618   1.908   5.116   6.353
 1221TIP3   OH2 3619   6.677   7.334   0.577
 1221TIP3    H1 3620   6.631   7.416   0.556
 1221TIP3    H2 3621   6.632   7.267   0.525
 1222TIP3   OH2 3622   4.459   0.226   2.437
 1222TIP3    H1 3623   4.368   0.208   2.411
 1222TIP3    H2 3624   4.453   0.247   2.530
 1223TIP3   OH2 3625   4.674   4.465   4.792
 1223TIP3    H1 3626   4.637   4.411   4.722
 1223TIP3    H2 3627   4.768   4.463   4.777
 1224TIP3   OH2 3628   3.546   7.401   0.719
 1224TIP3    H1 3629   3.487   7.351   0.663
 1224TIP3    H2 3630   3.633   7.383   0.684
 1225TIP3   OH2 3631   4.751   2.052   1.531
 1225TIP3    H1 3632   4.667   2.065   1.487
 1225TIP3    H2 3633   4.803   2.001   1.469
 1226TIP3   OH2 3634   7.327   4.652   4.542
 1226TIP3    H1 3635   7.274   4.683   4.468
 1226TIP3    H2 3636   7.358   4.566   4.515
 1227TIP3   OH2 3637   5.128   3.766   2.160
 1227TIP3    H1 3638   5.118   3.782   2.254
 1227TIP3    H2 3639   5.207   3.814   2.135
 1228TIP3   OH2 3640   1.059   4.553   6.613
 1228TIP3    H1 3641   1.059   4.639   6.571
 1228TIP3    H2 3642   1.138   4.510   6.579
 1229TIP3   OH2 3643   5.371   4.844   3.838
 1229TIP3    H1 3644   5.461   4.818   3.818
 1229TIP3    H2 3645   5.366   4.842   3.933
 1230TIP3   OH2 3646   4.109   5.872   1.899
 1230TIP3    H1 3647   4.058   5.953   1.904
 1230TIP3    H2 3648   4.066   5.821   1.830
 1231TIP3   OH2 3649   7.332   2.221   1.598
 1231TIP3    H1 3650   7.381   2.236   1.517
 1231TIP3    H2 3651   7.381   2.268   1.665
 1232TIP3   OH2 3652   4.182   7.212   5.887
 1232TIP3    H1 3653   4.091   7.186   5.873
 1232TIP3    H2 3654   4.185   7.243   5.978
 1233TIP3   OH2 3655   0.460   2.750   2.700
 1233TIP3    H1 3656   0.449   2.817   2.632
 1233TIP3    H2 3657   0.384   2.762   2.757
 1234TIP3   OH2 3658   6.801   0.567   3.411
 1234TIP3    H1 3659   6.810   0.593   3.319
 1234TIP3    H2 3660   6.891   0.553   3.441
 1235TIP3   OH2 3661   4.001   1.458   3.480
 1235TIP3    H1 3662   3.906   1.457   3.468
 1235TIP3    H2 3663   4.035   1.426   3.396
 1236TIP3   OH2 3664   0.165   5.923   4.956
 1236TIP3    H1 3665   0.157   6.017   4.942
 1236TIP3    H2 3666   0.098   5.884   4.901
 1237TIP3   OH2 3667   0.867   3.115   3.572
 1237TIP3    H1 3668   0.942   3.160   3.532
 1237TIP3    H2 3669   0.792   3.171   3.552
 1238TIP3   OH2 3670   0.304   6.763   4.142
 1238TIP3    H1 3671   0.329   6.855   4.131
 1238TIP3    H2 3672   0.251   6.762   4.223
 1239TIP3   OH2 3673   6.266   5.015   3.275
 1239TIP3    H1 3674   6.328   5.040   3.344
 1239TIP3    H2 3675   6.265   4.919   3.278
 1240TIP3   OH2 3676   5.028   2.694   2.627
 1240TIP3    H1 3677   5.083   2.645   2.688
 1240TIP3    H2 3678   4.942   2.696   2.669
 1241TIP3   OH2 3679   5.335   1.679   3.992
 1241TIP3    H1 3680   5.270   1.713   3.931
 1241TIP3    H2 3681   5.300   1.595   4.021
 1242TIP3   OH2 3682   6.094   5.311   1.150
 1242TIP3    H1 3683   6.150   5.256   1.203
 1242TIP3    H2 3684   6.005   5.282   1.170
 1243TIP3   OH2 3685   1.681   2.344   1.196
 1243TIP3    H1 3686   1.604   2.396   1.218
 1243TIP3    H2 3687   1.648   2.255   1.186
 1244TIP3   OH2 3688   0.135   6.783   1.865
 1244TIP3    H1 3689   0.203   6.718   1.886
 1244TIP3    H2 3690   0.056   6.749   1.906
 1245TIP3   OH2 3691   4.021   3.339   1.408
 1245TIP3    H1 3692   3.978   3.377   1.331
 1245TIP3    H2 3693   4.004   3.245   1.402
 1246TIP3   OH2 3694   5.946   3.627   0.708
 1246TIP3    H1 3695   6.027   3.582   0.685
 1246TIP3    H2 3696   5.883   3.556   0.723
 1247TIP3   OH2 3697   1.274   5.723   3.528
 1247TIP3    H1 3698   1.279   5.629   3.516
 1247TIP3    H2 3699   1.365   5.754   3.520
 1248TIP3   OH2 3700   1.642   6.724   4.905
 1248TIP3    H1 3701   1.727   6.715   4.863
 1248TIP3    H2 3702   1.579   6.696   4.839
 1249TIP3   OH2 3703   4.099   1.020   6.175
 1249TIP3    H1 3704   4.072   0.928   6.173
 1249TIP3    H2 3705   4.086   1.051   6.085
 1250TIP3   OH2 3706   6.391   3.320   3.064
 1250TIP3    H1 3707   6.390   3.385   2.994
 1250TIP3    H2 3708   6.454   3.254   3.035
 1251TIP3   OH2 3709   1.969   4.963   5.830
 1251TIP3    H1 3710   2.042   5.020   5.853
 1251TIP3    H2 3711   1.905   4.976   5.900
 1252TIP3   OH2 3712   7.523   1.233   5.169
 1252TIP3    H1 3713   7.539   1.327   5.169
 1252TIP3    H2 3714   7.489   1.215   5.081
 1253TIP3   OH2 3715   6.123   2.332   3.638
 1253TIP3    H1 3716   6.176   2.253   3.629
 1253TIP3    H2 3717   6.032   2.301   3.631
 1254TIP3   OH2 3718   7.080   2.580   6.658
 1254TIP3    H1 3719   7.097   2.524   6.582
 1254TIP3    H2 3720   7.037   2.522   6.721
 1255TIP3   OH2 3721   3.705   3.533   2.075
 1255TIP3    H1 3722   3.666   3.453   2.110
 1255TIP3    H2 3723   3.733   3.509   1.987
 1256TIP3   OH2 3724   2.048   0.399   5.359
 1256TIP3    H1 3725   1.977   0.381   5.421
 1256TIP3    H2 3726   2.027   0.485   5.323
 1257TIP3   OH2 3727   0.796   6.118   2.673
 1257TIP3    H1 3728   0.807   6.211   2.651
 1257TIP3    H2 3729   0.812   6.113   2.767
 1258TIP3   OH2 3730   5.741   1.551   0.087
 1258TIP3    H1 3731   5.674   1.571   0.152
 1258TIP3    H2 3732   5.805   1.622   0.094
 1259TIP3   OH2 3733   7.374   0.087   2.205
 1259TIP3    H1 3734   7.443   0.023   2.224
 1259TIP3    H2 3735   7.317   0.084   2.281
 1260TIP3   OH2 3736   0.566   1.317   2.328
 1260TIP3    H1 3737   0.489   1.330   2.273
 1260TIP3    H2 3738   0.603   1.404   2.339
 1261TIP3   OH2 3739   1.124   5.333   3.055
 1261TIP3    H1 3740   1.174   5.258   3.022
 1261TIP3    H2 3741   1.093   5.304   3.141
 1262TIP3   OH2 3742   3.601   5.632   5.539
 1262TIP3    H1 3743   3.616   5.555   5.593
 1262TIP3    H2 3744   3.524   5.675   5.577
 1263TIP3   OH2 3745   1.632   0.444   5.906
 1263TIP3    H1 3746   1.706   0.469   5.849
 1263TIP3    H2 3747   1.555   0.479   5.861
 1264TIP3   OH2 3748   3.604   1.736   3.030
 1264TIP3    H1 3749   3.639   1.648   3.049
 1264TIP3    H2 3750   3.575   1.768   3.116
 1265TIP3   OH2 3751   6.487   6.158   0.067
 1265TIP3    H1 3752   6.531   6.237   0.037
 1265TIP3    H2 3753   6.548   6.119   0.130
 1266TIP3   OH2 3754   0.399   0.201   4.385
 1266TIP3    H1 3755   0.430   0.114   4.411
 1266TIP3    H2 3756   0.390   0.249   4.468
 1267TIP3   OH2 3757   1.263   0.523   3.626
 1267TIP3    H1 3758   1.309   0.448   3.663
 1267TIP3    H2 3759   1.175   0.519   3.665
 1268TIP3   OH2 3760   5.844   1.642   6.347
 1268TIP3    H1 3761   5.891   1.568   6.310
 1268TIP3    H2 3762   5.802   1.607   6.425
 1269TIP3   OH2 3763   6.893   2.713   4.282
 1269TIP3    H1 3764   6.837   2.694   4.207
 1269TIP3    H2 3765   6.979   2.730   4.244
 1270TIP3   OH2 3766   6.338   7.430   1.151
 1270TIP3    H1 3767   6.299   7.381   1.223
 1270TIP3    H2 3768   6.322   7.522   1.173
 1271TIP3   OH2 3769   0.066   2.495   2.642
 1271TIP3    H1 3770   0.134   2.549   2.683
 1271TIP3    H2 3771   0.046   2.539   2.560
 1272TIP3   OH2 3772   3.125   1.529   2.134
 1272TIP3    H1 3773   3.149   1.461   2.196
 1272TIP3    H2 3774   3.194   1.595   2.143
 1273TIP3   OH2 3775   1.922   5.645   5.252
 1273TIP3    H1 3776   1.967   5.566   5.222
 1273TIP3    H2 3777   1.832   5.617   5.268
 1274TIP3   OH2 3778   1.771   6.229   2.555
 1274TIP3    H1 3779   1.676   6.232   2.562
 1274TIP3    H2 3780   1.788   6.177   2.477
 1275TIP3   OH2 3781   4.549   2.727   5.910
 1275TIP3    H1 3782   4.559   2.683   5.995
 1275TIP3    H2 3783   4.478   2.789   5.924
 1276TIP3   OH2 3784   5.744   6.138   3.032
 1276TIP3    H1 3785   5.693   6.057   3.023
 1276TIP3    H2 3786   5.769   6.140   3.125
 1277TIP3   OH2 3787   1.259   0.374   2.416
 1277TIP3    H1 3788   1.353   0.384   2.429
 1277TIP3    H2 3789   1.250   0.309   2.346
 1278TIP3   OH2 3790   4.526   0.069   0.602
 1278TIP3    H1 3791   4.532   0.162   0.627
 1278TIP3    H2 3792   4.572   0.064   0.519
 1279TIP3   OH2 3793   1.657   3.395   5.652
 1279TIP3    H1 3794   1.665   3.407   5.558
 1279TIP3    H2 3795   1.697   3.474   5.690
 1280TIP3   OH2 3796   5.416   0.393   5.308
 1280TIP3    H1 3797   5.409   0.483   5.341
 1280TIP3    H2 3798   5.376   0.396   5.222
 1281TIP3   OH2 3799   7.575   1.979   3.777
 1281TIP3    H1 3800   7.584   1.972   3.872
 1281TIP3    H2 3801   7.652   1.934   3.742
 1282TIP3   OH2 3802   8.257   0.368   5.089
 1282TIP3    H1 3803   8.351   0.368   5.074
 1282TIP3    H2 3804   8.243   0.430   5.160
 1283TIP3   OH2 3805   2.308   6.401   6.587
 1283TIP3    H1 3806   2.219   6.416   6.555
 1283TIP3    H2 3807   2.325   6.308   6.568
 1284TIP3   OH2 3808   0.609   0.313   4.199
 1284TIP3    H1 3809   0.538   0.304   4.262
 1284TIP3    H2 3810   0.609   0.406   4.176
 1285TIP3   OH2 3811   6.339   3.084   4.231
 1285TIP3    H1 3812   6.386   3.043   4.304
 1285TIP3    H2 3813   6.278   3.017   4.201
 1286TIP3   OH2 3814   2.463   5.811   1.075
 1286TIP3    H1 3815   2.420   5.895   1.087
 1286TIP3    H2 3816   2.432   5.780   0.989
 1287TIP3   OH2 3817   1.708   7.055   3.837
 1287TIP3    H1 3818   1.613   7.043   3.841
 1287TIP3    H2 3819   1.736   7.059   3.928
 1288TIP3   OH2 3820   6.031   2.420   5.213
 1288TIP3    H1 3821   6.012   2.443   5.304
 1288TIP3    H2 3822   6.121   2.387   5.216
 1289TIP3   OH2 3823   2.891   1.533   1.655
 1289TIP3    H1 3824   2.949   1.539   1.730
 1289TIP3    H2 3825   2.879   1.623   1.626
 1290TIP3   OH2 3826   6.148   0.641   6.207
 1290TIP3    H1 3827   6.101   0.637   6.124
 1290TIP3    H2 3828   6.124   0.725   6.246
 1291TIP3   OH2 3829   6.549   0.428   2.349
 1291TIP3    H1 3830   6.581   0.514   2.324
 1291TIP3    H2 3831   6.480   0.408   2.286
 1292TIP3   OH2 3832   7.378   0.844   4.275
 1292TIP3    H1 3833   7.426   0.904   4.218
 1292TIP3    H2 3834   7.433   0.765   4.278
 1293TIP3   OH2 3835   4.311   0.682   3.837
 1293TIP3    H1 3836   4.387   0.674   3.779
 1293TIP3    H2 3837   4.279   0.772   3.824
 1294TIP3   OH2 3838   3.438   5.776   5.972
 1294TIP3    H1 3839   3.461   5.745   5.884
 1294TIP3    H2 3840   3.495   5.852   5.986
 1295TIP3   OH2 3841   3.734   5.617   0.214
 1295TIP3    H1 3842   3.749   5.704   0.178
 1295TIP3    H2 3843   3.769   5.558   0.147
 1296TIP3   OH2 3844   6.047   3.782   2.402
 1296TIP3    H1 3845   6.025   3.694   2.432
 1296TIP3    H2 3846   6.064   3.772   2.308
 1297TIP3   OH2 3847   5.160   3.776   3.167
 1297TIP3    H1 3848   5.067   3.763   3.184
 1297TIP3    H2 3849   5.199   3.789   3.254
 1298TIP3   OH2 3850   5.270   5.056   1.192
 1298TIP3    H1 3851   5.240   5.069   1.102
 1298TIP3    H2 3852   5.364   5.037   1.183
 1299TIP3   OH2 3853   1.220   0.246   0.752
 1299TIP3    H1 3854   1.235   0.156   0.725
 1299TIP3    H2 3855   1.282   0.260   0.824
 1300TIP3   OH2 3856   4.363   6.679   0.290
 1300TIP3    H1 3857   4.391   6.768   0.311
 1300TIP3    H2 3858   4.291   6.690   0.228
 1301TIP3   OH2 3859   0.196   5.099   4.517
 1301TIP3    H1 3860   0.234   5.166   4.460
 1301TIP3    H2 3861   0.203   5.018   4.467
 1302TIP3   OH2 3862   1.567   1.288   2.948
 1302TIP3    H1 3863   1.484   1.319   2.911
 1302TIP3    H2 3864   1.620   1.367   2.957
 1303TIP3   OH2 3865   4.800   6.049   3.458
 1303TIP3    H1 3866   4.716   6.023   3.496
 1303TIP3    H2 3867   4.850   6.083   3.532
 1304TIP3   OH2 3868   5.105   6.622   4.172
 1304TIP3    H1 3869   5.174   6.682   4.199
 1304TIP3    H2 3870   5.144   6.572   4.100
 1305TIP3   OH2 3871   6.664   0.416   6.369
 1305TIP3    H1 3872   6.626   0.504   6.369
 1305TIP3    H2 3873   6.756   0.430   6.393
 1306TIP3   OH2 3874   1.398   3.563   1.272
 1306TIP3    H1 3875   1.378   3.648   1.233
 1306TIP3    H2 3876   1.337   3.502   1.231
 1307TIP3   OH2 3877   3.579   4.223   1.704
 1307TIP3    H1 3878   3.540   4.298   1.659
 1307TIP3    H2 3879   3.662   4.209   1.658
 1308TIP3   OH2 3880   0.689   4.102   1.439
 1308TIP3    H1 3881   0.649   4.069   1.359
 1308TIP3    H2 3882   0.717   4.024   1.486
 1309TIP3   OH2 3883   0.417   2.804   4.018
 1309TIP3    H1 3884   0.454   2.765   4.097
 1309TIP3    H2 3885   0.366   2.734   3.978
 1310TIP3   OH2 3886   1.162   4.023   3.259
 1310TIP3    H1 3887   1.081   4.039   3.308
 1310TIP3    H2 3888   1.232   4.056   3.315
 1311TIP3   OH2 3889   5.961   1.776   3.381
 1311TIP3    H1 3890   6.020   1.769   3.306
 1311TIP3    H2 3891   6.015   1.753   3.456
 1312TIP3   OH2 3892   6.431   2.490   4.381
 1312TIP3    H1 3893   6.405   2.449   4.463
 1312TIP3    H2 3894   6.498   2.432   4.345
 1313TIP3   OH2 3895   7.354   5.998   2.452
 1313TIP3    H1 3896   7.283   6.039   2.501
 1313TIP3    H2 3897   7.311   5.960   2.375
 1314TIP3   OH2 3898   5.161   4.044   3.671
 1314TIP3    H1 3899   5.191   4.085   3.590
 1314TIP3    H2 3900   5.240   4.033   3.723
 1315TIP3   OH2 3901   1.941   0.408   6.434
 1315TIP3    H1 3902   1.946   0.502   6.454
 1315TIP3    H2 3903   1.989   0.398   6.351
 1316TIP3   OH2 3904   3.719   6.736   4.850
 1316TIP3    H1 3905   3.724   6.697   4.763
 1316TIP3    H2 3906   3.683   6.667   4.906
 1317TIP3   OH2 3907   4.122   5.409   3.689
 1317TIP3    H1 3908   4.187   5.460   3.641
 1317TIP3    H2 3909   4.156   5.319   3.688
 1318TIP3   OH2 3910   5.673   3.057   5.768
 1318TIP3    H1 3911   5.656   3.039   5.676
 1318TIP3    H2 3912   5.649   2.976   5.813
 1319TIP3   OH2 3913   0.672   4.902   0.325
 1319TIP3    H1 3914   0.652   4.939   0.411
 1319TIP3    H2 3915   0.762   4.870   0.334
 1320TIP3   OH2 3916   8.033   4.124   4.958
 1320TIP3    H1 3917   7.942   4.115   4.985
 1320TIP3    H2 3918   8.029   4.127   4.862
 1321TIP3   OH2 3919   8.297   4.131   5.573
 1321TIP3    H1 3920   8.299   4.216   5.529
 1321TIP3    H2 3921   8.382   4.091   5.552
 1322TIP3   OH2 3922   7.334   0.871   3.085
 1322TIP3    H1 3923   7.294   0.848   3.001
 1322TIP3    H2 3924   7.377   0.790   3.114
 1323TIP3   OH2 3925   0.862   7.451   3.834
 1323TIP3    H1 3926   0.930   7.447   3.766
 1323TIP3    H2 3927   0.832   7.542   3.832
 1324TIP3   OH2 3928   2.598   5.298   4.496
 1324TIP3    H1 3929   2.637   5.248   4.569
 1324TIP3    H2 3930   2.509   5.263   4.489
 1325TIP3   OH2 3931   3.704   0.750   3.500
 1325TIP3    H1 3932   3.792   0.753   3.463
 1325TIP3    H2 3933   3.648   0.720   3.429
 1326TIP3   OH2 3934   3.594   5.383   2.157
 1326TIP3    H1 3935   3.684   5.373   2.189
 1326TIP3    H2 3936   3.540   5.344   2.226
 1327TIP3   OH2 3937   3.063   3.945   3.971
 1327TIP3    H1 3938   3.045   3.973   3.882
 1327TIP3    H2 3939   2.980   3.906   4.001
 1328TIP3   OH2 3940   5.949   5.067   6.065
 1328TIP3    H1 3941   5.863   5.028   6.079
 1328TIP3    H2 3942   5.931   5.154   6.029
 1329TIP3   OH2 3943   4.275   1.386   6.777
 1329TIP3    H1 3944   4.333   1.325   6.732
 1329TIP3    H2 3945   4.187   1.360   6.750
 1330TIP3   OH2 3946   6.621   0.205   2.488
 1330TIP3    H1 3947   6.594   0.280   2.434
 1330TIP3    H2 3948   6.565   0.133   2.459
 1331TIP3   OH2 3949   6.222   3.747   0.163
 1331TIP3    H1 3950   6.195   3.800   0.089
 1331TIP3    H2 3951   6.238   3.660   0.127
 1332TIP3   OH2 3952   0.510   5.498   6.618
 1332TIP3    H1 3953   0.464   5.526   6.539
 1332TIP3    H2 3954   0.478   5.558   6.686
 1333TIP3   OH2 3955   1.708   5.712   2.576
 1333TIP3    H1 3956   1.706   5.656   2.653
 1333TIP3    H2 3957   1.657   5.665   2.510
 1334TIP3   OH2 3958   0.449   7.621   5.844
 1334TIP3    H1 3959   0.515   7.635   5.912
 1334TIP3    H2 3960   0.381   7.685   5.864
 1335TIP3   OH2 3961   2.457   1.354   1.415
 1335TIP3    H1 3962   2.493   1.267   1.429
 1335TIP3    H2 3963   2.449   1.362   1.320
 1336TIP3   OH2 3964   6.313   2.093   3.365
 1336TIP3    H1 3965   6.331   2.077   3.458
 1336TIP3    H2 3966   6.351   2.017   3.320
 1337TIP3   OH2 3967   1.556   3.965   5.589
 1337TIP3    H1 3968   1.646   3.972   5.620
 1337TIP3    H2 3969   1.505   3.951   5.669
 1338TIP3   OH2 3970   3.693   3.168   2.611
 1338TIP3    H1 3971   3.721   3.243   2.663
 1338TIP3    H2 3972   3.600   3.158   2.632
 1339TIP3   OH2 3973   8.015   6.350   0.149
 1339TIP3    H1 3974   8.048   6.438   0.166
 1339TIP3    H2 3975   8.094   6.299   0.129
 1340TIP3   OH2 3976   4.450   0.255   4.432
 1340TIP3    H1 3977   4.526   0.222   4.480
 1340TIP3    H2 3978   4.374   0.222   4.481
 1341TIP3   OH2 3979   2.051   2.503   1.569
 1341TIP3    H1 3980   2.141   2.534   1.559
 1341TIP3    H2 3981   2.010   2.567   1.627
 1342TIP3   OH2 3982   3.210   2.291   0.332
 1342TIP3    H1 3983   3.192   2.380   0.302
 1342TIP3    H2 3984   3.163   2.284   0.416
 1343TIP3   OH2 3985   7.153   3.251   1.730
 1343TIP3    H1 3986   7.154   3.279   1.822
 1343TIP3    H2 3987   7.173   3.330   1.681
 1344TIP3   OH2 3988   0.381   4.363   0.535
 1344TIP3    H1 3989   0.360   4.455   0.548
 1344TIP3    H2 3990   0.302   4.316   0.562
 1345TIP3   OH2 3991   0.079   6.655   5.549
 1345TIP3    H1 3992   0.071   6.559   5.556
 1345TIP3    H2 3993   0.091   6.671   5.456
 1346TIP3   OH2 3994   1.297   1.127   2.975
 1346TIP3    H1 3995   1.297   1.222   2.987
 1346TIP3    H2 3996   1.314   1.091   3.062
 1347TIP3   OH2 3997   4.598   1.348   0.542
 1347TIP3    H1 3998   4.531   1.354   0.610
 1347TIP3    H2 3999   4.681   1.360   0.589
 1348TIP3   OH2 4000   6.004   1.377   5.328
 1348TIP3    H1 4001   6.063   1.388   5.254
 1348TIP3    H2 4002   6.062   1.371   5.404
 1349TIP3   OH2 4003   4.969   4.645   5.207
 1349TIP3    H1 4004   4.975   4.610   5.296
 1349TIP3    H2 4005   4.926   4.575   5.157
 1350TIP3   OH2 4006   2.778   2.741   6.221
 1350TIP3    H1 4007   2.791   2.788   6.304
 1350TIP3    H2 4008   2.818   2.797   6.155
 1351TIP3   OH2 4009   5.681   4.408   0.942
 1351TIP3    H1 4010   5.713   4.375   1.027
 1351TIP3    H2 4011   5.648   4.496   0.962
 1352TIP3   OH2 4012   4.231   1.079   1.585
 1352TIP3    H1 4013   4.149   1.095   1.538
 1352TIP3    H2 4014   4.261   0.994   1.551
 1353TIP3   OH2 4015   2.486   1.310   2.808
 1353TIP3    H1 4016   2.545   1.236   2.821
 1353TIP3    H2 4017   2.531   1.364   2.742
 1354TIP3   OH2 4018   2.759   3.156   2.431
 1354TIP3    H1 4019   2.742   3.213   2.506
 1354TIP3    H2 4020   2.736   3.068   2.461
 1355TIP3   OH2 4021   5.312   6.621   0.957
 1355TIP3    H1 4022   5.326   6.702   0.909
 1355TIP3    H2 4023   5.400   6.590   0.980
 1356TIP3   OH2 4024   7.470   4.254   2.147
 1356TIP3    H1 4025   7.464   4.311   2.070
 1356TIP3    H2 4026   7.521   4.179   2.117
 1357TIP3   OH2 4027   4.460   1.641   5.116
 1357TIP3    H1 4028   4.424   1.671   5.033
 1357TIP3    H2 4029   4.389   1.655   5.179
 1358TIP3   OH2 4030   0.864   4.524   5.311
 1358TIP3    H1 4031   0.923   4.451   5.330
 1358TIP3    H2 4032   0.802   4.525   5.384
 1359TIP3   OH2 4033   6.131   1.212   0.783
 1359TIP3    H1 4034   6.182   1.167   0.716
 1359TIP3    H2 4035   6.091   1.142   0.835
 1360TIP3   OH2 4036   2.227   5.771   3.289
 1360TIP3    H1 4037   2.147   5.820   3.267
 1360TIP3    H2 4038   2.288   5.793   3.218
 1361TIP3   OH2 4039   1.674   2.466   6.142
 1361TIP3    H1 4040   1.635   2.516   6.071
 1361TIP3    H2 4041   1.606   2.404   6.169
 1362TIP3   OH2 4042   6.231   5.569   4.078
 1362TIP3    H1 4043   6.201   5.512   4.148
 1362TIP3    H2 4044   6.186   5.538   3.999
 1363TIP3   OH2 4045   4.510   3.075   6.284
 1363TIP3    H1 4046   4.483   2.984   6.276
 1363TIP3    H2 4047   4.513   3.107   6.194
 1364TIP3   OH2 4048   3.104   7.775   0.102
 1364TIP3    H1 4049   3.152   7.744   0.178
 1364TIP3    H2 4050   3.082   7.696   0.053
 1365TIP3   OH2 4051   4.538   6.083   6.613
 1365TIP3    H1 4052   4.472   6.040   6.559
 1365TIP3    H2 4053   4.596   6.012   6.641
 1366TIP3   OH2 4054   5.233   6.135   5.052
 1366TIP3    H1 4055   5.177   6.074   5.003
 1366TIP3    H2 4056   5.236   6.213   4.997
 1367TIP3   OH2 4057   1.592   4.387   4.608
 1367TIP3    H1 4058   1.570   4.449   4.678
 1367TIP3    H2 4059   1.509   4.347   4.584
 1368TIP3   OH2 4060   6.031   0.097   2.929
 1368TIP3    H1 4061   6.044   0.009   2.965
 1368TIP3    H2 4062   6.051   0.088   2.836
 1369TIP3   OH2 4063   0.878   0.188   2.872
 1369TIP3    H1 4064   0.940   0.182   2.799
 1369TIP3    H2 4065   0.793   0.172   2.833
 1370TIP3   OH2 4066   5.735   1.827   6.692
 1370TIP3    H1 4067   5.770   1.879   6.619
 1370TIP3    H2 4068   5.671   1.885   6.734
 1371TIP3   OH2 4069   4.212   0.670   2.391
 1371TIP3    H1 4070   4.146   0.734   2.365
 1371TIP3    H2 4071   4.161   0.599   2.431
 1372TIP3   OH2 4072   1.981   4.383   3.437
 1372TIP3    H1 4073   1.938   4.306   3.473
 1372TIP3    H2 4074   1.932   4.457   3.472
 1373TIP3   OH2 4075   2.152   7.079   0.024
 1373TIP3    H1 4076   2.112   7.042  -0.055
 1373TIP3    H2 4077   2.112   7.166   0.032
 1374TIP3   OH2 4078   2.710   3.174   1.849
 1374TIP3    H1 4079   2.699   3.250   1.792
 1374TIP3    H2 4080   2.640   3.183   1.914
 1375TIP3   OH2 4081   1.441   3.340   6.087
 1375TIP3    H1 4082   1.473   3.251   6.069
 1375TIP3    H2 4083   1.505   3.377   6.148
 1376TIP3   OH2 4084   0.449   1.216   5.580
 1376TIP3    H1 4085   0.481   1.207   5.490
 1376TIP3    H2 4086   0.527   1.210   5.634
 1377TIP3   OH2 4087   8.072   4.178   3.515
 1377TIP3    H1 4088   8.089   4.086   3.494
 1377TIP3    H2 4089   8.102   4.226   3.438
 1378TIP3   OH2 4090   6.223   0.984   2.438
 1378TIP3    H1 4091   6.174   0.927   2.379
 1378TIP3    H2 4092   6.300   0.933   2.463
 1379TIP3   OH2 4093   0.686   0.797   2.303
 1379TIP3    H1 4094   0.775   0.774   2.276
 1379TIP3    H2 4095   0.690   0.891   2.320
 1380TIP3   OH2 4096   2.861   2.906   4.512
 1380TIP3    H1 4097   2.949   2.915   4.475
 1380TIP3    H2 4098   2.871   2.839   4.580
 1381TIP3   OH2 4099   0.981   1.903   3.353
 1381TIP3    H1 4100   0.925   1.871   3.423
 1381TIP3    H2 4101   1.021   1.983   3.389
 1382TIP3   OH2 4102   3.986   6.995   1.370
 1382TIP3    H1 4103   3.952   7.007   1.458
 1382TIP3    H2 4104   4.021   7.081   1.346
 1383TIP3   OH2 4105   1.882   6.703   5.791
 1383TIP3    H1 4106   1.896   6.794   5.817
 1383TIP3    H2 4107   1.927   6.651   5.857
 1384TIP3   OH2 4108   6.869   6.445   6.056
 1384TIP3    H1 4109   6.840   6.358   6.032
 1384TIP3    H2 4110   6.878   6.443   6.151
 1385TIP3   OH2 4111   5.953   4.137   2.617
 1385TIP3    H1 4112   5.981   4.157   2.706
 1385TIP3    H2 4113   5.993   4.206   2.563
 1386TIP3   OH2 4114   1.445   6.979   2.057
 1386TIP3    H1 4115   1.369   7.031   2.086
 1386TIP3    H2 4116   1.415   6.937   1.976
 1387TIP3   OH2 4117   0.892   6.756   5.379
 1387TIP3    H1 4118   0.972   6.704   5.374
 1387TIP3    H2 4119   0.825   6.694   5.405
 1388TIP3   OH2 4120   0.044   3.590   0.868
 1388TIP3    H1 4121   0.140   3.585   0.861
 1388TIP3    H2 4122   0.013   3.507   0.834
 1389TIP3   OH2 4123   1.992   1.377   4.921
 1389TIP3    H1 4124   2.084   1.352   4.916
 1389TIP3    H2 4125   1.973   1.414   4.835
 1390TIP3   OH2 4126   2.062   3.962   2.598
 1390TIP3    H1 4127   2.127   4.031   2.586
 1390TIP3    H2 4128   2.112   3.881   2.584
 1391TIP3   OH2 4129   2.403   1.022   0.357
 1391TIP3    H1 4130   2.396   1.100   0.412
 1391TIP3    H2 4131   2.437   1.054   0.274
 1392TIP3   OH2 4132   1.492   5.793   1.448
 1392TIP3    H1 4133   1.397   5.781   1.449
 1392TIP3    H2 4134   1.521   5.758   1.533
 1393TIP3   OH2 4135   7.555   5.322   3.528
 1393TIP3    H1 4136   7.571   5.289   3.439
 1393TIP3    H2 4137   7.511   5.249   3.572
 1394TIP3   OH2 4138   5.741   5.848   1.973
 1394TIP3    H1 4139   5.785   5.794   1.907
 1394TIP3    H2 4140   5.670   5.891   1.926
 1395TIP3   OH2 4141   1.692   5.994   6.721
 1395TIP3    H1 4142   1.617   6.034   6.677
 1395TIP3    H2 4143   1.680   6.016   6.814
 1396TIP3   OH2 4144   0.076   7.255   3.462
 1396TIP3    H1 4145  -0.013   7.282   3.485
 1396TIP3    H2 4146   0.103   7.199   3.535
 1397TIP3   OH2 4147   7.040   5.769   3.000
 1397TIP3    H1 4148   6.975   5.743   3.065
 1397TIP3    H2 4149   7.031   5.704   2.930
 1398TIP3   OH2 4150   7.507   7.650   2.442
 1398TIP3    H1 4151   7.428   7.619   2.486
 1398TIP3    H2 4152   7.571   7.660   2.512
 1399TIP3   OH2 4153   4.377   2.214   5.743
 1399TIP3    H1 4154   4.436   2.273   5.791
 1399TIP3    H2 4155   4.333   2.163   5.812
 1400TIP3   OH2 4156   0.908   1.244   2.784
 1400TIP3    H1 4157   0.864   1.259   2.868
 1400TIP3    H2 4158   0.955   1.326   2.767
 1401TIP3   OH2 4159   7.038   2.725   5.418
 1401TIP3    H1 4160   6.953   2.688   5.396
 1401TIP3    H2 4161   7.045   2.805   5.366
 1402TIP3   OH2 4162   4.191   2.465   6.728
 1402TIP3    H1 4163   4.259   2.435   6.789
 1402TIP3    H2 4164   4.162   2.549   6.765
 1403TIP3   OH2 4165   0.183   4.611   4.650
 1403TIP3    H1 4166   0.185   4.526   4.693
 1403TIP3    H2 4167   0.266   4.617   4.603
 1404TIP3   OH2 4168   1.730   3.453   2.067
 1404TIP3    H1 4169   1.777   3.504   2.000
 1404TIP3    H2 4170   1.799   3.408   2.115
 1405TIP3   OH2 4171   5.716   6.510   5.201
 1405TIP3    H1 4172   5.697   6.495   5.294
 1405TIP3    H2 4173   5.766   6.433   5.174
 1406TIP3   OH2 4174   5.916   4.854   4.050
 1406TIP3    H1 4175   6.003   4.856   4.089
 1406TIP3    H2 4176   5.877   4.772   4.081
 1407TIP3   OH2 4177   0.398   2.579   1.557
 1407TIP3    H1 4178   0.426   2.515   1.622
 1407TIP3    H2 4179   0.335   2.533   1.503
 1408TIP3   OH2 4180   0.206   0.405   5.511
 1408TIP3    H1 4181   0.131   0.384   5.566
 1408TIP3    H2 4182   0.209   0.334   5.447
 1409TIP3   OH2 4183   4.578   3.795   1.776
 1409TIP3    H1 4184   4.614   3.876   1.810
 1409TIP3    H2 4185   4.505   3.823   1.720
 1410TIP3   OH2 4186   6.569   4.563   5.584
 1410TIP3    H1 4187   6.493   4.617   5.603
 1410TIP3    H2 4188   6.644   4.622   5.592
 1411TIP3   OH2 4189   3.916   3.194   3.169
 1411TIP3    H1 4190   3.893   3.111   3.128
 1411TIP3    H2 4191   3.997   3.220   3.126
 1412TIP3   OH2 4192   2.333   7.686   2.238
 1412TIP3    H1 4193   2.261   7.749   2.229
 1412TIP3    H2 4194   2.369   7.678   2.149
 1413TIP3   OH2 4195   8.199   6.578   1.503
 1413TIP3    H1 4196   8.267   6.579   1.570
 1413TIP3    H2 4197   8.118   6.556   1.551
 1414TIP3   OH2 4198   2.570   4.867   2.064
 1414TIP3    H1 4199   2.662   4.843   2.052
 1414TIP3    H2 4200   2.540   4.891   1.976
 1415TIP3   OH2 4201   2.436   5.113   6.659
 1415TIP3    H1 4202   2.441   5.125   6.754
 1415TIP3    H2 4203   2.476   5.193   6.623
 1416TIP3   OH2 4204   1.877   7.400   4.123
 1416TIP3    H1 4205   1.927   7.477   4.150
 1416TIP3    H2 4206   1.809   7.434   4.065
 1417TIP3   OH2 4207   7.411   1.195   2.946
 1417TIP3    H1 4208   7.400   1.137   2.871
 1417TIP3    H2 4209   7.324   1.228   2.964
 1418TIP3   OH2 4210   8.242   0.857   1.145
 1418TIP3    H1 4211   8.243   0.871   1.240
 1418TIP3    H2 4212   8.256   0.764   1.134
 1419TIP3   OH2 4213   5.105   5.261   4.186
 1419TIP3    H1 4214   5.200   5.246   4.191
 1419TIP3    H2 4215   5.095   5.355   4.201
 1420TIP3   OH2 4216   6.276   4.071   2.878
 1420TIP3    H1 4217   6.348   4.122   2.840
 1420TIP3    H2 4218   6.211   4.137   2.901
 1421TIP3   OH2 4219   1.973   0.390   5.038
 1421TIP3    H1 4220   2.048   0.342   5.074
 1421TIP3    H2 4221   1.899   0.365   5.094
 1422TIP3   OH2 4222   4.494   5.884   4.433
 1422TIP3    H1 4223   4.463   5.939   4.361
 1422TIP3    H2 4224   4.522   5.803   4.392
 1423TIP3   OH2 4225   1.607   4.219   3.678
 1423TIP3    H1 4226   1.693   4.191   3.648
 1423TIP3    H2 4227   1.559   4.138   3.694
 1424TIP3   OH2 4228   5.100   0.605   2.963
 1424TIP3    H1 4229   5.074   0.647   3.045
 1424TIP3    H2 4230   5.100   0.512   2.983
 1425TIP3   OH2 4231   2.674   3.762   0.745
 1425TIP3    H1 4232   2.691   3.852   0.772
 1425TIP3    H2 4233   2.743   3.711   0.787
 1426TIP3   OH2 4234   6.772   4.197   1.664
 1426TIP3    H1 4235   6.809   4.145   1.593
 1426TIP3    H2 4236   6.803   4.286   1.648
 1427TIP3   OH2 4237   7.977   2.954   0.178
 1427TIP3    H1 4238   7.942   3.006   0.106
 1427TIP3    H2 4239   7.926   2.873   0.178
 1428TIP3   OH2 4240   4.523   5.444   1.534
 1428TIP3    H1 4241   4.495   5.480   1.619
 1428TIP3    H2 4242   4.573   5.366   1.557
 1429TIP3   OH2 4243   0.422   6.680   3.319
 1429TIP3    H1 4244   0.401   6.609   3.258
 1429TIP3    H2 4245   0.449   6.636   3.399
 1430TIP3   OH2 4246   1.303   0.137   6.409
 1430TIP3    H1 4247   1.294   0.156   6.503
 1430TIP3    H2 4248   1.295   0.042   6.403
 1431TIP3   OH2 4249   0.324   2.612   3.251
 1431TIP3    H1 4250   0.244   2.640   3.207
 1431TIP3    H2 4251   0.384   2.590   3.179
 1432TIP3   OH2 4252   7.503   1.740   3.987
 1432TIP3    H1 4253   7.415   1.778   3.985
 1432TIP3    H2 4254   7.514   1.701   3.900
 1433TIP3   OH2 4255   6.825   5.428   0.362
 1433TIP3    H1 4256   6.732   5.417   0.380
 1433TIP3    H2 4257   6.862   5.455   0.446
 1434TIP3   OH2 4258   2.078   1.594   2.624
 1434TIP3    H1 4259   2.116   1.650   2.557
 1434TIP3    H2 4260   2.098   1.637   2.707
 1435TIP3   OH2 4261   1.456   4.975   0.584
 1435TIP3    H1 4262   1.401   5.046   0.620
 1435TIP3    H2 4263   1.425   4.896   0.629
 1436TIP3   OH2 4264   6.045   3.562   5.983
 1436TIP3    H1 4265   6.027   3.469   5.979
 1436TIP3    H2 4266   5.979   3.597   6.042
 1437TIP3   OH2 4267   3.282   6.107   4.029
 1437TIP3    H1 4268   3.206   6.063   3.990
 1437TIP3    H2 4269   3.357   6.054   4.002
 1438TIP3   OH2 4270   3.454   2.761   5.011
 1438TIP3    H1 4271   3.501   2.729   4.934
 1438TIP3    H2 4272   3.437   2.683   5.063
 1439TIP3   OH2 4273   4.436   3.545   5.918
 1439TIP3    H1 4274   4.435   3.562   6.012
 1439TIP3    H2 4275   4.352   3.501   5.901
 1440TIP3   OH2 4276   4.813   3.268   5.295
 1440TIP3    H1 4277   4.833   3.227   5.379
 1440TIP3    H2 4278   4.828   3.362   5.310
 1441TIP3   OH2 4279   6.655   2.195   1.710
 1441TIP3    H1 4280   6.592   2.133   1.672
 1441TIP3    H2 4281   6.681   2.251   1.637
 1442TIP3   OH2 4282   3.515   0.348   0.954
 1442TIP3    H1 4283   3.436   0.338   0.900
 1442TIP3    H2 4284   3.572   0.277   0.926
 1443TIP3   OH2 4285   5.613   6.170   6.624
 1443TIP3    H1 4286   5.656   6.087   6.602
 1443TIP3    H2 4287   5.540   6.177   6.563
 1444TIP3   OH2 4288   6.109   7.210   2.032
 1444TIP3    H1 4289   6.129   7.282   1.972
 1444TIP3    H2 4290   6.037   7.243   2.087
 1445TIP3   OH2 4291   1.474   1.218   6.437
 1445TIP3    H1 4292   1.508   1.189   6.522
 1445TIP3    H2 4293   1.552   1.224   6.381
 1446TIP3   OH2 4294   8.288   7.749   2.431
 1446TIP3    H1 4295   8.253   7.696   2.360
 1446TIP3    H2 4296   8.224   7.820   2.442
 1447TIP3   OH2 4297   4.963   5.115   3.224
 1447TIP3    H1 4298   4.972   5.075   3.137
 1447TIP3    H2 4299   5.025   5.187   3.223
 1448TIP3   OH2 4300   7.995   7.220   3.311
 1448TIP3    H1 4301   7.987   7.127   3.329
 1448TIP3    H2 4302   8.030   7.225   3.222
 1449TIP3   OH2 4303   4.848   2.345   3.438
 1449TIP3    H1 4304   4.931   2.386   3.414
 1449TIP3    H2 4305   4.873   2.259   3.472
 1450TIP3   OH2 4306   6.773   4.395   2.575
 1450TIP3    H1 4307   6.699   4.404   2.635
 1450TIP3    H2 4308   6.814   4.481   2.574
 1451TIP3   OH2 4309   3.760   5.777   2.743
 1451TIP3    H1 4310   3.789   5.743   2.828
 1451TIP3    H2 4311   3.754   5.699   2.688
 1452TIP3   OH2 4312   6.365   6.124   2.650
 1452TIP3    H1 4313   6.288   6.112   2.595
 1452TIP3    H2 4314   6.354   6.061   2.722
 1453TIP3   OH2 4315   2.877   6.031   2.637
 1453TIP3    H1 4316   2.874   6.101   2.701
 1453TIP3    H2 4317   2.813   6.055   2.571
 1454TIP3   OH2 4318   0.632   2.038   1.573
 1454TIP3    H1 4319   0.689   2.110   1.600
 1454TIP3    H2 4320   0.551   2.052   1.623
 1455TIP3   OH2 4321   5.768   4.154   5.372
 1455TIP3    H1 4322   5.792   4.238   5.412
 1455TIP3    H2 4323   5.851   4.117   5.342
 1456TIP3   OH2 4324   3.478   6.656   4.033
 1456TIP3    H1 4325   3.465   6.576   4.084
 1456TIP3    H2 4326   3.455   6.631   3.943
 1457TIP3   OH2 4327   5.942   0.479   4.588
 1457TIP3    H1 4328   5.888   0.418   4.538
 1457TIP3    H2 4329   5.881   0.517   4.652
 1458TIP3   OH2 4330   0.020   1.345   2.334
 1458TIP3    H1 4331  -0.066   1.356   2.374
 1458TIP3    H2 4332   0.027   1.251   2.317
 1459TIP3   OH2 4333   3.579   0.554   0.272
 1459TIP3    H1 4334   3.651   0.560   0.209
 1459TIP3    H2 4335   3.579   0.462   0.299
 1460TIP3   OH2 4336   2.644   3.970   3.794
 1460TIP3    H1 4337   2.672   3.899   3.853
 1460TIP3    H2 4338   2.601   3.925   3.721
 1461TIP3   OH2 4339   4.252   5.534   5.123
 1461TIP3    H1 4340   4.328   5.513   5.069
 1461TIP3    H2 4341   4.178   5.492   5.078
 1462TIP3   OH2 4342   3.048   5.689   3.794
 1462TIP3    H1 4343   2.991   5.766   3.790
 1462TIP3    H2 4344   3.081   5.689   3.883
 1463TIP3   OH2 4345   0.162   7.038   2.662
 1463TIP3    H1 4346   0.096   7.106   2.651
 1463TIP3    H2 4347   0.226   7.054   2.592
 1464TIP3   OH2 4348   3.668   5.370   5.260
 1464TIP3    H1 4349   3.614   5.449   5.253
 1464TIP3    H2 4350   3.758   5.403   5.264
 1465TIP3   OH2 4351   2.753   0.761   2.906
 1465TIP3    H1 4352   2.667   0.802   2.909
 1465TIP3    H2 4353   2.803   0.804   2.975
 1466TIP3   OH2 4354   2.749   4.092   6.767
 1466TIP3    H1 4355   2.743   4.022   6.703
 1466TIP3    H2 4356   2.658   4.117   6.784
 1467TIP3   OH2 4357   5.675   3.880   1.877
 1467TIP3    H1 4358   5.752   3.837   1.838
 1467TIP3    H2 4359   5.644   3.818   1.943
 1468TIP3   OH2 4360   0.446   7.514   3.020
 1468TIP3    H1 4361   0.463   7.426   2.987
 1468TIP3    H2 4362   0.518   7.567   2.985
 1469TIP3   OH2 4363   1.175   2.462   4.008
 1469TIP3    H1 4364   1.140   2.487   3.923
 1469TIP3    H2 4365   1.257   2.510   4.016
 1470TIP3   OH2 4366   6.238   2.832   4.731
 1470TIP3    H1 4367   6.300   2.784   4.785
 1470TIP3    H2 4368   6.258   2.807   4.641
 1471TIP3   OH2 4369   0.183   1.841   6.563
 1471TIP3    H1 4370   0.109   1.829   6.504
 1471TIP3    H2 4371   0.259   1.855   6.506
 1472TIP3   OH2 4372   1.972   3.381   3.739
 1472TIP3    H1 4373   1.886   3.419   3.723
 1472TIP3    H2 4374   1.959   3.287   3.727
 1473TIP3   OH2 4375   6.450   1.916   1.203
 1473TIP3    H1 4376   6.542   1.940   1.208
 1473TIP3    H2 4377   6.421   1.910   1.294
 1474TIP3   OH2 4378   1.685   6.931   6.594
 1474TIP3    H1 4379   1.625   6.936   6.519
 1474TIP3    H2 4380   1.630   6.946   6.670
 1475TIP3   OH2 4381   2.264   5.693   2.578
 1475TIP3    H1 4382   2.285   5.600   2.577
 1475TIP3    H2 4383   2.174   5.697   2.543
 1476TIP3   OH2 4384   0.276   5.583   2.482
 1476TIP3    H1 4385   0.290   5.571   2.576
 1476TIP3    H2 4386   0.255   5.676   2.473
 1477TIP3   OH2 4387   1.122   1.030   2.273
 1477TIP3    H1 4388   1.035   1.047   2.237
 1477TIP3    H2 4389   1.106   0.979   2.352
 1478TIP3   OH2 4390   2.872   6.816   2.998
 1478TIP3    H1 4391   2.963   6.845   2.990
 1478TIP3    H2 4392   2.871   6.759   3.075
 1479TIP3   OH2 4393   2.267   7.352   6.213
 1479TIP3    H1 4394   2.317   7.415   6.265
 1479TIP3    H2 4395   2.180   7.353   6.251
 1480TIP3   OH2 4396   5.153   4.028   6.687
 1480TIP3    H1 4397   5.068   4.031   6.732
 1480TIP3    H2 4398   5.155   4.108   6.634
 1481TIP3   OH2 4399   5.119   7.181   1.776
 1481TIP3    H1 4400   5.075   7.137   1.703
 1481TIP3    H2 4401   5.048   7.204   1.836
 1482TIP3   OH2 4402   4.707   7.689   6.446
 1482TIP3    H1 4403   4.687   7.597   6.465
 1482TIP3    H2 4404   4.707   7.731   6.532
 1483TIP3   OH2 4405   7.945   6.628   6.278
 1483TIP3    H1 4406   7.876   6.687   6.247
 1483TIP3    H2 4407   7.946   6.556   6.216
 1484TIP3   OH2 4408   6.699   2.395   0.916
 1484TIP3    H1 4409   6.647   2.315   0.906
 1484TIP3    H2 4410   6.722   2.398   1.009
 1485TIP3   OH2 4411   1.164   2.542   2.000
 1485TIP3    H1 4412   1.202   2.454   1.998
 1485TIP3    H2 4413   1.201   2.586   1.923
 1486TIP3   OH2 4414   8.184   0.840   2.222
 1486TIP3    H1 4415   8.138   0.847   2.138
 1486TIP3    H2 4416   8.114   0.828   2.286
 1487TIP3   OH2 4417   5.559   6.600   5.686
 1487TIP3    H1 4418   5.629   6.646   5.642
 1487TIP3    H2 4419   5.552   6.516   5.640
 1488TIP3   OH2 4420   0.644   3.308   3.478
 1488TIP3    H1 4421   0.617   3.305   3.387
 1488TIP3    H2 4422   0.586   3.247   3.523
 1489TIP3   OH2 4423   0.991   2.153   1.183
 1489TIP3    H1 4424   1.021   2.211   1.253
 1489TIP3    H2 4425   0.898   2.138   1.202
 1490TIP3   OH2 4426   5.555   0.498   0.048
 1490TIP3    H1 4427   5.535   0.419   0.099
 1490TIP3    H2 4428   5.471   0.526   0.013
 1491TIP3   OH2 4429   3.146   3.659   2.444
 1491TIP3    H1 4430   3.097   3.647   2.363
 1491TIP3    H2 4431   3.215   3.721   2.421
 1492TIP3   OH2 4432   2.379   7.593   1.152
 1492TIP3    H1 4433   2.334   7.626   1.229
 1492TIP3    H2 4434   2.459   7.645   1.147
 1493TIP3   OH2 4435   1.206   4.293   4.143
 1493TIP3    H1 4436   1.289   4.278   4.098
 1493TIP3    H2 4437   1.173   4.205   4.161
 1494TIP3   OH2 4438   8.038   3.367   1.523
 1494TIP3    H1 4439   8.082   3.444   1.560
 1494TIP3    H2 4440   8.085   3.349   1.442
 1495TIP3   OH2 4441   6.320   3.119   2.510
 1495TIP3    H1 4442   6.399   3.081   2.548
 1495TIP3    H2 4443   6.339   3.212   2.503
 1496TIP3   OH2 4444   0.038   1.082   2.266
 1496TIP3    H1 4445   0.074   1.039   2.344
 1496TIP3    H2 4446  -0.023   1.018   2.230
 1497TIP3   OH2 4447   2.270   1.285   4.669
 1497TIP3    H1 4448   2.196   1.314   4.616
 1497TIP3    H2 4449   2.262   1.190   4.671
 1498TIP3   OH2 4450   2.455   6.092   5.816
 1498TIP3    H1 4451   2.479   6.178   5.782
 1498TIP3    H2 4452   2.394   6.110   5.887
 1499TIP3   OH2 4453   5.581   2.801   2.858
 1499TIP3    H1 4454   5.598   2.889   2.894
 1499TIP3    H2 4455   5.667   2.759   2.858
 1500TIP3   OH2 4456   6.740   2.895   5.259
 1500TIP3    H1 4457   6.753   2.868   5.168
 1500TIP3    H2 4458   6.688   2.975   5.253
 1501TIP3   OH2 4459   7.023   7.596   4.095
 1501TIP3    H1 4460   7.069   7.667   4.050
 1501TIP3    H2 4461   6.963   7.561   4.029
 1502TIP3   OH2 4462   3.183   1.176   4.855
 1502TIP3    H1 4463   3.185   1.083   4.880
 1502TIP3    H2 4464   3.225   1.179   4.769
 1503TIP3   OH2 4465   0.128   3.224   3.129
 1503TIP3    H1 4466   0.124   3.131   3.155
 1503TIP3    H2 4467   0.221   3.240   3.115
 1504TIP3   OH2 4468   0.172   0.846   0.547
 1504TIP3    H1 4469   0.212   0.865   0.462
 1504TIP3    H2 4470   0.094   0.795   0.526
 1505TIP3   OH2 4471   3.367   7.428   2.613
 1505TIP3    H1 4472   3.359   7.365   2.542
 1505TIP3    H2 4473   3.281   7.428   2.655
 1506TIP3   OH2 4474   1.938   2.568   6.648
 1506TIP3    H1 4475   2.020   2.536   6.610
 1506TIP3    H2 4476   1.960   2.593   6.737
 1507TIP3   OH2 4477   4.706   6.907   3.239
 1507TIP3    H1 4478   4.703   6.845   3.312
 1507TIP3    H2 4479   4.792   6.948   3.244
 1508TIP3   OH2 4480   0.309   0.762   5.627
 1508TIP3    H1 4481   0.396   0.802   5.634
 1508TIP3    H2 4482   0.314   0.709   5.547
 1509TIP3   OH2 4483   2.257   5.348   3.231
 1509TIP3    H1 4484   2.330   5.401   3.199
 1509TIP3    H2 4485   2.298   5.268   3.266
 1510TIP3   OH2 4486   7.662   6.247   2.618
 1510TIP3    H1 4487   7.689   6.186   2.550
 1510TIP3    H2 4488   7.671   6.197   2.700
 1511TIP3   OH2 4489   1.021   6.748   3.525
 1511TIP3    H1 4490   0.937   6.711   3.500
 1511TIP3    H2 4491   1.000   6.835   3.560
 1512TIP3   OH2 4492   7.372   1.408   0.003
 1512TIP3    H1 4493   7.377   1.502  -0.015
 1512TIP3    H2 4494   7.374   1.403   0.099
 1513TIP3   OH2 4495   2.795   5.559   0.822
 1513TIP3    H1 4496   2.747   5.633   0.783
 1513TIP3    H2 4497   2.772   5.563   0.915
 1514TIP3   OH2 4498   4.906   2.054   3.517
 1514TIP3    H1 4499   4.950   2.120   3.571
 1514TIP3    H2 4500   4.976   2.018   3.463
 1515TIP3   OH2 4501   4.715   5.901   4.621
 1515TIP3    H1 4502   4.673   5.916   4.706
 1515TIP3    H2 4503   4.644   5.912   4.557
 1516TIP3   OH2 4504   5.977   5.171   4.253
 1516TIP3    H1 4505   5.963   5.264   4.271
 1516TIP3    H2 4506   6.021   5.170   4.168
 1517TIP3   OH2 4507   2.169   2.556   0.763
 1517TIP3    H1 4508   2.228   2.504   0.817
 1517TIP3    H2 4509   2.214   2.639   0.751
 1518TIP3   OH2 4510   2.387   7.800   6.593
 1518TIP3    H1 4511   2.446   7.859   6.640
 1518TIP3    H2 4512   2.365   7.733   6.658
 1519TIP3   OH2 4513   3.928   6.988   1.859
 1519TIP3    H1 4514   3.864   6.950   1.919
 1519TIP3    H2 4515   3.894   7.076   1.840
 1520TIP3   OH2 4516   2.635   3.637   0.096
 1520TIP3    H1 4517   2.595   3.702   0.154
 1520TIP3    H2 4518   2.640   3.558   0.149
 1521TIP3   OH2 4519   7.359   6.616   6.079
 1521TIP3    H1 4520   7.272   6.590   6.050
 1521TIP3    H2 4521   7.378   6.557   6.153
 1522TIP3   OH2 4522   5.320   0.132   1.496
 1522TIP3    H1 4523   5.327   0.203   1.432
 1522TIP3    H2 4524   5.411   0.107   1.515
 1523TIP3   OH2 4525   6.991   4.373   3.843
 1523TIP3    H1 4526   6.942   4.383   3.761
 1523TIP3    H2 4527   6.938   4.313   3.895
 1524TIP3   OH2 4528   4.258   5.063   1.406
 1524TIP3    H1 4529   4.261   5.117   1.485
 1524TIP3    H2 4530   4.331   5.095   1.353
 1525TIP3   OH2 4531   1.514   1.778   2.478
 1525TIP3    H1 4532   1.517   1.717   2.405
 1525TIP3    H2 4533   1.440   1.750   2.531
 1526TIP3   OH2 4534   6.099   6.789   0.884
 1526TIP3    H1 4535   6.174   6.742   0.848
 1526TIP3    H2 4536   6.121   6.881   0.874
 1527TIP3   OH2 4537   7.056   5.977   2.166
 1527TIP3    H1 4538   7.117   5.918   2.209
 1527TIP3    H2 4539   6.969   5.942   2.187
 1528TIP3   OH2 4540   3.733   0.389   2.450
 1528TIP3    H1 4541   3.663   0.430   2.502
 1528TIP3    H2 4542   3.761   0.314   2.502
 1529TIP3   OH2 4543   0.577   1.027   4.551
 1529TIP3    H1 4544   0.635   1.090   4.592
 1529TIP3    H2 4545   0.489   1.062   4.566
 1530TIP3   OH2 4546   6.404   7.036   4.852
 1530TIP3    H1 4547   6.309   7.038   4.865
 1530TIP3    H2 4548   6.417   6.969   4.784
 1531TIP3   OH2 4549   4.520   1.178   2.461
 1531TIP3    H1 4550   4.578   1.110   2.425
 1531TIP3    H2 4551   4.485   1.222   2.383
 1532TIP3   OH2 4552   7.674   1.072   5.967
 1532TIP3    H1 4553   7.678   1.141   5.901
 1532TIP3    H2 4554   7.681   0.990   5.917
 1533TIP3   OH2 4555   2.365   1.093   6.737
 1533TIP3    H1 4556   2.369   1.074   6.830
 1533TIP3    H2 4557   2.397   1.013   6.695
 1534TIP3   OH2 4558   2.923   2.777   3.176
 1534TIP3    H1 4559   2.928   2.713   3.248
 1534TIP3    H2 4560   2.990   2.749   3.114
 1535TIP3   OH2 4561   0.413   5.950   5.868
 1535TIP3    H1 4562   0.427   6.042   5.845
 1535TIP3    H2 4563   0.344   5.920   5.808
 1536TIP3   OH2 4564   2.173   0.210   5.944
 1536TIP3    H1 4565   2.184   0.162   5.862
 1536TIP3    H2 4566   2.258   0.202   5.988
 1537TIP3   OH2 4567   0.165   0.226   4.264
 1537TIP3    H1 4568   0.162   0.322   4.266
 1537TIP3    H2 4569   0.255   0.204   4.286
 1538TIP3   OH2 4570   0.769   2.648   2.806
 1538TIP3    H1 4571   0.777   2.602   2.890
 1538TIP3    H2 4572   0.758   2.578   2.742
 1539TIP3   OH2 4573   3.364   7.583   4.263
 1539TIP3    H1 4574   3.293   7.639   4.294
 1539TIP3    H2 4575   3.325   7.496   4.257
 1540TIP3   OH2 4576   3.991   7.672   3.773
 1540TIP3    H1 4577   3.986   7.686   3.678
 1540TIP3    H2 4578   4.033   7.751   3.806
 1541TIP3   OH2 4579   1.560   2.282   0.213
 1541TIP3    H1 4580   1.502   2.261   0.140
 1541TIP3    H2 4581   1.515   2.353   0.259
 1542TIP3   OH2 4582   0.969   0.937   1.875
 1542TIP3    H1 4583   0.881   0.944   1.912
 1542TIP3    H2 4584   1.028   0.956   1.948
 1543TIP3   OH2 4585   2.763   5.048   2.266
 1543TIP3    H1 4586   2.775   5.124   2.323
 1543TIP3    H2 4587   2.670   5.028   2.271
 1544TIP3   OH2 4588   2.984   0.409   6.417
 1544TIP3    H1 4589   3.075   0.381   6.427
 1544TIP3    H2 4590   2.978   0.491   6.466
 1545TIP3   OH2 4591   0.496   0.478   1.176
 1545TIP3    H1 4592   0.514   0.490   1.083
 1545TIP3    H2 4593   0.441   0.553   1.200
 1546TIP3   OH2 4594   4.634   3.688   4.629
 1546TIP3    H1 4595   4.693   3.627   4.585
 1546TIP3    H2 4596   4.619   3.757   4.564
 1547TIP3   OH2 4597   4.049   2.721   6.400
 1547TIP3    H1 4598   4.141   2.698   6.414
 1547TIP3    H2 4599   4.017   2.745   6.487
 1548TIP3   OH2 4600   8.290   0.460   1.929
 1548TIP3    H1 4601   8.376   0.501   1.936
 1548TIP3    H2 4602   8.234   0.527   1.891
 1549TIP3   OH2 4603   6.581   6.787   2.023
 1549TIP3    H1 4604   6.488   6.789   2.001
 1549TIP3    H2 4605   6.584   6.748   2.111
 1550TIP3   OH2 4606   6.692   3.784   0.179
 1550TIP3    H1 4607   6.604   3.814   0.155
 1550TIP3    H2 4608   6.731   3.857   0.227
 1551TIP3   OH2 4609   6.897   3.912   2.902
 1551TIP3    H1 4610   6.950   3.957   2.967
 1551TIP3    H2 4611   6.947   3.833   2.880
 1552TIP3   OH2 4612   5.593   2.317   5.931
 1552TIP3    H1 4613   5.633   2.239   5.970
 1552TIP3    H2 4614   5.512   2.285   5.890
 1553TIP3   OH2 4615   4.512   4.220   3.207
 1553TIP3    H1 4616   4.574   4.156   3.241
 1553TIP3    H2 4617   4.562   4.302   3.202
 1554TIP3   OH2 4618   7.408   4.242   5.077
 1554TIP3    H1 4619   7.395   4.325   5.122
 1554TIP3    H2 4620   7.381   4.175   5.140
 1555TIP3   OH2 4621   7.441   7.043   5.396
 1555TIP3    H1 4622   7.465   7.025   5.487
 1555TIP3    H2 4623   7.514   7.008   5.344
 1556TIP3   OH2 4624   4.448   7.093   3.762
 1556TIP3    H1 4625   4.431   7.006   3.727
 1556TIP3    H2 4626   4.508   7.133   3.698
 1557TIP3   OH2 4627   3.270   6.718   4.280
 1557TIP3    H1 4628   3.301   6.628   4.284
 1557TIP3    H2 4629   3.204   6.718   4.211
 1558TIP3   OH2 4630   3.959   0.201   4.846
 1558TIP3    H1 4631   3.864   0.202   4.835
 1558TIP3    H2 4632   3.980   0.108   4.855
 1559TIP3   OH2 4633   2.448   0.607   1.925
 1559TIP3    H1 4634   2.354   0.624   1.931
 1559TIP3    H2 4635   2.455   0.534   1.863
 1560TIP3   OH2 4636   2.513   3.367   4.088
 1560TIP3    H1 4637   2.424   3.341   4.110
 1560TIP3    H2 4638   2.564   3.286   4.091
 1561TIP3   OH2 4639   6.195   4.874   4.119
 1561TIP3    H1 4640   6.251   4.862   4.196
 1561TIP3    H2 4641   6.255   4.906   4.052
 1562TIP3   OH2 4642   4.901   0.147   1.915
 1562TIP3    H1 4643   4.863   0.195   1.842
 1562TIP3    H2 4644   4.832   0.087   1.943
 1563TIP3   OH2 4645   8.244   2.588   6.610
 1563TIP3    H1 4646   8.191   2.520   6.652
 1563TIP3    H2 4647   8.251   2.657   6.677
 1564TIP3   OH2 4648   1.609   2.975   5.179
 1564TIP3    H1 4649   1.630   2.893   5.136
 1564TIP3    H2 4650   1.519   2.963   5.211
 1565TIP3   OH2 4651   0.874   0.977   5.926
 1565TIP3    H1 4652   0.938   0.967   5.996
 1565TIP3    H2 4653   0.894   0.906   5.865
 1566TIP3   OH2 4654   7.213   0.331   1.289
 1566TIP3    H1 4655   7.125   0.365   1.305
 1566TIP3    H2 4656   7.225   0.339   1.194
 1567TIP3   OH2 4657   7.189   7.690   1.898
 1567TIP3    H1 4658   7.190   7.723   1.988
 1567TIP3    H2 4659   7.166   7.766   1.845
 1568TIP3   OH2 4660   8.261   6.814   3.756
 1568TIP3    H1 4661   8.251   6.874   3.682
 1568TIP3    H2 4662   8.353   6.787   3.753
 1569TIP3   OH2 4663   7.779   2.092   5.537
 1569TIP3    H1 4664   7.775   2.180   5.572
 1569TIP3    H2 4665   7.767   2.103   5.442
 1570TIP3   OH2 4666   5.858   3.734   4.032
 1570TIP3    H1 4667   5.766   3.709   4.040
 1570TIP3    H2 4668   5.906   3.651   4.028
 1571TIP3   OH2 4669   7.775   4.889   6.492
 1571TIP3    H1 4670   7.771   4.794   6.484
 1571TIP3    H2 4671   7.865   4.906   6.522
 1572TIP3   OH2 4672   1.988   6.644   0.278
 1572TIP3    H1 4673   1.914   6.681   0.328
 1572TIP3    H2 4674   2.043   6.719   0.259
 1573TIP3   OH2 4675   7.388   6.415   4.730
 1573TIP3    H1 4676   7.424   6.328   4.744
 1573TIP3    H2 4677   7.300   6.399   4.695
 1574TIP3   OH2 4678   8.170   3.209   1.327
 1574TIP3    H1 4679   8.207   3.161   1.254
 1574TIP3    H2 4680   8.116   3.145   1.373
 1575TIP3   OH2 4681   0.675   7.067   2.890
 1575TIP3    H1 4682   0.767   7.042   2.895
 1575TIP3    H2 4683   0.643   7.058   2.980
 1576TIP3   OH2 4684   7.330   1.925   4.909
 1576TIP3    H1 4685   7.406   1.875   4.937
 1576TIP3    H2 4686   7.268   1.918   4.981
 1577TIP3   OH2 4687   1.810   5.381   1.632
 1577TIP3    H1 4688   1.794   5.415   1.720
 1577TIP3    H2 4689   1.760   5.438   1.574
 1578TIP3   OH2 4690   4.672   3.191   0.747
 1578TIP3    H1 4691   4.643   3.282   0.740
 1578TIP3    H2 4692   4.605   3.149   0.801
 1579TIP3   OH2 4693   1.531   0.886   0.021
 1579TIP3    H1 4694   1.527   0.896   0.116
 1579TIP3    H2 4695   1.620   0.913  -0.002
 1580TIP3   OH2 4696   5.547   2.239   6.317
 1580TIP3    H1 4697   5.614   2.217   6.381
 1580TIP3    H2 4698   5.593   2.235   6.233
 1581TIP3   OH2 4699   0.710   3.458   0.958
 1581TIP3    H1 4700   0.716   3.464   0.862
 1581TIP3    H2 4701   0.775   3.393   0.983
 1582TIP3   OH2 4702   3.299   1.157   3.138
 1582TIP3    H1 4703   3.378   1.201   3.170
 1582TIP3    H2 4704   3.302   1.170   3.043
 1583TIP3   OH2 4705   4.961   4.874   5.084
 1583TIP3    H1 4706   4.967   4.844   4.993
 1583TIP3    H2 4707   4.939   4.795   5.134
 1584TIP3   OH2 4708   6.345   7.376   6.311
 1584TIP3    H1 4709   6.311   7.451   6.359
 1584TIP3    H2 4710   6.378   7.317   6.379
 1585TIP3   OH2 4711   8.247   0.862   5.971
 1585TIP3    H1 4712   8.281   0.790   6.024
 1585TIP3    H2 4713   8.275   0.941   6.016
 1586TIP3   OH2 4714   1.617   4.512   0.763
 1586TIP3    H1 4715   1.656   4.432   0.730
 1586TIP3    H2 4716   1.524   4.490   0.776
 1587TIP3   OH2 4717   8.250   3.359   2.612
 1587TIP3    H1 4718   8.206   3.277   2.636
 1587TIP3    H2 4719   8.323   3.366   2.673
 1588TIP3   OH2 4720   5.108   4.761   3.771
 1588TIP3    H1 4721   5.196   4.798   3.773
 1588TIP3    H2 4722   5.108   4.694   3.840
 1589TIP3   OH2 4723   7.211   5.643   6.731
 1589TIP3    H1 4724   7.209   5.685   6.645
 1589TIP3    H2 4725   7.192   5.713   6.793
 1590TIP3   OH2 4726   2.696   4.203   2.873
 1590TIP3    H1 4727   2.741   4.129   2.913
 1590TIP3    H2 4728   2.725   4.204   2.782
 1591TIP3   OH2 4729   5.351   5.043   3.380
 1591TIP3    H1 4730   5.362   4.952   3.355
 1591TIP3    H2 4731   5.397   5.092   3.311
 1592TIP3   OH2 4732   7.200   4.991   1.666
 1592TIP3    H1 4733   7.147   5.017   1.591
 1592TIP3    H2 4734   7.249   5.069   1.690
 1593TIP3   OH2 4735   1.184   6.010   1.417
 1593TIP3    H1 4736   1.091   6.002   1.397
 1593TIP3    H2 4737   1.196   5.959   1.497
 1594TIP3   OH2 4738   5.719   3.780   3.535
 1594TIP3    H1 4739   5.695   3.688   3.548
 1594TIP3    H2 4740   5.641   3.820   3.497
 1595TIP3   OH2 4741   0.492   1.265   5.032
 1595TIP3    H1 4742   0.411   1.316   5.023
 1595TIP3    H2 4743   0.468   1.192   5.089
 1596TIP3   OH2 4744   7.266   2.838   3.726
 1596TIP3    H1 4745   7.268   2.933   3.736
 1596TIP3    H2 4746   7.287   2.823   3.634
 1597TIP3   OH2 4747   2.897   6.709   2.522
 1597TIP3    H1 4748   2.854   6.757   2.593
 1597TIP3    H2 4749   2.971   6.765   2.497
 1598TIP3   OH2 4750   0.068   6.367   3.226
 1598TIP3    H1 4751  -0.008   6.407   3.182
 1598TIP3    H2 4752   0.143   6.401   3.178
 1599TIP3   OH2 4753   3.788   0.655   1.143
 1599TIP3    H1 4754   3.846   0.695   1.078
 1599TIP3    H2 4755   3.841   0.649   1.222
 1600TIP3   OH2 4756   7.629   1.223   4.840
 1600TIP3    H1 4757   7.627   1.270   4.756
 1600TIP3    H2 4758   7.713   1.245   4.878
 1601TIP3   OH2 4759   2.549   6.283   3.981
 1601TIP3    H1 4760   2.581   6.310   4.067
 1601TIP3    H2 4761   2.550   6.363   3.928
 1602TIP3   OH2 4762   4.460   0.812   4.333
 1602TIP3    H1 4763   4.555   0.809   4.325
 1602TIP3    H2 4764   4.444   0.872   4.406
 1603TIP3   OH2 4765   5.116   2.076   5.967
 1603TIP3    H1 4766   5.135   2.169   5.980
 1603TIP3    H2 4767   5.038   2.060   6.021
 1604TIP3   OH2 4768   0.033   7.556   5.126
 1604TIP3    H1 4769   0.080   7.512   5.055
 1604TIP3    H2 4770  -0.029   7.613   5.081
 1605TIP3   OH2 4771   7.528   5.670   5.757
 1605TIP3    H1 4772   7.485   5.749   5.789
 1605TIP3    H2 4773   7.573   5.635   5.834
 1606TIP3   OH2 4774   7.141   1.225   3.004
 1606TIP3    H1 4775   7.107   1.137   2.991
 1606TIP3    H2 4776   7.140   1.238   3.099
 1607TIP3   OH2 4777   3.773   0.964   1.044
 1607TIP3    H1 4778   3.734   0.879   1.062
 1607TIP3    H2 4779   3.868   0.948   1.048
 1608TIP3   OH2 4780   0.679   4.061   5.368
 1608TIP3    H1 4781   0.742   4.024   5.430
 1608TIP3    H2 4782   0.650   3.985   5.316
 1609TIP3   OH2 4783   3.324   0.271   1.621
 1609TIP3    H1 4784   3.327   0.256   1.716
 1609TIP3    H2 4785   3.416   0.272   1.594
 1610TIP3   OH2 4786   4.814   5.981   2.342
 1610TIP3    H1 4787   4.854   5.977   2.255
 1610TIP3    H2 4788   4.753   5.907   2.344
 1611TIP3   OH2 4789   1.771   3.311   2.421
 1611TIP3    H1 4790   1.853   3.309   2.370
 1611TIP3    H2 4791   1.786   3.378   2.487
 1612TIP3   OH2 4792   4.866   2.204   4.699
 1612TIP3    H1 4793   4.830   2.225   4.785
 1612TIP3    H2 4794   4.909   2.285   4.671
 1613TIP3   OH2 4795   2.163   3.193   4.689
 1613TIP3    H1 4796   2.247   3.149   4.690
 1613TIP3    H2 4797   2.184   3.286   4.701
 1614TIP3   OH2 4798   7.566   7.455   3.546
 1614TIP3    H1 4799   7.586   7.514   3.619
 1614TIP3    H2 4800   7.651   7.436   3.507
 1615TIP3   OH2 4801   3.680   3.423   5.061
 1615TIP3    H1 4802   3.772   3.396   5.059
 1615TIP3    H2 4803   3.648   3.407   4.973
 1616TIP3   OH2 4804  -0.005   3.576   3.794
 1616TIP3    H1 4805   0.048   3.647   3.832
 1616TIP3    H2 4806   0.058   3.506   3.776
 1617TIP3   OH2 4807   6.376   0.582   4.839
 1617TIP3    H1 4808   6.358   0.583   4.933
 1617TIP3    H2 4809   6.415   0.496   4.822
 1618TIP3   OH2 4810   1.758   1.356   4.513
 1618TIP3    H1 4811   1.760   1.377   4.419
 1618TIP3    H2 4812   1.737   1.263   4.516
 1619TIP3   OH2 4813   1.520   2.780   0.090
 1619TIP3    H1 4814   1.434   2.813   0.116
 1619TIP3    H2 4815   1.575   2.792   0.167
 1620TIP3   OH2 4816   6.411   6.319   3.281
 1620TIP3    H1 4817   6.363   6.306   3.199
 1620TIP3    H2 4818   6.359   6.275   3.347
 1621TIP3   OH2 4819   6.316   4.604   2.483
 1621TIP3    H1 4820   6.346   4.571   2.399
 1621TIP3    H2 4821   6.394   4.648   2.520
 1622TIP3   OH2 4822   3.125   1.367   0.486
 1622TIP3    H1 4823   3.163   1.280   0.474
 1622TIP3    H2 4824   3.198   1.423   0.512
 1623TIP3   OH2 4825   4.297   7.658   3.658
 1623TIP3    H1 4826   4.359   7.704   3.601
 1623TIP3    H2 4827   4.211   7.675   3.619
 1624TIP3   OH2 4828   4.214   2.188   4.227
 1624TIP3    H1 4829   4.233   2.113   4.283
 1624TIP3    H2 4830   4.158   2.153   4.157
 1625TIP3   OH2 4831   0.784   2.532   0.453
 1625TIP3    H1 4832   0.763   2.576   0.536
 1625TIP3    H2 4833   0.786   2.439   0.475
 1626TIP3   OH2 4834   2.940   0.203   1.876
 1626TIP3    H1 4835   3.030   0.176   1.893
 1626TIP3    H2 4836   2.909   0.240   1.959
 1627TIP3   OH2 4837   0.750   0.244   5.305
 1627TIP3    H1 4838   0.702   0.172   5.266
 1627TIP3    H2 4839   0.817   0.203   5.359
 1628TIP3   OH2 4840   7.399   7.822   5.509
 1628TIP3    H1 4841   7.317   7.855   5.547
 1628TIP3    H2 4842   7.446   7.784   5.584
 1629TIP3   OH2 4843   7.458   2.857   4.903
 1629TIP3    H1 4844   7.384   2.896   4.858
 1629TIP3    H2 4845   7.445   2.762   4.893
 1630TIP3   OH2 4846   7.416   7.603   5.964
 1630TIP3    H1 4847   7.441   7.605   5.872
 1630TIP3    H2 4848   7.485   7.651   6.009
 1631TIP3   OH2 4849   3.621   2.366   4.402
 1631TIP3    H1 4850   3.565   2.303   4.356
 1631TIP3    H2 4851   3.707   2.323   4.406
 1632TIP3   OH2 4852   6.916   6.519   6.356
 1632TIP3    H1 4853   7.003   6.491   6.383
 1632TIP3    H2 4854   6.865   6.437   6.356
 1633TIP3   OH2 4855   0.214   6.249   6.505
 1633TIP3    H1 4856   0.195   6.294   6.422
 1633TIP3    H2 4857   0.268   6.311   6.554
 1634TIP3   OH2 4858   4.911   0.661   2.009
 1634TIP3    H1 4859   4.826   0.656   1.966
 1634TIP3    H2 4860   4.934   0.571   2.029
 1635TIP3   OH2 4861   2.568   7.027   4.971
 1635TIP3    H1 4862   2.596   7.079   5.046
 1635TIP3    H2 4863   2.562   7.090   4.899
 1636TIP3   OH2 4864   8.147   4.822   4.203
 1636TIP3    H1 4865   8.166   4.879   4.277
 1636TIP3    H2 4866   8.229   4.776   4.186
 1637TIP3   OH2 4867   5.810   0.461   1.337
 1637TIP3    H1 4868   5.900   0.429   1.335
 1637TIP3    H2 4869   5.817   0.550   1.373
 1638TIP3   OH2 4870   5.723   7.786   3.548
 1638TIP3    H1 4871   5.648   7.781   3.608
 1638TIP3    H2 4872   5.780   7.852   3.588
 1639TIP3   OH2 4873   6.622   0.191   4.730
 1639TIP3    H1 4874   6.666   0.274   4.746
 1639TIP3    H2 4875   6.612   0.188   4.635
 1640TIP3   OH2 4876   7.708   7.440   5.536
 1640TIP3    H1 4877   7.738   7.378   5.603
 1640TIP3    H2 4878   7.617   7.414   5.519
 1641TIP3   OH2 4879   5.831   4.146   3.290
 1641TIP3    H1 4880   5.742   4.163   3.260
 1641TIP3    H2 4881   5.836   4.051   3.298
 1642TIP3   OH2 4882   2.000   1.404   3.027
 1642TIP3    H1 4883   2.081   1.452   3.043
 1642TIP3    H2 4884   2.029   1.315   3.005
 1643TIP3   OH2 4885   0.980   1.479   5.056
 1643TIP3    H1 4886   0.885   1.487   5.055
 1643TIP3    H2 4887   1.010   1.544   4.992
 1644TIP3   OH2 4888   2.496   2.877   3.714
 1644TIP3    H1 4889   2.561   2.881   3.644
 1644TIP3    H2 4890   2.537   2.822   3.781
 1645TIP3   OH2 4891   5.100   2.590   5.227
 1645TIP3    H1 4892   5.149   2.635   5.158
 1645TIP3    H2 4893   5.055   2.519   5.182
 1646TIP3   OH2 4894   1.089   5.562   2.792
 1646TIP3    H1 4895   1.083   5.631   2.726
 1646TIP3    H2 4896   0.999   5.553   2.825
 1647TIP3   OH2 4897   0.580   5.713   5.483
 1647TIP3    H1 4898   0.618   5.724   5.570
 1647TIP3    H2 4899   0.592   5.620   5.464
 1648TIP3   OH2 4900   2.688   3.586   5.704
 1648TIP3    H1 4901   2.702   3.677   5.679
 1648TIP3    H2 4902   2.593   3.580   5.718
 1649TIP3   OH2 4903   4.075   5.844   6.434
 1649TIP3    H1 4904   4.032   5.759   6.445
 1649TIP3    H2 4905   4.042   5.876   6.350
 1650TIP3   OH2 4906   6.081   3.886   6.387
 1650TIP3    H1 4907   6.050   3.932   6.310
 1650TIP3    H2 4908   6.121   3.806   6.353
 1651TIP3   OH2 4909   4.498   3.860   1.443
 1651TIP3    H1 4910   4.490   3.910   1.362
 1651TIP3    H2 4911   4.587   3.878   1.474
 1652TIP3   OH2 4912   5.380   5.027   2.491
 1652TIP3    H1 4913   5.393   5.051   2.582
 1652TIP3    H2 4914   5.405   5.104   2.441
 1653TIP3   OH2 4915   7.565   2.185   2.459
 1653TIP3    H1 4916   7.527   2.139   2.534
 1653TIP3    H2 4917   7.658   2.166   2.463
 1654TIP3   OH2 4918   7.798   3.639   3.851
 1654TIP3    H1 4919   7.894   3.649   3.852
 1654TIP3    H2 4920   7.784   3.548   3.823
 1655TIP3   OH2 4921   6.531   1.351   5.311
 1655TIP3    H1 4922   6.569   1.314   5.390
 1655TIP3    H2 4923   6.556   1.443   5.312
 1656TIP3   OH2 4924   0.867   5.692   4.367
 1656TIP3    H1 4925   0.794   5.637   4.396
 1656TIP3    H2 4926   0.945   5.640   4.384
 1657TIP3   OH2 4927   6.039   7.242   4.762
 1657TIP3    H1 4928   6.080   7.161   4.794
 1657TIP3    H2 4929   5.945   7.229   4.777
 1658TIP3   OH2 4930   7.902   7.513   3.089
 1658TIP3    H1 4931   7.900   7.508   3.185
 1658TIP3    H2 4932   7.876   7.603   3.070
 1659TIP3   OH2 4933   6.008   4.702   3.499
 1659TIP3    H1 4934   6.011   4.767   3.429
 1659TIP3    H2 4935   6.096   4.665   3.502
 1660TIP3   OH2 4936   6.497   2.917   1.912
 1660TIP3    H1 4937   6.412   2.907   1.871
 1660TIP3    H2 4938   6.541   2.833   1.899
 1661TIP3   OH2 4939   2.017   5.364   1.307
 1661TIP3    H1 4940   2.082   5.426   1.341
 1661TIP3    H2 4941   1.951   5.420   1.266
 1662TIP3   OH2 4942   3.349   1.161   5.650
 1662TIP3    H1 4943   3.359   1.254   5.632
 1662TIP3    H2 4944   3.429   1.137   5.698
 1663TIP3   OH2 4945   1.912   7.191   2.929
 1663TIP3    H1 4946   1.893   7.263   2.869
 1663TIP3    H2 4947   1.930   7.116   2.873
 1664TIP3   OH2 4948   7.185   1.153   2.415
 1664TIP3    H1 4949   7.206   1.237   2.374
 1664TIP3    H2 4950   7.094   1.136   2.390
 1665TIP3   OH2 4951   2.673   6.856   5.765
 1665TIP3    H1 4952   2.581   6.839   5.786
 1665TIP3    H2 4953   2.670   6.924   5.699
 1666TIP3   OH2 4954   2.202   7.512   0.521
 1666TIP3    H1 4955   2.138   7.534   0.588
 1666TIP3    H2 4956   2.279   7.482   0.570
 1667TIP3   OH2 4957   3.025   1.595   0.154
 1667TIP3    H1 4958   3.010   1.502   0.140
 1667TIP3    H2 4959   3.116   1.600   0.184
 1668TIP3   OH2 4960   0.566   5.298   6.174
 1668TIP3    H1 4961   0.525   5.371   6.127
 1668TIP3    H2 4962   0.649   5.285   6.129
 1669TIP3   OH2 4963   8.215   4.295   5.043
 1669TIP3    H1 4964   8.139   4.242   5.018
 1669TIP3    H2 4965   8.231   4.271   5.135
 1670TIP3   OH2 4966   4.950   1.556   0.962
 1670TIP3    H1 4967   4.892   1.631   0.969
 1670TIP3    H2 4968   4.970   1.550   0.868
 1671TIP3   OH2 4969   5.574   6.467   2.543
 1671TIP3    H1 4970   5.494   6.503   2.505
 1671TIP3    H2 4971   5.593   6.391   2.489
 1672TIP3   OH2 4972   1.524   0.299   2.449
 1672TIP3    H1 4973   1.571   0.325   2.528
 1672TIP3    H2 4974   1.564   0.216   2.423
 1673TIP3   OH2 4975   0.725   2.250   1.025
 1673TIP3    H1 4976   0.713   2.187   0.954
 1673TIP3    H2 4977   0.739   2.196   1.103
 1674TIP3   OH2 4978   6.546   4.856   6.101
 1674TIP3    H1 4979   6.579   4.767   6.112
 1674TIP3    H2 4980   6.482   4.849   6.029
 1675TIP3   OH2 4981   5.085   4.564   3.182
 1675TIP3    H1 4982   5.081   4.656   3.209
 1675TIP3    H2 4983   5.001   4.528   3.210
 1676TIP3   OH2 4984   4.160   6.147   5.879
 1676TIP3    H1 4985   4.167   6.238   5.850
 1676TIP3    H2 4986   4.188   6.095   5.803
 1677TIP3   OH2 4987   5.807   2.028   3.349
 1677TIP3    H1 4988   5.810   2.073   3.265
 1677TIP3    H2 4989   5.857   1.947   3.334
 1678TIP3   OH2 4990   7.357   2.005   4.414
 1678TIP3    H1 4991   7.339   2.005   4.508
 1678TIP3    H2 4992   7.272   1.986   4.373
 1679TIP3   OH2 4993   7.129   0.586   4.753
 1679TIP3    H1 4994   7.178   0.516   4.797
 1679TIP3    H2 4995   7.126   0.658   4.817
 1680TIP3   OH2 4996   3.925   1.919   4.912
 1680TIP3    H1 4997   4.007   1.968   4.899
 1680TIP3    H2 4998   3.939   1.837   4.865
 1681TIP3   OH2 4999   7.844   0.367   0.354
 1681TIP3    H1 5000   7.769   0.428   0.350
 1681TIP3    H2 5001   7.921   0.424   0.346
 1682TIP3   OH2 5002   5.793   0.260   6.107
 1682TIP3    H1 5003   5.872   0.259   6.161
 1682TIP3    H2 5004   5.755   0.173   6.119
 1683TIP3   OH2 5005   0.971   7.602   6.190
 1683TIP3    H1 5006   0.893   7.583   6.139
 1683TIP3    H2 5007   1.043   7.597   6.127
 1684TIP3   OH2 5008   5.206   5.194   0.955
 1684TIP3    H1 5009   5.272   5.257   0.984
 1684TIP3    H2 5010   5.127   5.245   0.941
 1685TIP3   OH2 5011   3.011   5.883   2.863
 1685TIP3    H1 5012   3.105   5.896   2.853
 1685TIP3    H2 5013   2.976   5.893   2.774
 1686TIP3   OH2 5014   1.377   6.637   1.163
 1686TIP3    H1 5015   1.313   6.566   1.168
 1686TIP3    H2 5016   1.349   6.700   1.229
 1687TIP3   OH2 5017   0.231   5.777   4.124
 1687TIP3    H1 5018   0.147   5.765   4.082
 1687TIP3    H2 5019   0.251   5.692   4.163
 1688TIP3   OH2 5020   2.247   1.697   1.515
 1688TIP3    H1 5021   2.306   1.710   1.441
 1688TIP3    H2 5022   2.235   1.784   1.552
 1689TIP3   OH2 5023   1.876   2.246   6.726
 1689TIP3    H1 5024   1.954   2.206   6.688
 1689TIP3    H2 5025   1.836   2.177   6.779
 1690TIP3   OH2 5026   3.832   6.619   6.032
 1690TIP3    H1 5027   3.816   6.675   6.108
 1690TIP3    H2 5028   3.749   6.619   5.984
 1691TIP3   OH2 5029   0.322   7.617   0.859
 1691TIP3    H1 5030   0.258   7.585   0.796
 1691TIP3    H2 5031   0.391   7.551   0.859
 1692TIP3   OH2 5032   2.069   4.023   5.905
 1692TIP3    H1 5033   2.098   4.111   5.881
 1692TIP3    H2 5034   2.101   3.967   5.834
 1693TIP3   OH2 5035   1.286   5.361   3.925
 1693TIP3    H1 5036   1.264   5.272   3.896
 1693TIP3    H2 5037   1.366   5.383   3.876
 1694TIP3   OH2 5038   0.396   4.000   0.551
 1694TIP3    H1 5039   0.403   3.963   0.639
 1694TIP3    H2 5040   0.302   4.014   0.539
 1695TIP3   OH2 5041   6.808   4.681   2.804
 1695TIP3    H1 5042   6.778   4.593   2.826
 1695TIP3    H2 5043   6.739   4.717   2.749
 1696TIP3   OH2 5044   5.400   6.770   1.363
 1696TIP3    H1 5045   5.350   6.781   1.443
 1696TIP3    H2 5046   5.362   6.692   1.321
 1697TIP3   OH2 5047   5.225   7.363   3.979
 1697TIP3    H1 5048   5.187   7.386   4.064
 1697TIP3    H2 5049   5.204   7.270   3.968
 1698TIP3   OH2 5050   2.988   1.984   2.139
 1698TIP3    H1 5051   3.066   1.959   2.088
 1698TIP3    H2 5052   2.941   2.045   2.082
 1699TIP3   OH2 5053   7.908   5.584   0.857
 1699TIP3    H1 5054   7.866   5.582   0.771
 1699TIP3    H2 5055   7.885   5.500   0.897
 1700TIP3   OH2 5056   4.920   5.326   2.781
 1700TIP3    H1 5057   4.983   5.302   2.713
 1700TIP3    H2 5058   4.940   5.268   2.854
 1701TIP3   OH2 5059   0.963   6.974   6.663
 1701TIP3    H1 5060   0.931   6.988   6.752
 1701TIP3    H2 5061   0.933   6.886   6.641
 1702TIP3   OH2 5062   3.065   1.732   0.542
 1702TIP3    H1 5063   3.007   1.670   0.499
 1702TIP3    H2 5064   3.139   1.679   0.572
 1703TIP3   OH2 5065   2.419   4.575   1.845
 1703TIP3    H1 5066   2.488   4.545   1.904
 1703TIP3    H2 5067   2.395   4.661   1.879
 1704TIP3   OH2 5068   2.793   3.760   1.020
 1704TIP3    H1 5069   2.859   3.826   0.998
 1704TIP3    H2 5070   2.717   3.811   1.047
 1705TIP3   OH2 5071   7.810   4.621   5.877
 1705TIP3    H1 5072   7.780   4.676   5.950
 1705TIP3    H2 5073   7.734   4.615   5.819
 1706TIP3   OH2 5074   5.840   4.123   2.996
 1706TIP3    H1 5075   5.906   4.182   2.959
 1706TIP3    H2 5076   5.839   4.144   3.090
 1707TIP3   OH2 5077   6.905   6.240   5.643
 1707TIP3    H1 5078   6.831   6.281   5.598
 1707TIP3    H2 5079   6.982   6.277   5.600
 1708TIP3   OH2 5080   2.627   2.977   1.075
 1708TIP3    H1 5081   2.629   2.914   1.147
 1708TIP3    H2 5082   2.710   3.025   1.082
 1709TIP3   OH2 5083   4.218   7.175   1.575
 1709TIP3    H1 5084   4.169   7.171   1.493
 1709TIP3    H2 5085   4.245   7.266   1.582
 1710TIP3   OH2 5086   4.854   3.776   3.349
 1710TIP3    H1 5087   4.905   3.703   3.385
 1710TIP3    H2 5088   4.861   3.845   3.415
 1711TIP3   OH2 5089   2.275   5.983   0.928
 1711TIP3    H1 5090   2.295   6.067   0.886
 1711TIP3    H2 5091   2.188   5.996   0.967
 1712TIP3   OH2 5092   0.310   5.061   2.069
 1712TIP3    H1 5093   0.271   5.110   2.142
 1712TIP3    H2 5094   0.403   5.084   2.072
 1713TIP3   OH2 5095   2.699   2.367   0.864
 1713TIP3    H1 5096   2.675   2.275   0.875
 1713TIP3    H2 5097   2.741   2.370   0.778
 1714TIP3   OH2 5098   2.421   7.607   3.506
 1714TIP3    H1 5099   2.430   7.519   3.470
 1714TIP3    H2 5100   2.347   7.644   3.458
 1715TIP3   OH2 5101   7.725   4.004   4.863
 1715TIP3    H1 5102   7.787   3.939   4.830
 1715TIP3    H2 5103   7.685   3.962   4.939
 1716TIP3   OH2 5104   6.876   3.621   6.362
 1716TIP3    H1 5105   6.960   3.590   6.397
 1716TIP3    H2 5106   6.860   3.703   6.408
 1717TIP3   OH2 5107   4.413   4.837   5.848
 1717TIP3    H1 5108   4.472   4.769   5.881
 1717TIP3    H2 5109   4.384   4.884   5.926
 1718TIP3   OH2 5110   5.983   4.677   2.769
 1718TIP3    H1 5111   6.077   4.670   2.784
 1718TIP3    H2 5112   5.957   4.759   2.813
 1719TIP3   OH2 5113   3.466   4.612   3.153
 1719TIP3    H1 5114   3.483   4.633   3.245
 1719TIP3    H2 5115   3.371   4.610   3.145
 1720TIP3   OH2 5116   7.888   5.223   2.674
 1720TIP3    H1 5117   7.928   5.222   2.587
 1720TIP3    H2 5118   7.924   5.146   2.718
 1721TIP3   OH2 5119   7.394   5.358   4.687
 1721TIP3    H1 5120   7.379   5.316   4.602
 1721TIP3    H2 5121   7.332   5.431   4.689
 1722TIP3   OH2 5122   3.602   0.030   6.206
 1722TIP3    H1 5123   3.671  -0.037   6.205
 1722TIP3    H2 5124   3.565   0.028   6.118
 1723TIP3   OH2 5125   2.639   3.248   1.427
 1723TIP3    H1 5126   2.682   3.301   1.494
 1723TIP3    H2 5127   2.564   3.209   1.473
 1724TIP3   OH2 5128   1.574   7.623   1.035
 1724TIP3    H1 5129   1.632   7.555   1.000
 1724TIP3    H2 5130   1.623   7.662   1.107
 1725TIP3   OH2 5131   4.418   1.160   3.539
 1725TIP3    H1 5132   4.459   1.247   3.543
 1725TIP3    H2 5133   4.346   1.171   3.477
 1726TIP3   OH2 5134   5.188   7.438   1.668
 1726TIP3    H1 5135   5.141   7.365   1.707
 1726TIP3    H2 5136   5.218   7.405   1.583
 1727TIP3   OH2 5137   4.666   4.437   6.146
 1727TIP3    H1 5138   4.668   4.358   6.199
 1727TIP3    H2 5139   4.728   4.421   6.076
 1728TIP3   OH2 5140   0.241   4.670   6.221
 1728TIP3    H1 5141   0.271   4.588   6.183
 1728TIP3    H2 5142   0.152   4.652   6.251
 1729TIP3   OH2 5143   3.113   5.943   4.170
 1729TIP3    H1 5144   3.044   6.006   4.192
 1729TIP3    H2 5145   3.181   5.957   4.236
 1730TIP3   OH2 5146   2.831   4.587   5.878
 1730TIP3    H1 5147   2.870   4.558   5.961
 1730TIP3    H2 5148   2.745   4.621   5.904
 1731TIP3   OH2 5149   3.314   7.775   6.475
 1731TIP3    H1 5150   3.402   7.738   6.487
 1731TIP3    H2 5151   3.255   7.702   6.492
 1732TIP3   OH2 5152   5.234   1.673   3.215
 1732TIP3    H1 5153   5.280   1.700   3.294
 1732TIP3    H2 5154   5.297   1.617   3.169
 1733TIP3   OH2 5155   4.959   7.044   6.738
 1733TIP3    H1 5156   5.037   7.041   6.794
 1733TIP3    H2 5157   4.899   6.981   6.778
 1734TIP3   OH2 5158   2.586   5.765   4.258
 1734TIP3    H1 5159   2.603   5.684   4.306
 1734TIP3    H2 5160   2.493   5.761   4.237
 1735TIP3   OH2 5161   1.298   6.782   3.984
 1735TIP3    H1 5162   1.296   6.746   3.895
 1735TIP3    H2 5163   1.383   6.754   4.018
 1736TIP3   OH2 5164   5.882   7.434   6.748
 1736TIP3    H1 5165   5.796   7.393   6.751
 1736TIP3    H2 5166   5.943   7.367   6.778
 1737TIP3   OH2 5167   0.586   1.086   6.545
 1737TIP3    H1 5168   0.611   1.077   6.453
 1737TIP3    H2 5169   0.630   1.013   6.589
 1738TIP3   OH2 5170   6.143   7.313   5.727
 1738TIP3    H1 5171   6.211   7.307   5.660
 1738TIP3    H2 5172   6.151   7.403   5.761
 1739TIP3   OH2 5173   8.245   5.948   3.262
 1739TIP3    H1 5174   8.311   5.886   3.290
 1739TIP3    H2 5175   8.248   6.018   3.328
 1740TIP3   OH2 5176   3.442   7.418   0.039
 1740TIP3    H1 5177   3.358   7.373   0.029
 1740TIP3    H2 5178   3.423   7.509   0.016
 1741TIP3   OH2 5179   1.173   6.998   2.585
 1741TIP3    H1 5180   1.190   7.048   2.506
 1741TIP3    H2 5181   1.191   7.059   2.657
 1742TIP3   OH2 5182   0.372   0.542   4.714
 1742TIP3    H1 5183   0.364   0.563   4.807
 1742TIP3    H2 5184   0.401   0.624   4.673
 1743TIP3   OH2 5185   2.061   3.102   4.974
 1743TIP3    H1 5186   2.065   3.102   5.069
 1743TIP3    H2 5187   2.105   3.183   4.947
 1744TIP3   OH2 5188   2.709   1.780   4.862
 1744TIP3    H1 5189   2.791   1.743   4.830
 1744TIP3    H2 5190   2.653   1.785   4.785
 1745TIP3   OH2 5191   1.265   0.525   5.521
 1745TIP3    H1 5192   1.303   0.490   5.440
 1745TIP3    H2 5193   1.233   0.612   5.496
 1746TIP3   OH2 5194   3.448   5.318   1.472
 1746TIP3    H1 5195   3.439   5.228   1.503
 1746TIP3    H2 5196   3.399   5.371   1.535
 1747TIP3   OH2 5197   0.176   2.380   4.809
 1747TIP3    H1 5198   0.166   2.468   4.774
 1747TIP3    H2 5199   0.186   2.393   4.903
 1748TIP3   OH2 5200   3.259   5.773   1.715
 1748TIP3    H1 5201   3.293   5.842   1.773
 1748TIP3    H2 5202   3.182   5.739   1.760
 1749TIP3   OH2 5203   1.728   5.112   0.266
 1749TIP3    H1 5204   1.750   5.071   0.350
 1749TIP3    H2 5205   1.636   5.137   0.275
 1750TIP3   OH2 5206   5.260   1.698   5.276
 1750TIP3    H1 5207   5.213   1.743   5.347
 1750TIP3    H2 5208   5.338   1.752   5.261
 1751TIP3   OH2 5209   1.482   4.861   5.406
 1751TIP3    H1 5210   1.502   4.950   5.433
 1751TIP3    H2 5211   1.546   4.806   5.451
 1752TIP3   OH2 5212   5.458   7.795   2.219
 1752TIP3    H1 5213   5.486   7.882   2.247
 1752TIP3    H2 5214   5.365   7.805   2.201
 1753TIP3   OH2 5215   7.273   0.124   6.615
 1753TIP3    H1 5216   7.348   0.082   6.659
 1753TIP3    H2 5217   7.277   0.215   6.643
 1754TIP3   OH2 5218   7.509   5.817   0.422
 1754TIP3    H1 5219   7.526   5.880   0.353
 1754TIP3    H2 5220   7.588   5.819   0.477
 1755TIP3   OH2 5221   7.191   4.658   3.610
 1755TIP3    H1 5222   7.132   4.610   3.552
 1755TIP3    H2 5223   7.272   4.608   3.607
 1756TIP3   OH2 5224   3.469   4.030   2.124
 1756TIP3    H1 5225   3.433   4.060   2.041
 1756TIP3    H2 5226   3.498   3.940   2.106
 1757TIP3   OH2 5227   3.840   7.157   4.692
 1757TIP3    H1 5228   3.918   7.103   4.702
 1757TIP3    H2 5229   3.815   7.144   4.600
 1758TIP3   OH2 5230   3.453   2.332   2.884
 1758TIP3    H1 5231   3.510   2.366   2.953
 1758TIP3    H2 5232   3.368   2.372   2.901
 1759TIP3   OH2 5233   5.291   2.763   3.916
 1759TIP3    H1 5234   5.241   2.844   3.928
 1759TIP3    H2 5235   5.311   2.761   3.822
 1760TIP3   OH2 5236   4.341   7.203   2.796
 1760TIP3    H1 5237   4.249   7.183   2.782
 1760TIP3    H2 5238   4.340   7.289   2.839
 1761TIP3   OH2 5239   5.129   4.420   3.662
 1761TIP3    H1 5240   5.082   4.367   3.597
 1761TIP3    H2 5241   5.118   4.510   3.633
 1762TIP3   OH2 5242   3.790   0.061   0.068
 1762TIP3    H1 5243   3.700   0.070   0.038
 1762TIP3    H2 5244   3.826   0.150   0.062
 1763TIP3   OH2 5245   5.363   5.545   2.106
 1763TIP3    H1 5246   5.336   5.476   2.045
 1763TIP3    H2 5247   5.447   5.516   2.140
 1764TIP3   OH2 5248   8.102   3.601   5.769
 1764TIP3    H1 5249   8.100   3.637   5.858
 1764TIP3    H2 5250   8.189   3.563   5.761
 1765TIP3   OH2 5251   7.720   1.069   2.745
 1765TIP3    H1 5252   7.767   1.130   2.801
 1765TIP3    H2 5253   7.644   1.118   2.715
 1766TIP3   OH2 5254   1.184   4.887   6.103
 1766TIP3    H1 5255   1.107   4.892   6.159
 1766TIP3    H2 5256   1.204   4.978   6.081
 1767TIP3   OH2 5257   5.889   2.690   3.181
 1767TIP3    H1 5258   5.799   2.714   3.202
 1767TIP3    H2 5259   5.940   2.719   3.256
 1768TIP3   OH2 5260   3.861   3.680   1.172
 1768TIP3    H1 5261   3.862   3.698   1.078
 1768TIP3    H2 5262   3.932   3.733   1.207
 1769TIP3   OH2 5263   6.784   1.879   0.635
 1769TIP3    H1 5264   6.863   1.881   0.689
 1769TIP3    H2 5265   6.715   1.852   0.696
 1770TIP3   OH2 5266   7.078   1.934   1.997
 1770TIP3    H1 5267   7.105   1.879   2.071
 1770TIP3    H2 5268   6.984   1.946   2.009
 1771TIP3   OH2 5269   3.413   0.180   2.661
 1771TIP3    H1 5270   3.330   0.189   2.707
 1771TIP3    H2 5271   3.426   0.265   2.619
 1772TIP3   OH2 5272   4.833   3.816   1.312
 1772TIP3    H1 5273   4.858   3.742   1.256
 1772TIP3    H2 5274   4.815   3.776   1.397
 1773TIP3   OH2 5275   2.876   6.358   6.519
 1773TIP3    H1 5276   2.781   6.370   6.529
 1773TIP3    H2 5277   2.890   6.358   6.424
 1774TIP3   OH2 5278   2.533   2.742   4.952
 1774TIP3    H1 5279   2.533   2.649   4.931
 1774TIP3    H2 5280   2.447   2.773   4.926
 1775TIP3   OH2 5281   4.952   2.105   0.821
 1775TIP3    H1 5282   4.864   2.070   0.831
 1775TIP3    H2 5283   4.940   2.187   0.774
 1776TIP3   OH2 5284   5.425   1.436   0.711
 1776TIP3    H1 5285   5.409   1.529   0.722
 1776TIP3    H2 5286   5.369   1.393   0.775
 1777TIP3   OH2 5287   0.718   2.622   5.915
 1777TIP3    H1 5288   0.701   2.539   5.960
 1777TIP3    H2 5289   0.809   2.616   5.886
 1778TIP3   OH2 5290   4.316   4.651   2.467
 1778TIP3    H1 5291   4.242   4.641   2.407
 1778TIP3    H2 5292   4.312   4.742   2.496
 1779TIP3   OH2 5293   8.229   0.232   3.288
 1779TIP3    H1 5294   8.138   0.244   3.315
 1779TIP3    H2 5295   8.225   0.219   3.194
 1780TIP3   OH2 5296   7.885   5.894   2.741
 1780TIP3    H1 5297   7.979   5.901   2.760
 1780TIP3    H2 5298   7.858   5.812   2.781
 1781TIP3   OH2 5299   7.546   6.941   2.752
 1781TIP3    H1 5300   7.577   6.854   2.727
 1781TIP3    H2 5301   7.540   6.938   2.848
 1782TIP3   OH2 5302   3.217   4.493   3.239
 1782TIP3    H1 5303   3.146   4.516   3.179
 1782TIP3    H2 5304   3.222   4.566   3.300
 1783TIP3   OH2 5305   1.891   6.350   1.769
 1783TIP3    H1 5306   1.842   6.360   1.850
 1783TIP3    H2 5307   1.920   6.438   1.747
 1784TIP3   OH2 5308   0.317   1.015   2.811
 1784TIP3    H1 5309   0.360   0.998   2.727
 1784TIP3    H2 5310   0.276   1.101   2.801
 1785TIP3   OH2 5311   6.723   7.022   1.322
 1785TIP3    H1 5312   6.752   7.066   1.402
 1785TIP3    H2 5313   6.628   7.014   1.332
 1786TIP3   OH2 5314   5.747   5.145   2.863
 1786TIP3    H1 5315   5.753   5.066   2.917
 1786TIP3    H2 5316   5.799   5.209   2.910
 1787TIP3   OH2 5317   0.417   2.328   4.486
 1787TIP3    H1 5318   0.373   2.293   4.408
 1787TIP3    H2 5319   0.433   2.420   4.464
 1788TIP3   OH2 5320   1.113   0.585   0.662
 1788TIP3    H1 5321   1.162   0.540   0.731
 1788TIP3    H2 5322   1.138   0.677   0.672
 1789TIP3   OH2 5323   1.591   7.467   0.382
 1789TIP3    H1 5324   1.565   7.375   0.391
 1789TIP3    H2 5325   1.676   7.472   0.426
 1790TIP3   OH2 5326   8.163   4.324   0.765
 1790TIP3    H1 5327   8.146   4.230   0.756
 1790TIP3    H2 5328   8.115   4.349   0.844
 1791TIP3   OH2 5329   1.005   0.182   5.382
 1791TIP3    H1 5330   1.087   0.134   5.388
 1791TIP3    H2 5331   1.031   0.273   5.371
 1792TIP3   OH2 5332   4.615   2.199   4.060
 1792TIP3    H1 5333   4.577   2.225   4.144
 1792TIP3    H2 5334   4.595   2.106   4.052
 1793TIP3   OH2 5335   6.083   1.876   0.714
 1793TIP3    H1 5336   6.035   1.826   0.648
 1793TIP3    H2 5337   6.116   1.810   0.775
 1794TIP3   OH2 5338   8.053   5.459   6.703
 1794TIP3    H1 5339   7.980   5.518   6.688
 1794TIP3    H2 5340   8.127   5.500   6.659
 1795TIP3   OH2 5341   5.545   5.278   1.042
 1795TIP3    H1 5342   5.526   5.285   0.948
 1795TIP3    H2 5343   5.525   5.188   1.065
 1796TIP3   OH2 5344   7.295   3.019   1.036
 1796TIP3    H1 5345   7.266   3.035   0.946
 1796TIP3    H2 5346   7.306   3.107   1.073
 1797TIP3   OH2 5347   8.011   0.830   3.207
 1797TIP3    H1 5348   7.955   0.792   3.139
 1797TIP3    H2 5349   8.049   0.908   3.166
 1798TIP3   OH2 5350   5.328   1.020   1.846
 1798TIP3    H1 5351   5.380   1.060   1.916
 1798TIP3    H2 5352   5.324   1.086   1.777
 1799TIP3   OH2 5353   3.055   7.672   1.981
 1799TIP3    H1 5354   2.978   7.728   1.967
 1799TIP3    H2 5355   3.108   7.720   2.044
 1800TIP3   OH2 5356   5.195   1.118   0.777
 1800TIP3    H1 5357   5.269   1.096   0.833
 1800TIP3    H2 5358   5.234   1.140   0.693
 1801TIP3   OH2 5359   2.557   4.023   3.120
 1801TIP3    H1 5360   2.584   4.029   3.029
 1801TIP3    H2 5361   2.468   4.058   3.122
 1802TIP3   OH2 5362   1.720   2.493   4.515
 1802TIP3    H1 5363   1.781   2.551   4.469
 1802TIP3    H2 5364   1.633   2.520   4.484
 1803TIP3   OH2 5365   7.918   1.486   4.564
 1803TIP3    H1 5366   7.870   1.536   4.499
 1803TIP3    H2 5367   7.854   1.469   4.633
 1804TIP3   OH2 5368   0.006   4.680   1.261
 1804TIP3    H1 5369   0.032   4.718   1.345
 1804TIP3    H2 5370  -0.089   4.690   1.259
 1805TIP3   OH2 5371   5.729   3.267   5.956
 1805TIP3    H1 5372   5.698   3.218   5.880
 1805TIP3    H2 5373   5.676   3.235   6.029
 1806TIP3   OH2 5374   2.985   2.951   2.175
 1806TIP3    H1 5375   3.043   2.996   2.237
 1806TIP3    H2 5376   3.043   2.922   2.105
 1807TIP3   OH2 5377   8.119   2.734   0.611
 1807TIP3    H1 5378   8.206   2.764   0.586
 1807TIP3    H2 5379   8.059   2.786   0.559
 1808TIP3   OH2 5380   2.748   5.123   2.830
 1808TIP3    H1 5381   2.799   5.192   2.871
 1808TIP3    H2 5382   2.777   5.043   2.874
 1809TIP3   OH2 5383   4.693   0.190   3.043
 1809TIP3    H1 5384   4.728   0.183   3.132
 1809TIP3    H2 5385   4.628   0.120   3.037
 1810TIP3   OH2 5386   7.822   4.186   0.797
 1810TIP3    H1 5387   7.748   4.161   0.852
 1810TIP3    H2 5388   7.899   4.157   0.846
 1811TIP3   OH2 5389   2.483   4.970   2.346
 1811TIP3    H1 5390   2.493   4.875   2.350
 1811TIP3    H2 5391   2.400   4.987   2.391
 1812TIP3   OH2 5392   6.574   3.507   1.019
 1812TIP3    H1 5393   6.652   3.548   0.981
 1812TIP3    H2 5394   6.600   3.417   1.035
 1813TIP3   OH2 5395   4.385   7.537   2.277
 1813TIP3    H1 5396   4.387   7.625   2.315
 1813TIP3    H2 5397   4.294   7.509   2.285
 1814TIP3   OH2 5398   0.275   4.854   4.421
 1814TIP3    H1 5399   0.337   4.852   4.349
 1814TIP3    H2 5400   0.272   4.764   4.454
 1815TIP3   OH2 5401   4.687   7.798   6.734
 1815TIP3    H1 5402   4.779   7.776   6.747
 1815TIP3    H2 5403   4.639   7.723   6.771
 1816TIP3   OH2 5404   3.970   2.837   2.963
 1816TIP3    H1 5405   4.035   2.851   2.894
 1816TIP3    H2 5406   3.923   2.920   2.969
 1817TIP3   OH2 5407   7.411   1.707   3.234
 1817TIP3    H1 5408   7.420   1.774   3.166
 1817TIP3    H2 5409   7.414   1.757   3.316
 1818TIP3   OH2 5410   7.537   1.630   0.823
 1818TIP3    H1 5411   7.501   1.673   0.901
 1818TIP3    H2 5412   7.543   1.699   0.758
 1819TIP3   OH2 5413   5.014   7.289   2.381
 1819TIP3    H1 5414   4.950   7.319   2.316
 1819TIP3    H2 5415   4.965   7.228   2.436
 1820TIP3   OH2 5416   4.985   2.912   4.994
 1820TIP3    H1 5417   5.027   2.920   5.079
 1820TIP3    H2 5418   5.056   2.920   4.931
 1821TIP3   OH2 5419   4.398   2.694   3.343
 1821TIP3    H1 5420   4.465   2.710   3.276
 1821TIP3    H2 5421   4.414   2.604   3.371
 1822TIP3   OH2 5422   0.763   3.637   5.510
 1822TIP3    H1 5423   0.738   3.575   5.442
 1822TIP3    H2 5424   0.681   3.671   5.543
 1823TIP3   OH2 5425   1.905   0.679   4.332
 1823TIP3    H1 5426   1.838   0.627   4.376
 1823TIP3    H2 5427   1.911   0.642   4.244
 1824TIP3   OH2 5428   3.539   2.578   5.988
 1824TIP3    H1 5429   3.471   2.579   5.921
 1824TIP3    H2 5430   3.550   2.485   6.008
 1825TIP3   OH2 5431   4.480   7.024   6.316
 1825TIP3    H1 5432   4.388   7.000   6.314
 1825TIP3    H2 5433   4.513   6.999   6.230
 1826TIP3   OH2 5434   1.448   1.048   0.543
 1826TIP3    H1 5435   1.531   1.023   0.583
 1826TIP3    H2 5436   1.388   1.059   0.617
 1827TIP3   OH2 5437   2.590   5.982   6.573
 1827TIP3    H1 5438   2.562   5.909   6.628
 1827TIP3    H2 5439   2.684   5.988   6.587
 1828TIP3   OH2 5440   0.574   0.901   5.488
 1828TIP3    H1 5441   0.554   0.948   5.570
 1828TIP3    H2 5442   0.494   0.909   5.436
 1829TIP3   OH2 5443   4.138   4.877   2.476
 1829TIP3    H1 5444   4.113   4.938   2.545
 1829TIP3    H2 5445   4.196   4.928   2.419
 1830TIP3   OH2 5446   7.174   4.079   2.491
 1830TIP3    H1 5447   7.260   4.069   2.533
 1830TIP3    H2 5448   7.192   4.127   2.410
 1831TIP3   OH2 5449   0.927   6.003   5.821
 1831TIP3    H1 5450   0.896   6.003   5.911
 1831TIP3    H2 5451   0.944   5.911   5.801
 1832TIP3   OH2 5452   3.810   5.804   0.856
 1832TIP3    H1 5453   3.896   5.774   0.886
 1832TIP3    H2 5454   3.827   5.843   0.770
 1833TIP3   OH2 5455   0.267   5.620   3.874
 1833TIP3    H1 5456   0.307   5.707   3.877
 1833TIP3    H2 5457   0.339   5.562   3.846
 1834TIP3   OH2 5458   7.494   7.216   0.135
 1834TIP3    H1 5459   7.558   7.145   0.143
 1834TIP3    H2 5460   7.547   7.296   0.134
 1835TIP3   OH2 5461   1.699   2.766   4.944
 1835TIP3    H1 5462   1.772   2.731   4.892
 1835TIP3    H2 5463   1.717   2.860   4.950
 1836TIP3   OH2 5464   4.221   6.101   0.579
 1836TIP3    H1 5465   4.149   6.065   0.526
 1836TIP3    H2 5466   4.182   6.177   0.623
 1837TIP3   OH2 5467   4.340   4.812   1.508
 1837TIP3    H1 5468   4.384   4.744   1.458
 1837TIP3    H2 5469   4.287   4.858   1.443
 1838TIP3   OH2 5470   7.062   2.013   2.488
 1838TIP3    H1 5471   7.130   2.046   2.428
 1838TIP3    H2 5472   6.985   2.065   2.467
 1839TIP3   OH2 5473   5.206   6.356   2.935
 1839TIP3    H1 5474   5.231   6.279   2.883
 1839TIP3    H2 5475   5.147   6.322   3.002
 1840TIP3   OH2 5476   1.083   1.894   4.603
 1840TIP3    H1 5477   1.055   1.962   4.542
 1840TIP3    H2 5478   1.007   1.880   4.659
 1841TIP3   OH2 5479   4.784   1.033   0.836
 1841TIP3    H1 5480   4.804   1.126   0.823
 1841TIP3    H2 5481   4.829   0.989   0.764
 1842TIP3   OH2 5482   6.622   5.565   6.409
 1842TIP3    H1 5483   6.647   5.478   6.379
 1842TIP3    H2 5484   6.645   5.566   6.502
 1843TIP3   OH2 5485   4.987   7.026   1.596
 1843TIP3    H1 5486   4.987   6.932   1.579
 1843TIP3    H2 5487   4.969   7.066   1.511
 1844TIP3   OH2 5488   1.705   3.615   6.033
 1844TIP3    H1 5489   1.643   3.650   6.097
 1844TIP3    H2 5490   1.768   3.686   6.021
 1845TIP3   OH2 5491   5.641   3.594   5.940
 1845TIP3    H1 5492   5.669   3.590   6.032
 1845TIP3    H2 5493   5.702   3.535   5.894
 1846TIP3   OH2 5494   8.041   7.656   0.507
 1846TIP3    H1 5495   8.071   7.579   0.554
 1846TIP3    H2 5496   7.956   7.677   0.545
 1847TIP3   OH2 5497   7.528   5.304   4.925
 1847TIP3    H1 5498   7.477   5.305   4.843
 1847TIP3    H2 5499   7.521   5.214   4.956
 1848TIP3   OH2 5500   7.092   1.220   3.576
 1848TIP3    H1 5501   7.186   1.228   3.592
 1848TIP3    H2 5502   7.052   1.273   3.645
 1849TIP3   OH2 5503   2.511   2.135   2.714
 1849TIP3    H1 5504   2.573   2.062   2.706
 1849TIP3    H2 5505   2.566   2.213   2.719
 1850TIP3   OH2 5506   4.273   6.847   1.240
 1850TIP3    H1 5507   4.270   6.915   1.173
 1850TIP3    H2 5508   4.298   6.892   1.320
 1851TIP3   OH2 5509   7.248   5.602   4.742
 1851TIP3    H1 5510   7.226   5.567   4.828
 1851TIP3    H2 5511   7.168   5.642   4.710
 1852TIP3   OH2 5512   4.926   0.550   6.452
 1852TIP3    H1 5513   4.961   0.474   6.406
 1852TIP3    H2 5514   5.002   0.589   6.495
 1853TIP3   OH2 5515   5.648   7.035   3.694
 1853TIP3    H1 5516   5.656   6.959   3.752
 1853TIP3    H2 5517   5.555   7.058   3.698
 1854TIP3   OH2 5518   2.400   1.874   1.346
 1854TIP3    H1 5519   2.317   1.921   1.359
 1854TIP3    H2 5520   2.405   1.861   1.252
 1855TIP3   OH2 5521   3.552   1.255   4.420
 1855TIP3    H1 5522   3.522   1.308   4.494
 1855TIP3    H2 5523   3.610   1.190   4.460
 1856TIP3   OH2 5524   4.204   6.946   5.632
 1856TIP3    H1 5525   4.115   6.937   5.666
 1856TIP3    H2 5526   4.242   6.859   5.638
 1857TIP3   OH2 5527   3.038   4.769   0.376
 1857TIP3    H1 5528   2.989   4.825   0.315
 1857TIP3    H2 5529   2.980   4.760   0.452
 1858TIP3   OH2 5530   3.379   5.019   5.112
 1858TIP3    H1 5531   3.421   5.017   5.026
 1858TIP3    H2 5532   3.394   5.109   5.144
 1859TIP3   OH2 5533   1.569   0.714   1.150
 1859TIP3    H1 5534   1.504   0.672   1.094
 1859TIP3    H2 5535   1.589   0.649   1.218
 1860TIP3   OH2 5536   7.657   4.940   4.185
 1860TIP3    H1 5537   7.587   4.907   4.242
 1860TIP3    H2 5538   7.676   5.028   4.220
 1861TIP3   OH2 5539   6.575   6.719   0.280
 1861TIP3    H1 5540   6.507   6.786   0.278
 1861TIP3    H2 5541   6.552   6.659   0.209
 1862TIP3   OH2 5542   5.359   0.846   1.230
 1862TIP3    H1 5543   5.321   0.759   1.216
 1862TIP3    H2 5544   5.453   0.832   1.220
 1863TIP3   OH2 5545   5.495   3.871   3.409
 1863TIP3    H1 5546   5.420   3.812   3.419
 1863TIP3    H2 5547   5.541   3.838   3.332
 1864TIP3   OH2 5548   3.827   2.923   0.554
 1864TIP3    H1 5549   3.807   2.981   0.627
 1864TIP3    H2 5550   3.797   2.970   0.477
 1865TIP3   OH2 5551   0.888   5.305   2.155
 1865TIP3    H1 5552   0.798   5.296   2.124
 1865TIP3    H2 5553   0.942   5.301   2.076
 1866TIP3   OH2 5554   1.633   0.931   6.316
 1866TIP3    H1 5555   1.728   0.927   6.310
 1866TIP3    H2 5556   1.603   0.928   6.225
 1867TIP3   OH2 5557   5.358   4.450   2.371
 1867TIP3    H1 5558   5.453   4.451   2.366
 1867TIP3    H2 5559   5.330   4.521   2.314
 1868TIP3   OH2 5560   3.389   4.160   3.447
 1868TIP3    H1 5561   3.303   4.157   3.489
 1868TIP3    H2 5562   3.372   4.204   3.363
 1869TIP3   OH2 5563   5.895   0.167   5.487
 1869TIP3    H1 5564   5.812   0.170   5.440
 1869TIP3    H2 5565   5.870   0.149   5.578
 1870TIP3   OH2 5566   4.084   1.191   2.487
 1870TIP3    H1 5567   4.047   1.106   2.510
 1870TIP3    H2 5568   4.012   1.253   2.499
 1871TIP3   OH2 5569   4.009   6.642   2.768
 1871TIP3    H1 5570   4.100   6.667   2.784
 1871TIP3    H2 5571   3.991   6.575   2.834
 1872TIP3   OH2 5572   5.963   5.222   2.203
 1872TIP3    H1 5573   6.044   5.266   2.176
 1872TIP3    H2 5574   5.992   5.147   2.255
 1873TIP3   OH2 5575   6.587   2.459   1.627
 1873TIP3    H1 5576   6.531   2.395   1.670
 1873TIP3    H2 5577   6.664   2.465   1.683
 1874TIP3   OH2 5578   3.445   5.934   0.772
 1874TIP3    H1 5579   3.506   6.001   0.802
 1874TIP3    H2 5580   3.489   5.894   0.697
 1875TIP3   OH2 5581   7.564   6.858   1.252
 1875TIP3    H1 5582   7.622   6.782   1.257
 1875TIP3    H2 5583   7.478   6.824   1.276
 1876TIP3   OH2 5584   3.354   2.459   4.869
 1876TIP3    H1 5585   3.411   2.503   4.806
 1876TIP3    H2 5586   3.392   2.372   4.880
 1877TIP3   OH2 5587   6.815   4.886   4.345
 1877TIP3    H1 5588   6.869   4.958   4.313
 1877TIP3    H2 5589   6.733   4.894   4.297
 1878TIP3   OH2 5590   2.463   3.707   6.622
 1878TIP3    H1 5591   2.497   3.721   6.534
 1878TIP3    H2 5592   2.369   3.726   6.615
 1879TIP3   OH2 5593   1.919   2.631   0.720
 1879TIP3    H1 5594   2.004   2.594   0.743
 1879TIP3    H2 5595   1.882   2.660   0.803
 1880TIP3   OH2 5596   6.579   1.229   3.176
 1880TIP3    H1 5597   6.625   1.227   3.093
 1880TIP3    H2 5598   6.522   1.152   3.174
 1881TIP3   OH2 5599   4.376   3.384   1.916
 1881TIP3    H1 5600   4.288   3.353   1.934
 1881TIP3    H2 5601   4.378   3.400   1.822
 1882TIP3   OH2 5602   0.177   3.314   3.573
 1882TIP3    H1 5603   0.227   3.383   3.615
 1882TIP3    H2 5604   0.158   3.347   3.485
 1883TIP3   OH2 5605   3.485   1.404   2.921
 1883TIP3    H1 5606   3.507   1.370   3.007
 1883TIP3    H2 5607   3.393   1.430   2.929
 1884TIP3   OH2 5608   4.709   1.113   1.885
 1884TIP3    H1 5609   4.769   1.131   1.813
 1884TIP3    H2 5610   4.640   1.179   1.875
 1885TIP3   OH2 5611   0.850   0.500   0.646
 1885TIP3    H1 5612   0.937   0.540   0.650
 1885TIP3    H2 5613   0.813   0.531   0.563
 1886TIP3   OH2 5614   7.945   2.698   5.410
 1886TIP3    H1 5615   7.926   2.698   5.316
 1886TIP3    H2 5616   7.891   2.768   5.445
 1887TIP3   OH2 5617   4.092   7.307   0.835
 1887TIP3    H1 5618   4.092   7.217   0.865
 1887TIP3    H2 5619   4.092   7.360   0.915
 1888TIP3   OH2 5620   1.870   3.953   2.189
 1888TIP3    H1 5621   1.957   3.919   2.211
 1888TIP3    H2 5622   1.872   4.044   2.220
 1889TIP3   OH2 5623   1.663   3.675   2.725
 1889TIP3    H1 5624   1.647   3.587   2.692
 1889TIP3    H2 5625   1.704   3.721   2.651
 1890TIP3   OH2 5626   2.125   7.236   2.693
 1890TIP3    H1 5627   2.214   7.228   2.659
 1890TIP3    H2 5628   2.099   7.146   2.713
 1891TIP3   OH2 5629   3.140   1.647   6.269
 1891TIP3    H1 5630   3.230   1.629   6.241
 1891TIP3    H2 5631   3.086   1.626   6.194
 1892TIP3   OH2 5632   6.080   3.038   4.625
 1892TIP3    H1 5633   6.128   3.114   4.657
 1892TIP3    H2 5634   6.099   2.968   4.687
 1893TIP3   OH2 5635   1.532   7.193   0.449
 1893TIP3    H1 5636   1.593   7.134   0.494
 1893TIP3    H2 5637   1.446   7.170   0.485
 1894TIP3   OH2 5638   3.439   3.532   1.460
 1894TIP3    H1 5639   3.460   3.525   1.553
 1894TIP3    H2 5640   3.430   3.442   1.430
 1895TIP3   OH2 5641   6.348   6.123   1.146
 1895TIP3    H1 5642   6.386   6.046   1.103
 1895TIP3    H2 5643   6.422   6.166   1.188
 1896TIP3   OH2 5644   1.806   0.719   5.101
 1896TIP3    H1 5645   1.865   0.780   5.055
 1896TIP3    H2 5646   1.801   0.643   5.043
 1897TIP3   OH2 5647   0.635   7.011   2.191
 1897TIP3    H1 5648   0.687   7.055   2.258
 1897TIP3    H2 5649   0.671   7.042   2.108
 1898TIP3   OH2 5650   1.442   2.018   3.841
 1898TIP3    H1 5651   1.357   2.010   3.884
 1898TIP3    H2 5652   1.423   2.062   3.758
 1899TIP3   OH2 5653   5.033   6.777   1.189
 1899TIP3    H1 5654   5.097   6.843   1.215
 1899TIP3    H2 5655   4.948   6.820   1.203
 1900TIP3   OH2 5656   7.638   4.697   1.767
 1900TIP3    H1 5657   7.698   4.667   1.835
 1900TIP3    H2 5658   7.551   4.692   1.808
 1901TIP3   OH2 5659   5.308   3.239   2.402
 1901TIP3    H1 5660   5.246   3.181   2.445
 1901TIP3    H2 5661   5.393   3.196   2.413
 1902TIP3   OH2 5662   1.817   6.441   0.817
 1902TIP3    H1 5663   1.835   6.528   0.781
 1902TIP3    H2 5664   1.741   6.409   0.767
 1903TIP3   OH2 5665   1.451   5.692   3.792
 1903TIP3    H1 5666   1.464   5.620   3.730
 1903TIP3    H2 5667   1.357   5.691   3.810
 1904TIP3   OH2 5668   2.856   2.296   2.205
 1904TIP3    H1 5669   2.777   2.274   2.255
 1904TIP3    H2 5670   2.856   2.233   2.133
 1905TIP3   OH2 5671   1.813   6.779   3.029
 1905TIP3    H1 5672   1.900   6.760   2.993
 1905TIP3    H2 5673   1.792   6.702   3.082
 1906TIP3   OH2 5674   6.867   3.196   4.026
 1906TIP3    H1 5675   6.837   3.246   4.101
 1906TIP3    H2 5676   6.850   3.252   3.950
 1907TIP3   OH2 5677   3.246   0.505   4.311
 1907TIP3    H1 5678   3.167   0.521   4.259
 1907TIP3    H2 5679   3.258   0.586   4.362
 1908TIP3   OH2 5680   7.707   2.977   1.791
 1908TIP3    H1 5681   7.640   3.043   1.775
 1908TIP3    H2 5682   7.690   2.909   1.726
 1909TIP3   OH2 5683   5.417   7.521   2.168
 1909TIP3    H1 5684   5.443   7.604   2.208
 1909TIP3    H2 5685   5.359   7.546   2.096
 1910TIP3   OH2 5686   0.026   4.284   5.324
 1910TIP3    H1 5687  -0.003   4.364   5.367
 1910TIP3    H2 5688   0.107   4.309   5.280
 1911TIP3   OH2 5689   2.569   2.271   3.001
 1911TIP3    H1 5690   2.642   2.250   2.943
 1911TIP3    H2 5691   2.566   2.198   3.063
 1912TIP3   OH2 5692   0.996   1.474   4.204
 1912TIP3    H1 5693   1.025   1.563   4.224
 1912TIP3    H2 5694   0.930   1.454   4.271
 1913TIP3   OH2 5695   1.501   1.362   2.599
 1913TIP3    H1 5696   1.438   1.388   2.532
 1913TIP3    H2 5697   1.534   1.444   2.635
 1914TIP3   OH2 5698   0.407   6.361   2.102
 1914TIP3    H1 5699   0.426   6.365   2.196
 1914TIP3    H2 5700   0.327   6.309   2.096
 1915TIP3   OH2 5701   3.469   0.679   4.368
 1915TIP3    H1 5702   3.463   0.585   4.351
 1915TIP3    H2 5703   3.524   0.685   4.447
 1916TIP3   OH2 5704   3.095   5.017   5.137
 1916TIP3    H1 5705   3.177   4.973   5.158
 1916TIP3    H2 5706   3.085   5.085   5.204
 1917TIP3   OH2 5707   2.632   2.015   4.356
 1917TIP3    H1 5708   2.552   1.968   4.332
 1917TIP3    H2 5709   2.602   2.085   4.414
 1918TIP3   OH2 5710   3.738   4.027   4.219
 1918TIP3    H1 5711   3.680   3.995   4.288
 1918TIP3    H2 5712   3.712   4.117   4.204
 1919TIP3   OH2 5713   6.369   6.239   6.132
 1919TIP3    H1 5714   6.423   6.299   6.185
 1919TIP3    H2 5715   6.325   6.296   6.069
 1920TIP3   OH2 5716   2.027   0.606   3.044
 1920TIP3    H1 5717   1.972   0.585   2.968
 1920TIP3    H2 5718   1.987   0.560   3.117
 1921TIP3   OH2 5719   5.944   6.106   4.839
 1921TIP3    H1 5720   5.867   6.057   4.809
 1921TIP3    H2 5721   6.018   6.054   4.809
 1922TIP3   OH2 5722   6.250   4.850   3.705
 1922TIP3    H1 5723   6.252   4.762   3.667
 1922TIP3    H2 5724   6.167   4.887   3.674
 1923TIP3   OH2 5725   2.300   6.978   1.309
 1923TIP3    H1 5726   2.392   6.971   1.284
 1923TIP3    H2 5727   2.269   6.887   1.313
 1924TIP3   OH2 5728   6.729   1.525   6.205
 1924TIP3    H1 5729   6.678   1.601   6.234
 1924TIP3    H2 5730   6.698   1.507   6.117
 1925TIP3   OH2 5731   0.092   3.588   2.410
 1925TIP3    H1 5732   0.112   3.558   2.499
 1925TIP3    H2 5733   0.026   3.527   2.379
 1926TIP3   OH2 5734   2.674   0.885   1.919
 1926TIP3    H1 5735   2.713   0.888   1.832
 1926TIP3    H2 5736   2.607   0.816   1.914
 1927TIP3   OH2 5737   4.674   4.965   5.165
 1927TIP3    H1 5738   4.663   4.879   5.124
 1927TIP3    H2 5739   4.739   4.950   5.234
 1928TIP3   OH2 5740   7.524   0.245   4.650
 1928TIP3    H1 5741   7.532   0.336   4.680
 1928TIP3    H2 5742   7.610   0.224   4.614
 1929TIP3   OH2 5743   4.570   2.000   1.167
 1929TIP3    H1 5744   4.586   1.905   1.166
 1929TIP3    H2 5745   4.563   2.021   1.260
 1930TIP3   OH2 5746   8.267   2.251   2.693
 1930TIP3    H1 5747   8.307   2.337   2.678
 1930TIP3    H2 5748   8.334   2.188   2.665
 1931TIP3   OH2 5749   6.177   2.890   2.507
 1931TIP3    H1 5750   6.176   2.978   2.470
 1931TIP3    H2 5751   6.267   2.859   2.496
 1932TIP3   OH2 5752   6.914   0.117   3.811
 1932TIP3    H1 5753   6.909   0.152   3.900
 1932TIP3    H2 5754   7.000   0.144   3.779
 1933TIP3   OH2 5755   7.925   1.991   5.775
 1933TIP3    H1 5756   8.008   2.013   5.734
 1933TIP3    H2 5757   7.859   2.011   5.709
 1934TIP3   OH2 5758   0.518   4.578   1.024
 1934TIP3    H1 5759   0.537   4.514   0.956
 1934TIP3    H2 5760   0.426   4.564   1.046
 1935TIP3   OH2 5761   2.969   5.886   5.624
 1935TIP3    H1 5762   3.002   5.859   5.538
 1935TIP3    H2 5763   2.951   5.979   5.615
 1936TIP3   OH2 5764   6.663   0.834   1.087
 1936TIP3    H1 5765   6.687   0.864   0.999
 1936TIP3    H2 5766   6.598   0.766   1.072
 1937TIP3   OH2 5767   8.231   1.857   1.196
 1937TIP3    H1 5768   8.303   1.879   1.255
 1937TIP3    H2 5769   8.191   1.779   1.235
 1938TIP3   OH2 5770   7.384   4.093   1.580
 1938TIP3    H1 5771   7.457   4.054   1.629
 1938TIP3    H2 5772   7.389   4.053   1.493
 1939TIP3   OH2 5773   1.323   3.811   0.542
 1939TIP3    H1 5774   1.331   3.900   0.506
 1939TIP3    H2 5775   1.288   3.759   0.469
 1940TIP3   OH2 5776   5.941   5.281   3.011
 1940TIP3    H1 5777   5.934   5.281   3.107
 1940TIP3    H2 5778   6.026   5.321   2.994
 1941TIP3   OH2 5779   3.127   7.653   2.406
 1941TIP3    H1 5780   3.085   7.702   2.335
 1941TIP3    H2 5781   3.084   7.683   2.485
 1942TIP3   OH2 5782   7.237   5.890   3.755
 1942TIP3    H1 5783   7.232   5.795   3.763
 1942TIP3    H2 5784   7.170   5.912   3.690
 1943TIP3   OH2 5785   6.195   7.767   6.571
 1943TIP3    H1 5786   6.152   7.715   6.639
 1943TIP3    H2 5787   6.125   7.793   6.512
 1944TIP3   OH2 5788   7.226   7.356   4.850
 1944TIP3    H1 5789   7.249   7.365   4.943
 1944TIP3    H2 5790   7.182   7.438   4.829
 1945TIP3   OH2 5791   2.886   4.827   0.974
 1945TIP3    H1 5792   2.890   4.886   0.898
 1945TIP3    H2 5793   2.961   4.852   1.027
 1946TIP3   OH2 5794   7.109   7.560   2.243
 1946TIP3    H1 5795   7.119   7.642   2.194
 1946TIP3    H2 5796   7.150   7.577   2.328
 1947TIP3   OH2 5797   0.894   4.780   3.087
 1947TIP3    H1 5798   0.924   4.840   3.018
 1947TIP3    H2 5799   0.939   4.698   3.069
 1948TIP3   OH2 5800   6.163   2.582   2.803
 1948TIP3    H1 5801   6.072   2.553   2.805
 1948TIP3    H2 5802   6.159   2.678   2.809
 1949TIP3   OH2 5803   0.902   1.398   2.377
 1949TIP3    H1 5804   0.963   1.444   2.319
 1949TIP3    H2 5805   0.952   1.380   2.456
 1950TIP3   OH2 5806   7.139   7.803   4.457
 1950TIP3    H1 5807   7.150   7.865   4.384
 1950TIP3    H2 5808   7.064   7.837   4.506
 1951TIP3   OH2 5809   1.280   7.758   2.515
 1951TIP3    H1 5810   1.280   7.686   2.579
 1951TIP3    H2 5811   1.200   7.744   2.464
 1952TIP3   OH2 5812   6.774   0.412   4.747
 1952TIP3    H1 5813   6.773   0.484   4.811
 1952TIP3    H2 5814   6.807   0.452   4.667
 1953TIP3   OH2 5815   8.181   3.134   5.967
 1953TIP3    H1 5816   8.143   3.149   6.053
 1953TIP3    H2 5817   8.135   3.056   5.934
 1954TIP3   OH2 5818   6.286   2.554   3.689
 1954TIP3    H1 5819   6.337   2.514   3.759
 1954TIP3    H2 5820   6.217   2.489   3.671
 1955TIP3   OH2 5821   5.696   6.828   0.218
 1955TIP3    H1 5822   5.606   6.846   0.245
 1955TIP3    H2 5823   5.737   6.914   0.211
 1956TIP3   OH2 5824   3.502   4.478   5.501
 1956TIP3    H1 5825   3.584   4.474   5.551
 1956TIP3    H2 5826   3.481   4.386   5.483
 1957TIP3   OH2 5827   1.969   6.633   3.830
 1957TIP3    H1 5828   1.952   6.544   3.861
 1957TIP3    H2 5829   1.941   6.688   3.903
 1958TIP3   OH2 5830   0.424   6.638   2.668
 1958TIP3    H1 5831   0.410   6.731   2.650
 1958TIP3    H2 5832   0.444   6.634   2.761
 1959TIP3   OH2 5833   0.294   4.143   5.549
 1959TIP3    H1 5834   0.378   4.113   5.513
 1959TIP3    H2 5835   0.296   4.238   5.535
 1960TIP3   OH2 5836   0.404   2.451   6.627
 1960TIP3    H1 5837   0.424   2.512   6.698
 1960TIP3    H2 5838   0.313   2.425   6.642
 1961TIP3   OH2 5839   2.732   3.609   3.400
 1961TIP3    H1 5840   2.669   3.675   3.369
 1961TIP3    H2 5841   2.810   3.659   3.422
 1962TIP3   OH2 5842   2.141   2.880   0.720
 1962TIP3    H1 5843   2.080   2.936   0.768
 1962TIP3    H2 5844   2.093   2.853   0.642
 1963TIP3   OH2 5845   6.452   1.116   5.139
 1963TIP3    H1 5846   6.363   1.126   5.107
 1963TIP3    H2 5847   6.468   1.196   5.190
 1964TIP3   OH2 5848   2.082   6.652   6.009
 1964TIP3    H1 5849   2.121   6.739   6.000
 1964TIP3    H2 5850   2.143   6.594   5.964
 1965TIP3   OH2 5851   5.655   4.303   2.768
 1965TIP3    H1 5852   5.732   4.261   2.805
 1965TIP3    H2 5853   5.584   4.278   2.827
 1966TIP3   OH2 5854   4.443   1.174   1.920
 1966TIP3    H1 5855   4.476   1.150   2.007
 1966TIP3    H2 5856   4.364   1.120   1.909
 1967TIP3   OH2 5857   1.924   7.223   0.690
 1967TIP3    H1 5858   1.970   7.240   0.773
 1967TIP3    H2 5859   1.994   7.221   0.625
 1968TIP3   OH2 5860   5.566   3.184   2.438
 1968TIP3    H1 5861   5.598   3.265   2.398
 1968TIP3    H2 5862   5.591   3.115   2.376
 1969TIP3   OH2 5863   2.178   1.016   1.319
 1969TIP3    H1 5864   2.095   0.998   1.274
 1969TIP3    H2 5865   2.243   1.021   1.249
 1970TIP3   OH2 5866   5.433   2.805   0.066
 1970TIP3    H1 5867   5.422   2.721   0.111
 1970TIP3    H2 5868   5.473   2.862   0.131
 1971TIP3   OH2 5869   3.757   2.408   2.791
 1971TIP3    H1 5870   3.716   2.370   2.869
 1971TIP3    H2 5871   3.789   2.493   2.819
 1972TIP3   OH2 5872   2.292   0.479   4.215
 1972TIP3    H1 5873   2.312   0.400   4.164
 1972TIP3    H2 5874   2.216   0.454   4.268
 1973TIP3   OH2 5875   3.644   4.777   1.025
 1973TIP3    H1 5876   3.634   4.725   0.945
 1973TIP3    H2 5877   3.733   4.813   1.019
 1974TIP3   OH2 5878   8.126   0.939   0.317
 1974TIP3    H1 5879   8.202   0.919   0.262
 1974TIP3    H2 5880   8.155   1.012   0.372
 1975TIP3   OH2 5881   0.534   1.200   0.936
 1975TIP3    H1 5882   0.624   1.230   0.944
 1975TIP3    H2 5883   0.525   1.178   0.843
 1976TIP3   OH2 5884   2.051   6.801   1.320
 1976TIP3    H1 5885   2.060   6.896   1.306
 1976TIP3    H2 5886   2.129   6.777   1.371
 1977TIP3   OH2 5887   1.342   7.023   0.607
 1977TIP3    H1 5888   1.377   6.937   0.631
 1977TIP3    H2 5889   1.278   7.006   0.539
 1978TIP3   OH2 5890   7.412   0.711   5.917
 1978TIP3    H1 5891   7.406   0.730   5.823
 1978TIP3    H2 5892   7.383   0.621   5.926
 1979TIP3   OH2 5893   1.015   5.331   1.591
 1979TIP3    H1 5894   0.943   5.273   1.615
 1979TIP3    H2 5895   1.032   5.382   1.669
 1980TIP3   OH2 5896   0.982   2.162   2.741
 1980TIP3    H1 5897   1.070   2.138   2.771
 1980TIP3    H2 5898   0.928   2.159   2.820
 1981TIP3   OH2 5899   1.112   1.721   3.156
 1981TIP3    H1 5900   1.100   1.802   3.206
 1981TIP3    H2 5901   1.040   1.720   3.093
 1982TIP3   OH2 5902   1.785   0.372   1.865
 1982TIP3    H1 5903   1.718   0.426   1.825
 1982TIP3    H2 5904   1.867   0.420   1.850
 1983TIP3   OH2 5905   4.641   6.384   2.064
 1983TIP3    H1 5906   4.660   6.363   1.972
 1983TIP3    H2 5907   4.567   6.327   2.087
 1984TIP3   OH2 5908   4.561   7.171   3.327
 1984TIP3    H1 5909   4.609   7.233   3.271
 1984TIP3    H2 5910   4.548   7.094   3.272
 1985TIP3   OH2 5911   0.615   7.795   3.516
 1985TIP3    H1 5912   0.657   7.732   3.574
 1985TIP3    H2 5913   0.525   7.801   3.548
 1986TIP3   OH2 5914   3.671   5.936   1.483
 1986TIP3    H1 5915   3.608   6.005   1.463
 1986TIP3    H2 5916   3.617   5.861   1.510
 1987TIP3   OH2 5917   5.103   3.192   2.949
 1987TIP3    H1 5918   5.110   3.121   2.887
 1987TIP3    H2 5919   5.178   3.248   2.931
 1988TIP3   OH2 5920   1.402   2.232   3.396
 1988TIP3    H1 5921   1.455   2.240   3.317
 1988TIP3    H2 5922   1.319   2.195   3.365
 1989TIP3   OH2 5923   2.323   0.332   1.537
 1989TIP3    H1 5924   2.342   0.280   1.615
 1989TIP3    H2 5925   2.256   0.283   1.491
 1990TIP3   OH2 5926   7.195   2.116   3.679
 1990TIP3    H1 5927   7.201   2.020   3.683
 1990TIP3    H2 5928   7.228   2.145   3.764
 1991TIP3   OH2 5929   3.150   0.165   3.674
 1991TIP3    H1 5930   3.121   0.255   3.657
 1991TIP3    H2 5931   3.068   0.116   3.685
 1992TIP3   OH2 5932   6.614   7.652   4.680
 1992TIP3    H1 5933   6.569   7.621   4.601
 1992TIP3    H2 5934   6.705   7.665   4.654
 1993TIP3   OH2 5935   3.835   6.590   3.191
 1993TIP3    H1 5936   3.844   6.550   3.105
 1993TIP3    H2 5937   3.869   6.679   3.179
 1994TIP3   OH2 5938   4.028   0.053   1.771
 1994TIP3    H1 5939   4.028   0.134   1.821
 1994TIP3    H2 5940   4.103   0.060   1.712
 1995TIP3   OH2 5941   2.097   0.963   6.497
 1995TIP3    H1 5942   2.091   0.921   6.583
 1995TIP3    H2 5943   2.126   1.052   6.515
 1996TIP3   OH2 5944   3.296   0.401   5.563
 1996TIP3    H1 5945   3.238   0.406   5.639
 1996TIP3    H2 5946   3.311   0.307   5.551
 1997TIP3   OH2 5947   0.508   3.127   3.647
 1997TIP3    H1 5948   0.498   3.053   3.587
 1997TIP3    H2 5949   0.553   3.090   3.723
 1998TIP3   OH2 5950   3.488   5.217   4.064
 1998TIP3    H1 5951   3.554   5.183   4.125
 1998TIP3    H2 5952   3.420   5.252   4.121
 1999TIP3   OH2 5953   1.035   7.343   6.137
 1999TIP3    H1 5954   1.097   7.397   6.088
 1999TIP3    H2 5955   0.954   7.347   6.087
 2000TIP3   OH2 5956   1.524   4.965   0.889
 2000TIP3    H1 5957   1.569   4.881   0.895
 2000TIP3    H2 5958   1.432   4.943   0.879
 2001TIP3   OH2 5959   7.401   6.953   3.443
 2001TIP3    H1 5960   7.440   7.037   3.466
 2001TIP3    H2 5961   7.313   6.956   3.481
 2002TIP3   OH2 5962   0.808   5.693   3.517
 2002TIP3    H1 5963   0.861   5.760   3.473
 2002TIP3    H2 5964   0.747   5.743   3.571
 2003TIP3   OH2 5965   2.874   1.893   1.181
 2003TIP3    H1 5966   2.955   1.873   1.229
 2003TIP3    H2 5967   2.806   1.894   1.248
 2004TIP3   OH2 5968   6.094   2.854   2.770
 2004TIP3    H1 5969   6.177   2.868   2.815
 2004TIP3    H2 5970   6.106   2.891   2.683
 2005TIP3   OH2 5971   5.918   7.468   0.234
 2005TIP3    H1 5972   5.883   7.459   0.323
 2005TIP3    H2 5973   5.842   7.490   0.181
 2006TIP3   OH2 5974   6.332   6.681   3.036
 2006TIP3    H1 5975   6.289   6.685   2.951
 2006TIP3    H2 5976   6.417   6.723   3.022
 2007TIP3   OH2 5977   1.397   4.061   0.831
 2007TIP3    H1 5978   1.380   4.084   0.923
 2007TIP3    H2 5979   1.313   4.030   0.798
 2008TIP3   OH2 5980   5.152   0.605   1.844
 2008TIP3    H1 5981   5.128   0.595   1.752
 2008TIP3    H2 5982   5.174   0.517   1.873
 2009TIP3   OH2 5983   1.027   3.130   0.729
 2009TIP3    H1 5984   0.954   3.083   0.688
 2009TIP3    H2 5985   1.099   3.067   0.726
 2010TIP3   OH2 5986   3.244   7.100   3.782
 2010TIP3    H1 5987   3.332   7.100   3.746
 2010TIP3    H2 5988   3.254   7.135   3.870
 2011TIP3   OH2 5989   8.088   6.215   4.370
 2011TIP3    H1 5990   8.145   6.152   4.326
 2011TIP3    H2 5991   8.143   6.293   4.382
 2012TIP3   OH2 5992   4.437   2.971   3.464
 2012TIP3    H1 5993   4.484   2.981   3.381
 2012TIP3    H2 5994   4.381   2.894   3.451
 2013TIP3   OH2 5995   1.631   5.642   5.042
 2013TIP3    H1 5996   1.565   5.657   4.974
 2013TIP3    H2 5997   1.666   5.728   5.062
 2014TIP3   OH2 5998   7.528   2.428   3.819
 2014TIP3    H1 5999   7.532   2.523   3.832
 2014TIP3    H2 6000   7.437   2.405   3.836
 2015TIP3   OH2 6001   6.020   5.411   0.881
 2015TIP3    H1 6002   5.926   5.419   0.861
 2015TIP3    H2 6003   6.023   5.395   0.975
 2016TIP3   OH2 6004   4.732   3.599   6.451
 2016TIP3    H1 6005   4.755   3.506   6.456
 2016TIP3    H2 6006   4.782   3.640   6.521
 2017TIP3   OH2 6007   3.988   2.422   0.107
 2017TIP3    H1 6008   3.893   2.413   0.120
 2017TIP3    H2 6009   4.020   2.331   0.107
 2018TIP3   OH2 6010   5.484   4.131   3.557
 2018TIP3    H1 6011   5.487   4.060   3.493
 2018TIP3    H2 6012   5.460   4.089   3.640
 2019TIP3   OH2 6013   8.048   6.508   5.449
 2019TIP3    H1 6014   8.125   6.451   5.448
 2019TIP3    H2 6015   8.044   6.545   5.361
 2020TIP3   OH2 6016   5.065   2.050   1.862
 2020TIP3    H1 6017   4.975   2.020   1.856
 2020TIP3    H2 6018   5.064   2.137   1.822
 2021TIP3   OH2 6019   1.558   5.056   1.474
 2021TIP3    H1 6020   1.648   5.058   1.509
 2021TIP3    H2 6021   1.502   5.052   1.552
 2022TIP3   OH2 6022   3.464   1.477   3.845
 2022TIP3    H1 6023   3.468   1.427   3.764
 2022TIP3    H2 6024   3.387   1.443   3.891
 2023TIP3   OH2 6025   3.159   0.204   2.759
 2023TIP3    H1 6026   3.169   0.242   2.846
 2023TIP3    H2 6027   3.117   0.119   2.774
 2024TIP3   OH2 6028   5.256   4.375   5.144
 2024TIP3    H1 6029   5.236   4.351   5.235
 2024TIP3    H2 6030   5.324   4.313   5.117
 2025TIP3   OH2 6031   8.168   5.897   2.438
 2025TIP3    H1 6032   8.195   5.862   2.353
 2025TIP3    H2 6033   8.079   5.864   2.451
 2026TIP3   OH2 6034   6.317   5.913   3.366
 2026TIP3    H1 6035   6.304   5.853   3.439
 2026TIP3    H2 6036   6.402   5.888   3.330
 2027TIP3   OH2 6037   7.473   1.735   0.559
 2027TIP3    H1 6038   7.427   1.756   0.478
 2027TIP3    H2 6039   7.564   1.721   0.532
 2028TIP3   OH2 6040   3.326   2.554   5.805
 2028TIP3    H1 6041   3.262   2.492   5.839
 2028TIP3    H2 6042   3.290   2.582   5.721
 2029TIP3   OH2 6043   4.078   0.666   2.704
 2029TIP3    H1 6044   4.007   0.617   2.664
 2029TIP3    H2 6045   4.147   0.601   2.719
 2030TIP3   OH2 6046   6.622   5.482   2.266
 2030TIP3    H1 6047   6.594   5.397   2.232
 2030TIP3    H2 6048   6.553   5.542   2.240
 2031TIP3   OH2 6049   5.754   5.863   5.307
 2031TIP3    H1 6050   5.823   5.800   5.329
 2031TIP3    H2 6051   5.748   5.919   5.385
 2032TIP3   OH2 6052   0.163   2.053   2.161
 2032TIP3    H1 6053   0.087   1.994   2.171
 2032TIP3    H2 6054   0.189   2.074   2.251
 2033TIP3   OH2 6055   4.452   0.583   4.135
 2033TIP3    H1 6056   4.499   0.639   4.074
 2033TIP3    H2 6057   4.453   0.630   4.218
 2034TIP3   OH2 6058   7.874   4.887   1.704
 2034TIP3    H1 6059   7.783   4.858   1.707
 2034TIP3    H2 6060   7.920   4.818   1.656
 2035TIP3   OH2 6061   2.794   6.388   3.587
 2035TIP3    H1 6062   2.792   6.295   3.563
 2035TIP3    H2 6063   2.810   6.388   3.681
 2036TIP3   OH2 6064   3.169   5.258   4.479
 2036TIP3    H1 6065   3.183   5.316   4.554
 2036TIP3    H2 6066   3.176   5.170   4.516
 2037TIP3   OH2 6067   7.137   3.092   6.082
 2037TIP3    H1 6068   7.135   3.001   6.110
 2037TIP3    H2 6069   7.048   3.111   6.053
 2038TIP3   OH2 6070   6.979   4.159   4.362
 2038TIP3    H1 6071   7.032   4.181   4.286
 2038TIP3    H2 6072   6.891   4.145   4.326
 2039TIP3   OH2 6073   0.036   5.584   2.212
 2039TIP3    H1 6074   0.083   5.619   2.288
 2039TIP3    H2 6075  -0.007   5.661   2.173
 2040TIP3   OH2 6076   7.720   4.713   3.892
 2040TIP3    H1 6077   7.800   4.677   3.852
 2040TIP3    H2 6078   7.729   4.692   3.985
 2041TIP3   OH2 6079   0.247   6.008   1.338
 2041TIP3    H1 6080   0.336   6.044   1.337
 2041TIP3    H2 6081   0.202   6.053   1.267
 2042TIP3   OH2 6082   6.753   1.486   2.930
 2042TIP3    H1 6083   6.844   1.484   2.958
 2042TIP3    H2 6084   6.729   1.394   2.919
 2043TIP3   OH2 6085   5.388   5.159   0.546
 2043TIP3    H1 6086   5.468   5.178   0.497
 2043TIP3    H2 6087   5.374   5.065   0.534
 2044TIP3   OH2 6088   3.390   3.846   4.278
 2044TIP3    H1 6089   3.403   3.824   4.186
 2044TIP3    H2 6090   3.309   3.897   4.280
 2045TIP3   OH2 6091   8.081   0.810   0.690
 2045TIP3    H1 6092   7.998   0.773   0.659
 2045TIP3    H2 6093   8.060   0.901   0.710
 2046TIP3   OH2 6094   7.430   2.959   5.853
 2046TIP3    H1 6095   7.382   2.886   5.891
 2046TIP3    H2 6096   7.364   3.008   5.804
 2047TIP3   OH2 6097   0.553   3.437   2.185
 2047TIP3    H1 6098   0.642   3.467   2.203
 2047TIP3    H2 6099   0.497   3.509   2.214
 2048TIP3   OH2 6100   6.311   6.549   3.464
 2048TIP3    H1 6101   6.226   6.509   3.449
 2048TIP3    H2 6102   6.372   6.494   3.415
 2049TIP3   OH2 6103   6.614   2.060   2.202
 2049TIP3    H1 6104   6.613   2.153   2.180
 2049TIP3    H2 6105   6.556   2.053   2.278
 2050TIP3   OH2 6106   1.897   5.653   0.564
 2050TIP3    H1 6107   1.952   5.724   0.530
 2050TIP3    H2 6108   1.959   5.584   0.587
 2051TIP3   OH2 6109   1.395   1.269   1.813
 2051TIP3    H1 6110   1.304   1.295   1.794
 2051TIP3    H2 6111   1.407   1.290   1.905
 2052TIP3   OH2 6112   7.510   6.285   5.488
 2052TIP3    H1 6113   7.443   6.314   5.551
 2052TIP3    H2 6114   7.583   6.344   5.502
 2053TIP3   OH2 6115   0.231   7.798   6.525
 2053TIP3    H1 6116   0.193   7.788   6.612
 2053TIP3    H2 6117   0.275   7.883   6.527
 2054TIP3   OH2 6118   0.574   1.637   4.499
 2054TIP3    H1 6119   0.580   1.713   4.441
 2054TIP3    H2 6120   0.658   1.634   4.544
 2055TIP3   OH2 6121   4.626   0.160   2.214
 2055TIP3    H1 6122   4.713   0.128   2.237
 2055TIP3    H2 6123   4.566   0.109   2.269
 2056TIP3   OH2 6124   0.535   2.452   4.123
 2056TIP3    H1 6125   0.564   2.361   4.129
 2056TIP3    H2 6126   0.456   2.449   4.069
 2057TIP3   OH2 6127   4.825   7.733   2.287
 2057TIP3    H1 6128   4.769   7.659   2.313
 2057TIP3    H2 6129   4.855   7.770   2.370
 2058TIP3   OH2 6130   2.766   0.854   5.558
 2058TIP3    H1 6131   2.764   0.772   5.509
 2058TIP3    H2 6132   2.675   0.869   5.585
 2059TIP3   OH2 6133   3.352   4.132   1.848
 2059TIP3    H1 6134   3.324   4.053   1.801
 2059TIP3    H2 6135   3.417   4.171   1.791
 2060TIP3   OH2 6136   4.844   6.316   3.391
 2060TIP3    H1 6137   4.835   6.321   3.486
 2060TIP3    H2 6138   4.811   6.229   3.368
 2061TIP3   OH2 6139   6.408   3.817   0.356
 2061TIP3    H1 6140   6.375   3.801   0.267
 2061TIP3    H2 6141   6.342   3.778   0.413
 2062TIP3   OH2 6142   0.393   5.186   1.695
 2062TIP3    H1 6143   0.305   5.173   1.732
 2062TIP3    H2 6144   0.403   5.115   1.633
 2063TIP3   OH2 6145   4.225   4.604   3.287
 2063TIP3    H1 6146   4.270   4.542   3.229
 2063TIP3    H2 6147   4.241   4.570   3.375
 2064TIP3   OH2 6148   1.226   3.698   5.640
 2064TIP3    H1 6149   1.133   3.707   5.658
 2064TIP3    H2 6150   1.269   3.712   5.724
 2065TIP3   OH2 6151   4.619   4.782   0.167
 2065TIP3    H1 6152   4.598   4.703   0.216
 2065TIP3    H2 6153   4.616   4.852   0.232
 2066TIP3   OH2 6154   5.991   0.869   6.273
 2066TIP3    H1 6155   5.932   0.899   6.204
 2066TIP3    H2 6156   5.946   0.794   6.312
 2067TIP3   OH2 6157   3.121   3.261   3.463
 2067TIP3    H1 6158   3.147   3.175   3.430
 2067TIP3    H2 6159   3.026   3.256   3.470
 2068TIP3   OH2 6160   0.034   1.975   3.113
 2068TIP3    H1 6161   0.074   1.956   3.028
 2068TIP3    H2 6162  -0.058   1.952   3.101
 2069TIP3   OH2 6163   3.677   2.489   4.987
 2069TIP3    H1 6164   3.727   2.432   4.928
 2069TIP3    H2 6165   3.685   2.576   4.948
 2070TIP3   OH2 6166   3.017   0.682   4.237
 2070TIP3    H1 6167   2.937   0.678   4.185
 2070TIP3    H2 6168   2.996   0.741   4.309
 2071TIP3   OH2 6169   7.591   0.995   3.117
 2071TIP3    H1 6170   7.527   0.925   3.129
 2071TIP3    H2 6171   7.540   1.067   3.080
 2072TIP3   OH2 6172   1.783   7.442   4.556
 2072TIP3    H1 6173   1.863   7.391   4.567
 2072TIP3    H2 6174   1.725   7.412   4.626
 2073TIP3   OH2 6175   7.835   6.431   6.122
 2073TIP3    H1 6176   7.862   6.352   6.167
 2073TIP3    H2 6177   7.741   6.439   6.141
 2074TIP3   OH2 6178   6.174   7.605   0.241
 2074TIP3    H1 6179   6.091   7.600   0.194
 2074TIP3    H2 6180   6.241   7.603   0.173
 2075TIP3   OH2 6181   4.563   2.031   0.355
 2075TIP3    H1 6182   4.595   2.010   0.443
 2075TIP3    H2 6183   4.556   1.947   0.311
 2076TIP3   OH2 6184   3.263   7.419   1.888
 2076TIP3    H1 6185   3.168   7.416   1.896
 2076TIP3    H2 6186   3.293   7.471   1.963
 2077TIP3   OH2 6187   4.637   0.464   1.456
 2077TIP3    H1 6188   4.645   0.515   1.376
 2077TIP3    H2 6189   4.664   0.524   1.526
 2078TIP3   OH2 6190   0.842   2.068   6.139
 2078TIP3    H1 6191   0.835   2.133   6.210
 2078TIP3    H2 6192   0.769   2.008   6.155
 2079TIP3   OH2 6193   3.259   0.701   0.212
 2079TIP3    H1 6194   3.186   0.761   0.194
 2079TIP3    H2 6195   3.237   0.662   0.297
 2080TIP3   OH2 6196   4.635   2.586   4.885
 2080TIP3    H1 6197   4.686   2.651   4.836
 2080TIP3    H2 6198   4.544   2.604   4.860
 2081TIP3   OH2 6199   3.007   6.662   5.160
 2081TIP3    H1 6200   2.927   6.714   5.164
 2081TIP3    H2 6201   3.077   6.726   5.174
 2082TIP3   OH2 6202   6.503   6.454   6.569
 2082TIP3    H1 6203   6.556   6.402   6.509
 2082TIP3    H2 6204   6.542   6.440   6.655
 2083TIP3   OH2 6205   2.095   0.811   5.575
 2083TIP3    H1 6206   2.158   0.878   5.600
 2083TIP3    H2 6207   2.068   0.771   5.658
 2084TIP3   OH2 6208   6.961   2.424   2.304
 2084TIP3    H1 6209   6.988   2.496   2.360
 2084TIP3    H2 6210   6.983   2.345   2.353
 2085TIP3   OH2 6211   5.932   0.418   2.345
 2085TIP3    H1 6212   5.933   0.488   2.410
 2085TIP3    H2 6213   5.981   0.347   2.385
 2086TIP3   OH2 6214   5.529   4.150   1.108
 2086TIP3    H1 6215   5.522   4.231   1.157
 2086TIP3    H2 6216   5.454   4.098   1.138
 2087TIP3   OH2 6217   3.915   6.338   1.084
 2087TIP3    H1 6218   3.855   6.313   1.154
 2087TIP3    H2 6219   3.940   6.428   1.106
 2088TIP3   OH2 6220   7.872   0.267   5.520
 2088TIP3    H1 6221   7.839   0.188   5.562
 2088TIP3    H2 6222   7.896   0.239   5.431
 2089TIP3   OH2 6223   1.243   4.232   6.293
 2089TIP3    H1 6224   1.273   4.185   6.215
 2089TIP3    H2 6225   1.155   4.262   6.270
 2090TIP3   OH2 6226   3.056   1.706   4.300
 2090TIP3    H1 6227   3.139   1.685   4.258
 2090TIP3    H2 6228   3.064   1.798   4.326
 2091TIP3   OH2 6229   8.191   5.153   4.915
 2091TIP3    H1 6230   8.220   5.233   4.873
 2091TIP3    H2 6231   8.108   5.132   4.872
 2092TIP3   OH2 6232   5.593   4.237   2.010
 2092TIP3    H1 6233   5.615   4.190   2.090
 2092TIP3    H2 6234   5.506   4.274   2.027
 2093TIP3   OH2 6235   2.322   0.624   0.668
 2093TIP3    H1 6236   2.340   0.715   0.643
 2093TIP3    H2 6237   2.227   0.619   0.673
 2094TIP3   OH2 6238   3.061   0.710   1.836
 2094TIP3    H1 6239   3.110   0.646   1.785
 2094TIP3    H2 6240   2.975   0.714   1.795
 2095TIP3   OH2 6241   4.765   2.321   3.860
 2095TIP3    H1 6242   4.795   2.408   3.886
 2095TIP3    H2 6243   4.719   2.287   3.936
 2096TIP3   OH2 6244   0.469   5.584   1.693
 2096TIP3    H1 6245   0.498   5.587   1.784
 2096TIP3    H2 6246   0.389   5.636   1.692
 2097TIP3   OH2 6247   1.592   4.191   0.698
 2097TIP3    H1 6248   1.540   4.141   0.760
 2097TIP3    H2 6249   1.527   4.230   0.639
 2098TIP3   OH2 6250   0.185   7.000   6.631
 2098TIP3    H1 6251   0.105   6.990   6.580
 2098TIP3    H2 6252   0.246   7.042   6.570
 2099TIP3   OH2 6253   4.511   6.791   4.088
 2099TIP3    H1 6254   4.530   6.811   4.180
 2099TIP3    H2 6255   4.421   6.822   4.074
 2100TIP3   OH2 6256   1.209   7.737   4.614
 2100TIP3    H1 6257   1.282   7.677   4.632
 2100TIP3    H2 6258   1.169   7.752   4.699
 2101TIP3   OH2 6259   4.336   7.778   0.062
 2101TIP3    H1 6260   4.303   7.842   0.125
 2101TIP3    H2 6261   4.277   7.703   0.072
 2102TIP3   OH2 6262   7.122   1.754   0.085
 2102TIP3    H1 6263   7.075   1.818   0.138
 2102TIP3    H2 6264   7.070   1.674   0.092
 2103TIP3   OH2 6265   7.412   4.977   3.004
 2103TIP3    H1 6266   7.364   4.905   2.964
 2103TIP3    H2 6267   7.504   4.957   2.987
 2104TIP3   OH2 6268   3.378   4.858   5.334
 2104TIP3    H1 6269   3.468   4.855   5.366
 2104TIP3    H2 6270   3.384   4.903   5.249
 2105TIP3   OH2 6271   1.415   4.174   5.884
 2105TIP3    H1 6272   1.456   4.256   5.857
 2105TIP3    H2 6273   1.327   4.199   5.914
 2106TIP3   OH2 6274   1.447   5.699   0.390
 2106TIP3    H1 6275   1.365   5.651   0.380
 2106TIP3    H2 6276   1.454   5.751   0.311
 2107TIP3   OH2 6277   5.015   6.780   0.304
 2107TIP3    H1 6278   4.942   6.843   0.301
 2107TIP3    H2 6279   4.980   6.701   0.263
 2108TIP3   OH2 6280   2.870   6.170   4.048
 2108TIP3    H1 6281   2.885   6.151   4.141
 2108TIP3    H2 6282   2.820   6.095   4.016
 2109TIP3   OH2 6283   1.333   4.160   3.434
 2109TIP3    H1 6284   1.306   4.237   3.384
 2109TIP3    H2 6285   1.324   4.186   3.526
 2110TIP3   OH2 6286   5.810   4.012   3.985
 2110TIP3    H1 6287   5.836   3.925   4.016
 2110TIP3    H2 6288   5.816   4.006   3.889
 2111TIP3   OH2 6289   4.913   2.260   1.534
 2111TIP3    H1 6290   4.939   2.305   1.614
 2111TIP3    H2 6291   4.872   2.179   1.565
 2112TIP3   OH2 6292   0.372   0.901   3.649
 2112TIP3    H1 6293   0.371   0.838   3.577
 2112TIP3    H2 6294   0.322   0.976   3.615
 2113TIP3   OH2 6295   7.178   6.174   2.016
 2113TIP3    H1 6296   7.161   6.254   2.067
 2113TIP3    H2 6297   7.124   6.107   2.057
 2114TIP3   OH2 6298   5.942   2.590   6.535
 2114TIP3    H1 6299   5.853   2.573   6.502
 2114TIP3    H2 6300   5.963   2.677   6.503
 2115TIP3   OH2 6301   6.044   2.194   5.039
 2115TIP3    H1 6302   6.033   2.111   5.086
 2115TIP3    H2 6303   6.021   2.261   5.102
 2116TIP3   OH2 6304   4.266   1.577   3.502
 2116TIP3    H1 6305   4.189   1.525   3.522
 2116TIP3    H2 6306   4.232   1.653   3.455
 2117TIP3   OH2 6307   5.489   1.936   0.390
 2117TIP3    H1 6308   5.442   2.012   0.356
 2117TIP3    H2 6309   5.581   1.962   0.387
 2118TIP3   OH2 6310   3.460   5.754   1.535
 2118TIP3    H1 6311   3.394   5.775   1.601
 2118TIP3    H2 6312   3.409   5.733   1.456
 2119TIP3   OH2 6313   0.069   3.111   5.153
 2119TIP3    H1 6314   0.051   3.173   5.223
 2119TIP3    H2 6315   0.058   3.025   5.193
 2120TIP3   OH2 6316   1.952   7.307   0.967
 2120TIP3    H1 6317   2.009   7.378   0.996
 2120TIP3    H2 6318   1.947   7.247   1.041
 2121TIP3   OH2 6319   2.046   4.588   2.442
 2121TIP3    H1 6320   2.100   4.660   2.409
 2121TIP3    H2 6321   2.008   4.549   2.363
 2122TIP3   OH2 6322   4.707   2.082   5.855
 2122TIP3    H1 6323   4.720   2.018   5.785
 2122TIP3    H2 6324   4.663   2.033   5.925
 2123TIP3   OH2 6325   8.039   0.592   1.842
 2123TIP3    H1 6326   8.027   0.678   1.801
 2123TIP3    H2 6327   7.985   0.533   1.790
 2124TIP3   OH2 6328   2.945   3.498   1.681
 2124TIP3    H1 6329   2.912   3.572   1.733
 2124TIP3    H2 6330   3.026   3.530   1.643
 2125TIP3   OH2 6331   6.123   0.945   3.018
 2125TIP3    H1 6332   6.189   0.919   3.082
 2125TIP3    H2 6333   6.070   0.867   3.003
 2126TIP3   OH2 6334   3.459   0.863   3.193
 2126TIP3    H1 6335   3.371   0.848   3.160
 2126TIP3    H2 6336   3.485   0.779   3.232
 2127TIP3   OH2 6337   1.335   1.572   2.755
 2127TIP3    H1 6338   1.301   1.588   2.667
 2127TIP3    H2 6339   1.407   1.636   2.765
 2128TIP3   OH2 6340   3.080   0.329   3.390
 2128TIP3    H1 6341   3.073   0.400   3.327
 2128TIP3    H2 6342   2.991   0.295   3.398
 2129TIP3   OH2 6343   6.929   4.322   3.339
 2129TIP3    H1 6344   6.891   4.385   3.400
 2129TIP3    H2 6345   7.008   4.291   3.383
 2130TIP3   OH2 6346   4.283   4.478   6.356
 2130TIP3    H1 6347   4.187   4.474   6.361
 2130TIP3    H2 6348   4.308   4.397   6.312
 2131TIP3   OH2 6349   2.726   5.393   5.750
 2131TIP3    H1 6350   2.813   5.380   5.714
 2131TIP3    H2 6351   2.738   5.459   5.818
 2132TIP3   OH2 6352   1.283   4.240   2.104
 2132TIP3    H1 6353   1.362   4.257   2.054
 2132TIP3    H2 6354   1.313   4.232   2.195
 2133TIP3   OH2 6355   7.660   1.619   0.329
 2133TIP3    H1 6356   7.679   1.526   0.318
 2133TIP3    H2 6357   7.634   1.648   0.242
 2134TIP3   OH2 6358   1.047   3.752   5.197
 2134TIP3    H1 6359   1.141   3.743   5.181
 2134TIP3    H2 6360   1.037   3.840   5.233
 2135TIP3   OH2 6361   7.102   4.697   0.238
 2135TIP3    H1 6362   7.151   4.779   0.244
 2135TIP3    H2 6363   7.011   4.722   0.258
 2136TIP3   OH2 6364   2.133   7.733   3.989
 2136TIP3    H1 6365   2.109   7.705   4.078
 2136TIP3    H2 6366   2.100   7.823   3.983
 2137TIP3   OH2 6367   6.695   5.812   1.431
 2137TIP3    H1 6368   6.646   5.802   1.349
 2137TIP3    H2 6369   6.642   5.766   1.496
 2138TIP3   OH2 6370   0.033   7.715   4.134
 2138TIP3    H1 6371   0.077   7.631   4.121
 2138TIP3    H2 6372  -0.035   7.698   4.198
 2139TIP3   OH2 6373   5.326   4.752   1.190
 2139TIP3    H1 6374   5.262   4.777   1.123
 2139TIP3    H2 6375   5.305   4.806   1.266
 2140TIP3   OH2 6376   2.654   5.235   3.675
 2140TIP3    H1 6377   2.652   5.241   3.770
 2140TIP3    H2 6378   2.698   5.152   3.656
 2141TIP3   OH2 6379   0.335   0.895   4.779
 2141TIP3    H1 6380   0.289   0.964   4.733
 2141TIP3    H2 6381   0.292   0.888   4.864
 2142TIP3   OH2 6382   1.601   2.636   6.352
 2142TIP3    H1 6383   1.684   2.683   6.360
 2142TIP3    H2 6384   1.585   2.634   6.258
 2143TIP3   OH2 6385   5.684   6.334   6.308
 2143TIP3    H1 6386   5.591   6.317   6.322
 2143TIP3    H2 6387   5.703   6.410   6.364
 2144TIP3   OH2 6388   7.593   1.965   1.165
 2144TIP3    H1 6389   7.587   2.043   1.110
 2144TIP3    H2 6390   7.685   1.963   1.192
 2145TIP3   OH2 6391   7.198   3.065   0.757
 2145TIP3    H1 6392   7.148   3.144   0.736
 2145TIP3    H2 6393   7.202   3.016   0.675
 2146TIP3   OH2 6394   2.105   2.257   5.718
 2146TIP3    H1 6395   2.067   2.180   5.759
 2146TIP3    H2 6396   2.030   2.309   5.688
 2147TIP3   OH2 6397   6.742   5.837   6.538
 2147TIP3    H1 6398   6.752   5.904   6.471
 2147TIP3    H2 6399   6.756   5.754   6.491
 2148TIP3   OH2 6400   1.931   6.956   4.422
 2148TIP3    H1 6401   1.870   7.018   4.461
 2148TIP3    H2 6402   1.948   6.990   4.335
 2149TIP3   OH2 6403   2.349   4.753   3.763
 2149TIP3    H1 6404   2.358   4.785   3.673
 2149TIP3    H2 6405   2.335   4.832   3.815
 2150TIP3   OH2 6406   3.196   4.040   6.097
 2150TIP3    H1 6407   3.238   4.044   6.011
 2150TIP3    H2 6408   3.202   3.948   6.122
 2151TIP3   OH2 6409   8.044   1.019   4.854
 2151TIP3    H1 6410   8.104   0.989   4.923
 2151TIP3    H2 6411   7.980   0.949   4.845
 2152TIP3   OH2 6412   2.954   2.129   6.771
 2152TIP3    H1 6413   2.996   2.164   6.850
 2152TIP3    H2 6414   3.014   2.062   6.739
 2153TIP3   OH2 6415   5.367   6.556   2.828
 2153TIP3    H1 6416   5.309   6.480   2.841
 2153TIP3    H2 6417   5.422   6.532   2.754
 2154TIP3   OH2 6418   4.718   3.197   1.838
 2154TIP3    H1 6419   4.717   3.263   1.907
 2154TIP3    H2 6420   4.766   3.123   1.875
 2155TIP3   OH2 6421   0.760   2.000   0.423
 2155TIP3    H1 6422   0.821   2.034   0.358
 2155TIP3    H2 6423   0.674   2.016   0.386
 2156TIP3   OH2 6424   2.442   7.401   5.100
 2156TIP3    H1 6425   2.473   7.440   5.182
 2156TIP3    H2 6426   2.396   7.473   5.056
 2157TIP3   OH2 6427   5.863   4.481   3.451
 2157TIP3    H1 6428   5.916   4.560   3.452
 2157TIP3    H2 6429   5.821   4.481   3.364
 2158TIP3   OH2 6430   1.261   1.269   6.041
 2158TIP3    H1 6431   1.269   1.326   6.118
 2158TIP3    H2 6432   1.324   1.198   6.058
 2159TIP3   OH2 6433   7.883   7.011   3.020
 2159TIP3    H1 6434   7.946   7.083   3.025
 2159TIP3    H2 6435   7.857   7.010   2.927
 2160TIP3   OH2 6436   2.518   2.349   1.276
 2160TIP3    H1 6437   2.521   2.268   1.224
 2160TIP3    H2 6438   2.577   2.333   1.350
 2161TIP3   OH2 6439   7.732   0.100   4.306
 2161TIP3    H1 6440   7.671   0.037   4.343
 2161TIP3    H2 6441   7.811   0.093   4.361
 2162TIP3   OH2 6442   1.083   1.259   4.018
 2162TIP3    H1 6443   1.046   1.337   4.058
 2162TIP3    H2 6444   1.017   1.230   3.955
 2163TIP3   OH2 6445   2.580   5.216   1.319
 2163TIP3    H1 6446   2.545   5.245   1.235
 2163TIP3    H2 6447   2.601   5.123   1.305
 2164TIP3   OH2 6448   7.592   7.501   5.029
 2164TIP3    H1 6449   7.562   7.492   4.939
 2164TIP3    H2 6450   7.646   7.580   5.029
 2165TIP3   OH2 6451   0.590   5.077   1.900
 2165TIP3    H1 6452   0.616   5.142   1.966
 2165TIP3    H2 6453   0.513   5.116   1.858
 2166TIP3   OH2 6454   7.121   1.430   6.223
 2166TIP3    H1 6455   7.080   1.419   6.309
 2166TIP3    H2 6456   7.215   1.428   6.241
 2167TIP3   OH2 6457   0.221   2.854   1.783
 2167TIP3    H1 6458   0.221   2.759   1.799
 2167TIP3    H2 6459   0.259   2.863   1.696
 2168TIP3   OH2 6460   7.366   7.417   4.118
 2168TIP3    H1 6461   7.380   7.485   4.184
 2168TIP3    H2 6462   7.393   7.458   4.036
 2169TIP3   OH2 6463   3.414   0.921   5.131
 2169TIP3    H1 6464   3.466   0.974   5.072
 2169TIP3    H2 6465   3.413   0.970   5.213
 2170TIP3   OH2 6466   3.518   1.308   1.719
 2170TIP3    H1 6467   3.459   1.252   1.669
 2170TIP3    H2 6468   3.602   1.301   1.673
 2171TIP3   OH2 6469   7.223   3.916   6.092
 2171TIP3    H1 6470   7.155   3.981   6.110
 2171TIP3    H2 6471   7.305   3.959   6.116
 2172TIP3   OH2 6472   5.898   3.309   0.346
 2172TIP3    H1 6473   5.859   3.223   0.361
 2172TIP3    H2 6474   5.976   3.290   0.294
 2173TIP3   OH2 6475   6.006   4.841   3.256
 2173TIP3    H1 6476   5.948   4.902   3.301
 2173TIP3    H2 6477   6.010   4.872   3.166
 2174TIP3   OH2 6478   6.270   0.574   1.357
 2174TIP3    H1 6479   6.260   0.653   1.304
 2174TIP3    H2 6480   6.286   0.606   1.446
 2175TIP3   OH2 6481   7.339   5.088   2.103
 2175TIP3    H1 6482   7.273   5.046   2.158
 2175TIP3    H2 6483   7.398   5.017   2.077
 2176TIP3   OH2 6484   4.783   3.175   0.476
 2176TIP3    H1 6485   4.733   3.201   0.553
 2176TIP3    H2 6486   4.717   3.146   0.413
 2177TIP3   OH2 6487   3.396   6.974   0.536
 2177TIP3    H1 6488   3.308   6.937   0.540
 2177TIP3    H2 6489   3.453   6.902   0.563
 2178TIP3   OH2 6490   2.530   3.055   3.313
 2178TIP3    H1 6491   2.545   2.989   3.380
 2178TIP3    H2 6492   2.559   3.014   3.231
 2179TIP3   OH2 6493   7.498   5.624   4.520
 2179TIP3    H1 6494   7.560   5.554   4.498
 2179TIP3    H2 6495   7.421   5.579   4.552
 2180TIP3   OH2 6496   0.989   2.540   3.819
 2180TIP3    H1 6497   1.008   2.620   3.771
 2180TIP3    H2 6498   0.983   2.472   3.752
 2181TIP3   OH2 6499   0.276   3.468   6.169
 2181TIP3    H1 6500   0.202   3.433   6.120
 2181TIP3    H2 6501   0.270   3.563   6.157
 2182TIP3   OH2 6502   1.031   4.660   1.206
 2182TIP3    H1 6503   0.959   4.665   1.269
 2182TIP3    H2 6504   1.022   4.739   1.153
 2183TIP3   OH2 6505   1.359   6.321   4.884
 2183TIP3    H1 6506   1.278   6.318   4.832
 2183TIP3    H2 6507   1.360   6.238   4.930
 2184TIP3   OH2 6508   2.745   7.149   6.750
 2184TIP3    H1 6509   2.719   7.133   6.659
 2184TIP3    H2 6510   2.769   7.242   6.752
 2185TIP3   OH2 6511   7.054   0.636   5.511
 2185TIP3    H1 6512   7.019   0.681   5.589
 2185TIP3    H2 6513   7.031   0.544   5.524
 2186TIP3   OH2 6514   0.207   0.991   3.907
 2186TIP3    H1 6515   0.236   1.062   3.849
 2186TIP3    H2 6516   0.191   0.917   3.849
 2187TIP3   OH2 6517   3.525   0.766   6.648
 2187TIP3    H1 6518   3.608   0.726   6.621
 2187TIP3    H2 6519   3.502   0.719   6.728
 2188TIP3   OH2 6520   1.939   7.464   5.443
 2188TIP3    H1 6521   1.968   7.453   5.534
 2188TIP3    H2 6522   1.869   7.530   5.449
 2189TIP3   OH2 6523   3.749   5.556   1.283
 2189TIP3    H1 6524   3.822   5.570   1.223
 2189TIP3    H2 6525   3.764   5.467   1.317
 2190TIP3   OH2 6526   8.155   4.207   2.787
 2190TIP3    H1 6527   8.060   4.215   2.795
 2190TIP3    H2 6528   8.174   4.238   2.698
 2191TIP3   OH2 6529   6.414   0.126   6.231
 2191TIP3    H1 6530   6.405   0.072   6.153
 2191TIP3    H2 6531   6.509   0.130   6.246
 2192TIP3   OH2 6532   0.515   1.991   2.618
 2192TIP3    H1 6533   0.502   2.034   2.702
 2192TIP3    H2 6534   0.434   2.009   2.569
 2193TIP3   OH2 6535   6.278   1.379   4.555
 2193TIP3    H1 6536   6.213   1.323   4.512
 2193TIP3    H2 6537   6.277   1.351   4.646
 2194TIP3   OH2 6538   6.954   0.404   5.687
 2194TIP3    H1 6539   6.942   0.377   5.778
 2194TIP3    H2 6540   6.865   0.416   5.654
 2195TIP3   OH2 6541   6.330   0.904   4.323
 2195TIP3    H1 6542   6.369   0.906   4.236
 2195TIP3    H2 6543   6.312   0.812   4.340
 2196TIP3   OH2 6544   2.370   1.432   4.143
 2196TIP3    H1 6545   2.322   1.427   4.226
 2196TIP3    H2 6546   2.402   1.522   4.140
 2197TIP3   OH2 6547   0.005   5.504   4.610
 2197TIP3    H1 6548   0.058   5.465   4.540
 2197TIP3    H2 6549  -0.032   5.583   4.571
 2198TIP3   OH2 6550   2.756   4.612   2.772
 2198TIP3    H1 6551   2.762   4.607   2.867
 2198TIP3    H2 6552   2.823   4.550   2.741
 2199TIP3   OH2 6553   6.684   5.433   5.546
 2199TIP3    H1 6554   6.715   5.495   5.612
 2199TIP3    H2 6555   6.676   5.350   5.594
 2200TIP3   OH2 6556   6.323   1.820   6.118
 2200TIP3    H1 6557   6.313   1.891   6.055
 2200TIP3    H2 6558   6.417   1.800   6.117
 2201TIP3   OH2 6559   6.170   3.072   5.953
 2201TIP3    H1 6560   6.218   3.107   5.878
 2201TIP3    H2 6561   6.102   3.017   5.914
 2202TIP3   OH2 6562   2.525   2.119   3.553
 2202TIP3    H1 6563   2.583   2.194   3.551
 2202TIP3    H2 6564   2.473   2.130   3.633
 2203TIP3   OH2 6565   0.705   2.749   2.473
 2203TIP3    H1 6566   0.680   2.662   2.503
 2203TIP3    H2 6567   0.628   2.803   2.490
 2204TIP3   OH2 6568   0.954   3.901   1.895
 2204TIP3    H1 6569   1.043   3.866   1.908
 2204TIP3    H2 6570   0.896   3.827   1.915
 2205TIP3   OH2 6571   1.952   3.390   4.307
 2205TIP3    H1 6572   1.901   3.410   4.386
 2205TIP3    H2 6573   1.892   3.337   4.254
 2206TIP3   OH2 6574   6.181   4.927   6.367
 2206TIP3    H1 6575   6.260   4.872   6.373
 2206TIP3    H2 6576   6.208   5.002   6.314
 2207TIP3   OH2 6577   7.355   2.016   1.287
 2207TIP3    H1 6578   7.356   1.961   1.365
 2207TIP3    H2 6579   7.441   2.002   1.246
 2208TIP3   OH2 6580   0.782   1.143   0.176
 2208TIP3    H1 6581   0.774   1.198   0.254
 2208TIP3    H2 6582   0.694   1.105   0.165
 2209TIP3   OH2 6583   0.198   7.213   5.975
 2209TIP3    H1 6584   0.157   7.200   5.890
 2209TIP3    H2 6585   0.282   7.167   5.969
 2210TIP3   OH2 6586   0.908   1.398   3.546
 2210TIP3    H1 6587   0.879   1.455   3.474
 2210TIP3    H2 6588   0.830   1.386   3.600
 2211TIP3   OH2 6589   3.571   7.344   5.799
 2211TIP3    H1 6590   3.622   7.267   5.823
 2211TIP3    H2 6591   3.482   7.325   5.831
 2212TIP3   OH2 6592   0.594   4.354   0.855
 2212TIP3    H1 6593   0.634   4.396   0.779
 2212TIP3    H2 6594   0.652   4.282   0.877
 2213TIP3   OH2 6595   6.285   0.667   4.024
 2213TIP3    H1 6596   6.292   0.660   4.119
 2213TIP3    H2 6597   6.307   0.580   3.992
 2214TIP3   OH2 6598   1.659   1.775   4.096
 2214TIP3    H1 6599   1.603   1.728   4.034
 2214TIP3    H2 6600   1.627   1.865   4.093
 2215TIP3   OH2 6601   0.213   4.840   0.464
 2215TIP3    H1 6602   0.207   4.896   0.387
 2215TIP3    H2 6603   0.130   4.794   0.468
 2216TIP3   OH2 6604   4.800   7.436   4.550
 2216TIP3    H1 6605   4.733   7.483   4.500
 2216TIP3    H2 6606   4.875   7.496   4.552
 2217TIP3   OH2 6607   5.422   1.265   3.903
 2217TIP3    H1 6608   5.490   1.304   3.848
 2217TIP3    H2 6609   5.341   1.283   3.857
 2218TIP3   OH2 6610   0.184   2.639   6.514
 2218TIP3    H1 6611   0.208   2.562   6.462
 2218TIP3    H2 6612   0.102   2.616   6.556
 2219TIP3   OH2 6613   0.505   0.359   1.910
 2219TIP3    H1 6614   0.480   0.426   1.847
 2219TIP3    H2 6615   0.535   0.286   1.856
 2220TIP3   OH2 6616   5.647   1.482   5.812
 2220TIP3    H1 6617   5.621   1.553   5.872
 2220TIP3    H2 6618   5.635   1.402   5.863
 2221TIP3   OH2 6619   0.470   5.322   0.926
 2221TIP3    H1 6620   0.422   5.393   0.968
 2221TIP3    H2 6621   0.553   5.361   0.900
 2222TIP3   OH2 6622   5.353   2.853   4.642
 2222TIP3    H1 6623   5.318   2.893   4.722
 2222TIP3    H2 6624   5.423   2.912   4.615
 2223TIP3   OH2 6625   7.204   2.336   2.189
 2223TIP3    H1 6626   7.279   2.395   2.186
 2223TIP3    H2 6627   7.135   2.386   2.233
 2224TIP3   OH2 6628   7.452   5.696   2.445
 2224TIP3    H1 6629   7.506   5.739   2.511
 2224TIP3    H2 6630   7.503   5.619   2.419
 2225TIP3   OH2 6631   0.526   1.832   1.881
 2225TIP3    H1 6632   0.489   1.837   1.793
 2225TIP3    H2 6633   0.456   1.866   1.938
 2226TIP3   OH2 6634   6.302   0.925   1.765
 2226TIP3    H1 6635   6.366   0.954   1.701
 2226TIP3    H2 6636   6.301   0.993   1.832
 2227TIP3   OH2 6637   6.697   2.633   1.448
 2227TIP3    H1 6638   6.677   2.634   1.541
 2227TIP3    H2 6639   6.771   2.573   1.439
 2228TIP3   OH2 6640   4.105   1.350   3.254
 2228TIP3    H1 6641   4.088   1.285   3.186
 2228TIP3    H2 6642   4.199   1.367   3.248
 2229TIP3   OH2 6643   7.344   2.380   5.154
 2229TIP3    H1 6644   7.278   2.314   5.132
 2229TIP3    H2 6645   7.425   2.345   5.117
 2230TIP3   OH2 6646   0.078   1.509   2.088
 2230TIP3    H1 6647  -0.015   1.501   2.108
 2230TIP3    H2 6648   0.121   1.447   2.145
 2231TIP3   OH2 6649   0.972   0.729   0.179
 2231TIP3    H1 6650   0.951   0.780   0.102
 2231TIP3    H2 6651   1.066   0.742   0.192
 2232TIP3   OH2 6652   1.309   1.185   4.764
 2232TIP3    H1 6653   1.264   1.267   4.745
 2232TIP3    H2 6654   1.402   1.206   4.757
 2233TIP3   OH2 6655   0.236   0.980   3.083
 2233TIP3    H1 6656   0.291   1.012   3.011
 2233TIP3    H2 6657   0.279   0.899   3.112
 2234TIP3   OH2 6658   7.292   7.298   2.309
 2234TIP3    H1 6659   7.308   7.322   2.400
 2234TIP3    H2 6660   7.197   7.312   2.297
 2235TIP3   OH2 6661   5.821   7.331   5.733
 2235TIP3    H1 6662   5.886   7.309   5.799
 2235TIP3    H2 6663   5.825   7.427   5.726
 2236TIP3   OH2 6664   2.472   6.274   1.079
 2236TIP3    H1 6665   2.393   6.246   1.125
 2236TIP3    H2 6666   2.451   6.361   1.047
 2237TIP3   OH2 6667   0.494   0.502   2.636
 2237TIP3    H1 6668   0.514   0.516   2.544
 2237TIP3    H2 6669   0.408   0.460   2.636
 2238TIP3   OH2 6670   7.033   7.475   1.882
 2238TIP3    H1 6671   6.964   7.491   1.947
 2238TIP3    H2 6672   7.083   7.557   1.881
 2239TIP3   OH2 6673   3.194   6.248   0.998
 2239TIP3    H1 6674   3.275   6.294   1.021
 2239TIP3    H2 6675   3.211   6.213   0.911
 2240TIP3   OH2 6676   2.640   5.994   4.973
 2240TIP3    H1 6677   2.613   5.982   4.882
 2240TIP3    H2 6678   2.587   6.067   5.004
 2241TIP3   OH2 6679   1.111   0.372   1.020
 2241TIP3    H1 6680   1.138   0.377   0.928
 2241TIP3    H2 6681   1.063   0.289   1.026
 2242TIP3   OH2 6682   5.515   1.997   4.765
 2242TIP3    H1 6683   5.522   2.085   4.801
 2242TIP3    H2 6684   5.562   1.942   4.827
 2243TIP3   OH2 6685   7.032   4.803   2.866
 2243TIP3    H1 6686   7.042   4.884   2.815
 2243TIP3    H2 6687   6.963   4.754   2.821
 2244TIP3   OH2 6688   0.641   1.733   2.621
 2244TIP3    H1 6689   0.580   1.706   2.689
 2244TIP3    H2 6690   0.619   1.825   2.603
 2245TIP3   OH2 6691   5.365   3.192   4.772
 2245TIP3    H1 6692   5.400   3.259   4.831
 2245TIP3    H2 6693   5.437   3.174   4.711
 2246TIP3   OH2 6694   3.944   4.730   0.779
 2246TIP3    H1 6695   4.035   4.709   0.758
 2246TIP3    H2 6696   3.943   4.746   0.873
 2247TIP3   OH2 6697   5.034   0.832   0.952
 2247TIP3    H1 6698   5.101   0.781   0.907
 2247TIP3    H2 6699   4.974   0.859   0.882
 2248TIP3   OH2 6700   1.027   3.774   3.267
 2248TIP3    H1 6701   1.068   3.846   3.220
 2248TIP3    H2 6702   1.011   3.707   3.200
 2249TIP3   OH2 6703   4.844   6.254   5.757
 2249TIP3    H1 6704   4.799   6.171   5.774
 2249TIP3    H2 6705   4.937   6.231   5.756
 2250TIP3   OH2 6706   5.302   7.301   0.048
 2250TIP3    H1 6707   5.292   7.397   0.049
 2250TIP3    H2 6708   5.353   7.283  -0.031
 2251TIP3   OH2 6709   8.191   5.269   5.805
 2251TIP3    H1 6710   8.275   5.309   5.827
 2251TIP3    H2 6711   8.190   5.266   5.709
 2252TIP3   OH2 6712   6.623   4.110   3.444
 2252TIP3    H1 6713   6.539   4.070   3.421
 2252TIP3    H2 6714   6.621   4.117   3.540
 2253TIP3   OH2 6715   6.322   0.032   5.176
 2253TIP3    H1 6716   6.369  -0.048   5.197
 2253TIP3    H2 6717   6.234   0.018   5.211
 2254TIP3   OH2 6718   4.947   2.939   6.712
 2254TIP3    H1 6719   5.005   2.903   6.645
 2254TIP3    H2 6720   4.860   2.937   6.671
 2255TIP3   OH2 6721   6.680   2.957   2.794
 2255TIP3    H1 6722   6.610   2.893   2.785
 2255TIP3    H2 6723   6.761   2.905   2.791
 2256TIP3   OH2 6724   7.341   0.512   5.645
 2256TIP3    H1 6725   7.280   0.583   5.626
 2256TIP3    H2 6726   7.365   0.478   5.560
 2257TIP3   OH2 6727   1.578   1.613   1.542
 2257TIP3    H1 6728   1.571   1.517   1.539
 2257TIP3    H2 6729   1.632   1.635   1.467
 2258TIP3   OH2 6730   8.067   5.048   0.736
 2258TIP3    H1 6731   8.163   5.048   0.745
 2258TIP3    H2 6732   8.042   5.139   0.752
 2259TIP3   OH2 6733   6.052   3.992   6.644
 2259TIP3    H1 6734   6.025   3.916   6.696
 2259TIP3    H2 6735   6.045   3.964   6.553
 2260TIP3   OH2 6736   7.085   2.446   0.890
 2260TIP3    H1 6737   7.068   2.536   0.919
 2260TIP3    H2 6738   7.000   2.413   0.863
 2261TIP3   OH2 6739   8.124   2.602   3.363
 2261TIP3    H1 6740   8.040   2.648   3.370
 2261TIP3    H2 6741   8.118   2.531   3.427
 2262TIP3   OH2 6742   7.759   0.239   2.496
 2262TIP3    H1 6743   7.671   0.272   2.514
 2262TIP3    H2 6744   7.750   0.144   2.502
 2263TIP3   OH2 6745   5.663   4.684   5.856
 2263TIP3    H1 6746   5.574   4.719   5.854
 2263TIP3    H2 6747   5.716   4.750   5.811
 2264TIP3   OH2 6748   4.904   6.911   2.313
 2264TIP3    H1 6749   4.905   6.958   2.229
 2264TIP3    H2 6750   4.835   6.845   2.302
 2265TIP3   OH2 6751   5.459   6.181   2.901
 2265TIP3    H1 6752   5.524   6.234   2.856
 2265TIP3    H2 6753   5.393   6.162   2.835
 2266TIP3   OH2 6754   0.904   4.834   4.202
 2266TIP3    H1 6755   0.966   4.904   4.182
 2266TIP3    H2 6756   0.845   4.832   4.126
 2267TIP3   OH2 6757   2.789   0.391   0.163
 2267TIP3    H1 6758   2.884   0.389   0.151
 2267TIP3    H2 6759   2.758   0.456   0.100
 2268TIP3   OH2 6760   1.326  -0.002   3.571
 2268TIP3    H1 6761   1.283   0.081   3.552
 2268TIP3    H2 6762   1.416   0.011   3.541
 2269TIP3   OH2 6763   3.806   0.187   2.238
 2269TIP3    H1 6764   3.849   0.118   2.288
 2269TIP3    H2 6765   3.753   0.233   2.303
 2270TIP3   OH2 6766   7.955   4.522   5.159
 2270TIP3    H1 6767   7.959   4.506   5.065
 2270TIP3    H2 6768   7.908   4.606   5.167
 2271TIP3   OH2 6769   0.632   1.237   2.660
 2271TIP3    H1 6770   0.723   1.257   2.680
 2271TIP3    H2 6771   0.617   1.276   2.574
 2272TIP3   OH2 6772   6.877   0.450   1.530
 2272TIP3    H1 6773   6.912   0.381   1.587
 2272TIP3    H2 6774   6.943   0.460   1.461
 2273TIP3   OH2 6775   3.187   6.646   2.338
 2273TIP3    H1 6776   3.110   6.684   2.297
 2273TIP3    H2 6777   3.246   6.627   2.265
 2274TIP3   OH2 6778   3.681   6.150   5.584
 2274TIP3    H1 6779   3.632   6.118   5.508
 2274TIP3    H2 6780   3.663   6.086   5.653
 2275TIP3   OH2 6781   4.372   1.371   3.209
 2275TIP3    H1 6782   4.389   1.409   3.123
 2275TIP3    H2 6783   4.452   1.323   3.231
 2276TIP3   OH2 6784   2.544   0.036   1.566
 2276TIP3    H1 6785   2.596   0.089   1.627
 2276TIP3    H2 6786   2.528  -0.045   1.614
 2277TIP3   OH2 6787   0.108   5.809   1.464
 2277TIP3    H1 6788   0.118   5.746   1.393
 2277TIP3    H2 6789   0.128   5.893   1.424
 2278TIP3   OH2 6790   4.016   2.368   1.519
 2278TIP3    H1 6791   4.091   2.348   1.575
 2278TIP3    H2 6792   4.009   2.464   1.521
 2279TIP3   OH2 6793   0.476   5.763   6.364
 2279TIP3    H1 6794   0.384   5.766   6.341
 2279TIP3    H2 6795   0.485   5.823   6.438
 2280TIP3   OH2 6796   1.788   4.589   5.774
 2280TIP3    H1 6797   1.756   4.589   5.865
 2280TIP3    H2 6798   1.878   4.556   5.781
 2281TIP3   OH2 6799   6.574   6.294   5.172
 2281TIP3    H1 6800   6.612   6.379   5.151
 2281TIP3    H2 6801   6.534   6.264   5.090
 2282TIP3   OH2 6802   2.996   5.235   3.821
 2282TIP3    H1 6803   3.075   5.216   3.872
 2282TIP3    H2 6804   3.005   5.327   3.796
 2283TIP3   OH2 6805   7.437   2.222   1.011
 2283TIP3    H1 6806   7.381   2.166   0.958
 2283TIP3    H2 6807   7.377   2.270   1.067
 2284TIP3   OH2 6808   0.030   7.048   5.045
 2284TIP3    H1 6809   0.060   6.958   5.029
 2284TIP3    H2 6810   0.012   7.083   4.958
 2285TIP3   OH2 6811   5.476   3.868   4.776
 2285TIP3    H1 6812   5.384   3.895   4.777
 2285TIP3    H2 6813   5.516   3.917   4.848
 2286TIP3   OH2 6814   3.875   2.486   5.577
 2286TIP3    H1 6815   3.925   2.538   5.514
 2286TIP3    H2 6816   3.876   2.538   5.657
 2287TIP3   OH2 6817   1.215   2.216   5.594
 2287TIP3    H1 6818   1.293   2.161   5.608
 2287TIP3    H2 6819   1.204   2.217   5.499
 2288TIP3   OH2 6820   5.467   2.938   2.623
 2288TIP3    H1 6821   5.478   2.971   2.534
 2288TIP3    H2 6822   5.547   2.889   2.641
 2289TIP3   OH2 6823   1.367   2.172   4.609
 2289TIP3    H1 6824   1.408   2.169   4.523
 2289TIP3    H2 6825   1.311   2.094   4.612
 2290TIP3   OH2 6826   6.618   2.358   6.380
 2290TIP3    H1 6827   6.542   2.301   6.388
 2290TIP3    H2 6828   6.623   2.379   6.287
 2291TIP3   OH2 6829   6.986   3.127   2.911
 2291TIP3    H1 6830   6.910   3.120   2.970
 2291TIP3    H2 6831   6.949   3.155   2.828
 2292TIP3   OH2 6832   6.774   7.801   0.752
 2292TIP3    H1 6833   6.689   7.762   0.770
 2292TIP3    H2 6834   6.822   7.793   0.834
 2293TIP3   OH2 6835   1.366   6.517   3.595
 2293TIP3    H1 6836   1.300   6.501   3.527
 2293TIP3    H2 6837   1.363   6.439   3.651
 2294TIP3   OH2 6838   0.013   7.144   3.214
 2294TIP3    H1 6839   0.000   7.194   3.294
 2294TIP3    H2 6840   0.093   7.179   3.175
 2295TIP3   OH2 6841   2.063   0.605   4.072
 2295TIP3    H1 6842   2.139   0.599   4.129
 2295TIP3    H2 6843   2.037   0.514   4.057
 2296TIP3   OH2 6844   6.634   1.493   5.931
 2296TIP3    H1 6845   6.714   1.473   5.882
 2296TIP3    H2 6846   6.622   1.588   5.921
 2297TIP3   OH2 6847   2.902   6.282   5.442
 2297TIP3    H1 6848   2.971   6.262   5.505
 2297TIP3    H2 6849   2.839   6.212   5.453
 2298TIP3   OH2 6850   4.325   3.060   5.217
 2298TIP3    H1 6851   4.386   3.134   5.210
 2298TIP3    H2 6852   4.381   2.983   5.208
 2299TIP3   OH2 6853   7.827   7.413   0.556
 2299TIP3    H1 6854   7.920   7.434   0.553
 2299TIP3    H2 6855   7.799   7.439   0.644
 2300TIP3   OH2 6856   0.610   6.490   1.074
 2300TIP3    H1 6857   0.640   6.561   1.017
 2300TIP3    H2 6858   0.663   6.499   1.153
 2301TIP3   OH2 6859   6.187   7.324   0.313
 2301TIP3    H1 6860   6.172   7.415   0.286
 2301TIP3    H2 6861   6.117   7.307   0.377
 2302TIP3   OH2 6862   3.575   1.616   4.051
 2302TIP3    H1 6863   3.591   1.539   4.104
 2302TIP3    H2 6864   3.541   1.582   3.968
 2303TIP3   OH2 6865   4.166   4.448   4.988
 2303TIP3    H1 6866   4.117   4.394   4.925
 2303TIP3    H2 6867   4.134   4.419   5.074
 2304TIP3   OH2 6868   3.951   1.982   3.503
 2304TIP3    H1 6869   3.868   2.013   3.466
 2304TIP3    H2 6870   3.926   1.942   3.586
 2305TIP3   OH2 6871   0.372   4.034   6.312
 2305TIP3    H1 6872   0.330   3.949   6.296
 2305TIP3    H2 6873   0.299   4.094   6.329
 2306TIP3   OH2 6874   3.368   5.171   5.545
 2306TIP3    H1 6875   3.274   5.151   5.547
 2306TIP3    H2 6876   3.376   5.238   5.478
 2307TIP3   OH2 6877   5.329   2.567   3.301
 2307TIP3    H1 6878   5.350   2.636   3.239
 2307TIP3    H2 6879   5.408   2.513   3.306
 2308TIP3   OH2 6880   6.469   3.556   4.240
 2308TIP3    H1 6881   6.476   3.603   4.323
 2308TIP3    H2 6882   6.455   3.465   4.265
 2309TIP3   OH2 6883   1.585   2.727   3.428
 2309TIP3    H1 6884   1.662   2.737   3.484
 2309TIP3    H2 6885   1.568   2.633   3.426
 2310TIP3   OH2 6886   2.555   4.170   0.633
 2310TIP3    H1 6887   2.560   4.171   0.729
 2310TIP3    H2 6888   2.545   4.262   0.609
 2311TIP3   OH2 6889   6.522   2.145   6.718
 2311TIP3    H1 6890   6.537   2.053   6.738
 2311TIP3    H2 6891   6.486   2.181   6.799
 2312TIP3   OH2 6892   3.202   5.814   0.323
 2312TIP3    H1 6893   3.223   5.721   0.323
 2312TIP3    H2 6894   3.111   5.819   0.292
 2313TIP3   OH2 6895   5.393   3.412   5.882
 2313TIP3    H1 6896   5.459   3.476   5.907
 2313TIP3    H2 6897   5.430   3.366   5.807
 2314TIP3   OH2 6898   2.469   3.845   6.368
 2314TIP3    H1 6899   2.412   3.859   6.292
 2314TIP3    H2 6900   2.453   3.921   6.423
 2315TIP3   OH2 6901   6.471   7.100   2.753
 2315TIP3    H1 6902   6.512   7.139   2.829
 2315TIP3    H2 6903   6.382   7.135   2.753
 2316TIP3   OH2 6904   7.509   5.788   4.933
 2316TIP3    H1 6905   7.596   5.758   4.909
 2316TIP3    H2 6906   7.470   5.818   4.851
 2317TIP3   OH2 6907   2.898   4.973   5.707
 2317TIP3    H1 6908   2.842   4.989   5.783
 2317TIP3    H2 6909   2.898   4.878   5.697
 2318TIP3   OH2 6910   6.647   7.687   6.636
 2318TIP3    H1 6911   6.699   7.665   6.713
 2318TIP3    H2 6912   6.557   7.666   6.662
 2319TIP3   OH2 6913   7.362   0.567   1.973
 2319TIP3    H1 6914   7.444   0.531   2.006
 2319TIP3    H2 6915   7.383   0.658   1.952
 2320TIP3   OH2 6916   2.193   3.343   6.553
 2320TIP3    H1 6917   2.113   3.388   6.527
 2320TIP3    H2 6918   2.181   3.325   6.647
 2321TIP3   OH2 6919   6.695   7.149   1.572
 2321TIP3    H1 6920   6.746   7.229   1.585
 2321TIP3    H2 6921   6.604   7.179   1.567
 2322TIP3   OH2 6922   5.459   2.558   1.630
 2322TIP3    H1 6923   5.484   2.646   1.657
 2322TIP3    H2 6924   5.460   2.507   1.711
 2323TIP3   OH2 6925   3.636   6.339   4.550
 2323TIP3    H1 6926   3.558   6.307   4.504
 2323TIP3    H2 6927   3.655   6.271   4.615
 2324TIP3   OH2 6928   5.928   1.889   1.090
 2324TIP3    H1 6929   5.987   1.955   1.055
 2324TIP3    H2 6930   5.853   1.939   1.123
 2325TIP3   OH2 6931   2.637   3.623   4.220
 2325TIP3    H1 6932   2.565   3.602   4.280
 2325TIP3    H2 6933   2.639   3.549   4.160
 2326TIP3   OH2 6934   7.525   7.339   1.545
 2326TIP3    H1 6935   7.594   7.319   1.482
 2326TIP3    H2 6936   7.444   7.307   1.504
 2327TIP3   OH2 6937   1.903   0.569   2.792
 2327TIP3    H1 6938   1.932   0.606   2.709
 2327TIP3    H2 6939   1.874   0.481   2.770
 2328TIP3   OH2 6940   1.174   4.307   5.985
 2328TIP3    H1 6941   1.079   4.293   5.980
 2328TIP3    H2 6942   1.184   4.384   6.041
 2329TIP3   OH2 6943   8.131   7.672   1.218
 2329TIP3    H1 6944   8.154   7.726   1.142
 2329TIP3    H2 6945   8.107   7.587   1.182
 2330TIP3   OH2 6946   0.748   1.692   1.939
 2330TIP3    H1 6947   0.726   1.599   1.935
 2330TIP3    H2 6948   0.667   1.737   1.915
 2331TIP3   OH2 6949   6.553   3.499   1.609
 2331TIP3    H1 6950   6.474   3.549   1.629
 2331TIP3    H2 6951   6.549   3.424   1.668
 2332TIP3   OH2 6952   2.243   6.304   0.544
 2332TIP3    H1 6953   2.223   6.315   0.636
 2332TIP3    H2 6954   2.174   6.351   0.498
 2333TIP3   OH2 6955   6.473   5.401   4.777
 2333TIP3    H1 6956   6.567   5.419   4.776
 2333TIP3    H2 6957   6.441   5.446   4.855
 2334TIP3   OH2 6958   4.500   0.795   0.889
 2334TIP3    H1 6959   4.448   0.791   0.809
 2334TIP3    H2 6960   4.513   0.888   0.906
 2335TIP3   OH2 6961   7.936   2.945   2.275
 2335TIP3    H1 6962   7.857   2.923   2.225
 2335TIP3    H2 6963   7.970   3.024   2.234
 2336TIP3   OH2 6964   3.842   0.313   6.346
 2336TIP3    H1 6965   3.885   0.257   6.281
 2336TIP3    H2 6966   3.761   0.341   6.303
 2337TIP3   OH2 6967   1.597   5.479   1.809
 2337TIP3    H1 6968   1.564   5.502   1.896
 2337TIP3    H2 6969   1.521   5.447   1.761
 2338TIP3   OH2 6970   5.815   1.210   6.139
 2338TIP3    H1 6971   5.794   1.271   6.209
 2338TIP3    H2 6972   5.778   1.127   6.167
 2339TIP3   OH2 6973   4.965   7.115   2.776
 2339TIP3    H1 6974   5.026   7.075   2.838
 2339TIP3    H2 6975   5.020   7.173   2.723
 2340TIP3   OH2 6976   5.636   5.923   5.850
 2340TIP3    H1 6977   5.546   5.908   5.877
 2340TIP3    H2 6978   5.668   5.992   5.908
 2341TIP3   OH2 6979   1.297   0.619   1.538
 2341TIP3    H1 6980   1.267   0.634   1.627
 2341TIP3    H2 6981   1.314   0.525   1.533
 2342TIP3   OH2 6982   2.899   2.852   5.500
 2342TIP3    H1 6983   2.843   2.924   5.471
 2342TIP3    H2 6984   2.897   2.789   5.427
 2343TIP3   OH2 6985   6.389   6.078   3.007
 2343TIP3    H1 6986   6.474   6.119   2.989
 2343TIP3    H2 6987   6.340   6.144   3.055
 2344TIP3   OH2 6988   7.735   5.485   4.568
 2344TIP3    H1 6989   7.822   5.445   4.568
 2344TIP3    H2 6990   7.697   5.461   4.652
 2345TIP3   OH2 6991   3.906   3.297   4.950
 2345TIP3    H1 6992   3.951   3.214   4.933
 2345TIP3    H2 6993   3.948   3.359   4.890
 2346TIP3   OH2 6994   6.564   5.997   5.177
 2346TIP3    H1 6995   6.548   6.022   5.268
 2346TIP3    H2 6996   6.563   6.080   5.129
 2347TIP3   OH2 6997   1.200   0.306   0.212
 2347TIP3    H1 6998   1.223   0.281   0.302
 2347TIP3    H2 6999   1.284   0.311   0.166
 2348TIP3   OH2 7000   2.211   0.700   2.261
 2348TIP3    H1 7001   2.140   0.743   2.213
 2348TIP3    H2 7002   2.226   0.618   2.213
 2349TIP3   OH2 7003   2.398   3.607   1.388
 2349TIP3    H1 7004   2.423   3.620   1.479
 2349TIP3    H2 7005   2.398   3.695   1.350
 2350TIP3   OH2 7006   6.570   1.410   3.833
 2350TIP3    H1 7007   6.503   1.344   3.818
 2350TIP3    H2 7008   6.646   1.361   3.866
 2351TIP3   OH2 7009   2.201   5.474   2.879
 2351TIP3    H1 7010   2.124   5.460   2.825
 2351TIP3    H2 7011   2.225   5.387   2.910
 2352TIP3   OH2 7012   1.534   7.313   3.666
 2352TIP3    H1 7013   1.447   7.350   3.685
 2352TIP3    H2 7014   1.594   7.364   3.722
 2353TIP3   OH2 7015   4.841   4.386   3.111
 2353TIP3    H1 7016   4.849   4.311   3.170
 2353TIP3    H2 7017   4.904   4.368   3.041
 2354TIP3   OH2 7018   5.119   3.845   4.516
 2354TIP3    H1 7019   5.072   3.765   4.538
 2354TIP3    H2 7020   5.211   3.818   4.509
 2355TIP3   OH2 7021   3.015   6.480   1.556
 2355TIP3    H1 7022   2.961   6.540   1.607
 2355TIP3    H2 7023   2.954   6.436   1.497
 2356TIP3   OH2 7024   6.027   4.990   2.745
 2356TIP3    H1 7025   6.117   5.018   2.730
 2356TIP3    H2 7026   5.975   5.043   2.684
 2357TIP3   OH2 7027   4.615   7.547   5.278
 2357TIP3    H1 7028   4.542   7.491   5.254
 2357TIP3    H2 7029   4.616   7.616   5.212
 2358TIP3   OH2 7030   1.960   1.530   3.486
 2358TIP3    H1 7031   1.945   1.557   3.396
 2358TIP3    H2 7032   1.942   1.436   3.486
 2359TIP3   OH2 7033   4.356   3.529   0.883
 2359TIP3    H1 7034   4.388   3.598   0.941
 2359TIP3    H2 7035   4.292   3.572   0.827
 2360TIP3   OH2 7036   1.256   6.555   5.007
 2360TIP3    H1 7037   1.271   6.471   4.965
 2360TIP3    H2 7038   1.187   6.538   5.071
 2361TIP3   OH2 7039   3.970   5.166   0.169
 2361TIP3    H1 7040   3.981   5.128   0.082
 2361TIP3    H2 7041   3.926   5.098   0.220
 2362TIP3   OH2 7042   0.620   4.246   4.118
 2362TIP3    H1 7043   0.587   4.273   4.032
 2362TIP3    H2 7044   0.689   4.310   4.138
 2363TIP3   OH2 7045   4.697   1.599   4.855
 2363TIP3    H1 7046   4.670   1.563   4.940
 2363TIP3    H2 7047   4.651   1.545   4.791
 2364TIP3   OH2 7048   2.303   5.798   6.313
 2364TIP3    H1 7049   2.284   5.706   6.295
 2364TIP3    H2 7050   2.375   5.820   6.254
 2365TIP3   OH2 7051   8.132   5.940   1.510
 2365TIP3    H1 7052   8.147   6.000   1.583
 2365TIP3    H2 7053   8.165   5.987   1.434
 2366TIP3   OH2 7054   6.480   1.081   2.777
 2366TIP3    H1 7055   6.501   1.020   2.706
 2366TIP3    H2 7056   6.457   1.026   2.851
 2367TIP3   OH2 7057   3.349   4.813   2.379
 2367TIP3    H1 7058   3.355   4.755   2.455
 2367TIP3    H2 7059   3.410   4.777   2.316
 2368TIP3   OH2 7060   1.420   2.347   1.015
 2368TIP3    H1 7061   1.412   2.418   1.080
 2368TIP3    H2 7062   1.501   2.367   0.969
 2369TIP3   OH2 7063   0.567   3.229   5.691
 2369TIP3    H1 7064   0.564   3.162   5.759
 2369TIP3    H2 7065   0.574   3.180   5.609
 2370TIP3   OH2 7066   6.174   0.449   5.225
 2370TIP3    H1 7067   6.240   0.518   5.233
 2370TIP3    H2 7068   6.207   0.378   5.281
 2371TIP3   OH2 7069   6.055   2.117   6.681
 2371TIP3    H1 7070   5.994   2.140   6.751
 2371TIP3    H2 7071   6.075   2.199   6.637
 2372TIP3   OH2 7072   6.265   3.231   4.715
 2372TIP3    H1 7073   6.302   3.318   4.704
 2372TIP3    H2 7074   6.337   3.171   4.695
 2373TIP3   OH2 7075   6.193   1.206   5.089
 2373TIP3    H1 7076   6.104   1.174   5.103
 2373TIP3    H2 7077   6.198   1.286   5.140
 2374TIP3   OH2 7078   2.798   0.251   5.674
 2374TIP3    H1 7079   2.727   0.259   5.610
 2374TIP3    H2 7080   2.772   0.178   5.730
 2375TIP3   OH2 7081   3.755   6.050   4.585
 2375TIP3    H1 7082   3.776   5.957   4.594
 2375TIP3    H2 7083   3.801   6.091   4.659
 2376TIP3   OH2 7084   1.323   1.122   0.776
 2376TIP3    H1 7085   1.252   1.187   0.780
 2376TIP3    H2 7086   1.401   1.170   0.804
 2377TIP3   OH2 7087   3.717   4.240   0.582
 2377TIP3    H1 7088   3.790   4.230   0.522
 2377TIP3    H2 7089   3.668   4.315   0.549
 2378TIP3   OH2 7090   7.739   2.688   4.878
 2378TIP3    H1 7091   7.683   2.698   4.802
 2378TIP3    H2 7092   7.746   2.776   4.915
 2379TIP3   OH2 7093   0.582   7.106   1.015
 2379TIP3    H1 7094   0.540   7.021   1.005
 2379TIP3    H2 7095   0.671   7.086   1.043
 2380TIP3   OH2 7096   2.188   6.895   4.025
 2380TIP3    H1 7097   2.205   6.963   4.090
 2380TIP3    H2 7098   2.219   6.933   3.943
 2381TIP3   OH2 7099   6.571   2.285   1.327
 2381TIP3    H1 7100   6.504   2.334   1.278
 2381TIP3    H2 7101   6.652   2.302   1.280
 2382TIP3   OH2 7102   6.614   2.846   1.026
 2382TIP3    H1 7103   6.595   2.785   1.098
 2382TIP3    H2 7104   6.549   2.915   1.035
 2383TIP3   OH2 7105   2.703   7.738   5.968
 2383TIP3    H1 7106   2.623   7.694   5.997
 2383TIP3    H2 7107   2.678   7.780   5.885
 2384TIP3   OH2 7108   0.354   4.248   0.059
 2384TIP3    H1 7109   0.374   4.206   0.143
 2384TIP3    H2 7110   0.439   4.277   0.026
 2385TIP3   OH2 7111   7.965   3.801   1.772
 2385TIP3    H1 7112   8.001   3.741   1.837
 2385TIP3    H2 7113   7.876   3.769   1.756
 2386TIP3   OH2 7114   5.301   6.158   2.418
 2386TIP3    H1 7115   5.266   6.236   2.461
 2386TIP3    H2 7116   5.237   6.138   2.350
 2387TIP3   OH2 7117   5.610   1.387   3.268
 2387TIP3    H1 7118   5.651   1.473   3.277
 2387TIP3    H2 7119   5.641   1.337   3.344
 2388TIP3   OH2 7120   7.940   5.150   4.803
 2388TIP3    H1 7121   7.916   5.169   4.894
 2388TIP3    H2 7122   7.915   5.229   4.755
 2389TIP3   OH2 7123   5.998   7.349   3.563
 2389TIP3    H1 7124   5.913   7.369   3.525
 2389TIP3    H2 7125   6.056   7.418   3.531
 2390TIP3   OH2 7126   6.657   0.446   1.889
 2390TIP3    H1 7127   6.700   0.360   1.879
 2390TIP3    H2 7128   6.728   0.504   1.917
 2391TIP3   OH2 7129   5.046   5.300   5.580
 2391TIP3    H1 7130   5.073   5.291   5.489
 2391TIP3    H2 7131   4.950   5.307   5.577
 2392TIP3   OH2 7132   6.668   0.691   5.161
 2392TIP3    H1 7133   6.664   0.778   5.119
 2392TIP3    H2 7134   6.702   0.708   5.249
 2393TIP3   OH2 7135   5.186   5.311   0.620
 2393TIP3    H1 7136   5.139   5.247   0.674
 2393TIP3    H2 7137   5.260   5.262   0.584
 2394TIP3   OH2 7138   1.677   4.444   1.188
 2394TIP3    H1 7139   1.760   4.439   1.140
 2394TIP3    H2 7140   1.636   4.359   1.172
 2395TIP3   OH2 7141   2.366   3.338   0.315
 2395TIP3    H1 7142   2.397   3.316   0.403
 2395TIP3    H2 7143   2.282   3.292   0.308
 2396TIP3   OH2 7144   2.599   0.500   6.181
 2396TIP3    H1 7145   2.658   0.435   6.142
 2396TIP3    H2 7146   2.522   0.499   6.124
 2397TIP3   OH2 7147   7.308   7.760   4.970
 2397TIP3    H1 7148   7.317   7.742   5.064
 2397TIP3    H2 7149   7.220   7.796   4.960
 2398TIP3   OH2 7150   4.151   5.460   5.630
 2398TIP3    H1 7151   4.136   5.373   5.593
 2398TIP3    H2 7152   4.205   5.505   5.565
 2399TIP3   OH2 7153   5.110   2.340   2.430
 2399TIP3    H1 7154   5.188   2.295   2.398
 2399TIP3    H2 7155   5.143   2.400   2.497
 2400TIP3   OH2 7156   2.790   5.600   2.089
 2400TIP3    H1 7157   2.883   5.584   2.074
 2400TIP3    H2 7158   2.757   5.516   2.123
 2401TIP3   OH2 7159   4.682   7.751   6.141
 2401TIP3    H1 7160   4.731   7.777   6.220
 2401TIP3    H2 7161   4.724   7.669   6.113
 2402TIP3   OH2 7162   6.063   5.117   3.977
 2402TIP3    H1 7163   6.124   5.044   3.962
 2402TIP3    H2 7164   6.002   5.111   3.904
 2403TIP3   OH2 7165   7.516   5.129   2.350
 2403TIP3    H1 7166   7.446   5.077   2.310
 2403TIP3    H2 7167   7.493   5.133   2.443
 2404TIP3   OH2 7168   3.545   2.944   6.638
 2404TIP3    H1 7169   3.487   3.004   6.591
 2404TIP3    H2 7170   3.575   2.882   6.572
 2405TIP3   OH2 7171   1.484   2.356   1.951
 2405TIP3    H1 7172   1.476   2.352   2.046
 2405TIP3    H2 7173   1.551   2.291   1.929
 2406TIP3   OH2 7174   3.751   2.717   5.971
 2406TIP3    H1 7175   3.806   2.703   6.048
 2406TIP3    H2 7176   3.684   2.649   5.977
 2407TIP3   OH2 7177   7.845   4.064   5.157
 2407TIP3    H1 7178   7.884   3.989   5.202
 2407TIP3    H2 7179   7.815   4.122   5.227
 2408TIP3   OH2 7180   5.920   6.192   0.525
 2408TIP3    H1 7181   5.921   6.287   0.516
 2408TIP3    H2 7182   6.011   6.165   0.511
 2409TIP3   OH2 7183   7.364   1.008   5.733
 2409TIP3    H1 7184   7.446   1.008   5.683
 2409TIP3    H2 7185   7.295   1.013   5.667
 2410TIP3   OH2 7186   0.790   4.451   4.160
 2410TIP3    H1 7187   0.836   4.461   4.243
 2410TIP3    H2 7188   0.724   4.520   4.159
 2411TIP3   OH2 7189   1.357   4.471   0.831
 2411TIP3    H1 7190   1.322   4.516   0.908
 2411TIP3    H2 7191   1.304   4.392   0.822
 2412TIP3   OH2 7192   7.775   1.719   5.817
 2412TIP3    H1 7193   7.748   1.766   5.738
 2412TIP3    H2 7194   7.718   1.753   5.886
 2413TIP3   OH2 7195   2.882   0.918   0.727
 2413TIP3    H1 7196   2.888   0.978   0.801
 2413TIP3    H2 7197   2.799   0.873   0.739
 2414TIP3   OH2 7198   7.990   6.629   1.166
 2414TIP3    H1 7199   7.970   6.599   1.077
 2414TIP3    H2 7200   8.061   6.571   1.195
 2415TIP3   OH2 7201   1.838   2.761   0.206
 2415TIP3    H1 7202   1.840   2.708   0.286
 2415TIP3    H2 7203   1.789   2.707   0.144
 2416TIP3   OH2 7204   4.242   0.700   5.932
 2416TIP3    H1 7205   4.267   0.790   5.952
 2416TIP3    H2 7206   4.292   0.679   5.853
 2417TIP3   OH2 7207   1.200   7.606   4.187
 2417TIP3    H1 7208   1.288   7.593   4.152
 2417TIP3    H2 7209   1.210   7.677   4.251
 2418TIP3   OH2 7210   4.989   1.320   6.442
 2418TIP3    H1 7211   4.909   1.311   6.391
 2418TIP3    H2 7212   5.054   1.351   6.379
 2419TIP3   OH2 7213   2.092   6.201   3.559
 2419TIP3    H1 7214   2.021   6.258   3.588
 2419TIP3    H2 7215   2.103   6.137   3.630
 2420TIP3   OH2 7216   6.685   2.019   4.885
 2420TIP3    H1 7217   6.728   1.937   4.861
 2420TIP3    H2 7218   6.744   2.058   4.950
 2421TIP3   OH2 7219   1.649   7.628   6.189
 2421TIP3    H1 7220   1.712   7.679   6.139
 2421TIP3    H2 7221   1.697   7.602   6.268
 2422TIP3   OH2 7222   7.227   2.325   0.703
 2422TIP3    H1 7223   7.182   2.395   0.751
 2422TIP3    H2 7224   7.194   2.244   0.743
 2423TIP3   OH2 7225   0.795   3.334   6.325
 2423TIP3    H1 7226   0.764   3.244   6.334
 2423TIP3    H2 7227   0.736   3.385   6.381
 2424TIP3   OH2 7228   1.085   7.475   1.913
 2424TIP3    H1 7229   1.112   7.534   1.983
 2424TIP3    H2 7230   1.029   7.527   1.856
 2425TIP3   OH2 7231   2.116   2.536   1.911
 2425TIP3    H1 7232   2.203   2.502   1.928
 2425TIP3    H2 7233   2.084   2.564   1.997
 2426TIP3   OH2 7234   4.465   1.899   0.781
 2426TIP3    H1 7235   4.482   1.805   0.775
 2426TIP3    H2 7236   4.422   1.911   0.865
 2427TIP3   OH2 7237   5.302   3.545   3.945
 2427TIP3    H1 7238   5.268   3.619   3.996
 2427TIP3    H2 7239   5.383   3.577   3.907
 2428TIP3   OH2 7240   0.834   4.532   6.016
 2428TIP3    H1 7241   0.793   4.523   6.102
 2428TIP3    H2 7242   0.804   4.617   5.984
 2429TIP3   OH2 7243   6.318   2.397   5.193
 2429TIP3    H1 7244   6.310   2.302   5.180
 2429TIP3    H2 7245   6.386   2.424   5.131
 2430TIP3   OH2 7246   3.656   2.974   1.094
 2430TIP3    H1 7247   3.734   2.947   1.142
 2430TIP3    H2 7248   3.662   2.928   1.010
 2431TIP3   OH2 7249   5.514   1.061   4.805
 2431TIP3    H1 7250   5.564   0.982   4.790
 2431TIP3    H2 7251   5.532   1.084   4.897
 2432TIP3   OH2 7252   7.300   1.910   5.633
 2432TIP3    H1 7253   7.360   1.980   5.657
 2432TIP3    H2 7254   7.270   1.933   5.545
 2433TIP3   OH2 7255   0.204   7.630   5.532
 2433TIP3    H1 7256   0.209   7.548   5.581
 2433TIP3    H2 7257   0.295   7.655   5.516
 2434TIP3   OH2 7258   4.807   5.511   1.979
 2434TIP3    H1 7259   4.894   5.492   2.015
 2434TIP3    H2 7260   4.813   5.485   1.887
 2435TIP3   OH2 7261   8.076   1.460   2.968
 2435TIP3    H1 7262   8.165   1.470   2.935
 2435TIP3    H2 7263   8.083   1.389   3.032
 2436TIP3   OH2 7264   2.016   2.728   1.755
 2436TIP3    H1 7265   2.042   2.808   1.801
 2436TIP3    H2 7266   2.030   2.658   1.819
 2437TIP3   OH2 7267   3.046   4.474   0.490
 2437TIP3    H1 7268   3.077   4.537   0.556
 2437TIP3    H2 7269   3.054   4.520   0.407
 2438TIP3   OH2 7270   0.748   5.190   5.208
 2438TIP3    H1 7271   0.718   5.281   5.202
 2438TIP3    H2 7272   0.804   5.189   5.285
 2439TIP3   OH2 7273   4.316   3.103   2.206
 2439TIP3    H1 7274   4.278   3.136   2.125
 2439TIP3    H2 7275   4.407   3.083   2.184
 2440TIP3   OH2 7276   1.401   1.977   6.522
 2440TIP3    H1 7277   1.323   1.979   6.466
 2440TIP3    H2 7278   1.464   1.925   6.474
 2441TIP3   OH2 7279   3.944   6.746   5.736
 2441TIP3    H1 7280   3.989   6.671   5.699
 2441TIP3    H2 7281   3.853   6.737   5.706
 2442TIP3   OH2 7282   0.590   7.169   5.855
 2442TIP3    H1 7283   0.640   7.230   5.908
 2442TIP3    H2 7284   0.655   7.130   5.796
 2443TIP3   OH2 7285   0.369   6.164   0.101
 2443TIP3    H1 7286   0.348   6.255   0.078
 2443TIP3    H2 7287   0.403   6.170   0.190
 2444TIP3   OH2 7288   8.281   0.291   1.498
 2444TIP3    H1 7289   8.203   0.299   1.552
 2444TIP3    H2 7290   8.335   0.226   1.543
 2445TIP3   OH2 7291   5.023   6.048   1.255
 2445TIP3    H1 7292   5.108   6.052   1.299
 2445TIP3    H2 7293   5.042   6.070   1.164
 2446TIP3   OH2 7294   1.020   4.725   1.927
 2446TIP3    H1 7295   1.069   4.661   1.980
 2446TIP3    H2 7296   0.964   4.770   1.990
 2447TIP3   OH2 7297   3.796   4.194   6.699
 2447TIP3    H1 7298   3.837   4.115   6.735
 2447TIP3    H2 7299   3.869   4.252   6.680
 2448TIP3   OH2 7300   1.160   2.285   6.656
 2448TIP3    H1 7301   1.188   2.210   6.604
 2448TIP3    H2 7302   1.086   2.251   6.707
 2449TIP3   OH2 7303   1.198   6.780   6.349
 2449TIP3    H1 7304   1.216   6.870   6.377
 2449TIP3    H2 7305   1.262   6.764   6.279
 2450TIP3   OH2 7306   6.921   1.765   2.387
 2450TIP3    H1 7307   6.832   1.779   2.420
 2450TIP3    H2 7308   6.976   1.825   2.437
 2451TIP3   OH2 7309   8.160   0.106   5.159
 2451TIP3    H1 7310   8.164   0.142   5.248
 2451TIP3    H2 7311   8.178   0.180   5.102
 2452TIP3   OH2 7312   1.556   3.923   5.905
 2452TIP3    H1 7313   1.645   3.887   5.906
 2452TIP3    H2 7314   1.564   4.007   5.951
 2453TIP3   OH2 7315   4.852   4.137   4.762
 2453TIP3    H1 7316   4.853   4.181   4.847
 2453TIP3    H2 7317   4.813   4.052   4.779
 2454TIP3   OH2 7318   3.840   6.207   6.208
 2454TIP3    H1 7319   3.746   6.215   6.221
 2454TIP3    H2 7320   3.862   6.277   6.146
 2455TIP3   OH2 7321   6.494   7.414   2.559
 2455TIP3    H1 7322   6.524   7.328   2.529
 2455TIP3    H2 7323   6.470   7.400   2.651
 2456TIP3   OH2 7324   3.370   0.855   5.791
 2456TIP3    H1 7325   3.404   0.840   5.879
 2456TIP3    H2 7326   3.414   0.935   5.762
 2457TIP3   OH2 7327   4.062   1.870   2.392
 2457TIP3    H1 7328   4.117   1.945   2.368
 2457TIP3    H2 7329   3.999   1.862   2.320
 2458TIP3   OH2 7330   6.618   1.435   2.279
 2458TIP3    H1 7331   6.682   1.440   2.208
 2458TIP3    H2 7332   6.670   1.421   2.358
 2459TIP3   OH2 7333   3.576   6.150   0.857
 2459TIP3    H1 7334   3.667   6.149   0.887
 2459TIP3    H2 7335   3.527   6.189   0.929
 2460TIP3   OH2 7336   7.852   2.900   3.538
 2460TIP3    H1 7337   7.854   2.848   3.457
 2460TIP3    H2 7338   7.801   2.978   3.515
 2461TIP3   OH2 7339   7.320   0.978   3.970
 2461TIP3    H1 7340   7.272   1.055   4.001
 2461TIP3    H2 7341   7.386   1.013   3.910
 2462TIP3   OH2 7342   3.942   1.863   2.160
 2462TIP3    H1 7343   4.021   1.896   2.117
 2462TIP3    H2 7344   3.881   1.937   2.157
 2463TIP3   OH2 7345   6.494   3.313   4.009
 2463TIP3    H1 7346   6.422   3.352   4.058
 2463TIP3    H2 7347   6.545   3.265   4.074
 2464TIP3   OH2 7348   4.292   7.677   3.166
 2464TIP3    H1 7349   4.384   7.698   3.149
 2464TIP3    H2 7350   4.294   7.610   3.234
 2465TIP3   OH2 7351   4.999   1.888   1.102
 2465TIP3    H1 7352   4.970   1.800   1.076
 2465TIP3    H2 7353   5.094   1.886   1.091
 2466TIP3   OH2 7354   0.970   7.631   4.614
 2466TIP3    H1 7355   0.949   7.635   4.521
 2466TIP3    H2 7356   1.059   7.668   4.620
 2467TIP3   OH2 7357   3.900   0.413   5.008
 2467TIP3    H1 7358   3.912   0.352   4.935
 2467TIP3    H2 7359   3.868   0.357   5.080
 2468TIP3   OH2 7360   1.176   0.631   6.766
 2468TIP3    H1 7361   1.119   0.571   6.717
 2468TIP3    H2 7362   1.265   0.601   6.746
 2469TIP3   OH2 7363   0.164   4.982   5.583
 2469TIP3    H1 7364   0.247   5.017   5.552
 2469TIP3    H2 7365   0.180   4.957   5.674
 2470TIP3   OH2 7366   2.320   1.465   1.896
 2470TIP3    H1 7367   2.371   1.535   1.937
 2470TIP3    H2 7368   2.345   1.468   1.804
 2471TIP3   OH2 7369   6.184   7.076   0.205
 2471TIP3    H1 7370   6.108   7.087   0.148
 2471TIP3    H2 7371   6.187   7.157   0.257
 2472TIP3   OH2 7372   5.202   2.228   1.435
 2472TIP3    H1 7373   5.133   2.256   1.495
 2472TIP3    H2 7374   5.232   2.144   1.470
 2473TIP3   OH2 7375   7.115   3.738   0.776
 2473TIP3    H1 7376   7.181   3.753   0.709
 2473TIP3    H2 7377   7.031   3.749   0.730
 2474TIP3   OH2 7378   0.285   1.407   0.537
 2474TIP3    H1 7379   0.209   1.434   0.486
 2474TIP3    H2 7380   0.259   1.422   0.628
 2475TIP3   OH2 7381   6.873   4.570   0.034
 2475TIP3    H1 7382   6.874   4.614  -0.051
 2475TIP3    H2 7383   6.827   4.488   0.017
 2476TIP3   OH2 7384   3.294   6.289   3.280
 2476TIP3    H1 7385   3.254   6.281   3.194
 2476TIP3    H2 7386   3.260   6.214   3.329
 2477TIP3   OH2 7387   2.640   5.226   0.073
 2477TIP3    H1 7388   2.674   5.212  -0.016
 2477TIP3    H2 7389   2.573   5.159   0.084
 2478TIP3   OH2 7390   0.748   0.103   1.237
 2478TIP3    H1 7391   0.714   0.186   1.271
 2478TIP3    H2 7392   0.745   0.043   1.311
 2479TIP3   OH2 7393   5.857   0.942   5.958
 2479TIP3    H1 7394   5.852   0.846   5.967
 2479TIP3    H2 7395   5.787   0.964   5.897
 2480TIP3   OH2 7396   6.413   0.041   2.182
 2480TIP3    H1 7397   6.372  -0.023   2.123
 2480TIP3    H2 7398   6.455   0.104   2.124
 2481TIP3   OH2 7399   2.066   4.481   6.053
 2481TIP3    H1 7400   2.158   4.501   6.064
 2481TIP3    H2 7401   2.020   4.563   6.072
 2482TIP3   OH2 7402   2.711   7.311   6.058
 2482TIP3    H1 7403   2.656   7.339   5.985
 2482TIP3    H2 7404   2.754   7.392   6.088
 2483TIP3   OH2 7405   5.829   5.127   1.979
 2483TIP3    H1 7406   5.881   5.049   1.996
 2483TIP3    H2 7407   5.858   5.190   2.044
 2484TIP3   OH2 7408   3.202   4.334   4.380
 2484TIP3    H1 7409   3.233   4.302   4.296
 2484TIP3    H2 7410   3.134   4.272   4.407
 2485TIP3   OH2 7411   7.528   6.424   0.471
 2485TIP3    H1 7412   7.488   6.454   0.553
 2485TIP3    H2 7413   7.570   6.502   0.435
 2486TIP3   OH2 7414   8.148   4.061   0.720
 2486TIP3    H1 7415   8.152   3.976   0.764
 2486TIP3    H2 7416   8.097   4.044   0.640
 2487TIP3   OH2 7417   5.940   2.381   5.487
 2487TIP3    H1 7418   5.984   2.410   5.567
 2487TIP3    H2 7419   5.861   2.435   5.483
 2488TIP3   OH2 7420   6.727   3.022   6.663
 2488TIP3    H1 7421   6.793   2.953   6.666
 2488TIP3    H2 7422   6.700   3.026   6.571
 2489TIP3   OH2 7423   5.038   0.795   2.750
 2489TIP3    H1 7424   5.072   0.809   2.838
 2489TIP3    H2 7425   5.070   0.869   2.699
 2490TIP3   OH2 7426   5.872   3.045   1.464
 2490TIP3    H1 7427   5.915   2.963   1.489
 2490TIP3    H2 7428   5.942   3.098   1.425
 2491TIP3   OH2 7429   2.624   7.541   3.766
 2491TIP3    H1 7430   2.579   7.462   3.738
 2491TIP3    H2 7431   2.556   7.608   3.768
 2492TIP3   OH2 7432   7.762   7.165   1.170
 2492TIP3    H1 7433   7.747   7.092   1.230
 2492TIP3    H2 7434   7.758   7.125   1.082
 2493TIP3   OH2 7435   3.834   6.942   5.097
 2493TIP3    H1 7436   3.921   6.969   5.068
 2493TIP3    H2 7437   3.790   6.911   5.018
 2494TIP3   OH2 7438   3.591   6.502   0.945
 2494TIP3    H1 7439   3.677   6.486   0.905
 2494TIP3    H2 7440   3.589   6.597   0.960
 2495TIP3   OH2 7441   5.247   7.555   3.558
 2495TIP3    H1 7442   5.333   7.513   3.552
 2495TIP3    H2 7443   5.189   7.497   3.508
 2496TIP3   OH2 7444   6.843   0.859   6.774
 2496TIP3    H1 7445   6.761   0.894   6.741
 2496TIP3    H2 7446   6.820   0.774   6.811
 2497TIP3   OH2 7447   3.240   5.929   5.805
 2497TIP3    H1 7448   3.188   5.921   5.885
 2497TIP3    H2 7449   3.190   5.990   5.751
 2498TIP3   OH2 7450   3.372   5.295   2.312
 2498TIP3    H1 7451   3.418   5.212   2.310
 2498TIP3    H2 7452   3.381   5.325   2.402
 2499TIP3   OH2 7453   0.396   5.846   2.653
 2499TIP3    H1 7454   0.431   5.771   2.605
 2499TIP3    H2 7455   0.473   5.885   2.695
 2500TIP3   OH2 7456   4.016   3.157   3.486
 2500TIP3    H1 7457   4.106   3.190   3.494
 2500TIP3    H2 7458   3.961   3.235   3.491
 2501TIP3   OH2 7459   4.663   5.585   0.106
 2501TIP3    H1 7460   4.611   5.523   0.157
 2501TIP3    H2 7461   4.753   5.555   0.117
 2502TIP3   OH2 7462   6.418   3.773   1.437
 2502TIP3    H1 7463   6.354   3.749   1.504
 2502TIP3    H2 7464   6.497   3.795   1.486
 2503TIP3   OH2 7465   1.473   1.465   0.257
 2503TIP3    H1 7466   1.537   1.411   0.211
 2503TIP3    H2 7467   1.390   1.417   0.249
 2504TIP3   OH2 7468   5.763   5.170   5.813
 2504TIP3    H1 7469   5.720   5.254   5.831
 2504TIP3    H2 7470   5.748   5.118   5.892
 2505TIP3   OH2 7471   7.081   3.942   2.113
 2505TIP3    H1 7472   7.153   4.005   2.119
 2505TIP3    H2 7473   7.011   3.980   2.166
 2506TIP3   OH2 7474   7.832   7.272   1.448
 2506TIP3    H1 7475   7.814   7.180   1.470
 2506TIP3    H2 7476   7.781   7.288   1.369
 2507TIP3   OH2 7477   7.784   6.631   0.126
 2507TIP3    H1 7478   7.861   6.602   0.175
 2507TIP3    H2 7479   7.813   6.710   0.081
 2508TIP3   OH2 7480   6.840   3.732   4.504
 2508TIP3    H1 7481   6.885   3.666   4.556
 2508TIP3    H2 7482   6.879   3.815   4.531
 2509TIP3   OH2 7483   6.316   1.077   2.003
 2509TIP3    H1 7484   6.238   1.119   2.041
 2509TIP3    H2 7485   6.347   1.018   2.071
 2510TIP3   OH2 7486   3.186   4.959   6.214
 2510TIP3    H1 7487   3.256   4.904   6.250
 2510TIP3    H2 7488   3.136   4.901   6.156
 2511TIP3   OH2 7489   1.250   7.238   1.292
 2511TIP3    H1 7490   1.323   7.269   1.345
 2511TIP3    H2 7491   1.291   7.191   1.219
 2512TIP3   OH2 7492   7.776   0.537   3.767
 2512TIP3    H1 7493   7.730   0.613   3.733
 2512TIP3    H2 7494   7.797   0.559   3.858
 2513TIP3   OH2 7495   8.187   7.729   4.977
 2513TIP3    H1 7496   8.094   7.738   4.995
 2513TIP3    H2 7497   8.211   7.810   4.932
 2514TIP3   OH2 7498   2.022   1.244   4.544
 2514TIP3    H1 7499   2.038   1.153   4.569
 2514TIP3    H2 7500   1.938   1.266   4.584
 2515TIP3   OH2 7501   7.899   6.297   2.905
 2515TIP3    H1 7502   7.858   6.306   2.992
 2515TIP3    H2 7503   7.866   6.214   2.872
 2516TIP3   OH2 7504   1.734   6.904   1.808
 2516TIP3    H1 7505   1.793   6.852   1.753
 2516TIP3    H2 7506   1.676   6.947   1.746
 2517TIP3   OH2 7507   3.683   5.466   3.745
 2517TIP3    H1 7508   3.728   5.416   3.812
 2517TIP3    H2 7509   3.753   5.499   3.688
 2518TIP3   OH2 7510   4.918   0.933   6.376
 2518TIP3    H1 7511   4.858   0.865   6.345
 2518TIP3    H2 7512   4.955   0.898   6.457
 2519TIP3   OH2 7513   0.623   5.144   0.595
 2519TIP3    H1 7514   0.716   5.140   0.615
 2519TIP3    H2 7515   0.582   5.089   0.661
 2520TIP3   OH2 7516   0.831   2.508   1.291
 2520TIP3    H1 7517   0.901   2.444   1.307
 2520TIP3    H2 7518   0.782   2.510   1.373
 2521TIP3   OH2 7519   8.218   1.257   5.796
 2521TIP3    H1 7520   8.294   1.222   5.841
 2521TIP3    H2 7521   8.205   1.343   5.835
 2522TIP3   OH2 7522   2.061   2.381   3.890
 2522TIP3    H1 7523   2.088   2.380   3.982
 2522TIP3    H2 7524   2.143   2.390   3.842
 2523TIP3   OH2 7525   4.611   2.548   2.846
 2523TIP3    H1 7526   4.562   2.521   2.923
 2523TIP3    H2 7527   4.550   2.534   2.773
 2524TIP3   OH2 7528   5.586   0.944   0.585
 2524TIP3    H1 7529   5.633   0.986   0.513
 2524TIP3    H2 7530   5.629   0.976   0.664
 2525TIP3   OH2 7531   4.301   3.700   5.530
 2525TIP3    H1 7532   4.212   3.731   5.514
 2525TIP3    H2 7533   4.335   3.680   5.443
 2526TIP3   OH2 7534   8.105   2.090   4.671
 2526TIP3    H1 7535   8.126   2.099   4.764
 2526TIP3    H2 7536   8.117   2.178   4.635
 2527TIP3   OH2 7537   7.566   6.547   5.916
 2527TIP3    H1 7538   7.500   6.554   5.985
 2527TIP3    H2 7539   7.557   6.628   5.866
 2528TIP3   OH2 7540   6.776   1.332   4.821
 2528TIP3    H1 7541   6.858   1.345   4.869
 2528TIP3    H2 7542   6.733   1.259   4.866
 2529TIP3   OH2 7543   6.678   0.180   5.957
 2529TIP3    H1 7544   6.681   0.085   5.949
 2529TIP3    H2 7545   6.692   0.197   6.050
 2530TIP3   OH2 7546   7.616   4.585   4.306
 2530TIP3    H1 7547   7.696   4.552   4.264
 2530TIP3    H2 7548   7.560   4.508   4.316
 2531TIP3   OH2 7549   7.576   2.808   2.849
 2531TIP3    H1 7550   7.613   2.892   2.875
 2531TIP3    H2 7551   7.534   2.774   2.928
 2532TIP3   OH2 7552   1.829   0.937   3.892
 2532TIP3    H1 7553   1.816   1.021   3.848
 2532TIP3    H2 7554   1.778   0.943   3.972
 2533TIP3   OH2 7555   1.937   2.051   4.500
 2533TIP3    H1 7556   1.934   1.957   4.481
 2533TIP3    H2 7557   1.886   2.062   4.580
 2534TIP3   OH2 7558   8.214   4.485   1.053
 2534TIP3    H1 7559   8.133   4.530   1.030
 2534TIP3    H2 7560   8.237   4.520   1.139
 2535TIP3   OH2 7561   6.967   6.897   2.135
 2535TIP3    H1 7562   6.982   6.886   2.041
 2535TIP3    H2 7563   6.904   6.968   2.141
 2536TIP3   OH2 7564   4.459   7.481   0.573
 2536TIP3    H1 7565   4.403   7.502   0.499
 2536TIP3    H2 7566   4.402   7.486   0.649
 2537TIP3   OH2 7567   2.741   7.500   2.217
 2537TIP3    H1 7568   2.736   7.417   2.170
 2537TIP3    H2 7569   2.666   7.550   2.186
 2538TIP3   OH2 7570   1.632   2.758   2.484
 2538TIP3    H1 7571   1.603   2.689   2.543
 2538TIP3    H2 7572   1.550   2.795   2.449
 2539TIP3   OH2 7573   3.374   2.070   6.613
 2539TIP3    H1 7574   3.350   2.043   6.525
 2539TIP3    H2 7575   3.397   1.988   6.658
 2540TIP3   OH2 7576   2.236   4.109   0.849
 2540TIP3    H1 7577   2.212   4.126   0.758
 2540TIP3    H2 7578   2.213   4.189   0.896
 2541TIP3   OH2 7579   1.003   0.186   4.042
 2541TIP3    H1 7580   1.040   0.164   3.957
 2541TIP3    H2 7581   1.064   0.148   4.105
 2542TIP3   OH2 7582   2.657   1.151   2.057
 2542TIP3    H1 7583   2.718   1.145   1.983
 2542TIP3    H2 7584   2.629   1.061   2.072
 2543TIP3   OH2 7585   3.069   3.674   5.518
 2543TIP3    H1 7586   3.054   3.625   5.600
 2543TIP3    H2 7587   3.142   3.627   5.476
 2544TIP3   OH2 7588   3.424   2.122   0.215
 2544TIP3    H1 7589   3.375   2.166   0.284
 2544TIP3    H2 7590   3.398   2.168   0.135
 2545TIP3   OH2 7591   7.075   2.814   2.071
 2545TIP3    H1 7592   6.987   2.807   2.034
 2545TIP3    H2 7593   7.063   2.797   2.165
 2546TIP3   OH2 7594   3.196   5.995   3.220
 2546TIP3    H1 7595   3.261   5.925   3.226
 2546TIP3    H2 7596   3.139   5.981   3.295
 2547TIP3   OH2 7597   6.902   4.394   1.948
 2547TIP3    H1 7598   6.844   4.367   2.020
 2547TIP3    H2 7599   6.855   4.464   1.904
 2548TIP3   OH2 7600   0.364   3.094   1.211
 2548TIP3    H1 7601   0.336   3.073   1.122
 2548TIP3    H2 7602   0.314   3.034   1.267
 2549TIP3   OH2 7603   7.190   5.233   4.472
 2549TIP3    H1 7604   7.102   5.263   4.451
 2549TIP3    H2 7605   7.237   5.237   4.389
 2550TIP3   OH2 7606   6.206   3.768   3.176
 2550TIP3    H1 7607   6.241   3.682   3.200
 2550TIP3    H2 7608   6.262   3.797   3.104
 2551TIP3   OH2 7609   5.955   6.308   1.627
 2551TIP3    H1 7610   6.004   6.274   1.702
 2551TIP3    H2 7611   5.869   6.330   1.662
 2552TIP3   OH2 7612   1.453   1.562   2.303
 2552TIP3    H1 7613   1.397   1.585   2.228
 2552TIP3    H2 7614   1.542   1.569   2.269
 2553TIP3   OH2 7615   7.816   5.294   6.741
 2553TIP3    H1 7616   7.752   5.366   6.739
 2553TIP3    H2 7617   7.900   5.337   6.729
 2554TIP3   OH2 7618   0.670   4.804   1.970
 2554TIP3    H1 7619   0.698   4.776   1.883
 2554TIP3    H2 7620   0.637   4.893   1.957
 2555TIP3   OH2 7621   6.942   1.403   3.450
 2555TIP3    H1 7622   6.855   1.440   3.463
 2555TIP3    H2 7623   6.944   1.325   3.506
 2556TIP3   OH2 7624   1.105   6.010   4.957
 2556TIP3    H1 7625   1.052   6.047   5.027
 2556TIP3    H2 7626   1.110   6.080   4.891
 2557TIP3   OH2 7627   6.451   4.895   4.605
 2557TIP3    H1 7628   6.444   4.810   4.562
 2557TIP3    H2 7629   6.488   4.876   4.691
 2558TIP3   OH2 7630   5.412   6.515   6.040
 2558TIP3    H1 7631   5.367   6.537   5.958
 2558TIP3    H2 7632   5.429   6.599   6.081
 2559TIP3   OH2 7633   1.535   3.804   4.386
 2559TIP3    H1 7634   1.618   3.847   4.364
 2559TIP3    H2 7635   1.468   3.871   4.368
 2560TIP3   OH2 7636   6.196   2.635   3.953
 2560TIP3    H1 7637   6.188   2.637   3.858
 2560TIP3    H2 7638   6.126   2.576   3.982
 2561TIP3   OH2 7639   4.980   0.947   0.043
 2561TIP3    H1 7640   4.965   1.010   0.113
 2561TIP3    H2 7641   5.001   1.000  -0.034
 2562TIP3   OH2 7642   5.537   0.859   6.549
 2562TIP3    H1 7643   5.526   0.766   6.568
 2562TIP3    H2 7644   5.562   0.898   6.633
 2563TIP3   OH2 7645   4.846   7.040   5.583
 2563TIP3    H1 7646   4.763   7.084   5.569
 2563TIP3    H2 7647   4.840   7.004   5.672
 2564TIP3   OH2 7648   7.196   3.128   3.765
 2564TIP3    H1 7649   7.171   3.216   3.735
 2564TIP3    H2 7650   7.161   3.123   3.854
 2565TIP3   OH2 7651   5.914   5.423   5.528
 2565TIP3    H1 7652   5.923   5.418   5.432
 2565TIP3    H2 7653   5.922   5.332   5.557
 2566TIP3   OH2 7654   6.658   7.595   5.637
 2566TIP3    H1 7655   6.640   7.523   5.697
 2566TIP3    H2 7656   6.635   7.560   5.551
 2567TIP3   OH2 7657   6.573   5.308   0.394
 2567TIP3    H1 7658   6.545   5.297   0.304
 2567TIP3    H2 7659   6.491   5.310   0.445
 2568TIP3   OH2 7660   6.063   5.750   4.265
 2568TIP3    H1 7661   6.125   5.792   4.325
 2568TIP3    H2 7662   6.114   5.733   4.185
 2569TIP3   OH2 7663   3.522   4.217   6.617
 2569TIP3    H1 7664   3.612   4.205   6.645
 2569TIP3    H2 7665   3.518   4.179   6.529
 2570TIP3   OH2 7666   8.014   1.114   0.891
 2570TIP3    H1 7667   8.099   1.157   0.880
 2570TIP3    H2 7668   7.953   1.169   0.841
 2571TIP3   OH2 7669   1.522   7.788   4.308
 2571TIP3    H1 7670   1.428   7.798   4.323
 2571TIP3    H2 7671   1.559   7.771   4.395
 2572TIP3   OH2 7672   7.815   2.573   2.154
 2572TIP3    H1 7673   7.783   2.488   2.186
 2572TIP3    H2 7674   7.793   2.573   2.062
 2573TIP3   OH2 7675   7.724   2.996   2.072
 2573TIP3    H1 7676   7.665   2.977   2.000
 2573TIP3    H2 7677   7.790   3.054   2.035
 2574TIP3   OH2 7678   1.554   2.493   1.712
 2574TIP3    H1 7679   1.646   2.516   1.725
 2574TIP3    H2 7680   1.525   2.460   1.797
 2575TIP3   OH2 7681   2.252   2.880   4.087
 2575TIP3    H1 7682   2.328   2.887   4.144
 2575TIP3    H2 7683   2.177   2.887   4.146
 2576TIP3   OH2 7684   6.259   1.391   5.448
 2576TIP3    H1 7685   6.291   1.406   5.537
 2576TIP3    H2 7686   6.329   1.342   5.405
 2577TIP3   OH2 7687   4.319   7.474   0.804
 2577TIP3    H1 7688   4.360   7.465   0.890
 2577TIP3    H2 7689   4.243   7.415   0.807
 2578TIP3   OH2 7690   5.051   6.143   6.445
 2578TIP3    H1 7691   5.077   6.123   6.535
 2578TIP3    H2 7692   5.063   6.238   6.438
 2579TIP3   OH2 7693   0.646   1.538   6.049
 2579TIP3    H1 7694   0.620   1.447   6.061
 2579TIP3    H2 7695   0.741   1.537   6.064
 2580TIP3   OH2 7696   7.629   4.287   4.927
 2580TIP3    H1 7697   7.543   4.278   4.967
 2580TIP3    H2 7698   7.659   4.197   4.914
 2581TIP3   OH2 7699   1.120   5.017   3.180
 2581TIP3    H1 7700   1.048   5.081   3.176
 2581TIP3    H2 7701   1.172   5.035   3.101
 2582TIP3   OH2 7702   6.096   7.326   5.355
 2582TIP3    H1 7703   6.140   7.372   5.283
 2582TIP3    H2 7704   6.159   7.330   5.427
 2583TIP3   OH2 7705   0.394   2.287   5.477
 2583TIP3    H1 7706   0.361   2.363   5.526
 2583TIP3    H2 7707   0.475   2.318   5.437
 2584TIP3   OH2 7708   5.754   1.218   0.676
 2584TIP3    H1 7709   5.776   1.247   0.765
 2584TIP3    H2 7710   5.782   1.126   0.673
 2585TIP3   OH2 7711   7.530   6.834   6.117
 2585TIP3    H1 7712   7.486   6.915   6.142
 2585TIP3    H2 7713   7.460   6.779   6.082
 2586TIP3   OH2 7714   6.666   4.843   5.553
 2586TIP3    H1 7715   6.595   4.905   5.535
 2586TIP3    H2 7716   6.710   4.831   5.469
 2587TIP3   OH2 7717   2.205   6.941   6.751
 2587TIP3    H1 7718   2.196   6.846   6.743
 2587TIP3    H2 7719   2.177   6.961   6.840
 2588TIP3   OH2 7720   5.305   1.627   5.611
 2588TIP3    H1 7721   5.229   1.684   5.617
 2588TIP3    H2 7722   5.286   1.569   5.537
 2589TIP3   OH2 7723   5.576   5.865   2.943
 2589TIP3    H1 7724   5.649   5.840   2.887
 2589TIP3    H2 7725   5.511   5.903   2.883
 2590TIP3   OH2 7726   4.658   3.686   2.689
 2590TIP3    H1 7727   4.682   3.593   2.690
 2590TIP3    H2 7728   4.564   3.687   2.708
 2591TIP3   OH2 7729   2.040   1.138   1.804
 2591TIP3    H1 7730   2.090   1.145   1.885
 2591TIP3    H2 7731   2.103   1.109   1.739
 2592TIP3   OH2 7732   5.104   0.348   6.329
 2592TIP3    H1 7733   5.182   0.391   6.292
 2592TIP3    H2 7734   5.139   0.290   6.396
 2593TIP3   OH2 7735   1.263   3.061   4.338
 2593TIP3    H1 7736   1.316   3.036   4.414
 2593TIP3    H2 7737   1.204   2.987   4.325
 2594TIP3   OH2 7738   8.182   2.370   4.679
 2594TIP3    H1 7739   8.123   2.416   4.738
 2594TIP3    H2 7740   8.266   2.415   4.688
 2595TIP3   OH2 7741   2.990   5.955   3.865
 2595TIP3    H1 7742   3.003   5.921   3.954
 2595TIP3    H2 7743   2.895   5.953   3.852
 2596TIP3   OH2 7744   6.271   6.250   4.252
 2596TIP3    H1 7745   6.185   6.266   4.213
 2596TIP3    H2 7746   6.325   6.324   4.224
 2597TIP3   OH2 7747   8.019   2.816   1.681
 2597TIP3    H1 7748   7.953   2.832   1.748
 2597TIP3    H2 7749   8.102   2.839   1.722
 2598TIP3   OH2 7750   3.994   2.282   3.722
 2598TIP3    H1 7751   4.041   2.222   3.664
 2598TIP3    H2 7752   4.042   2.277   3.805
 2599TIP3   OH2 7753   5.529   0.048   0.875
 2599TIP3    H1 7754   5.511   0.090   0.791
 2599TIP3    H2 7755   5.614   0.083   0.902
 2600TIP3   OH2 7756   1.162   1.550   1.010
 2600TIP3    H1 7757   1.198   1.618   0.953
 2600TIP3    H2 7758   1.069   1.574   1.019
 2601TIP3   OH2 7759   6.936   0.122   6.369
 2601TIP3    H1 7760   6.963   0.213   6.382
 2601TIP3    H2 7761   7.015   0.071   6.385
 2602TIP3   OH2 7762   5.944   6.027   4.290
 2602TIP3    H1 7763   5.973   5.936   4.296
 2602TIP3    H2 7764   5.964   6.053   4.200
 2603TIP3   OH2 7765   5.604   4.082   1.494
 2603TIP3    H1 7766   5.635   4.148   1.556
 2603TIP3    H2 7767   5.661   4.091   1.418
 2604TIP3   OH2 7768   1.972   5.463   5.546
 2604TIP3    H1 7769   2.006   5.442   5.459
 2604TIP3    H2 7770   2.051   5.474   5.600
 2605TIP3   OH2 7771   2.652   1.370   0.924
 2605TIP3    H1 7772   2.649   1.450   0.976
 2605TIP3    H2 7773   2.646   1.401   0.833
 2606TIP3   OH2 7774   3.988   1.694   1.307
 2606TIP3    H1 7775   3.974   1.756   1.236
 2606TIP3    H2 7776   3.992   1.748   1.386
 2607TIP3   OH2 7777   3.195   3.039   3.323
 2607TIP3    H1 7778   3.286   3.062   3.304
 2607TIP3    H2 7779   3.196   2.943   3.329
 2608TIP3   OH2 7780   1.045   3.360   6.516
 2608TIP3    H1 7781   1.010   3.351   6.427
 2608TIP3    H2 7782   1.133   3.321   6.511
 2609TIP3   OH2 7783   7.174   2.753   3.459
 2609TIP3    H1 7784   7.100   2.741   3.399
 2609TIP3    H2 7785   7.242   2.696   3.425
 2610TIP3   OH2 7786   5.709   4.095   4.803
 2610TIP3    H1 7787   5.796   4.057   4.787
 2610TIP3    H2 7788   5.700   4.093   4.899
 2611TIP3   OH2 7789   2.389   5.374   0.747
 2611TIP3    H1 7790   2.376   5.339   0.659
 2611TIP3    H2 7791   2.469   5.426   0.740
 2612TIP3   OH2 7792   0.171   5.994   0.202
 2612TIP3    H1 7793   0.093   6.047   0.217
 2612TIP3    H2 7794   0.236   6.056   0.169
 2613TIP3   OH2 7795   8.141   2.556   1.588
 2613TIP3    H1 7796   8.088   2.498   1.642
 2613TIP3    H2 7797   8.106   2.643   1.604
 2614TIP3   OH2 7798   1.925   1.852   2.174
 2614TIP3    H1 7799   1.893   1.793   2.105
 2614TIP3    H2 7800   2.014   1.874   2.147
 2615TIP3   OH2 7801   5.664   3.731   4.515
 2615TIP3    H1 7802   5.684   3.823   4.529
 2615TIP3    H2 7803   5.722   3.683   4.574
 2616TIP3   OH2 7804   0.641   2.579   0.737
 2616TIP3    H1 7805   0.673   2.660   0.777
 2616TIP3    H2 7806   0.698   2.511   0.772
 2617TIP3   OH2 7807   4.454   1.878   3.836
 2617TIP3    H1 7808   4.379   1.856   3.892
 2617TIP3    H2 7809   4.454   1.973   3.833
 2618TIP3   OH2 7810   7.084   4.273   1.725
 2618TIP3    H1 7811   7.005   4.256   1.776
 2618TIP3    H2 7812   7.065   4.234   1.639
 2619TIP3   OH2 7813   3.422   3.054   1.238
 2619TIP3    H1 7814   3.505   3.027   1.200
 2619TIP3    H2 7815   3.356   3.010   1.184
 2620TIP3   OH2 7816   2.950   7.323   1.142
 2620TIP3    H1 7817   2.875   7.326   1.203
 2620TIP3    H2 7818   3.027   7.325   1.199
 2621TIP3   OH2 7819   1.852   6.828   4.682
 2621TIP3    H1 7820   1.861   6.856   4.591
 2621TIP3    H2 7821   1.861   6.909   4.732
 2622TIP3   OH2 7822   0.365   0.556   3.561
 2622TIP3    H1 7823   0.450   0.543   3.603
 2622TIP3    H2 7824   0.363   0.649   3.540
 2623TIP3   OH2 7825   1.280   6.987   5.601
 2623TIP3    H1 7826   1.365   7.014   5.566
 2623TIP3    H2 7827   1.217   7.006   5.531
 2624TIP3   OH2 7828   6.855   1.796   5.702
 2624TIP3    H1 7829   6.894   1.818   5.787
 2624TIP3    H2 7830   6.928   1.798   5.640
 2625TIP3   OH2 7831   6.049   2.930   4.969
 2625TIP3    H1 7832   6.075   3.021   4.978
 2625TIP3    H2 7833   6.086   2.903   4.885
 2626TIP3   OH2 7834   0.272   0.251   3.575
 2626TIP3    H1 7835   0.272   0.254   3.479
 2626TIP3    H2 7836   0.314   0.333   3.601
 2627TIP3   OH2 7837   3.881   1.773   0.367
 2627TIP3    H1 7838   3.906   1.686   0.398
 2627TIP3    H2 7839   3.936   1.833   0.417
 2628TIP3   OH2 7840   1.985   4.599   5.245
 2628TIP3    H1 7841   1.968   4.655   5.170
 2628TIP3    H2 7842   2.032   4.523   5.209
 2629TIP3   OH2 7843   6.565   4.525   1.594
 2629TIP3    H1 7844   6.486   4.492   1.550
 2629TIP3    H2 7845   6.580   4.610   1.554
 2630TIP3   OH2 7846   0.174   0.131   5.464
 2630TIP3    H1 7847   0.121   0.155   5.540
 2630TIP3    H2 7848   0.151   0.040   5.446
 2631TIP3   OH2 7849   2.830   3.343   3.311
 2631TIP3    H1 7850   2.798   3.424   3.271
 2631TIP3    H2 7851   2.810   3.352   3.404
 2632TIP3   OH2 7852   1.938   4.747   6.064
 2632TIP3    H1 7853   1.892   4.809   6.008
 2632TIP3    H2 7854   1.869   4.704   6.114
 2633TIP3   OH2 7855   1.559   1.452   3.639
 2633TIP3    H1 7856   1.556   1.547   3.643
 2633TIP3    H2 7857   1.622   1.427   3.707
 2634TIP3   OH2 7858   1.631   4.696   6.590
 2634TIP3    H1 7859   1.652   4.763   6.655
 2634TIP3    H2 7860   1.579   4.742   6.524
 2635TIP3   OH2 7861   0.802   5.144   1.628
 2635TIP3    H1 7862   0.754   5.063   1.612
 2635TIP3    H2 7863   0.733   5.211   1.635
 2636TIP3   OH2 7864   2.414   7.625   5.494
 2636TIP3    H1 7865   2.341   7.645   5.436
 2636TIP3    H2 7866   2.428   7.706   5.543
 2637TIP3   OH2 7867   3.777   0.543   4.238
 2637TIP3    H1 7868   3.865   0.567   4.207
 2637TIP3    H2 7869   3.718   0.601   4.190
 2638TIP3   OH2 7870   0.557   5.453   4.509
 2638TIP3    H1 7871   0.486   5.495   4.559
 2638TIP3    H2 7872   0.599   5.394   4.571
 2639TIP3   OH2 7873   0.476   4.593   4.789
 2639TIP3    H1 7874   0.566   4.615   4.765
 2639TIP3    H2 7875   0.442   4.673   4.828
 2640TIP3   OH2 7876   1.741   7.375   1.747
 2640TIP3    H1 7877   1.654   7.381   1.787
 2640TIP3    H2 7878   1.802   7.395   1.818
 2641TIP3   OH2 7879   1.528   7.396   3.402
 2641TIP3    H1 7880   1.441   7.434   3.411
 2641TIP3    H2 7881   1.562   7.392   3.492
 2642TIP3   OH2 7882   3.451   7.046   0.896
 2642TIP3    H1 7883   3.513   7.005   0.835
 2642TIP3    H2 7884   3.506   7.077   0.968
 2643TIP3   OH2 7885   7.025   1.341   3.820
 2643TIP3    H1 7886   7.001   1.427   3.854
 2643TIP3    H2 7887   7.048   1.290   3.897
 2644TIP3   OH2 7888   2.005   6.663   2.357
 2644TIP3    H1 7889   1.971   6.720   2.288
 2644TIP3    H2 7890   1.943   6.673   2.429
 2645TIP3   OH2 7891   6.960   6.143   4.700
 2645TIP3    H1 7892   6.983   6.076   4.636
 2645TIP3    H2 7893   6.936   6.094   4.779
 2646TIP3   OH2 7894   3.268   3.640   1.042
 2646TIP3    H1 7895   3.190   3.640   1.097
 2646TIP3    H2 7896   3.335   3.683   1.096
 2647TIP3   OH2 7897   1.789   0.350   6.097
 2647TIP3    H1 7898   1.718   0.389   6.047
 2647TIP3    H2 7899   1.745   0.290   6.158
 2648TIP3   OH2 7900   8.025   0.301   0.043
 2648TIP3    H1 7901   7.935   0.309   0.010
 2648TIP3    H2 7902   8.029   0.363   0.116
 2649TIP3   OH2 7903   1.035   2.974   0.164
 2649TIP3    H1 7904   0.971   2.913   0.126
 2649TIP3    H2 7905   1.018   2.970   0.258
 2650TIP3   OH2 7906   3.312   2.109   5.837
 2650TIP3    H1 7907   3.331   2.050   5.764
 2650TIP3    H2 7908   3.390   2.102   5.894
 2651TIP3   OH2 7909   5.888   3.446   5.730
 2651TIP3    H1 7910   5.930   3.532   5.718
 2651TIP3    H2 7911   5.918   3.417   5.816
 2652TIP3   OH2 7912   3.508   5.651   3.891
 2652TIP3    H1 7913   3.439   5.659   3.957
 2652TIP3    H2 7914   3.571   5.590   3.929
 2653TIP3   OH2 7915   0.735   0.563   6.093
 2653TIP3    H1 7916   0.667   0.554   6.027
 2653TIP3    H2 7917   0.688   0.562   6.177
 2654TIP3   OH2 7918   5.312   3.968   1.234
 2654TIP3    H1 7919   5.316   3.963   1.329
 2654TIP3    H2 7920   5.230   3.924   1.211
 2655TIP3   OH2 7921   6.681   5.813   0.914
 2655TIP3    H1 7922   6.704   5.822   0.822
 2655TIP3    H2 7923   6.766   5.817   0.960
 2656TIP3   OH2 7924   3.900   2.501   2.439
 2656TIP3    H1 7925   3.902   2.488   2.344
 2656TIP3    H2 7926   3.847   2.580   2.451
 2657TIP3   OH2 7927   3.131   6.312   4.101
 2657TIP3    H1 7928   3.051   6.265   4.078
 2657TIP3    H2 7929   3.201   6.247   4.090
 2658TIP3   OH2 7930   6.390   6.461   4.160
 2658TIP3    H1 7931   6.445   6.470   4.237
 2658TIP3    H2 7932   6.385   6.550   4.124
 2659TIP3   OH2 7933   3.839   7.012   4.192
 2659TIP3    H1 7934   3.813   6.925   4.223
 2659TIP3    H2 7935   3.773   7.035   4.126
 2660TIP3   OH2 7936   3.371   5.001   5.941
 2660TIP3    H1 7937   3.461   4.974   5.960
 2660TIP3    H2 7938   3.328   5.003   6.026
 2661TIP3   OH2 7939   0.776   4.759   4.595
 2661TIP3    H1 7940   0.695   4.792   4.557
 2661TIP3    H2 7941   0.824   4.722   4.521
 2662TIP3   OH2 7942   7.482   5.378   0.451
 2662TIP3    H1 7943   7.524   5.444   0.395
 2662TIP3    H2 7944   7.451   5.427   0.527
 2663TIP3   OH2 7945   7.895   5.914   5.581
 2663TIP3    H1 7946   7.876   6.006   5.602
 2663TIP3    H2 7947   7.809   5.872   5.577
 2664TIP3   OH2 7948   8.039   0.015   3.390
 2664TIP3    H1 7949   7.988  -0.006   3.468
 2664TIP3    H2 7950   8.000   0.097   3.357
 2665TIP3   OH2 7951   6.553   5.548   5.356
 2665TIP3    H1 7952   6.597   5.484   5.412
 2665TIP3    H2 7953   6.621   5.611   5.333
 2666TIP3   OH2 7954   1.221   5.133   1.485
 2666TIP3    H1 7955   1.235   5.165   1.396
 2666TIP3    H2 7956   1.161   5.197   1.524
 2667TIP3   OH2 7957   5.105   6.459   3.271
 2667TIP3    H1 7958   5.045   6.529   3.245
 2667TIP3    H2 7959   5.053   6.405   3.332
 2668TIP3   OH2 7960   5.674   6.566   1.293
 2668TIP3    H1 7961   5.750   6.532   1.339
 2668TIP3    H2 7962   5.675   6.661   1.311
 2669TIP3   OH2 7963   1.639   6.540   3.649
 2669TIP3    H1 7964   1.647   6.624   3.694
 2669TIP3    H2 7965   1.546   6.531   3.630
 2670TIP3   OH2 7966   8.133   6.087   5.184
 2670TIP3    H1 7967   8.145   6.181   5.184
 2670TIP3    H2 7968   8.101   6.067   5.096
 2671TIP3   OH2 7969   8.067   5.764   1.807
 2671TIP3    H1 7970   7.992   5.735   1.859
 2671TIP3    H2 7971   8.039   5.754   1.716
 2672TIP3   OH2 7972   0.888   5.734   5.847
 2672TIP3    H1 7973   0.869   5.677   5.922
 2672TIP3    H2 7974   0.801   5.755   5.812
 2673TIP3   OH2 7975   2.472   5.820   2.089
 2673TIP3    H1 7976   2.436   5.802   2.176
 2673TIP3    H2 7977   2.532   5.894   2.102
 2674TIP3   OH2 7978   0.409   4.480   2.653
 2674TIP3    H1 7979   0.405   4.469   2.748
 2674TIP3    H2 7980   0.372   4.398   2.618
 2675TIP3   OH2 7981   6.700   3.518   5.904
 2675TIP3    H1 7982   6.758   3.573   5.957
 2675TIP3    H2 7983   6.758   3.473   5.842
 2676TIP3   OH2 7984   5.057   4.909   5.964
 2676TIP3    H1 7985   4.991   4.946   5.905
 2676TIP3    H2 7986   5.046   4.957   6.046
 2677TIP3   OH2 7987   7.189   1.568   3.533
 2677TIP3    H1 7988   7.101   1.532   3.524
 2677TIP3    H2 7989   7.242   1.517   3.472
 2678TIP3   OH2 7990   6.397   7.339   1.972
 2678TIP3    H1 7991   6.388   7.421   2.019
 2678TIP3    H2 7992   6.372   7.272   2.035
 2679TIP3   OH2 7993   6.363   4.142   1.229
 2679TIP3    H1 7994   6.382   4.108   1.141
 2679TIP3    H2 7995   6.448   4.163   1.266
 2680TIP3   OH2 7996   7.357   4.555   2.189
 2680TIP3    H1 7997   7.297   4.482   2.174
 2680TIP3    H2 7998   7.324   4.626   2.134
 2681TIP3   OH2 7999   4.251   5.246   1.628
 2681TIP3    H1 8000   4.238   5.225   1.720
 2681TIP3    H2 8001   4.218   5.335   1.618
 2682TIP3   OH2 8002   1.548   6.403   4.124
 2682TIP3    H1 8003   1.456   6.426   4.134
 2682TIP3    H2 8004   1.549   6.327   4.066
 2683TIP3   OH2 8005   7.439   0.072   4.194
 2683TIP3    H1 8006   7.506   0.077   4.125
 2683TIP3    H2 8007   7.461   0.143   4.253
 2684TIP3   OH2 8008   6.624   1.607   5.286
 2684TIP3    H1 8009   6.684   1.599   5.213
 2684TIP3    H2 8010   6.582   1.692   5.274
 2685TIP3   OH2 8011   4.398   2.521   3.703
 2685TIP3    H1 8012   4.489   2.502   3.677
 2685TIP3    H2 8013   4.346   2.491   3.628
 2686TIP3   OH2 8014   3.416   5.909   3.891
 2686TIP3    H1 8015   3.364   5.913   3.810
 2686TIP3    H2 8016   3.462   5.825   3.886
 2687TIP3   OH2 8017   2.899   3.986   2.487
 2687TIP3    H1 8018   2.970   4.050   2.482
 2687TIP3    H2 8019   2.924   3.929   2.560
 2688TIP3   OH2 8020   7.942   2.351   3.721
 2688TIP3    H1 8021   8.022   2.401   3.704
 2688TIP3    H2 8022   7.878   2.417   3.746
 2689TIP3   OH2 8023   5.039   7.229   0.794
 2689TIP3    H1 8024   5.057   7.202   0.704
 2689TIP3    H2 8025   4.977   7.301   0.785
 2690TIP3   OH2 8026   4.986   5.230   0.236
 2690TIP3    H1 8027   4.995   5.309   0.289
 2690TIP3    H2 8028   4.917   5.251   0.173
 2691TIP3   OH2 8029   1.290   6.343   4.588
 2691TIP3    H1 8030   1.222   6.373   4.528
 2691TIP3    H2 8031   1.340   6.422   4.608
 2692TIP3   OH2 8032   6.237   5.807   1.622
 2692TIP3    H1 8033   6.191   5.755   1.556
 2692TIP3    H2 8034   6.193   5.892   1.622
 2693TIP3   OH2 8035   5.689   5.074   6.736
 2693TIP3    H1 8036   5.779   5.094   6.761
 2693TIP3    H2 8037   5.657   5.017   6.806
 2694TIP3   OH2 8038   7.310   0.869   3.658
 2694TIP3    H1 8039   7.223   0.840   3.685
 2694TIP3    H2 8040   7.353   0.895   3.740
 2695TIP3   OH2 8041   2.880   7.675   3.858
 2695TIP3    H1 8042   2.790   7.645   3.868
 2695TIP3    H2 8043   2.909   7.693   3.948
 2696TIP3   OH2 8044   2.708   5.953   4.029
 2696TIP3    H1 8045   2.669   5.874   3.990
 2696TIP3    H2 8046   2.715   5.933   4.122
 2697TIP3   OH2 8047   4.063   1.618   0.098
 2697TIP3    H1 8048   4.008   1.566   0.157
 2697TIP3    H2 8049   4.153   1.601   0.128
 2698TIP3   OH2 8050   2.427   3.690   1.929
 2698TIP3    H1 8051   2.368   3.616   1.943
 2698TIP3    H2 8052   2.486   3.687   2.004
 2699TIP3   OH2 8053   3.046   1.643   5.140
 2699TIP3    H1 8054   3.090   1.722   5.172
 2699TIP3    H2 8055   2.952   1.664   5.145
 2700TIP3   OH2 8056   6.510   5.068   6.288
 2700TIP3    H1 8057   6.536   5.007   6.219
 2700TIP3    H2 8058   6.420   5.094   6.266
 2701TIP3   OH2 8059   3.545   6.593   0.350
 2701TIP3    H1 8060   3.518   6.663   0.291
 2701TIP3    H2 8061   3.618   6.551   0.304
 2702TIP3   OH2 8062   7.774   7.118   2.750
 2702TIP3    H1 8063   7.845   7.059   2.724
 2702TIP3    H2 8064   7.695   7.065   2.742
 2703TIP3   OH2 8065   4.794   1.770   0.934
 2703TIP3    H1 8066   4.718   1.755   0.990
 2703TIP3    H2 8067   4.809   1.865   0.940
 2704TIP3   OH2 8068   8.221   0.316   0.714
 2704TIP3    H1 8069   8.163   0.353   0.781
 2704TIP3    H2 8070   8.231   0.386   0.650
 2705TIP3   OH2 8071   6.712   3.662   2.063
 2705TIP3    H1 8072   6.680   3.715   1.990
 2705TIP3    H2 8073   6.633   3.641   2.114
 2706TIP3   OH2 8074   1.976   1.153   0.675
 2706TIP3    H1 8075   1.918   1.193   0.740
 2706TIP3    H2 8076   2.058   1.138   0.722
 2707TIP3   OH2 8077   0.255   3.717   0.577
 2707TIP3    H1 8078   0.236   3.623   0.578
 2707TIP3    H2 8079   0.341   3.723   0.535
 2708TIP3   OH2 8080   4.034   1.463   6.144
 2708TIP3    H1 8081   4.130   1.459   6.136
 2708TIP3    H2 8082   4.013   1.396   6.209
 2709TIP3   OH2 8083   4.832   3.329   1.565
 2709TIP3    H1 8084   4.922   3.296   1.565
 2709TIP3    H2 8085   4.797   3.304   1.650
 2710TIP3   OH2 8086   0.130   7.757   1.187
 2710TIP3    H1 8087   0.157   7.669   1.212
 2710TIP3    H2 8088   0.040   7.764   1.217
 2711TIP3   OH2 8089   2.117   5.760   5.102
 2711TIP3    H1 8090   2.151   5.848   5.123
 2711TIP3    H2 8091   2.049   5.746   5.168
 2712TIP3   OH2 8092   0.416   2.856   4.705
 2712TIP3    H1 8093   0.417   2.945   4.740
 2712TIP3    H2 8094   0.376   2.803   4.774
 2713TIP3   OH2 8095   3.320   6.531   0.835
 2713TIP3    H1 8096   3.413   6.517   0.851
 2713TIP3    H2 8097   3.303   6.620   0.865
 2714TIP3   OH2 8098   6.302   0.784   2.680
 2714TIP3    H1 8099   6.336   0.757   2.765
 2714TIP3    H2 8100   6.380   0.800   2.626
 2715TIP3   OH2 8101   4.821   5.216   3.433
 2715TIP3    H1 8102   4.883   5.175   3.373
 2715TIP3    H2 8103   4.761   5.264   3.376
 2716TIP3   OH2 8104   2.609   4.878   0.119
 2716TIP3    H1 8105   2.703   4.894   0.113
 2716TIP3    H2 8106   2.579   4.879   0.028
 2717TIP3   OH2 8107   5.074   5.210   6.768
 2717TIP3    H1 8108   4.990   5.171   6.793
 2717TIP3    H2 8109   5.125   5.137   6.734
 2718TIP3   OH2 8110   3.461   0.823   6.075
 2718TIP3    H1 8111   3.524   0.874   6.127
 2718TIP3    H2 8112   3.376   0.843   6.114
 2719TIP3   OH2 8113   0.776   0.750   2.627
 2719TIP3    H1 8114   0.784   0.655   2.636
 2719TIP3    H2 8115   0.709   0.762   2.560
 2720TIP3   OH2 8116   0.651   3.430   4.893
 2720TIP3    H1 8117   0.586   3.431   4.964
 2720TIP3    H2 8118   0.697   3.513   4.901
 2721TIP3   OH2 8119   0.817   5.329   6.392
 2721TIP3    H1 8120   0.864   5.380   6.458
 2721TIP3    H2 8121   0.760   5.392   6.348
 2722TIP3   OH2 8122   4.540   3.289   2.132
 2722TIP3    H1 8123   4.491   3.319   2.055
 2722TIP3    H2 8124   4.632   3.297   2.107
 2723TIP3   OH2 8125   6.388   6.545   0.128
 2723TIP3    H1 8126   6.328   6.619   0.121
 2723TIP3    H2 8127   6.335   6.468   0.108
 2724TIP3   OH2 8128   2.683   5.544   6.064
 2724TIP3    H1 8129   2.729   5.465   6.091
 2724TIP3    H2 8130   2.603   5.511   6.022
 2725TIP3   OH2 8131   5.604   0.488   5.770
 2725TIP3    H1 8132   5.660   0.507   5.695
 2725TIP3    H2 8133   5.655   0.514   5.847
 2726TIP3   OH2 8134   1.570   4.519   3.315
 2726TIP3    H1 8135   1.607   4.446   3.266
 2726TIP3    H2 8136   1.487   4.485   3.350
 2727TIP3   OH2 8137   7.445   6.100   4.797
 2727TIP3    H1 8138   7.423   6.017   4.755
 2727TIP3    H2 8139   7.391   6.102   4.876
 2728TIP3   OH2 8140   5.198   6.810   2.284
 2728TIP3    H1 8141   5.116   6.769   2.312
 2728TIP3    H2 8142   5.171   6.886   2.234
 2729TIP3   OH2 8143   7.295   4.567   3.141
 2729TIP3    H1 8144   7.216   4.614   3.165
 2729TIP3    H2 8145   7.287   4.482   3.186
 2730TIP3   OH2 8146   1.863   1.874   6.250
 2730TIP3    H1 8147   1.879   1.781   6.236
 2730TIP3    H2 8148   1.950   1.913   6.258
 2731TIP3   OH2 8149   2.100   7.515   3.577
 2731TIP3    H1 8150   2.036   7.461   3.530
 2731TIP3    H2 8151   2.048   7.563   3.642
 2732TIP3   OH2 8152   7.332   4.198   6.331
 2732TIP3    H1 8153   7.251   4.147   6.332
 2732TIP3    H2 8154   7.345   4.225   6.422
 2733TIP3   OH2 8155   7.593   1.694   2.681
 2733TIP3    H1 8156   7.592   1.682   2.586
 2733TIP3    H2 8157   7.683   1.675   2.708
 2734TIP3   OH2 8158   1.188   5.456   5.517
 2734TIP3    H1 8159   1.116   5.518   5.517
 2734TIP3    H2 8160   1.204   5.439   5.610
 2735TIP3   OH2 8161   8.008   7.330   4.562
 2735TIP3    H1 8162   7.948   7.331   4.636
 2735TIP3    H2 8163   8.008   7.419   4.529
 2736TIP3   OH2 8164   2.228   3.499   3.875
 2736TIP3    H1 8165   2.150   3.507   3.821
 2736TIP3    H2 8166   2.214   3.420   3.927
 2737TIP3   OH2 8167   4.869   4.791   6.196
 2737TIP3    H1 8168   4.900   4.713   6.242
 2737TIP3    H2 8169   4.821   4.840   6.263
 2738TIP3   OH2 8170   7.993   7.023   0.081
 2738TIP3    H1 8171   8.074   7.069   0.060
 2738TIP3    H2 8172   8.021   6.933   0.098
 2739TIP3   OH2 8173   0.422   7.155   3.514
 2739TIP3    H1 8174   0.429   7.079   3.572
 2739TIP3    H2 8175   0.346   7.137   3.460
 2740TIP3   OH2 8176   0.869   6.530   4.576
 2740TIP3    H1 8177   0.905   6.564   4.658
 2740TIP3    H2 8178   0.830   6.606   4.533
 2741TIP3   OH2 8179   2.312   1.473   5.579
 2741TIP3    H1 8180   2.323   1.526   5.658
 2741TIP3    H2 8181   2.394   1.424   5.572
 2742TIP3   OH2 8182   5.089   4.655   3.478
 2742TIP3    H1 8183   5.073   4.710   3.555
 2742TIP3    H2 8184   5.011   4.666   3.424
 2743TIP3   OH2 8185   1.941   1.161   4.138
 2743TIP3    H1 8186   2.003   1.144   4.067
 2743TIP3    H2 8187   1.926   1.075   4.178
 2744TIP3   OH2 8188   5.744   2.737   5.235
 2744TIP3    H1 8189   5.745   2.815   5.179
 2744TIP3    H2 8190   5.652   2.714   5.242
 2745TIP3   OH2 8191   4.271   2.645   2.398
 2745TIP3    H1 8192   4.215   2.647   2.475
 2745TIP3    H2 8193   4.236   2.712   2.340
 2746TIP3   OH2 8194   3.173   1.113   0.071
 2746TIP3    H1 8195   3.248   1.172   0.083
 2746TIP3    H2 8196   3.133   1.108   0.157
 2747TIP3   OH2 8197   0.711   5.740   1.661
 2747TIP3    H1 8198   0.692   5.833   1.648
 2747TIP3    H2 8199   0.629   5.705   1.696
 2748TIP3   OH2 8200   0.350   0.925   6.377
 2748TIP3    H1 8201   0.274   0.972   6.411
 2748TIP3    H2 8202   0.354   0.950   6.284
 2749TIP3   OH2 8203   2.105   0.318   4.586
 2749TIP3    H1 8204   2.128   0.393   4.641
 2749TIP3    H2 8205   2.046   0.266   4.640
 2750TIP3   OH2 8206   6.318   0.618   4.349
 2750TIP3    H1 8207   6.383   0.555   4.379
 2750TIP3    H2 8208   6.240   0.566   4.331
 2751TIP3   OH2 8209   3.899   3.125   1.843
 2751TIP3    H1 8210   3.895   3.149   1.751
 2751TIP3    H2 8211   3.834   3.055   1.852
 2752TIP3   OH2 8212   0.244   7.144   2.188
 2752TIP3    H1 8213   0.295   7.088   2.247
 2752TIP3    H2 8214   0.154   7.115   2.199
 2753TIP3   OH2 8215   0.548   4.017   5.648
 2753TIP3    H1 8216   0.482   4.084   5.665
 2753TIP3    H2 8217   0.620   4.038   5.708
 2754TIP3   OH2 8218   0.158   4.659   0.198
 2754TIP3    H1 8219   0.227   4.594   0.209
 2754TIP3    H2 8220   0.128   4.677   0.287
 2755TIP3   OH2 8221   5.731   5.771   3.217
 2755TIP3    H1 8222   5.804   5.829   3.196
 2755TIP3    H2 8223   5.669   5.783   3.146
 2756TIP3   OH2 8224   6.671   4.475   1.312
 2756TIP3    H1 8225   6.683   4.513   1.225
 2756TIP3    H2 8226   6.687   4.549   1.372
 2757TIP3   OH2 8227   4.285   4.231   2.461
 2757TIP3    H1 8228   4.305   4.291   2.389
 2757TIP3    H2 8229   4.360   4.240   2.521
 2758TIP3   OH2 8230   6.200   4.992   0.937
 2758TIP3    H1 8231   6.148   4.929   0.887
 2758TIP3    H2 8232   6.218   5.063   0.875
 2759TIP3   OH2 8233   3.054   0.266   0.798
 2759TIP3    H1 8234   2.965   0.255   0.764
 2759TIP3    H2 8235   3.070   0.187   0.848
 2760TIP3   OH2 8236   2.878   0.987   6.003
 2760TIP3    H1 8237   2.841   0.900   5.991
 2760TIP3    H2 8238   2.853   1.035   5.924
 2761TIP3   OH2 8239   4.466   1.367   5.675
 2761TIP3    H1 8240   4.490   1.381   5.766
 2761TIP3    H2 8241   4.525   1.425   5.626
 2762TIP3   OH2 8242   0.295   4.881   1.844
 2762TIP3    H1 8243   0.302   4.903   1.937
 2762TIP3    H2 8244   0.201   4.872   1.829
 2763TIP3   OH2 8245   1.935   6.463   2.182
 2763TIP3    H1 8246   1.845   6.485   2.206
 2763TIP3    H2 8247   1.989   6.509   2.246
 2764TIP3   OH2 8248   0.942   5.361   5.742
 2764TIP3    H1 8249   0.855   5.321   5.733
 2764TIP3    H2 8250   0.945   5.427   5.673
 2765TIP3   OH2 8251   6.528   0.056   0.701
 2765TIP3    H1 8252   6.612   0.102   0.695
 2765TIP3    H2 8253   6.516   0.017   0.614
 2766TIP3   OH2 8254   1.304   1.545   4.162
 2766TIP3    H1 8255   1.355   1.464   4.172
 2766TIP3    H2 8256   1.330   1.578   4.076
 2767TIP3   OH2 8257   7.341   5.372   6.651
 2767TIP3    H1 8258   7.284   5.449   6.644
 2767TIP3    H2 8259   7.281   5.298   6.652
 2768TIP3   OH2 8260   2.889   5.647   4.114
 2768TIP3    H1 8261   2.824   5.709   4.148
 2768TIP3    H2 8262   2.915   5.595   4.190
 2769TIP3   OH2 8263   5.347   6.783   5.504
 2769TIP3    H1 8264   5.265   6.738   5.525
 2769TIP3    H2 8265   5.388   6.801   5.589
 2770TIP3   OH2 8266   6.975   7.198   4.794
 2770TIP3    H1 8267   7.054   7.241   4.826
 2770TIP3    H2 8268   6.975   7.113   4.837
 2771TIP3   OH2 8269   1.512   4.671   2.627
 2771TIP3    H1 8270   1.564   4.674   2.707
 2771TIP3    H2 8271   1.531   4.753   2.582
 2772TIP3   OH2 8272   6.407   0.421   0.544
 2772TIP3    H1 8273   6.322   0.460   0.563
 2772TIP3    H2 8274   6.465   0.457   0.612
 2773TIP3   OH2 8275   6.920   0.093   4.285
 2773TIP3    H1 8276   7.004   0.128   4.316
 2773TIP3    H2 8277   6.917   0.119   4.192
 2774TIP3   OH2 8278   6.950   6.650   0.004
 2774TIP3    H1 8279   6.930   6.651   0.098
 2774TIP3    H2 8280   6.917   6.734  -0.029
 2775TIP3   OH2 8281   4.431   3.298   2.947
 2775TIP3    H1 8282   4.364   3.366   2.942
 2775TIP3    H2 8283   4.422   3.249   2.865
 2776TIP3   OH2 8284   2.966   2.436   0.814
 2776TIP3    H1 8285   2.942   2.502   0.749
 2776TIP3    H2 8286   2.895   2.438   0.878
 2777TIP3   OH2 8287   5.629   7.100   3.440
 2777TIP3    H1 8288   5.652   7.071   3.529
 2777TIP3    H2 8289   5.550   7.152   3.452
 2778TIP3   OH2 8290   4.756   0.110   4.941
 2778TIP3    H1 8291   4.706   0.029   4.938
 2778TIP3    H2 8292   4.847   0.083   4.934
 2779TIP3   OH2 8293   2.677   5.102   5.299
 2779TIP3    H1 8294   2.741   5.146   5.243
 2779TIP3    H2 8295   2.716   5.103   5.386
 2780TIP3   OH2 8296   1.555   0.376   0.349
 2780TIP3    H1 8297   1.601   0.298   0.320
 2780TIP3    H2 8298   1.529   0.357   0.439
 2781TIP3   OH2 8299   7.786   7.186   5.022
 2781TIP3    H1 8300   7.841   7.184   4.944
 2781TIP3    H2 8301   7.699   7.210   4.989
 2782TIP3   OH2 8302   5.561   3.917   2.459
 2782TIP3    H1 8303   5.556   3.888   2.550
 2782TIP3    H2 8304   5.655   3.915   2.438
 2783TIP3   OH2 8305   5.528   6.059   4.481
 2783TIP3    H1 8306   5.537   6.125   4.412
 2783TIP3    H2 8307   5.466   6.098   4.543
 2784TIP3   OH2 8308   4.581   7.519   4.411
 2784TIP3    H1 8309   4.562   7.447   4.351
 2784TIP3    H2 8310   4.504   7.524   4.468
 2785TIP3   OH2 8311   8.291   1.578   2.631
 2785TIP3    H1 8312   8.292   1.645   2.562
 2785TIP3    H2 8313   8.203   1.582   2.667
 2786TIP3   OH2 8314   2.021   7.717   2.826
 2786TIP3    H1 8315   1.928   7.710   2.848
 2786TIP3    H2 8316   2.039   7.637   2.775
 2787TIP3   OH2 8317   2.946  -0.006   1.623
 2787TIP3    H1 8318   2.955   0.037   1.538
 2787TIP3    H2 8319   2.946   0.066   1.686
 2788TIP3   OH2 8320   0.659   0.245   6.126
 2788TIP3    H1 8321   0.725   0.247   6.057
 2788TIP3    H2 8322   0.701   0.288   6.201
 2789TIP3   OH2 8323   6.666   6.938   5.799
 2789TIP3    H1 8324   6.650   6.944   5.893
 2789TIP3    H2 8325   6.625   7.015   5.762
 2790TIP3   OH2 8326   5.311   5.906   2.796
 2790TIP3    H1 8327   5.226   5.948   2.786
 2790TIP3    H2 8328   5.362   5.937   2.722
 2791TIP3   OH2 8329   2.059   5.889   2.407
 2791TIP3    H1 8330   2.002   5.815   2.429
 2791TIP3    H2 8331   2.043   5.905   2.314
 2792TIP3   OH2 8332   1.604   0.409   2.711
 2792TIP3    H1 8333   1.618   0.472   2.782
 2792TIP3    H2 8334   1.637   0.326   2.746
 2793TIP3   OH2 8335   4.913   3.040   2.359
 2793TIP3    H1 8336   4.841   2.978   2.368
 2793TIP3    H2 8337   4.990   2.994   2.392
 2794TIP3   OH2 8338   6.078   6.473   2.237
 2794TIP3    H1 8339   6.019   6.545   2.215
 2794TIP3    H2 8340   6.023   6.412   2.286
 2795TIP3   OH2 8341   4.021   7.397   3.563
 2795TIP3    H1 8342   4.102   7.386   3.513
 2795TIP3    H2 8343   3.957   7.429   3.500
 2796TIP3   OH2 8344   7.517   4.821   6.574
 2796TIP3    H1 8345   7.598   4.871   6.562
 2796TIP3    H2 8346   7.453   4.887   6.602
 2797TIP3   OH2 8347   1.179   3.468   4.174
 2797TIP3    H1 8348   1.155   3.542   4.229
 2797TIP3    H2 8349   1.146   3.492   4.087
 2798TIP3   OH2 8350   6.220   3.567   6.500
 2798TIP3    H1 8351   6.196   3.596   6.412
 2798TIP3    H2 8352   6.137   3.559   6.546
 2799TIP3   OH2 8353   5.573   7.004   0.545
 2799TIP3    H1 8354   5.667   7.018   0.529
 2799TIP3    H2 8355   5.534   7.006   0.457
 2800TIP3   OH2 8356   1.165   2.712   6.550
 2800TIP3    H1 8357   1.257   2.736   6.562
 2800TIP3    H2 8358   1.152   2.714   6.455
 2801TIP3   OH2 8359   3.189   0.800   0.630
 2801TIP3    H1 8360   3.146   0.869   0.680
 2801TIP3    H2 8361   3.118   0.755   0.585
 2802TIP3   OH2 8362   4.566   5.996   4.980
 2802TIP3    H1 8363   4.640   6.056   4.982
 2802TIP3    H2 8364   4.601   5.916   4.941
 2803TIP3   OH2 8365   0.363   4.589   5.925
 2803TIP3    H1 8366   0.430   4.596   5.857
 2803TIP3    H2 8367   0.379   4.504   5.966
 2804TIP3   OH2 8368   0.143   5.140   1.874
 2804TIP3    H1 8369   0.069   5.080   1.885
 2804TIP3    H2 8370   0.205   5.116   1.943
 2805TIP3   OH2 8371   0.278   3.431   2.027
 2805TIP3    H1 8372   0.278   3.389   2.114
 2805TIP3    H2 8373   0.198   3.482   2.025
 2806TIP3   OH2 8374   3.961   7.723   5.955
 2806TIP3    H1 8375   4.056   7.729   5.959
 2806TIP3    H2 8376   3.940   7.643   6.004
 2807TIP3   OH2 8377   1.579   5.678   0.634
 2807TIP3    H1 8378   1.536   5.663   0.550
 2807TIP3    H2 8379   1.673   5.670   0.615
 2808TIP3   OH2 8380   1.898   5.838   6.603
 2808TIP3    H1 8381   1.880   5.865   6.513
 2808TIP3    H2 8382   1.859   5.907   6.657
 2809TIP3   OH2 8383   4.291   0.635   3.491
 2809TIP3    H1 8384   4.372   0.675   3.521
 2809TIP3    H2 8385   4.297   0.544   3.523
 2810TIP3   OH2 8386   5.515   5.191   4.800
 2810TIP3    H1 8387   5.493   5.253   4.869
 2810TIP3    H2 8388   5.464   5.113   4.821
 2811TIP3   OH2 8389   1.233   1.772   5.235
 2811TIP3    H1 8390   1.279   1.849   5.201
 2811TIP3    H2 8391   1.141   1.798   5.238
 2812TIP3   OH2 8392   1.817   5.694   2.944
 2812TIP3    H1 8393   1.873   5.771   2.947
 2812TIP3    H2 8394   1.745   5.715   3.004
 2813TIP3   OH2 8395   0.435   5.086   5.431
 2813TIP3    H1 8396   0.379   5.127   5.365
 2813TIP3    H2 8397   0.465   5.005   5.388
 2814TIP3   OH2 8398   7.604   4.160   4.658
 2814TIP3    H1 8399   7.655   4.109   4.720
 2814TIP3    H2 8400   7.661   4.233   4.634
 2815TIP3   OH2 8401   3.558   0.585   2.811
 2815TIP3    H1 8402   3.645   0.589   2.852
 2815TIP3    H2 8403   3.498   0.566   2.883
 2816TIP3   OH2 8404   4.592   4.357   5.242
 2816TIP3    H1 8405   4.593   4.433   5.300
 2816TIP3    H2 8406   4.544   4.385   5.164
 2817TIP3   OH2 8407   4.534   6.853   3.674
 2817TIP3    H1 8408   4.525   6.829   3.582
 2817TIP3    H2 8409   4.625   6.879   3.684
 2818TIP3   OH2 8410   4.089   5.041   5.383
 2818TIP3    H1 8411   4.046   5.105   5.441
 2818TIP3    H2 8412   4.141   5.095   5.323
 2819TIP3   OH2 8413   7.039   1.339   1.526
 2819TIP3    H1 8414   6.957   1.337   1.476
 2819TIP3    H2 8415   7.020   1.290   1.606
 2820TIP3   OH2 8416   3.909   4.729   5.746
 2820TIP3    H1 8417   3.921   4.643   5.786
 2820TIP3    H2 8418   3.870   4.710   5.660
 2821TIP3   OH2 8419   0.210   2.108   2.761
 2821TIP3    H1 8420   0.288   2.149   2.799
 2821TIP3    H2 8421   0.221   2.120   2.666
 2822TIP3   OH2 8422   6.244   3.970   5.791
 2822TIP3    H1 8423   6.155   3.998   5.815
 2822TIP3    H2 8424   6.291   3.968   5.874
 2823TIP3   OH2 8425   6.809   5.180   4.995
 2823TIP3    H1 8426   6.796   5.154   5.087
 2823TIP3    H2 8427   6.727   5.154   4.952
 2824TIP3   OH2 8428   0.013   4.674   0.462
 2824TIP3    H1 8429   0.005   4.628   0.546
 2824TIP3    H2 8430  -0.050   4.629   0.405
 2825TIP3   OH2 8431   2.642   1.432   1.751
 2825TIP3    H1 8432   2.701   1.456   1.822
 2825TIP3    H2 8433   2.603   1.349   1.780
 2826TIP3   OH2 8434   0.500   7.382   0.792
 2826TIP3    H1 8435   0.460   7.296   0.777
 2826TIP3    H2 8436   0.555   7.397   0.715
 2827TIP3   OH2 8437   5.633   2.753   3.253
 2827TIP3    H1 8438   5.619   2.790   3.340
 2827TIP3    H2 8439   5.638   2.658   3.268
 2828TIP3   OH2 8440   1.292   7.533   1.634
 2828TIP3    H1 8441   1.365   7.575   1.679
 2828TIP3    H2 8442   1.216   7.550   1.690
 2829TIP3   OH2 8443   7.729   5.817   0.588
 2829TIP3    H1 8444   7.815   5.777   0.575
 2829TIP3    H2 8445   7.737   5.864   0.672
 2830TIP3   OH2 8446   2.425   2.846   0.262
 2830TIP3    H1 8447   2.498   2.784   0.261
 2830TIP3    H2 8448   2.377   2.825   0.341
 2831TIP3   OH2 8449   1.349   1.771   2.138
 2831TIP3    H1 8450   1.424   1.724   2.099
 2831TIP3    H2 8451   1.319   1.829   2.068
 2832TIP3   OH2 8452   1.829   2.391   4.775
 2832TIP3    H1 8453   1.815   2.456   4.706
 2832TIP3    H2 8454   1.890   2.432   4.836
 2833TIP3   OH2 8455   6.274   5.960   6.423
 2833TIP3    H1 8456   6.290   5.868   6.444
 2833TIP3    H2 8457   6.283   6.005   6.507
 2834TIP3   OH2 8458   3.117   0.017   3.445
 2834TIP3    H1 8459   3.127   0.099   3.493
 2834TIP3    H2 8460   3.033  -0.019   3.476
 2835TIP3   OH2 8461   6.002   2.338   3.355
 2835TIP3    H1 8462   6.031   2.269   3.295
 2835TIP3    H2 8463   6.069   2.342   3.422
 2836TIP3   OH2 8464   7.221   3.747   2.240
 2836TIP3    H1 8465   7.282   3.815   2.271
 2836TIP3    H2 8466   7.156   3.795   2.189
 2837TIP3   OH2 8467   4.674   2.064   4.344
 2837TIP3    H1 8468   4.747   2.023   4.298
 2837TIP3    H2 8469   4.690   2.044   4.437
 2838TIP3   OH2 8470   7.750   3.132   4.528
 2838TIP3    H1 8471   7.667   3.087   4.538
 2838TIP3    H2 8472   7.735   3.196   4.459
 2839TIP3   OH2 8473   0.734   6.652   0.354
 2839TIP3    H1 8474   0.646   6.621   0.375
 2839TIP3    H2 8475   0.743   6.638   0.260
 2840TIP3   OH2 8476   5.175   1.332   2.299
 2840TIP3    H1 8477   5.154   1.393   2.370
 2840TIP3    H2 8478   5.091   1.297   2.271
 2841TIP3   OH2 8479   2.875   6.504   2.866
 2841TIP3    H1 8480   2.956   6.545   2.896
 2841TIP3    H2 8481   2.806   6.555   2.907
 2842TIP3   OH2 8482   4.285   6.184   4.004
 2842TIP3    H1 8483   4.348   6.255   3.990
 2842TIP3    H2 8484   4.207   6.229   4.037
 2843TIP3   OH2 8485   1.810   7.074   4.113
 2843TIP3    H1 8486   1.884   7.126   4.083
 2843TIP3    H2 8487   1.771   7.126   4.183
 2844TIP3   OH2 8488   2.971   5.454   3.440
 2844TIP3    H1 8489   2.945   5.469   3.531
 2844TIP3    H2 8490   2.967   5.540   3.399
 2845TIP3   OH2 8491   7.210   2.197   1.961
 2845TIP3    H1 8492   7.152   2.121   1.969
 2845TIP3    H2 8493   7.215   2.233   2.050
 2846TIP3   OH2 8494   4.980   3.200   1.226
 2846TIP3    H1 8495   4.959   3.145   1.151
 2846TIP3    H2 8496   5.073   3.185   1.242
 2847TIP3   OH2 8497   0.067   7.625   0.389
 2847TIP3    H1 8498  -0.022   7.648   0.362
 2847TIP3    H2 8499   0.093   7.554   0.330
 2848TIP3   OH2 8500   6.921   6.855   6.046
 2848TIP3    H1 8501   6.919   6.830   6.139
 2848TIP3    H2 8502   6.869   6.936   6.042
 2849TIP3   OH2 8503   2.958   5.723   3.332
 2849TIP3    H1 8504   2.976   5.720   3.238
 2849TIP3    H2 8505   2.977   5.813   3.357
 2850TIP3   OH2 8506   7.694   0.012   2.048
 2850TIP3    H1 8507   7.788   0.028   2.040
 2850TIP3    H2 8508   7.678   0.004   2.142
 2851TIP3   OH2 8509   5.922   4.213   3.540
 2851TIP3    H1 8510   5.919   4.308   3.532
 2851TIP3    H2 8511   5.880   4.180   3.460
 2852TIP3   OH2 8512   5.873   6.474   3.201
 2852TIP3    H1 8513   5.922   6.528   3.139
 2852TIP3    H2 8514   5.782   6.499   3.187
 2853TIP3   OH2 8515   2.260   3.007   3.335
 2853TIP3    H1 8516   2.353   3.029   3.324
 2853TIP3    H2 8517   2.217   3.049   3.261
 2854TIP3   OH2 8518   5.736   3.231   2.085
 2854TIP3    H1 8519   5.664   3.179   2.049
 2854TIP3    H2 8520   5.694   3.295   2.141
 2855TIP3   OH2 8521   5.485   0.785   0.290
 2855TIP3    H1 8522   5.498   0.695   0.317
 2855TIP3    H2 8523   5.426   0.779   0.215
 2856TIP3   OH2 8524   8.031   4.500   4.902
 2856TIP3    H1 8525   8.012   4.543   4.818
 2856TIP3    H2 8526   8.127   4.502   4.908
 2857TIP3   OH2 8527   1.309   0.233   6.159
 2857TIP3    H1 8528   1.326   0.144   6.127
 2857TIP3    H2 8529   1.310   0.225   6.254
 2858TIP3   OH2 8530   0.857   5.337   4.942
 2858TIP3    H1 8531   0.860   5.330   4.847
 2858TIP3    H2 8532   0.797   5.267   4.969
 2859TIP3   OH2 8533   4.745   6.099   2.682
 2859TIP3    H1 8534   4.727   6.173   2.623
 2859TIP3    H2 8535   4.786   6.140   2.759
 2860TIP3   OH2 8536   4.225   3.445   6.157
 2860TIP3    H1 8537   4.175   3.423   6.079
 2860TIP3    H2 8538   4.295   3.380   6.161
 2861TIP3   OH2 8539   2.766   6.970   2.238
 2861TIP3    H1 8540   2.798   7.001   2.153
 2861TIP3    H2 8541   2.671   6.982   2.233
 2862TIP3   OH2 8542   4.081   0.726   4.055
 2862TIP3    H1 8543   4.105   0.645   4.012
 2862TIP3    H2 8544   4.002   0.756   4.009
 2863TIP3   OH2 8545   0.700   0.977   1.934
 2863TIP3    H1 8546   0.623   1.027   1.909
 2863TIP3    H2 8547   0.684   0.889   1.899
 2864TIP3   OH2 8548   5.191   7.688   6.603
 2864TIP3    H1 8549   5.215   7.781   6.610
 2864TIP3    H2 8550   5.268   7.647   6.564
 2865TIP3   OH2 8551   1.661   4.273   1.536
 2865TIP3    H1 8552   1.694   4.225   1.460
 2865TIP3    H2 8553   1.681   4.364   1.518
 2866TIP3   OH2 8554   0.645   3.093   6.311
 2866TIP3    H1 8555   0.643   3.012   6.260
 2866TIP3    H2 8556   0.577   3.148   6.272
 2867TIP3   OH2 8557   0.718   1.435   1.044
 2867TIP3    H1 8558   0.762   1.517   1.066
 2867TIP3    H2 8559   0.631   1.443   1.083
 2868TIP3   OH2 8560   7.142   6.075   5.810
 2868TIP3    H1 8561   7.084   6.124   5.752
 2868TIP3    H2 8562   7.229   6.112   5.797
 2869TIP3   OH2 8563   6.826   7.348   6.690
 2869TIP3    H1 8564   6.786   7.310   6.612
 2869TIP3    H2 8565   6.769   7.320   6.762
 2870TIP3   OH2 8566   5.219   6.271   0.970
 2870TIP3    H1 8567   5.254   6.353   0.938
 2870TIP3    H2 8568   5.152   6.296   1.034
 2871TIP3   OH2 8569   2.332   2.024   5.760
 2871TIP3    H1 8570   2.362   2.076   5.835
 2871TIP3    H2 8571   2.242   2.000   5.783
 2872TIP3   OH2 8572   4.154   3.026   3.769
 2872TIP3    H1 8573   4.068   3.002   3.802
 2872TIP3    H2 8574   4.186   2.948   3.724
 2873TIP3   OH2 8575   4.786   6.935   3.670
 2873TIP3    H1 8576   4.870   6.920   3.626
 2873TIP3    H2 8577   4.810   6.959   3.759
 2874TIP3   OH2 8578   4.137   4.648   1.081
 2874TIP3    H1 8579   4.079   4.718   1.052
 2874TIP3    H2 8580   4.102   4.623   1.167
 2875TIP3   OH2 8581   1.279   6.317   0.417
 2875TIP3    H1 8582   1.280   6.243   0.477
 2875TIP3    H2 8583   1.329   6.287   0.341
 2876TIP3   OH2 8584   7.356   6.481   5.691
 2876TIP3    H1 8585   7.399   6.562   5.719
 2876TIP3    H2 8586   7.382   6.416   5.756
 2877TIP3   OH2 8587   7.003   7.738   5.424
 2877TIP3    H1 8588   6.921   7.784   5.442
 2877TIP3    H2 8589   7.011   7.675   5.495
 2878TIP3   OH2 8590   3.220   6.293   4.800
 2878TIP3    H1 8591   3.146   6.233   4.792
 2878TIP3    H2 8592   3.199   6.347   4.876
 2879TIP3   OH2 8593   5.103   7.652   0.859
 2879TIP3    H1 8594   5.158   7.641   0.781
 2879TIP3    H2 8595   5.037   7.583   0.851
 2880TIP3   OH2 8596   3.718   4.607   0.797
 2880TIP3    H1 8597   3.675   4.571   0.720
 2880TIP3    H2 8598   3.807   4.626   0.768
 2881TIP3   OH2 8599   4.522   4.268   1.444
 2881TIP3    H1 8600   4.586   4.206   1.480
 2881TIP3    H2 8601   4.496   4.230   1.360
 2882TIP3   OH2 8602   4.090   1.297   1.965
 2882TIP3    H1 8603   4.093   1.352   1.887
 2882TIP3    H2 8604   4.135   1.216   1.940
 2883TIP3   OH2 8605   5.132   6.882   5.752
 2883TIP3    H1 8606   5.052   6.924   5.720
 2883TIP3    H2 8607   5.126   6.793   5.719
 2884TIP3   OH2 8608   4.745   0.084   5.490
 2884TIP3    H1 8609   4.774   0.173   5.514
 2884TIP3    H2 8610   4.657   0.077   5.527
 2885TIP3   OH2 8611   7.226   5.304   3.819
 2885TIP3    H1 8612   7.202   5.318   3.727
 2885TIP3    H2 8613   7.143   5.293   3.864
 2886TIP3   OH2 8614   2.900   3.891   1.376
 2886TIP3    H1 8615   2.990   3.868   1.398
 2886TIP3    H2 8616   2.897   3.986   1.383
 2887TIP3   OH2 8617   4.951   0.274   5.554
 2887TIP3    H1 8618   5.014   0.230   5.497
 2887TIP3    H2 8619   4.990   0.269   5.641
 2888TIP3   OH2 8620   1.992   2.524   6.257
 2888TIP3    H1 8621   2.052   2.481   6.318
 2888TIP3    H2 8622   1.905   2.504   6.290
 2889TIP3   OH2 8623   3.137   2.651   4.853
 2889TIP3    H1 8624   3.204   2.670   4.787
 2889TIP3    H2 8625   3.178   2.588   4.912
 2890TIP3   OH2 8626   6.115   5.563   1.512
 2890TIP3    H1 8627   6.047   5.621   1.478
 2890TIP3    H2 8628   6.181   5.559   1.442
 2891TIP3   OH2 8629   7.224   7.242   3.496
 2891TIP3    H1 8630   7.191   7.316   3.547
 2891TIP3    H2 8631   7.171   7.167   3.524
 2892TIP3   OH2 8632   6.566   3.279   6.500
 2892TIP3    H1 8633   6.634   3.252   6.562
 2892TIP3    H2 8634   6.600   3.360   6.462
 2893TIP3   OH2 8635   5.537   5.173   3.619
 2893TIP3    H1 8636   5.551   5.267   3.628
 2893TIP3    H2 8637   5.503   5.146   3.704
 2894TIP3   OH2 8638   2.971   5.541   0.284
 2894TIP3    H1 8639   3.045   5.541   0.345
 2894TIP3    H2 8640   3.011   5.527   0.198
 2895TIP3   OH2 8641   1.481   5.295   3.746
 2895TIP3    H1 8642   1.418   5.299   3.674
 2895TIP3    H2 8643   1.565   5.314   3.705
 2896TIP3   OH2 8644   1.937   7.007   1.959
 2896TIP3    H1 8645   1.866   6.954   1.923
 2896TIP3    H2 8646   1.893   7.084   1.997
 2897TIP3   OH2 8647   0.097   4.806   2.588
 2897TIP3    H1 8648   0.054   4.744   2.529
 2897TIP3    H2 8649   0.110   4.885   2.535
 2898TIP3   OH2 8650   6.823   7.083   3.508
 2898TIP3    H1 8651   6.839   7.123   3.593
 2898TIP3    H2 8652   6.732   7.055   3.511
 2899TIP3   OH2 8653   0.823   5.482   2.833
 2899TIP3    H1 8654   0.760   5.489   2.761
 2899TIP3    H2 8655   0.774   5.507   2.911
 2900TIP3   OH2 8656   0.323   1.333   5.263
 2900TIP3    H1 8657   0.412   1.303   5.281
 2900TIP3    H2 8658   0.331   1.428   5.256
 2901TIP3   OH2 8659   2.402   3.539   5.769
 2901TIP3    H1 8660   2.392   3.600   5.843
 2901TIP3    H2 8661   2.417   3.454   5.811
 2902TIP3   OH2 8662   3.838   1.781   1.623
 2902TIP3    H1 8663   3.836   1.876   1.620
 2902TIP3    H2 8664   3.806   1.758   1.711
 2903TIP3   OH2 8665   0.175   5.334   6.638
 2903TIP3    H1 8666   0.117   5.407   6.613
 2903TIP3    H2 8667   0.214   5.363   6.721
 2904TIP3   OH2 8668   3.467   7.135   6.491
 2904TIP3    H1 8669   3.493   7.207   6.550
 2904TIP3    H2 8670   3.373   7.127   6.503
 2905TIP3   OH2 8671   6.546   7.559   0.541
 2905TIP3    H1 8672   6.543   7.653   0.523
 2905TIP3    H2 8673   6.501   7.518   0.467
 2906TIP3   OH2 8674   5.947   0.225   3.164
 2906TIP3    H1 8675   6.009   0.294   3.190
 2906TIP3    H2 8676   5.982   0.192   3.081
 2907TIP3   OH2 8677   2.143   2.516   6.493
 2907TIP3    H1 8678   2.198   2.443   6.467
 2907TIP3    H2 8679   2.201   2.574   6.542
 2908TIP3   OH2 8680   4.731   1.142   5.937
 2908TIP3    H1 8681   4.789   1.218   5.941
 2908TIP3    H2 8682   4.713   1.131   5.844
 2909TIP3   OH2 8683   7.074   3.805   2.513
 2909TIP3    H1 8684   6.985   3.830   2.537
 2909TIP3    H2 8685   7.123   3.887   2.517
 2910TIP3   OH2 8686   0.599   5.399   3.386
 2910TIP3    H1 8687   0.644   5.371   3.307
 2910TIP3    H2 8688   0.656   5.369   3.458
 2911TIP3   OH2 8689   0.420   6.339   1.725
 2911TIP3    H1 8690   0.496   6.360   1.779
 2911TIP3    H2 8691   0.436   6.387   1.643
 2912TIP3   OH2 8692   0.193   3.391   6.649
 2912TIP3    H1 8693   0.160   3.302   6.664
 2912TIP3    H2 8694   0.287   3.379   6.634
 2913TIP3   OH2 8695   6.511   4.323   0.927
 2913TIP3    H1 8696   6.591   4.375   0.935
 2913TIP3    H2 8697   6.538   4.243   0.883
 2914TIP3   OH2 8698   2.761   5.470   3.924
 2914TIP3    H1 8699   2.757   5.377   3.947
 2914TIP3    H2 8700   2.804   5.512   3.999
 2915TIP3   OH2 8701   6.479   6.414   4.709
 2915TIP3    H1 8702   6.404   6.356   4.697
 2915TIP3    H2 8703   6.555   6.356   4.711
 2916TIP3   OH2 8704   7.770   4.987   3.368
 2916TIP3    H1 8705   7.706   5.049   3.334
 2916TIP3    H2 8706   7.783   5.012   3.459
 2917TIP3   OH2 8707   7.324   7.399   5.110
 2917TIP3    H1 8708   7.275   7.477   5.135
 2917TIP3    H2 8709   7.415   7.426   5.115
 2918TIP3   OH2 8710   6.646   6.160   2.559
 2918TIP3    H1 8711   6.618   6.242   2.517
 2918TIP3    H2 8712   6.571   6.133   2.611
 2919TIP3   OH2 8713   6.886   4.017   4.974
 2919TIP3    H1 8714   6.979   4.006   4.991
 2919TIP3    H2 8715   6.861   3.938   4.926
 2920TIP3   OH2 8716   7.395   2.510   3.375
 2920TIP3    H1 8717   7.364   2.502   3.285
 2920TIP3    H2 8718   7.381   2.423   3.412
 2921TIP3   OH2 8719   6.920   2.477   3.414
 2921TIP3    H1 8720   6.937   2.416   3.486
 2921TIP3    H2 8721   6.829   2.503   3.425
 2922TIP3   OH2 8722   4.973   3.563   2.552
 2922TIP3    H1 8723   4.981   3.468   2.548
 2922TIP3    H2 8724   4.897   3.579   2.607
 2923TIP3   OH2 8725   5.495   3.248   1.578
 2923TIP3    H1 8726   5.443   3.311   1.527
 2923TIP3    H2 8727   5.489   3.279   1.668
 2924TIP3   OH2 8728   0.003   2.590   4.444
 2924TIP3    H1 8729   0.029   2.660   4.384
 2924TIP3    H2 8730   0.025   2.509   4.397
 2925TIP3   OH2 8731   2.609   0.178   2.809
 2925TIP3    H1 8732   2.538   0.231   2.845
 2925TIP3    H2 8733   2.689   0.220   2.839
 2926TIP3   OH2 8734   3.336   1.685   2.190
 2926TIP3    H1 8735   3.367   1.752   2.128
 2926TIP3    H2 8736   3.349   1.725   2.276
 2927TIP3   OH2 8737   2.696   0.961   2.554
 2927TIP3    H1 8738   2.619   1.019   2.549
 2927TIP3    H2 8739   2.725   0.970   2.645
 2928TIP3   OH2 8740   3.421   2.752   3.781
 2928TIP3    H1 8741   3.444   2.819   3.717
 2928TIP3    H2 8742   3.505   2.725   3.818
 2929TIP3   OH2 8743   2.229   6.625   4.429
 2929TIP3    H1 8744   2.294   6.576   4.379
 2929TIP3    H2 8745   2.181   6.558   4.477
 2930TIP3   OH2 8746   7.703   7.539   5.991
 2930TIP3    H1 8747   7.789   7.497   6.000
 2930TIP3    H2 8748   7.642   7.466   5.978
 2931TIP3   OH2 8749   5.400   6.790   6.607
 2931TIP3    H1 8750   5.440   6.738   6.538
 2931TIP3    H2 8751   5.428   6.880   6.588
 2932TIP3   OH2 8752   7.981   2.952   6.346
 2932TIP3    H1 8753   8.061   2.937   6.397
 2932TIP3    H2 8754   7.944   2.865   6.333
 2933TIP3   OH2 8755   1.642   3.205   3.376
 2933TIP3    H1 8756   1.615   3.210   3.284
 2933TIP3    H2 8757   1.647   3.296   3.404
 2934TIP3   OH2 8758   2.579   2.704   4.576
 2934TIP3    H1 8759   2.654   2.762   4.584
 2934TIP3    H2 8760   2.599   2.648   4.501
 2935TIP3   OH2 8761   0.552   5.926   6.097
 2935TIP3    H1 8762   0.495   5.977   6.039
 2935TIP3    H2 8763   0.510   5.840   6.102
 2936TIP3   OH2 8764   6.964   1.589   4.314
 2936TIP3    H1 8765   7.055   1.571   4.337
 2936TIP3    H2 8766   6.940   1.519   4.253
 2937TIP3   OH2 8767   4.091   7.212   1.282
 2937TIP3    H1 8768   4.097   7.305   1.259
 2937TIP3    H2 8769   4.122   7.166   1.204
 2938TIP3   OH2 8770   3.276   4.470   2.483
 2938TIP3    H1 8771   3.276   4.384   2.525
 2938TIP3    H2 8772   3.339   4.521   2.533
 2939TIP3   OH2 8773   5.833   7.102   2.556
 2939TIP3    H1 8774   5.912   7.153   2.573
 2939TIP3    H2 8775   5.854   7.013   2.584
 2940TIP3   OH2 8776   3.993   4.586   4.704
 2940TIP3    H1 8777   3.941   4.512   4.737
 2940TIP3    H2 8778   3.942   4.664   4.728
 2941TIP3   OH2 8779   4.435   2.535   5.593
 2941TIP3    H1 8780   4.432   2.456   5.538
 2941TIP3    H2 8781   4.356   2.530   5.646
 2942TIP3   OH2 8782   6.908   0.953   5.229
 2942TIP3    H1 8783   6.852   1.026   5.202
 2942TIP3    H2 8784   6.847   0.885   5.257
 2943TIP3   OH2 8785   3.023   2.090   5.909
 2943TIP3    H1 8786   2.985   2.066   5.824
 2943TIP3    H2 8787   3.113   2.059   5.904
 2944TIP3   OH2 8788   1.962   1.817   5.698
 2944TIP3    H1 8789   1.984   1.841   5.608
 2944TIP3    H2 8790   1.974   1.722   5.701
 2945TIP3   OH2 8791   2.133   2.715   0.394
 2945TIP3    H1 8792   2.096   2.670   0.318
 2945TIP3    H2 8793   2.063   2.772   0.425
 2946TIP3   OH2 8794   8.051   1.891   6.251
 2946TIP3    H1 8795   8.015   1.969   6.294
 2946TIP3    H2 8796   7.985   1.823   6.265
 2947TIP3   OH2 8797   0.219   1.429   0.804
 2947TIP3    H1 8798   0.132   1.400   0.778
 2947TIP3    H2 8799   0.206   1.474   0.887
 2948TIP3   OH2 8800   6.266   3.403   6.099
 2948TIP3    H1 8801   6.342   3.447   6.060
 2948TIP3    H2 8802   6.199   3.407   6.032
 2949TIP3   OH2 8803   2.206   3.182   0.858
 2949TIP3    H1 8804   2.184   3.269   0.891
 2949TIP3    H2 8805   2.149   3.169   0.783
 2950TIP3   OH2 8806   4.914   6.098   0.932
 2950TIP3    H1 8807   4.849   6.146   0.983
 2950TIP3    H2 8808   4.963   6.166   0.886
 2951TIP3   OH2 8809   0.837   7.380   4.115
 2951TIP3    H1 8810   0.745   7.359   4.104
 2951TIP3    H2 8811   0.859   7.435   4.040
 2952TIP3   OH2 8812   0.316   3.096   3.407
 2952TIP3    H1 8813   0.270   3.161   3.461
 2952TIP3    H2 8814   0.334   3.023   3.467
 2953TIP3   OH2 8815   4.428   3.919   0.778
 2953TIP3    H1 8816   4.494   3.891   0.715
 2953TIP3    H2 8817   4.420   3.845   0.839
 2954TIP3   OH2 8818   0.076   2.797   0.539
 2954TIP3    H1 8819   0.060   2.882   0.498
 2954TIP3    H2 8820   0.154   2.764   0.495
 2955TIP3   OH2 8821   7.811   3.373   0.923
 2955TIP3    H1 8822   7.858   3.359   1.005
 2955TIP3    H2 8823   7.872   3.424   0.869
 2956TIP3   OH2 8824   8.069   5.212   2.146
 2956TIP3    H1 8825   8.017   5.139   2.180
 2956TIP3    H2 8826   8.063   5.203   2.051
 2957TIP3   OH2 8827   7.865   0.861   6.437
 2957TIP3    H1 8828   7.822   0.778   6.416
 2957TIP3    H2 8829   7.854   0.914   6.358
 2958TIP3   OH2 8830   1.859   2.007   5.343
 2958TIP3    H1 8831   1.898   1.930   5.384
 2958TIP3    H2 8832   1.926   2.039   5.282
 2959TIP3   OH2 8833   6.099   2.391   4.410
 2959TIP3    H1 8834   6.138   2.394   4.497
 2959TIP3    H2 8835   6.093   2.298   4.389
 2960TIP3   OH2 8836   1.046   0.955   3.095
 2960TIP3    H1 8837   1.057   0.930   3.187
 2960TIP3    H2 8838   1.090   1.039   3.087
 2961TIP3   OH2 8839   1.321   3.895   3.036
 2961TIP3    H1 8840   1.303   3.900   3.130
 2961TIP3    H2 8841   1.415   3.912   3.028
 2962TIP3   OH2 8842   1.092   4.252   0.275
 2962TIP3    H1 8843   1.151   4.213   0.338
 2962TIP3    H2 8844   1.118   4.344   0.271
 2963TIP3   OH2 8845   3.711   2.096   4.849
 2963TIP3    H1 8846   3.646   2.060   4.788
 2963TIP3    H2 8847   3.788   2.040   4.839
 2964TIP3   OH2 8848   1.782   7.693   0.774
 2964TIP3    H1 8849   1.755   7.746   0.700
 2964TIP3    H2 8850   1.788   7.754   0.847
 2965TIP3   OH2 8851   2.666   1.320   4.614
 2965TIP3    H1 8852   2.619   1.237   4.625
 2965TIP3    H2 8853   2.749   1.307   4.659
 2966TIP3   OH2 8854   7.143   4.272   0.243
 2966TIP3    H1 8855   7.049   4.289   0.244
 2966TIP3    H2 8856   7.174   4.309   0.161
 2967TIP3   OH2 8857   6.820   0.795   4.823
 2967TIP3    H1 8858   6.843   0.765   4.735
 2967TIP3    H2 8859   6.861   0.732   4.881
 2968TIP3   OH2 8860   7.308   3.891   0.168
 2968TIP3    H1 8861   7.339   3.949   0.238
 2968TIP3    H2 8862   7.316   3.944   0.088
 2969TIP3   OH2 8863   6.266   4.727   2.817
 2969TIP3    H1 8864   6.332   4.758   2.754
 2969TIP3    H2 8865   6.310   4.735   2.902
 2970TIP3   OH2 8866   7.529   5.557   1.418
 2970TIP3    H1 8867   7.576   5.473   1.415
 2970TIP3    H2 8868   7.542   5.588   1.507
 2971TIP3   OH2 8869   1.822   3.991   5.661
 2971TIP3    H1 8870   1.848   3.921   5.602
 2971TIP3    H2 8871   1.866   4.069   5.627
 2972TIP3   OH2 8872   0.137   1.625   3.305
 2972TIP3    H1 8873   0.213   1.576   3.273
 2972TIP3    H2 8874   0.064   1.593   3.252
 2973TIP3   OH2 8875   2.102   0.966   4.560
 2973TIP3    H1 8876   2.062   0.881   4.580
 2973TIP3    H2 8877   2.191   0.944   4.531
 2974TIP3   OH2 8878   1.677   2.831   6.104
 2974TIP3    H1 8879   1.750   2.887   6.130
 2974TIP3    H2 8880   1.602   2.865   6.152
 2975TIP3   OH2 8881   0.187   6.647   2.502
 2975TIP3    H1 8882   0.146   6.562   2.490
 2975TIP3    H2 8883   0.264   6.630   2.556
 2976TIP3   OH2 8884   7.233   6.248   3.051
 2976TIP3    H1 8885   7.325   6.276   3.053
 2976TIP3    H2 8886   7.237   6.153   3.046
 2977TIP3   OH2 8887   8.264   0.408   0.472
 2977TIP3    H1 8888   8.194   0.462   0.435
 2977TIP3    H2 8889   8.243   0.319   0.444
 2978TIP3   OH2 8890   2.262   1.295   4.971
 2978TIP3    H1 8891   2.294   1.260   5.054
 2978TIP3    H2 8892   2.325   1.264   4.906
 2979TIP3   OH2 8893   3.802   6.797   3.706
 2979TIP3    H1 8894   3.846   6.815   3.790
 2979TIP3    H2 8895   3.712   6.827   3.720
 2980TIP3   OH2 8896   6.579   4.759   0.287
 2980TIP3    H1 8897   6.552   4.744   0.377
 2980TIP3    H2 8898   6.551   4.849   0.269
 2981TIP3   OH2 8899   7.673   4.385   6.764
 2981TIP3    H1 8900   7.673   4.330   6.842
 2981TIP3    H2 8901   7.626   4.464   6.790
 2982TIP3   OH2 8902   2.272   5.416   2.539
 2982TIP3    H1 8903   2.319   5.378   2.465
 2982TIP3    H2 8904   2.197   5.358   2.552
 2983TIP3   OH2 8905   4.262   4.841   3.138
 2983TIP3    H1 8906   4.256   4.772   3.204
 2983TIP3    H2 8907   4.342   4.822   3.090
 2984TIP3   OH2 8908   8.272   3.003   4.034
 2984TIP3    H1 8909   8.235   2.964   3.955
 2984TIP3    H2 8910   8.349   2.950   4.053
 2985TIP3   OH2 8911   0.994   5.445   1.334
 2985TIP3    H1 8912   0.932   5.393   1.282
 2985TIP3    H2 8913   0.979   5.417   1.424
 2986TIP3   OH2 8914   7.687   3.338   0.697
 2986TIP3    H1 8915   7.737   3.345   0.778
 2986TIP3    H2 8916   7.624   3.268   0.714
 2987TIP3   OH2 8917   0.130   1.538   1.045
 2987TIP3    H1 8918   0.129   1.449   1.080
 2987TIP3    H2 8919   0.210   1.577   1.079
 2988TIP3   OH2 8920   0.102   5.097   3.805
 2988TIP3    H1 8921   0.072   5.007   3.818
 2988TIP3    H2 8922   0.025   5.151   3.820
 2989TIP3   OH2 8923   2.303   2.938   2.175
 2989TIP3    H1 8924   2.334   2.987   2.252
 2989TIP3    H2 8925   2.208   2.940   2.182
 2990TIP3   OH2 8926   1.396   2.707   6.136
 2990TIP3    H1 8927   1.421   2.786   6.184
 2990TIP3    H2 8928   1.411   2.729   6.044
 2991TIP3   OH2 8929   2.224   5.503   1.039
 2991TIP3    H1 8930   2.290   5.466   0.981
 2991TIP3    H2 8931   2.150   5.522   0.982
 2992TIP3   OH2 8932   2.493   3.528   3.861
 2992TIP3    H1 8933   2.511   3.446   3.907
 2992TIP3    H2 8934   2.398   3.530   3.852
 2993TIP3   OH2 8935   6.619   7.402   1.326
 2993TIP3    H1 8936   6.548   7.339   1.331
 2993TIP3    H2 8937   6.678   7.368   1.259
 2994TIP3   OH2 8938   5.717   0.763   4.250
 2994TIP3    H1 8939   5.664   0.699   4.203
 2994TIP3    H2 8940   5.691   0.754   4.341
 2995TIP3   OH2 8941   7.629   1.739   0.075
 2995TIP3    H1 8942   7.543   1.763   0.040
 2995TIP3    H2 8943   7.683   1.723  -0.002
 2996TIP3   OH2 8944   1.600   3.206   4.322
 2996TIP3    H1 8945   1.528   3.254   4.282
 2996TIP3    H2 8946   1.597   3.119   4.281
 2997TIP3   OH2 8947   1.923   3.896   2.823
 2997TIP3    H1 8948   1.854   3.959   2.841
 2997TIP3    H2 8949   1.963   3.925   2.741
 2998TIP3   OH2 8950   1.579   1.919   2.010
 2998TIP3    H1 8951   1.574   1.950   2.101
 2998TIP3    H2 8952   1.621   1.833   2.017
 2999TIP3   OH2 8953   1.623   6.320   0.682
 2999TIP3    H1 8954   1.597   6.230   0.661
 2999TIP3    H2 8955   1.678   6.346   0.609
 3000TIP3   OH2 8956   7.162   3.894   4.860
 3000TIP3    H1 8957   7.199   3.822   4.911
 3000TIP3    H2 8958   7.095   3.853   4.806
 3001TIP3   OH2 8959   0.723   0.167   0.449
 3001TIP3    H1 8960   0.678   0.084   0.466
 3001TIP3    H2 8961   0.798   0.166   0.508
 3002TIP3   OH2 8962   2.180   1.954   2.197
 3002TIP3    H1 8963   2.214   1.944   2.286
 3002TIP3    H2 8964   2.139   2.040   2.196
 3003TIP3   OH2 8965   0.947   6.714   4.841
 3003TIP3    H1 8966   0.900   6.769   4.778
 3003TIP3    H2 8967   1.025   6.764   4.864
 3004TIP3   OH2 8968   7.101   5.614   1.762
 3004TIP3    H1 8969   7.049   5.683   1.803
 3004TIP3    H2 8970   7.191   5.633   1.788
 3005TIP3   OH2 8971   3.330   6.828   1.819
 3005TIP3    H1 8972   3.398   6.805   1.882
 3005TIP3    H2 8973   3.255   6.853   1.872
 3006TIP3   OH2 8974   5.759   3.961   6.523
 3006TIP3    H1 8975   5.815   4.035   6.499
 3006TIP3    H2 8976   5.761   3.959   6.619
 3007TIP3   OH2 8977   6.802   6.000   1.948
 3007TIP3    H1 8978   6.707   6.005   1.962
 3007TIP3    H2 8979   6.830   6.091   1.940
 3008TIP3   OH2 8980   4.851   7.636   3.327
 3008TIP3    H1 8981   4.882   7.690   3.399
 3008TIP3    H2 8982   4.763   7.609   3.353
 3009TIP3   OH2 8983   8.067   6.024   0.865
 3009TIP3    H1 8984   8.132   5.963   0.830
 3009TIP3    H2 8985   8.063   6.095   0.800
 3010TIP3   OH2 8986   4.368   0.850   3.016
 3010TIP3    H1 8987   4.352   0.856   3.110
 3010TIP3    H2 8988   4.416   0.768   3.005
 3011TIP3   OH2 8989   4.243   0.438   2.735
 3011TIP3    H1 8990   4.294   0.402   2.808
 3011TIP3    H2 8991   4.186   0.366   2.707
 3012TIP3   OH2 8992   5.868   3.124   5.400
 3012TIP3    H1 8993   5.835   3.154   5.316
 3012TIP3    H2 8994   5.826   3.181   5.464
 3013TIP3   OH2 8995   6.167   7.699   2.762
 3013TIP3    H1 8996   6.216   7.764   2.711
 3013TIP3    H2 8997   6.183   7.722   2.853
 3014TIP3   OH2 8998   5.519   7.680   5.424
 3014TIP3    H1 8999   5.442   7.636   5.389
 3014TIP3    H2 9000   5.485   7.756   5.471
 3015TIP3   OH2 9001   0.282   1.578   4.487
 3015TIP3    H1 9002   0.252   1.558   4.576
 3015TIP3    H2 9003   0.361   1.631   4.499
 3016TIP3   OH2 9004   5.070   4.055   2.574
 3016TIP3    H1 9005   5.050   4.073   2.666
 3016TIP3    H2 9006   4.997   4.001   2.544
 3017TIP3   OH2 9007   0.995   2.894   5.921
 3017TIP3    H1 9008   1.046   2.974   5.907
 3017TIP3    H2 9009   1.030   2.832   5.857
 3018TIP3   OH2 9010   1.941   2.846   0.526
 3018TIP3    H1 9011   1.913   2.772   0.580
 3018TIP3    H2 9012   1.875   2.913   0.542
 3019TIP3   OH2 9013   6.195   1.420   1.736
 3019TIP3    H1 9014   6.248   1.387   1.809
 3019TIP3    H2 9015   6.254   1.419   1.661
 3020TIP3   OH2 9016   4.432   4.249   3.662
 3020TIP3    H1 9017   4.377   4.182   3.701
 3020TIP3    H2 9018   4.442   4.315   3.731
 3021TIP3   OH2 9019   4.307   7.338   4.252
 3021TIP3    H1 9020   4.303   7.406   4.319
 3021TIP3    H2 9021   4.362   7.377   4.183
 3022TIP3   OH2 9022   0.228   7.769   5.936
 3022TIP3    H1 9023   0.209   7.754   6.028
 3022TIP3    H2 9024   0.144   7.794   5.897
 3023TIP3   OH2 9025   2.718   6.447   3.193
 3023TIP3    H1 9026   2.692   6.502   3.119
 3023TIP3    H2 9027   2.707   6.357   3.162
 3024TIP3   OH2 9028   0.547   1.815   5.951
 3024TIP3    H1 9029   0.630   1.824   5.905
 3024TIP3    H2 9030   0.518   1.726   5.932
 3025TIP3   OH2 9031   0.552   6.002   2.332
 3025TIP3    H1 9032   0.631   6.049   2.358
 3025TIP3    H2 9033   0.487   6.071   2.318
 3026TIP3   OH2 9034   1.241   1.438   6.551
 3026TIP3    H1 9035   1.234   1.498   6.625
 3026TIP3    H2 9036   1.325   1.394   6.562
 3027TIP3   OH2 9037   6.387   1.173   3.839
 3027TIP3    H1 9038   6.395   1.129   3.924
 3027TIP3    H2 9039   6.292   1.183   3.826
 3028TIP3   OH2 9040   4.964   7.607   1.916
 3028TIP3    H1 9041   5.053   7.581   1.892
 3028TIP3    H2 9042   4.969   7.702   1.930
 3029TIP3   OH2 9043   5.442   3.651   1.893
 3029TIP3    H1 9044   5.443   3.606   1.808
 3029TIP3    H2 9045   5.450   3.581   1.957
 3030TIP3   OH2 9046   1.598   2.988   4.172
 3030TIP3    H1 9047   1.536   2.991   4.099
 3030TIP3    H2 9048   1.683   2.980   4.131
 3031TIP3   OH2 9049   2.890   4.366   0.788
 3031TIP3    H1 9050   2.826   4.421   0.743
 3031TIP3    H2 9051   2.931   4.315   0.718
 3032TIP3   OH2 9052   1.171   4.517   4.330
 3032TIP3    H1 9053   1.244   4.576   4.312
 3032TIP3    H2 9054   1.169   4.458   4.255
 3033TIP3   OH2 9055   3.424   0.565   1.765
 3033TIP3    H1 9056   3.373   0.519   1.698
 3033TIP3    H2 9057   3.512   0.568   1.729
 3034TIP3   OH2 9058   1.204   3.215   2.455
 3034TIP3    H1 9059   1.173   3.176   2.374
 3034TIP3    H2 9060   1.222   3.306   2.431
 3035TIP3   OH2 9061   4.733   7.629   4.005
 3035TIP3    H1 9062   4.661   7.646   4.065
 3035TIP3    H2 9063   4.783   7.712   4.004
 3036TIP3   OH2 9064   2.446   7.497   0.685
 3036TIP3    H1 9065   2.443   7.579   0.733
 3036TIP3    H2 9066   2.516   7.509   0.621
 3037TIP3   OH2 9067   5.388   1.106   4.566
 3037TIP3    H1 9068   5.407   1.031   4.511
 3037TIP3    H2 9069   5.429   1.085   4.650
 3038TIP3   OH2 9070   8.299   4.836   1.688
 3038TIP3    H1 9071   8.363   4.829   1.617
 3038TIP3    H2 9072   8.236   4.901   1.657
 3039TIP3   OH2 9073   6.726   7.364   4.749
 3039TIP3    H1 9074   6.631   7.369   4.749
 3039TIP3    H2 9075   6.745   7.276   4.717
 3040TIP3   OH2 9076   0.117   4.882   1.434
 3040TIP3    H1 9077   0.167   4.871   1.354
 3040TIP3    H2 9078   0.112   4.977   1.447
 3041TIP3   OH2 9079   2.415   1.768   0.775
 3041TIP3    H1 9080   2.363   1.748   0.697
 3041TIP3    H2 9081   2.492   1.712   0.767
 3042TIP3   OH2 9082   0.430   4.952   5.698
 3042TIP3    H1 9083   0.443   5.003   5.618
 3042TIP3    H2 9084   0.505   4.893   5.702
 3043TIP3   OH2 9085   5.723   4.551   3.675
 3043TIP3    H1 9086   5.728   4.456   3.688
 3043TIP3    H2 9087   5.787   4.569   3.606
 3044TIP3   OH2 9088   4.201   1.459   4.751
 3044TIP3    H1 9089   4.138   1.496   4.689
 3044TIP3    H2 9090   4.151   1.449   4.833
 3045TIP3   OH2 9091   7.270   4.405   6.163
 3045TIP3    H1 9092   7.295   4.344   6.232
 3045TIP3    H2 9093   7.200   4.361   6.116
 3046TIP3   OH2 9094   3.438   4.534   1.658
 3046TIP3    H1 9095   3.530   4.513   1.644
 3046TIP3    H2 9096   3.439   4.609   1.716
 3047TIP3   OH2 9097   4.439   3.750   1.006
 3047TIP3    H1 9098   4.527   3.783   1.021
 3047TIP3    H2 9099   4.395   3.757   1.091
 3048TIP3   OH2 9100   1.931   2.478   6.000
 3048TIP3    H1 9101   1.948   2.518   6.086
 3048TIP3    H2 9102   2.004   2.506   5.946
 3049TIP3   OH2 9103   1.358   5.800   5.677
 3049TIP3    H1 9104   1.431   5.821   5.735
 3049TIP3    H2 9105   1.310   5.732   5.723
 3050TIP3   OH2 9106   0.752   0.311   6.397
 3050TIP3    H1 9107   0.806   0.263   6.460
 3050TIP3    H2 9108   0.720   0.387   6.446
 3051TIP3   OH2 9109   4.211   7.547   0.093
 3051TIP3    H1 9110   4.247   7.458   0.087
 3051TIP3    H2 9111   4.118   7.533   0.111
 3052TIP3   OH2 9112   2.367   7.630   0.119
 3052TIP3    H1 9113   2.432   7.696   0.099
 3052TIP3    H2 9114   2.350   7.586   0.036
 3053TIP3   OH2 9115   6.287   2.993   1.305
 3053TIP3    H1 9116   6.363   3.012   1.249
 3053TIP3    H2 9117   6.271   2.899   1.292
 3054TIP3   OH2 9118   4.159   3.769   1.942
 3054TIP3    H1 9119   4.252   3.760   1.965
 3054TIP3    H2 9120   4.140   3.692   1.888
 3055TIP3   OH2 9121   7.968   3.389   4.275
 3055TIP3    H1 9122   7.996   3.419   4.189
 3055TIP3    H2 9123   8.039   3.414   4.334
 3056TIP3   OH2 9124   7.352   3.547   3.345
 3056TIP3    H1 9125   7.333   3.463   3.388
 3056TIP3    H2 9126   7.418   3.587   3.401
 3057TIP3   OH2 9127   4.982   2.070   5.723
 3057TIP3    H1 9128   4.942   2.156   5.739
 3057TIP3    H2 9129   5.025   2.049   5.806
 3058TIP3   OH2 9130   8.099   7.177   3.037
 3058TIP3    H1 9131   8.115   7.259   2.989
 3058TIP3    H2 9132   8.183   7.157   3.078
 3059TIP3   OH2 9133   4.948   1.935   2.539
 3059TIP3    H1 9134   5.034   1.940   2.581
 3059TIP3    H2 9135   4.899   2.009   2.576
 3060TIP3   OH2 9136   8.026   4.597   1.717
 3060TIP3    H1 9137   8.110   4.556   1.699
 3060TIP3    H2 9138   7.962   4.526   1.709
 3061TIP3   OH2 9139   7.939   1.185   4.120
 3061TIP3    H1 9140   7.929   1.209   4.212
 3061TIP3    H2 9141   7.911   1.264   4.072
 3062TIP3   OH2 9142   7.690   3.436   3.194
 3062TIP3    H1 9143   7.617   3.468   3.139
 3062TIP3    H2 9144   7.720   3.514   3.241
 3063TIP3   OH2 9145   6.506   5.314   4.032
 3063TIP3    H1 9146   6.457   5.256   3.975
 3063TIP3    H2 9147   6.491   5.279   4.120
 3064TIP3   OH2 9148   2.549   3.075   2.673
 3064TIP3    H1 9149   2.597   3.003   2.631
 3064TIP3    H2 9150   2.462   3.038   2.690
 3065TIP3   OH2 9151   6.478   0.820   2.909
 3065TIP3    H1 9152   6.474   0.788   2.999
 3065TIP3    H2 9153   6.571   0.838   2.893
 3066TIP3   OH2 9154   6.693   6.446   3.751
 3066TIP3    H1 9155   6.776   6.455   3.798
 3066TIP3    H2 9156   6.636   6.400   3.813
 3067TIP3   OH2 9157   1.998   2.375   4.221
 3067TIP3    H1 9158   1.957   2.451   4.181
 3067TIP3    H2 9159   1.966   2.375   4.311
 3068TIP3   OH2 9160   6.854   5.178   1.827
 3068TIP3    H1 9161   6.777   5.227   1.800
 3068TIP3    H2 9162   6.925   5.212   1.773
 3069TIP3   OH2 9163   0.980   7.424   4.854
 3069TIP3    H1 9164   0.985   7.504   4.801
 3069TIP3    H2 9165   0.979   7.455   4.944
 3070TIP3   OH2 9166   4.114   4.656   2.252
 3070TIP3    H1 9167   4.034   4.675   2.300
 3070TIP3    H2 9168   4.119   4.724   2.185
 3071TIP3   OH2 9169   6.990   0.240   4.063
 3071TIP3    H1 9170   6.949   0.298   4.128
 3071TIP3    H2 9171   7.084   0.257   4.071
 3072TIP3   OH2 9172   4.176   7.829   0.774
 3072TIP3    H1 9173   4.127   7.775   0.836
 3072TIP3    H2 9174   4.266   7.826   0.806
 3073TIP3   OH2 9175   0.940   6.979   4.364
 3073TIP3    H1 9176   1.005   7.034   4.410
 3073TIP3    H2 9177   0.872   7.040   4.337
 3074TIP3   OH2 9178   6.543   3.726   4.427
 3074TIP3    H1 9179   6.620   3.732   4.483
 3074TIP3    H2 9180   6.534   3.814   4.390
 3075TIP3   OH2 9181   1.823   4.264   2.816
 3075TIP3    H1 9182   1.861   4.346   2.847
 3075TIP3    H2 9183   1.793   4.283   2.727
 3076TIP3   OH2 9184   2.461   0.636   1.643
 3076TIP3    H1 9185   2.398   0.708   1.645
 3076TIP3    H2 9186   2.543   0.675   1.674
 3077TIP3   OH2 9187   6.256   4.418   2.723
 3077TIP3    H1 9188   6.330   4.453   2.772
 3077TIP3    H2 9189   6.253   4.471   2.643
 3078TIP3   OH2 9190   3.522   5.512   0.348
 3078TIP3    H1 9191   3.560   5.438   0.396
 3078TIP3    H2 9192   3.598   5.564   0.320
 3079TIP3   OH2 9193   7.490   2.720   2.131
 3079TIP3    H1 9194   7.471   2.776   2.055
 3079TIP3    H2 9195   7.580   2.744   2.156
 3080TIP3   OH2 9196   3.372   5.557   4.118
 3080TIP3    H1 9197   3.336   5.472   4.146
 3080TIP3    H2 9198   3.294   5.610   4.100
 3081TIP3   OH2 9199   8.185   5.403   6.346
 3081TIP3    H1 9200   8.255   5.350   6.307
 3081TIP3    H2 9201   8.214   5.493   6.333
 3082TIP3   OH2 9202   1.599   2.087   6.166
 3082TIP3    H1 9203   1.512   2.127   6.161
 3082TIP3    H2 9204   1.655   2.147   6.117
 3083TIP3   OH2 9205   6.970   5.779   0.415
 3083TIP3    H1 9206   6.894   5.763   0.470
 3083TIP3    H2 9207   7.031   5.709   0.436
 3084TIP3   OH2 9208   7.503   1.872   3.028
 3084TIP3    H1 9209   7.590   1.852   2.994
 3084TIP3    H2 9210   7.510   1.961   3.062
 3085TIP3   OH2 9211   6.188   3.013   1.693
 3085TIP3    H1 9212   6.210   2.950   1.763
 3085TIP3    H2 9213   6.159   2.958   1.620
 3086TIP3   OH2 9214   6.914   3.494   5.711
 3086TIP3    H1 9215   6.981   3.426   5.722
 3086TIP3    H2 9216   6.849   3.455   5.653
 3087TIP3   OH2 9217   6.094   5.321   6.216
 3087TIP3    H1 9218   6.036   5.269   6.271
 3087TIP3    H2 9219   6.046   5.402   6.199
 3088TIP3   OH2 9220   1.742   6.730   4.366
 3088TIP3    H1 9221   1.803   6.669   4.325
 3088TIP3    H2 9222   1.796   6.803   4.395
 3089TIP3   OH2 9223   4.341   6.435   2.736
 3089TIP3    H1 9224   4.308   6.521   2.763
 3089TIP3    H2 9225   4.343   6.385   2.817
 3090TIP3   OH2 9226   1.712   3.124   6.185
 3090TIP3    H1 9227   1.801   3.093   6.200
 3090TIP3    H2 9228   1.704   3.201   6.242
 3091TIP3   OH2 9229   4.019   2.158   1.892
 3091TIP3    H1 9230   4.088   2.224   1.886
 3091TIP3    H2 9231   4.062   2.082   1.932
 3092TIP3   OH2 9232   8.255   3.365   0.495
 3092TIP3    H1 9233   8.226   3.364   0.404
 3092TIP3    H2 9234   8.348   3.389   0.490
 3093TIP3   OH2 9235   7.398   3.726   1.993
 3093TIP3    H1 9236   7.323   3.692   2.041
 3093TIP3    H2 9237   7.461   3.750   2.061
 3094TIP3   OH2 9238   6.194   2.229   3.916
 3094TIP3    H1 9239   6.142   2.214   3.995
 3094TIP3    H2 9240   6.270   2.277   3.947
 3095TIP3   OH2 9241   4.167   6.444   1.209
 3095TIP3    H1 9242   4.165   6.415   1.301
 3095TIP3    H2 9243   4.084   6.490   1.197
 3096TIP3   OH2 9244   7.548   4.522   4.789
 3096TIP3    H1 9245   7.578   4.499   4.701
 3096TIP3    H2 9246   7.594   4.460   4.846
 3097TIP3   OH2 9247   3.410   7.462   0.371
 3097TIP3    H1 9248   3.386   7.394   0.434
 3097TIP3    H2 9249   3.505   7.470   0.379
 3098TIP3   OH2 9250   0.788   7.595   2.108
 3098TIP3    H1 9251   0.715   7.597   2.170
 3098TIP3    H2 9252   0.775   7.514   2.058
 3099TIP3   OH2 9253   2.446   5.557   5.624
 3099TIP3    H1 9254   2.520   5.596   5.671
 3099TIP3    H2 9255   2.466   5.572   5.532
 3100TIP3   OH2 9256   6.986   0.782   5.762
 3100TIP3    H1 9257   7.057   0.836   5.797
 3100TIP3    H2 9258   6.996   0.697   5.806
 3101TIP3   OH2 9259   0.564   6.011   3.083
 3101TIP3    H1 9260   0.505   6.010   3.158
 3101TIP3    H2 9261   0.616   5.931   3.091
 3102TIP3   OH2 9262   6.049   3.422   0.568
 3102TIP3    H1 9263   6.137   3.400   0.537
 3102TIP3    H2 9264   5.990   3.387   0.501
 3103TIP3   OH2 9265   6.330   4.014   1.727
 3103TIP3    H1 9266   6.299   4.058   1.649
 3103TIP3    H2 9267   6.398   4.072   1.762
 3104TIP3   OH2 9268   4.816   0.257   0.884
 3104TIP3    H1 9269   4.809   0.342   0.927
 3104TIP3    H2 9270   4.729   0.218   0.891
 3105TIP3   OH2 9271   2.818   2.784   0.008
 3105TIP3    H1 9272   2.735   2.820  -0.025
 3105TIP3    H2 9273   2.885   2.831  -0.041
 3106TIP3   OH2 9274   2.721   1.418   6.031
 3106TIP3    H1 9275   2.772   1.491   6.066
 3106TIP3    H2 9276   2.740   1.418   5.937
 3107TIP3   OH2 9277   2.317   4.896   5.071
 3107TIP3    H1 9278   2.271   4.901   4.987
 3107TIP3    H2 9279   2.262   4.946   5.132
 3108TIP3   OH2 9280   2.872   6.630   0.085
 3108TIP3    H1 9281   2.956   6.587   0.101
 3108TIP3    H2 9282   2.837   6.647   0.173
 3109TIP3   OH2 9283   6.208   6.570   1.809
 3109TIP3    H1 9284   6.121   6.611   1.814
 3109TIP3    H2 9285   6.222   6.554   1.716
 3110TIP3   OH2 9286   3.652   2.055   5.741
 3110TIP3    H1 9287   3.698   2.101   5.671
 3110TIP3    H2 9288   3.718   2.045   5.810
 3111TIP3   OH2 9289   3.253   0.109   5.655
 3111TIP3    H1 9290   3.190   0.123   5.584
 3111TIP3    H2 9291   3.283   0.019   5.643
 3112TIP3   OH2 9292   2.137   7.340   4.010
 3112TIP3    H1 9293   2.176   7.372   4.091
 3112TIP3    H2 9294   2.049   7.378   4.009
 3113TIP3   OH2 9295   4.839   0.173   2.813
 3113TIP3    H1 9296   4.823   0.080   2.801
 3113TIP3    H2 9297   4.787   0.197   2.890
 3114TIP3   OH2 9298   0.895   1.103   1.589
 3114TIP3    H1 9299   0.922   1.087   1.499
 3114TIP3    H2 9300   0.804   1.132   1.582
 3115TIP3   OH2 9301   6.310   6.056   5.853
 3115TIP3    H1 9302   6.290   6.121   5.785
 3115TIP3    H2 9303   6.311   5.973   5.807
 3116TIP3   OH2 9304   6.409   5.913   0.988
 3116TIP3    H1 9305   6.369   5.952   0.910
 3116TIP3    H2 9306   6.497   5.889   0.960
 3117TIP3   OH2 9307   7.134   1.556   5.802
 3117TIP3    H1 9308   7.154   1.516   5.717
 3117TIP3    H2 9309   7.112   1.483   5.859
 3118TIP3   OH2 9310   5.991   1.732   2.583
 3118TIP3    H1 9311   5.944   1.652   2.607
 3118TIP3    H2 9312   6.073   1.727   2.632
 3119TIP3   OH2 9313   2.688   2.518   2.365
 3119TIP3    H1 9314   2.702   2.611   2.349
 3119TIP3    H2 9315   2.648   2.484   2.285
 3120TIP3   OH2 9316   4.801   6.246   2.451
 3120TIP3    H1 9317   4.825   6.174   2.392
 3120TIP3    H2 9318   4.853   6.320   2.422
 3121TIP3   OH2 9319   2.276   3.487   3.450
 3121TIP3    H1 9320   2.213   3.417   3.427
 3121TIP3    H2 9321   2.359   3.441   3.463
 3122TIP3   OH2 9322   5.226   1.653   6.486
 3122TIP3    H1 9323   5.213   1.658   6.581
 3122TIP3    H2 9324   5.209   1.742   6.455
 3123TIP3   OH2 9325   0.954   1.423   1.390
 3123TIP3    H1 9326   1.016   1.437   1.462
 3123TIP3    H2 9327   1.004   1.377   1.323
 3124TIP3   OH2 9328   0.524   0.900   0.036
 3124TIP3    H1 9329   0.543   0.990   0.062
 3124TIP3    H2 9330   0.603   0.851   0.058
 3125TIP3   OH2 9331   5.821   7.420   3.204
 3125TIP3    H1 9332   5.826   7.475   3.126
 3125TIP3    H2 9333   5.897   7.362   3.197
 3126TIP3   OH2 9334   0.646   6.486   0.123
 3126TIP3    H1 9335   0.685   6.406   0.156
 3126TIP3    H2 9336   0.692   6.503   0.040
 3127TIP3   OH2 9337   7.012   6.169   2.888
 3127TIP3    H1 9338   7.092   6.213   2.918
 3127TIP3    H2 9339   6.987   6.113   2.962
 3128TIP3   OH2 9340   6.039   0.715   4.452
 3128TIP3    H1 9341   6.065   0.740   4.541
 3128TIP3    H2 9342   5.993   0.632   4.463
 3129TIP3   OH2 9343   4.010   5.530   0.715
 3129TIP3    H1 9344   3.963   5.499   0.792
 3129TIP3    H2 9345   3.945   5.529   0.645
 3130TIP3   OH2 9346   6.407   0.034   0.426
 3130TIP3    H1 9347   6.454   0.116   0.410
 3130TIP3    H2 9348   6.465  -0.033   0.388
 3131TIP3   OH2 9349   3.580   4.336   1.311
 3131TIP3    H1 9350   3.485   4.331   1.314
 3131TIP3    H2 9351   3.601   4.428   1.327
 3132TIP3   OH2 9352   6.787   2.380   1.181
 3132TIP3    H1 9353   6.835   2.321   1.239
 3132TIP3    H2 9354   6.854   2.434   1.140
 3133TIP3   OH2 9355   3.640   5.595   6.087
 3133TIP3    H1 9356   3.729   5.620   6.110
 3133TIP3    H2 9357   3.587   5.672   6.109
 3134TIP3   OH2 9358   1.455   0.372   3.750
 3134TIP3    H1 9359   1.510   0.418   3.814
 3134TIP3    H2 9360   1.511   0.302   3.718
 3135TIP3   OH2 9361   1.378   3.014   5.506
 3135TIP3    H1 9362   1.396   3.066   5.428
 3135TIP3    H2 9363   1.435   3.052   5.574
 3136TIP3   OH2 9364   2.343   3.909   2.725
 3136TIP3    H1 9365   2.262   3.937   2.767
 3136TIP3    H2 9366   2.317   3.837   2.667
 3137TIP3   OH2 9367   3.125   2.366   5.810
 3137TIP3    H1 9368   3.084   2.408   5.735
 3137TIP3    H2 9369   3.096   2.274   5.804
 3138TIP3   OH2 9370   2.560   3.424   0.855
 3138TIP3    H1 9371   2.648   3.418   0.892
 3138TIP3    H2 9372   2.571   3.482   0.779
 3139TIP3   OH2 9373   2.416   5.296   3.556
 3139TIP3    H1 9374   2.505   5.263   3.569
 3139TIP3    H2 9375   2.425   5.366   3.491
 3140TIP3   OH2 9376   6.606   3.225   4.525
 3140TIP3    H1 9377   6.543   3.260   4.462
 3140TIP3    H2 9378   6.570   3.140   4.550
 3141TIP3   OH2 9379   6.008   6.071   0.849
 3141TIP3    H1 9380   5.977   5.999   0.794
 3141TIP3    H2 9381   5.984   6.044   0.938
 3142TIP3   OH2 9382   5.632   1.377   5.533
 3142TIP3    H1 9383   5.628   1.417   5.620
 3142TIP3    H2 9384   5.576   1.300   5.540
 3143TIP3   OH2 9385   7.703   4.697   0.881
 3143TIP3    H1 9386   7.750   4.779   0.890
 3143TIP3    H2 9387   7.644   4.711   0.807
 3144TIP3   OH2 9388   6.357   3.551   3.257
 3144TIP3    H1 9389   6.377   3.470   3.212
 3144TIP3    H2 9390   6.438   3.574   3.303
 3145TIP3   OH2 9391   1.292   3.815   6.509
 3145TIP3    H1 9392   1.340   3.737   6.482
 3145TIP3    H2 9393   1.207   3.783   6.539
 3146TIP3   OH2 9394   6.245   2.050   1.785
 3146TIP3    H1 9395   6.249   2.123   1.724
 3146TIP3    H2 9396   6.335   2.016   1.788
 3147TIP3   OH2 9397   3.356   7.235   0.557
 3147TIP3    H1 9398   3.263   7.216   0.544
 3147TIP3    H2 9399   3.395   7.149   0.573
 3148TIP3   OH2 9400   7.357   5.313   0.782
 3148TIP3    H1 9401   7.370   5.247   0.714
 3148TIP3    H2 9402   7.318   5.265   0.855
 3149TIP3   OH2 9403   2.574   5.564   5.368
 3149TIP3    H1 9404   2.557   5.470   5.368
 3149TIP3    H2 9405   2.669   5.571   5.364
 3150TIP3   OH2 9406   3.900   7.123   3.138
 3150TIP3    H1 9407   3.826   7.155   3.087
 3150TIP3    H2 9408   3.887   7.159   3.225
 3151TIP3   OH2 9409   7.928   0.000   4.473
 3151TIP3    H1 9410   7.989  -0.034   4.408
 3151TIP3    H2 9411   7.983   0.035   4.543
 3152TIP3   OH2 9412   3.036   7.424   1.481
 3152TIP3    H1 9413   3.098   7.358   1.447
 3152TIP3    H2 9414   2.978   7.374   1.539
 3153TIP3   OH2 9415   6.908   2.276   0.396
 3153TIP3    H1 9416   6.908   2.333   0.473
 3153TIP3    H2 9417   6.880   2.333   0.324
 3154TIP3   OH2 9418   0.228   6.871   5.744
 3154TIP3    H1 9419   0.189   6.821   5.672
 3154TIP3    H2 9420   0.230   6.811   5.818
 3155TIP3   OH2 9421   0.340   3.239   4.197
 3155TIP3    H1 9422   0.334   3.172   4.130
 3155TIP3    H2 9423   0.424   3.282   4.182
 3156TIP3   OH2 9424   7.793   4.176   2.557
 3156TIP3    H1 9425   7.737   4.214   2.489
 3156TIP3    H2 9426   7.882   4.186   2.522
 3157TIP3   OH2 9427   2.847   1.815   2.999
 3157TIP3    H1 9428   2.903   1.872   2.947
 3157TIP3    H2 9429   2.847   1.732   2.952
 3158TIP3   OH2 9430   1.073   0.409   2.066
 3158TIP3    H1 9431   1.137   0.345   2.095
 3158TIP3    H2 9432   1.051   0.383   1.977
 3159TIP3   OH2 9433   6.650   0.675   2.317
 3159TIP3    H1 9434   6.644   0.738   2.246
 3159TIP3    H2 9435   6.642   0.727   2.397
 3160TIP3   OH2 9436   2.940   1.577   0.961
 3160TIP3    H1 9437   2.858   1.624   0.943
 3160TIP3    H2 9438   2.935   1.557   1.055
 3161TIP3   OH2 9439   7.888   6.517   0.444
 3161TIP3    H1 9440   7.821   6.568   0.398
 3161TIP3    H2 9441   7.969   6.538   0.399
 3162TIP3   OH2 9442   2.048   4.994   1.912
 3162TIP3    H1 9443   2.029   5.088   1.919
 3162TIP3    H2 9444   1.994   4.953   1.979
 3163TIP3   OH2 9445   0.921   1.124   4.334
 3163TIP3    H1 9446   0.887   1.214   4.332
 3163TIP3    H2 9447   1.009   1.131   4.297
 3164TIP3   OH2 9448   8.305   6.931   4.401
 3164TIP3    H1 9449   8.291   7.025   4.389
 3164TIP3    H2 9450   8.279   6.892   4.317
 3165TIP3   OH2 9451   5.252   3.336   0.138
 3165TIP3    H1 9452   5.243   3.340   0.043
 3165TIP3    H2 9453   5.251   3.242   0.158
 3166TIP3   OH2 9454   7.883   0.916   5.564
 3166TIP3    H1 9455   7.904   0.883   5.651
 3166TIP3    H2 9456   7.963   0.962   5.536
 3167TIP3   OH2 9457   7.994   0.828   5.813
 3167TIP3    H1 9458   8.027   0.738   5.816
 3167TIP3    H2 9459   8.057   0.879   5.863
 3168TIP3   OH2 9460   0.418   6.541   0.820
 3168TIP3    H1 9461   0.459   6.520   0.904
 3168TIP3    H2 9462   0.376   6.625   0.834
 3169TIP3   OH2 9463   7.317   5.697   3.352
 3169TIP3    H1 9464   7.342   5.780   3.393
 3169TIP3    H2 9465   7.223   5.690   3.369
 3170TIP3   OH2 9466   0.937   2.439   5.966
 3170TIP3    H1 9467   0.954   2.494   6.042
 3170TIP3    H2 9468   0.865   2.382   5.992
 3171TIP3   OH2 9469   5.034   6.705   5.234
 3171TIP3    H1 9470   4.977   6.730   5.307
 3171TIP3    H2 9471   4.998   6.750   5.158
 3172TIP3   OH2 9472   8.009   2.413   5.271
 3172TIP3    H1 9473   8.047   2.326   5.280
 3172TIP3    H2 9474   8.084   2.471   5.263
 3173TIP3   OH2 9475   2.868   4.353   2.631
 3173TIP3    H1 9476   2.953   4.342   2.673
 3173TIP3    H2 9477   2.885   4.410   2.556
 3174TIP3   OH2 9478   3.584   4.225   6.036
 3174TIP3    H1 9479   3.657   4.187   5.986
 3174TIP3    H2 9480   3.626   4.282   6.100
 3175TIP3   OH2 9481   6.659   1.958   0.253
 3175TIP3    H1 9482   6.656   2.015   0.329
 3175TIP3    H2 9483   6.616   1.877   0.281
 3176TIP3   OH2 9484   1.107   2.738   5.158
 3176TIP3    H1 9485   1.121   2.747   5.063
 3176TIP3    H2 9486   1.188   2.699   5.190
 3177TIP3   OH2 9487   4.459   6.218   5.688
 3177TIP3    H1 9488   4.502   6.241   5.606
 3177TIP3    H2 9489   4.394   6.152   5.663
 3178TIP3   OH2 9490   6.522   1.933   6.488
 3178TIP3    H1 9491   6.601   1.971   6.452
 3178TIP3    H2 9492   6.521   1.961   6.580
 3179TIP3   OH2 9493   7.324   6.801   3.245
 3179TIP3    H1 9494   7.374   6.862   3.299
 3179TIP3    H2 9495   7.242   6.847   3.226
 3180TIP3   OH2 9496   2.455   4.984   5.666
 3180TIP3    H1 9497   2.464   4.966   5.572
 3180TIP3    H2 9498   2.520   4.927   5.707
 3181TIP3   OH2 9499   0.728   2.119   1.297
 3181TIP3    H1 9500   0.784   2.105   1.373
 3181TIP3    H2 9501   0.650   2.067   1.314
 3182TIP3   OH2 9502   1.884   4.135   4.754
 3182TIP3    H1 9503   1.949   4.171   4.815
 3182TIP3    H2 9504   1.805   4.123   4.807
 3183TIP3   OH2 9505   2.663   4.357   5.746
 3183TIP3    H1 9506   2.682   4.424   5.681
 3183TIP3    H2 9507   2.637   4.280   5.695
 3184TIP3   OH2 9508   1.623   1.423   1.278
 3184TIP3    H1 9509   1.538   1.426   1.323
 3184TIP3    H2 9510   1.608   1.470   1.196
 3185TIP3   OH2 9511   2.143   2.037   3.640
 3185TIP3    H1 9512   2.215   2.045   3.702
 3185TIP3    H2 9513   2.066   2.022   3.695
 3186TIP3   OH2 9514   0.329   3.291   5.335
 3186TIP3    H1 9515   0.342   3.325   5.424
 3186TIP3    H2 9516   0.255   3.342   5.301
 3187TIP3   OH2 9517   4.807   7.362   5.651
 3187TIP3    H1 9518   4.806   7.320   5.565
 3187TIP3    H2 9519   4.881   7.323   5.696
 3188TIP3   OH2 9520   2.739   4.575   4.889
 3188TIP3    H1 9521   2.717   4.585   4.796
 3188TIP3    H2 9522   2.683   4.639   4.933
 3189TIP3   OH2 9523   0.274   6.772   0.810
 3189TIP3    H1 9524   0.316   6.795   0.727
 3189TIP3    H2 9525   0.198   6.719   0.784
 3190TIP3   OH2 9526   0.406   7.551   5.009
 3190TIP3    H1 9527   0.362   7.622   4.963
 3190TIP3    H2 9528   0.455   7.504   4.941
 3191TIP3   OH2 9529   6.680   4.789   4.798
 3191TIP3    H1 9530   6.760   4.817   4.753
 3191TIP3    H2 9531   6.710   4.759   4.884
 3192TIP3   OH2 9532   2.485   6.866   4.600
 3192TIP3    H1 9533   2.513   6.774   4.594
 3192TIP3    H2 9534   2.393   6.862   4.626
 3193TIP3   OH2 9535   1.945   6.928   6.414
 3193TIP3    H1 9536   1.939   6.877   6.495
 3193TIP3    H2 9537   1.891   7.005   6.430
 3194TIP3   OH2 9538   3.715   6.425   3.372
 3194TIP3    H1 9539   3.750   6.478   3.301
 3194TIP3    H2 9540   3.652   6.366   3.331
 3195TIP3   OH2 9541   7.529   6.435   3.515
 3195TIP3    H1 9542   7.498   6.391   3.594
 3195TIP3    H2 9543   7.505   6.527   3.528
 3196TIP3   OH2 9544   1.464   4.088   1.641
 3196TIP3    H1 9545   1.533   4.145   1.609
 3196TIP3    H2 9546   1.502   4.000   1.636
 3197TIP3   OH2 9547   6.868   2.547   2.048
 3197TIP3    H1 9548   6.775   2.527   2.060
 3197TIP3    H2 9549   6.913   2.483   2.102
 3198TIP3   OH2 9550   4.607   6.125   1.507
 3198TIP3    H1 9551   4.571   6.212   1.491
 3198TIP3    H2 9552   4.644   6.097   1.423
 3199TIP3   OH2 9553   0.590   5.053   4.268
 3199TIP3    H1 9554   0.533   5.005   4.209
 3199TIP3    H2 9555   0.531   5.112   4.316
 3200TIP3   OH2 9556   6.655   2.672   0.781
 3200TIP3    H1 9557   6.620   2.603   0.837
 3200TIP3    H2 9558   6.643   2.753   0.830
 3201TIP3   OH2 9559   2.098   4.798   4.555
 3201TIP3    H1 9560   2.144   4.745   4.620
 3201TIP3    H2 9561   2.066   4.734   4.490
 3202TIP3   OH2 9562   2.673   6.629   4.531
 3202TIP3    H1 9563   2.738   6.642   4.462
 3202TIP3    H2 9564   2.724   6.617   4.610
 3203TIP3   OH2 9565   5.258   7.407   4.608
 3203TIP3    H1 9566   5.207   7.351   4.550
 3203TIP3    H2 9567   5.194   7.444   4.669
 3204TIP3   OH2 9568   2.204   3.708   6.573
 3204TIP3    H1 9569   2.146   3.757   6.514
 3204TIP3    H2 9570   2.150   3.635   6.604
 3205TIP3   OH2 9571   5.242   0.269   3.261
 3205TIP3    H1 9572   5.334   0.284   3.239
 3205TIP3    H2 9573   5.227   0.177   3.240
 3206TIP3   OH2 9574   0.950   2.245   2.458
 3206TIP3    H1 9575   0.871   2.209   2.418
 3206TIP3    H2 9576   0.951   2.208   2.547
 3207TIP3   OH2 9577   4.958   2.692   2.364
 3207TIP3    H1 9578   4.985   2.676   2.454
 3207TIP3    H2 9579   4.863   2.682   2.365
 3208TIP3   OH2 9580   2.812   4.154   1.695
 3208TIP3    H1 9581   2.746   4.193   1.752
 3208TIP3    H2 9582   2.884   4.129   1.753
 3209TIP3   OH2 9583   7.247   2.714   1.532
 3209TIP3    H1 9584   7.303   2.769   1.478
 3209TIP3    H2 9585   7.307   2.668   1.590
 3210TIP3   OH2 9586   7.795   5.063   3.626
 3210TIP3    H1 9587   7.727   5.047   3.691
 3210TIP3    H2 9588   7.874   5.026   3.666
 3211TIP3   OH2 9589   3.829   2.242   2.454
 3211TIP3    H1 9590   3.871   2.328   2.465
 3211TIP3    H2 9591   3.736   2.261   2.448
 3212TIP3   OH2 9592   6.295   7.270   5.987
 3212TIP3    H1 9593   6.388   7.290   5.993
 3212TIP3    H2 9594   6.252   7.355   5.993
 3213TIP3   OH2 9595   3.542   6.788   2.291
 3213TIP3    H1 9596   3.532   6.772   2.385
 3213TIP3    H2 9597   3.588   6.710   2.258
 3214TIP3   OH2 9598   3.277   5.982   1.898
 3214TIP3    H1 9599   3.205   6.042   1.918
 3214TIP3    H2 9600   3.324   5.973   1.981
 3215TIP3   OH2 9601   5.970   6.780   0.534
 3215TIP3    H1 9602   5.955   6.726   0.456
 3215TIP3    H2 9603   5.939   6.867   0.508
 3216TIP3   OH2 9604   2.610   7.488   0.922
 3216TIP3    H1 9605   2.565   7.558   0.874
 3216TIP3    H2 9606   2.540   7.429   0.950
 3217TIP3   OH2 9607   1.615   5.101   4.453
 3217TIP3    H1 9608   1.574   5.075   4.371
 3217TIP3    H2 9609   1.708   5.107   4.432
 3218TIP3   OH2 9610   6.717   5.586   4.559
 3218TIP3    H1 9611   6.734   5.676   4.585
 3218TIP3    H2 9612   6.624   5.572   4.580
 3219TIP3   OH2 9613   4.874   4.807   1.394
 3219TIP3    H1 9614   4.898   4.765   1.311
 3219TIP3    H2 9615   4.780   4.792   1.402
 3220TIP3   OH2 9616   1.871   7.063   0.243
 3220TIP3    H1 9617   1.819   7.061   0.324
 3220TIP3    H2 9618   1.838   7.139   0.195
 3221TIP3   OH2 9619   2.004   3.005   2.837
 3221TIP3    H1 9620   1.917   3.015   2.876
 3221TIP3    H2 9621   2.036   3.095   2.827
 3222TIP3   OH2 9622   3.564   6.533   3.578
 3222TIP3    H1 9623   3.613   6.559   3.656
 3222TIP3    H2 9624   3.628   6.491   3.521
 3223TIP3   OH2 9625   4.095   5.786   0.862
 3223TIP3    H1 9626   4.117   5.720   0.928
 3223TIP3    H2 9627   4.080   5.735   0.782
 3224TIP3   OH2 9628   5.873   7.067   0.427
 3224TIP3    H1 9629   5.904   7.148   0.467
 3224TIP3    H2 9630   5.868   7.087   0.333
 3225TIP3   OH2 9631   1.528   0.199   0.575
 3225TIP3    H1 9632   1.600   0.242   0.622
 3225TIP3    H2 9633   1.522   0.112   0.615
 3226TIP3   OH2 9634   4.077   0.816   1.890
 3226TIP3    H1 9635   4.014   0.792   1.958
 3226TIP3    H2 9636   4.155   0.764   1.909
 3227TIP3   OH2 9637   8.038   6.458   6.680
 3227TIP3    H1 9638   8.000   6.370   6.686
 3227TIP3    H2 9639   7.964   6.515   6.659
 3228TIP3   OH2 9640   6.346   2.879   6.318
 3228TIP3    H1 9641   6.331   2.863   6.225
 3228TIP3    H2 9642   6.392   2.963   6.321
 3229TIP3   OH2 9643   4.045   0.377   1.769
 3229TIP3    H1 9644   4.019   0.349   1.857
 3229TIP3    H2 9645   4.139   0.390   1.775
 3230TIP3   OH2 9646   3.437   3.486   6.560
 3230TIP3    H1 9647   3.466   3.446   6.478
 3230TIP3    H2 9648   3.490   3.445   6.628
 3231TIP3   OH2 9649   5.058   0.131   1.310
 3231TIP3    H1 9650   5.100   0.174   1.384
 3231TIP3    H2 9651   4.968   0.164   1.310
 3232TIP3   OH2 9652   5.215   0.118   1.080
 3232TIP3    H1 9653   5.160   0.126   1.158
 3232TIP3    H2 9654   5.299   0.085   1.114
 3233TIP3   OH2 9655   7.857   2.125   3.041
 3233TIP3    H1 9656   7.882   2.217   3.045
 3233TIP3    H2 9657   7.784   2.122   2.979
 3234TIP3   OH2 9658   1.745   0.616   4.090
 3234TIP3    H1 9659   1.718   0.583   4.004
 3234TIP3    H2 9660   1.702   0.701   4.097
 3235TIP3   OH2 9661   4.515   1.428   3.590
 3235TIP3    H1 9662   4.437   1.457   3.544
 3235TIP3    H2 9663   4.493   1.435   3.683
 3236TIP3   OH2 9664   3.782   1.831   6.002
 3236TIP3    H1 9665   3.784   1.736   6.016
 3236TIP3    H2 9666   3.724   1.864   6.070
 3237TIP3   OH2 9667   4.371   0.653   0.103
 3237TIP3    H1 9668   4.297   0.712   0.095
 3237TIP3    H2 9669   4.442   0.707   0.136
 3238TIP3   OH2 9670   6.124   5.549   4.579
 3238TIP3    H1 9671   6.033   5.570   4.598
 3238TIP3    H2 9672   6.163   5.532   4.665
 3239TIP3   OH2 9673   5.856   3.996   4.368
 3239TIP3    H1 9674   5.819   4.068   4.317
 3239TIP3    H2 9675   5.949   3.996   4.346
 3240TIP3   OH2 9676   7.906   5.861   3.667
 3240TIP3    H1 9677   7.951   5.783   3.700
 3240TIP3    H2 9678   7.835   5.876   3.730
 3241TIP3   OH2 9679   6.732   3.151   2.146
 3241TIP3    H1 9680   6.813   3.202   2.154
 3241TIP3    H2 9681   6.665   3.207   2.186
 3242TIP3   OH2 9682   1.285   2.432   4.372
 3242TIP3    H1 9683   1.364   2.381   4.351
 3242TIP3    H2 9684   1.318   2.517   4.398
 3243TIP3   OH2 9685   3.044   0.494   0.648
 3243TIP3    H1 9686   3.030   0.558   0.718
 3243TIP3    H2 9687   3.069   0.414   0.694
 3244TIP3   OH2 9688   2.210   5.838   3.634
 3244TIP3    H1 9689   2.187   5.922   3.674
 3244TIP3    H2 9690   2.168   5.840   3.548
 3245TIP3   OH2 9691   4.052   2.206   4.693
 3245TIP3    H1 9692   3.990   2.201   4.620
 3245TIP3    H2 9693   4.121   2.264   4.663
 3246TIP3   OH2 9694   5.601   3.173   6.197
 3246TIP3    H1 9695   5.615   3.088   6.238
 3246TIP3    H2 9696   5.516   3.166   6.153
 3247TIP3   OH2 9697   3.829   7.810   0.129
 3247TIP3    H1 9698   3.735   7.799   0.119
 3247TIP3    H2 9699   3.856   7.858   0.051
 3248TIP3   OH2 9700   5.274   4.509   5.501
 3248TIP3    H1 9701   5.277   4.604   5.511
 3248TIP3    H2 9702   5.188   4.491   5.463
 3249TIP3   OH2 9703   1.114   7.283   5.175
 3249TIP3    H1 9704   1.035   7.231   5.191
 3249TIP3    H2 9705   1.080   7.367   5.143
 3250TIP3   OH2 9706   2.944   7.799   1.242
 3250TIP3    H1 9707   3.015   7.805   1.178
 3250TIP3    H2 9708   2.910   7.888   1.249
 3251TIP3   OH2 9709   7.376   2.741   2.529
 3251TIP3    H1 9710   7.465   2.730   2.493
 3251TIP3    H2 9711   7.324   2.676   2.483
 3252TIP3   OH2 9712   3.670   7.152   2.918
 3252TIP3    H1 9713   3.692   7.089   2.849
 3252TIP3    H2 9714   3.599   7.204   2.881
 3253TIP3   OH2 9715   2.935   4.006   3.524
 3253TIP3    H1 9716   2.905   4.009   3.615
 3253TIP3    H2 9717   2.951   4.097   3.500
 3254TIP3   OH2 9718   8.120   2.186   4.150
 3254TIP3    H1 9719   8.052   2.225   4.095
 3254TIP3    H2 9720   8.072   2.124   4.205
 3255TIP3   OH2 9721   6.228   1.015   4.569
 3255TIP3    H1 9722   6.259   0.985   4.484
 3255TIP3    H2 9723   6.306   1.053   4.610
 3256TIP3   OH2 9724   0.109   0.766   1.686
 3256TIP3    H1 9725   0.116   0.671   1.677
 3256TIP3    H2 9726   0.148   0.786   1.770
 3257TIP3   OH2 9727   7.828   4.811   4.418
 3257TIP3    H1 9728   7.773   4.861   4.358
 3257TIP3    H2 9729   7.771   4.739   4.448
 3258TIP3   OH2 9730   3.473   7.327   1.703
 3258TIP3    H1 9731   3.424   7.408   1.688
 3258TIP3    H2 9732   3.564   7.356   1.710
 3259TIP3   OH2 9733   4.893   3.416   3.208
 3259TIP3    H1 9734   4.904   3.321   3.221
 3259TIP3    H2 9735   4.850   3.423   3.123
 3260TIP3   OH2 9736   6.324   6.626   6.737
 3260TIP3    H1 9737   6.364   6.570   6.670
 3260TIP3    H2 9738   6.246   6.662   6.696
 3261TIP3   OH2 9739   1.620   0.623   2.524
 3261TIP3    H1 9740   1.614   0.584   2.611
 3261TIP3    H2 9741   1.698   0.679   2.528
 3262TIP3   OH2 9742   2.494   0.723   3.017
 3262TIP3    H1 9743   2.555   0.649   3.018
 3262TIP3    H2 9744   2.410   0.684   2.994
 3263TIP3   OH2 9745   4.330   5.591   1.779
 3263TIP3    H1 9746   4.298   5.674   1.814
 3263TIP3    H2 9747   4.317   5.528   1.850
 3264TIP3   OH2 9748   3.058   6.719   6.683
 3264TIP3    H1 9749   3.044   6.720   6.588
 3264TIP3    H2 9750   2.984   6.767   6.719
 3265TIP3   OH2 9751   8.135   3.694   3.563
 3265TIP3    H1 9752   8.121   3.600   3.548
 3265TIP3    H2 9753   8.186   3.698   3.644
 3266TIP3   OH2 9754   2.035   0.609   3.408
 3266TIP3    H1 9755   1.955   0.654   3.434
 3266TIP3    H2 9756   2.005   0.537   3.352
 3267TIP3   OH2 9757   0.267   2.929   1.381
 3267TIP3    H1 9758   0.294   2.984   1.454
 3267TIP3    H2 9759   0.338   2.866   1.371
 3268TIP3   OH2 9760   4.091   4.005   1.208
 3268TIP3    H1 9761   4.001   4.024   1.181
 3268TIP3    H2 9762   4.140   4.084   1.186
 3269TIP3   OH2 9763   3.987   5.914   1.169
 3269TIP3    H1 9764   4.076   5.935   1.140
 3269TIP3    H2 9765   3.975   5.965   1.249
 3270TIP3   OH2 9766   3.502   0.792   1.198
 3270TIP3    H1 9767   3.581   0.775   1.249
 3270TIP3    H2 9768   3.529   0.781   1.107
 3271TIP3   OH2 9769   7.950   1.832   2.262
 3271TIP3    H1 9770   7.973   1.772   2.333
 3271TIP3    H2 9771   7.879   1.788   2.215
 3272TIP3   OH2 9772   5.609   3.359   0.188
 3272TIP3    H1 9773   5.565   3.404   0.116
 3272TIP3    H2 9774   5.648   3.429   0.240
 3273TIP3   OH2 9775   0.912   4.148   0.124
 3273TIP3    H1 9776   0.976   4.196   0.175
 3273TIP3    H2 9777   0.939   4.160   0.033
 3274TIP3   OH2 9778   1.409   5.766   0.834
 3274TIP3    H1 9779   1.449   5.754   0.748
 3274TIP3    H2 9780   1.473   5.732   0.895
 3275TIP3   OH2 9781   3.814   2.867   1.305
 3275TIP3    H1 9782   3.811   2.787   1.253
 3275TIP3    H2 9783   3.906   2.891   1.306
 3276TIP3   OH2 9784   0.668   7.468   5.135
 3276TIP3    H1 9785   0.654   7.417   5.055
 3276TIP3    H2 9786   0.588   7.520   5.143
 3277TIP3   OH2 9787   7.933   7.305   2.615
 3277TIP3    H1 9788   7.943   7.367   2.687
 3277TIP3    H2 9789   7.868   7.243   2.645
 3278TIP3   OH2 9790   1.664   1.300   0.200
 3278TIP3    H1 9791   1.681   1.227   0.259
 3278TIP3    H2 9792   1.750   1.326   0.167
 3279TIP3   OH2 9793   5.793   1.874   5.892
 3279TIP3    H1 9794   5.800   1.879   5.988
 3279TIP3    H2 9795   5.715   1.821   5.876
 3280TIP3   OH2 9796   2.571   3.047   6.150
 3280TIP3    H1 9797   2.551   2.978   6.214
 3280TIP3    H2 9798   2.485   3.081   6.125
 3281TIP3   OH2 9799   0.054   0.417   0.152
 3281TIP3    H1 9800  -0.038   0.444   0.159
 3281TIP3    H2 9801   0.096   0.454   0.230
 3282TIP3   OH2 9802   1.402   3.001   3.965
 3282TIP3    H1 9803   1.331   3.058   3.995
 3282TIP3    H2 9804   1.365   2.956   3.888
 3283TIP3   OH2 9805   6.469   1.336   4.937
 3283TIP3    H1 9806   6.488   1.274   5.007
 3283TIP3    H2 9807   6.485   1.287   4.857
 3284TIP3   OH2 9808   5.469   6.525   4.195
 3284TIP3    H1 9809   5.413   6.597   4.164
 3284TIP3    H2 9810   5.558   6.561   4.193
 3285TIP3   OH2 9811   1.796   5.896   1.051
 3285TIP3    H1 9812   1.750   5.813   1.035
 3285TIP3    H2 9813   1.807   5.899   1.146
 3286TIP3   OH2 9814   6.735   4.040   1.967
 3286TIP3    H1 9815   6.747   4.023   2.060
 3286TIP3    H2 9816   6.788   4.119   1.950
 3287TIP3   OH2 9817   5.078   0.732   3.213
 3287TIP3    H1 9818   5.047   0.818   3.243
 3287TIP3    H2 9819   5.146   0.707   3.276
 3288TIP3   OH2 9820   4.360   5.979   2.833
 3288TIP3    H1 9821   4.284   5.954   2.780
 3288TIP3    H2 9822   4.435   5.938   2.790
 3289TIP3   OH2 9823   5.136   3.606   6.699
 3289TIP3    H1 9824   5.188   3.560   6.765
 3289TIP3    H2 9825   5.176   3.693   6.693
 3290TIP3   OH2 9826   7.070   0.895   1.404
 3290TIP3    H1 9827   7.083   0.801   1.418
 3290TIP3    H2 9828   6.976   0.904   1.391
 3291TIP3   OH2 9829   0.031   2.152   1.405
 3291TIP3    H1 9830   0.040   2.056   1.401
 3291TIP3    H2 9831   0.089   2.178   1.477
 3292TIP3   OH2 9832   1.869   6.405   3.589
 3292TIP3    H1 9833   1.788   6.429   3.634
 3292TIP3    H2 9834   1.889   6.481   3.535
 3293TIP3   OH2 9835   2.138   1.953   1.387
 3293TIP3    H1 9836   2.067   1.981   1.330
 3293TIP3    H2 9837   2.099   1.950   1.475
 3294TIP3   OH2 9838   3.421   7.643   5.449
 3294TIP3    H1 9839   3.505   7.689   5.449
 3294TIP3    H2 9840   3.445   7.551   5.462
 3295TIP3   OH2 9841   6.460   3.257   5.562
 3295TIP3    H1 9842   6.397   3.329   5.555
 3295TIP3    H2 9843   6.409   3.178   5.543
 3296TIP3   OH2 9844   0.077   1.027   6.134
 3296TIP3    H1 9845   0.168   0.997   6.126
 3296TIP3    H2 9846   0.084   1.119   6.157
 3297TIP3   OH2 9847   4.941   5.160   2.344
 3297TIP3    H1 9848   4.929   5.095   2.414
 3297TIP3    H2 9849   4.889   5.235   2.372
 3298TIP3   OH2 9850   3.378   6.416   1.306
 3298TIP3    H1 9851   3.297   6.371   1.330
 3298TIP3    H2 9852   3.416   6.444   1.389
 3299TIP3   OH2 9853   1.404   5.990   4.793
 3299TIP3    H1 9854   1.433   5.994   4.884
 3299TIP3    H2 9855   1.315   6.024   4.794
 3300TIP3   OH2 9856   1.267   5.617   1.975
 3300TIP3    H1 9857   1.203   5.584   1.912
 3300TIP3    H2 9858   1.293   5.702   1.941
 3301TIP3   OH2 9859   5.935   1.927   3.886
 3301TIP3    H1 9860   5.850   1.945   3.925
 3301TIP3    H2 9861   5.986   2.007   3.902
 3302TIP3   OH2 9862   2.819   3.825   5.618
 3302TIP3    H1 9863   2.910   3.826   5.648
 3302TIP3    H2 9864   2.803   3.915   5.588
 3303TIP3   OH2 9865   6.635   6.009   2.308
 3303TIP3    H1 9866   6.636   6.027   2.402
 3303TIP3    H2 9867   6.547   6.033   2.280
 3304TIP3   OH2 9868   4.515   6.617   3.084
 3304TIP3    H1 9869   4.587   6.590   3.141
 3304TIP3    H2 9870   4.442   6.560   3.109
 3305TIP3   OH2 9871   7.600   6.938   4.340
 3305TIP3    H1 9872   7.615   7.025   4.302
 3305TIP3    H2 9873   7.506   6.924   4.328
 3306TIP3   OH2 9874   3.549   4.034   0.671
 3306TIP3    H1 9875   3.552   3.956   0.617
 3306TIP3    H2 9876   3.612   4.094   0.631
 3307TIP3   OH2 9877   8.260   2.547   0.813
 3307TIP3    H1 9878   8.302   2.483   0.755
 3307TIP3    H2 9879   8.198   2.593   0.756
 3308TIP3   OH2 9880   6.254   6.237   4.820
 3308TIP3    H1 9881   6.211   6.315   4.787
 3308TIP3    H2 9882   6.202   6.164   4.786
 3309TIP3   OH2 9883   2.937   1.300   4.292
 3309TIP3    H1 9884   2.931   1.390   4.324
 3309TIP3    H2 9885   3.024   1.271   4.318
 3310TIP3   OH2 9886   5.019   7.489   4.738
 3310TIP3    H1 9887   5.039   7.401   4.772
 3310TIP3    H2 9888   4.947   7.520   4.793
 3311TIP3   OH2 9889   0.005   3.571   4.675
 3311TIP3    H1 9890   0.020   3.666   4.669
 3311TIP3    H2 9891   0.082   3.538   4.722
 3312TIP3   OH2 9892   0.147   1.834   5.607
 3312TIP3    H1 9893   0.076   1.872   5.659
 3312TIP3    H2 9894   0.226   1.858   5.654
 3313TIP3   OH2 9895   4.120   0.719   3.247
 3313TIP3    H1 9896   4.111   0.631   3.283
 3313TIP3    H2 9897   4.058   0.721   3.174
 3314TIP3   OH2 9898   0.338   0.011   3.785
 3314TIP3    H1 9899   0.325  -0.080   3.759
 3314TIP3    H2 9900   0.281   0.022   3.862
 3315TIP3   OH2 9901   7.035   6.676   3.737
 3315TIP3    H1 9902   7.014   6.691   3.644
 3315TIP3    H2 9903   7.128   6.653   3.737
 3316TIP3   OH2 9904   4.353   7.190   2.052
 3316TIP3    H1 9905   4.388   7.101   2.055
 3316TIP3    H2 9906   4.392   7.229   1.973
 3317TIP3   OH2 9907   6.214   1.462   2.458
 3317TIP3    H1 9908   6.234   1.484   2.548
 3317TIP3    H2 9909   6.196   1.368   2.459
 3318TIP3   OH2 9910   3.620   3.427   5.863
 3318TIP3    H1 9911   3.684   3.366   5.900
 3318TIP3    H2 9912   3.561   3.372   5.812
 3319TIP3   OH2 9913   0.206   0.135   5.882
 3319TIP3    H1 9914   0.208   0.203   5.949
 3319TIP3    H2 9915   0.279   0.157   5.823
 3320TIP3   OH2 9916   0.339   7.327   1.091
 3320TIP3    H1 9917   0.335   7.242   1.135
 3320TIP3    H2 9918   0.400   7.313   1.018
 3321TIP3   OH2 9919   4.004   6.922   0.409
 3321TIP3    H1 9920   4.001   6.826   0.404
 3321TIP3    H2 9921   4.029   6.950   0.321
 3322TIP3   OH2 9922   3.389   5.137   1.217
 3322TIP3    H1 9923   3.414   5.212   1.271
 3322TIP3    H2 9924   3.293   5.139   1.217
 3323TIP3   OH2 9925   0.240   5.758   5.992
 3323TIP3    H1 9926   0.296   5.683   5.976
 3323TIP3    H2 9927   0.228   5.799   5.907
 3324TIP3   OH2 9928   0.569   4.906   2.716
 3324TIP3    H1 9929   0.532   4.840   2.658
 3324TIP3    H2 9930   0.499   4.970   2.727
 3325TIP3   OH2 9931   0.807   3.890   4.944
 3325TIP3    H1 9932   0.720   3.873   4.906
 3325TIP3    H2 9933   0.815   3.986   4.943
 3326TIP3   OH2 9934   4.769   2.203   6.703
 3326TIP3    H1 9935   4.683   2.240   6.684
 3326TIP3    H2 9936   4.777   2.129   6.643
 3327TIP3   OH2 9937   6.389   4.878   1.104
 3327TIP3    H1 9938   6.478   4.913   1.112
 3327TIP3    H2 9939   6.346   4.936   1.041
 3328TIP3   OH2 9940   0.574   7.385   4.151
 3328TIP3    H1 9941   0.629   7.424   4.219
 3328TIP3    H2 9942   0.486   7.390   4.187
 3329TIP3   OH2 9943   5.386   0.900   1.593
 3329TIP3    H1 9944   5.384   0.937   1.681
 3329TIP3    H2 9945   5.451   0.831   1.597
 3330TIP3   OH2 9946   3.240   2.843   6.040
 3330TIP3    H1 9947   3.190   2.818   5.962
 3330TIP3    H2 9948   3.332   2.829   6.016
 3331TIP3   OH2 9949   5.536   7.399   1.597
 3331TIP3    H1 9950   5.513   7.492   1.600
 3331TIP3    H2 9951   5.509   7.371   1.509
 3332TIP3   OH2 9952   8.234   0.442   3.851
 3332TIP3    H1 9953   8.207   0.449   3.759
 3332TIP3    H2 9954   8.323   0.407   3.847
 3333TIP3   OH2 9955   5.103   2.825   1.631
 3333TIP3    H1 9956   5.092   2.798   1.540
 3333TIP3    H2 9957   5.145   2.911   1.626
 3334TIP3   OH2 9958   2.037   2.659   3.733
 3334TIP3    H1 9959   2.133   2.658   3.739
 3334TIP3    H2 9960   2.009   2.593   3.796
 3335TIP3   OH2 9961   0.920   4.936   2.854
 3335TIP3    H1 9962   0.931   5.028   2.832
 3335TIP3    H2 9963   0.951   4.889   2.776
 3336TIP3   OH2 9964   2.678   3.948   5.033
 3336TIP3    H1 9965   2.606   3.965   5.095
 3336TIP3    H2 9966   2.757   3.957   5.086
 3337TIP3   OH2 9967   2.158   1.321   0.239
 3337TIP3    H1 9968   2.098   1.365   0.299
 3337TIP3    H2 9969   2.244   1.330   0.280
 3338TIP3   OH2 9970   6.220   6.831   2.497
 3338TIP3    H1 9971   6.210   6.790   2.583
 3338TIP3    H2 9972   6.150   6.794   2.444
 3339TIP3   OH2 9973   3.910   0.057   0.508
 3339TIP3    H1 9974   3.922   0.055   0.603
 3339TIP3    H2 9975   3.833   0.002   0.493
 3340TIP3   OH2 9976   1.170   5.685   3.795
 3340TIP3    H1 9977   1.198   5.677   3.703
 3340TIP3    H2 9978   1.107   5.756   3.795
 3341TIP3   OH2 9979   7.191   0.904   5.895
 3341TIP3    H1 9980   7.246   0.930   5.822
 3341TIP3    H2 9981   7.245   0.919   5.973
 3342TIP3   OH2 9982   0.239   0.999   2.099
 3342TIP3    H1 9983   0.203   1.020   2.186
 3342TIP3    H2 9984   0.334   0.995   2.113
 3343TIP3   OH2 9985   6.502   3.330   2.202
 3343TIP3    H1 9986   6.491   3.407   2.258
 3343TIP3    H2 9987   6.424   3.278   2.217
 3344TIP3   OH2 9988   2.744   4.608   3.271
 3344TIP3    H1 9989   2.674   4.670   3.253
 3344TIP3    H2 9990   2.789   4.597   3.187
 3345TIP3   OH2 9991   6.891   2.126   0.809
 3345TIP3    H1 9992   6.814   2.097   0.858
 3345TIP3    H2 9993   6.947   2.049   0.805
 3346TIP3   OH2 9994   4.702   4.498   3.752
 3346TIP3    H1 9995   4.718   4.585   3.716
 3346TIP3    H2 9996   4.607   4.487   3.749
 3347TIP3   OH2 9997   2.916   4.879   2.633
 3347TIP3    H1 9998   2.973   4.953   2.611
 3347TIP3    H2 9999   2.972   4.802   2.627
 3348TIP3   OH210000   1.682   4.027   4.907
 3348TIP3    H110001   1.712   3.971   4.978
 3348TIP3    H210002   1.595   3.993   4.885
 3349TIP3   OH210003   5.629   4.505   2.254
 3349TIP3    H110004   5.718   4.472   2.244
 3349TIP3    H210005   5.591   4.499   2.166
 3350TIP3   OH210006   6.845   5.670   4.982
 3350TIP3    H110007   6.823   5.618   4.904
 3350TIP3    H210008   6.938   5.651   4.997
 3351TIP3   OH210009   6.254   2.494   3.058
 3351TIP3    H110010   6.164   2.461   3.067
 3351TIP3    H210011   6.259   2.524   2.968
 3352TIP3   OH210012   7.413   2.236   5.375
 3352TIP3    H110013   7.377   2.299   5.312
 3352TIP3    H210014   7.440   2.290   5.449
 3353TIP3   OH210015   2.534   1.704   2.799
 3353TIP3    H110016   2.550   1.623   2.750
 3353TIP3    H210017   2.442   1.699   2.824
 3354TIP3   OH210018   4.805   7.733   4.423
 3354TIP3    H110019   4.860   7.746   4.500
 3354TIP3    H210020   4.723   7.697   4.458
 3355TIP3   OH210021   7.944   6.057   2.312
 3355TIP3    H110022   7.989   6.019   2.237
 3355TIP3    H210023   7.955   6.151   2.301
 3356TIP3   OH210024   6.343   0.598   1.624
 3356TIP3    H110025   6.339   0.666   1.692
 3356TIP3    H210026   6.434   0.569   1.623
 3357TIP3   OH210027   6.753   1.239   3.921
 3357TIP3    H110028   6.843   1.271   3.926
 3357TIP3    H210029   6.730   1.217   4.011
 3358TIP3   OH210030   1.910   3.907   6.737
 3358TIP3    H110031   1.966   3.864   6.672
 3358TIP3    H210032   1.847   3.840   6.763
 3359TIP3   OH210033   2.108   5.046   4.272
 3359TIP3    H110034   2.120   5.052   4.366
 3359TIP3    H210035   2.072   4.959   4.257
 3360TIP3   OH210036   6.113   0.962   5.803
 3360TIP3    H110037   6.086   0.940   5.892
 3360TIP3    H210038   6.123   1.057   5.804
 3361TIP3   OH210039   2.036   0.884   2.112
 3361TIP3    H110040   2.090   0.957   2.083
 3361TIP3    H210041   1.975   0.923   2.175
 3362TIP3   OH210042   1.617   2.260   0.807
 3362TIP3    H110043   1.689   2.219   0.855
 3362TIP3    H210044   1.651   2.273   0.718
 3363TIP3   OH210045   8.017   1.652   2.708
 3363TIP3    H110046   7.923   1.641   2.723
 3363TIP3    H210047   8.057   1.640   2.794
 3364TIP3   OH210048   6.257   2.337   1.718
 3364TIP3    H110049   6.279   2.388   1.640
 3364TIP3    H210050   6.285   2.391   1.792
 3365TIP3   OH210051   1.498   3.166   4.741
 3365TIP3    H110052   1.535   3.244   4.701
 3365TIP3    H210053   1.409   3.160   4.705
 3366TIP3   OH210054   5.233   6.758   3.098
 3366TIP3    H110055   5.290   6.681   3.102
 3366TIP3    H210056   5.145   6.722   3.088
 3367TIP3   OH210057   6.332   6.463   5.314
 3367TIP3    H110058   6.354   6.503   5.230
 3367TIP3    H210059   6.360   6.528   5.379
 3368TIP3   OH210060   0.020   0.260   5.706
 3368TIP3    H110061   0.087   0.251   5.775
 3368TIP3    H210062  -0.051   0.310   5.748
 3369TIP3   OH210063   1.367   1.072   6.744
 3369TIP3    H110064   1.427   1.023   6.687
 3369TIP3    H210065   1.297   1.100   6.686
 3370TIP3   OH210066   5.629   2.223   0.912
 3370TIP3    H110067   5.624   2.319   0.915
 3370TIP3    H210068   5.559   2.197   0.852
 3371TIP3   OH210069   1.136   7.038   0.432
 3371TIP3    H110070   1.054   7.001   0.463
 3371TIP3    H210071   1.157   6.987   0.353
 3372TIP3   OH210072   2.625   1.584   1.515
 3372TIP3    H110073   2.617   1.560   1.607
 3372TIP3    H210074   2.581   1.514   1.468
 3373TIP3   OH210075   5.395   6.874   5.773
 3373TIP3    H110076   5.402   6.843   5.863
 3373TIP3    H210077   5.301   6.887   5.759
 3374TIP3   OH210078   1.887   7.186   3.707
 3374TIP3    H110079   1.810   7.151   3.753
 3374TIP3    H210080   1.864   7.180   3.615
 3375TIP3   OH210081   4.768   6.080   3.907
 3375TIP3    H110082   4.732   6.127   3.982
 3375TIP3    H210083   4.837   6.024   3.944
 3376TIP3   OH210084   5.306   1.242   2.868
 3376TIP3    H110085   5.232   1.278   2.917
 3376TIP3    H210086   5.343   1.318   2.822
 3377TIP3   OH210087   4.903   5.057   0.476
 3377TIP3    H110088   4.915   4.966   0.450
 3377TIP3    H210089   4.916   5.106   0.395
 3378TIP3   OH210090   5.330   2.287   3.552
 3378TIP3    H110091   5.323   2.323   3.641
 3378TIP3    H210092   5.422   2.264   3.543
 3379TIP3   OH210093   0.868   6.961   6.200
 3379TIP3    H110094   0.925   7.036   6.214
 3379TIP3    H210095   0.855   6.958   6.105
 3380TIP3   OH210096   2.480   3.777   5.388
 3380TIP3    H110097   2.565   3.812   5.415
 3380TIP3    H210098   2.497   3.736   5.303
 3381TIP3   OH210099   2.727   2.605   3.260
 3381TIP3    H110100   2.800   2.566   3.309
 3381TIP3    H210101   2.763   2.684   3.221
 3382TIP3   OH210102   3.009   5.056   0.251
 3382TIP3    H110103   2.943   5.124   0.258
 3382TIP3    H210104   3.061   5.064   0.331
 3383TIP3   OH210105   5.246   6.978   3.285
 3383TIP3    H110106   5.201   6.907   3.240
 3383TIP3    H210107   5.299   7.019   3.216
 3384TIP3   OH210108   3.951   4.788   3.866
 3384TIP3    H110109   4.022   4.823   3.812
 3384TIP3    H210110   3.985   4.707   3.903
 3385TIP3   OH210111   5.099   6.042   3.751
 3385TIP3    H110112   5.035   5.994   3.804
 3385TIP3    H210113   5.141   6.102   3.813
 3386TIP3   OH210114   5.875   0.016   6.655
 3386TIP3    H110115   5.923   0.032   6.574
 3386TIP3    H210116   5.922  -0.055   6.698
 3387TIP3   OH210117   6.995   4.732   4.014
 3387TIP3    H110118   7.060   4.685   3.962
 3387TIP3    H210119   6.913   4.685   4.000
 3388TIP3   OH210120   2.001   1.363   0.481
 3388TIP3    H110121   2.029   1.449   0.512
 3388TIP3    H210122   1.975   1.316   0.560
 3389TIP3   OH210123   4.983   6.267   0.723
 3389TIP3    H110124   4.922   6.248   0.652
 3389TIP3    H210125   5.069   6.272   0.680
 3390TIP3   OH210126   7.262   6.641   1.949
 3390TIP3    H110127   7.240   6.700   2.021
 3390TIP3    H210128   7.210   6.674   1.875
 3391TIP3   OH210129   3.338   6.930   4.046
 3391TIP3    H110130   3.389   6.850   4.054
 3391TIP3    H210131   3.279   6.913   3.972
 3392TIP3   OH210132   4.082   1.871   0.012
 3392TIP3    H110133   4.069   1.784   0.051
 3392TIP3    H210134   4.044   1.863  -0.075
 3393TIP3   OH210135   1.005   5.906   6.494
 3393TIP3    H110136   0.983   5.877   6.583
 3393TIP3    H210137   0.923   5.944   6.461
 3394TIP3   OH210138   6.955   0.907   1.069
 3394TIP3    H110139   7.005   0.862   1.001
 3394TIP3    H210140   6.997   0.993   1.077
 3395TIP3   OH210141   2.395   5.081   3.771
 3395TIP3    H110142   2.390   5.156   3.711
 3395TIP3    H210143   2.400   5.005   3.714
 3396TIP3   OH210144   6.156   3.282   1.794
 3396TIP3    H110145   6.133   3.197   1.757
 3396TIP3    H210146   6.251   3.278   1.805
 3397TIP3   OH210147   0.043   1.288   6.231
 3397TIP3    H110148   0.131   1.296   6.269
 3397TIP3    H210149   0.025   1.375   6.195
 3398TIP3   OH210150   4.919   3.783   5.145
 3398TIP3    H110151   4.840   3.820   5.183
 3398TIP3    H210152   4.904   3.688   5.145
 3399TIP3   OH210153   5.089   4.082   0.839
 3399TIP3    H110154   5.169   4.032   0.855
 3399TIP3    H210155   5.118   4.161   0.793
 3400TIP3   OH210156   4.151   3.191   1.990
 3400TIP3    H110157   4.116   3.167   1.904
 3400TIP3    H210158   4.081   3.170   2.051
 3401TIP3   OH210159   3.194   6.294   3.030
 3401TIP3    H110160   3.231   6.355   2.967
 3401TIP3    H210161   3.104   6.280   3.000
 3402TIP3   OH210162   7.339   4.829   3.283
 3402TIP3    H110163   7.291   4.795   3.207
 3402TIP3    H210164   7.427   4.792   3.274
 3403TIP3   OH210165   6.277   6.183   3.467
 3403TIP3    H110166   6.269   6.100   3.419
 3403TIP3    H210167   6.191   6.225   3.458
 3404TIP3   OH210168   2.036   1.764   4.634
 3404TIP3    H110169   2.004   1.678   4.660
 3404TIP3    H210170   2.033   1.816   4.714
 3405TIP3   OH210171   4.379   4.855   5.063
 3405TIP3    H110172   4.315   4.796   5.025
 3405TIP3    H210173   4.463   4.811   5.048
 3406TIP3   OH210174   5.271   6.188   0.709
 3406TIP3    H110175   5.285   6.095   0.724
 3406TIP3    H210176   5.257   6.224   0.797
 3407TIP3   OH210177   3.292   7.122   1.622
 3407TIP3    H110178   3.354   7.189   1.648
 3407TIP3    H210179   3.214   7.138   1.675
 3408TIP3   OH210180   7.641   6.520   0.898
 3408TIP3    H110181   7.599   6.455   0.842
 3408TIP3    H210182   7.698   6.469   0.956
 3409TIP3   OH210183   4.382   0.661   5.706
 3409TIP3    H110184   4.477   0.651   5.715
 3409TIP3    H210185   4.372   0.737   5.648
 3410TIP3   OH210186   6.192   3.376   2.739
 3410TIP3    H110187   6.264   3.391   2.801
 3410TIP3    H210188   6.185   3.281   2.732
 3411TIP3   OH210189   3.432   7.220   5.611
 3411TIP3    H110190   3.501   7.284   5.631
 3411TIP3    H210191   3.468   7.136   5.638
 3412TIP3   OH210192   6.138   7.093   1.020
 3412TIP3    H110193   6.110   7.095   0.929
 3412TIP3    H210194   6.224   7.050   1.018
 3413TIP3   OH210195   2.736   6.770   3.384
 3413TIP3    H110196   2.788   6.696   3.354
 3413TIP3    H210197   2.798   6.842   3.393
 3414TIP3   OH210198   8.185   1.452   5.985
 3414TIP3    H110199   8.123   1.522   5.962
 3414TIP3    H210200   8.130   1.376   6.003
 3415TIP3   OH210201   3.575   2.182   3.777
 3415TIP3    H110202   3.548   2.145   3.861
 3415TIP3    H210203   3.494   2.213   3.737
 3416TIP3   OH210204   0.571   6.590   2.317
 3416TIP3    H110205   0.489   6.636   2.300
 3416TIP3    H210206   0.584   6.598   2.412
 3417TIP3   OH210207   0.246   7.450   2.734
 3417TIP3    H110208   0.248   7.542   2.708
 3417TIP3    H210209   0.199   7.449   2.817
 3418TIP3   OH210210   0.128   0.087   1.204
 3418TIP3    H110211   0.093   0.110   1.118
 3418TIP3    H210212   0.103   0.160   1.261
 3419TIP3   OH210213   7.236   4.655   0.674
 3419TIP3    H110214   7.273   4.609   0.599
 3419TIP3    H210215   7.181   4.723   0.637
 3420TIP3   OH210216   2.337   3.109   3.027
 3420TIP3    H110217   2.394   3.040   3.061
 3420TIP3    H210218   2.392   3.187   3.028
 3421TIP3   OH210219   3.613   5.191   0.074
 3421TIP3    H110220   3.604   5.096   0.068
 3421TIP3    H210221   3.551   5.217   0.142
 3422TIP3   OH210222   7.648   7.374   1.821
 3422TIP3    H110223   7.632   7.318   1.744
 3422TIP3    H210224   7.665   7.461   1.785
 3423TIP3   OH210225   8.107   3.432   3.574
 3423TIP3    H110226   8.071   3.370   3.510
 3423TIP3    H210227   8.137   3.377   3.646
 3424TIP3   OH210228   4.462   3.839   5.960
 3424TIP3    H110229   4.475   3.860   6.053
 3424TIP3    H210230   4.481   3.746   5.953
 3425TIP3   OH210231   1.507   5.077   4.697
 3425TIP3    H110232   1.420   5.101   4.667
 3425TIP3    H210233   1.561   5.076   4.618
 3426TIP3   OH210234   2.805   1.739   2.130
 3426TIP3    H110235   2.811   1.710   2.221
 3426TIP3    H210236   2.856   1.820   2.128
 3427TIP3   OH210237   1.400   1.975   5.158
 3427TIP3    H110238   1.393   2.016   5.071
 3427TIP3    H210239   1.493   1.981   5.179
 3428TIP3   OH210240   6.963   4.790   5.927
 3428TIP3    H110241   6.935   4.855   5.863
 3428TIP3    H210242   6.947   4.832   6.012
 3429TIP3   OH210243   0.744   6.659   4.082
 3429TIP3    H110244   0.686   6.719   4.129
 3429TIP3    H210245   0.686   6.591   4.048
 3430TIP3   OH210246   3.603   0.370   1.948
 3430TIP3    H110247   3.569   0.443   1.897
 3430TIP3    H210248   3.678   0.338   1.898
 3431TIP3   OH210249   5.136   7.022   2.995
 3431TIP3    H110250   5.227   7.014   3.024
 3431TIP3    H210251   5.112   6.934   2.967
 3432TIP3   OH210252   8.166   5.337   0.976
 3432TIP3    H110253   8.100   5.390   1.021
 3432TIP3    H210254   8.202   5.395   0.909
 3433TIP3   OH210255   3.135   4.048   3.705
 3433TIP3    H110256   3.155   4.097   3.625
 3433TIP3    H210257   3.137   3.956   3.678
 3434TIP3   OH210258   3.091   4.927   1.104
 3434TIP3    H110259   3.148   4.894   1.174
 3434TIP3    H210260   3.079   5.020   1.124
 3435TIP3   OH210261   2.609   6.461   0.746
 3435TIP3    H110262   2.614   6.501   0.833
 3435TIP3    H210263   2.698   6.433   0.727
 3436TIP3   OH210264   5.030   2.398   6.733
 3436TIP3    H110265   4.937   2.373   6.729
 3436TIP3    H210266   5.057   2.373   6.822
 3437TIP3   OH210267   5.772   7.507   3.460
 3437TIP3    H110268   5.723   7.589   3.466
 3437TIP3    H210269   5.776   7.489   3.366
 3438TIP3   OH210270   1.397   1.820   0.663
 3438TIP3    H110271   1.394   1.731   0.628
 3438TIP3    H210272   1.356   1.873   0.595
 3439TIP3   OH210273   6.722   2.348   6.641
 3439TIP3    H110274   6.719   2.357   6.546
 3439TIP3    H210275   6.632   2.333   6.667
 3440TIP3   OH210276   4.712   6.581   0.465
 3440TIP3    H110277   4.755   6.667   0.462
 3440TIP3    H210278   4.775   6.522   0.424
 3441TIP3   OH210279   0.817   2.423   2.623
 3441TIP3    H110280   0.779   2.411   2.536
 3441TIP3    H210281   0.839   2.334   2.652
 3442TIP3   OH210282   7.497   1.129   1.855
 3442TIP3    H110283   7.408   1.119   1.886
 3442TIP3    H210284   7.547   1.152   1.933
 3443TIP3   OH210285   2.375   6.656   1.173
 3443TIP3    H110286   2.415   6.659   1.259
 3443TIP3    H210287   2.387   6.744   1.137
 3444TIP3   OH210288   7.822   1.331   6.249
 3444TIP3    H110289   7.838   1.395   6.180
 3444TIP3    H210290   7.895   1.269   6.243
 3445TIP3   OH210291   3.489   4.964   2.796
 3445TIP3    H110292   3.543   4.995   2.723
 3445TIP3    H210293   3.475   4.871   2.779
 3446TIP3   OH210294   6.429   1.162   0.847
 3446TIP3    H110295   6.348   1.182   0.800
 3446TIP3    H210296   6.470   1.092   0.796
 3447TIP3   OH210297   4.897   2.157   0.046
 3447TIP3    H110298   4.825   2.094   0.051
 3447TIP3    H210299   4.972   2.110   0.082
 3448TIP3   OH210300   5.569   6.529   1.053
 3448TIP3    H110301   5.550   6.545   1.145
 3448TIP3    H210302   5.665   6.533   1.048
 3449TIP3   OH210303   0.613   7.437   4.854
 3449TIP3    H110304   0.573   7.377   4.792
 3449TIP3    H210305   0.642   7.512   4.801
 3450TIP3   OH210306   7.338   6.054   1.415
 3450TIP3    H110307   7.266   6.104   1.453
 3450TIP3    H210308   7.302   6.018   1.334
 3451TIP3   OH210309   4.747   2.329   2.787
 3451TIP3    H110310   4.683   2.274   2.832
 3451TIP3    H210311   4.704   2.414   2.779
 3452TIP3   OH210312   7.442   2.917   1.415
 3452TIP3    H110313   7.497   2.978   1.464
 3452TIP3    H210314   7.504   2.853   1.379
 3453TIP3   OH210315   7.506   1.987   2.668
 3453TIP3    H110316   7.416   2.010   2.692
 3453TIP3    H210317   7.522   1.904   2.713
 3454TIP3   OH210318   2.432   2.804   3.000
 3454TIP3    H110319   2.519   2.842   3.017
 3454TIP3    H210320   2.407   2.765   3.083
 3455TIP3   OH210321   1.884   4.234   4.124
 3455TIP3    H110322   1.882   4.310   4.065
 3455TIP3    H210323   1.821   4.255   4.192
 3456TIP3   OH210324   2.823   5.348   1.572
 3456TIP3    H110325   2.728   5.356   1.578
 3456TIP3    H210326   2.847   5.404   1.498
 3457TIP3   OH210327   5.814   1.805   5.509
 3457TIP3    H110328   5.904   1.773   5.512
 3457TIP3    H210329   5.821   1.900   5.515
 3458TIP3   OH210330   1.266   3.354   1.157
 3458TIP3    H110331   1.181   3.377   1.120
 3458TIP3    H210332   1.250   3.274   1.206
 3459TIP3   OH210333   5.947   6.658   1.815
 3459TIP3    H110334   5.946   6.748   1.782
 3459TIP3    H210335   5.859   6.626   1.797
 3460TIP3   OH210336   1.379   7.588   6.235
 3460TIP3    H110337   1.474   7.585   6.220
 3460TIP3    H210338   1.368   7.650   6.307
 3461TIP3   OH210339   0.202   6.564   2.954
 3461TIP3    H110340   0.217   6.644   2.903
 3461TIP3    H210341   0.148   6.593   3.028
 3462TIP3   OH210342   3.310   5.332   4.259
 3462TIP3    H110343   3.371   5.364   4.325
 3462TIP3    H210344   3.235   5.299   4.309
 3463TIP3   OH210345   2.686   4.028   0.422
 3463TIP3    H110346   2.609   4.010   0.369
 3463TIP3    H210347   2.660   4.101   0.478
 3464TIP3   OH210348   1.464   2.262   2.197
 3464TIP3    H110349   1.457   2.181   2.249
 3464TIP3    H210350   1.483   2.330   2.262
 3465TIP3   OH210351   0.729   6.248   0.380
 3465TIP3    H110352   0.634   6.256   0.389
 3465TIP3    H210353   0.764   6.314   0.440
 3466TIP3   OH210354   2.698   7.051   5.524
 3466TIP3    H110355   2.611   7.011   5.526
 3466TIP3    H210356   2.720   7.054   5.431
 3467TIP3   OH210357   7.613   4.031   3.791
 3467TIP3    H110358   7.545   4.089   3.826
 3467TIP3    H210359   7.634   4.068   3.705
 3468TIP3   OH210360   5.772   5.301   5.005
 3468TIP3    H110361   5.677   5.289   5.000
 3468TIP3    H210362   5.807   5.229   4.952
 3469TIP3   OH210363   0.693   7.485   1.218
 3469TIP3    H110364   0.600   7.502   1.208
 3469TIP3    H210365   0.718   7.440   1.137
 3470TIP3   OH210366   2.763   1.209   6.716
 3470TIP3    H110367   2.812   1.128   6.704
 3470TIP3    H210368   2.811   1.256   6.784
 3471TIP3   OH210369   1.807   7.468   0.534
 3471TIP3    H110370   1.798   7.546   0.589
 3471TIP3    H210371   1.854   7.405   0.588
 3472TIP3   OH210372   7.645   7.569   0.147
 3472TIP3    H110373   7.692   7.652   0.158
 3472TIP3    H210374   7.699   7.505   0.193
 3473TIP3   OH210375   3.913   2.039   1.658
 3473TIP3    H110376   3.947   2.068   1.743
 3473TIP3    H210377   3.865   2.115   1.624
 3474TIP3   OH210378   4.417   3.669   4.829
 3474TIP3    H110379   4.487   3.664   4.764
 3474TIP3    H210380   4.398   3.578   4.851
 3475TIP3   OH210381   3.526   3.847   0.215
 3475TIP3    H110382   3.447   3.796   0.197
 3475TIP3    H210383   3.564   3.805   0.292
 3476TIP3   OH210384   2.562   0.934   5.771
 3476TIP3    H110385   2.605   0.862   5.817
 3476TIP3    H210386   2.609   1.012   5.800
 3477TIP3   OH210387   0.955   0.625   3.810
 3477TIP3    H110388   0.912   0.544   3.838
 3477TIP3    H210389   0.888   0.692   3.821
 3478TIP3   OH210390   8.043   0.085   4.690
 3478TIP3    H110391   8.053   0.043   4.775
 3478TIP3    H210392   8.085   0.171   4.701
 3479TIP3   OH210393   7.472   1.744   2.435
 3479TIP3    H110394   7.448   1.805   2.365
 3479TIP3    H210395   7.395   1.742   2.492
 3480TIP3   OH210396   2.269   3.207   4.097
 3480TIP3    H110397   2.309   3.127   4.062
 3480TIP3    H210398   2.185   3.178   4.133
 3481TIP3   OH210399   5.063   6.815   2.548
 3481TIP3    H110400   5.037   6.736   2.500
 3481TIP3    H210401   5.064   6.884   2.482
 3482TIP3   OH210402   5.011   2.465   4.804
 3482TIP3    H110403   4.951   2.535   4.780
 3482TIP3    H210404   5.084   2.473   4.743
 3483TIP3   OH210405   2.140   1.977   1.004
 3483TIP3    H110406   2.065   1.965   0.945
 3483TIP3    H210407   2.133   2.068   1.032
 3484TIP3   OH210408   1.307   5.173   5.721
 3484TIP3    H110409   1.293   5.086   5.759
 3484TIP3    H210410   1.299   5.159   5.626
 3485TIP3   OH210411   4.018   5.560   2.708
 3485TIP3    H110412   3.930   5.523   2.709
 3485TIP3    H210413   4.076   5.485   2.719
 3486TIP3   OH210414   2.980   2.895   4.219
 3486TIP3    H110415   2.949   2.973   4.264
 3486TIP3    H210416   3.054   2.865   4.271
 3487TIP3   OH210417   1.651   0.383   3.956
 3487TIP3    H110418   1.606   0.301   3.975
 3487TIP3    H210419   1.737   0.356   3.923
 3488TIP3   OH210420   5.929   0.040   3.817
 3488TIP3    H110421   6.011   0.054   3.865
 3488TIP3    H210422   5.943  -0.040   3.767
 3489TIP3   OH210423   2.060   6.670   0.979
 3489TIP3    H110424   2.046   6.719   1.060
 3489TIP3    H210425   1.982   6.687   0.927
 3490TIP3   OH210426   2.687   1.633   1.039
 3490TIP3    H110427   2.670   1.717   0.997
 3490TIP3    H210428   2.689   1.652   1.132
 3491TIP3   OH210429   2.035   1.161   1.024
 3491TIP3    H110430   2.043   1.253   1.049
 3491TIP3    H210431   1.947   1.136   1.050
 3492TIP3   OH210432   5.274   3.329   0.431
 3492TIP3    H110433   5.246   3.330   0.340
 3492TIP3    H210434   5.279   3.422   0.456
 3493TIP3   OH210435   5.872   5.571   1.222
 3493TIP3    H110436   5.859   5.648   1.166
 3493TIP3    H210437   5.966   5.556   1.220
 3494TIP3   OH210438   1.052   6.135   2.456
 3494TIP3    H110439   0.969   6.177   2.478
 3494TIP3    H210440   1.070   6.163   2.366
 3495TIP3   OH210441   7.671   0.910   0.032
 3495TIP3    H110442   7.640   0.926   0.121
 3495TIP3    H210443   7.760   0.877   0.043
 3496TIP3   OH210444   6.432   6.982   6.058
 3496TIP3    H110445   6.465   7.026   6.136
 3496TIP3    H210446   6.337   6.993   6.063
 3497TIP3   OH210447   6.261   7.552   5.980
 3497TIP3    H110448   6.211   7.596   5.911
 3497TIP3    H210449   6.291   7.623   6.037
 3498TIP3   OH210450   3.326   1.081   5.389
 3498TIP3    H110451   3.352   1.118   5.474
 3498TIP3    H210452   3.296   0.993   5.410
 3499TIP3   OH210453   1.416   3.446   0.750
 3499TIP3    H110454   1.492   3.394   0.724
 3499TIP3    H210455   1.441   3.484   0.834
 3500TIP3   OH210456   2.507   4.425   2.514
 3500TIP3    H110457   2.442   4.373   2.560
 3500TIP3    H210458   2.585   4.419   2.569
 3501TIP3   OH210459   4.916   3.981   3.549
 3501TIP3    H110460   5.003   4.011   3.574
 3501TIP3    H210461   4.856   4.032   3.603
 3502TIP3   OH210462   7.561   5.106   0.921
 3502TIP3    H110463   7.573   5.157   0.841
 3502TIP3    H210464   7.499   5.037   0.896
 3503TIP3   OH210465   6.713   3.157   1.308
 3503TIP3    H110466   6.717   3.092   1.378
 3503TIP3    H210467   6.804   3.177   1.287
 3504TIP3   OH210468   2.510   6.223   5.058
 3504TIP3    H110469   2.540   6.306   5.094
 3504TIP3    H210470   2.429   6.245   5.012
 3505TIP3   OH210471   7.490   6.012   2.970
 3505TIP3    H110472   7.397   5.988   2.968
 3505TIP3    H210473   7.502   6.052   3.057
 3506TIP3   OH210474   3.767   5.937   0.380
 3506TIP3    H110475   3.777   6.033   0.381
 3506TIP3    H210476   3.673   5.923   0.392
 3507TIP3   OH210477   0.629   7.612   2.844
 3507TIP3    H110478   0.577   7.624   2.765
 3507TIP3    H210479   0.671   7.527   2.833
 3508TIP3   OH210480   4.500   0.247   5.228
 3508TIP3    H110481   4.450   0.327   5.209
 3508TIP3    H210482   4.591   0.272   5.212
 3509TIP3   OH210483   3.038   1.305   5.900
 3509TIP3    H110484   3.036   1.221   5.854
 3509TIP3    H210485   2.978   1.361   5.851
 3510TIP3   OH210486   5.965   5.755   3.853
 3510TIP3    H110487   5.876   5.724   3.870
 3510TIP3    H210488   6.012   5.677   3.822
 3511TIP3   OH210489   2.144   2.265   1.067
 3511TIP3    H110490   2.164   2.233   1.155
 3511TIP3    H210491   2.113   2.355   1.081
 3512TIP3   OH210492   8.210   7.560   6.031
 3512TIP3    H110493   8.275   7.492   6.049
 3512TIP3    H210494   8.245   7.639   6.071
 3513TIP3   OH210495   2.069   0.679   1.018
 3513TIP3    H110496   2.123   0.620   0.966
 3513TIP3    H210497   2.048   0.629   1.097
 3514TIP3   OH210498   5.595   1.881   3.485
 3514TIP3    H110499   5.665   1.910   3.426
 3514TIP3    H210500   5.517   1.880   3.430
 3515TIP3   OH210501   0.800   3.760   2.696
 3515TIP3    H110502   0.849   3.683   2.669
 3515TIP3    H210503   0.858   3.806   2.756
 3516TIP3   OH210504   1.079   4.862   4.704
 3516TIP3    H110505   1.116   4.894   4.786
 3516TIP3    H210506   1.110   4.771   4.697
 3517TIP3   OH210507   6.907   3.303   2.736
 3517TIP3    H110508   6.884   3.390   2.768
 3517TIP3    H210509   6.944   3.319   2.649
 3518TIP3   OH210510   6.783   2.880   5.829
 3518TIP3    H110511   6.721   2.942   5.791
 3518TIP3    H210512   6.867   2.925   5.824
 3519TIP3   OH210513   5.626   5.350   4.633
 3519TIP3    H110514   5.577   5.293   4.693
 3519TIP3    H210515   5.697   5.295   4.600
 3520TIP3   OH210516   0.347   5.880   3.911
 3520TIP3    H110517   0.299   5.856   3.991
 3520TIP3    H210518   0.315   5.968   3.890
 3521TIP3   OH210519   2.487   7.114   4.463
 3521TIP3    H110520   2.481   7.023   4.493
 3521TIP3    H210521   2.580   7.128   4.446
 3522TIP3   OH210522   0.525   3.599   0.674
 3522TIP3    H110523   0.554   3.668   0.614
 3522TIP3    H210524   0.597   3.536   0.674
 3523TIP3   OH210525   1.409   5.362   5.362
 3523TIP3    H110526   1.340   5.404   5.414
 3523TIP3    H210527   1.401   5.269   5.383
 3524TIP3   OH210528   5.518   3.652   0.383
 3524TIP3    H110529   5.480   3.614   0.303
 3524TIP3    H210530   5.611   3.661   0.363
 3525TIP3   OH210531   4.667  -0.004   5.210
 3525TIP3    H110532   4.645   0.056   5.281
 3525TIP3    H210533   4.650   0.046   5.130
 3526TIP3   OH210534   7.048   3.327   2.471
 3526TIP3    H110535   7.135   3.301   2.441
 3526TIP3    H210536   7.050   3.423   2.468
 3527TIP3   OH210537   0.362   6.593   1.135
 3527TIP3    H110538   0.282   6.541   1.125
 3527TIP3    H210539   0.425   6.533   1.174
 3528TIP3   OH210540   1.336   2.993   1.470
 3528TIP3    H110541   1.346   3.079   1.430
 3528TIP3    H210542   1.424   2.956   1.472
 3529TIP3   OH210543   5.500   5.837   1.156
 3529TIP3    H110544   5.463   5.752   1.130
 3529TIP3    H210545   5.430   5.900   1.137
 3530TIP3   OH210546   1.474   2.497   2.376
 3530TIP3    H110547   1.448   2.569   2.318
 3530TIP3    H210548   1.400   2.486   2.435
 3531TIP3   OH210549   1.126   5.260   0.444
 3531TIP3    H110550   1.119   5.352   0.418
 3531TIP3    H210551   1.212   5.254   0.486
 3532TIP3   OH210552   6.928   6.811   3.474
 3532TIP3    H110553   6.856   6.874   3.472
 3532TIP3    H210554   6.905   6.746   3.408
 3533TIP3   OH210555   3.954   5.273   1.254
 3533TIP3    H110556   3.868   5.231   1.253
 3533TIP3    H210557   4.014   5.204   1.227
 3534TIP3   OH210558   1.163   2.543   6.773
 3534TIP3    H110559   1.149   2.455   6.738
 3534TIP3    H210560   1.172   2.598   6.696
 3535TIP3   OH210561   3.268   7.818   1.615
 3535TIP3    H110562   3.199   7.773   1.565
 3535TIP3    H210563   3.265   7.778   1.702
 3536TIP3   OH210564   5.633   5.193   4.202
 3536TIP3    H110565   5.649   5.146   4.120
 3536TIP3    H210566   5.649   5.129   4.271
 3537TIP3   OH210567   2.570   0.224   6.313
 3537TIP3    H110568   2.505   0.192   6.376
 3537TIP3    H210569   2.647   0.169   6.328
 3538TIP3   OH210570   2.509   4.680   2.449
 3538TIP3    H110571   2.513   4.589   2.479
 3538TIP3    H210572   2.532   4.732   2.527
 3539TIP3   OH210573   7.388   1.270   6.771
 3539TIP3    H110574   7.449   1.274   6.845
 3539TIP3    H210575   7.440   1.296   6.695
 3540TIP3   OH210576   4.749   3.418   2.025
 3540TIP3    H110577   4.708   3.505   2.029
 3540TIP3    H210578   4.841   3.434   2.045
 3541TIP3   OH210579   1.996   3.404   1.111
 3541TIP3    H110580   1.924   3.467   1.102
 3541TIP3    H210581   2.052   3.422   1.036
 3542TIP3   OH210582   0.430   3.287   0.064
 3542TIP3    H110583   0.395   3.205   0.097
 3542TIP3    H210584   0.518   3.293   0.101
 3543TIP3   OH210585   2.865   6.321   0.736
 3543TIP3    H110586   2.948   6.362   0.712
 3543TIP3    H210587   2.876   6.299   0.829
 3544TIP3   OH210588   0.768   6.895   1.481
 3544TIP3    H110589   0.674   6.878   1.487
 3544TIP3    H210590   0.809   6.809   1.483
 3545TIP3   OH210591   0.020   2.865   1.372
 3545TIP3    H110592   0.108   2.899   1.358
 3545TIP3    H210593   0.032   2.771   1.384
 3546TIP3   OH210594   4.394   3.916   2.352
 3546TIP3    H110595   4.357   3.831   2.326
 3546TIP3    H210596   4.329   3.980   2.322
 3547TIP3   OH210597   6.845   5.014   1.609
 3547TIP3    H110598   6.787   5.068   1.555
 3547TIP3    H210599   6.838   5.052   1.697
 3548TIP3   OH210600   5.024   5.098   4.753
 3548TIP3    H110601   4.971   5.133   4.824
 3548TIP3    H210602   4.960   5.064   4.690
 3549TIP3   OH210603   0.990   6.092   5.464
 3549TIP3    H110604   0.990   6.155   5.391
 3549TIP3    H210605   0.932   6.132   5.530
 3550TIP3   OH210606   2.987   7.666   3.003
 3550TIP3    H110607   2.992   7.571   3.014
 3550TIP3    H210608   3.026   7.701   3.083
 3551TIP3   OH210609   7.776   0.984   3.915
 3551TIP3    H110610   7.813   1.030   3.991
 3551TIP3    H210611   7.838   1.001   3.844
 3552TIP3   OH210612   6.653   7.583   1.813
 3552TIP3    H110613   6.628   7.620   1.898
 3552TIP3    H210614   6.708   7.650   1.773
 3553TIP3   OH210615   0.329   2.867   3.532
 3553TIP3    H110616   0.301   2.800   3.469
 3553TIP3    H210617   0.403   2.827   3.578
 3554TIP3   OH210618   4.648   4.808   5.532
 3554TIP3    H110619   4.714   4.868   5.496
 3554TIP3    H210620   4.564   4.852   5.515
 3555TIP3   OH210621   0.486   2.944   2.501
 3555TIP3    H110622   0.413   2.949   2.438
 3555TIP3    H210623   0.550   3.008   2.468
 3556TIP3   OH210624   4.685   5.255   1.618
 3556TIP3    H110625   4.725   5.252   1.704
 3556TIP3    H210626   4.675   5.164   1.592
 3557TIP3   OH210627   3.620   5.511   6.672
 3557TIP3    H110628   3.660   5.430   6.704
 3557TIP3    H210629   3.586   5.554   6.751
 3558TIP3   OH210630   2.224   4.108   1.961
 3558TIP3    H110631   2.237   4.193   1.920
 3558TIP3    H210632   2.177   4.128   2.042
 3559TIP3   OH210633   0.549   5.364   4.800
 3559TIP3    H110634   0.524   5.277   4.833
 3559TIP3    H210635   0.466   5.412   4.795
 3560TIP3   OH210636   2.599   2.114   0.866
 3560TIP3    H110637   2.533   2.078   0.807
 3560TIP3    H210638   2.665   2.046   0.873
 3561TIP3   OH210639   6.752   0.196   0.245
 3561TIP3    H110640   6.658   0.210   0.256
 3561TIP3    H210641   6.767   0.205   0.151
 3562TIP3   OH210642   6.011   4.993   0.601
 3562TIP3    H110643   5.987   4.903   0.581
 3562TIP3    H210644   6.106   4.996   0.590
 3563TIP3   OH210645   7.596   7.710   3.661
 3563TIP3    H110646   7.594   7.767   3.585
 3563TIP3    H210647   7.662   7.748   3.719
 3564TIP3   OH210648   0.567   6.695   1.827
 3564TIP3    H110649   0.561   6.743   1.909
 3564TIP3    H210650   0.558   6.762   1.759
 3565TIP3   OH210651   3.278   2.139   3.516
 3565TIP3    H110652   3.254   2.050   3.493
 3565TIP3    H210653   3.261   2.190   3.437
 3566TIP3   OH210654   1.592   1.899   0.848
 3566TIP3    H110655   1.611   1.823   0.793
 3566TIP3    H210656   1.499   1.917   0.833
 3567TIP3   OH210657   0.829   7.306   6.331
 3567TIP3    H110658   0.761   7.265   6.278
 3567TIP3    H210659   0.892   7.340   6.267
 3568TIP3   OH210660   4.293   0.230   6.311
 3568TIP3    H110661   4.268   0.316   6.276
 3568TIP3    H210662   4.211   0.180   6.313
 3569TIP3   OH210663   1.260   6.051   2.619
 3569TIP3    H110664   1.260   5.956   2.609
 3569TIP3    H210665   1.195   6.082   2.557
 3570TIP3   OH210666   3.724   1.398   1.532
 3570TIP3    H110667   3.730   1.313   1.487
 3570TIP3    H210668   3.710   1.461   1.462
 3571TIP3   OH210669   4.343   4.924   6.440
 3571TIP3    H110670   4.378   4.861   6.503
 3571TIP3    H210671   4.340   4.877   6.357
 3572TIP3   OH210672   3.164   3.450   6.580
 3572TIP3    H110673   3.143   3.386   6.513
 3572TIP3    H210674   3.253   3.478   6.560
 3573TIP3   OH210675   2.428   5.289   2.324
 3573TIP3    H110676   2.476   5.225   2.376
 3573TIP3    H210677   2.488   5.313   2.253
 3574TIP3   OH210678   5.004   5.979   0.674
 3574TIP3    H110679   5.042   6.024   0.749
 3574TIP3    H210680   4.918   5.950   0.704
 3575TIP3   OH210681   4.626   3.972   3.258
 3575TIP3    H110682   4.561   3.911   3.223
 3575TIP3    H210683   4.692   3.917   3.300
 3576TIP3   OH210684   5.467   2.721   4.109
 3576TIP3    H110685   5.392   2.749   4.056
 3576TIP3    H210686   5.453   2.763   4.193
 3577TIP3   OH210687   3.552   3.883   1.019
 3577TIP3    H110688   3.501   3.865   1.098
 3577TIP3    H210689   3.543   3.978   1.007
 3578TIP3   OH210690   1.989   4.339   1.646
 3578TIP3    H110691   1.980   4.375   1.558
 3578TIP3    H210692   2.028   4.409   1.697
 3579TIP3   OH210693   4.013   1.161   1.435
 3579TIP3    H110694   3.968   1.215   1.371
 3579TIP3    H210695   3.987   1.071   1.413
 3580TIP3   OH210696   3.226   2.524   3.459
 3580TIP3    H110697   3.130   2.528   3.462
 3580TIP3    H210698   3.254   2.612   3.485
 3581TIP3   OH210699   0.304   7.526   1.767
 3581TIP3    H110700   0.354   7.511   1.847
 3581TIP3    H210701   0.371   7.527   1.698
 3582TIP3   OH210702   5.345   1.568   5.895
 3582TIP3    H110703   5.347   1.596   5.803
 3582TIP3    H210704   5.263   1.605   5.928
 3583TIP3   OH210705   5.566   5.309   1.954
 3583TIP3    H110706   5.504   5.334   1.885
 3583TIP3    H210707   5.572   5.386   2.010
 3584TIP3   OH210708   1.218   0.188   4.273
 3584TIP3    H110709   1.267   0.110   4.247
 3584TIP3    H210710   1.181   0.165   4.359
 3585TIP3   OH210711   0.552   6.223   2.646
 3585TIP3    H110712   0.629   6.167   2.644
 3585TIP3    H210713   0.524   6.222   2.737
 3586TIP3   OH210714   3.142   2.371   4.639
 3586TIP3    H110715   3.206   2.331   4.698
 3586TIP3    H210716   3.126   2.304   4.572
 3587TIP3   OH210717   5.019   5.895   2.522
 3587TIP3    H110718   4.975   5.958   2.465
 3587TIP3    H210719   5.035   5.819   2.465
 3588TIP3   OH210720   4.893   7.363   3.305
 3588TIP3    H110721   4.824   7.348   3.240
 3588TIP3    H210722   4.876   7.452   3.336
 3589TIP3   OH210723   2.676   2.371   2.600
 3589TIP3    H110724   2.678   2.445   2.540
 3589TIP3    H210725   2.766   2.362   2.631
 3590TIP3   OH210726   7.519   2.825   0.477
 3590TIP3    H110727   7.441   2.878   0.459
 3590TIP3    H210728   7.490   2.758   0.538
 3591TIP3   OH210729   6.680   7.014   5.002
 3591TIP3    H110730   6.709   6.945   5.061
 3591TIP3    H210731   6.645   6.968   4.926
 3592TIP3   OH210732   3.420   4.792   0.005
 3592TIP3    H110733   3.491   4.836   0.052
 3592TIP3    H210734   3.350   4.784   0.070
 3593TIP3   OH210735   0.612   6.431   4.620
 3593TIP3    H110736   0.567   6.492   4.562
 3593TIP3    H210737   0.705   6.454   4.611
 3594TIP3   OH210738   1.671   0.623   2.913
 3594TIP3    H110739   1.755   0.649   2.875
 3594TIP3    H210740   1.608   0.688   2.880
 3595TIP3   OH210741   7.016   1.194   4.968
 3595TIP3    H110742   7.100   1.147   4.973
 3595TIP3    H210743   6.961   1.138   4.913
 3596TIP3   OH210744   5.790   4.937   5.228
 3596TIP3    H110745   5.851   4.906   5.161
 3596TIP3    H210746   5.816   5.028   5.244
 3597TIP3   OH210747   7.161   5.023   3.393
 3597TIP3    H110748   7.228   4.979   3.341
 3597TIP3    H210749   7.201   5.106   3.419
 3598TIP3   OH210750   1.772   6.549   1.078
 3598TIP3    H110751   1.726   6.611   1.021
 3598TIP3    H210752   1.801   6.479   1.019
 3599TIP3   OH210753   5.202   0.577   5.637
 3599TIP3    H110754   5.239   0.491   5.656
 3599TIP3    H210755   5.277   0.631   5.614
 3600TIP3   OH210756   6.378   4.005   3.383
 3600TIP3    H110757   6.333   4.022   3.300
 3600TIP3    H210758   6.360   3.913   3.401
 3601TIP3   OH210759   6.435   1.893   3.223
 3601TIP3    H110760   6.421   1.891   3.128
 3601TIP3    H210761   6.409   1.805   3.252
 3602TIP3   OH210762   2.791   2.152   4.618
 3602TIP3    H110763   2.812   2.117   4.704
 3602TIP3    H210764   2.823   2.086   4.557
 3603TIP3   OH210765   0.238   3.486   3.377
 3603TIP3    H110766   0.167   3.509   3.316
 3603TIP3    H210767   0.311   3.463   3.321
 3604TIP3   OH210768   2.338   4.810   5.873
 3604TIP3    H110769   2.317   4.872   5.804
 3604TIP3    H210770   2.420   4.769   5.844
 3605TIP3   OH210771   3.937   4.819   0.104
 3605TIP3    H110772   3.938   4.735   0.059
 3605TIP3    H210773   3.968   4.882   0.038
 3606TIP3   OH210774   1.714   0.386   0.692
 3606TIP3    H110775   1.775   0.399   0.620
 3606TIP3    H210776   1.695   0.474   0.724
 3607TIP3   OH210777   5.752   6.060   6.320
 3607TIP3    H110778   5.732   6.148   6.353
 3607TIP3    H210779   5.843   6.045   6.346
 3608TIP3   OH210780   0.925   6.435   2.420
 3608TIP3    H110781   1.014   6.456   2.391
 3608TIP3    H210782   0.876   6.516   2.405
 3609TIP3   OH210783   7.750   1.815   2.947
 3609TIP3    H110784   7.760   1.850   2.858
 3609TIP3    H210785   7.810   1.867   3.000
 3610TIP3   OH210786   3.096   6.028   2.424
 3610TIP3    H110787   3.037   6.016   2.350
 3610TIP3    H210788   3.043   6.007   2.501
 3611TIP3   OH210789   1.469   0.730   4.215
 3611TIP3    H110790   1.439   0.749   4.304
 3611TIP3    H210791   1.447   0.638   4.201
 3612TIP3   OH210792   3.389   6.128   1.686
 3612TIP3    H110793   3.363   6.059   1.747
 3612TIP3    H210794   3.442   6.188   1.739
 3613TIP3   OH210795   4.286   1.472   6.195
 3613TIP3    H110796   4.365   1.446   6.241
 3613TIP3    H210797   4.309   1.553   6.150
 3614TIP3   OH210798   7.045   0.264   2.303
 3614TIP3    H110799   7.111   0.320   2.343
 3614TIP3    H210800   7.010   0.316   2.231
 3615TIP3   OH210801   1.301   0.792   5.862
 3615TIP3    H110802   1.273   0.883   5.859
 3615TIP3    H210803   1.283   0.764   5.952
 3616TIP3   OH210804   8.163   2.344   0.490
 3616TIP3    H110805   8.119   2.417   0.535
 3616TIP3    H210806   8.111   2.267   0.512
 3617TIP3   OH210807   8.005   7.372   1.635
 3617TIP3    H110808   7.937   7.350   1.572
 3617TIP3    H210809   8.067   7.427   1.587
 3618TIP3   OH210810   1.721   4.208   1.809
 3618TIP3    H110811   1.693   4.233   1.721
 3618TIP3    H210812   1.773   4.283   1.839
 3619TIP3   OH210813   3.804   0.134   2.533
 3619TIP3    H110814   3.847   0.052   2.510
 3619TIP3    H210815   3.858   0.170   2.604
 3620TIP3   OH210816   8.077   3.275   2.958
 3620TIP3    H110817   8.030   3.297   3.039
 3620TIP3    H210818   8.024   3.314   2.888
 3621TIP3   OH210819   4.120   2.467   0.369
 3621TIP3    H110820   4.092   2.478   0.278
 3621TIP3    H210821   4.208   2.505   0.371
 3622TIP3   OH210822   6.362   6.733   6.387
 3622TIP3    H110823   6.446   6.736   6.340
 3622TIP3    H210824   6.304   6.684   6.328
 3623TIP3   OH210825   7.537   2.127   3.217
 3623TIP3    H110826   7.442   2.125   3.218
 3623TIP3    H210827   7.561   2.208   3.260
 3624TIP3   OH210828   4.692   4.179   4.339
 3624TIP3    H110829   4.598   4.191   4.330
 3624TIP3    H210830   4.712   4.103   4.285
 3625TIP3   OH210831   3.953   7.275   5.005
 3625TIP3    H110832   3.896   7.333   5.057
 3625TIP3    H210833   3.971   7.325   4.926
 3626TIP3   OH210834   7.497   0.541   2.745
 3626TIP3    H110835   7.515   0.621   2.695
 3626TIP3    H210836   7.442   0.570   2.818
 3627TIP3   OH210837   6.542   0.143   5.724
 3627TIP3    H110838   6.614   0.090   5.689
 3627TIP3    H210839   6.586   0.219   5.763
 3628TIP3   OH210840   8.134   2.661   4.063
 3628TIP3    H110841   8.112   2.711   4.142
 3628TIP3    H210842   8.213   2.613   4.086
 3629TIP3   OH210843   5.096   3.838   1.134
 3629TIP3    H110844   5.056   3.786   1.064
 3629TIP3    H210845   5.057   3.804   1.214
 3630TIP3   OH210846   2.278   4.808   2.775
 3630TIP3    H110847   2.319   4.875   2.719
 3630TIP3    H210848   2.283   4.728   2.723
 3631TIP3   OH210849   0.637   2.746   3.237
 3631TIP3    H110850   0.601   2.751   3.149
 3631TIP3    H210851   0.560   2.732   3.293
 3632TIP3   OH210852   8.117   2.953   3.822
 3632TIP3    H110853   8.049   2.889   3.845
 3632TIP3    H210854   8.168   2.910   3.754
 3633TIP3   OH210855   3.328   4.084   2.985
 3633TIP3    H110856   3.293   4.085   2.896
 3633TIP3    H210857   3.409   4.135   2.980
 3634TIP3   OH210858   2.557   6.051   2.188
 3634TIP3    H110859   2.545   6.138   2.228
 3634TIP3    H210860   2.632   6.013   2.234
 3635TIP3   OH210861   0.373   2.734   4.959
 3635TIP3    H110862   0.403   2.649   4.991
 3635TIP3    H210863   0.441   2.796   4.987
 3636TIP3   OH210864   6.196   7.066   4.531
 3636TIP3    H110865   6.221   7.001   4.597
 3636TIP3    H210866   6.190   7.149   4.580
 3637TIP3   OH210867   0.082   0.019   3.294
 3637TIP3    H110868   0.098  -0.003   3.385
 3637TIP3    H210869   0.009   0.081   3.297
 3638TIP3   OH210870   1.796   5.007   5.216
 3638TIP3    H110871   1.784   5.042   5.304
 3638TIP3    H210872   1.708   4.984   5.187
 3639TIP3   OH210873   2.302   0.928   3.758
 3639TIP3    H110874   2.267   0.935   3.669
 3639TIP3    H210875   2.226   0.910   3.813
 3640TIP3   OH210876   4.859   6.482   4.187
 3640TIP3    H110877   4.802   6.558   4.180
 3640TIP3    H210878   4.941   6.516   4.221
 3641TIP3   OH210879   4.912   1.121   6.707
 3641TIP3    H110880   4.924   1.178   6.632
 3641TIP3    H210881   4.999   1.082   6.722
 3642TIP3   OH210882   3.699   6.753   4.188
 3642TIP3    H110883   3.775   6.695   4.195
 3642TIP3    H210884   3.627   6.695   4.161
 3643TIP3   OH210885   5.925   4.933   3.769
 3643TIP3    H110886   5.939   4.907   3.860
 3643TIP3    H210887   5.846   4.887   3.742
 3644TIP3   OH210888   2.318   2.244   0.236
 3644TIP3    H110889   2.332   2.327   0.280
 3644TIP3    H210890   2.242   2.205   0.281
 3645TIP3   OH210891   2.656   1.417   0.114
 3645TIP3    H110892   2.670   1.429   0.020
 3645TIP3    H210893   2.737   1.449   0.155
 3646TIP3   OH210894   3.164   4.680   6.483
 3646TIP3    H110895   3.148   4.644   6.570
 3646TIP3    H210896   3.250   4.646   6.458
 3647TIP3   OH210897   0.318   6.709   2.248
 3647TIP3    H110898   0.263   6.726   2.324
 3647TIP3    H210899   0.261   6.663   2.186
 3648TIP3   OH210900   5.086   5.814   1.974
 3648TIP3    H110901   5.051   5.725   1.966
 3648TIP3    H210902   5.149   5.808   2.046
 3649TIP3   OH210903   4.495   3.937   4.903
 3649TIP3    H110904   4.446   3.868   4.858
 3649TIP3    H210905   4.437   3.964   4.975
 3650TIP3   OH210906   0.571   6.300   6.498
 3650TIP3    H110907   0.491   6.303   6.549
 3650TIP3    H210908   0.638   6.338   6.555
 3651TIP3   OH210909   7.977   7.359   5.479
 3651TIP3    H110910   8.063   7.316   5.473
 3651TIP3    H210911   7.960   7.364   5.572
 3652TIP3   OH210912   0.546   1.373   4.431
 3652TIP3    H110913   0.488   1.351   4.503
 3652TIP3    H210914   0.558   1.468   4.437
 3653TIP3   OH210915   2.608   7.747   6.424
 3653TIP3    H110916   2.613   7.820   6.362
 3653TIP3    H210917   2.519   7.753   6.460
 3654TIP3   OH210918   4.258   6.120   6.738
 3654TIP3    H110919   4.272   6.046   6.679
 3654TIP3    H210920   4.333   6.177   6.723
 3655TIP3   OH210921   6.876   5.489   0.882
 3655TIP3    H110922   6.844   5.547   0.951
 3655TIP3    H210923   6.887   5.405   0.924
 3656TIP3   OH210924   3.968   5.997   5.566
 3656TIP3    H110925   3.959   6.087   5.597
 3656TIP3    H210926   3.897   5.949   5.609
 3657TIP3   OH210927   4.920   7.376   5.143
 3657TIP3    H110928   4.984   7.436   5.182
 3657TIP3    H210929   4.864   7.432   5.090
 3658TIP3   OH210930   6.969   3.192   1.217
 3658TIP3    H110931   7.034   3.136   1.258
 3658TIP3    H210932   7.020   3.253   1.164
 3659TIP3   OH210933   4.700   5.309   2.354
 3659TIP3    H110934   4.733   5.383   2.406
 3659TIP3    H210935   4.656   5.350   2.280
 3660TIP3   OH210936   7.856   5.033   1.105
 3660TIP3    H110937   7.766   5.049   1.133
 3660TIP3    H210938   7.847   4.999   1.015
 3661TIP3   OH210939   2.955   1.074   4.139
 3661TIP3    H110940   2.877   1.019   4.132
 3661TIP3    H210941   2.925   1.154   4.181
 3662TIP3   OH210942   7.936   2.380   6.545
 3662TIP3    H110943   7.908   2.361   6.456
 3662TIP3    H210944   7.865   2.435   6.581
 3663TIP3   OH210945   2.720   0.265   0.899
 3663TIP3    H110946   2.705   0.359   0.905
 3663TIP3    H210947   2.743   0.250   0.807
 3664TIP3   OH210948   4.566   3.508   1.270
 3664TIP3    H110949   4.471   3.493   1.268
 3664TIP3    H210950   4.601   3.428   1.310
 3665TIP3   OH210951   4.494   0.958   3.725
 3665TIP3    H110952   4.475   1.035   3.671
 3665TIP3    H210953   4.500   0.993   3.814
 3666TIP3   OH210954   0.679   4.894   1.567
 3666TIP3    H110955   0.584   4.900   1.581
 3666TIP3    H210956   0.711   4.841   1.640
 3667TIP3   OH210957   5.695   5.755   4.038
 3667TIP3    H110958   5.709   5.782   4.128
 3667TIP3    H210959   5.677   5.661   4.044
 3668TIP3   OH210960   0.105   0.761   3.278
 3668TIP3    H110961   0.090   0.750   3.184
 3668TIP3    H210962   0.088   0.674   3.316
 3669TIP3   OH210963   5.167   6.437   5.220
 3669TIP3    H110964   5.126   6.520   5.246
 3669TIP3    H210965   5.157   6.435   5.125
 3670TIP3   OH210966   5.778   3.042   1.740
 3670TIP3    H110967   5.786   3.134   1.765
 3670TIP3    H210968   5.819   3.036   1.654
 3671TIP3   OH210969   6.059   2.815   0.524
 3671TIP3    H110970   6.081   2.791   0.434
 3671TIP3    H210971   6.134   2.786   0.575
 3672TIP3   OH210972   6.566   5.560   3.713
 3672TIP3    H110973   6.608   5.475   3.699
 3672TIP3    H210974   6.479   5.538   3.746
 3673TIP3   OH210975   5.134   4.627   1.361
 3673TIP3    H110976   5.187   4.612   1.283
 3673TIP3    H210977   5.158   4.714   1.391
 3674TIP3   OH210978   3.307   6.504   0.444
 3674TIP3    H110979   3.331   6.421   0.485
 3674TIP3    H210980   3.389   6.539   0.410
 3675TIP3   OH210981   3.393   2.209   1.174
 3675TIP3    H110982   3.354   2.263   1.105
 3675TIP3    H210983   3.487   2.217   1.161
 3676TIP3   OH210984   5.289   0.406   4.625
 3676TIP3    H110985   5.307   0.414   4.531
 3676TIP3    H210986   5.337   0.327   4.651
 3677TIP3   OH210987   0.148   7.199   5.263
 3677TIP3    H110988   0.098   7.169   5.186
 3677TIP3    H210989   0.158   7.121   5.317
 3678TIP3   OH210990   2.591   3.659   2.158
 3678TIP3    H110991   2.525   3.705   2.210
 3678TIP3    H210992   2.661   3.724   2.146
 3679TIP3   OH210993   6.261   2.373   2.409
 3679TIP3    H110994   6.311   2.396   2.488
 3679TIP3    H210995   6.190   2.438   2.406
 3680TIP3   OH210996   6.967   3.561   2.611
 3680TIP3    H110997   6.903   3.534   2.545
 3680TIP3    H210998   6.996   3.648   2.582
 3681TIP3   OH210999   8.140   4.325   4.176
 3681TIP3    H111000   8.128   4.249   4.119
 3681TIP3    H211001   8.134   4.400   4.117
 3682TIP3   OH211002   3.381   5.704   2.426
 3682TIP3    H111003   3.301   5.676   2.470
 3682TIP3    H211004   3.420   5.769   2.486
 3683TIP3   OH211005   7.329   0.555   6.458
 3683TIP3    H111006   7.251   0.588   6.415
 3683TIP3    H211007   7.324   0.588   6.547
 3684TIP3   OH211008   3.864   6.475   2.945
 3684TIP3    H111009   3.940   6.416   2.945
 3684TIP3    H211010   3.804   6.437   2.880
 3685TIP3   OH211011   1.385   0.884   5.325
 3685TIP3    H111012   1.470   0.902   5.285
 3685TIP3    H211013   1.321   0.924   5.265
 3686TIP3   OH211014   1.646   5.123   3.082
 3686TIP3    H111015   1.696   5.057   3.130
 3686TIP3    H211016   1.561   5.082   3.066
 3687TIP3   OH211017   6.017   5.535   0.614
 3687TIP3    H111018   6.102   5.506   0.582
 3687TIP3    H211019   6.016   5.509   0.706
 3688TIP3   OH211020   6.854   3.800   4.816
 3688TIP3    H111021   6.885   3.710   4.806
 3688TIP3    H211022   6.760   3.795   4.797
 3689TIP3   OH211023   1.316   1.323   3.610
 3689TIP3    H111024   1.299   1.348   3.701
 3689TIP3    H211025   1.410   1.334   3.599
 3690TIP3   OH211026   5.662   3.796   0.973
 3690TIP3    H111027   5.728   3.766   1.035
 3690TIP3    H211028   5.579   3.786   1.018
 3691TIP3   OH211029   4.818   0.878   5.753
 3691TIP3    H111030   4.873   0.837   5.687
 3691TIP3    H211031   4.879   0.921   5.813
 3692TIP3   OH211032   1.018   0.665   6.381
 3692TIP3    H111033   1.084   0.717   6.428
 3692TIP3    H211034   0.986   0.603   6.446
 3693TIP3   OH211035   1.973   5.172   3.590
 3693TIP3    H111036   2.031   5.230   3.638
 3693TIP3    H211037   1.968   5.209   3.502
 3694TIP3   OH211038   1.916   2.055   1.252
 3694TIP3    H111039   1.883   2.095   1.333
 3694TIP3    H211040   1.839   2.048   1.196
 3695TIP3   OH211041   2.347   2.725   0.545
 3695TIP3    H111042   2.263   2.708   0.502
 3695TIP3    H211043   2.349   2.820   0.555
 3696TIP3   OH211044   6.653   6.184   3.029
 3696TIP3    H111045   6.705   6.180   3.109
 3696TIP3    H211046   6.688   6.259   2.981
 3697TIP3   OH211047   5.732   1.604   3.414
 3697TIP3    H111048   5.711   1.600   3.507
 3697TIP3    H211049   5.785   1.683   3.404
 3698TIP3   OH211050   2.654   0.567   5.761
 3698TIP3    H111051   2.568   0.550   5.800
 3698TIP3    H211052   2.647   0.531   5.673
 3699TIP3   OH211053   6.353   5.450   3.829
 3699TIP3    H111054   6.400   5.420   3.906
 3699TIP3    H211055   6.262   5.422   3.843
 3700TIP3   OH211056   0.226   6.137   2.106
 3700TIP3    H111057   0.262   6.130   2.195
 3700TIP3    H211058   0.174   6.057   2.095
 3701TIP3   OH211059   7.680   4.323   5.483
 3701TIP3    H111060   7.725   4.407   5.489
 3701TIP3    H211061   7.663   4.312   5.389
 3702TIP3   OH211062   5.787   2.933   3.653
 3702TIP3    H111063   5.814   2.952   3.743
 3702TIP3    H211064   5.821   3.007   3.602
 3703TIP3   OH211065   6.000   0.832   2.298
 3703TIP3    H111066   6.051   0.758   2.332
 3703TIP3    H211067   5.999   0.818   2.204
 3704TIP3   OH211068   7.101   5.802   6.262
 3704TIP3    H111069   7.109   5.792   6.167
 3704TIP3    H211070   7.019   5.852   6.274
 3705TIP3   OH211071   2.796   3.494   5.119
 3705TIP3    H111072   2.786   3.401   5.100
 3705TIP3    H211073   2.806   3.498   5.215
 3706TIP3   OH211074   1.148   6.462   2.653
 3706TIP3    H111075   1.058   6.430   2.645
 3706TIP3    H211076   1.141   6.557   2.638
 3707TIP3   OH211077   1.838   5.471   4.966
 3707TIP3    H111078   1.840   5.385   5.009
 3707TIP3    H211079   1.757   5.512   4.998
 3708TIP3   OH211080   0.064   0.100   4.514
 3708TIP3    H111081   0.104   0.143   4.438
 3708TIP3    H211082   0.037   0.172   4.571
 3709TIP3   OH211083   7.938   5.152   0.350
 3709TIP3    H111084   7.876   5.083   0.371
 3709TIP3    H211085   7.886   5.233   0.351
 3710TIP3   OH211086   3.889   6.275   1.501
 3710TIP3    H111087   3.913   6.367   1.514
 3710TIP3    H211088   3.819   6.277   1.436
 3711TIP3   OH211089   4.823   2.946   4.211
 3711TIP3    H111090   4.840   3.028   4.165
 3711TIP3    H211091   4.728   2.935   4.207
 3712TIP3   OH211092   4.345   5.538   4.116
 3712TIP3    H111093   4.284   5.510   4.048
 3712TIP3    H211094   4.298   5.603   4.166
 3713TIP3   OH211095   0.487   6.330   2.403
 3713TIP3    H111096   0.522   6.283   2.479
 3713TIP3    H211097   0.551   6.399   2.386
 3714TIP3   OH211098   4.064   6.054   2.234
 3714TIP3    H111099   4.148   6.021   2.264
 3714TIP3    H211100   4.083   6.141   2.200
 3715TIP3   OH211101   7.045   4.583   0.889
 3715TIP3    H111102   7.008   4.511   0.838
 3715TIP3    H211103   7.139   4.577   0.875
 3716TIP3   OH211104   0.615   0.120   3.997
 3716TIP3    H111105   0.585   0.044   4.046
 3716TIP3    H211106   0.595   0.195   4.053
 3717TIP3   OH211107   0.672   7.501   2.462
 3717TIP3    H111108   0.666   7.590   2.428
 3717TIP3    H211109   0.590   7.460   2.434
 3718TIP3   OH211110   6.533   0.304   3.363
 3718TIP3    H111111   6.577   0.316   3.279
 3718TIP3    H211112   6.543   0.210   3.382
 3719TIP3   OH211113   3.717   4.304   0.881
 3719TIP3    H111114   3.715   4.397   0.857
 3719TIP3    H211115   3.722   4.257   0.798
 3720TIP3   OH211116   2.096   3.164   1.236
 3720TIP3    H111117   2.191   3.173   1.224
 3720TIP3    H211118   2.059   3.239   1.191
 3721TIP3   OH211119   7.628   3.489   4.507
 3721TIP3    H111120   7.535   3.480   4.489
 3721TIP3    H211121   7.667   3.407   4.473
 3722TIP3   OH211122   1.130   1.277   0.877
 3722TIP3    H111123   1.158   1.367   0.862
 3722TIP3    H211124   1.084   1.280   0.961
 3723TIP3   OH211125   7.836   6.691   2.481
 3723TIP3    H111126   7.840   6.762   2.417
 3723TIP3    H211127   7.926   6.659   2.486
 3724TIP3   OH211128   5.801   6.774   5.565
 3724TIP3    H111129   5.859   6.721   5.510
 3724TIP3    H211130   5.861   6.826   5.619
 3725TIP3   OH211131   1.409   1.554   0.519
 3725TIP3    H111132   1.322   1.577   0.486
 3725TIP3    H211133   1.460   1.538   0.440
 3726TIP3   OH211134   0.046   4.656   5.784
 3726TIP3    H111135   0.126   4.642   5.835
 3726TIP3    H211136   0.024   4.748   5.797
 3727TIP3   OH211137   6.982   0.661   4.091
 3727TIP3    H111138   7.016   0.745   4.120
 3727TIP3    H211139   6.964   0.673   3.998
 3728TIP3   OH211140   3.061   3.526   2.677
 3728TIP3    H111141   3.152   3.527   2.707
 3728TIP3    H211142   3.064   3.565   2.589
 3729TIP3   OH211143   5.821   6.959   1.863
 3729TIP3    H111144   5.869   6.967   1.946
 3729TIP3    H211145   5.890   6.945   1.797
 3730TIP3   OH211146   2.378   1.245   3.819
 3730TIP3    H111147   2.435   1.284   3.753
 3730TIP3    H211148   2.428   1.249   3.900
 3731TIP3   OH211149   7.661   1.383   0.822
 3731TIP3    H111150   7.624   1.470   0.836
 3731TIP3    H211151   7.626   1.331   0.895
 3732TIP3   OH211152   2.668   5.687   5.702
 3732TIP3    H111153   2.668   5.777   5.734
 3732TIP3    H211154   2.757   5.673   5.669
 3733TIP3   OH211155   4.936   6.750   3.951
 3733TIP3    H111156   4.973   6.747   4.039
 3733TIP3    H211157   5.012   6.750   3.893
 3734TIP3   OH211158   2.260   1.230   2.285
 3734TIP3    H111159   2.187   1.247   2.344
 3734TIP3    H211160   2.331   1.286   2.318
 3735TIP3   OH211161   5.913   5.991   3.992
 3735TIP3    H111162   5.911   5.905   3.949
 3735TIP3    H211163   5.962   6.047   3.931
 3736TIP3   OH211164   2.522   6.501   5.127
 3736TIP3    H111165   2.519   6.500   5.222
 3736TIP3    H211166   2.469   6.576   5.101
 3737TIP3   OH211167   2.473   4.607   6.576
 3737TIP3    H111168   2.454   4.583   6.486
 3737TIP3    H211169   2.475   4.703   6.575
 3738TIP3   OH211170   8.289   5.936   6.108
 3738TIP3    H111171   8.364   5.949   6.167
 3738TIP3    H211172   8.323   5.960   6.022
 3739TIP3   OH211173   7.742   6.225   1.696
 3739TIP3    H111174   7.684   6.296   1.670
 3739TIP3    H211175   7.693   6.179   1.764
 3740TIP3   OH211176   7.106   2.418   1.787
 3740TIP3    H111177   7.153   2.485   1.836
 3740TIP3    H211178   7.136   2.335   1.824
 3741TIP3   OH211179   3.087   4.120   4.870
 3741TIP3    H111180   3.092   4.214   4.854
 3741TIP3    H211181   3.178   4.093   4.886
 3742TIP3   OH211182   3.324   3.443   4.996
 3742TIP3    H111183   3.406   3.399   4.975
 3742TIP3    H211184   3.350   3.530   5.027
 3743TIP3   OH211185   5.268   3.241   4.049
 3743TIP3    H111186   5.266   3.323   4.000
 3743TIP3    H211187   5.254   3.173   3.984
 3744TIP3   OH211188   7.652   0.904   0.743
 3744TIP3    H111189   7.672   0.921   0.836
 3744TIP3    H211190   7.577   0.844   0.745
 3745TIP3   OH211191   2.920   6.665   3.209
 3745TIP3    H111192   3.008   6.650   3.245
 3745TIP3    H211193   2.879   6.579   3.209
 3746TIP3   OH211194   7.323   2.051   3.909
 3746TIP3    H111195   7.357   2.114   3.974
 3746TIP3    H211196   7.398   2.035   3.851
 3747TIP3   OH211197   5.396   6.074   0.466
 3747TIP3    H111198   5.353   6.095   0.549
 3747TIP3    H211199   5.377   5.982   0.451
 3748TIP3   OH211200   0.113   4.033   0.864
 3748TIP3    H111201   0.063   4.103   0.906
 3748TIP3    H211202   0.159   3.990   0.936
 3749TIP3   OH211203   1.736   1.068   0.308
 3749TIP3    H111204   1.793   1.007   0.355
 3749TIP3    H211205   1.748   1.046   0.216
 3750TIP3   OH211206   5.825   6.317   1.115
 3750TIP3    H111207   5.832   6.221   1.123
 3750TIP3    H211208   5.854   6.350   1.200
 3751TIP3   OH211209   8.199   0.586   2.693
 3751TIP3    H111210   8.273   0.646   2.698
 3751TIP3    H211211   8.238   0.499   2.699
 3752TIP3   OH211212   7.584   5.943   1.334
 3752TIP3    H111213   7.659   5.976   1.384
 3752TIP3    H211214   7.508   5.966   1.387
 3753TIP3   OH211215   2.937   2.581   3.688
 3753TIP3    H111216   3.029   2.581   3.717
 3753TIP3    H211217   2.894   2.644   3.746
 3754TIP3   OH211218   2.394   2.696   2.095
 3754TIP3    H111219   2.349   2.780   2.107
 3754TIP3    H211220   2.404   2.662   2.183
 3755TIP3   OH211221   5.325   6.264   2.079
 3755TIP3    H111222   5.286   6.194   2.027
 3755TIP3    H211223   5.266   6.273   2.154
 3756TIP3   OH211224   6.200   2.216   1.471
 3756TIP3    H111225   6.168   2.292   1.423
 3756TIP3    H211226   6.174   2.233   1.562
 3757TIP3   OH211227   2.870   6.602   1.790
 3757TIP3    H111228   2.821   6.677   1.823
 3757TIP3    H211229   2.877   6.543   1.865
 3758TIP3   OH211230   0.277   7.686   2.416
 3758TIP3    H111231   0.202   7.735   2.450
 3758TIP3    H211232   0.253   7.594   2.426
 3759TIP3   OH211233   6.071   0.397   1.313
 3759TIP3    H111234   6.142   0.461   1.325
 3759TIP3    H211235   6.095   0.324   1.371
 3760TIP3   OH211236   0.411   5.258   4.357
 3760TIP3    H111237   0.413   5.279   4.264
 3760TIP3    H211238   0.424   5.342   4.401
 3761TIP3   OH211239   2.973   5.137   3.157
 3761TIP3    H111240   3.038   5.202   3.184
 3761TIP3    H211241   2.997   5.116   3.067
 3762TIP3   OH211242   7.579   1.539   5.176
 3762TIP3    H111243   7.641   1.537   5.103
 3762TIP3    H211244   7.581   1.630   5.207
 3763TIP3   OH211245   6.019   0.152   6.302
 3763TIP3    H111246   5.975   0.202   6.371
 3763TIP3    H211247   6.058   0.078   6.348
 3764TIP3   OH211248   7.674   6.508   5.537
 3764TIP3    H111249   7.736   6.537   5.605
 3764TIP3    H211250   7.649   6.588   5.492
 3765TIP3   OH211251   5.480   6.471   2.000
 3765TIP3    H111252   5.457   6.560   2.023
 3765TIP3    H211253   5.401   6.420   2.017
 3766TIP3   OH211254   6.664   4.961   1.237
 3766TIP3    H111255   6.751   4.997   1.221
 3766TIP3    H211256   6.648   4.978   1.330
 3767TIP3   OH211257   4.981   1.282   2.619
 3767TIP3    H111258   5.031   1.348   2.572
 3767TIP3    H211259   4.905   1.329   2.654
 3768TIP3   OH211260   4.888   1.523   2.876
 3768TIP3    H111261   4.823   1.549   2.811
 3768TIP3    H211262   4.837   1.502   2.954
 3769TIP3   OH211263   6.972   1.744   5.412
 3769TIP3    H111264   7.032   1.723   5.340
 3769TIP3    H211265   6.972   1.666   5.467
 3770TIP3   OH211266   7.957   4.166   3.749
 3770TIP3    H111267   7.931   4.078   3.774
 3770TIP3    H211268   7.973   4.161   3.655
 3771TIP3   OH211269   3.990   0.242   0.032
 3771TIP3    H111270   4.014   0.204  -0.052
 3771TIP3    H211271   4.073   0.248   0.080
 3772TIP3   OH211272   2.632   0.446   1.217
 3772TIP3    H111273   2.568   0.495   1.267
 3772TIP3    H211274   2.590   0.361   1.201
 3773TIP3   OH211275   1.343   7.132   4.001
 3773TIP3    H111276   1.371   7.067   4.065
 3773TIP3    H211277   1.373   7.098   3.917
 3774TIP3   OH211278   2.016   2.787   6.450
 3774TIP3    H111279   2.027   2.705   6.498
 3774TIP3    H211280   2.091   2.790   6.390
 3775TIP3   OH211281   0.852   5.903   2.435
 3775TIP3    H111282   0.848   5.998   2.424
 3775TIP3    H211283   0.837   5.869   2.347
 3776TIP3   OH211284   6.546   0.645   6.624
 3776TIP3    H111285   6.551   0.740   6.617
 3776TIP3    H211286   6.606   0.624   6.696
 3777TIP3   OH211287   0.523   6.458   4.323
 3777TIP3    H111288   0.604   6.491   4.283
 3777TIP3    H211289   0.512   6.371   4.284
 3778TIP3   OH211290   4.520   7.329   1.875
 3778TIP3    H111291   4.477   7.407   1.839
 3778TIP3    H211292   4.544   7.277   1.799
 3779TIP3   OH211293   4.383   7.568   2.735
 3779TIP3    H111294   4.315   7.634   2.718
 3779TIP3    H211295   4.453   7.616   2.779
 3780TIP3   OH211296   7.397   1.868   3.463
 3780TIP3    H111297   7.422   1.843   3.551
 3780TIP3    H211298   7.319   1.923   3.474
 3781TIP3   OH211299   1.585   2.085   3.558
 3781TIP3    H111300   1.602   2.174   3.591
 3781TIP3    H211301   1.634   2.081   3.476
 3782TIP3   OH211302   4.743   3.883   4.821
 3782TIP3    H111303   4.664   3.916   4.864
 3782TIP3    H211304   4.711   3.822   4.754
 3783TIP3   OH211305   0.356   0.977   6.088
 3783TIP3    H111306   0.441   0.935   6.073
 3783TIP3    H211307   0.323   0.996   6.000
 3784TIP3   OH211308   4.596   5.724   0.562
 3784TIP3    H111309   4.532   5.790   0.589
 3784TIP3    H211310   4.678   5.752   0.603
 3785TIP3   OH211311   7.850   4.622   6.522
 3785TIP3    H111312   7.843   4.535   6.562
 3785TIP3    H211313   7.941   4.648   6.537
 3786TIP3   OH211314   0.442   3.708   6.103
 3786TIP3    H111315   0.454   3.781   6.043
 3786TIP3    H211316   0.511   3.646   6.081
 3787TIP3   OH211317   6.674   0.414   0.966
 3787TIP3    H111318   6.694   0.320   0.960
 3787TIP3    H211319   6.641   0.426   1.055
 3788TIP3   OH211320   5.639   3.595   5.435
 3788TIP3    H111321   5.673   3.683   5.421
 3788TIP3    H211322   5.565   3.606   5.494
 3789TIP3   OH211323   2.809   5.429   2.659
 3789TIP3    H111324   2.892   5.424   2.707
 3789TIP3    H211325   2.766   5.507   2.693
 3790TIP3   OH211326   5.524   5.368   5.710
 3790TIP3    H111327   5.433   5.343   5.723
 3790TIP3    H211328   5.521   5.436   5.642
 3791TIP3   OH211329   7.971   0.212   1.370
 3791TIP3    H111330   7.981   0.302   1.338
 3791TIP3    H211331   8.018   0.158   1.307
 3792TIP3   OH211332   0.498   6.550   0.543
 3792TIP3    H111333   0.473   6.509   0.626
 3792TIP3    H211334   0.512   6.477   0.483
 3793TIP3   OH211335   1.753   7.096   4.559
 3793TIP3    H111336   1.722   7.118   4.646
 3793TIP3    H211337   1.683   7.127   4.500
 3794TIP3   OH211338   7.959   6.938   2.391
 3794TIP3    H111339   8.037   6.913   2.341
 3794TIP3    H211340   7.945   7.030   2.369
 3795TIP3   OH211341   2.857   6.418   0.453
 3795TIP3    H111342   2.764   6.440   0.446
 3795TIP3    H211343   2.859   6.340   0.508
 3796TIP3   OH211344   5.826   2.725   4.185
 3796TIP3    H111345   5.787   2.653   4.135
 3796TIP3    H211346   5.869   2.682   4.259
 3797TIP3   OH211347   6.967   4.993   3.998
 3797TIP3    H111348   6.989   4.900   3.987
 3797TIP3    H211349   6.984   5.011   4.090
 3798TIP3   OH211350   7.926   3.518   2.873
 3798TIP3    H111351   7.911   3.589   2.935
 3798TIP3    H211352   7.854   3.526   2.810
 3799TIP3   OH211353   4.580   5.286   2.616
 3799TIP3    H111354   4.549   5.201   2.584
 3799TIP3    H211355   4.612   5.331   2.538
 3800TIP3   OH211356   5.294   3.111   1.294
 3800TIP3    H111357   5.243   3.046   1.343
 3800TIP3    H211358   5.382   3.106   1.332
 3801TIP3   OH211359   6.572   1.769   5.968
 3801TIP3    H111360   6.549   1.825   5.894
 3801TIP3    H211361   6.652   1.807   6.003
 3802TIP3   OH211362   4.793   6.064   4.331
 3802TIP3    H111363   4.765   5.977   4.304
 3802TIP3    H211364   4.877   6.050   4.374
 3803TIP3   OH211365   3.901   4.157   4.380
 3803TIP3    H111366   3.841   4.218   4.337
 3803TIP3    H211367   3.887   4.074   4.334
 3804TIP3   OH211368   7.369   4.895   0.450
 3804TIP3    H111369   7.281   4.858   0.459
 3804TIP3    H211370   7.357   4.989   0.460
 3805TIP3   OH211371   5.301   5.690   2.557
 3805TIP3    H111372   5.379   5.660   2.511
 3805TIP3    H211373   5.319   5.782   2.577
 3806TIP3   OH211374   3.943   2.812   3.831
 3806TIP3    H111375   3.922   2.723   3.860
 3806TIP3    H211376   3.927   2.811   3.737
 3807TIP3   OH211377   1.394   1.007   5.554
 3807TIP3    H111378   1.453   1.078   5.529
 3807TIP3    H211379   1.402   0.942   5.484
 3808TIP3   OH211380   6.019   5.596   6.670
 3808TIP3    H111381   6.109   5.570   6.689
 3808TIP3    H211382   6.001   5.669   6.730
 3809TIP3   OH211383   4.527   5.616   4.360
 3809TIP3    H111384   4.461   5.552   4.387
 3809TIP3    H211385   4.610   5.568   4.363
 3810TIP3   OH211386   8.250   6.839   1.410
 3810TIP3    H111387   8.181   6.896   1.444
 3810TIP3    H211388   8.216   6.750   1.420
 3811TIP3   OH211389   3.976   3.855   6.394
 3811TIP3    H111390   3.919   3.880   6.321
 3811TIP3    H211391   4.018   3.774   6.364
 3812TIP3   OH211392   7.075   2.577   2.488
 3812TIP3    H111393   7.034   2.647   2.539
 3812TIP3    H211394   7.067   2.499   2.543
 3813TIP3   OH211395   3.680   6.869   4.572
 3813TIP3    H111396   3.629   6.929   4.517
 3813TIP3    H211397   3.686   6.913   4.657
 3814TIP3   OH211398   7.469   4.262   2.455
 3814TIP3    H111399   7.470   4.252   2.360
 3814TIP3    H211400   7.499   4.352   2.470
 3815TIP3   OH211401   4.859   3.343   0.224
 3815TIP3    H111402   4.832   3.430   0.252
 3815TIP3    H211403   4.824   3.284   0.290
 3816TIP3   OH211404   0.350   3.308   1.399
 3816TIP3    H111405   0.288   3.355   1.342
 3816TIP3    H211406   0.379   3.234   1.346
 3817TIP3   OH211407   0.866   7.281   0.171
 3817TIP3    H111408   0.928   7.254   0.104
 3817TIP3    H211409   0.921   7.310   0.244
 3818TIP3   OH211410   4.666   0.640   0.719
 3818TIP3    H111411   4.610   0.639   0.641
 3818TIP3    H211412   4.610   0.675   0.788
 3819TIP3   OH211413   5.264   1.888   4.148
 3819TIP3    H111414   5.225   1.838   4.220
 3819TIP3    H211415   5.293   1.821   4.086
 3820TIP3   OH211416   1.970   5.022   2.589
 3820TIP3    H111417   1.910   4.999   2.518
 3820TIP3    H211418   1.929   4.986   2.668
 3821TIP3   OH211419   2.834   1.142   0.923
 3821TIP3    H111420   2.899   1.202   0.887
 3821TIP3    H211421   2.808   1.183   1.006
 3822TIP3   OH211422   5.016   6.489   2.731
 3822TIP3    H111423   4.936   6.534   2.757
 3822TIP3    H211424   5.063   6.472   2.813
 3823TIP3   OH211425   5.694   4.130   0.582
 3823TIP3    H111426   5.703   4.036   0.568
 3823TIP3    H211427   5.620   4.138   0.641
 3824TIP3   OH211428   7.010   2.086   4.662
 3824TIP3    H111429   7.089   2.034   4.646
 3824TIP3    H211430   7.002   2.143   4.586
 3825TIP3   OH211431   1.504   0.839   2.828
 3825TIP3    H111432   1.507   0.934   2.826
 3825TIP3    H211433   1.424   0.817   2.780
 3826TIP3   OH211434   0.583   3.472   3.728
 3826TIP3    H111435   0.595   3.410   3.656
 3826TIP3    H211436   0.644   3.443   3.795
 3827TIP3   OH211437   4.072   7.035   4.993
 3827TIP3    H111438   4.093   7.004   4.905
 3827TIP3    H211439   4.032   7.121   4.979
 3828TIP3   OH211440   3.486   1.854   0.733
 3828TIP3    H111441   3.473   1.802   0.653
 3828TIP3    H211442   3.405   1.841   0.783
 3829TIP3   OH211443   6.478   4.210   2.769
 3829TIP3    H111444   6.569   4.186   2.786
 3829TIP3    H211445   6.477   4.305   2.773
 3830TIP3   OH211446   1.477   6.968   3.302
 3830TIP3    H111447   1.468   6.887   3.252
 3830TIP3    H211448   1.547   6.950   3.365
 3831TIP3   OH211449   1.287   4.051   6.082
 3831TIP3    H111450   1.207   4.013   6.045
 3831TIP3    H211451   1.348   4.055   6.008
 3832TIP3   OH211452   3.224   7.336   0.820
 3832TIP3    H111453   3.177   7.256   0.798
 3832TIP3    H211454   3.299   7.337   0.761
 3833TIP3   OH211455   2.668   2.613   1.771
 3833TIP3    H111456   2.586   2.643   1.732
 3833TIP3    H211457   2.712   2.694   1.798
 3834TIP3   OH211458   6.443   0.871   6.276
 3834TIP3    H111459   6.362   0.922   6.278
 3834TIP3    H211460   6.512   0.936   6.263
 3835TIP3   OH211461   3.942   2.178   2.210
 3835TIP3    H111462   4.035   2.160   2.222
 3835TIP3    H211463   3.914   2.216   2.293
 3836TIP3   OH211464   6.463   5.855   2.147
 3836TIP3    H111465   6.472   5.944   2.114
 3836TIP3    H211466   6.552   5.820   2.147
 3837TIP3   OH211467   7.699   7.217   6.733
 3837TIP3    H111468   7.674   7.222   6.825
 3837TIP3    H211469   7.794   7.228   6.733
 3838TIP3   OH211470   6.093   7.752   4.237
 3838TIP3    H111471   6.101   7.768   4.331
 3838TIP3    H211472   6.172   7.702   4.214
 3839TIP3   OH211473   4.546   5.448   0.575
 3839TIP3    H111474   4.560   5.531   0.529
 3839TIP3    H211475   4.453   5.447   0.597
 3840TIP3   OH211476   1.486   4.329   1.934
 3840TIP3    H111477   1.482   4.402   1.873
 3840TIP3    H211478   1.553   4.270   1.897
 3841TIP3   OH211479   5.776   2.174   1.460
 3841TIP3    H111480   5.799   2.085   1.488
 3841TIP3    H211481   5.832   2.231   1.513
 3842TIP3   OH211482   4.522   1.986   4.997
 3842TIP3    H111483   4.472   1.916   4.955
 3842TIP3    H211484   4.611   1.951   5.004
 3843TIP3   OH211485   2.497   6.521   3.861
 3843TIP3    H111486   2.416   6.571   3.865
 3843TIP3    H211487   2.531   6.537   3.773
 3844TIP3   OH211488   1.451   7.641   2.052
 3844TIP3    H111489   1.423   7.556   2.087
 3844TIP3    H211490   1.459   7.626   1.958
 3845TIP3   OH211491   5.372   4.740   1.696
 3845TIP3    H111492   5.310   4.778   1.635
 3845TIP3    H211493   5.319   4.687   1.755
 3846TIP3   OH211494   5.807   4.202   5.931
 3846TIP3    H111495   5.753   4.141   5.881
 3846TIP3    H211496   5.744   4.261   5.973
 3847TIP3   OH211497   5.547   6.627   4.599
 3847TIP3    H111498   5.542   6.624   4.695
 3847TIP3    H211499   5.525   6.538   4.571
 3848TIP3   OH211500   7.085   2.346   2.643
 3848TIP3    H111501   7.170   2.314   2.612
 3848TIP3    H211502   7.099   2.367   2.735
 3849TIP3   OH211503   6.942   5.569   4.284
 3849TIP3    H111504   6.950   5.532   4.196
 3849TIP3    H211505   6.862   5.622   4.280
 3850TIP3   OH211506   3.342   7.398   5.117
 3850TIP3    H111507   3.284   7.466   5.085
 3850TIP3    H211508   3.351   7.337   5.043
 3851TIP3   OH211509   6.601   4.796   3.787
 3851TIP3    H111510   6.658   4.783   3.711
 3851TIP3    H211511   6.638   4.872   3.832
 3852TIP3   OH211512   6.645   7.428   4.018
 3852TIP3    H111513   6.728   7.381   4.017
 3852TIP3    H211514   6.645   7.476   4.101
 3853TIP3   OH211515   8.295   4.882   3.925
 3853TIP3    H111516   8.346   4.851   4.000
 3853TIP3    H211517   8.237   4.948   3.962
 3854TIP3   OH211518   0.098   1.228   3.387
 3854TIP3    H111519   0.069   1.313   3.419
 3854TIP3    H211520   0.072   1.227   3.295
 3855TIP3   OH211521   2.560   6.708   1.380
 3855TIP3    H111522   2.634   6.758   1.346
 3855TIP3    H211523   2.599   6.648   1.444
 3856TIP3   OH211524   7.113   3.737   1.466
 3856TIP3    H111525   7.117   3.812   1.526
 3856TIP3    H211526   7.057   3.673   1.510
 3857TIP3   OH211527   4.181   6.722   1.767
 3857TIP3    H111528   4.230   6.713   1.686
 3857TIP3    H211529   4.168   6.816   1.778
 3858TIP3   OH211530   3.331   4.997   3.027
 3858TIP3    H111531   3.375   5.045   3.097
 3858TIP3    H211532   3.394   4.996   2.955
 3859TIP3   OH211533   4.552   6.196   3.058
 3859TIP3    H111534   4.599   6.258   3.002
 3859TIP3    H211535   4.620   6.134   3.087
 3860TIP3   OH211536   8.104   2.865   5.102
 3860TIP3    H111537   8.067   2.920   5.033
 3860TIP3    H211538   8.188   2.836   5.066
 3861TIP3   OH211539   4.122   5.823   2.674
 3861TIP3    H111540   4.121   5.827   2.579
 3861TIP3    H211541   4.069   5.746   2.696
 3862TIP3   OH211542   6.846   6.703   0.280
 3862TIP3    H111543   6.869   6.681   0.370
 3862TIP3    H211544   6.751   6.702   0.278
 3863TIP3   OH211545   6.797   4.001   1.455
 3863TIP3    H111546   6.763   3.926   1.504
 3863TIP3    H211547   6.805   3.968   1.365
 3864TIP3   OH211548   2.813   4.307   4.236
 3864TIP3    H111549   2.795   4.278   4.147
 3864TIP3    H211550   2.875   4.379   4.226
 3865TIP3   OH211551   3.323   0.587   5.356
 3865TIP3    H111552   3.283   0.535   5.426
 3865TIP3    H211553   3.325   0.676   5.390
 3866TIP3   OH211554   3.145   2.943   5.621
 3866TIP3    H111555   3.138   3.039   5.618
 3866TIP3    H211556   3.065   2.912   5.578
 3867TIP3   OH211557   1.478   5.188   3.322
 3867TIP3    H111558   1.573   5.179   3.328
 3867TIP3    H211559   1.465   5.273   3.280
 3868TIP3   OH211560   6.128   3.759   1.854
 3868TIP3    H111561   6.217   3.776   1.886
 3868TIP3    H211562   6.073   3.821   1.903
 3869TIP3   OH211563   4.317   2.113   6.564
 3869TIP3    H111564   4.345   2.022   6.553
 3869TIP3    H211565   4.289   2.140   6.477
 3870TIP3   OH211566   8.202   1.424   0.269
 3870TIP3    H111567   8.139   1.436   0.341
 3870TIP3    H211568   8.202   1.507   0.222
 3871TIP3   OH211569   1.949   5.018   5.563
 3871TIP3    H111570   1.966   4.986   5.652
 3871TIP3    H211571   2.034   5.019   5.521
 3872TIP3   OH211572   4.069   0.798   3.548
 3872TIP3    H111573   4.139   0.743   3.512
 3872TIP3    H211574   4.016   0.738   3.601
 3873TIP3   OH211575   7.852   1.301   4.375
 3873TIP3    H111576   7.759   1.281   4.372
 3873TIP3    H211577   7.865   1.344   4.460
 3874TIP3   OH211578   1.741   3.014   2.535
 3874TIP3    H111579   1.662   3.065   2.518
 3874TIP3    H211580   1.715   2.923   2.519
 3875TIP3   OH211581   5.014   3.838   6.244
 3875TIP3    H111582   5.050   3.779   6.310
 3875TIP3    H211583   5.086   3.852   6.183
 3876TIP3   OH211584   1.030   3.407   0.285
 3876TIP3    H111585   1.066   3.396   0.372
 3876TIP3    H211586   1.104   3.435   0.231
 3877TIP3   OH211587   5.805   0.953   2.987
 3877TIP3    H111588   5.792   0.967   3.081
 3877TIP3    H211589   5.760   1.026   2.945
 3878TIP3   OH211590   0.321   7.111   1.308
 3878TIP3    H111591   0.411   7.144   1.308
 3878TIP3    H211592   0.328   7.019   1.283
 3879TIP3   OH211593   2.830   7.250   6.442
 3879TIP3    H111594   2.774   7.207   6.378
 3879TIP3    H211595   2.810   7.343   6.434
 3880TIP3   OH211596   3.472   4.452   4.921
 3880TIP3    H111597   3.378   4.439   4.908
 3880TIP3    H211598   3.480   4.527   4.979
 3881TIP3   OH211599   1.450   6.101   6.625
 3881TIP3    H111600   1.384   6.134   6.687
 3881TIP3    H211601   1.405   6.034   6.575
 3882TIP3   OH211602   6.915   5.822   2.520
 3882TIP3    H111603   6.873   5.880   2.583
 3882TIP3    H211604   6.989   5.784   2.567
 3883TIP3   OH211605   6.367   5.650   3.167
 3883TIP3    H111606   6.400   5.740   3.169
 3883TIP3    H211607   6.413   5.609   3.094
 3884TIP3   OH211608   6.564   3.498   2.596
 3884TIP3    H111609   6.528   3.420   2.638
 3884TIP3    H211610   6.489   3.557   2.587
 3885TIP3   OH211611   0.745   2.798   2.198
 3885TIP3    H111612   0.721   2.771   2.287
 3885TIP3    H211613   0.841   2.799   2.198
 3886TIP3   OH211614   0.666   2.377   3.200
 3886TIP3    H111615   0.604   2.413   3.136
 3886TIP3    H211616   0.654   2.283   3.194
 3887TIP3   OH211617   4.336   6.061   1.548
 3887TIP3    H111618   4.313   5.969   1.534
 3887TIP3    H211619   4.414   6.075   1.495
 3888TIP3   OH211620   5.416   2.433   5.388
 3888TIP3    H111621   5.408   2.392   5.474
 3888TIP3    H211622   5.353   2.385   5.333
 3889TIP3   OH211623   1.227   0.917   2.043
 3889TIP3    H111624   1.217   0.824   2.064
 3889TIP3    H211625   1.205   0.962   2.125
 3890TIP3   OH211626   7.912   3.496   0.422
 3890TIP3    H111627   7.862   3.420   0.391
 3890TIP3    H211628   7.857   3.534   0.490
 3891TIP3   OH211629   7.830   5.611   3.318
 3891TIP3    H111630   7.910   5.561   3.306
 3891TIP3    H211631   7.860   5.702   3.329
 3892TIP3   OH211632   1.832   5.327   3.851
 3892TIP3    H111633   1.818   5.364   3.764
 3892TIP3    H211634   1.842   5.403   3.908
 3893TIP3   OH211635   1.808   4.232   5.918
 3893TIP3    H111636   1.867   4.200   5.850
 3893TIP3    H211637   1.720   4.225   5.879
 3894TIP3   OH211638   1.639   3.561   1.780
 3894TIP3    H111639   1.620   3.527   1.692
 3894TIP3    H211640   1.554   3.561   1.824
 3895TIP3   OH211641   1.364   0.371   5.283
 3895TIP3    H111642   1.354   0.324   5.200
 3895TIP3    H211643   1.377   0.302   5.348
 3896TIP3   OH211644   0.838   4.793   1.367
 3896TIP3    H111645   0.783   4.787   1.445
 3896TIP3    H211646   0.793   4.740   1.302
 3897TIP3   OH211647   3.694   2.654   5.280
 3897TIP3    H111648   3.681   2.695   5.366
 3897TIP3    H211649   3.741   2.720   5.229
 3898TIP3   OH211650   2.035   4.509   5.523
 3898TIP3    H111651   2.080   4.588   5.555
 3898TIP3    H211652   2.029   4.522   5.428
 3899TIP3   OH211653   0.948   6.167   5.180
 3899TIP3    H111654   0.884   6.108   5.220
 3899TIP3    H211655   0.918   6.179   5.090
 3900TIP3   OH211656   2.032   3.516   6.737
 3900TIP3    H111657   1.957   3.566   6.769
 3900TIP3    H211658   2.092   3.511   6.812
 3901TIP3   OH211659   5.567   6.553   1.588
 3901TIP3    H111660   5.564   6.587   1.498
 3901TIP3    H211661   5.582   6.631   1.642
 3902TIP3   OH211662   4.254   7.829   1.106
 3902TIP3    H111663   4.302   7.779   1.041
 3902TIP3    H211664   4.322   7.866   1.163
 3903TIP3   OH211665   7.870   3.806   4.730
 3903TIP3    H111666   7.840   3.791   4.641
 3903TIP3    H211667   7.961   3.776   4.730
 3904TIP3   OH211668   1.567   3.119   2.253
 3904TIP3    H111669   1.660   3.127   2.277
 3904TIP3    H211670   1.540   3.208   2.231
 3905TIP3   OH211671   5.856   5.726   6.474
 3905TIP3    H111672   5.786   5.662   6.484
 3905TIP3    H211673   5.922   5.698   6.538
 3906TIP3   OH211674   6.766   7.292   2.014
 3906TIP3    H111675   6.764   7.197   2.004
 3906TIP3    H211676   6.703   7.324   1.949
 3907TIP3   OH211677   1.706   2.450   5.264
 3907TIP3    H111678   1.699   2.535   5.306
 3907TIP3    H211679   1.798   2.445   5.236
 3908TIP3   OH211680   6.329   1.106   3.197
 3908TIP3    H111681   6.319   1.155   3.278
 3908TIP3    H211682   6.273   1.029   3.208
 3909TIP3   OH211683   6.040   2.535   5.705
 3909TIP3    H111684   6.058   2.560   5.796
 3909TIP3    H211685   5.981   2.603   5.672
 3910TIP3   OH211686   2.835   4.161   1.411
 3910TIP3    H111687   2.836   4.204   1.496
 3910TIP3    H211688   2.742   4.149   1.391
 3911TIP3   OH211689   2.819   1.943   3.962
 3911TIP3    H111690   2.856   1.855   3.971
 3911TIP3    H211691   2.748   1.932   3.899
 3912TIP3   OH211692   0.425   3.135   4.915
 3912TIP3    H111693   0.496   3.100   4.968
 3912TIP3    H211694   0.466   3.204   4.862
 3913TIP3   OH211695   7.383   3.988   1.881
 3913TIP3    H111696   7.368   3.894   1.874
 3913TIP3    H211697   7.446   4.007   1.811
 3914TIP3   OH211698   0.684   5.920   0.172
 3914TIP3    H111699   0.652   5.965   0.093
 3914TIP3    H211700   0.607   5.913   0.228
 3915TIP3   OH211701   1.850   1.736   4.442
 3915TIP3    H111702   1.911   1.748   4.515
 3915TIP3    H211703   1.763   1.740   4.481
 3916TIP3   OH211704   3.312   6.169   0.318
 3916TIP3    H111705   3.231   6.191   0.363
 3916TIP3    H211706   3.284   6.115   0.244
 3917TIP3   OH211707   6.748   3.655   6.670
 3917TIP3    H111708   6.777   3.578   6.620
 3917TIP3    H211709   6.791   3.645   6.755
 3918TIP3   OH211710   7.886   1.195   2.923
 3918TIP3    H111711   7.817   1.242   2.971
 3918TIP3    H211712   7.940   1.155   2.991
 3919TIP3   OH211713   2.305   3.481   6.136
 3919TIP3    H111714   2.354   3.425   6.195
 3919TIP3    H211715   2.214   3.453   6.145
 3920TIP3   OH211716   4.728   0.074   6.547
 3920TIP3    H111717   4.669   0.084   6.472
 3920TIP3    H211718   4.736  -0.020   6.559
 3921TIP3   OH211719   4.932   5.527   6.715
 3921TIP3    H111720   5.017   5.550   6.752
 3921TIP3    H211721   4.948   5.516   6.621
 3922TIP3   OH211722   5.764   1.045   3.234
 3922TIP3    H111723   5.721   1.121   3.196
 3922TIP3    H211724   5.801   1.077   3.317
 3923TIP3   OH211725   6.365   3.497   0.822
 3923TIP3    H111726   6.415   3.554   0.764
 3923TIP3    H211727   6.427   3.472   0.891
 3924TIP3   OH211728   6.592   4.989   2.006
 3924TIP3    H111729   6.683   4.971   1.981
 3924TIP3    H211730   6.544   4.912   1.977
 3925TIP3   OH211731   5.646   7.538   4.877
 3925TIP3    H111732   5.674   7.451   4.907
 3925TIP3    H211733   5.566   7.521   4.827
 3926TIP3   OH211734   4.558   0.181   6.311
 3926TIP3    H111735   4.484   0.238   6.334
 3926TIP3    H211736   4.534   0.144   6.226
 3927TIP3   OH211737   4.819   3.478   0.781
 3927TIP3    H111738   4.727   3.480   0.755
 3927TIP3    H211739   4.867   3.468   0.699
 3928TIP3   OH211740   7.056   3.149   6.428
 3928TIP3    H111741   7.032   3.129   6.518
 3928TIP3    H211742   6.972   3.154   6.381
 3929TIP3   OH211743   3.421   0.373   3.695
 3929TIP3    H111744   3.360   0.393   3.766
 3929TIP3    H211745   3.387   0.292   3.656
 3930TIP3   OH211746   1.276   3.901   4.722
 3930TIP3    H111747   1.217   3.845   4.772
 3930TIP3    H211748   1.358   3.852   4.716
 3931TIP3   OH211749   6.166   5.401   4.286
 3931TIP3    H111750   6.184   5.375   4.377
 3931TIP3    H211751   6.070   5.410   4.283
 3932TIP3   OH211752   4.328   0.337   0.991
 3932TIP3    H111753   4.299   0.326   0.901
 3932TIP3    H211754   4.391   0.409   0.988
 3933TIP3   OH211755   5.037   3.314   4.919
 3933TIP3    H111756   4.955   3.277   4.885
 3933TIP3    H211757   5.069   3.369   4.847
 3934TIP3   OH211758   6.147   7.031   5.888
 3934TIP3    H111759   6.078   7.014   5.824
 3934TIP3    H211760   6.190   7.110   5.856
 3935TIP3   OH211761   0.985   1.459   3.842
 3935TIP3    H111762   0.904   1.508   3.860
 3935TIP3    H211763   0.959   1.394   3.777
 3936TIP3   OH211764   2.533   1.240   4.043
 3936TIP3    H111765   2.489   1.316   4.079
 3936TIP3    H211766   2.590   1.209   4.113
 3937TIP3   OH211767   5.369   0.366   5.762
 3937TIP3    H111768   5.453   0.412   5.761
 3937TIP3    H211769   5.380   0.295   5.699
 3938TIP3   OH211770   2.039   2.970   2.224
 3938TIP3    H111771   1.977   2.902   2.200
 3938TIP3    H211772   2.013   2.997   2.312
 3939TIP3   OH211773   5.402   7.307   2.340
 3939TIP3    H111774   5.488   7.314   2.383
 3939TIP3    H211775   5.400   7.379   2.278
 3940TIP3   OH211776   3.380   2.770   1.401
 3940TIP3    H111777   3.379   2.857   1.440
 3940TIP3    H211778   3.471   2.741   1.410
 3941TIP3   OH211779   8.174   5.562   1.172
 3941TIP3    H111780   8.164   5.504   1.247
 3941TIP3    H211781   8.267   5.585   1.171
 3942TIP3   OH211782   3.758   1.513   3.071
 3942TIP3    H111783   3.840   1.477   3.038
 3942TIP3    H211784   3.702   1.437   3.084
 3943TIP3   OH211785   3.141   6.631   2.983
 3943TIP3    H111786   3.194   6.569   2.932
 3943TIP3    H211787   3.178   6.626   3.071
 3944TIP3   OH211788   1.506   2.255   0.499
 3944TIP3    H111789   1.516   2.211   0.414
 3944TIP3    H211790   1.587   2.304   0.510
 3945TIP3   OH211791   7.602   1.745   6.441
 3945TIP3    H111792   7.651   1.782   6.368
 3945TIP3    H211793   7.668   1.725   6.507
 3946TIP3   OH211794   3.302   1.628   2.702
 3946TIP3    H111795   3.393   1.657   2.693
 3946TIP3    H211796   3.287   1.624   2.797
 3947TIP3   OH211797   7.898   1.710   4.869
 3947TIP3    H111798   7.851   1.793   4.864
 3947TIP3    H211799   7.987   1.734   4.897
 3948TIP3   OH211800   6.435   2.140   0.367
 3948TIP3    H111801   6.518   2.136   0.415
 3948TIP3    H211802   6.378   2.194   0.422
 3949TIP3   OH211803   2.305   3.856   1.258
 3949TIP3    H111804   2.284   3.872   1.166
 3949TIP3    H211805   2.264   3.928   1.305
 3950TIP3   OH211806   5.395   7.672   6.253
 3950TIP3    H111807   5.379   7.638   6.341
 3950TIP3    H211808   5.490   7.679   6.246
 3951TIP3   OH211809   4.086   7.288   2.038
 3951TIP3    H111810   4.168   7.240   2.049
 3951TIP3    H211811   4.019   7.230   2.073
 3952TIP3   OH211812   4.439   3.359   5.449
 3952TIP3    H111813   4.500   3.323   5.385
 3952TIP3    H211814   4.364   3.299   5.447
 3953TIP3   OH211815   3.068   4.138   0.066
 3953TIP3    H111816   3.155   4.104   0.091
 3953TIP3    H211817   3.062   4.222   0.112
 3954TIP3   OH211818   7.103   5.719   5.989
 3954TIP3    H111819   7.100   5.681   5.901
 3954TIP3    H211820   7.014   5.709   6.022
 3955TIP3   OH211821   7.720   3.069   6.405
 3955TIP3    H111822   7.718   3.135   6.336
 3955TIP3    H211823   7.812   3.045   6.414
 3956TIP3   OH211824   1.435   1.044   6.059
 3956TIP3    H111825   1.529   1.028   6.050
 3956TIP3    H211826   1.399   1.023   5.973
 3957TIP3   OH211827   1.810   1.060   2.197
 3957TIP3    H111828   1.816   1.062   2.102
 3957TIP3    H211829   1.781   0.971   2.218
 3958TIP3   OH211830   0.724   3.180   0.707
 3958TIP3    H111831   0.703   3.174   0.801
 3958TIP3    H211832   0.708   3.092   0.673
 3959TIP3   OH211833   4.978   6.657   3.106
 3959TIP3    H111834   4.942   6.680   3.191
 3959TIP3    H211835   4.904   6.665   3.045
 3960TIP3   OH211836   3.484   6.837   1.230
 3960TIP3    H111837   3.552   6.835   1.163
 3960TIP3    H211838   3.530   6.860   1.311
 3961TIP3   OH211839   6.184   2.801   0.270
 3961TIP3    H111840   6.266   2.768   0.305
 3961TIP3    H211841   6.193   2.794   0.175
 3962TIP3   OH211842   3.646   3.845   6.625
 3962TIP3    H111843   3.688   3.919   6.580
 3962TIP3    H211844   3.598   3.886   6.697
 3963TIP3   OH211845   5.269   1.197   0.533
 3963TIP3    H111846   5.363   1.205   0.516
 3963TIP3    H211847   5.242   1.120   0.483
 3964TIP3   OH211848   7.636   5.799   5.516
 3964TIP3    H111849   7.573   5.772   5.583
 3964TIP3    H211850   7.590   5.789   5.433
 3965TIP3   OH211851   6.591   6.004   5.941
 3965TIP3    H111852   6.611   5.950   5.864
 3965TIP3    H211853   6.503   6.038   5.924
 3966TIP3   OH211854   5.622   5.038   4.434
 3966TIP3    H111855   5.707   5.069   4.466
 3966TIP3    H211856   5.633   4.944   4.423
 3967TIP3   OH211857   4.079   4.163   3.709
 3967TIP3    H111858   4.039   4.076   3.704
 3967TIP3    H211859   4.073   4.198   3.620
 3968TIP3   OH211860   4.836   6.031   0.202
 3968TIP3    H111861   4.871   6.071   0.281
 3968TIP3    H211862   4.877   5.945   0.198
 3969TIP3   OH211863   6.659   4.807   3.142
 3969TIP3    H111864   6.750   4.792   3.117
 3969TIP3    H211865   6.616   4.835   3.061
 3970TIP3   OH211866   3.232   3.286   4.091
 3970TIP3    H111867   3.328   3.286   4.083
 3970TIP3    H211868   3.201   3.324   4.009
 3971TIP3   OH211869   5.147   1.894   0.765
 3971TIP3    H111870   5.077   1.953   0.794
 3971TIP3    H211871   5.161   1.916   0.673
 3972TIP3   OH211872   1.433   6.230   5.613
 3972TIP3    H111873   1.509   6.204   5.665
 3972TIP3    H211874   1.376   6.153   5.612
 3973TIP3   OH211875   0.953   4.177   3.069
 3973TIP3    H111876   1.029   4.139   3.026
 3973TIP3    H211877   0.946   4.129   3.152
 3974TIP3   OH211878   3.740   6.203   0.634
 3974TIP3    H111879   3.651   6.197   0.669
 3974TIP3    H211880   3.796   6.186   0.710
 3975TIP3   OH211881   0.656   0.875   4.328
 3975TIP3    H111882   0.597   0.919   4.267
 3975TIP3    H211883   0.645   0.922   4.411
 3976TIP3   OH211884   4.367   5.405   2.910
 3976TIP3    H111885   4.443   5.347   2.921
 3976TIP3    H211886   4.374   5.467   2.983
 3977TIP3   OH211887   3.683   0.433   5.549
 3977TIP3    H111888   3.671   0.501   5.484
 3977TIP3    H211889   3.625   0.458   5.621
 3978TIP3   OH211890   6.315   0.470   0.941
 3978TIP3    H111891   6.222   0.491   0.954
 3978TIP3    H211892   6.317   0.416   0.862
 3979TIP3   OH211893   4.413   7.573   1.818
 3979TIP3    H111894   4.447   7.627   1.889
 3979TIP3    H211895   4.447   7.613   1.738
 3980TIP3   OH211896   4.499   3.340   3.451
 3980TIP3    H111897   4.445   3.318   3.527
 3980TIP3    H211898   4.452   3.302   3.376
 3981TIP3   OH211899   1.372   5.169   2.401
 3981TIP3    H111900   1.303   5.207   2.456
 3981TIP3    H211901   1.339   5.082   2.378
 3982TIP3   OH211902   3.877   0.809   2.112
 3982TIP3    H111903   3.884   0.901   2.137
 3982TIP3    H211904   3.792   0.780   2.145
 3983TIP3   OH211905   0.184   6.397   5.822
 3983TIP3    H111906   0.228   6.330   5.876
 3983TIP3    H211907   0.137   6.347   5.756
 3984TIP3   OH211908   2.679   2.546   4.367
 3984TIP3    H111909   2.729   2.520   4.290
 3984TIP3    H211910   2.730   2.512   4.441
 3985TIP3   OH211911   0.815   1.758   0.124
 3985TIP3    H111912   0.876   1.780   0.194
 3985TIP3    H211913   0.736   1.729   0.169
 3986TIP3   OH211914   7.097   2.105   6.385
 3986TIP3    H111915   7.064   2.060   6.307
 3986TIP3    H211916   7.132   2.036   6.440
 3987TIP3   OH211917   4.258   0.048   0.668
 3987TIP3    H111918   4.351   0.066   0.654
 3987TIP3    H211919   4.235  -0.014   0.599
 3988TIP3   OH211920   4.979   4.390   5.495
 3988TIP3    H111921   4.950   4.368   5.407
 3988TIP3    H211922   4.946   4.478   5.510
 3989TIP3   OH211923   5.557   5.587   4.741
 3989TIP3    H111924   5.584   5.642   4.668
 3989TIP3    H211925   5.596   5.501   4.722
 3990TIP3   OH211926   4.977   6.663   1.638
 3990TIP3    H111927   4.919   6.731   1.672
 3990TIP3    H211928   4.918   6.595   1.606
 3991TIP3   OH211929   7.804   7.829   2.721
 3991TIP3    H111930   7.776   7.885   2.649
 3991TIP3    H211931   7.797   7.740   2.687
 3992TIP3   OH211932   2.753   4.977   6.440
 3992TIP3    H111933   2.715   4.890   6.425
 3992TIP3    H211934   2.761   4.984   6.535
 3993TIP3   OH211935   7.872   5.489   0.605
 3993TIP3    H111936   7.857   5.467   0.513
 3993TIP3    H211937   7.858   5.406   0.651
 3994TIP3   OH211938   3.774   0.467   2.169
 3994TIP3    H111939   3.779   0.456   2.264
 3994TIP3    H211940   3.689   0.432   2.145
 3995TIP3   OH211941   1.645   5.073   1.886
 3995TIP3    H111942   1.570   5.105   1.834
 3995TIP3    H211943   1.636   5.118   1.970
 3996TIP3   OH211944   2.635   4.025   2.254
 3996TIP3    H111945   2.606   4.041   2.164
 3996TIP3    H211946   2.703   4.091   2.269
 3997TIP3   OH211947   4.085   0.472   4.187
 3997TIP3    H111948   4.164   0.484   4.133
 3997TIP3    H211949   4.025   0.424   4.130
 3998TIP3   OH211950   3.986   5.303   0.417
 3998TIP3    H111951   3.987   5.265   0.329
 3998TIP3    H211952   4.024   5.391   0.405
 3999TIP3   OH211953   4.689   0.421   6.314
 3999TIP3    H111954   4.635   0.349   6.284
 3999TIP3    H211955   4.660   0.436   6.404
 4000TIP3   OH211956   7.373   4.486   5.186
 4000TIP3    H111957   7.385   4.556   5.122
 4000TIP3    H211958   7.395   4.525   5.270
 4001TIP3   OH211959   3.575   4.842   0.333
 4001TIP3    H111960   3.614   4.757   0.311
 4001TIP3    H211961   3.481   4.829   0.319
 4002TIP3   OH211962   5.138   4.259   3.030
 4002TIP3    H111963   5.166   4.306   3.109
 4002TIP3    H211964   5.210   4.272   2.968
 4003TIP3   OH211965   7.008   2.672   5.753
 4003TIP3    H111966   6.919   2.637   5.751
 4003TIP3    H211967   7.045   2.640   5.835
 4004TIP3   OH211968   0.187   2.726   6.012
 4004TIP3    H111969   0.280   2.707   6.018
 4004TIP3    H211970   0.182   2.813   5.972
 4005TIP3   OH211971   6.000   3.082   0.580
 4005TIP3    H111972   6.091   3.108   0.564
 4005TIP3    H211973   5.987   3.005   0.525
 4006TIP3   OH211974   0.744   3.968   3.805
 4006TIP3    H111975   0.735   4.050   3.757
 4006TIP3    H211976   0.697   3.904   3.750
 4007TIP3   OH211977   3.143   7.176   1.351
 4007TIP3    H111978   3.185   7.140   1.273
 4007TIP3    H211979   3.182   7.129   1.424
 4008TIP3   OH211980   1.640   0.106   5.604
 4008TIP3    H111981   1.607   0.051   5.675
 4008TIP3    H211982   1.582   0.087   5.531
 4009TIP3   OH211983   6.700   0.056   3.116
 4009TIP3    H111984   6.714   0.143   3.152
 4009TIP3    H211985   6.772   0.043   3.053
 4010TIP3   OH211986   1.390   2.585   3.155
 4010TIP3    H111987   1.365   2.615   3.242
 4010TIP3    H211988   1.360   2.655   3.096
 4011TIP3   OH211989   4.222   3.775   1.195
 4011TIP3    H111990   4.177   3.762   1.112
 4011TIP3    H211991   4.221   3.870   1.209
 4012TIP3   OH211992   7.708   3.261   4.310
 4012TIP3    H111993   7.656   3.303   4.242
 4012TIP3    H211994   7.796   3.297   4.299
 4013TIP3   OH211995   3.802   4.936   5.288
 4013TIP3    H111996   3.814   5.030   5.303
 4013TIP3    H211997   3.745   4.908   5.360
 4014TIP3   OH211998   5.265   3.143   4.300
 4014TIP3    H111999   5.190   3.085   4.294
 4014TIP3    H212000   5.261   3.196   4.220
 4015TIP3   OH212001   7.886   5.424   1.724
 4015TIP3    H112002   7.810   5.415   1.781
 4015TIP3    H212003   7.849   5.444   1.638
 4016TIP3   OH212004   6.851   0.539   5.026
 4016TIP3    H112005   6.785   0.582   5.081
 4016TIP3    H212006   6.920   0.512   5.087
 4017TIP3   OH212007   6.123   0.216   2.457
 4017TIP3    H112008   6.194   0.264   2.499
 4017TIP3    H212009   6.064   0.193   2.528
 4018TIP3   OH212010   1.867   3.355   0.047
 4018TIP3    H112011   1.823   3.307  -0.023
 4018TIP3    H212012   1.955   3.371   0.014
 4019TIP3   OH212013   7.343   0.177   0.370
 4019TIP3    H112014   7.318   0.254   0.319
 4019TIP3    H212015   7.287   0.107   0.336
 4020TIP3   OH212016   3.151   0.997   1.892
 4020TIP3    H112017   3.105   0.913   1.890
 4020TIP3    H212018   3.081   1.062   1.901
 4021TIP3   OH212019   7.534   5.664   6.096
 4021TIP3    H112020   7.541   5.572   6.071
 4021TIP3    H212021   7.576   5.670   6.181
 4022TIP3   OH212022   4.664   2.396   4.358
 4022TIP3    H112023   4.595   2.385   4.293
 4022TIP3    H212024   4.618   2.424   4.438
 4023TIP3   OH212025   2.584   1.731   3.116
 4023TIP3    H112026   2.579   1.658   3.054
 4023TIP3    H212027   2.630   1.800   3.068
 4024TIP3   OH212028   3.445   2.619   3.138
 4024TIP3    H112029   3.502   2.544   3.119
 4024TIP3    H212030   3.501   2.678   3.190
 4025TIP3   OH212031   0.664   7.161   0.736
 4025TIP3    H112032   0.613   7.121   0.806
 4025TIP3    H212033   0.605   7.158   0.660
 4026TIP3   OH212034   7.226   2.032   5.383
 4026TIP3    H112035   7.285   2.095   5.341
 4026TIP3    H212036   7.205   1.969   5.314
 4027TIP3   OH212037   8.059   2.686   2.190
 4027TIP3    H112038   8.046   2.775   2.224
 4027TIP3    H212039   7.972   2.659   2.162
 4028TIP3   OH212040   7.063   2.169   1.604
 4028TIP3    H112041   7.043   2.203   1.692
 4028TIP3    H212042   7.151   2.202   1.586
 4029TIP3   OH212043   5.672   7.604   6.047
 4029TIP3    H112044   5.762   7.607   6.015
 4029TIP3    H212045   5.680   7.574   6.138
 4030TIP3   OH212046   2.680   2.523   4.826
 4030TIP3    H112047   2.750   2.465   4.796
 4030TIP3    H212048   2.613   2.516   4.757
 4031TIP3   OH212049   7.518   7.152   5.856
 4031TIP3    H112050   7.511   7.140   5.951
 4031TIP3    H212051   7.597   7.205   5.844
 4032TIP3   OH212052   0.164   4.212   4.344
 4032TIP3    H112053   0.147   4.152   4.416
 4032TIP3    H212054   0.258   4.232   4.350
 4033TIP3   OH212055   5.173   1.608   1.142
 4033TIP3    H112056   5.090   1.593   1.188
 4033TIP3    H212057   5.149   1.617   1.050
 4034TIP3   OH212058   0.877   4.185   5.189
 4034TIP3    H112059   0.794   4.149   5.221
 4034TIP3    H212060   0.940   4.164   5.257
 4035TIP3   OH212061   7.149   6.836   5.828
 4035TIP3    H112062   7.157   6.914   5.884
 4035TIP3    H212063   7.061   6.841   5.792
 4036TIP3   OH212064   4.665   6.516   3.298
 4036TIP3    H112065   4.622   6.431   3.291
 4036TIP3    H212066   4.754   6.497   3.327
 4037TIP3   OH212067   0.686   6.907   6.385
 4037TIP3    H112068   0.750   6.890   6.454
 4037TIP3    H212069   0.736   6.906   6.304
 4038TIP3   OH212070   5.041   0.189   3.416
 4038TIP3    H112071   5.056   0.175   3.509
 4038TIP3    H212072   5.120   0.234   3.385
 4039TIP3   OH212073   7.931   5.017   2.997
 4039TIP3    H112074   7.958   4.989   3.085
 4039TIP3    H212075   7.969   5.105   2.988
 4040TIP3   OH212076   4.809   7.760   0.609
 4040TIP3    H112077   4.890   7.781   0.562
 4040TIP3    H212078   4.790   7.670   0.586
 4041TIP3   OH212079   1.623   1.213   4.815
 4041TIP3    H112080   1.641   1.195   4.907
 4041TIP3    H212081   1.604   1.306   4.812
 4042TIP3   OH212082   5.456   1.848   6.309
 4042TIP3    H112083   5.429   1.902   6.383
 4042TIP3    H212084   5.407   1.885   6.234
 4043TIP3   OH212085   3.291   4.027   0.986
 4043TIP3    H112086   3.368   4.068   0.946
 4043TIP3    H212087   3.218   4.055   0.931
 4044TIP3   OH212088   3.217   7.044   5.876
 4044TIP3    H112089   3.138   7.062   5.825
 4044TIP3    H212090   3.284   7.025   5.811
 4045TIP3   OH212091   1.521   5.513   0.076
 4045TIP3    H112092   1.545   5.465  -0.003
 4045TIP3    H212093   1.474   5.449   0.130
 4046TIP3   OH212094   4.497   0.838   3.333
 4046TIP3    H112095   4.568   0.902   3.343
 4046TIP3    H212096   4.540   0.759   3.301
 4047TIP3   OH212097   8.002   0.609   4.999
 4047TIP3    H112098   7.919   0.631   4.956
 4047TIP3    H212099   7.978   0.581   5.087
 4048TIP3   OH212100   7.362   2.391   4.692
 4048TIP3    H112101   7.397   2.302   4.694
 4048TIP3    H212102   7.335   2.405   4.601
 4049TIP3   OH212103   3.000   2.856   6.744
 4049TIP3    H112104   2.977   2.884   6.832
 4049TIP3    H212105   2.925   2.883   6.690
 4050TIP3   OH212106   3.999   6.761   4.230
 4050TIP3    H112107   4.064   6.693   4.215
 4050TIP3    H212108   4.040   6.820   4.293
 4051TIP3   OH212109   6.244   7.386   2.327
 4051TIP3    H112110   6.266   7.433   2.407
 4051TIP3    H212111   6.200   7.306   2.356
 4052TIP3   OH212112   3.810   2.851   5.134
 4052TIP3    H112113   3.905   2.857   5.125
 4052TIP3    H212114   3.783   2.942   5.150
 4053TIP3   OH212115   5.083   4.383   2.110
 4053TIP3    H112116   5.045   4.413   2.192
 4053TIP3    H212117   5.036   4.302   2.089
 4054TIP3   OH212118   6.636   5.321   1.216
 4054TIP3    H112119   6.548   5.333   1.181
 4054TIP3    H212120   6.694   5.335   1.141
 4055TIP3   OH212121   5.951   1.595   4.509
 4055TIP3    H112122   6.039   1.565   4.483
 4055TIP3    H212123   5.958   1.612   4.603
 4056TIP3   OH212124   1.669   5.697   0.925
 4056TIP3    H112125   1.695   5.764   0.861
 4056TIP3    H212126   1.638   5.624   0.871
 4057TIP3   OH212127   2.683   4.818   4.461
 4057TIP3    H112128   2.742   4.783   4.395
 4057TIP3    H212129   2.613   4.860   4.411
 4058TIP3   OH212130   0.522   4.343   4.663
 4058TIP3    H112131   0.543   4.321   4.753
 4058TIP3    H212132   0.483   4.430   4.668
 4059TIP3   OH212133   7.366   0.595   0.044
 4059TIP3    H112134   7.288   0.610  -0.010
 4059TIP3    H212135   7.413   0.525  -0.001
 4060TIP3   OH212136   5.222   0.945   2.989
 4060TIP3    H112137   5.280   0.945   3.064
 4060TIP3    H212138   5.275   0.978   2.917
 4061TIP3   OH212139   3.100   1.954   0.371
 4061TIP3    H112140   3.087   1.897   0.446
 4061TIP3    H212141   3.195   1.959   0.361
 4062TIP3   OH212142   5.411   4.635   6.331
 4062TIP3    H112143   5.459   4.630   6.414
 4062TIP3    H212144   5.440   4.717   6.292
 4063TIP3   OH212145   7.648   1.302   3.029
 4063TIP3    H112146   7.614   1.384   3.065
 4063TIP3    H212147   7.570   1.247   3.017
 4064TIP3   OH212148   3.508   5.544   4.341
 4064TIP3    H112149   3.469   5.569   4.257
 4064TIP3    H212150   3.576   5.610   4.357
 4065TIP3   OH212151   1.244   4.667   5.471
 4065TIP3    H112152   1.284   4.753   5.458
 4065TIP3    H212153   1.212   4.642   5.384
 4066TIP3   OH212154   5.582   2.406   1.190
 4066TIP3    H112155   5.518   2.335   1.178
 4066TIP3    H212156   5.579   2.454   1.108
 4067TIP3   OH212157   3.602   6.048   3.099
 4067TIP3    H112158   3.655   6.065   3.021
 4067TIP3    H212159   3.664   6.008   3.161
 4068TIP3   OH212160   6.892   7.122   0.288
 4068TIP3    H112161   6.829   7.142   0.218
 4068TIP3    H212162   6.976   7.152   0.254
 4069TIP3   OH212163   5.623   5.768   3.468
 4069TIP3    H112164   5.670   5.784   3.386
 4069TIP3    H212165   5.531   5.781   3.446
 4070TIP3   OH212166   6.253   5.592   2.726
 4070TIP3    H112167   6.240   5.504   2.691
 4070TIP3    H212168   6.310   5.580   2.801
 4071TIP3   OH212169   6.280   7.470   3.269
 4071TIP3    H112170   6.227   7.477   3.349
 4071TIP3    H212171   6.272   7.555   3.227
 4072TIP3   OH212172   0.257   0.479   2.864
 4072TIP3    H112173   0.334   0.422   2.870
 4072TIP3    H212174   0.292   0.563   2.834
 4073TIP3   OH212175   6.317   3.977   6.762
 4073TIP3    H112176   6.245   3.949   6.705
 4073TIP3    H212177   6.305   4.071   6.771
 4074TIP3   OH212178   5.899   1.188   1.374
 4074TIP3    H112179   5.812   1.169   1.339
 4074TIP3    H212180   5.911   1.124   1.444
 4075TIP3   OH212181   6.704   3.835   5.358
 4075TIP3    H112182   6.704   3.745   5.325
 4075TIP3    H212183   6.618   3.869   5.334
 4076TIP3   OH212184   0.526   7.294   3.286
 4076TIP3    H112185   0.548   7.253   3.370
 4076TIP3    H212186   0.553   7.385   3.296
 4077TIP3   OH212187   7.156   1.864   6.487
 4077TIP3    H112188   7.228   1.806   6.511
 4077TIP3    H212189   7.109   1.816   6.418
 4078TIP3   OH212190   7.400   4.814   5.922
 4078TIP3    H112191   7.340   4.776   5.859
 4078TIP3    H212192   7.449   4.739   5.957
 4079TIP3   OH212193   3.375   5.665   3.652
 4079TIP3    H112194   3.427   5.662   3.732
 4079TIP3    H212195   3.291   5.702   3.679
 4080TIP3   OH212196   4.893   6.789   5.465
 4080TIP3    H112197   4.896   6.868   5.518
 4080TIP3    H212198   4.800   6.769   5.457
 4081TIP3   OH212199   5.767   6.772   4.196
 4081TIP3    H112200   5.731   6.700   4.248
 4081TIP3    H212201   5.792   6.732   4.113
 4082TIP3   OH212202   3.558   5.498   1.901
 4082TIP3    H112203   3.592   5.415   1.867
 4082TIP3    H212204   3.536   5.480   1.992
 4083TIP3   OH212205   7.792   7.393   0.295
 4083TIP3    H112206   7.804   7.374   0.388
 4083TIP3    H212207   7.866   7.351   0.251
 4084TIP3   OH212208   0.931   5.552   5.527
 4084TIP3    H112209   0.918   5.647   5.534
 4084TIP3    H212210   0.846   5.518   5.500
 4085TIP3   OH212211   5.028   7.733   3.046
 4085TIP3    H112212   5.045   7.693   3.131
 4085TIP3    H212213   5.012   7.825   3.066
 4086TIP3   OH212214   4.322   5.881   3.205
 4086TIP3    H112215   4.402   5.867   3.155
 4086TIP3    H212216   4.253   5.846   3.148
 4087TIP3   OH212217   0.970   5.910   4.210
 4087TIP3    H112218   0.981   5.931   4.303
 4087TIP3    H212219   0.890   5.857   4.207
 4088TIP3   OH212220   2.411   0.673   3.770
 4088TIP3    H112221   2.349   0.657   3.700
 4088TIP3    H212222   2.390   0.762   3.801
 4089TIP3   OH212223   2.537   5.686   1.601
 4089TIP3    H112224   2.547   5.591   1.601
 4089TIP3    H212225   2.608   5.718   1.655
 4090TIP3   OH212226   3.487   2.449   1.000
 4090TIP3    H112227   3.505   2.356   0.986
 4090TIP3    H212228   3.563   2.494   0.964
 4091TIP3   OH212229   2.882   4.996   3.362
 4091TIP3    H112230   2.926   5.045   3.432
 4091TIP3    H212231   2.905   5.043   3.282
 4092TIP3   OH212232   6.542   4.849   2.302
 4092TIP3    H112233   6.630   4.884   2.286
 4092TIP3    H212234   6.534   4.850   2.398
 4093TIP3   OH212235   2.462   0.465   5.289
 4093TIP3    H112236   2.378   0.452   5.246
 4093TIP3    H212237   2.527   0.442   5.223
 4094TIP3   OH212238   0.404   3.890   0.793
 4094TIP3    H112239   0.455   3.846   0.862
 4094TIP3    H212240   0.369   3.818   0.741
 4095TIP3   OH212241   0.313   2.860   1.035
 4095TIP3    H112242   0.228   2.866   0.990
 4095TIP3    H212243   0.309   2.777   1.082
 4096TIP3   OH212244   4.922   3.579   5.798
 4096TIP3    H112245   4.841   3.533   5.821
 4096TIP3    H212246   4.972   3.584   5.879
 4097TIP3   OH212247   5.908   2.862   2.259
 4097TIP3    H112248   5.909   2.911   2.341
 4097TIP3    H212249   5.818   2.829   2.253
 4098TIP3   OH212250   2.194   3.453   4.745
 4098TIP3    H112251   2.168   3.473   4.835
 4098TIP3    H212252   2.189   3.537   4.699
 4099TIP3   OH212253   2.683   4.947   5.053
 4099TIP3    H112254   2.655   4.933   5.144
 4099TIP3    H212255   2.636   4.881   5.003
 4100TIP3   OH212256   3.801   4.165   1.260
 4100TIP3    H112257   3.858   4.195   1.331
 4100TIP3    H212258   3.718   4.209   1.276
 4101TIP3   OH212259   7.212   7.788   2.161
 4101TIP3    H112260   7.215   7.882   2.179
 4101TIP3    H212261   7.301   7.758   2.177
 4102TIP3   OH212262   4.717   4.869   2.988
 4102TIP3    H112263   4.718   4.832   2.900
 4102TIP3    H212264   4.792   4.929   2.990
 4103TIP3   OH212265   1.035   2.187   2.148
 4103TIP3    H112266   0.988   2.134   2.213
 4103TIP3    H212267   1.065   2.264   2.197
 4104TIP3   OH212268   5.466   6.981   0.268
 4104TIP3    H112269   5.404   7.053   0.278
 4104TIP3    H212270   5.411   6.902   0.273
 4105TIP3   OH212271   4.236   4.544   4.524
 4105TIP3    H112272   4.251   4.467   4.578
 4105TIP3    H212273   4.160   4.587   4.564
 4106TIP3   OH212274   6.538   0.846   4.753
 4106TIP3    H112275   6.571   0.771   4.803
 4106TIP3    H212276   6.570   0.832   4.664
 4107TIP3   OH212277   2.829   3.134   5.494
 4107TIP3    H112278   2.911   3.136   5.444
 4107TIP3    H212279   2.800   3.225   5.494
 4108TIP3   OH212280   2.760   5.777   4.728
 4108TIP3    H112281   2.830   5.839   4.709
 4108TIP3    H212282   2.791   5.694   4.692
 4109TIP3   OH212283   4.921   4.506   1.493
 4109TIP3    H112284   4.835   4.540   1.469
 4109TIP3    H212285   4.982   4.556   1.440
 4110TIP3   OH212286   1.588   7.803   5.741
 4110TIP3    H112287   1.675   7.762   5.734
 4110TIP3    H212288   1.595   7.883   5.689
 4111TIP3   OH212289   5.952   6.237   3.548
 4111TIP3    H112290   5.889   6.166   3.556
 4111TIP3    H212291   5.993   6.242   3.634
 4112TIP3   OH212292   3.893   0.676   0.056
 4112TIP3    H112293   3.959   0.668  -0.014
 4112TIP3    H212294   3.883   0.587   0.089
 4113TIP3   OH212295   3.900   5.231   0.687
 4113TIP3    H112296   3.954   5.254   0.612
 4113TIP3    H212297   3.924   5.295   0.754
 4114TIP3   OH212298   5.556   1.236   1.000
 4114TIP3    H112299   5.482   1.296   0.987
 4114TIP3    H212300   5.633   1.292   0.994
 4115TIP3   OH212301   4.989   4.872   4.355
 4115TIP3    H112302   4.951   4.880   4.442
 4115TIP3    H212303   4.923   4.908   4.296
 4116TIP3   OH212304   2.789   5.285   1.840
 4116TIP3    H112305   2.860   5.244   1.890
 4116TIP3    H212306   2.824   5.296   1.752
 4117TIP3   OH212307   7.685   1.808   2.068
 4117TIP3    H112308   7.613   1.829   2.127
 4117TIP3    H212309   7.644   1.805   1.981
 4118TIP3   OH212310   7.619   0.087   5.966
 4118TIP3    H112311   7.558   0.019   5.993
 4118TIP3    H212312   7.632   0.140   6.045
 4119TIP3   OH212313   0.843   3.708   1.030
 4119TIP3    H112314   0.901   3.706   0.954
 4119TIP3    H212315   0.808   3.619   1.036
 4120TIP3   OH212316   4.847   2.392   2.398
 4120TIP3    H112317   4.832   2.308   2.441
 4120TIP3    H212318   4.939   2.390   2.374
 4121TIP3   OH212319   1.022   0.488   3.435
 4121TIP3    H112320   1.056   0.573   3.462
 4121TIP3    H212321   1.033   0.486   3.340
 4122TIP3   OH212322   6.827   3.516   1.811
 4122TIP3    H112323   6.742   3.474   1.822
 4122TIP3    H212324   6.876   3.493   1.891
 4123TIP3   OH212325   7.840   2.694   3.340
 4123TIP3    H112326   7.749   2.682   3.368
 4123TIP3    H212327   7.834   2.729   3.251
 4124TIP3   OH212328   3.472   4.632   6.719
 4124TIP3    H112329   3.539   4.571   6.750
 4124TIP3    H212330   3.418   4.579   6.660
 4125TIP3   OH212331   3.133   3.308   5.888
 4125TIP3    H112332   3.086   3.226   5.872
 4125TIP3    H212333   3.222   3.281   5.911
 4126TIP3   OH212334   3.396   2.897   1.649
 4126TIP3    H112335   3.317   2.951   1.661
 4126TIP3    H212336   3.459   2.957   1.610
 4127TIP3   OH212337   5.426   6.667   5.241
 4127TIP3    H112338   5.520   6.662   5.259
 4127TIP3    H212339   5.394   6.733   5.301
 4128TIP3   OH212340   1.562   3.541   1.480
 4128TIP3    H112341   1.650   3.529   1.443
 4128TIP3    H212342   1.504   3.535   1.404
 4129TIP3   OH212343   8.039   2.986   3.057
 4129TIP3    H112344   8.050   3.066   3.109
 4129TIP3    H212345   8.041   3.016   2.966
 4130TIP3   OH212346   6.492   7.601   4.459
 4130TIP3    H112347   6.439   7.677   4.481
 4130TIP3    H212348   6.429   7.530   4.450
 4131TIP3   OH212349   1.125   6.543   6.499
 4131TIP3    H112350   1.191   6.597   6.457
 4131TIP3    H212351   1.147   6.453   6.473
 4132TIP3   OH212352   4.982   4.343   2.702
 4132TIP3    H112353   4.998   4.272   2.763
 4132TIP3    H212354   5.068   4.362   2.664
 4133TIP3   OH212355   7.387   6.505   5.203
 4133TIP3    H112356   7.428   6.422   5.179
 4133TIP3    H212357   7.437   6.535   5.279
 4134TIP3   OH212358   2.077   6.914   1.734
 4134TIP3    H112359   2.048   6.953   1.816
 4134TIP3    H212360   1.996   6.899   1.684
 4135TIP3   OH212361   7.070   3.753   6.709
 4135TIP3    H112362   7.056   3.678   6.767
 4135TIP3    H212363   7.050   3.829   6.764
 4136TIP3   OH212364   2.736   0.728   1.130
 4136TIP3    H112365   2.671   0.674   1.174
 4136TIP3    H212366   2.820   0.685   1.148
 4137TIP3   OH212367   6.945   0.631   6.282
 4137TIP3    H112368   6.955   0.695   6.352
 4137TIP3    H212369   7.031   0.629   6.239
 4138TIP3   OH212370   7.712   3.356   0.023
 4138TIP3    H112371   7.668   3.280   0.061
 4138TIP3    H212372   7.796   3.360   0.069
 4139TIP3   OH212373   5.679   2.741   2.160
 4139TIP3    H112374   5.637   2.747   2.075
 4139TIP3    H212375   5.698   2.648   2.171
 4140TIP3   OH212376   0.597   7.228   0.055
 4140TIP3    H112377   0.644   7.154   0.016
 4140TIP3    H212378   0.651   7.254   0.130
 4141TIP3   OH212379   1.273   2.439   2.534
 4141TIP3    H112380   1.264   2.344   2.540
 4141TIP3    H212381   1.194   2.473   2.577
 4142TIP3   OH212382   3.906   5.375   0.914
 4142TIP3    H112383   3.823   5.373   0.961
 4142TIP3    H212384   3.973   5.370   0.982
 4143TIP3   OH212385   2.971   2.518   6.340
 4143TIP3    H112386   2.920   2.538   6.418
 4143TIP3    H212387   2.910   2.473   6.282
 4144TIP3   OH212388   6.287   3.768   4.177
 4144TIP3    H112389   6.333   3.685   4.191
 4144TIP3    H212390   6.273   3.773   4.083
 4145TIP3   OH212391   3.359   3.151   6.478
 4145TIP3    H112392   3.305   3.093   6.531
 4145TIP3    H212393   3.359   3.112   6.391
 4146TIP3   OH212394   0.884   7.121   5.202
 4146TIP3    H112395   0.834   7.122   5.120
 4146TIP3    H212396   0.818   7.109   5.270
 4147TIP3   OH212397   1.759   1.114   3.185
 4147TIP3    H112398   1.751   1.030   3.230
 4147TIP3    H212399   1.669   1.137   3.161
 4148TIP3   OH212400   8.087   2.217   1.643
 4148TIP3    H112401   8.039   2.287   1.688
 4148TIP3    H212402   8.172   2.214   1.687
 4149TIP3   OH212403   0.493   3.287   0.546
 4149TIP3    H112404   0.584   3.259   0.560
 4149TIP3    H212405   0.451   3.274   0.631
 4150TIP3   OH212406   6.445   4.335   0.445
 4150TIP3    H112407   6.450   4.246   0.480
 4150TIP3    H212408   6.471   4.391   0.518
 4151TIP3   OH212409   1.223   3.900   1.655
 4151TIP3    H112410   1.309   3.941   1.669
 4151TIP3    H212411   1.161   3.962   1.692
 4152TIP3   OH212412   1.085   0.323   5.835
 4152TIP3    H112413   1.035   0.379   5.775
 4152TIP3    H212414   1.020   0.262   5.870
 4153TIP3   OH212415   1.963   2.583   2.846
 4153TIP3    H112416   1.973   2.617   2.757
 4153TIP3    H212417   1.902   2.510   2.837
 4154TIP3   OH212418   5.322   6.579   5.793
 4154TIP3    H112419   5.291   6.515   5.729
 4154TIP3    H212420   5.410   6.602   5.764
 4155TIP3   OH212421   7.220   6.858   5.490
 4155TIP3    H112422   7.146   6.876   5.548
 4155TIP3    H212423   7.252   6.945   5.466
 4156TIP3   OH212424   8.090   6.813   3.057
 4156TIP3    H112425   8.035   6.889   3.075
 4156TIP3    H212426   8.029   6.748   3.021
 4157TIP3   OH212427   3.640   1.780   0.955
 4157TIP3    H112428   3.606   1.815   0.872
 4157TIP3    H212429   3.597   1.832   1.023
 4158TIP3   OH212430   5.020   7.653   1.348
 4158TIP3    H112431   4.977   7.733   1.379
 4158TIP3    H212432   5.093   7.684   1.295
 4159TIP3   OH212433   7.754   0.078   5.681
 4159TIP3    H112434   7.698   0.066   5.758
 4159TIP3    H212435   7.835   0.032   5.703
 4160TIP3   OH212436   0.691   3.764   4.181
 4160TIP3    H112437   0.718   3.833   4.121
 4160TIP3    H212438   0.691   3.805   4.267
 4161TIP3   OH212439   0.014   6.391   2.461
 4161TIP3    H112440   0.094   6.363   2.507
 4161TIP3    H212441  -0.057   6.345   2.506
 4162TIP3   OH212442   6.857   0.059   2.393
 4162TIP3    H112443   6.807   0.113   2.454
 4162TIP3    H212444   6.918   0.121   2.352
 4163TIP3   OH212445   0.148   0.230   3.824
 4163TIP3    H112446   0.178   0.207   3.736
 4163TIP3    H212447   0.150   0.148   3.873
 4164TIP3   OH212448   0.829   2.264   2.956
 4164TIP3    H112449   0.733   2.262   2.954
 4164TIP3    H212450   0.851   2.358   2.952
 4165TIP3   OH212451   3.660   7.785   0.931
 4165TIP3    H112452   3.696   7.819   0.849
 4165TIP3    H212453   3.644   7.862   0.985
 4166TIP3   OH212454   1.963   7.230   4.327
 4166TIP3    H112455   1.962   7.277   4.410
 4166TIP3    H212456   1.912   7.285   4.267
 4167TIP3   OH212457   4.017   6.539   2.101
 4167TIP3    H112458   4.051   6.597   2.169
 4167TIP3    H212459   3.983   6.598   2.034
 4168TIP3   OH212460   7.291   7.264   6.444
 4168TIP3    H112461   7.225   7.212   6.399
 4168TIP3    H212462   7.244   7.301   6.520
 4169TIP3   OH212463   2.414   2.319   4.415
 4169TIP3    H112464   2.453   2.324   4.328
 4169TIP3    H212465   2.339   2.377   4.411
 4170TIP3   OH212466   1.534   0.340   6.335
 4170TIP3    H112467   1.465   0.348   6.269
 4170TIP3    H212468   1.501   0.272   6.395
 4171TIP3   OH212469   6.223   2.725   1.296
 4171TIP3    H112470   6.203   2.720   1.390
 4171TIP3    H212471   6.176   2.651   1.258
 4172TIP3   OH212472   6.437   5.827   4.658
 4172TIP3    H112473   6.411   5.744   4.619
 4172TIP3    H212474   6.432   5.812   4.752
 4173TIP3   OH212475   3.812   5.905   5.006
 4173TIP3    H112476   3.773   5.883   5.091
 4173TIP3    H212477   3.852   5.991   5.021
 4174TIP3   OH212478   7.083   6.454   5.553
 4174TIP3    H112479   7.077   6.499   5.469
 4174TIP3    H212480   7.166   6.486   5.591
 4175TIP3   OH212481   7.184   0.632   1.414
 4175TIP3    H112482   7.245   0.570   1.454
 4175TIP3    H212483   7.212   0.636   1.322
 4176TIP3   OH212484   5.473   2.503   6.122
 4176TIP3    H112485   5.497   2.430   6.065
 4176TIP3    H212486   5.379   2.491   6.138
 4177TIP3   OH212487   2.917   3.453   2.911
 4177TIP3    H112488   2.965   3.481   2.989
 4177TIP3    H212489   2.981   3.460   2.840
 4178TIP3   OH212490   7.321   5.297   1.489
 4178TIP3    H112491   7.338   5.344   1.571
 4178TIP3    H212492   7.407   5.267   1.461
 4179TIP3   OH212493   3.435   3.648   4.723
 4179TIP3    H112494   3.387   3.648   4.806
 4179TIP3    H212495   3.381   3.702   4.664
 4180TIP3   OH212496   7.651   5.547   4.851
 4180TIP3    H112497   7.611   5.469   4.888
 4180TIP3    H212498   7.730   5.561   4.903
 4181TIP3   OH212499   1.857   2.164   6.273
 4181TIP3    H112500   1.824   2.245   6.311
 4181TIP3    H212501   1.929   2.190   6.217
 4182TIP3   OH212502   0.333   6.814   1.275
 4182TIP3    H112503   0.355   6.725   1.245
 4182TIP3    H212504   0.287   6.801   1.357
 4183TIP3   OH212505   7.339   7.775   3.703
 4183TIP3    H112506   7.289   7.740   3.630
 4183TIP3    H212507   7.429   7.744   3.687
 4184TIP3   OH212508   7.620   4.149   1.242
 4184TIP3    H112509   7.594   4.231   1.283
 4184TIP3    H212510   7.615   4.083   1.311
 4185TIP3   OH212511   3.926   3.723   2.130
 4185TIP3    H112512   3.980   3.665   2.077
 4185TIP3    H212513   3.842   3.677   2.137
 4186TIP3   OH212514   5.237   6.171   2.736
 4186TIP3    H112515   5.231   6.213   2.650
 4186TIP3    H212516   5.157   6.118   2.742
 4187TIP3   OH212517   2.227   0.142   6.249
 4187TIP3    H112518   2.276   0.128   6.330
 4187TIP3    H212519   2.292   0.132   6.180
 4188TIP3   OH212520   2.188   2.454   3.039
 4188TIP3    H112521   2.182   2.383   2.975
 4188TIP3    H212522   2.222   2.411   3.118
 4189TIP3   OH212523   6.802   6.603   4.903
 4189TIP3    H112524   6.768   6.693   4.898
 4189TIP3    H212525   6.790   6.568   4.815
 4190TIP3   OH212526   4.678   0.907   6.728
 4190TIP3    H112527   4.724   0.989   6.706
 4190TIP3    H212528   4.590   0.936   6.753
 4191TIP3   OH212529   4.164   6.464   5.828
 4191TIP3    H112530   4.247   6.501   5.858
 4191TIP3    H212531   4.149   6.505   5.742
 4192TIP3   OH212532   8.255   4.910   3.069
 4192TIP3    H112533   8.193   4.957   3.124
 4192TIP3    H212534   8.287   4.839   3.124
 4193TIP3   OH212535   5.586   1.644   4.077
 4193TIP3    H112536   5.510   1.693   4.045
 4193TIP3    H212537   5.650   1.711   4.100
 4194TIP3   OH212538   6.670   4.790   1.006
 4194TIP3    H112539   6.697   4.812   1.095
 4194TIP3    H212540   6.594   4.734   1.017
 4195TIP3   OH212541   7.098   1.797   2.909
 4195TIP3    H112542   7.034   1.760   2.970
 4195TIP3    H212543   7.180   1.753   2.930
 4196TIP3   OH212544   3.532   2.850   3.273
 4196TIP3    H112545   3.501   2.940   3.281
 4196TIP3    H212546   3.556   2.824   3.363
 4197TIP3   OH212547   3.402   0.443   2.606
 4197TIP3    H112548   3.437   0.487   2.683
 4197TIP3    H212549   3.342   0.507   2.567
 4198TIP3   OH212550   5.327   3.825   6.612
 4198TIP3    H112551   5.261   3.887   6.642
 4198TIP3    H212552   5.327   3.834   6.517
 4199TIP3   OH212553   7.030   5.449   4.058
 4199TIP3    H112554   6.998   5.378   4.002
 4199TIP3    H212555   7.077   5.506   3.998
 4200TIP3   OH212556   4.790   0.767   1.131
 4200TIP3    H112557   4.822   0.805   1.213
 4200TIP3    H212558   4.783   0.842   1.071
 4201TIP3   OH212559   6.871   4.781   6.470
 4201TIP3    H112560   6.923   4.845   6.518
 4201TIP3    H212561   6.785   4.783   6.512
 4202TIP3   OH212562   2.196   4.796   0.171
 4202TIP3    H112563   2.138   4.727   0.206
 4202TIP3    H212564   2.228   4.760   0.088
 4203TIP3   OH212565   7.993   7.781   4.669
 4203TIP3    H112566   8.032   7.830   4.741
 4203TIP3    H212567   7.933   7.843   4.627
 4204TIP3   OH212568   7.315   4.668   0.960
 4204TIP3    H112569   7.314   4.672   0.864
 4204TIP3    H212570   7.312   4.760   0.987
 4205TIP3   OH212571   0.554   1.539   3.793
 4205TIP3    H112572   0.619   1.477   3.760
 4205TIP3    H212573   0.537   1.511   3.883
 4206TIP3   OH212574   0.447   3.935   5.960
 4206TIP3    H112575   0.382   3.977   5.903
 4206TIP3    H212576   0.517   4.000   5.969
 4207TIP3   OH212577   6.180   2.392   6.276
 4207TIP3    H112578   6.101   2.378   6.329
 4207TIP3    H212579   6.211   2.479   6.303
 4208TIP3   OH212580   2.478   2.418   5.934
 4208TIP3    H112581   2.402   2.456   5.889
 4208TIP3    H212582   2.442   2.345   5.984
 4209TIP3   OH212583   7.511   7.806   1.178
 4209TIP3    H112584   7.519   7.747   1.253
 4209TIP3    H212585   7.420   7.799   1.151
 4210TIP3   OH212586   2.054   0.555   0.666
 4210TIP3    H112587   2.026   0.494   0.597
 4210TIP3    H212588   1.988   0.625   0.665
 4211TIP3   OH212589   0.157   5.322   5.013
 4211TIP3    H112590   0.079   5.377   5.021
 4211TIP3    H212591   0.123   5.236   4.987
 4212TIP3   OH212592   0.906   4.145   1.865
 4212TIP3    H112593   0.817   4.152   1.831
 4212TIP3    H212594   0.925   4.051   1.865
 4213TIP3   OH212595   1.928   4.352   1.073
 4213TIP3    H112596   1.964   4.377   0.988
 4213TIP3    H212597   1.938   4.256   1.075
 4214TIP3   OH212598   7.316   3.541   4.882
 4214TIP3    H112599   7.274   3.503   4.805
 4214TIP3    H212600   7.400   3.495   4.890
 4215TIP3   OH212601   3.465   3.073   2.271
 4215TIP3    H112602   3.427   3.018   2.202
 4215TIP3    H212603   3.391   3.118   2.309
 4216TIP3   OH212604   4.391   4.223   1.708
 4216TIP3    H112605   4.446   4.292   1.671
 4216TIP3    H212606   4.347   4.264   1.783
 4217TIP3   OH212607   3.967   7.531   2.588
 4217TIP3    H112608   3.954   7.495   2.500
 4217TIP3    H212609   3.898   7.596   2.598
 4218TIP3   OH212610   6.305   1.711   1.574
 4218TIP3    H112611   6.351   1.737   1.654
 4218TIP3    H212612   6.342   1.625   1.552
 4219TIP3   OH212613   6.517   4.739   1.872
 4219TIP3    H112614   6.559   4.754   1.787
 4219TIP3    H212615   6.584   4.693   1.923
 4220TIP3   OH212616   1.125   6.098   3.283
 4220TIP3    H112617   1.160   6.043   3.213
 4220TIP3    H212618   1.104   6.038   3.353
 4221TIP3   OH212619   5.405   6.350   6.321
 4221TIP3    H112620   5.358   6.381   6.244
 4221TIP3    H212621   5.376   6.260   6.333
 4222TIP3   OH212622   5.318   4.439   3.842
 4222TIP3    H112623   5.361   4.357   3.867
 4222TIP3    H212624   5.253   4.413   3.776
 4223TIP3   OH212625   7.507   6.140   3.228
 4223TIP3    H112626   7.582   6.082   3.216
 4223TIP3    H212627   7.444   6.088   3.278
 4224TIP3   OH212628   2.411   0.250   6.083
 4224TIP3    H112629   2.486   0.257   6.142
 4224TIP3    H212630   2.395   0.340   6.054
 4225TIP3   OH212631   8.131   6.917   1.109
 4225TIP3    H112632   8.077   6.855   1.157
 4225TIP3    H212633   8.221   6.891   1.131
 4226TIP3   OH212634   1.872   7.054   5.663
 4226TIP3    H112635   1.891   7.005   5.743
 4226TIP3    H212636   1.958   7.085   5.634
 4227TIP3   OH212637   7.118   2.185   0.184
 4227TIP3    H112638   7.133   2.244   0.257
 4227TIP3    H212639   7.031   2.148   0.201
 4228TIP3   OH212640   7.899   6.006   4.145
 4228TIP3    H112641   7.842   6.070   4.187
 4228TIP3    H212642   7.847   5.925   4.143
 4229TIP3   OH212643   2.249   4.512   2.641
 4229TIP3    H112644   2.206   4.519   2.726
 4229TIP3    H212645   2.331   4.560   2.652
 4230TIP3   OH212646   6.374   2.552   3.325
 4230TIP3    H112647   6.320   2.554   3.246
 4230TIP3    H212648   6.391   2.459   3.340
 4231TIP3   OH212649   7.929   4.930   0.021
 4231TIP3    H112650   7.966   4.880   0.094
 4231TIP3    H212651   7.982   5.010   0.018
 4232TIP3   OH212652   4.495   5.605   0.806
 4232TIP3    H112653   4.414   5.559   0.785
 4232TIP3    H212654   4.549   5.596   0.727
 4233TIP3   OH212655   4.912   2.340   0.689
 4233TIP3    H112656   4.990   2.394   0.704
 4233TIP3    H212657   4.840   2.403   0.690
 4234TIP3   OH212658   3.220   1.220   6.353
 4234TIP3    H112659   3.165   1.194   6.279
 4234TIP3    H212660   3.309   1.211   6.320
 4235TIP3   OH212661   2.848   5.392   2.378
 4235TIP3    H112662   2.932   5.359   2.347
 4235TIP3    H212663   2.853   5.386   2.473
 4236TIP3   OH212664   1.203   6.758   3.307
 4236TIP3    H112665   1.142   6.732   3.376
 4236TIP3    H212666   1.172   6.713   3.229
 4237TIP3   OH212667   4.201   5.659   0.087
 4237TIP3    H112668   4.187   5.609   0.006
 4237TIP3    H212669   4.152   5.740   0.074
 4238TIP3   OH212670   2.429   6.751   4.258
 4238TIP3    H112671   2.474   6.698   4.324
 4238TIP3    H212672   2.378   6.814   4.309
 4239TIP3   OH212673   6.280   0.600   3.305
 4239TIP3    H112674   6.248   0.511   3.295
 4239TIP3    H212675   6.340   0.596   3.380
 4240TIP3   OH212676   0.711   6.757   3.587
 4240TIP3    H112677   0.680   6.840   3.550
 4240TIP3    H212678   0.672   6.753   3.675
 4241TIP3   OH212679   3.442   5.127   0.326
 4241TIP3    H112680   3.447   5.136   0.421
 4241TIP3    H212681   3.448   5.032   0.310
 4242TIP3   OH212682   5.255   2.474   1.292
 4242TIP3    H112683   5.246   2.463   1.198
 4242TIP3    H212684   5.278   2.386   1.325
 4243TIP3   OH212685   4.157   1.369   4.346
 4243TIP3    H112686   4.198   1.346   4.263
 4243TIP3    H212687   4.195   1.454   4.369
 4244TIP3   OH212688   5.019   4.533   5.855
 4244TIP3    H112689   4.972   4.612   5.830
 4244TIP3    H212690   5.070   4.559   5.932
 4245TIP3   OH212691   2.184   0.247   5.526
 4245TIP3    H112692   2.146   0.327   5.489
 4245TIP3    H212693   2.121   0.219   5.592
 4246TIP3   OH212694   7.385   3.273   1.313
 4246TIP3    H112695   7.353   3.349   1.362
 4246TIP3    H212696   7.459   3.241   1.364
 4247TIP3   OH212697   3.520   0.823   2.656
 4247TIP3    H112698   3.508   0.755   2.722
 4247TIP3    H212699   3.566   0.780   2.585
 4248TIP3   OH212700   1.194   2.955   2.005
 4248TIP3    H112701   1.282   2.955   2.043
 4248TIP3    H212702   1.209   2.950   1.910
 4249TIP3   OH212703   3.813   4.689   2.300
 4249TIP3    H112704   3.793   4.749   2.228
 4249TIP3    H212705   3.767   4.608   2.278
 4250TIP3   OH212706   7.564   3.580   6.352
 4250TIP3    H112707   7.516   3.529   6.287
 4250TIP3    H212708   7.521   3.665   6.354
 4251TIP3   OH212709   1.130   0.514   4.012
 4251TIP3    H112710   1.076   0.436   4.001
 4251TIP3    H212711   1.087   0.581   3.959
 4252TIP3   OH212712   2.703   6.786   1.924
 4252TIP3    H112713   2.700   6.881   1.930
 4252TIP3    H212714   2.617   6.757   1.954
 4253TIP3   OH212715   5.875   6.063   2.412
 4253TIP3    H112716   5.907   6.086   2.499
 4253TIP3    H212717   5.808   5.996   2.428
 4254TIP3   OH212718   5.146   2.590   6.587
 4254TIP3    H112719   5.094   2.536   6.646
 4254TIP3    H212720   5.151   2.539   6.506
 4255TIP3   OH212721   5.712   4.635   5.176
 4255TIP3    H112722   5.778   4.703   5.163
 4255TIP3    H212723   5.649   4.674   5.235
 4256TIP3   OH212724   3.300   2.016   4.198
 4256TIP3    H112725   3.346   2.004   4.115
 4256TIP3    H212726   3.278   1.927   4.226
 4257TIP3   OH212727   4.207   4.909   2.106
 4257TIP3    H112728   4.268   4.878   2.173
 4257TIP3    H212729   4.255   4.900   2.023
 4258TIP3   OH212730   1.843   4.665   2.597
 4258TIP3    H112731   1.916   4.640   2.541
 4258TIP3    H212732   1.854   4.760   2.610
 4259TIP3   OH212733   6.350   2.436   1.217
 4259TIP3    H112734   6.366   2.386   1.138
 4259TIP3    H212735   6.254   2.438   1.226
 4260TIP3   OH212736   7.772   4.320   1.969
 4260TIP3    H112737   7.807   4.301   2.055
 4260TIP3    H212738   7.695   4.374   1.986
 4261TIP3   OH212739   2.149   7.510   2.711
 4261TIP3    H112740   2.127   7.423   2.745
 4261TIP3    H212741   2.238   7.525   2.742
 4262TIP3   OH212742   1.358   3.893   2.498
 4262TIP3    H112743   1.331   3.886   2.589
 4262TIP3    H212744   1.409   3.974   2.495
 4263TIP3   OH212745   6.032   2.641   3.584
 4263TIP3    H112746   6.004   2.617   3.673
 4263TIP3    H212747   6.109   2.586   3.569
 4264TIP3   OH212748   2.002   7.291   4.621
 4264TIP3    H112749   1.972   7.230   4.689
 4264TIP3    H212750   2.096   7.276   4.615
 4265TIP3   OH212751   3.872   4.596   2.991
 4265TIP3    H112752   3.874   4.615   3.084
 4265TIP3    H212753   3.782   4.614   2.964
 4266TIP3   OH212754   7.254   2.401   6.207
 4266TIP3    H112755   7.185   2.368   6.265
 4266TIP3    H212756   7.310   2.325   6.190
 4267TIP3   OH212757   7.350   6.162   0.723
 4267TIP3    H112758   7.352   6.067   0.735
 4267TIP3    H212759   7.265   6.178   0.681
 4268TIP3   OH212760   6.508   1.804   0.421
 4268TIP3    H112761   6.448   1.731   0.407
 4268TIP3    H212762   6.452   1.882   0.423
 4269TIP3   OH212763   7.607   4.010   2.059
 4269TIP3    H112764   7.525   4.008   2.009
 4269TIP3    H212765   7.660   3.940   2.021
 4270TIP3   OH212766   3.374   2.603   1.633
 4270TIP3    H112767   3.453   2.559   1.603
 4270TIP3    H212768   3.376   2.688   1.589
 4271TIP3   OH212769   1.171   2.156   0.810
 4271TIP3    H112770   1.204   2.245   0.792
 4271TIP3    H212771   1.168   2.115   0.724
 4272TIP3   OH212772   1.136   2.213   6.138
 4272TIP3    H112773   1.074   2.162   6.191
 4272TIP3    H212774   1.215   2.158   6.135
 4273TIP3   OH212775   2.708   4.295   5.182
 4273TIP3    H112776   2.681   4.272   5.093
 4273TIP3    H212777   2.794   4.255   5.192
 4274TIP3   OH212778   4.074   2.570   3.575
 4274TIP3    H112779   4.142   2.515   3.537
 4274TIP3    H212780   4.027   2.513   3.636
 4275TIP3   OH212781   2.401   2.253   5.285
 4275TIP3    H112782   2.441   2.325   5.333
 4275TIP3    H212783   2.317   2.238   5.329
 4276TIP3   OH212784   2.435   0.813   6.586
 4276TIP3    H112785   2.443   0.837   6.494
 4276TIP3    H212786   2.350   0.770   6.592
 4277TIP3   OH212787   2.497   5.504   3.421
 4277TIP3    H112788   2.449   5.575   3.379
 4277TIP3    H212789   2.566   5.548   3.471
 4278TIP3   OH212790   1.133   1.156   1.726
 4278TIP3    H112791   1.047   1.125   1.698
 4278TIP3    H212792   1.135   1.139   1.820
 4279TIP3   OH212793   4.194   3.877   3.184
 4279TIP3    H112794   4.285   3.867   3.154
 4279TIP3    H212795   4.199   3.861   3.278
 4280TIP3   OH212796   3.765   1.542   6.054
 4280TIP3    H112797   3.853   1.547   6.018
 4280TIP3    H212798   3.770   1.474   6.121
 4281TIP3   OH212799   5.358   6.509   3.112
 4281TIP3    H112800   5.328   6.473   3.029
 4281TIP3    H212801   5.325   6.448   3.178
 4282TIP3   OH212802   8.021   4.713   2.367
 4282TIP3    H112803   7.947   4.661   2.398
 4282TIP3    H212804   8.098   4.666   2.398
 4283TIP3   OH212805   5.746   0.197   1.024
 4283TIP3    H112806   5.668   0.250   1.038
 4283TIP3    H212807   5.818   0.260   1.023
 4284TIP3   OH212808   7.553   3.667   6.701
 4284TIP3    H112809   7.627   3.679   6.642
 4284TIP3    H212810   7.504   3.749   6.695
 4285TIP3   OH212811   3.941   0.497   6.503
 4285TIP3    H112812   4.035   0.477   6.499
 4285TIP3    H212813   3.898   0.422   6.462
 4286TIP3   OH212814   3.976   6.615   1.094
 4286TIP3    H112815   4.007   6.633   1.005
 4286TIP3    H212816   3.912   6.683   1.112
 4287TIP3   OH212817   1.731   2.570   2.057
 4287TIP3    H112818   1.668   2.637   2.029
 4287TIP3    H212819   1.786   2.614   2.122
 4288TIP3   OH212820   0.141   0.548   0.665
 4288TIP3    H112821   0.235   0.543   0.649
 4288TIP3    H212822   0.101   0.501   0.591
 4289TIP3   OH212823   1.041   2.754   3.667
 4289TIP3    H112824   1.117   2.796   3.708
 4289TIP3    H212825   0.966   2.805   3.698
 4290TIP3   OH212826   5.974   0.554   2.009
 4290TIP3    H112827   5.904   0.507   2.055
 4290TIP3    H212828   6.036   0.485   1.985
 4291TIP3   OH212829   8.178   6.534   6.447
 4291TIP3    H112830   8.131   6.539   6.363
 4291TIP3    H212831   8.110   6.509   6.510
 4292TIP3   OH212832   5.634   7.444   1.304
 4292TIP3    H112833   5.684   7.422   1.383
 4292TIP3    H212834   5.687   7.510   1.260
 4293TIP3   OH212835   4.679   2.477   0.923
 4293TIP3    H112836   4.725   2.437   0.997
 4293TIP3    H212837   4.591   2.494   0.957
 4294TIP3   OH212838   1.519   7.645   1.773
 4294TIP3    H112839   1.509   7.732   1.735
 4294TIP3    H212840   1.607   7.618   1.747
 4295TIP3   OH212841   2.320   5.173   0.931
 4295TIP3    H112842   2.311   5.237   0.860
 4295TIP3    H212843   2.234   5.172   0.973
 4296TIP3   OH212844   4.844   6.653   2.033
 4296TIP3    H112845   4.932   6.620   2.049
 4296TIP3    H212846   4.803   6.654   2.120
 4297TIP3   OH212847   5.503   1.096   2.949
 4297TIP3    H112848   5.484   1.102   3.042
 4297TIP3    H212849   5.439   1.153   2.907
 4298TIP3   OH212850   2.466   5.184   6.378
 4298TIP3    H112851   2.395   5.126   6.349
 4298TIP3    H212852   2.519   5.130   6.435
 4299TIP3   OH212853   5.477   0.875   3.495
 4299TIP3    H112854   5.392   0.920   3.505
 4299TIP3    H212855   5.537   0.927   3.549
 4300TIP3   OH212856   6.894   4.595   3.050
 4300TIP3    H112857   6.872   4.502   3.052
 4300TIP3    H212858   6.921   4.611   2.959
 4301TIP3   OH212859   1.507   6.141   2.567
 4301TIP3    H112860   1.420   6.102   2.575
 4301TIP3    H212861   1.564   6.082   2.617
 4302TIP3   OH212862   7.832   0.692   4.778
 4302TIP3    H112863   7.769   0.708   4.707
 4302TIP3    H212864   7.802   0.747   4.850
 4303TIP3   OH212865   6.333   6.923   0.547
 4303TIP3    H112866   6.361   6.945   0.458
 4303TIP3    H212867   6.354   6.830   0.557
 4304TIP3   OH212868   3.194   7.074   2.213
 4304TIP3    H112869   3.117   7.055   2.267
 4304TIP3    H212870   3.199   7.170   2.213
 4305TIP3   OH212871   2.760   3.403   5.484
 4305TIP3    H112872   2.801   3.472   5.433
 4305TIP3    H212873   2.724   3.448   5.560
 4306TIP3   OH212874   6.819   0.983   2.552
 4306TIP3    H112875   6.860   1.005   2.468
 4306TIP3    H212876   6.729   0.961   2.529
 4307TIP3   OH212877   3.748   2.690   0.359
 4307TIP3    H112878   3.707   2.765   0.316
 4307TIP3    H212879   3.813   2.730   0.417
 4308TIP3   OH212880   0.595   7.363   4.459
 4308TIP3    H112881   0.553   7.332   4.539
 4308TIP3    H212882   0.526   7.407   4.410
 4309TIP3   OH212883   0.733   2.941   1.986
 4309TIP3    H112884   0.746   2.892   2.068
 4309TIP3    H212885   0.642   2.924   1.963
 4310TIP3   OH212886   2.765   7.427   6.736
 4310TIP3    H112887   2.852   7.465   6.754
 4310TIP3    H212888   2.712   7.453   6.811
 4311TIP3   OH212889   4.444   0.652   2.523
 4311TIP3    H112890   4.439   0.609   2.608
 4311TIP3    H212891   4.354   0.648   2.490
 4312TIP3   OH212892   6.776   5.720   3.204
 4312TIP3    H112893   6.741   5.655   3.265
 4312TIP3    H212894   6.794   5.797   3.258
 4313TIP3   OH212895   4.608   4.745   1.310
 4313TIP3    H112896   4.521   4.731   1.273
 4313TIP3    H212897   4.648   4.658   1.311
 4314TIP3   OH212898   0.564   6.716   3.812
 4314TIP3    H112899   0.626   6.775   3.855
 4314TIP3    H212900   0.545   6.649   3.877
 4315TIP3   OH212901   6.066   0.604   5.963
 4315TIP3    H112902   6.148   0.639   5.929
 4315TIP3    H212903   6.068   0.511   5.941
 4316TIP3   OH212904   6.694   3.815   3.190
 4316TIP3    H112905   6.752   3.891   3.191
 4316TIP3    H212906   6.660   3.812   3.101
 4317TIP3   OH212907   4.649   2.509   3.599
 4317TIP3    H112908   4.695   2.444   3.651
 4317TIP3    H212909   4.711   2.534   3.531
 4318TIP3   OH212910   0.107   5.671   3.206
 4318TIP3    H112911   0.179   5.610   3.223
 4318TIP3    H212912   0.075   5.648   3.119
 4319TIP3   OH212913   0.375   4.089   4.101
 4319TIP3    H112914   0.452   4.145   4.107
 4319TIP3    H212915   0.407   4.007   4.064
 4320TIP3   OH212916   0.312   5.742   0.645
 4320TIP3    H112917   0.402   5.736   0.613
 4320TIP3    H212918   0.270   5.803   0.585
 4321TIP3   OH212919   0.173   7.298   6.473
 4321TIP3    H112920   0.263   7.305   6.441
 4321TIP3    H212921   0.119   7.305   6.394
 4322TIP3   OH212922   4.426   0.702   6.328
 4322TIP3    H112923   4.505   0.688   6.380
 4322TIP3    H212924   4.417   0.797   6.321
 4323TIP3   OH212925   3.847   5.412   0.039
 4323TIP3    H112926   3.756   5.388   0.023
 4323TIP3    H212927   3.887   5.332   0.074
 4324TIP3   OH212928   1.352   1.902   0.388
 4324TIP3    H112929   1.326   1.968   0.324
 4324TIP3    H212930   1.447   1.907   0.391
 4325TIP3   OH212931   1.006   0.490   5.591
 4325TIP3    H112932   0.979   0.467   5.502
 4325TIP3    H212933   1.097   0.517   5.582
 4326TIP3   OH212934   5.918   4.924   4.373
 4326TIP3    H112935   5.929   5.010   4.331
 4326TIP3    H212936   5.942   4.939   4.464
 4327TIP3   OH212937   7.316   3.003   2.342
 4327TIP3    H112938   7.271   2.920   2.327
 4327TIP3    H212939   7.407   2.978   2.356
 4328TIP3   OH212940   5.320   5.023   4.076
 4328TIP3    H112941   5.235   5.067   4.076
 4328TIP3    H212942   5.301   4.934   4.104
 4329TIP3   OH212943   2.428   3.103   1.542
 4329TIP3    H112944   2.414   3.039   1.471
 4329TIP3    H212945   2.355   3.164   1.533
 4330TIP3   OH212946   7.325   1.210   1.454
 4330TIP3    H112947   7.237   1.195   1.490
 4330TIP3    H212948   7.351   1.125   1.419
 4331TIP3   OH212949   3.135   5.124   4.066
 4331TIP3    H112950   3.067   5.060   4.046
 4331TIP3    H212951   3.217   5.074   4.064
 4332TIP3   OH212952   6.080   1.020   5.398
 4332TIP3    H112953   6.142   1.045   5.466
 4332TIP3    H212954   6.133   0.973   5.333
 4333TIP3   OH212955   5.441   1.042   5.940
 4333TIP3    H112956   5.418   0.964   5.990
 4333TIP3    H212957   5.426   1.018   5.848
 4334TIP3   OH212958   7.648   5.390   1.877
 4334TIP3    H112959   7.611   5.328   1.940
 4334TIP3    H212960   7.674   5.465   1.931
 4335TIP3   OH212961   6.193   2.687   1.589
 4335TIP3    H112962   6.235   2.691   1.675
 4335TIP3    H212963   6.243   2.620   1.542
 4336TIP3   OH212964   4.189   5.430   1.259
 4336TIP3    H112965   4.225   5.441   1.347
 4336TIP3    H212966   4.115   5.370   1.270
 4337TIP3   OH212967   4.261   0.915   6.734
 4337TIP3    H112968   4.208   0.990   6.708
 4337TIP3    H212969   4.312   0.945   6.809
 4338TIP3   OH212970   6.495   0.264   0.342
 4338TIP3    H112971   6.444   0.315   0.404
 4338TIP3    H212972   6.446   0.269   0.260
 4339TIP3   OH212973   2.224   3.300   5.166
 4339TIP3    H112974   2.269   3.247   5.100
 4339TIP3    H212975   2.165   3.239   5.209
 4340TIP3   OH212976   1.049   1.433   1.664
 4340TIP3    H112977   1.100   1.475   1.734
 4340TIP3    H212978   1.100   1.354   1.642
 4341TIP3   OH212979   5.637   0.263   1.402
 4341TIP3    H112980   5.698   0.324   1.360
 4341TIP3    H212981   5.621   0.300   1.489
 4342TIP3   OH212982   8.189   6.238   2.646
 4342TIP3    H112983   8.202   6.265   2.736
 4342TIP3    H212984   8.097   6.214   2.640
 4343TIP3   OH212985   2.723   5.281   4.223
 4343TIP3    H112986   2.690   5.313   4.307
 4343TIP3    H212987   2.818   5.294   4.228
 4344TIP3   OH212988   7.054   3.504   4.101
 4344TIP3    H112989   7.105   3.581   4.075
 4344TIP3    H212990   7.080   3.436   4.039
 4345TIP3   OH212991   4.577   0.586   1.212
 4345TIP3    H112992   4.490   0.608   1.178
 4345TIP3    H212993   4.633   0.657   1.182
 4346TIP3   OH212994   5.026   1.136   3.117
 4346TIP3    H112995   5.082   1.077   3.068
 4346TIP3    H212996   5.044   1.223   3.081
 4347TIP3   OH212997   4.939   3.617   1.722
 4347TIP3    H112998   4.906   3.528   1.711
 4347TIP3    H212999   4.938   3.631   1.817
 4348TIP3   OH213000   3.043   0.834   2.893
 4348TIP3    H113001   3.041   0.913   2.840
 4348TIP3    H213002   2.978   0.849   2.962
 4349TIP3   OH213003   5.389   2.818   4.366
 4349TIP3    H113004   5.333   2.887   4.330
 4349TIP3    H213005   5.379   2.825   4.461
 4350TIP3   OH213006   7.697   0.601   0.201
 4350TIP3    H113007   7.784   0.638   0.211
 4350TIP3    H213008   7.677   0.611   0.108
 4351TIP3   OH213009   5.203   6.880   4.801
 4351TIP3    H113010   5.140   6.900   4.733
 4351TIP3    H213011   5.150   6.856   4.877
 4352TIP3   OH213012   7.890   5.891   3.389
 4352TIP3    H113013   7.862   5.870   3.478
 4352TIP3    H213014   7.983   5.909   3.396
 4353TIP3   OH213015   3.705   1.466   2.038
 4353TIP3    H113016   3.626   1.504   2.001
 4353TIP3    H213017   3.750   1.427   1.964
 4354TIP3   OH213018   5.120   2.671   5.537
 4354TIP3    H113019   5.200   2.723   5.529
 4354TIP3    H213020   5.121   2.639   5.627
 4355TIP3   OH213021   7.035   0.189   1.498
 4355TIP3    H113022   6.959   0.191   1.440
 4355TIP3    H213023   7.105   0.150   1.444
 4356TIP3   OH213024   3.092   5.463   2.720
 4356TIP3    H113025   3.135   5.542   2.686
 4356TIP3    H213026   3.118   5.459   2.812
 4357TIP3   OH213027   5.417   1.300   4.982
 4357TIP3    H113028   5.426   1.353   5.061
 4357TIP3    H213029   5.327   1.267   4.985
 4358TIP3   OH213030   0.165   7.158   3.710
 4358TIP3    H113031   0.146   7.218   3.783
 4358TIP3    H213032   0.092   7.097   3.709
 4359TIP3   OH213033   0.428   1.701   2.220
 4359TIP3    H113034   0.456   1.790   2.242
 4359TIP3    H213035   0.503   1.646   2.244
 4360TIP3   OH213036   5.128   3.395   5.935
 4360TIP3    H113037   5.130   3.461   6.005
 4360TIP3    H213038   5.220   3.382   5.912
 4361TIP3   OH213039   5.512   7.360   6.717
 4361TIP3    H113040   5.500   7.441   6.765
 4361TIP3    H213041   5.455   7.297   6.763
 4362TIP3   OH213042   0.863   4.096   1.071
 4362TIP3    H113043   0.815   4.070   0.992
 4362TIP3    H213044   0.922   4.023   1.088
 4363TIP3   OH213045   3.074   7.397   3.489
 4363TIP3    H113046   2.994   7.406   3.436
 4363TIP3    H213047   3.047   7.424   3.577
 4364TIP3   OH213048   2.141   3.161   6.311
 4364TIP3    H113049   2.233   3.169   6.284
 4364TIP3    H213050   2.135   3.214   6.391
 4365TIP3   OH213051   2.962   6.954   0.596
 4365TIP3    H113052   2.900   6.999   0.654
 4365TIP3    H213053   2.960   6.863   0.625
 4366TIP3   OH213054   6.510   4.072   0.484
 4366TIP3    H113055   6.604   4.058   0.476
 4366TIP3    H213056   6.471   3.989   0.455
 4367TIP3   OH213057   1.238   4.018   1.938
 4367TIP3    H113058   1.251   4.069   2.018
 4367TIP3    H213059   1.230   4.083   1.869
 4368TIP3   OH213060   2.130   5.035   6.633
 4368TIP3    H113061   2.160   4.966   6.693
 4368TIP3    H213062   2.103   4.987   6.555
 4369TIP3   OH213063   0.621   1.787   1.501
 4369TIP3    H113064   0.616   1.876   1.536
 4369TIP3    H213065   0.580   1.793   1.415
 4370TIP3   OH213066   1.809   4.919   2.804
 4370TIP3    H113067   1.739   4.853   2.808
 4370TIP3    H213068   1.818   4.949   2.895
 4371TIP3   OH213069   7.512   1.708   1.098
 4371TIP3    H113070   7.491   1.705   1.191
 4371TIP3    H213071   7.528   1.801   1.080
 4372TIP3   OH213072   3.251   0.651   3.480
 4372TIP3    H113073   3.206   0.610   3.554
 4372TIP3    H213074   3.333   0.685   3.518
 4373TIP3   OH213075   4.270   5.341   4.822
 4373TIP3    H113076   4.212   5.290   4.879
 4373TIP3    H213077   4.353   5.345   4.870
 4374TIP3   OH213078   6.761   4.180   5.768
 4374TIP3    H113079   6.754   4.091   5.803
 4374TIP3    H213080   6.694   4.185   5.699
 4375TIP3   OH213081   6.750   0.468   6.097
 4375TIP3    H113082   6.768   0.470   6.191
 4375TIP3    H213083   6.693   0.543   6.082
 4376TIP3   OH213084   7.311   3.387   5.284
 4376TIP3    H113085   7.291   3.339   5.204
 4376TIP3    H213086   7.406   3.395   5.285
 4377TIP3   OH213087   4.988   4.680   5.493
 4377TIP3    H113088   5.067   4.725   5.467
 4377TIP3    H213089   4.979   4.698   5.586
 4378TIP3   OH213090   3.206   0.592   2.484
 4378TIP3    H113091   3.118   0.574   2.450
 4378TIP3    H213092   3.210   0.687   2.491
 4379TIP3   OH213093   1.634   6.984   2.303
 4379TIP3    H113094   1.574   6.921   2.343
 4379TIP3    H213095   1.582   7.025   2.233
 4380TIP3   OH213096   4.634   4.286   0.879
 4380TIP3    H113097   4.651   4.206   0.929
 4380TIP3    H213098   4.711   4.295   0.823
 4381TIP3   OH213099   5.296   0.394   3.516
 4381TIP3    H113100   5.326   0.319   3.568
 4381TIP3    H213101   5.251   0.355   3.441
 4382TIP3   OH213102   7.437   5.206   3.979
 4382TIP3    H113103   7.398   5.271   3.920
 4382TIP3    H213104   7.531   5.213   3.964
 4383TIP3   OH213105   6.671   7.714   5.099
 4383TIP3    H113106   6.583   7.709   5.062
 4383TIP3    H213107   6.720   7.643   5.057
 4384TIP3   OH213108   4.331   3.479   2.447
 4384TIP3    H113109   4.302   3.479   2.355
 4384TIP3    H213110   4.410   3.533   2.446
 4385TIP3   OH213111   6.292   4.014   5.530
 4385TIP3    H113112   6.207   4.043   5.494
 4385TIP3    H213113   6.276   4.002   5.623
 4386TIP3   OH213114   0.760   4.873   3.959
 4386TIP3    H113115   0.716   4.958   3.947
 4386TIP3    H213116   0.711   4.813   3.903
 4387TIP3   OH213117   5.647   3.372   6.361
 4387TIP3    H113118   5.649   3.300   6.299
 4387TIP3    H213119   5.577   3.429   6.329
 4388TIP3   OH213120   1.913   7.775   3.449
 4388TIP3    H113121   1.919   7.706   3.516
 4388TIP3    H213122   1.838   7.752   3.396
 4389TIP3   OH213123   3.206   1.837   5.963
 4389TIP3    H113124   3.261   1.774   5.916
 4389TIP3    H213125   3.161   1.785   6.030
 4390TIP3   OH213126   3.802   3.969   6.191
 4390TIP3    H113127   3.881   3.977   6.137
 4390TIP3    H213128   3.755   3.895   6.153
 4391TIP3   OH213129   2.379   4.500   0.887
 4391TIP3    H113130   2.392   4.549   0.968
 4391TIP3    H213131   2.363   4.567   0.820
 4392TIP3   OH213132   1.294   5.740   4.504
 4392TIP3    H113133   1.348   5.689   4.443
 4392TIP3    H213134   1.305   5.695   4.588
 4393TIP3   OH213135   2.258   4.061   3.168
 4393TIP3    H113136   2.209   3.984   3.140
 4393TIP3    H213137   2.252   4.061   3.263
 4394TIP3   OH213138   2.940   3.835   1.683
 4394TIP3    H113139   2.859   3.796   1.717
 4394TIP3    H213140   2.916   3.871   1.598
 4395TIP3   OH213141   3.828   7.488   5.141
 4395TIP3    H113142   3.876   7.546   5.201
 4395TIP3    H213143   3.738   7.522   5.142
 4396TIP3   OH213144   4.734   1.704   4.425
 4396TIP3    H113145   4.783   1.784   4.406
 4396TIP3    H213146   4.788   1.657   4.488
 4397TIP3   OH213147   4.804   5.081   5.689
 4397TIP3    H113148   4.710   5.066   5.689
 4397TIP3    H213149   4.828   5.090   5.781
 4398TIP3   OH213150   5.383   6.069   6.434
 4398TIP3    H113151   5.314   6.033   6.490
 4398TIP3    H213152   5.391   6.006   6.362
 4399TIP3   OH213153   4.930   1.369   2.201
 4399TIP3    H113154   4.898   1.456   2.179
 4399TIP3    H213155   4.853   1.313   2.196
 4400TIP3   OH213156   1.965   6.543   5.549
 4400TIP3    H113157   1.887   6.489   5.536
 4400TIP3    H213158   1.939   6.607   5.614
 4401TIP3   OH213159   5.172   0.332   6.773
 4401TIP3    H113160   5.234   0.326   6.701
 4401TIP3    H213161   5.111   0.259   6.758
 4402TIP3   OH213162   5.719   0.979   6.244
 4402TIP3    H113163   5.703   0.888   6.218
 4402TIP3    H213164   5.710   0.979   6.339
 4403TIP3   OH213165   5.840   3.020   3.107
 4403TIP3    H113166   5.832   3.006   3.202
 4403TIP3    H213167   5.821   2.935   3.069
 4404TIP3   OH213168   6.667   5.012   3.946
 4404TIP3    H113169   6.762   5.021   3.951
 4404TIP3    H213170   6.640   4.990   4.035
 4405TIP3   OH213171   0.876   6.909   0.444
 4405TIP3    H113172   0.887   6.840   0.379
 4405TIP3    H213173   0.784   6.934   0.436
 4406TIP3   OH213174   5.846   6.298   0.804
 4406TIP3    H113175   5.900   6.219   0.800
 4406TIP3    H213176   5.899   6.365   0.761
 4407TIP3   OH213177   6.221   2.094   0.175
 4407TIP3    H113178   6.175   2.030   0.229
 4407TIP3    H213179   6.289   2.128   0.232
 4408TIP3   OH213180   7.850   7.268   5.700
 4408TIP3    H113181   7.914   7.266   5.771
 4408TIP3    H213182   7.829   7.175   5.685
 4409TIP3   OH213183   7.549   4.197   4.218
 4409TIP3    H113184   7.547   4.109   4.255
 4409TIP3    H213185   7.634   4.232   4.243
 4410TIP3   OH213186   0.453   6.781   6.010
 4410TIP3    H113187   0.474   6.724   6.084
 4410TIP3    H213188   0.384   6.735   5.962
 4411TIP3   OH213189   0.084   7.141   4.197
 4411TIP3    H113190   0.152   7.134   4.265
 4411TIP3    H213191   0.097   7.063   4.143
 4412TIP3   OH213192   1.614   6.061   5.719
 4412TIP3    H113193   1.622   6.005   5.643
 4412TIP3    H213194   1.672   6.022   5.785
 4413TIP3   OH213195   0.805   5.088   2.333
 4413TIP3    H113196   0.854   5.161   2.295
 4413TIP3    H213197   0.749   5.129   2.400
 4414TIP3   OH213198   7.651   3.084   3.466
 4414TIP3    H113199   7.580   3.069   3.529
 4414TIP3    H213200   7.607   3.117   3.388
 4415TIP3   OH213201   6.791   5.173   3.026
 4415TIP3    H113202   6.836   5.091   3.046
 4415TIP3    H213203   6.733   5.151   2.953
 4416TIP3   OH213204   5.395   5.649   1.407
 4416TIP3    H113205   5.344   5.724   1.373
 4416TIP3    H213206   5.424   5.603   1.328
 4417TIP3   OH213207   3.647   4.488   5.230
 4417TIP3    H113208   3.605   4.495   5.316
 4417TIP3    H213209   3.583   4.525   5.170
 4418TIP3   OH213210   4.539   5.553   5.212
 4418TIP3    H113211   4.628   5.522   5.197
 4418TIP3    H213212   4.547   5.649   5.210
 4419TIP3   OH213213   4.797   4.758   3.716
 4419TIP3    H113214   4.818   4.827   3.653
 4419TIP3    H213215   4.876   4.750   3.769
 4420TIP3   OH213216   1.240   6.755   6.736
 4420TIP3    H113217   1.172   6.761   6.803
 4420TIP3    H213218   1.231   6.835   6.685
 4421TIP3   OH213219   7.642   7.624   1.634
 4421TIP3    H113220   7.591   7.562   1.582
 4421TIP3    H213221   7.581   7.655   1.701
 4422TIP3   OH213222   2.331   6.127   2.374
 4422TIP3    H113223   2.333   6.220   2.396
 4422TIP3    H213224   2.343   6.124   2.279
 4423TIP3   OH213225   3.784   0.125   4.267
 4423TIP3    H113226   3.863   0.178   4.276
 4423TIP3    H213227   3.713   0.188   4.258
 4424TIP3   OH213228   6.049   0.200   0.864
 4424TIP3    H113229   6.132   0.157   0.847
 4424TIP3    H213230   6.010   0.212   0.777
 4425TIP3   OH213231   5.924   7.683   1.503
 4425TIP3    H113232   5.922   7.774   1.529
 4425TIP3    H213233   5.990   7.642   1.559
 4426TIP3   OH213234   3.848   7.697   0.383
 4426TIP3    H113235   3.932   7.695   0.428
 4426TIP3    H213236   3.864   7.747   0.303
 4427TIP3   OH213237   1.576   7.012   5.514
 4427TIP3    H113238   1.647   6.987   5.573
 4427TIP3    H213239   1.609   6.990   5.427
 4428TIP3   OH213240   0.043   3.900   0.296
 4428TIP3    H113241   0.073   3.950   0.372
 4428TIP3    H213242   0.115   3.909   0.232
 4429TIP3   OH213243   3.883   7.130   2.650
 4429TIP3    H113244   3.805   7.182   2.632
 4429TIP3    H213245   3.928   7.124   2.566
 4430TIP3   OH213246   6.420   3.574   5.889
 4430TIP3    H113247   6.399   3.597   5.798
 4430TIP3    H213248   6.512   3.551   5.887
 4431TIP3   OH213249   6.950   7.558   3.586
 4431TIP3    H113250   6.946   7.503   3.507
 4431TIP3    H213251   6.910   7.640   3.560
 4432TIP3   OH213252   4.771   2.218   5.417
 4432TIP3    H113253   4.696   2.210   5.358
 4432TIP3    H213254   4.779   2.132   5.458
 4433TIP3   OH213255   0.350   6.010   3.271
 4433TIP3    H113256   0.335   5.934   3.327
 4433TIP3    H213257   0.299   5.991   3.192
 4434TIP3   OH213258   1.848   3.012   4.847
 4434TIP3    H113259   1.824   3.100   4.818
 4434TIP3    H213260   1.928   3.023   4.897
 4435TIP3   OH213261   7.858   0.299   2.254
 4435TIP3    H113262   7.831   0.384   2.219
 4435TIP3    H213263   7.810   0.290   2.336
 4436TIP3   OH213264   1.061   1.721   4.372
 4436TIP3    H113265   1.092   1.769   4.449
 4436TIP3    H213266   1.139   1.682   4.334
 4437TIP3   OH213267   6.930   7.205   6.172
 4437TIP3    H113268   6.988   7.151   6.226
 4437TIP3    H213269   6.947   7.295   6.202
 4438TIP3   OH213270   2.853   4.573   0.058
 4438TIP3    H113271   2.818   4.661   0.045
 4438TIP3    H213272   2.813   4.520  -0.011
 4439TIP3   OH213273   6.679   1.340   3.557
 4439TIP3    H113274   6.612   1.360   3.492
 4439TIP3    H213275   6.638   1.362   3.641
 4440TIP3   OH213276   3.207   4.987   2.668
 4440TIP3    H113277   3.266   4.965   2.739
 4440TIP3    H213278   3.149   5.054   2.704
 4441TIP3   OH213279   3.765   3.526   6.461
 4441TIP3    H113280   3.779   3.468   6.386
 4441TIP3    H213281   3.702   3.591   6.429
 4442TIP3   OH213282   6.241   3.306   6.369
 4442TIP3    H113283   6.237   3.317   6.274
 4442TIP3    H213284   6.277   3.389   6.401
 4443TIP3   OH213285   0.771   7.619   0.737
 4443TIP3    H113286   0.778   7.530   0.704
 4443TIP3    H213287   0.841   7.626   0.802
 4444TIP3   OH213288   2.680   0.139   4.822
 4444TIP3    H113289   2.727   0.161   4.742
 4444TIP3    H213290   2.618   0.212   4.834
 4445TIP3   OH213291   5.356   0.777   6.307
 4445TIP3    H113292   5.422   0.830   6.353
 4445TIP3    H213293   5.275   0.794   6.355
 4446TIP3   OH213294   0.894   5.108   5.462
 4446TIP3    H113295   0.922   5.106   5.553
 4446TIP3    H213296   0.920   5.023   5.427
 4447TIP3   OH213297   4.707   6.270   5.248
 4447TIP3    H113298   4.622   6.311   5.260
 4447TIP3    H213299   4.764   6.314   5.312
 4448TIP3   OH213300   3.079   2.599   1.563
 4448TIP3    H113301   3.156   2.652   1.546
 4448TIP3    H213302   3.045   2.631   1.647
 4449TIP3   OH213303   3.797   6.071   6.720
 4449TIP3    H113304   3.852   6.003   6.760
 4449TIP3    H213305   3.859   6.125   6.671
 4450TIP3   OH213306   2.860   1.023   2.312
 4450TIP3    H113307   2.888   1.001   2.401
 4450TIP3    H213308   2.873   1.118   2.306
 4451TIP3   OH213309   7.924   3.669   2.413
 4451TIP3    H113310   7.831   3.688   2.427
 4451TIP3    H213311   7.959   3.656   2.501
 4452TIP3   OH213312   7.041   2.760   3.903
 4452TIP3    H113313   6.986   2.696   3.859
 4452TIP3    H213314   7.114   2.776   3.842
 4453TIP3   OH213315   3.294   1.287   5.208
 4453TIP3    H113316   3.377   1.330   5.228
 4453TIP3    H213317   3.292   1.209   5.263
 4454TIP3   OH213318   6.544   2.521   0.547
 4454TIP3    H113319   6.589   2.583   0.604
 4454TIP3    H213320   6.582   2.536   0.460
 4455TIP3   OH213321   1.664   4.724   5.555
 4455TIP3    H113322   1.707   4.673   5.487
 4455TIP3    H213323   1.702   4.692   5.637
 4456TIP3   OH213324   6.530   5.876   3.189
 4456TIP3    H113325   6.610   5.832   3.162
 4456TIP3    H213326   6.543   5.967   3.163
 4457TIP3   OH213327   0.707   2.750   4.687
 4457TIP3    H113328   0.759   2.830   4.678
 4457TIP3    H213329   0.624   2.779   4.726
 4458TIP3   OH213330   5.639   7.215   2.875
 4458TIP3    H113331   5.655   7.229   2.968
 4458TIP3    H213332   5.726   7.219   2.835
 4459TIP3   OH213333   2.318   7.335   3.668
 4459TIP3    H113334   2.256   7.407   3.657
 4459TIP3    H213335   2.273   7.272   3.724
 4460TIP3   OH213336   5.285   1.751   2.908
 4460TIP3    H113337   5.330   1.805   2.973
 4460TIP3    H213338   5.354   1.721   2.849
 4461TIP3   OH213339   0.762   0.323   2.102
 4461TIP3    H113340   0.669   0.300   2.089
 4461TIP3    H213341   0.808   0.270   2.037
 4462TIP3   OH213342   3.364   0.067   1.375
 4462TIP3    H113343   3.329   0.089   1.289
 4462TIP3    H213344   3.329   0.135   1.433
 4463TIP3   OH213345   8.051   2.834   6.728
 4463TIP3    H113346   8.040   2.918   6.773
 4463TIP3    H213347   8.070   2.772   6.798
 4464TIP3   OH213348   1.699   4.614   5.298
 4464TIP3    H113349   1.775   4.570   5.259
 4464TIP3    H213350   1.678   4.684   5.236
 4465TIP3   OH213351   5.930   5.519   2.459
 4465TIP3    H113352   6.022   5.499   2.441
 4465TIP3    H213353   5.933   5.593   2.520
 4466TIP3   OH213354   5.898   2.177   3.587
 4466TIP3    H113355   5.875   2.123   3.512
 4466TIP3    H213356   5.827   2.164   3.649
 4467TIP3   OH213357   8.040   4.213   6.126
 4467TIP3    H113358   8.033   4.271   6.051
 4467TIP3    H213359   7.972   4.147   6.112
 4468TIP3   OH213360   2.264   0.446   6.648
 4468TIP3    H113361   2.351   0.430   6.684
 4468TIP3    H213362   2.267   0.409   6.560
 4469TIP3   OH213363   5.910   4.429   3.032
 4469TIP3    H113364   5.845   4.405   3.099
 4469TIP3    H213365   5.958   4.502   3.070
 4470TIP3   OH213366   8.209   3.220   2.176
 4470TIP3    H113367   8.208   3.226   2.080
 4470TIP3    H213368   8.283   3.162   2.196
 4471TIP3   OH213369   7.689   6.641   4.255
 4471TIP3    H113370   7.657   6.696   4.327
 4471TIP3    H213371   7.610   6.612   4.209
 4472TIP3   OH213372   5.416   3.780   5.207
 4472TIP3    H113373   5.412   3.848   5.274
 4472TIP3    H213374   5.329   3.739   5.209
 4473TIP3   OH213375   2.304   5.076   3.280
 4473TIP3    H113376   2.321   5.017   3.207
 4473TIP3    H213377   2.385   5.075   3.331
 4474TIP3   OH213378   6.839   3.677   1.047
 4474TIP3    H113379   6.799   3.607   1.099
 4474TIP3    H213380   6.923   3.693   1.090
 4475TIP3   OH213381   2.160   4.375   0.892
 4475TIP3    H113382   2.249   4.409   0.878
 4475TIP3    H213383   2.104   4.433   0.840
 4476TIP3   OH213384   4.299   2.522   5.954
 4476TIP3    H113385   4.391   2.546   5.962
 4476TIP3    H213386   4.297   2.457   5.883
 4477TIP3   OH213387   1.599   4.245   4.244
 4477TIP3    H113388   1.652   4.321   4.267
 4477TIP3    H213389   1.607   4.186   4.320
 4478TIP3   OH213390   0.213   6.745   1.513
 4478TIP3    H113391   0.196   6.662   1.556
 4478TIP3    H213392   0.127   6.778   1.489
 4479TIP3   OH213393   3.679   2.953   2.435
 4479TIP3    H113394   3.718   3.016   2.496
 4479TIP3    H213395   3.610   3.003   2.390
 4480TIP3   OH213396   6.357   4.720   3.204
 4480TIP3    H113397   6.366   4.638   3.253
 4480TIP3    H213398   6.445   4.756   3.202
 4481TIP3   OH213399   7.841   0.338   4.190
 4481TIP3    H113400   7.810   0.257   4.229
 4481TIP3    H213401   7.905   0.311   4.125
 4482TIP3   OH213402   6.550   1.132   0.388
 4482TIP3    H113403   6.469   1.180   0.368
 4482TIP3    H213404   6.607   1.197   0.429
 4483TIP3   OH213405   1.736   5.883   5.116
 4483TIP3    H113406   1.721   5.975   5.138
 4483TIP3    H213407   1.831   5.877   5.101
 4484TIP3   OH213408   4.409   7.201   0.307
 4484TIP3    H113409   4.448   7.227   0.223
 4484TIP3    H213410   4.325   7.247   0.310
 4485TIP3   OH213411   4.808   1.980   5.546
 4485TIP3    H113412   4.847   1.907   5.499
 4485TIP3    H213413   4.868   1.997   5.619
 4486TIP3   OH213414   0.371   5.215   5.123
 4486TIP3    H113415   0.318   5.155   5.176
 4486TIP3    H213416   0.307   5.264   5.072
 4487TIP3   OH213417   6.823   5.996   4.021
 4487TIP3    H113418   6.910   5.965   4.045
 4487TIP3    H213419   6.770   5.917   4.012
 4488TIP3   OH213420   7.169   6.125   6.372
 4488TIP3    H113421   7.074   6.123   6.364
 4488TIP3    H213422   7.196   6.033   6.363
 4489TIP3   OH213423   2.462   6.213   0.786
 4489TIP3    H113424   2.503   6.218   0.872
 4489TIP3    H213425   2.493   6.291   0.740
 4490TIP3   OH213426   5.843   5.567   2.213
 4490TIP3    H113427   5.904   5.532   2.149
 4490TIP3    H213428   5.878   5.539   2.298
 4491TIP3   OH213429   5.579   0.655   2.453
 4491TIP3    H113430   5.551   0.615   2.370
 4491TIP3    H213431   5.611   0.581   2.505
 4492TIP3   OH213432   6.216   4.440   4.260
 4492TIP3    H113433   6.178   4.360   4.297
 4492TIP3    H213434   6.172   4.511   4.306
 4493TIP3   OH213435   2.318   2.085   5.098
 4493TIP3    H113436   2.364   2.138   5.162
 4493TIP3    H213437   2.331   2.131   5.015
 4494TIP3   OH213438   6.177   5.187   4.516
 4494TIP3    H113439   6.139   5.153   4.435
 4494TIP3    H213440   6.169   5.114   4.578
 4495TIP3   OH213441   4.551   3.590   0.488
 4495TIP3    H113442   4.466   3.555   0.460
 4495TIP3    H213443   4.568   3.548   0.572
 4496TIP3   OH213444   6.537   2.017   4.383
 4496TIP3    H113445   6.514   2.004   4.475
 4496TIP3    H213446   6.542   1.928   4.347
 4497TIP3   OH213447   2.276   5.781   4.450
 4497TIP3    H113448   2.299   5.795   4.358
 4497TIP3    H213449   2.328   5.706   4.476
 4498TIP3   OH213450   1.298   5.351   1.787
 4498TIP3    H113451   1.254   5.367   1.870
 4498TIP3    H213452   1.281   5.259   1.768
 4499TIP3   OH213453   1.509   6.559   1.518
 4499TIP3    H113454   1.559   6.587   1.442
 4499TIP3    H213455   1.520   6.463   1.520
 4500TIP3   OH213456   4.014   0.575   2.139
 4500TIP3    H113457   3.922   0.554   2.128
 4500TIP3    H213458   4.015   0.649   2.200
 4501TIP3   OH213459   1.128   1.293   6.328
 4501TIP3    H113460   1.185   1.357   6.370
 4501TIP3    H213461   1.182   1.215   6.316
 4502TIP3   OH213462   8.102   2.064   2.437
 4502TIP3    H113463   8.099   2.081   2.531
 4502TIP3    H213464   8.171   1.998   2.427
 4503TIP3   OH213465   4.668   2.566   2.275
 4503TIP3    H113466   4.584   2.540   2.314
 4503TIP3    H213467   4.732   2.505   2.312
 4504TIP3   OH213468   0.518   1.762   3.397
 4504TIP3    H113469   0.462   1.793   3.326
 4504TIP3    H213470   0.464   1.699   3.445
 4505TIP3   OH213471   2.960   4.146   4.417
 4505TIP3    H113472   2.883   4.095   4.443
 4505TIP3    H213473   2.925   4.211   4.356
 4506TIP3   OH213474   7.985   6.588   3.333
 4506TIP3    H113475   7.945   6.642   3.402
 4506TIP3    H213476   7.992   6.501   3.372
 4507TIP3   OH213477   3.296   0.644   0.860
 4507TIP3    H113478   3.390   0.644   0.837
 4507TIP3    H213479   3.254   0.684   0.784
 4508TIP3   OH213480   6.044   7.433   1.902
 4508TIP3    H113481   5.962   7.456   1.857
 4508TIP3    H213482   6.053   7.501   1.969
 4509TIP3   OH213483   3.806   7.129   4.419
 4509TIP3    H113484   3.888   7.178   4.411
 4509TIP3    H213485   3.775   7.119   4.329
 4510TIP3   OH213486   6.842   4.171   6.540
 4510TIP3    H113487   6.763   4.118   6.543
 4510TIP3    H213488   6.813   4.256   6.509
 4511TIP3   OH213489   3.081   4.642   4.506
 4511TIP3    H113490   3.091   4.617   4.414
 4511TIP3    H213491   3.033   4.569   4.546
 4512TIP3   OH213492   1.255   6.049   5.604
 4512TIP3    H113493   1.312   5.972   5.601
 4512TIP3    H213494   1.176   6.023   5.557
 4513TIP3   OH213495   1.749   6.159   1.043
 4513TIP3    H113496   1.777   6.195   1.127
 4513TIP3    H213497   1.776   6.067   1.045
 4514TIP3   OH213498   2.197   6.542   5.389
 4514TIP3    H113499   2.175   6.458   5.348
 4514TIP3    H213500   2.124   6.560   5.448
 4515TIP3   OH213501   3.374   0.579   4.739
 4515TIP3    H113502   3.333   0.508   4.689
 4515TIP3    H213503   3.307   0.646   4.746
 4516TIP3   OH213504   3.089   1.436   4.927
 4516TIP3    H113505   3.091   1.340   4.924
 4516TIP3    H213506   3.051   1.456   5.013
 4517TIP3   OH213507   1.416   4.793   4.581
 4517TIP3    H113508   1.377   4.719   4.627
 4517TIP3    H213509   1.443   4.853   4.651
 4518TIP3   OH213510   1.856   0.506   1.124
 4518TIP3    H113511   1.833   0.414   1.132
 4518TIP3    H213512   1.775   0.549   1.096
 4519TIP3   OH213513   5.515   4.879   5.245
 4519TIP3    H113514   5.608   4.894   5.265
 4519TIP3    H213515   5.496   4.794   5.286
 4520TIP3   OH213516   4.773   5.804   5.799
 4520TIP3    H113517   4.746   5.739   5.864
 4520TIP3    H213518   4.854   5.769   5.763
 4521TIP3   OH213519   4.419   7.776   0.888
 4521TIP3    H113520   4.427   7.691   0.843
 4521TIP3    H213521   4.509   7.809   0.893
 4522TIP3   OH213522   3.056   5.118   4.709
 4522TIP3    H113523   3.120   5.148   4.774
 4522TIP3    H213524   2.997   5.061   4.759
 4523TIP3   OH213525   8.236   5.346   3.718
 4523TIP3    H113526   8.219   5.307   3.632
 4523TIP3    H213527   8.184   5.294   3.779
 4524TIP3   OH213528   7.022   6.094   1.467
 4524TIP3    H113529   6.952   6.155   1.489
 4524TIP3    H213530   7.090   6.111   1.532
 4525TIP3   OH213531   5.217   4.419   1.656
 4525TIP3    H113532   5.301   4.445   1.618
 4525TIP3    H213533   5.217   4.458   1.744
 4526TIP3   OH213534   3.812   2.862   4.352
 4526TIP3    H113535   3.902   2.883   4.328
 4526TIP3    H213536   3.786   2.794   4.291
 4527TIP3   OH213537   3.238   1.115   0.395
 4527TIP3    H113538   3.177   1.041   0.390
 4527TIP3    H213539   3.269   1.115   0.486
 4528TIP3   OH213540   4.582   5.146   6.624
 4528TIP3    H113541   4.629   5.225   6.597
 4528TIP3    H213542   4.495   5.155   6.585
 4529TIP3   OH213543   1.101   5.399   6.069
 4529TIP3    H113544   1.037   5.340   6.030
 4529TIP3    H213545   1.049   5.467   6.111
 4530TIP3   OH213546   0.304   7.004   1.797
 4530TIP3    H113547   0.308   7.003   1.892
 4530TIP3    H213548   0.245   6.933   1.774
 4531TIP3   OH213549   1.735   5.139   0.733
 4531TIP3    H113550   1.749   5.079   0.660
 4531TIP3    H213551   1.641   5.138   0.747
 4532TIP3   OH213552   1.444   2.512   0.329
 4532TIP3    H113553   1.364   2.462   0.345
 4532TIP3    H213554   1.414   2.597   0.297
 4533TIP3   OH213555   7.576   1.240   6.488
 4533TIP3    H113556   7.627   1.169   6.526
 4533TIP3    H213557   7.603   1.318   6.537
 4534TIP3   OH213558   1.686   6.374   1.978
 4534TIP3    H113559   1.691   6.289   2.020
 4534TIP3    H213560   1.702   6.437   2.048
 4535TIP3   OH213561   6.457   1.139   4.708
 4535TIP3    H113562   6.453   1.049   4.737
 4535TIP3    H213563   6.531   1.142   4.647
 4536TIP3   OH213564   1.601   4.808   1.351
 4536TIP3    H113565   1.671   4.828   1.289
 4536TIP3    H213566   1.605   4.879   1.415
 4537TIP3   OH213567   5.606   3.766   2.128
 4537TIP3    H113568   5.665   3.694   2.105
 4537TIP3    H213569   5.533   3.724   2.173
 4538TIP3   OH213570   5.377   6.569   2.367
 4538TIP3    H113571   5.331   6.582   2.285
 4538TIP3    H213572   5.382   6.656   2.407
 4539TIP3   OH213573   0.280   3.511   4.349
 4539TIP3    H113574   0.223   3.518   4.272
 4539TIP3    H213575   0.256   3.427   4.389
 4540TIP3   OH213576   5.589   1.692   6.021
 4540TIP3    H113577   5.624   1.702   6.110
 4540TIP3    H213578   5.508   1.643   6.032
 4541TIP3   OH213579   5.898   3.835   5.188
 4541TIP3    H113580   5.986   3.866   5.165
 4541TIP3    H213581   5.850   3.835   5.106
 4542TIP3   OH213582   5.988   7.227   4.360
 4542TIP3    H113583   6.072   7.195   4.329
 4542TIP3    H213584   6.010   7.283   4.434
 4543TIP3   OH213585   1.429   2.326   2.905
 4543TIP3    H113586   1.400   2.245   2.863
 4543TIP3    H213587   1.418   2.393   2.837
 4544TIP3   OH213588   4.199   2.006   4.920
 4544TIP3    H113589   4.188   1.998   5.015
 4544TIP3    H213590   4.243   2.090   4.908
 4545TIP3   OH213591   1.489   0.676   1.921
 4545TIP3    H113592   1.563   0.654   1.864
 4545TIP3    H213593   1.451   0.755   1.882
 4546TIP3   OH213594   2.840   5.511   5.410
 4546TIP3    H113595   2.864   5.511   5.502
 4546TIP3    H213596   2.921   5.488   5.364
 4547TIP3   OH213597   5.330   7.785   3.713
 4547TIP3    H113598   5.419   7.761   3.739
 4547TIP3    H213599   5.306   7.722   3.645
 4548TIP3   OH213600   8.251   1.721   0.636
 4548TIP3    H113601   8.337   1.763   0.633
 4548TIP3    H213602   8.197   1.782   0.686
 4549TIP3   OH213603   8.251   1.966   0.328
 4549TIP3    H113604   8.229   1.875   0.306
 4549TIP3    H213605   8.189   2.018   0.276
 4550TIP3   OH213606   4.963   4.810   4.816
 4550TIP3    H113607   4.943   4.725   4.777
 4550TIP3    H213608   4.944   4.873   4.747
 4551TIP3   OH213609   7.816   5.142   1.557
 4551TIP3    H113610   7.898   5.161   1.603
 4551TIP3    H213611   7.805   5.047   1.565
 4552TIP3   OH213612   3.645   2.686   1.463
 4552TIP3    H113613   3.644   2.604   1.413
 4552TIP3    H213614   3.709   2.741   1.418
 4553TIP3   OH213615   1.553   7.503   4.357
 4553TIP3    H113616   1.640   7.506   4.396
 4553TIP3    H213617   1.557   7.567   4.286
 4554TIP3   OH213618   6.873   3.190   6.005
 4554TIP3    H113619   6.782   3.219   6.010
 4554TIP3    H213620   6.890   3.182   5.912
 4555TIP3   OH213621   7.428   6.754   5.771
 4555TIP3    H113622   7.337   6.759   5.801
 4555TIP3    H213623   7.449   6.843   5.744
 4556TIP3   OH213624   7.694   1.146   0.546
 4556TIP3    H113625   7.707   1.074   0.607
 4556TIP3    H213626   7.645   1.211   0.596
 4557TIP3   OH213627   2.142   6.420   6.168
 4557TIP3    H113628   2.210   6.480   6.198
 4557TIP3    H213629   2.145   6.427   6.072
 4558TIP3   OH213630   2.234   2.464   4.104
 4558TIP3    H113631   2.310   2.490   4.157
 4558TIP3    H213632   2.182   2.409   4.162
 4559TIP3   OH213633   8.297   3.558   2.987
 4559TIP3    H113634   8.295   3.469   2.953
 4559TIP3    H213635   8.268   3.549   3.078
 4560TIP3   OH213636   1.692   3.872   3.241
 4560TIP3    H113637   1.673   3.947   3.297
 4560TIP3    H213638   1.787   3.862   3.245
 4561TIP3   OH213639   4.031   7.811   1.442
 4561TIP3    H113640   4.003   7.902   1.453
 4561TIP3    H213641   4.067   7.786   1.527
 4562TIP3   OH213642   7.180   3.309   4.603
 4562TIP3    H113643   7.188   3.229   4.552
 4562TIP3    H213644   7.145   3.280   4.687
 4563TIP3   OH213645   0.705   0.296   0.194
 4563TIP3    H113646   0.784   0.349   0.186
 4563TIP3    H213647   0.717   0.246   0.274
 4564TIP3   OH213648   1.697   2.649   5.904
 4564TIP3    H113649   1.781   2.605   5.914
 4564TIP3    H213650   1.700   2.722   5.966
 4565TIP3   OH213651   6.840   5.832   2.274
 4565TIP3    H113652   6.891   5.818   2.354
 4565TIP3    H213653   6.769   5.890   2.301
 4566TIP3   OH213654   4.823   5.085   2.651
 4566TIP3    H113655   4.787   5.174   2.643
 4566TIP3    H213656   4.871   5.086   2.734
 4567TIP3   OH213657   0.530   6.229   1.059
 4567TIP3    H113658   0.545   6.323   1.048
 4567TIP3    H213659   0.473   6.205   0.986
 4568TIP3   OH213660   3.015   6.085   4.856
 4568TIP3    H113661   2.948   6.021   4.830
 4568TIP3    H213662   2.973   6.135   4.926
 4569TIP3   OH213663   1.997   2.906   4.290
 4569TIP3    H113664   1.966   2.976   4.232
 4569TIP3    H213665   2.029   2.952   4.368
 4570TIP3   OH213666   7.722   0.017   6.464
 4570TIP3    H113667   7.771   0.028   6.546
 4570TIP3    H213668   7.649  -0.041   6.487
 4571TIP3   OH213669   2.536   2.322   4.667
 4571TIP3    H113670   2.502   2.328   4.578
 4571TIP3    H213671   2.614   2.267   4.659
 4572TIP3   OH213672   5.293   0.284   0.419
 4572TIP3    H113673   5.299   0.192   0.395
 4572TIP3    H213674   5.247   0.285   0.503
 4573TIP3   OH213675   6.987   3.299   0.925
 4573TIP3    H113676   6.980   3.351   0.845
 4573TIP3    H213677   6.896   3.277   0.947
 4574TIP3   OH213678   0.437   6.452   3.026
 4574TIP3    H113679   0.449   6.379   2.965
 4574TIP3    H213680   0.347   6.481   3.011
 4575TIP3   OH213681   3.517   7.559   0.968
 4575TIP3    H113682   3.585   7.626   0.960
 4575TIP3    H213683   3.535   7.497   0.897
 4576TIP3   OH213684   5.344   3.902   0.372
 4576TIP3    H113685   5.420   3.844   0.365
 4576TIP3    H213686   5.351   3.940   0.459
 4577TIP3   OH213687   3.414   3.502   0.177
 4577TIP3    H113688   3.382   3.412   0.164
 4577TIP3    H213689   3.484   3.493   0.242
 4578TIP3   OH213690   2.863   7.099   3.464
 4578TIP3    H113691   2.849   7.077   3.372
 4578TIP3    H213692   2.835   7.190   3.472
 4579TIP3   OH213693   1.977   3.838   4.805
 4579TIP3    H113694   1.971   3.918   4.752
 4579TIP3    H213695   1.942   3.864   4.891
 4580TIP3   OH213696   1.476   6.126   1.259
 4580TIP3    H113697   1.392   6.093   1.292
 4580TIP3    H213698   1.476   6.219   1.281
 4581TIP3   OH213699   3.400   3.223   5.960
 4581TIP3    H113700   3.454   3.173   6.022
 4581TIP3    H213701   3.407   3.313   5.990
 4582TIP3   OH213702   5.448   6.360   5.254
 4582TIP3    H113703   5.517   6.385   5.193
 4582TIP3    H213704   5.371   6.409   5.224
 4583TIP3   OH213705   1.465   1.077   4.390
 4583TIP3    H113706   1.423   0.993   4.406
 4583TIP3    H213707   1.557   1.062   4.415
 4584TIP3   OH213708   1.889   1.129   4.821
 4584TIP3    H113709   1.930   1.182   4.889
 4584TIP3    H213710   1.810   1.178   4.797
 4585TIP3   OH213711   6.813   3.357   6.565
 4585TIP3    H113712   6.807   3.327   6.474
 4585TIP3    H213713   6.877   3.298   6.605
 4586TIP3   OH213714   6.022   5.498   5.003
 4586TIP3    H113715   5.971   5.426   4.965
 4586TIP3    H213716   6.008   5.571   4.943
 4587TIP3   OH213717   0.902   0.725   4.753
 4587TIP3    H113718   0.828   0.779   4.726
 4587TIP3    H213719   0.971   0.745   4.690
 4588TIP3   OH213720   8.144   5.431   1.841
 4588TIP3    H113721   8.117   5.478   1.920
 4588TIP3    H213722   8.079   5.455   1.775
 4589TIP3   OH213723   0.800   3.286   6.644
 4589TIP3    H113724   0.896   3.284   6.640
 4589TIP3    H213725   0.780   3.350   6.711
 4590TIP3   OH213726   7.520   4.479   6.271
 4590TIP3    H113727   7.436   4.464   6.228
 4590TIP3    H213728   7.510   4.440   6.358
 4591TIP3   OH213729   4.893   1.256   1.157
 4591TIP3    H113730   4.970   1.204   1.134
 4591TIP3    H213731   4.859   1.215   1.237
 4592TIP3   OH213732   5.671   4.373   5.037
 4592TIP3    H113733   5.595   4.377   4.979
 4592TIP3    H213734   5.666   4.452   5.089
 4593TIP3   OH213735   0.250   5.422   4.726
 4593TIP3    H113736   0.166   5.446   4.689
 4593TIP3    H213737   0.230   5.393   4.815
 4594TIP3   OH213738   1.894   4.244   6.470
 4594TIP3    H113739   1.986   4.269   6.461
 4594TIP3    H213740   1.877   4.250   6.565
 4595TIP3   OH213741   2.497   7.339   0.175
 4595TIP3    H113742   2.477   7.274   0.108
 4595TIP3    H213743   2.414   7.351   0.222
 4596TIP3   OH213744   1.917   2.082   0.096
 4596TIP3    H113745   1.946   2.013   0.036
 4596TIP3    H213746   1.947   2.163   0.054
 4597TIP3   OH213747   0.903   5.857   2.857
 4597TIP3    H113748   0.924   5.829   2.768
 4597TIP3    H213749   0.971   5.922   2.877
 4598TIP3   OH213750   1.829   6.732   1.625
 4598TIP3    H113751   1.751   6.677   1.637
 4598TIP3    H213752   1.880   6.686   1.559
 4599TIP3   OH213753   2.063   2.741   4.629
 4599TIP3    H113754   2.078   2.832   4.605
 4599TIP3    H213755   2.151   2.702   4.630
 4600TIP3   OH213756   0.468   3.491   1.070
 4600TIP3    H113757   0.557   3.455   1.068
 4600TIP3    H213758   0.457   3.531   0.983
 4601TIP3   OH213759   2.636   2.983   3.066
 4601TIP3    H113760   2.640   3.043   2.992
 4601TIP3    H213761   2.726   2.951   3.076
 4602TIP3   OH213762   4.913   6.718   3.376
 4602TIP3    H113763   4.882   6.672   3.454
 4602TIP3    H213764   4.954   6.798   3.409
 4603TIP3   OH213765   5.323   4.411   6.190
 4603TIP3    H113766   5.336   4.366   6.274
 4603TIP3    H213767   5.376   4.490   6.197
 4604TIP3   OH213768   5.812   5.625   1.516
 4604TIP3    H113769   5.838   5.686   1.448
 4604TIP3    H213770   5.798   5.542   1.470
 4605TIP3   OH213771   3.510   2.544   2.644
 4605TIP3    H113772   3.539   2.492   2.719
 4605TIP3    H213773   3.588   2.592   2.617
 4606TIP3   OH213774   4.666   4.739   3.239
 4606TIP3    H113775   4.709   4.786   3.167
 4606TIP3    H213776   4.736   4.690   3.282
 4607TIP3   OH213777   0.837   6.405   6.597
 4607TIP3    H113778   0.927   6.388   6.625
 4607TIP3    H213779   0.840   6.398   6.502
 4608TIP3   OH213780   3.685   4.345   5.702
 4608TIP3    H113781   3.759   4.340   5.642
 4608TIP3    H213782   3.685   4.260   5.748
 4609TIP3   OH213783   7.803   2.378   3.333
 4609TIP3    H113784   7.755   2.425   3.265
 4609TIP3    H213785   7.891   2.415   3.330
 4610TIP3   OH213786   0.618   3.108   4.102
 4610TIP3    H113787   0.707   3.143   4.112
 4610TIP3    H213788   0.606   3.050   4.177
 4611TIP3   OH213789   7.115   0.537   5.935
 4611TIP3    H113790   7.052   0.467   5.954
 4611TIP3    H213791   7.199   0.492   5.925
 4612TIP3   OH213792   2.981   0.456   5.653
 4612TIP3    H113793   3.033   0.415   5.721
 4612TIP3    H213794   2.914   0.392   5.631
 4613TIP3   OH213795   4.572   5.265   5.863
 4613TIP3    H113796   4.518   5.337   5.832
 4613TIP3    H213797   4.552   5.193   5.803
 4614TIP3   OH213798   6.226   4.018   2.440
 4614TIP3    H113799   6.154   3.965   2.405
 4614TIP3    H213800   6.196   4.108   2.429
 4615TIP3   OH213801   6.856   1.202   1.722
 4615TIP3    H113802   6.846   1.117   1.678
 4615TIP3    H213803   6.872   1.179   1.813
 4616TIP3   OH213804   5.627   0.751   3.298
 4616TIP3    H113805   5.562   0.683   3.319
 4616TIP3    H213806   5.609   0.821   3.361
 4617TIP3   OH213807   1.172   7.727   5.242
 4617TIP3    H113808   1.208   7.799   5.294
 4617TIP3    H213809   1.077   7.735   5.253
 4618TIP3   OH213810   1.142   3.131   4.928
 4618TIP3    H113811   1.113   3.215   4.964
 4618TIP3    H213812   1.203   3.154   4.858
 4619TIP3   OH213813   7.836   2.954   4.933
 4619TIP3    H113814   7.771   3.025   4.924
 4619TIP3    H213815   7.920   2.999   4.942
 4620TIP3   OH213816   7.231   3.469   2.281
 4620TIP3    H113817   7.217   3.418   2.201
 4620TIP3    H213818   7.204   3.558   2.259
 4621TIP3   OH213819   0.897   2.926   2.565
 4621TIP3    H113820   0.840   2.859   2.529
 4621TIP3    H213821   0.924   2.978   2.489
 4622TIP3   OH213822   2.971   6.573   3.507
 4622TIP3    H113823   2.912   6.507   3.543
 4622TIP3    H213824   2.955   6.651   3.560
 4623TIP3   OH213825   8.023   5.940   4.406
 4623TIP3    H113826   7.944   5.941   4.352
 4623TIP3    H213827   8.039   6.033   4.425
 4624TIP3   OH213828   1.667   0.505   2.281
 4624TIP3    H113829   1.622   0.500   2.366
 4624TIP3    H213830   1.754   0.538   2.302
 4625TIP3   OH213831   8.175   2.207   6.351
 4625TIP3    H113832   8.240   2.166   6.294
 4625TIP3    H213833   8.222   2.222   6.433
 4626TIP3   OH213834   3.511   6.209   6.740
 4626TIP3    H113835   3.471   6.154   6.673
 4626TIP3    H213836   3.602   6.179   6.744
 4627TIP3   OH213837   3.423   7.702   2.326
 4627TIP3    H113838   3.351   7.765   2.328
 4627TIP3    H213839   3.429   7.670   2.416
 4628TIP3   OH213840   5.661   6.820   2.044
 4628TIP3    H113841   5.609   6.865   2.111
 4628TIP3    H213842   5.703   6.891   1.995
 4629TIP3   OH213843   2.546   0.788   6.206
 4629TIP3    H113844   2.461   0.808   6.245
 4629TIP3    H213845   2.564   0.698   6.235
 4630TIP3   OH213846   3.683   2.524   0.135
 4630TIP3    H113847   3.653   2.596   0.080
 4630TIP3    H213848   3.697   2.564   0.221
 4631TIP3   OH213849   3.588   3.082   6.136
 4631TIP3    H113850   3.600   2.987   6.126
 4631TIP3    H213851   3.677   3.116   6.143
 4632TIP3   OH213852   1.920   5.106   4.076
 4632TIP3    H113853   1.957   5.100   4.164
 4632TIP3    H213854   1.992   5.142   4.023
 4633TIP3   OH213855   4.169   7.771   4.518
 4633TIP3    H113856   4.198   7.687   4.480
 4633TIP3    H213857   4.162   7.830   4.443
 4634TIP3   OH213858   5.470   2.568   3.740
 4634TIP3    H113859   5.402   2.590   3.805
 4634TIP3    H213860   5.424   2.518   3.673
 4635TIP3   OH213861   3.218   5.463   2.965
 4635TIP3    H113862   3.187   5.403   3.032
 4635TIP3    H213863   3.296   5.504   3.003
 4636TIP3   OH213864   8.293   3.765   1.456
 4636TIP3    H113865   8.266   3.855   1.474
 4636TIP3    H213866   8.276   3.752   1.363
 4637TIP3   OH213867   1.756   6.192   3.481
 4637TIP3    H113868   1.790   6.108   3.513
 4637TIP3    H213869   1.800   6.258   3.534
 4638TIP3   OH213870   4.192   1.296   5.653
 4638TIP3    H113871   4.285   1.318   5.660
 4638TIP3    H213872   4.156   1.362   5.594
 4639TIP3   OH213873   7.959   0.476   5.267
 4639TIP3    H113874   7.909   0.521   5.334
 4639TIP3    H213875   7.898   0.411   5.232
 4640TIP3   OH213876   3.642   4.326   3.420
 4640TIP3    H113877   3.663   4.299   3.509
 4640TIP3    H213878   3.569   4.269   3.394
 4641TIP3   OH213879   3.228   1.346   4.347
 4641TIP3    H113880   3.229   1.250   4.352
 4641TIP3    H213881   3.225   1.375   4.438
 4642TIP3   OH213882   4.172   5.624   1.058
 4642TIP3    H113883   4.188   5.552   1.119
 4642TIP3    H213884   4.248   5.680   1.067
 4643TIP3   OH213885   7.731   3.981   2.301
 4643TIP3    H113886   7.691   4.016   2.222
 4643TIP3    H213887   7.820   4.018   2.302
 4644TIP3   OH213888   0.105   5.454   4.364
 4644TIP3    H113889   0.182   5.507   4.342
 4644TIP3    H213890   0.032   5.499   4.322
 4645TIP3   OH213891   3.410   1.056   1.933
 4645TIP3    H113892   3.425   1.036   2.026
 4645TIP3    H213893   3.320   1.029   1.917
 4646TIP3   OH213894   3.184   1.857   0.094
 4646TIP3    H113895   3.169   1.948   0.071
 4646TIP3    H213896   3.101   1.828   0.133
 4647TIP3   OH213897   4.682   3.312   6.609
 4647TIP3    H113898   4.777   3.312   6.597
 4647TIP3    H213899   4.670   3.300   6.703
 4648TIP3   OH213900   1.304   7.752   6.438
 4648TIP3    H113901   1.354   7.709   6.507
 4648TIP3    H213902   1.218   7.710   6.441
 4649TIP3   OH213903   1.514   6.322   0.242
 4649TIP3    H113904   1.495   6.299   0.151
 4649TIP3    H213905   1.597   6.369   0.238
 4650TIP3   OH213906   0.703   7.142   4.968
 4650TIP3    H113907   0.742   7.175   4.887
 4650TIP3    H213908   0.621   7.191   4.978
 4651TIP3   OH213909   2.538   2.534   6.633
 4651TIP3    H113910   2.456   2.521   6.681
 4651TIP3    H213911   2.511   2.572   6.550
 4652TIP3   OH213912   0.425   5.897   5.078
 4652TIP3    H113913   0.461   5.963   5.017
 4652TIP3    H213914   0.333   5.891   5.055
 4653TIP3   OH213915   6.658   0.508   4.100
 4653TIP3    H113916   6.630   0.571   4.033
 4653TIP3    H213917   6.751   0.526   4.112
 4654TIP3   OH213918   5.622   7.602   2.883
 4654TIP3    H113919   5.603   7.633   2.794
 4654TIP3    H213920   5.544   7.626   2.934
 4655TIP3   OH213921   4.406   7.811   6.397
 4655TIP3    H113922   4.454   7.736   6.360
 4655TIP3    H213923   4.454   7.833   6.477
 4656TIP3   OH213924   0.037   5.794   5.470
 4656TIP3    H113925   0.052   5.703   5.445
 4656TIP3    H213926   0.054   5.844   5.390
 4657TIP3   OH213927   5.344   2.857   0.816
 4657TIP3    H113928   5.410   2.898   0.760
 4657TIP3    H213929   5.261   2.876   0.774
 4658TIP3   OH213930   2.750   4.719   1.677
 4658TIP3    H113931   2.821   4.662   1.651
 4658TIP3    H213932   2.670   4.672   1.652
 4659TIP3   OH213933   4.292   1.705   6.078
 4659TIP3    H113934   4.209   1.739   6.110
 4659TIP3    H213935   4.294   1.726   5.985
 4660TIP3   OH213936   6.299   5.554   5.877
 4660TIP3    H113937   6.215   5.546   5.831
 4660TIP3    H213938   6.285   5.624   5.940
 4661TIP3   OH213939   3.862   6.851   3.130
 4661TIP3    H113940   3.842   6.858   3.036
 4661TIP3    H213941   3.865   6.942   3.160
 4662TIP3   OH213942   8.109   7.329   3.568
 4662TIP3    H113943   8.015   7.340   3.584
 4662TIP3    H213944   8.151   7.397   3.620
 4663TIP3   OH213945   2.873   6.944   0.349
 4663TIP3    H113946   2.917   6.963   0.432
 4663TIP3    H213947   2.942   6.952   0.283
 4664TIP3   OH213948   6.285   4.502   5.855
 4664TIP3    H113949   6.194   4.496   5.826
 4664TIP3    H213950   6.286   4.458   5.940
 4665TIP3   OH213951   7.352   4.311   1.739
 4665TIP3    H113952   7.265   4.311   1.779
 4665TIP3    H213953   7.353   4.231   1.686
 4666TIP3   OH213954   6.769   1.459   4.116
 4666TIP3    H113955   6.781   1.369   4.147
 4666TIP3    H213956   6.701   1.495   4.173
 4667TIP3   OH213957   2.702   2.146   4.110
 4667TIP3    H113958   2.746   2.074   4.064
 4667TIP3    H213959   2.682   2.110   4.196
 4668TIP3   OH213960   7.760   1.350   2.489
 4668TIP3    H113961   7.694   1.397   2.439
 4668TIP3    H213962   7.712   1.312   2.563
 4669TIP3   OH213963   3.309   1.919   2.721
 4669TIP3    H113964   3.339   1.980   2.653
 4669TIP3    H213965   3.300   1.973   2.799
 4670TIP3   OH213966   1.840   7.720   4.760
 4670TIP3    H113967   1.776   7.695   4.827
 4670TIP3    H213968   1.806   7.681   4.680
 4671TIP3   OH213969   1.546   2.561   4.291
 4671TIP3    H113970   1.570   2.578   4.200
 4671TIP3    H213971   1.566   2.644   4.336
 4672TIP3   OH213972   4.821   4.965   0.845
 4672TIP3    H113973   4.807   4.901   0.775
 4672TIP3    H213974   4.844   4.912   0.921
 4673TIP3   OH213975   6.116   7.264   3.856
 4673TIP3    H113976   6.198   7.288   3.898
 4673TIP3    H213977   6.058   7.239   3.928
 4674TIP3   OH213978   0.316   4.804   2.895
 4674TIP3    H113979   0.310   4.798   2.800
 4674TIP3    H213980   0.393   4.859   2.911
 4675TIP3   OH213981   3.947   7.367   0.141
 4675TIP3    H113982   3.857   7.337   0.136
 4675TIP3    H213983   3.950   7.444   0.085
 4676TIP3   OH213984   4.163   5.868   5.051
 4676TIP3    H113985   4.149   5.775   5.034
 4676TIP3    H213986   4.085   5.897   5.098
 4677TIP3   OH213987   1.822   5.602   6.735
 4677TIP3    H113988   1.737   5.635   6.765
 4677TIP3    H213989   1.847   5.662   6.665
 4678TIP3   OH213990   4.741   5.352   5.477
 4678TIP3    H113991   4.728   5.417   5.546
 4678TIP3    H213992   4.655   5.311   5.467
 4679TIP3   OH213993   1.183   7.561   0.311
 4679TIP3    H113994   1.091   7.584   0.294
 4679TIP3    H213995   1.179   7.474   0.351
 4680TIP3   OH213996   6.652   5.035   5.927
 4680TIP3    H113997   6.723   4.986   5.886
 4680TIP3    H213998   6.619   4.976   5.996
 4681TIP3   OH213999   3.693   0.129   4.744
 4681TIP3    H114000   3.612   0.177   4.725
 4681TIP3    H214001   3.667   0.064   4.810
 4682TIP3   OH214002   1.000   1.600   6.468
 4682TIP3    H114003   1.080   1.571   6.424
 4682TIP3    H214004   0.985   1.534   6.536
 4683TIP3   OH214005   1.049   1.431   2.603
 4683TIP3    H114006   1.027   1.519   2.634
 4683TIP3    H214007   1.143   1.424   2.615
 4684TIP3   OH214008   6.213   1.441   0.610
 4684TIP3    H114009   6.127   1.474   0.637
 4684TIP3    H214010   6.235   1.376   0.676
 4685TIP3   OH214011   2.082   6.886   0.218
 4685TIP3    H114012   2.122   6.899   0.132
 4685TIP3    H214013   2.008   6.947   0.219
 4686TIP3   OH214014   0.575   6.458   5.256
 4686TIP3    H114015   0.642   6.461   5.188
 4686TIP3    H214016   0.544   6.367   5.255
 4687TIP3   OH214017   1.085   7.488   0.613
 4687TIP3    H114018   1.032   7.550   0.563
 4687TIP3    H214019   1.130   7.542   0.678
 4688TIP3   OH214020   1.706   0.583   0.274
 4688TIP3    H114021   1.631   0.533   0.305
 4688TIP3    H214022   1.750   0.614   0.353
 4689TIP3   OH214023   5.084   1.067   3.703
 4689TIP3    H114024   5.072   1.069   3.798
 4689TIP3    H214025   5.106   1.157   3.680
 4690TIP3   OH214026   7.514   4.737   0.651
 4690TIP3    H114027   7.428   4.696   0.647
 4690TIP3    H214028   7.528   4.771   0.562
 4691TIP3   OH214029   4.090   3.088   5.710
 4691TIP3    H114030   4.113   3.141   5.786
 4691TIP3    H214031   4.132   3.004   5.726
 4692TIP3   OH214032   2.083   0.512   4.815
 4692TIP3    H114033   2.175   0.512   4.842
 4692TIP3    H214034   2.035   0.481   4.892
 4693TIP3   OH214035   0.513   5.860   1.271
 4693TIP3    H114036   0.587   5.914   1.244
 4693TIP3    H214037   0.477   5.905   1.347
 4694TIP3   OH214038   5.843   2.759   2.917
 4694TIP3    H114039   5.868   2.711   2.996
 4694TIP3    H214040   5.925   2.771   2.869
 4695TIP3   OH214041   1.490   3.973   3.788
 4695TIP3    H114042   1.524   3.919   3.860
 4695TIP3    H214043   1.397   3.950   3.783
 4696TIP3   OH214044   3.213   5.710   1.410
 4696TIP3    H114045   3.206   5.804   1.423
 4696TIP3    H214046   3.239   5.700   1.318
 4697TIP3   OH214047   2.071   5.256   1.050
 4697TIP3    H114048   2.075   5.347   1.079
 4697TIP3    H214049   2.085   5.205   1.130
 4698TIP3   OH214050   5.620   0.477   6.135
 4698TIP3    H114051   5.530   0.460   6.160
 4698TIP3    H214052   5.652   0.393   6.102
 4699TIP3   OH214053   6.642   5.342   1.764
 4699TIP3    H114054   6.659   5.429   1.800
 4699TIP3    H214055   6.583   5.358   1.690
 4700TIP3   OH214056   7.405   1.907   6.694
 4700TIP3    H114057   7.461   1.874   6.624
 4700TIP3    H214058   7.461   1.970   6.741
 4701TIP3   OH214059   6.097   5.395   3.928
 4701TIP3    H114060   6.003   5.395   3.912
 4701TIP3    H214061   6.120   5.303   3.936
 4702TIP3   OH214062   5.234   5.256   4.640
 4702TIP3    H114063   5.176   5.206   4.697
 4702TIP3    H214064   5.289   5.190   4.598
 4703TIP3   OH214065   2.602   3.034   6.774
 4703TIP3    H114066   2.641   3.000   6.854
 4703TIP3    H214067   2.676   3.061   6.720
 4704TIP3   OH214068   5.955   3.001   5.794
 4704TIP3    H114069   5.865   3.034   5.802
 4704TIP3    H214070   5.961   2.969   5.704
 4705TIP3   OH214071   4.499   2.795   0.459
 4705TIP3    H114072   4.584   2.827   0.488
 4705TIP3    H214073   4.442   2.872   0.462
 4706TIP3   OH214074   1.508   4.471   3.956
 4706TIP3    H114075   1.440   4.501   4.016
 4706TIP3    H214076   1.501   4.376   3.957
 4707TIP3   OH214077   6.412   0.000   5.964
 4707TIP3    H114078   6.466   0.042   5.898
 4707TIP3    H214079   6.330   0.049   5.962
 4708TIP3   OH214080   5.715   1.565   6.605
 4708TIP3    H114081   5.716   1.656   6.634
 4708TIP3    H214082   5.654   1.564   6.531
 4709TIP3   OH214083   5.314   1.683   4.822
 4709TIP3    H114084   5.395   1.633   4.805
 4709TIP3    H214085   5.249   1.616   4.842
 4710TIP3   OH214086   2.883   3.963   0.847
 4710TIP3    H114087   2.903   3.979   0.755
 4710TIP3    H214088   2.933   4.030   0.894
 4711TIP3   OH214089   8.215   1.904   2.159
 4711TIP3    H114090   8.139   1.852   2.183
 4711TIP3    H214091   8.189   1.947   2.077
 4712TIP3   OH214092   1.239   5.883   6.716
 4712TIP3    H114093   1.159   5.924   6.750
 4712TIP3    H214094   1.279   5.842   6.792
 4713TIP3   OH214095   0.804   5.248   4.541
 4713TIP3    H114096   0.777   5.236   4.450
 4713TIP3    H214097   0.837   5.163   4.568
 4714TIP3   OH214098   7.910   0.715   1.470
 4714TIP3    H114099   7.936   0.655   1.400
 4714TIP3    H214100   7.869   0.788   1.425
 4715TIP3   OH214101   7.246   4.586   4.812
 4715TIP3    H114102   7.319   4.527   4.832
 4715TIP3    H214103   7.263   4.614   4.722
 4716TIP3   OH214104   5.308   2.581   0.776
 4716TIP3    H114105   5.364   2.659   0.767
 4716TIP3    H214106   5.238   2.595   0.713
 4717TIP3   OH214107   7.390   2.560   1.260
 4717TIP3    H114108   7.308   2.555   1.210
 4717TIP3    H214109   7.393   2.478   1.309
 4718TIP3   OH214110   2.995   7.087   6.620
 4718TIP3    H114111   2.920   7.119   6.569
 4718TIP3    H214112   2.980   7.122   6.708
 4719TIP3   OH214113   3.395   2.176   4.375
 4719TIP3    H114114   3.329   2.241   4.351
 4719TIP3    H214115   3.390   2.110   4.305
 4720TIP3   OH214116   1.193   7.065   2.052
 4720TIP3    H114117   1.141   6.985   2.053
 4720TIP3    H214118   1.140   7.128   2.004
 4721TIP3   OH214119   0.176   1.646   4.840
 4721TIP3    H114120   0.166   1.609   4.928
 4721TIP3    H214121   0.161   1.740   4.852
 4722TIP3   OH214122   0.436   3.543   2.538
 4722TIP3    H114123   0.527   3.572   2.549
 4722TIP3    H214124   0.412   3.576   2.451
 4723TIP3   OH214125   5.872   5.758   5.802
 4723TIP3    H114126   5.781   5.762   5.774
 4723TIP3    H214127   5.882   5.832   5.861
 4724TIP3   OH214128   8.033   6.924   5.121
 4724TIP3    H114129   8.094   6.878   5.063
 4724TIP3    H214130   7.986   6.985   5.064
 4725TIP3   OH214131   3.185   6.600   2.049
 4725TIP3    H114132   3.281   6.591   2.050
 4725TIP3    H214133   3.170   6.687   2.011
 4726TIP3   OH214134   3.184   4.904   0.102
 4726TIP3    H114135   3.180   4.949   0.017
 4726TIP3    H214136   3.126   4.954   0.159
 4727TIP3   OH214137   7.101   7.099   6.361
 4727TIP3    H114138   7.030   7.066   6.416
 4727TIP3    H214139   7.136   7.021   6.318
 4728TIP3   OH214140   1.925   5.744   5.995
 4728TIP3    H114141   1.983   5.753   6.070
 4728TIP3    H214142   1.981   5.711   5.925
 4729TIP3   OH214143   6.351   2.079   4.190
 4729TIP3    H114144   6.302   1.998   4.179
 4729TIP3    H214145   6.428   2.054   4.241
 4730TIP3   OH214146   6.196   7.727   0.526
 4730TIP3    H114147   6.201   7.638   0.558
 4730TIP3    H214148   6.186   7.718   0.431
 4731TIP3   OH214149   5.542   0.337   4.839
 4731TIP3    H114150   5.635   0.315   4.850
 4731TIP3    H214151   5.504   0.261   4.796
 4732TIP3   OH214152   5.472   1.609   0.177
 4732TIP3    H114153   5.417   1.548   0.126
 4732TIP3    H214154   5.456   1.694   0.137
 4733TIP3   OH214155   6.305   2.849   6.056
 4733TIP3    H114156   6.345   2.821   5.973
 4733TIP3    H214157   6.268   2.935   6.037
 4734TIP3   OH214158   0.043   3.127   2.434
 4734TIP3    H114159   0.012   3.205   2.481
 4734TIP3    H214160   0.008   3.053   2.484
 4735TIP3   OH214161   2.371   4.561   6.268
 4735TIP3    H114162   2.320   4.606   6.201
 4735TIP3    H214163   2.397   4.479   6.226
 4736TIP3   OH214164   1.206   6.572   2.910
 4736TIP3    H114165   1.134   6.564   2.972
 4736TIP3    H214166   1.189   6.503   2.845
 4737TIP3   OH214167   8.029   1.688   5.924
 4737TIP3    H114168   7.945   1.700   5.879
 4737TIP3    H214169   8.089   1.747   5.878
 4738TIP3   OH214170   0.269   2.982   2.326
 4738TIP3    H114171   0.189   2.999   2.376
 4738TIP3    H214172   0.240   2.984   2.234
 4739TIP3   OH214173   2.922   1.313   5.132
 4739TIP3    H114174   2.991   1.345   5.190
 4739TIP3    H214175   2.878   1.244   5.183
 4740TIP3   OH214176   7.941   0.428   3.588
 4740TIP3    H114177   7.884   0.482   3.643
 4740TIP3    H214178   7.949   0.478   3.506
 4741TIP3   OH214179   0.676   5.256   2.514
 4741TIP3    H114180   0.615   5.189   2.486
 4741TIP3    H214181   0.629   5.306   2.581
 4742TIP3   OH214182   8.051   0.095   2.407
 4742TIP3    H114183   8.012   0.081   2.321
 4742TIP3    H214184   8.052   0.008   2.448
 4743TIP3   OH214185   1.309   0.898   4.715
 4743TIP3    H114186   1.305   0.992   4.731
 4743TIP3    H214187   1.325   0.860   4.802
 4744TIP3   OH214188   5.719   3.341   5.547
 4744TIP3    H114189   5.788   3.373   5.605
 4744TIP3    H214190   5.687   3.418   5.501
 4745TIP3   OH214191   2.643   4.416   0.189
 4745TIP3    H114192   2.674   4.385   0.274
 4745TIP3    H214193   2.724   4.435   0.140
 4746TIP3   OH214194   4.078   4.601   3.620
 4746TIP3    H114195   4.151   4.556   3.577
 4746TIP3    H214196   4.069   4.557   3.705
 4747TIP3   OH214197   3.154   1.897   5.247
 4747TIP3    H114198   3.097   1.900   5.325
 4747TIP3    H214199   3.239   1.927   5.279
 4748TIP3   OH214200   6.962   1.205   5.601
 4748TIP3    H114201   6.966   1.175   5.692
 4748TIP3    H214202   7.032   1.271   5.595
 4749TIP3   OH214203   1.210   3.416   5.925
 4749TIP3    H114204   1.278   3.392   5.987
 4749TIP3    H214205   1.201   3.511   5.934
 4750TIP3   OH214206   4.908   3.662   2.840
 4750TIP3    H114207   4.825   3.682   2.797
 4750TIP3    H214208   4.892   3.677   2.933
 4751TIP3   OH214209   7.131   3.811   5.293
 4751TIP3    H114210   7.178   3.765   5.224
 4751TIP3    H214211   7.134   3.753   5.369
 4752TIP3   OH214212   7.843   5.617   6.589
 4752TIP3    H114213   7.754   5.643   6.614
 4752TIP3    H214214   7.892   5.700   6.587
 4753TIP3   OH214215   4.767   0.567   2.857
 4753TIP3    H114216   4.723   0.517   2.788
 4753TIP3    H214217   4.838   0.612   2.812
 4754TIP3   OH214218   3.848   6.047   2.726
 4754TIP3    H114219   3.858   6.072   2.818
 4754TIP3    H214220   3.835   5.952   2.728
 4755TIP3   OH214221   4.149   1.055   3.863
 4755TIP3    H114222   4.236   1.051   3.901
 4755TIP3    H214223   4.098   0.991   3.912
 4756TIP3   OH214224   4.212   3.250   2.553
 4756TIP3    H114225   4.119   3.251   2.529
 4756TIP3    H214226   4.251   3.321   2.501
 4757TIP3   OH214227   0.115   4.377   0.365
 4757TIP3    H114228   0.077   4.298   0.402
 4757TIP3    H214229   0.044   4.442   0.370
 4758TIP3   OH214230   2.383   2.862   2.509
 4758TIP3    H114231   2.476   2.870   2.528
 4758TIP3    H214232   2.344   2.940   2.549
 4759TIP3   OH214233   6.755   3.582   5.183
 4759TIP3    H114234   6.820   3.526   5.225
 4759TIP3    H214235   6.784   3.588   5.092
 4760TIP3   OH214236   1.771   5.101   1.640
 4760TIP3    H114237   1.788   5.195   1.636
 4760TIP3    H214238   1.744   5.086   1.731
 4761TIP3   OH214239   6.781   5.193   0.203
 4761TIP3    H114240   6.802   5.276   0.248
 4761TIP3    H214241   6.704   5.213   0.150
 4762TIP3   OH214242   3.476   6.718   5.157
 4762TIP3    H114243   3.439   6.631   5.144
 4762TIP3    H214244   3.424   6.756   5.229
 4763TIP3   OH214245   5.724   1.803   1.346
 4763TIP3    H114246   5.812   1.817   1.383
 4763TIP3    H214247   5.730   1.717   1.304
 4764TIP3   OH214248   4.781   0.187   3.299
 4764TIP3    H114249   4.872   0.199   3.329
 4764TIP3    H214250   4.746   0.120   3.357
 4765TIP3   OH214251   2.398   4.394   4.504
 4765TIP3    H114252   2.425   4.377   4.414
 4765TIP3    H214253   2.399   4.308   4.546
 4766TIP3   OH214254   5.179   5.558   6.095
 4766TIP3    H114255   5.275   5.560   6.093
 4766TIP3    H214256   5.158   5.465   6.092
 4767TIP3   OH214257   4.501   5.654   6.661
 4767TIP3    H114258   4.528   5.565   6.679
 4767TIP3    H214259   4.462   5.685   6.743
 4768TIP3   OH214260   5.541   1.275   0.510
 4768TIP3    H114261   5.498   1.314   0.585
 4768TIP3    H214262   5.632   1.263   0.538
 4769TIP3   OH214263   2.836   3.103   6.648
 4769TIP3    H114264   2.895   3.161   6.696
 4769TIP3    H214265   2.827   3.144   6.562
 4770TIP3   OH214266   6.131   1.685   0.874
 4770TIP3    H114267   6.091   1.604   0.842
 4770TIP3    H214268   6.161   1.664   0.962
 4771TIP3   OH214269   5.113   4.675   0.872
 4771TIP3    H114270   5.171   4.621   0.818
 4771TIP3    H214271   5.161   4.757   0.884
 4772TIP3   OH214272   7.115   4.815   4.609
 4772TIP3    H114273   7.059   4.892   4.622
 4772TIP3    H214274   7.053   4.742   4.599
 4773TIP3   OH214275   3.643   6.478   0.604
 4773TIP3    H114276   3.639   6.383   0.609
 4773TIP3    H214277   3.609   6.499   0.517
 4774TIP3   OH214278   3.468   5.041   1.594
 4774TIP3    H114279   3.500   4.977   1.657
 4774TIP3    H214280   3.373   5.034   1.598
 4775TIP3   OH214281   3.158   7.272   4.895
 4775TIP3    H114282   3.072   7.242   4.863
 4775TIP3    H214283   3.149   7.273   4.990
 4776TIP3   OH214284   6.524   2.506   5.034
 4776TIP3    H114285   6.559   2.554   5.109
 4776TIP3    H214286   6.601   2.486   4.980
 4777TIP3   OH214287   3.147   6.687   1.436
 4777TIP3    H114288   3.097   6.608   1.456
 4777TIP3    H214289   3.174   6.677   1.345
 4778TIP3   OH214290   2.806   7.504   6.361
 4778TIP3    H114291   2.796   7.541   6.273
 4778TIP3    H214292   2.812   7.581   6.419
 4779TIP3   OH214293   2.749   3.077   5.928
 4779TIP3    H114294   2.702   3.038   6.002
 4779TIP3    H214295   2.685   3.132   5.884
 4780TIP3   OH214296   1.655   2.147   1.901
 4780TIP3    H114297   1.748   2.165   1.912
 4780TIP3    H214298   1.642   2.059   1.937
 4781TIP3   OH214299   5.870   3.444   6.496
 4781TIP3    H114300   5.791   3.436   6.444
 4781TIP3    H214301   5.906   3.355   6.500
 4782TIP3   OH214302   2.745   6.256   5.988
 4782TIP3    H114303   2.797   6.272   6.067
 4782TIP3    H214304   2.803   6.205   5.931
 4783TIP3   OH214305   7.444   2.469   2.182
 4783TIP3    H114306   7.447   2.563   2.169
 4783TIP3    H214307   7.535   2.443   2.195
 4784TIP3   OH214308   2.173   4.687   3.337
 4784TIP3    H114309   2.087   4.705   3.375
 4784TIP3    H214310   2.193   4.598   3.365
 4785TIP3   OH214311   1.102   7.586   5.608
 4785TIP3    H114312   1.171   7.563   5.547
 4785TIP3    H214313   1.122   7.676   5.634
 4786TIP3   OH214314   4.075   7.665   1.232
 4786TIP3    H114315   4.043   7.709   1.311
 4786TIP3    H214316   4.151   7.717   1.204
 4787TIP3   OH214317   4.458   5.801   4.121
 4787TIP3    H114318   4.387   5.786   4.058
 4787TIP3    H214319   4.463   5.719   4.170
 4788TIP3   OH214320   2.192   3.142   0.289
 4788TIP3    H114321   2.232   3.058   0.266
 4788TIP3    H214322   2.109   3.143   0.242
 4789TIP3   OH214323   5.845   6.194   1.991
 4789TIP3    H114324   5.841   6.123   1.926
 4789TIP3    H214325   5.936   6.194   2.020
 4790TIP3   OH214326   2.460   4.159   2.649
 4790TIP3    H114327   2.449   4.069   2.682
 4790TIP3    H214328   2.539   4.154   2.595
 4791TIP3   OH214329   7.726   0.926   2.189
 4791TIP3    H114330   7.708   0.911   2.096
 4791TIP3    H214331   7.821   0.924   2.197
 4792TIP3   OH214332   5.223   2.428   6.182
 4792TIP3    H114333   5.254   2.361   6.243
 4792TIP3    H214334   5.156   2.476   6.231
 4793TIP3   OH214335   8.191   6.209   5.877
 4793TIP3    H114336   8.268   6.153   5.868
 4793TIP3    H214337   8.117   6.149   5.878
 4794TIP3   OH214338   0.516   6.805   1.571
 4794TIP3    H114339   0.530   6.711   1.571
 4794TIP3    H214340   0.426   6.816   1.538
 4795TIP3   OH214341   1.225   5.108   0.020
 4795TIP3    H114342   1.182   5.071  -0.057
 4795TIP3    H214343   1.319   5.101   0.001
 4796TIP3   OH214344   7.148   5.117   3.115
 4796TIP3    H114345   7.236   5.080   3.124
 4796TIP3    H214346   7.154   5.203   3.157
 4797TIP3   OH214347   7.137   6.488   2.826
 4797TIP3    H114348   7.212   6.506   2.769
 4797TIP3    H214349   7.154   6.540   2.905
 4798TIP3   OH214350   2.039   1.761   2.405
 4798TIP3    H114351   1.984   1.804   2.339
 4798TIP3    H214352   2.060   1.830   2.468
 4799TIP3   OH214353   3.796   0.852   0.238
 4799TIP3    H114354   3.724   0.881   0.182
 4799TIP3    H214355   3.842   0.786   0.185
 4800TIP3   OH214356   1.061   0.073   2.152
 4800TIP3    H114357   1.010   0.125   2.090
 4800TIP3    H214358   1.030   0.101   2.238
 4801TIP3   OH214359   4.313   6.636   1.076
 4801TIP3    H114360   4.272   6.552   1.096
 4801TIP3    H214361   4.313   6.683   1.160
 4802TIP3   OH214362   3.192   3.219   2.888
 4802TIP3    H114363   3.164   3.224   2.980
 4802TIP3    H214364   3.112   3.196   2.840
 4803TIP3   OH214365   2.746   2.997   0.405
 4803TIP3    H114366   2.827   2.960   0.440
 4803TIP3    H214367   2.698   2.922   0.371
 4804TIP3   OH214368   3.661   3.933   3.066
 4804TIP3    H114369   3.757   3.938   3.067
 4804TIP3    H214370   3.633   4.024   3.059
 4805TIP3   OH214371   7.976   6.200   6.766
 4805TIP3    H114372   7.943   6.110   6.762
 4805TIP3    H214373   7.979   6.221   6.859
 4806TIP3   OH214374   1.405   4.369   5.596
 4806TIP3    H114375   1.471   4.363   5.665
 4806TIP3    H214376   1.323   4.341   5.638
 4807TIP3   OH214377   5.873   0.576   2.585
 4807TIP3    H114378   5.794   0.523   2.592
 4807TIP3    H214379   5.869   0.636   2.659
 4808TIP3   OH214380   5.507   0.430   3.844
 4808TIP3    H114381   5.469   0.510   3.809
 4808TIP3    H214382   5.457   0.359   3.804
 4809TIP3   OH214383   6.691   6.184   0.749
 4809TIP3    H114384   6.708   6.233   0.669
 4809TIP3    H214385   6.627   6.117   0.723
 4810TIP3   OH214386   6.829   0.362   0.477
 4810TIP3    H114387   6.800   0.288   0.423
 4810TIP3    H214388   6.760   0.427   0.468
 4811TIP3   OH214389   1.494   6.253   5.900
 4811TIP3    H114390   1.541   6.186   5.852
 4811TIP3    H214391   1.458   6.310   5.832
 4812TIP3   OH214392   5.573   2.192   3.446
 4812TIP3    H114393   5.630   2.128   3.402
 4812TIP3    H214394   5.596   2.184   3.539
 4813TIP3   OH214395   7.541   6.673   2.031
 4813TIP3    H114396   7.446   6.657   2.031
 4813TIP3    H214397   7.577   6.600   1.981
 4814TIP3   OH214398   6.125   6.554   3.150
 4814TIP3    H114399   6.198   6.591   3.100
 4814TIP3    H214400   6.113   6.615   3.223
 4815TIP3   OH214401   8.234   2.919   6.503
 4815TIP3    H114402   8.195   2.884   6.583
 4815TIP3    H214403   8.328   2.924   6.522
 4816TIP3   OH214404   3.899   0.440   0.745
 4816TIP3    H114405   3.845   0.519   0.744
 4816TIP3    H214406   3.844   0.373   0.705
 4817TIP3   OH214407   2.595   1.663   0.475
 4817TIP3    H114408   2.557   1.633   0.393
 4817TIP3    H214409   2.597   1.759   0.468
 4818TIP3   OH214410   1.863   1.674   1.989
 4818TIP3    H114411   1.928   1.605   2.006
 4818TIP3    H214412   1.813   1.642   1.915
 4819TIP3   OH214413   5.745   4.632   6.720
 4819TIP3    H114414   5.818   4.693   6.714
 4819TIP3    H214415   5.784   4.551   6.751
 4820TIP3   OH214416   7.066   6.853   0.932
 4820TIP3    H114417   7.099   6.873   1.019
 4820TIP3    H214418   7.141   6.816   0.886
 4821TIP3   OH214419   6.374   4.191   4.332
 4821TIP3    H114420   6.438   4.167   4.399
 4821TIP3    H214421   6.386   4.285   4.320
 4822TIP3   OH214422   6.185   2.502   0.121
 4822TIP3    H114423   6.164   2.493   0.214
 4822TIP3    H214424   6.269   2.549   0.121
 4823TIP3   OH214425   6.695   1.742   5.048
 4823TIP3    H114426   6.647   1.702   4.976
 4823TIP3    H214427   6.632   1.803   5.087
 4824TIP3   OH214428   1.443   6.598   0.350
 4824TIP3    H114429   1.453   6.503   0.341
 4824TIP3    H214430   1.351   6.614   0.328
 4825TIP3   OH214431   2.058   4.589   1.525
 4825TIP3    H114432   2.028   4.679   1.518
 4825TIP3    H214433   1.989   4.537   1.483
 4826TIP3   OH214434   5.391   7.175   3.798
 4826TIP3    H114435   5.352   7.222   3.725
 4826TIP3    H214436   5.317   7.132   3.841
 4827TIP3   OH214437   2.745   6.823   2.745
 4827TIP3    H114438   2.677   6.880   2.781
 4827TIP3    H214439   2.807   6.811   2.817
 4828TIP3   OH214440   0.289   3.512   3.770
 4828TIP3    H114441   0.264   3.597   3.806
 4828TIP3    H214442   0.382   3.520   3.751
 4829TIP3   OH214443   5.396   4.164   4.753
 4829TIP3    H114444   5.372   4.129   4.839
 4829TIP3    H214445   5.315   4.164   4.703
 4830TIP3   OH214446   7.569   7.233   4.320
 4830TIP3    H114447   7.488   7.257   4.365
 4830TIP3    H214448   7.543   7.220   4.229
 4831TIP3   OH214449   5.687   0.100   3.735
 4831TIP3    H114450   5.658   0.023   3.783
 4831TIP3    H214451   5.778   0.114   3.763
 4832TIP3   OH214452   5.023   4.066   5.495
 4832TIP3    H114453   4.990   4.138   5.440
 4832TIP3    H214454   4.958   4.059   5.565
 4833TIP3   OH214455   1.823   1.726   1.080
 4833TIP3    H114456   1.789   1.735   1.169
 4833TIP3    H214457   1.915   1.754   1.087
 4834TIP3   OH214458   6.564   6.794   2.318
 4834TIP3    H114459   6.502   6.723   2.338
 4834TIP3    H214460   6.573   6.842   2.400
 4835TIP3   OH214461   5.471   0.621   4.728
 4835TIP3    H114462   5.412   0.696   4.733
 4835TIP3    H214463   5.413   0.545   4.734
 4836TIP3   OH214464   7.166   0.425   1.021
 4836TIP3    H114465   7.094   0.387   0.970
 4836TIP3    H214466   7.243   0.418   0.964
 4837TIP3   OH214467   4.161   0.656   0.607
 4837TIP3    H114468   4.099   0.707   0.555
 4837TIP3    H214469   4.245   0.701   0.594
 4838TIP3   OH214470   5.725   2.465   3.742
 4838TIP3    H114471   5.771   2.476   3.659
 4838TIP3    H214472   5.640   2.507   3.729
 4839TIP3   OH214473   5.831   6.641   2.254
 4839TIP3    H114474   5.799   6.563   2.209
 4839TIP3    H214475   5.769   6.709   2.231
 4840TIP3   OH214476   6.014   0.194   3.544
 4840TIP3    H114477   6.065   0.118   3.573
 4840TIP3    H214478   5.955   0.159   3.477
 4841TIP3   OH214479   2.314   6.805   2.890
 4841TIP3    H114480   2.249   6.756   2.941
 4841TIP3    H214481   2.345   6.743   2.824
 4842TIP3   OH214482   4.875   3.731   2.313
 4842TIP3    H114483   4.909   3.756   2.399
 4842TIP3    H214484   4.847   3.813   2.273
 4843TIP3   OH214485   5.138   6.238   5.766
 4843TIP3    H114486   5.146   6.280   5.851
 4843TIP3    H214487   5.137   6.144   5.785
 4844TIP3   OH214488   5.278   2.088   3.948
 4844TIP3    H114489   5.189   2.121   3.934
 4844TIP3    H214490   5.269   2.023   4.018
 4845TIP3   OH214491   2.392   4.244   1.096
 4845TIP3    H114492   2.427   4.237   1.007
 4845TIP3    H214493   2.356   4.333   1.100
 4846TIP3   OH214494   6.882   4.407   4.151
 4846TIP3    H114495   6.868   4.492   4.193
 4846TIP3    H214496   6.840   4.415   4.066
 4847TIP3   OH214497   6.625   0.974   1.823
 4847TIP3    H114498   6.714   0.948   1.800
 4847TIP3    H214499   6.593   1.023   1.747
 4848TIP3   OH214500   8.041   6.603   5.193
 4848TIP3    H114501   7.951   6.627   5.169
 4848TIP3    H214502   8.089   6.608   5.110
 4849TIP3   OH214503   5.990   4.927   2.084
 4849TIP3    H114504   6.004   4.930   2.178
 4849TIP3    H214505   6.074   4.951   2.046
 4850TIP3   OH214506   3.653   0.192   5.378
 4850TIP3    H114507   3.615   0.135   5.445
 4850TIP3    H214508   3.619   0.279   5.398
 4851TIP3   OH214509   1.485   1.430   5.688
 4851TIP3    H114510   1.542   1.449   5.762
 4851TIP3    H214511   1.499   1.503   5.627
 4852TIP3   OH214512   1.384   0.977   3.626
 4852TIP3    H114513   1.322   0.995   3.555
 4852TIP3    H214514   1.465   1.018   3.597
 4853TIP3   OH214515   3.351   4.342   6.023
 4853TIP3    H114516   3.425   4.281   6.023
 4853TIP3    H214517   3.322   4.344   5.932
 4854TIP3   OH214518   5.524   7.581   3.259
 4854TIP3    H114519   5.468   7.573   3.182
 4854TIP3    H214520   5.572   7.663   3.245
 4855TIP3   OH214521   4.133   6.087   2.563
 4855TIP3    H114522   4.058   6.117   2.615
 4855TIP3    H214523   4.140   5.994   2.584
 4856TIP3   OH214524   2.856   0.372   2.089
 4856TIP3    H114525   2.888   0.378   2.179
 4856TIP3    H214526   2.787   0.438   2.085
 4857TIP3   OH214527   6.459   3.503   5.368
 4857TIP3    H114528   6.456   3.573   5.302
 4857TIP3    H214529   6.445   3.548   5.451
 4858TIP3   OH214530   6.646   5.276   6.630
 4858TIP3    H114531   6.575   5.254   6.570
 4858TIP3    H214532   6.717   5.305   6.574
 4859TIP3   OH214533   2.855   2.026   0.229
 4859TIP3    H114534   2.813   1.940   0.240
 4859TIP3    H214535   2.936   2.019   0.279
 4860TIP3   OH214536   3.297   3.815   2.291
 4860TIP3    H114537   3.378   3.815   2.240
 4860TIP3    H214538   3.269   3.907   2.290
 4861TIP3   OH214539   6.645   2.914   6.416
 4861TIP3    H114540   6.614   2.992   6.369
 4861TIP3    H214541   6.574   2.851   6.408
 4862TIP3   OH214542   1.701   1.841   5.151
 4862TIP3    H114543   1.698   1.864   5.244
 4862TIP3    H214544   1.637   1.771   5.141
 4863TIP3   OH214545   2.315   7.452   4.188
 4863TIP3    H114546   2.308   7.528   4.245
 4863TIP3    H214547   2.409   7.445   4.168
 4864TIP3   OH214548   4.391   3.803   2.621
 4864TIP3    H114549   4.374   3.828   2.530
 4864TIP3    H214550   4.349   3.718   2.631
 4865TIP3   OH214551   1.125   2.763   5.723
 4865TIP3    H114552   1.160   2.690   5.672
 4865TIP3    H214553   1.104   2.830   5.659
 4866TIP3   OH214554   2.029   2.013   6.573
 4866TIP3    H114555   2.033   1.937   6.632
 4866TIP3    H214556   2.119   2.024   6.543
 4867TIP3   OH214557   4.959   3.662   0.018
 4867TIP3    H114558   4.922   3.750   0.007
 4867TIP3    H214559   4.883   3.605   0.029
 4868TIP3   OH214560   4.919   4.514   4.668
 4868TIP3    H114561   4.863   4.447   4.630
 4868TIP3    H214562   5.005   4.499   4.628
 4869TIP3   OH214563   0.804   1.841   3.853
 4869TIP3    H114564   0.818   1.754   3.890
 4869TIP3    H214565   0.709   1.852   3.853
 4870TIP3   OH214566   5.968   0.676   5.459
 4870TIP3    H114567   5.919   0.672   5.376
 4870TIP3    H214568   5.948   0.763   5.494
 4871TIP3   OH214569   4.283   3.870   0.330
 4871TIP3    H114570   4.235   3.843   0.409
 4871TIP3    H214571   4.228   3.937   0.290
 4872TIP3   OH214572   7.328   7.537   1.586
 4872TIP3    H114573   7.363   7.566   1.670
 4872TIP3    H214574   7.284   7.454   1.606
 4873TIP3   OH214575   2.921   6.442   2.435
 4873TIP3    H114576   2.945   6.533   2.419
 4873TIP3    H214577   2.875   6.444   2.519
 4874TIP3   OH214578   7.947   1.271   5.936
 4874TIP3    H114579   7.946   1.180   5.908
 4874TIP3    H214580   7.952   1.321   5.855
 4875TIP3   OH214581   2.339   5.812   4.185
 4875TIP3    H114582   2.367   5.902   4.203
 4875TIP3    H214583   2.321   5.810   4.091
 4876TIP3   OH214584   6.583   4.898   2.887
 4876TIP3    H114585   6.585   4.872   2.795
 4876TIP3    H214586   6.568   4.993   2.885
 4877TIP3   OH214587   5.615   3.621   4.095
 4877TIP3    H114588   5.557   3.564   4.145
 4877TIP3    H214589   5.659   3.563   4.033
 4878TIP3   OH214590   8.153   1.367   0.911
 4878TIP3    H114591   8.162   1.460   0.932
 4878TIP3    H214592   8.073   1.362   0.859
 4879TIP3   OH214593   0.259   4.022   1.613
 4879TIP3    H114594   0.331   4.082   1.592
 4879TIP3    H214595   0.298   3.956   1.669
 4880TIP3   OH214596   3.859   3.848   0.286
 4880TIP3    H114597   3.809   3.843   0.368
 4880TIP3    H214598   3.807   3.798   0.224
 4881TIP3   OH214599   3.956   0.950   5.524
 4881TIP3    H114600   4.012   0.962   5.601
 4881TIP3    H214601   4.013   0.970   5.450
 4882TIP3   OH214602   4.379   7.380   1.341
 4882TIP3    H114603   4.321   7.420   1.406
 4882TIP3    H214604   4.453   7.441   1.335
 4883TIP3   OH214605   5.691   3.842   0.002
 4883TIP3    H114606   5.732   3.905   0.061
 4883TIP3    H214607   5.621   3.802   0.054
 4884TIP3   OH214608   6.896   3.638   3.095
 4884TIP3    H114609   6.853   3.705   3.148
 4884TIP3    H214610   6.949   3.687   3.032
 4885TIP3   OH214611   7.349   4.454   1.113
 4885TIP3    H114612   7.320   4.535   1.071
 4885TIP3    H214613   7.283   4.439   1.182
 4886TIP3   OH214614   5.410   5.252   2.356
 4886TIP3    H114615   5.335   5.303   2.323
 4886TIP3    H214616   5.471   5.318   2.388
 4887TIP3   OH214617   3.028   6.923   1.212
 4887TIP3    H114618   3.122   6.938   1.216
 4887TIP3    H214619   3.004   6.946   1.122
 4888TIP3   OH214620   0.036   1.170   3.089
 4888TIP3    H114621   0.023   1.193   2.997
 4888TIP3    H214622   0.112   1.111   3.089
 4889TIP3   OH214623   4.998   1.715   1.506
 4889TIP3    H114624   4.909   1.717   1.541
 4889TIP3    H214625   5.001   1.638   1.450
 4890TIP3   OH214626   4.460   0.366   2.142
 4890TIP3    H114627   4.364   0.364   2.135
 4890TIP3    H214628   4.481   0.291   2.198
 4891TIP3   OH214629   5.913   3.451   5.051
 4891TIP3    H114630   5.845   3.515   5.071
 4891TIP3    H214631   5.933   3.464   4.958
 4892TIP3   OH214632   1.388   6.266   3.700
 4892TIP3    H114633   1.409   6.221   3.618
 4892TIP3    H214634   1.348   6.199   3.755
 4893TIP3   OH214635   0.350   5.448   3.005
 4893TIP3    H114636   0.355   5.468   3.099
 4893TIP3    H214637   0.401   5.517   2.963
 4894TIP3   OH214638   2.776   4.991   0.669
 4894TIP3    H114639   2.786   5.076   0.627
 4894TIP3    H214640   2.684   4.989   0.698
 4895TIP3   OH214641   4.145   7.705   6.525
 4895TIP3    H114642   4.143   7.784   6.579
 4895TIP3    H214643   4.188   7.733   6.444
 4896TIP3   OH214644   0.278   5.541   2.758
 4896TIP3    H114645   0.245   5.476   2.820
 4896TIP3    H214646   0.277   5.624   2.807
 4897TIP3   OH214647   7.861   6.074   0.515
 4897TIP3    H114648   7.902   5.989   0.494
 4897TIP3    H214649   7.864   6.123   0.433
 4898TIP3   OH214650   2.219   7.232   1.159
 4898TIP3    H114651   2.244   7.161   1.218
 4898TIP3    H214652   2.126   7.246   1.178
 4899TIP3   OH214653   7.141   0.970   4.754
 4899TIP3    H114654   7.215   0.974   4.693
 4899TIP3    H214655   7.159   0.895   4.809
 4900TIP3   OH214656   7.689   3.699   0.929
 4900TIP3    H114657   7.775   3.660   0.912
 4900TIP3    H214658   7.627   3.627   0.917
 4901TIP3   OH214659   3.657   2.206   1.112
 4901TIP3    H114660   3.662   2.170   1.024
 4901TIP3    H214661   3.705   2.289   1.107
 4902TIP3   OH214662   2.025   5.170   0.711
 4902TIP3    H114663   2.087   5.098   0.724
 4902TIP3    H214664   1.947   5.144   0.759
 4903TIP3   OH214665   5.993   5.787   2.079
 4903TIP3    H114666   5.963   5.729   2.149
 4903TIP3    H214667   5.914   5.809   2.030
 4904TIP3   OH214668   3.059   6.405   4.372
 4904TIP3    H114669   3.139   6.388   4.421
 4904TIP3    H214670   3.077   6.370   4.284
 4905TIP3   OH214671   6.052   5.000   2.344
 4905TIP3    H114672   6.053   4.918   2.393
 4905TIP3    H214673   6.144   5.018   2.326
 4906TIP3   OH214674   1.598   0.112   6.731
 4906TIP3    H114675   1.691   0.096   6.718
 4906TIP3    H214676   1.559   0.101   6.644
 4907TIP3   OH214677   3.884   1.583   2.245
 4907TIP3    H114678   3.914   1.660   2.196
 4907TIP3    H214679   3.815   1.546   2.190
 4908TIP3   OH214680   4.384   6.640   3.815
 4908TIP3    H114681   4.419   6.725   3.790
 4908TIP3    H214682   4.357   6.600   3.732
 4909TIP3   OH214683   2.819   1.669   6.153
 4909TIP3    H114684   2.866   1.705   6.228
 4909TIP3    H214685   2.849   1.720   6.079
 4910TIP3   OH214686   2.159   3.850   2.990
 4910TIP3    H114687   2.077   3.838   2.941
 4910TIP3    H214688   2.222   3.792   2.947
 4911TIP3   OH214689   1.678   4.276   3.210
 4911TIP3    H114690   1.637   4.290   3.124
 4911TIP3    H214691   1.770   4.299   3.196
 4912TIP3   OH214692   6.676   2.536   2.628
 4912TIP3    H114693   6.693   2.481   2.704
 4912TIP3    H214694   6.748   2.599   2.628
 4913TIP3   OH214695   2.842   6.300   4.501
 4913TIP3    H114696   2.912   6.366   4.503
 4913TIP3    H214697   2.841   6.265   4.590
 4914TIP3   OH214698   7.393   2.524   2.746
 4914TIP3    H114699   7.387   2.493   2.655
 4914TIP3    H214700   7.416   2.616   2.738
 4915TIP3   OH214701   6.103   0.974   2.736
 4915TIP3    H114702   6.170   0.928   2.685
 4915TIP3    H214703   6.125   0.956   2.827
 4916TIP3   OH214704   4.404   5.247   1.068
 4916TIP3    H114705   4.485   5.226   1.021
 4916TIP3    H214706   4.387   5.339   1.046
 4917TIP3   OH214707   5.464   5.962   5.004
 4917TIP3    H114708   5.539   6.006   5.043
 4917TIP3    H214709   5.388   6.005   5.043
 4918TIP3   OH214710   6.940   5.765   1.015
 4918TIP3    H114711   6.942   5.788   1.108
 4918TIP3    H214712   7.024   5.794   0.981
 4919TIP3   OH214713   0.501   0.425   5.992
 4919TIP3    H114714   0.410   0.411   5.965
 4919TIP3    H214715   0.523   0.346   6.041
 4920TIP3   OH214716   3.227   1.656   1.145
 4920TIP3    H114717   3.316   1.683   1.169
 4920TIP3    H214718   3.222   1.564   1.171
 4921TIP3   OH214719   3.981   2.375   4.337
 4921TIP3    H114720   3.908   2.317   4.359
 4921TIP3    H214721   4.057   2.318   4.332
 4922TIP3   OH214722   0.169   3.786   5.836
 4922TIP3    H114723   0.116   3.834   5.900
 4922TIP3    H214724   0.105   3.738   5.783
 4923TIP3   OH214725   1.943   2.464   5.628
 4923TIP3    H114726   1.979   2.481   5.541
 4923TIP3    H214727   1.922   2.550   5.662
 4924TIP3   OH214728   0.369   6.569   5.100
 4924TIP3    H114729   0.428   6.536   5.168
 4924TIP3    H214730   0.337   6.490   5.055
 4925TIP3   OH214731   4.592   3.579   2.402
 4925TIP3    H114732   4.623   3.553   2.316
 4925TIP3    H214733   4.664   3.629   2.440
 4926TIP3   OH214734   5.277   7.403   0.812
 4926TIP3    H114735   5.186   7.377   0.829
 4926TIP3    H214736   5.326   7.367   0.886
 4927TIP3   OH214737   0.333   0.853   5.323
 4927TIP3    H114738   0.269   0.880   5.388
 4927TIP3    H214739   0.336   0.757   5.331
 4928TIP3   OH214740   0.272   4.939   3.259
 4928TIP3    H114741   0.365   4.918   3.250
 4928TIP3    H214742   0.249   4.980   3.176
 4929TIP3   OH214743   6.104   6.778   6.665
 4929TIP3    H114744   6.079   6.810   6.751
 4929TIP3    H214745   6.068   6.842   6.604
 4930TIP3   OH214746   5.119   5.843   4.573
 4930TIP3    H114747   5.057   5.914   4.591
 4930TIP3    H214748   5.064   5.767   4.556
 4931TIP3   OH214749   1.112   2.986   5.459
 4931TIP3    H114750   1.079   3.076   5.453
 4931TIP3    H214751   1.207   2.996   5.464
 4932TIP3   OH214752   0.535   5.755   1.928
 4932TIP3    H114753   0.542   5.742   2.022
 4932TIP3    H214754   0.492   5.839   1.917
 4933TIP3   OH214755   5.145   6.060   3.035
 4933TIP3    H114756   5.080   6.012   2.984
 4933TIP3    H214757   5.229   6.035   2.997
 4934TIP3   OH214758   1.171   6.452   6.750
 4934TIP3    H114759   1.200   6.364   6.724
 4934TIP3    H214760   1.162   6.499   6.668
 4935TIP3   OH214761   3.559   6.391   2.348
 4935TIP3    H114762   3.468   6.398   2.318
 4935TIP3    H214763   3.552   6.349   2.434
 4936TIP3   OH214764   2.563   4.663   1.433
 4936TIP3    H114765   2.502   4.617   1.490
 4936TIP3    H214766   2.597   4.596   1.375
 4937TIP3   OH214767   4.992   1.944   4.666
 4937TIP3    H114768   4.975   2.038   4.677
 4937TIP3    H214769   5.082   1.933   4.696
 4938TIP3   OH214770   4.302   6.256   1.004
 4938TIP3    H114771   4.249   6.176   1.002
 4938TIP3    H214772   4.260   6.311   1.071
 4939TIP3   OH214773   6.010   1.453   6.267
 4939TIP3    H114774   6.082   1.513   6.250
 4939TIP3    H214775   6.031   1.375   6.215
 4940TIP3   OH214776   0.451   5.159   0.362
 4940TIP3    H114777   0.538   5.169   0.324
 4940TIP3    H214778   0.467   5.149   0.456
 4941TIP3   OH214779   5.192   6.693   6.413
 4941TIP3    H114780   5.191   6.737   6.327
 4941TIP3    H214781   5.284   6.672   6.428
 4942TIP3   OH214782   1.247   2.355   5.955
 4942TIP3    H114783   1.286   2.425   6.008
 4942TIP3    H214784   1.182   2.315   6.012
 4943TIP3   OH214785   5.910   3.219   3.911
 4943TIP3    H114786   5.978   3.238   3.846
 4943TIP3    H214787   5.833   3.264   3.878
 4944TIP3   OH214788   4.195   5.767   0.457
 4944TIP3    H114789   4.240   5.828   0.398
 4944TIP3    H214790   4.112   5.811   0.478
 4945TIP3   OH214791   1.815   5.904   6.328
 4945TIP3    H114792   1.767   5.986   6.315
 4945TIP3    H214793   1.776   5.843   6.266
 4946TIP3   OH214794   6.934   6.998   5.373
 4946TIP3    H114795   6.848   6.961   5.393
 4946TIP3    H214796   6.993   6.923   5.375
 4947TIP3   OH214797   3.597   2.464   1.310
 4947TIP3    H114798   3.592   2.370   1.327
 4947TIP3    H214799   3.513   2.486   1.269
 4948TIP3   OH214800   6.136   1.175   1.599
 4948TIP3    H114801   6.066   1.121   1.636
 4948TIP3    H214802   6.138   1.254   1.654
 4949TIP3   OH214803   0.290   4.417   6.203
 4949TIP3    H114804   0.276   4.346   6.265
 4949TIP3    H214805   0.358   4.385   6.145
 4950TIP3   OH214806   5.707   4.554   2.881
 4950TIP3    H114807   5.696   4.511   2.796
 4950TIP3    H214808   5.799   4.540   2.904
 4951TIP3   OH214809   6.490   0.060   3.911
 4951TIP3    H114810   6.487  -0.034   3.925
 4951TIP3    H214811   6.401   0.091   3.932
 4952TIP3   OH214812   3.818   7.079   1.561
 4952TIP3    H114813   3.809   7.172   1.540
 4952TIP3    H214814   3.781   7.071   1.649
 4953TIP3   OH214815   5.688   1.867   1.948
 4953TIP3    H114816   5.597   1.858   1.920
 4953TIP3    H214817   5.684   1.931   2.020
 4954TIP3   OH214818   4.590   2.950   3.696
 4954TIP3    H114819   4.517   2.950   3.633
 4954TIP3    H214820   4.659   3.001   3.653
 4955TIP3   OH214821   4.012   0.091   3.563
 4955TIP3    H114822   3.930   0.043   3.555
 4955TIP3    H214823   3.991   0.181   3.537
 4956TIP3   OH214824   5.756   5.363   0.601
 4956TIP3    H114825   5.779   5.433   0.663
 4956TIP3    H214826   5.840   5.332   0.569
 4957TIP3   OH214827   4.274   5.605   4.737
 4957TIP3    H114828   4.250   5.533   4.796
 4957TIP3    H214829   4.337   5.657   4.787
 4958TIP3   OH214830   7.621   5.178   0.615
 4958TIP3    H114831   7.650   5.108   0.558
 4958TIP3    H214832   7.572   5.238   0.558
 4959TIP3   OH214833   1.085   6.727   0.854
 4959TIP3    H114834   1.087   6.641   0.895
 4959TIP3    H214835   1.079   6.788   0.927
 4960TIP3   OH214836   1.230   7.509   6.023
 4960TIP3    H114837   1.279   7.544   6.097
 4960TIP3    H214838   1.291   7.514   5.949
 4961TIP3   OH214839   4.184   4.726   0.188
 4961TIP3    H114840   4.103   4.750   0.143
 4961TIP3    H214841   4.168   4.637   0.219
 4962TIP3   OH214842   0.406   7.715   0.042
 4962TIP3    H114843   0.407   7.631  -0.004
 4962TIP3    H214844   0.469   7.704   0.113
 4963TIP3   OH214845   5.164   2.857   6.581
 4963TIP3    H114846   5.225   2.878   6.511
 4963TIP3    H214847   5.178   2.764   6.598
 4964TIP3   OH214848   0.709   1.565   5.315
 4964TIP3    H114849   0.666   1.521   5.388
 4964TIP3    H214850   0.800   1.535   5.320
 4965TIP3   OH214851   3.772   7.440   1.068
 4965TIP3    H114852   3.801   7.349   1.066
 4965TIP3    H214853   3.700   7.442   1.131
 4966TIP3   OH214854   3.935   2.537   1.870
 4966TIP3    H114855   3.994   2.548   1.945
 4966TIP3    H214856   3.994   2.523   1.796
 4967TIP3   OH214857   4.170   7.008   2.491
 4967TIP3    H114858   4.225   7.079   2.457
 4967TIP3    H214859   4.233   6.942   2.520
 4968TIP3   OH214860   1.529   6.778   0.964
 4968TIP3    H114861   1.528   6.704   0.903
 4968TIP3    H214862   1.489   6.742   1.044
 4969TIP3   OH214863   6.645   0.208   3.754
 4969TIP3    H114864   6.603   0.146   3.814
 4969TIP3    H214865   6.734   0.174   3.744
 4970TIP3   OH214866   5.268   2.819   3.617
 4970TIP3    H114867   5.327   2.842   3.545
 4970TIP3    H214868   5.193   2.779   3.574
 4971TIP3   OH214869   6.962   5.165   5.533
 4971TIP3    H114870   7.016   5.102   5.485
 4971TIP3    H214871   6.958   5.241   5.475
 4972TIP3   OH214872   0.439   2.796   4.436
 4972TIP3    H114873   0.421   2.818   4.527
 4972TIP3    H214874   0.475   2.877   4.399
 4973TIP3   OH214875   4.490   1.079   3.973
 4973TIP3    H114876   4.517   1.131   4.048
 4973TIP3    H214877   4.420   1.023   4.006
 4974TIP3   OH214878   3.951   6.096   1.877
 4974TIP3    H114879   3.905   6.117   1.795
 4974TIP3    H214880   3.927   6.167   1.936
 4975TIP3   OH214881   4.363   4.848   1.852
 4975TIP3    H114882   4.449   4.837   1.893
 4975TIP3    H214883   4.378   4.910   1.780
 4976TIP3   OH214884   1.178   0.080   2.908
 4976TIP3    H114885   1.163   0.105   2.816
 4976TIP3    H214886   1.127   0.144   2.958
 4977TIP3   OH214887   0.791   5.376   6.004
 4977TIP3    H114888   0.761   5.400   5.917
 4977TIP3    H214889   0.824   5.459   6.041
 4978TIP3   OH214890   6.945   7.505   5.588
 4978TIP3    H114891   6.996   7.429   5.561
 4978TIP3    H214892   6.871   7.469   5.636
 4979TIP3   OH214893   6.321   6.469   5.973
 4979TIP3    H114894   6.375   6.544   5.946
 4979TIP3    H214895   6.237   6.484   5.930
 4980TIP3   OH214896   0.158   7.553   4.821
 4980TIP3    H114897   0.195   7.497   4.752
 4980TIP3    H214898   0.063   7.546   4.809
 4981TIP3   OH214899   4.439   7.761   5.507
 4981TIP3    H114900   4.470   7.745   5.418
 4981TIP3    H214901   4.344   7.749   5.502
 4982TIP3   OH214902   2.648   1.738   6.607
 4982TIP3    H114903   2.720   1.775   6.658
 4982TIP3    H214904   2.639   1.648   6.639
 4983TIP3   OH214905   5.260   5.778   2.177
 4983TIP3    H114906   5.339   5.829   2.194
 4983TIP3    H214907   5.293   5.690   2.158
 4984TIP3   OH214908   8.014   2.002   1.465
 4984TIP3    H114909   8.043   2.075   1.519
 4984TIP3    H214910   8.094   1.953   1.445
 4985TIP3   OH214911   2.518   7.375   5.402
 4985TIP3    H114912   2.465   7.453   5.418
 4985TIP3    H214913   2.463   7.302   5.431
 4986TIP3   OH214914   0.164   2.583   3.573
 4986TIP3    H114915   0.178   2.594   3.667
 4986TIP3    H214916   0.221   2.510   3.549
 4987TIP3   OH214917   3.354   7.071   2.498
 4987TIP3    H114918   3.448   7.055   2.510
 4987TIP3    H214919   3.349   7.151   2.447
 4988TIP3   OH214920   1.494   3.359   2.167
 4988TIP3    H114921   1.422   3.369   2.105
 4988TIP3    H214922   1.570   3.396   2.123
 4989TIP3   OH214923   2.197   7.025   5.045
 4989TIP3    H114924   2.112   6.981   5.051
 4989TIP3    H214925   2.222   7.017   4.953
 4990TIP3   OH214926   0.111   5.296   4.141
 4990TIP3    H114927   0.153   5.338   4.216
 4990TIP3    H214928   0.088   5.369   4.083
 4991TIP3   OH214929   7.778   4.602   5.524
 4991TIP3    H114930   7.731   4.644   5.596
 4991TIP3    H214931   7.815   4.675   5.474
 4992TIP3   OH214932   5.734   6.565   6.459
 4992TIP3    H114933   5.755   6.529   6.545
 4992TIP3    H214934   5.812   6.617   6.436
 4993TIP3   OH214935   6.410   0.570   1.936
 4993TIP3    H114936   6.478   0.531   1.882
 4993TIP3    H214937   6.453   0.642   1.982
 4994TIP3   OH214938   3.278   7.003   4.534
 4994TIP3    H114939   3.367   6.968   4.539
 4994TIP3    H214940   3.265   7.024   4.442
 4995TIP3   OH214941   3.821   1.659   2.641
 4995TIP3    H114942   3.807   1.753   2.624
 4995TIP3    H214943   3.742   1.632   2.689
 4996TIP3   OH214944   6.777   7.709   3.261
 4996TIP3    H114945   6.836   7.733   3.333
 4996TIP3    H214946   6.745   7.621   3.284
 4997TIP3   OH214947   2.350   4.552   1.591
 4997TIP3    H114948   2.386   4.541   1.679
 4997TIP3    H214949   2.274   4.609   1.604
 4998TIP3   OH214950   0.270   3.664   6.703
 4998TIP3    H114951   0.229   3.709   6.629
 4998TIP3    H214952   0.254   3.571   6.686
 4999TIP3   OH214953   4.069   1.092   6.653
 4999TIP3    H114954   4.042   1.178   6.685
 4999TIP3    H214955   3.990   1.038   6.659
 5000TIP3   OH214956   5.120   5.502   3.391
 5000TIP3    H114957   5.107   5.519   3.298
 5000TIP3    H214958   5.168   5.419   3.394
 5001TIP3   OH214959   6.806   2.007   4.017
 5001TIP3    H114960   6.716   1.974   4.019
 5001TIP3    H214961   6.857   1.940   4.063
 5002TIP3   OH214962   3.094   4.562   2.269
 5002TIP3    H114963   3.091   4.656   2.255
 5002TIP3    H214964   3.139   4.550   2.352
 5003TIP3   OH214965   1.630   1.945   2.281
 5003TIP3    H114966   1.615   1.897   2.362
 5003TIP3    H214967   1.714   1.912   2.249
 5004TIP3   OH214968   8.010   3.841   2.212
 5004TIP3    H114969   8.000   3.929   2.250
 5004TIP3    H214970   7.969   3.783   2.276
 5005TIP3   OH214971   1.473   4.018   6.281
 5005TIP3    H114972   1.388   4.015   6.237
 5005TIP3    H214973   1.463   4.088   6.346
 5006TIP3   OH214974   3.554   4.134   3.963
 5006TIP3    H114975   3.646   4.123   3.987
 5006TIP3    H214976   3.536   4.060   3.904
 5007TIP3   OH214977   0.239   3.645   0.005
 5007TIP3    H114978   0.297   3.593  -0.051
 5007TIP3    H214979   0.294   3.716   0.038
 5008TIP3   OH214980   1.598   7.005   0.802
 5008TIP3    H114981   1.572   6.923   0.845
 5008TIP3    H214982   1.538   7.071   0.836
 5009TIP3   OH214983   0.098   6.381   6.268
 5009TIP3    H114984   0.088   6.472   6.298
 5009TIP3    H214985   0.009   6.346   6.270
 5010TIP3   OH214986   0.009   1.900   2.466
 5010TIP3    H114987   0.030   1.830   2.403
 5010TIP3    H214988   0.089   1.954   2.468
 5011TIP3   OH214989   2.536   1.139   0.773
 5011TIP3    H114990   2.584   1.192   0.836
 5011TIP3    H214991   2.520   1.057   0.818
 5012TIP3   OH214992   1.006   2.531   1.643
 5012TIP3    H114993   1.023   2.438   1.637
 5012TIP3    H214994   1.090   2.570   1.667
 5013TIP3   OH214995   1.113   3.287   4.441
 5013TIP3    H114996   1.023   3.318   4.430
 5013TIP3    H214997   1.142   3.263   4.353
 5014TIP3   OH214998   2.087   2.208   2.726
 5014TIP3    H114999   2.014   2.218   2.787
 5014TIP3    H215000   2.135   2.290   2.732
 5015TIP3   OH215001   4.535   6.933   1.732
 5015TIP3    H115002   4.582   6.929   1.816
 5015TIP3    H215003   4.443   6.932   1.758
 5016TIP3   OH215004   1.595   1.046   1.714
 5016TIP3    H115005   1.534   1.113   1.747
 5016TIP3    H215006   1.545   0.964   1.719
 5017TIP3   OH215007   1.436   1.885   1.300
 5017TIP3    H115008   1.352   1.894   1.255
 5017TIP3    H215009   1.417   1.907   1.391
 5018TIP3   OH215010   4.087   2.961   6.647
 5018TIP3    H115011   4.003   2.997   6.619
 5018TIP3    H215012   4.147   2.982   6.576
 5019TIP3   OH215013   0.022   2.366   5.244
 5019TIP3    H115014   0.015   2.386   5.151
 5019TIP3    H215015   0.101   2.411   5.273
 5020TIP3   OH215016   2.862   0.700   4.802
 5020TIP3    H115017   2.914   0.679   4.725
 5020TIP3    H215018   2.876   0.626   4.861
 5021TIP3   OH215019   6.443   5.010   3.521
 5021TIP3    H115020   6.497   4.937   3.489
 5021TIP3    H215021   6.405   4.977   3.603
 5022TIP3   OH215022   6.573   7.022   4.303
 5022TIP3    H115023   6.596   6.937   4.266
 5022TIP3    H215024   6.496   7.050   4.253
 5023TIP3   OH215025   2.441   3.788   4.633
 5023TIP3    H115026   2.346   3.783   4.645
 5023TIP3    H215027   2.453   3.810   4.541
 5024TIP3   OH215028   2.493   3.784   4.910
 5024TIP3    H115029   2.578   3.827   4.919
 5024TIP3    H215030   2.482   3.772   4.816
 5025TIP3   OH215031   0.814   2.896   3.716
 5025TIP3    H115032   0.830   2.950   3.639
 5025TIP3    H215033   0.732   2.930   3.753
 5026TIP3   OH215034   5.363   5.876   5.642
 5026TIP3    H115035   5.344   5.886   5.735
 5026TIP3    H215036   5.349   5.783   5.625
 5027TIP3   OH215037   5.050   1.194   5.104
 5027TIP3    H115038   4.981   1.165   5.163
 5027TIP3    H215039   5.130   1.187   5.155
 5028TIP3   OH215040   2.060   2.906   3.878
 5028TIP3    H115041   2.062   2.821   3.834
 5028TIP3    H215042   2.127   2.899   3.946
 5029TIP3   OH215043   6.823   6.512   1.186
 5029TIP3    H115044   6.831   6.585   1.125
 5029TIP3    H215045   6.818   6.435   1.130
 5030TIP3   OH215046   4.439   1.055   0.042
 5030TIP3    H115047   4.422   1.052   0.136
 5030TIP3    H215048   4.428   1.147   0.018
 5031TIP3   OH215049   2.809   1.537   3.178
 5031TIP3    H115050   2.757   1.484   3.117
 5031TIP3    H215051   2.747   1.601   3.214
 5032TIP3   OH215052   5.850   1.537   2.077
 5032TIP3    H115053   5.901   1.596   2.021
 5032TIP3    H215054   5.916   1.490   2.129
 5033TIP3   OH215055   7.704   0.829   5.838
 5033TIP3    H115056   7.654   0.770   5.782
 5033TIP3    H215057   7.796   0.809   5.817
 5034TIP3   OH215058   0.517   4.325   3.888
 5034TIP3    H115059   0.565   4.307   3.807
 5034TIP3    H215060   0.438   4.370   3.860
 5035TIP3   OH215061   8.102   6.635   2.480
 5035TIP3    H115062   8.137   6.713   2.523
 5035TIP3    H215063   8.176   6.575   2.473
 5036TIP3   OH215064   2.123   2.791   2.979
 5036TIP3    H115065   2.165   2.839   3.050
 5036TIP3    H215066   2.092   2.859   2.919
 5037TIP3   OH215067   6.212   5.988   2.412
 5037TIP3    H115068   6.164   5.987   2.330
 5037TIP3    H215069   6.151   6.025   2.476
 5038TIP3   OH215070   3.902   0.878   3.859
 5038TIP3    H115071   3.857   0.905   3.779
 5038TIP3    H215072   3.878   0.943   3.924
 5039TIP3   OH215073   3.240   5.237   6.664
 5039TIP3    H115074   3.156   5.226   6.618
 5039TIP3    H215075   3.296   5.169   6.628
 5040TIP3   OH215076   5.393   7.411   0.574
 5040TIP3    H115077   5.344   7.416   0.657
 5040TIP3    H215078   5.482   7.437   0.598
 5041TIP3   OH215079   1.261   1.261   4.460
 5041TIP3    H115080   1.237   1.267   4.368
 5041TIP3    H215081   1.338   1.204   4.461
 5042TIP3   OH215082   6.692   5.305   3.234
 5042TIP3    H115083   6.724   5.248   3.164
 5042TIP3    H215084   6.720   5.263   3.315
 5043TIP3   OH215085   0.855   1.313   5.306
 5043TIP3    H115086   0.928   1.267   5.348
 5043TIP3    H215087   0.867   1.296   5.212
 5044TIP3   OH215088   5.515   1.163   2.014
 5044TIP3    H115089   5.497   1.140   2.105
 5044TIP3    H215090   5.527   1.258   2.016
 5045TIP3   OH215091   6.595   5.590   3.360
 5045TIP3    H115092   6.625   5.499   3.361
 5045TIP3    H215093   6.526   5.592   3.293
 5046TIP3   OH215094   2.732   6.685   0.331
 5046TIP3    H115095   2.676   6.668   0.408
 5046TIP3    H215096   2.767   6.772   0.346
 5047TIP3   OH215097   8.254   3.338   0.805
 5047TIP3    H115098   8.171   3.327   0.757
 5047TIP3    H215099   8.318   3.289   0.754
 5048TIP3   OH215100   4.076   0.882   2.878
 5048TIP3    H115101   4.071   0.804   2.822
 5048TIP3    H215102   4.157   0.871   2.928
 5049TIP3   OH215103   2.673   4.563   6.779
 5049TIP3    H115104   2.628   4.519   6.851
 5049TIP3    H215105   2.606   4.577   6.713
 5050TIP3   OH215106   6.008   2.160   0.736
 5050TIP3    H115107   6.056   2.077   0.731
 5050TIP3    H215108   5.916   2.135   0.726
 5051TIP3   OH215109   3.503   6.887   6.353
 5051TIP3    H115110   3.464   6.957   6.405
 5051TIP3    H215111   3.435   6.819   6.350
 5052TIP3   OH215112   6.892   5.872   1.622
 5052TIP3    H115113   6.863   5.887   1.532
 5052TIP3    H215114   6.840   5.933   1.675
 5053TIP3   OH215115   0.007   0.884   3.677
 5053TIP3    H115116   0.032   0.966   3.720
 5053TIP3    H215117  -0.013   0.908   3.587
 5054TIP3   OH215118   0.855   4.470   1.701
 5054TIP3    H115119   0.907   4.445   1.624
 5054TIP3    H215120   0.871   4.401   1.765
 5055TIP3   OH215121   0.035   6.211   4.186
 5055TIP3    H115122   0.105   6.175   4.132
 5055TIP3    H215123  -0.017   6.264   4.126
 5056TIP3   OH215124   0.938   0.968   0.033
 5056TIP3    H115125   1.003   1.008  -0.023
 5056TIP3    H215126   0.900   1.041   0.082
 5057TIP3   OH215127   0.549   4.873   4.502
 5057TIP3    H115128   0.469   4.821   4.496
 5057TIP3    H215129   0.557   4.915   4.417
 5058TIP3   OH215130   7.633   2.128   0.150
 5058TIP3    H115131   7.660   2.099   0.063
 5058TIP3    H215132   7.606   2.219   0.138
 5059TIP3   OH215133   0.142   3.706   4.192
 5059TIP3    H115134   0.221   3.736   4.237
 5059TIP3    H215135   0.160   3.721   4.099
 5060TIP3   OH215136   1.283   2.712   1.497
 5060TIP3    H115137   1.231   2.660   1.436
 5060TIP3    H215138   1.243   2.799   1.495
 5061TIP3   OH215139   3.311   4.077   4.476
 5061TIP3    H115140   3.261   4.079   4.395
 5061TIP3    H215141   3.284   3.996   4.519
 5062TIP3   OH215142   5.546   7.160   4.224
 5062TIP3    H115143   5.630   7.146   4.181
 5062TIP3    H215144   5.556   7.242   4.271
 5063TIP3   OH215145   2.942   3.816   5.883
 5063TIP3    H115146   3.032   3.846   5.870
 5063TIP3    H215147   2.939   3.730   5.841
 5064TIP3   OH215148   3.199   4.932   3.670
 5064TIP3    H115149   3.121   4.973   3.707
 5064TIP3    H215150   3.268   4.949   3.733
 5065TIP3   OH215151   4.778   5.732   1.514
 5065TIP3    H115152   4.859   5.727   1.462
 5065TIP3    H215153   4.795   5.676   1.590
 5066TIP3   OH215154   2.052   3.392   6.172
 5066TIP3    H115155   2.072   3.304   6.206
 5066TIP3    H215156   1.982   3.378   6.108
 5067TIP3   OH215157   0.483   0.905   0.395
 5067TIP3    H115158   0.444   0.988   0.422
 5067TIP3    H215159   0.409   0.851   0.370
 5068TIP3   OH215160   0.045   4.490   2.885
 5068TIP3    H115161  -0.001   4.556   2.834
 5068TIP3    H215162   0.095   4.540   2.950
 5069TIP3   OH215163   8.114   6.266   1.668
 5069TIP3    H115164   8.099   6.225   1.753
 5069TIP3    H215165   8.194   6.225   1.634
 5070TIP3   OH215166   7.429   3.723   4.113
 5070TIP3    H115167   7.378   3.799   4.142
 5070TIP3    H215168   7.372   3.679   4.050
 5071TIP3   OH215169   1.769   2.268   0.579
 5071TIP3    H115170   1.852   2.270   0.627
 5071TIP3    H215171   1.795   2.277   0.487
 5072TIP3   OH215172   0.928   0.315   5.073
 5072TIP3    H115173   0.933   0.390   5.013
 5072TIP3    H215174   0.840   0.320   5.110
 5073TIP3   OH215175   0.219   0.506   4.304
 5073TIP3    H115176   0.304   0.466   4.317
 5073TIP3    H215177   0.238   0.593   4.269
 5074TIP3   OH215178   4.245   0.524   6.383
 5074TIP3    H115179   4.271   0.479   6.463
 5074TIP3    H215180   4.322   0.576   6.359
 5075TIP3   OH215181   2.632   5.915   0.330
 5075TIP3    H115182   2.563   5.971   0.365
 5075TIP3    H215183   2.669   5.871   0.406
 5076TIP3   OH215184   6.703   0.828   0.804
 5076TIP3    H115185   6.637   0.798   0.742
 5076TIP3    H215186   6.764   0.755   0.813
 5077TIP3   OH215187   7.903   7.735   1.361
 5077TIP3    H115188   7.942   7.798   1.422
 5077TIP3    H215189   7.977   7.702   1.310
 5078TIP3   OH215190   4.125   4.420   5.360
 5078TIP3    H115191   4.174   4.461   5.432
 5078TIP3    H215192   4.092   4.493   5.309
 5079TIP3   OH215193   1.160   2.195   3.258
 5079TIP3    H115194   1.141   2.242   3.340
 5079TIP3    H215195   1.169   2.264   3.192
 5080TIP3   OH215196   1.306   3.607   1.567
 5080TIP3    H115197   1.307   3.702   1.577
 5080TIP3    H215198   1.388   3.587   1.521
 5081TIP3   OH215199   1.060   5.284   5.323
 5081TIP3    H115200   0.995   5.232   5.370
 5081TIP3    H215201   1.095   5.344   5.389
 5082TIP3   OH215202   2.106   7.049   3.097
 5082TIP3    H115203   2.019   7.063   3.058
 5082TIP3    H215204   2.167   7.067   3.026
 5083TIP3   OH215205   7.044   4.044   6.329
 5083TIP3    H115206   7.089   4.020   6.410
 5083TIP3    H215207   6.952   4.051   6.353
 5084TIP3   OH215208   5.770   4.752   6.246
 5084TIP3    H115209   5.740   4.692   6.314
 5084TIP3    H215210   5.848   4.710   6.210
 5085TIP3   OH215211   1.762   4.158   0.346
 5085TIP3    H115212   1.716   4.083   0.384
 5085TIP3    H215213   1.703   4.192   0.279
 5086TIP3   OH215214   3.875   0.983   0.668
 5086TIP3    H115215   3.885   1.005   0.576
 5086TIP3    H215216   3.932   1.044   0.714
 5087TIP3   OH215217   5.224   7.141   2.255
 5087TIP3    H115218   5.160   7.191   2.306
 5087TIP3    H215219   5.306   7.187   2.268
 5088TIP3   OH215220   7.134   6.533   5.966
 5088TIP3    H115221   7.121   6.586   5.888
 5088TIP3    H215222   7.051   6.488   5.979
 5089TIP3   OH215223   1.607   6.458   4.949
 5089TIP3    H115224   1.538   6.447   5.014
 5089TIP3    H215225   1.636   6.549   4.960
 5090TIP3   OH215226   5.484   5.581   6.271
 5090TIP3    H115227   5.476   5.674   6.292
 5090TIP3    H215228   5.531   5.543   6.346
 5091TIP3   OH215229   1.306   3.678   5.165
 5091TIP3    H115230   1.315   3.605   5.104
 5091TIP3    H215231   1.300   3.637   5.251
 5092TIP3   OH215232   6.305   3.898   4.580
 5092TIP3    H115233   6.257   3.844   4.517
 5092TIP3    H215234   6.259   3.982   4.579
 5093TIP3   OH215235   4.891   2.786   5.361
 5093TIP3    H115236   4.936   2.852   5.309
 5093TIP3    H215237   4.862   2.833   5.439
 5094TIP3   OH215238   2.549   7.006   3.951
 5094TIP3    H115239   2.525   6.955   3.874
 5094TIP3    H215240   2.489   7.081   3.950
 5095TIP3   OH215241   1.067   2.869   4.897
 5095TIP3    H115242   1.102   2.836   4.814
 5095TIP3    H215243   1.108   2.954   4.909
 5096TIP3   OH215244   0.438   0.826   1.638
 5096TIP3    H115245   0.373   0.845   1.706
 5096TIP3    H215246   0.416   0.886   1.567
 5097TIP3   OH215247   4.808   4.268   2.187
 5097TIP3    H115248   4.742   4.251   2.119
 5097TIP3    H215249   4.790   4.358   2.215
 5098TIP3   OH215250   0.076   7.352   2.960
 5098TIP3    H115251   0.031   7.313   2.885
 5098TIP3    H215252   0.138   7.284   2.987
 5099TIP3   OH215253   7.712   7.432   2.320
 5099TIP3    H115254   7.624   7.424   2.281
 5099TIP3    H215255   7.772   7.426   2.245
 5100TIP3   OH215256   7.886   5.381   6.446
 5100TIP3    H115257   7.866   5.461   6.495
 5100TIP3    H215258   7.974   5.395   6.411
 5101TIP3   OH215259   0.620   5.890   0.539
 5101TIP3    H115260   0.546   5.881   0.478
 5101TIP3    H215261   0.609   5.977   0.577
 5102TIP3   OH215262   8.109   5.658   1.498
 5102TIP3    H115263   8.153   5.739   1.474
 5102TIP3    H215264   8.163   5.589   1.459
 5103TIP3   OH215265   3.099   7.022   0.185
 5103TIP3    H115266   3.133   6.962   0.120
 5103TIP3    H215267   3.177   7.062   0.224
 5104TIP3   OH215268   0.265   2.494   5.607
 5104TIP3    H115269   0.189   2.503   5.664
 5104TIP3    H215270   0.334   2.544   5.650
 5105TIP3   OH215271   4.893   2.259   4.300
 5105TIP3    H115272   4.813   2.300   4.332
 5105TIP3    H215273   4.865   2.209   4.223
 5106TIP3   OH215274   6.816   2.569   4.992
 5106TIP3    H115275   6.858   2.506   4.932
 5106TIP3    H215276   6.827   2.531   5.079
 5107TIP3   OH215277   1.533   1.878   4.761
 5107TIP3    H115278   1.546   1.847   4.671
 5107TIP3    H215279   1.604   1.838   4.810
 5108TIP3   OH215280   6.518   2.770   2.667
 5108TIP3    H115281   6.590   2.706   2.667
 5108TIP3    H215282   6.510   2.797   2.576
 5109TIP3   OH215283   3.371   1.453   3.351
 5109TIP3    H115284   3.425   1.408   3.287
 5109TIP3    H215285   3.391   1.410   3.434
 5110TIP3   OH215286   5.301   2.902   6.349
 5110TIP3    H115287   5.373   2.918   6.410
 5110TIP3    H215288   5.318   2.962   6.276
 5111TIP3   OH215289   1.480   1.114   1.411
 5111TIP3    H115290   1.549   1.179   1.405
 5111TIP3    H215291   1.499   1.052   1.340
 5112TIP3   OH215292   5.250   0.759   5.864
 5112TIP3    H115293   5.325   0.768   5.923
 5112TIP3    H215294   5.236   0.664   5.858
 5113TIP3   OH215295   0.499   0.659   2.030
 5113TIP3    H115296   0.579   0.607   2.032
 5113TIP3    H215297   0.501   0.702   1.945
 5114TIP3   OH215298   3.272   2.642   5.529
 5114TIP3    H115299   3.215   2.691   5.469
 5114TIP3    H215300   3.282   2.556   5.487
 5115TIP3   OH215301   1.037   7.764   1.889
 5115TIP3    H115302   1.112   7.784   1.833
 5115TIP3    H215303   0.966   7.817   1.853
 5116TIP3   OH215304   1.805   6.440   0.499
 5116TIP3    H115305   1.886   6.484   0.527
 5116TIP3    H215306   1.766   6.500   0.435
 5117TIP3   OH215307   4.536   6.504   4.145
 5117TIP3    H115308   4.445   6.484   4.166
 5117TIP3    H215309   4.534   6.597   4.122
 5118TIP3   OH215310   5.092   5.468   3.676
 5118TIP3    H115311   5.115   5.490   3.585
 5118TIP3    H215312   5.074   5.374   3.674
 5119TIP3   OH215313   6.962   6.402   0.870
 5119TIP3    H115314   6.900   6.368   0.935
 5119TIP3    H215315   6.915   6.475   0.829
 5120TIP3   OH215316   3.289   5.876   2.806
 5120TIP3    H115317   3.369   5.830   2.830
 5120TIP3    H215318   3.299   5.963   2.845
 5121TIP3   OH215319   4.385   3.516   2.716
 5121TIP3    H115320   4.328   3.526   2.792
 5121TIP3    H215321   4.332   3.465   2.654
 5122TIP3   OH215322   0.998   3.045   2.996
 5122TIP3    H115323   0.917   3.001   2.973
 5122TIP3    H215324   1.033   3.078   2.913
 5123TIP3   OH215325   0.332   2.373   5.046
 5123TIP3    H115326   0.427   2.382   5.043
 5123TIP3    H215327   0.307   2.411   5.130
 5124TIP3   OH215328   3.275   6.398   4.531
 5124TIP3    H115329   3.303   6.485   4.557
 5124TIP3    H215330   3.270   6.349   4.613
 5125TIP3   OH215331   0.667   1.065   2.319
 5125TIP3    H115332   0.745   1.075   2.373
 5125TIP3    H215333   0.609   1.136   2.346
 5126TIP3   OH215334   4.769   6.604   3.630
 5126TIP3    H115335   4.715   6.607   3.709
 5126TIP3    H215336   4.721   6.548   3.570
 5127TIP3   OH215337   2.825   2.302   6.180
 5127TIP3    H115338   2.748   2.299   6.237
 5127TIP3    H215339   2.788   2.312   6.092
 5128TIP3   OH215340   4.074   6.304   3.013
 5128TIP3    H115341   4.164   6.285   2.986
 5128TIP3    H215342   4.067   6.265   3.100
 5129TIP3   OH215343   4.510   7.563   6.234
 5129TIP3    H115344   4.484   7.526   6.151
 5129TIP3    H215345   4.555   7.645   6.211
 5130TIP3   OH215346   1.842   4.150   3.529
 5130TIP3    H115347   1.910   4.084   3.515
 5130TIP3    H215348   1.768   4.119   3.477
 5131TIP3   OH215349   5.809   4.023   0.909
 5131TIP3    H115350   5.752   3.947   0.894
 5131TIP3    H215351   5.748   4.096   0.921
 5132TIP3   OH215352   5.614   3.033   5.499
 5132TIP3    H115353   5.699   3.036   5.455
 5132TIP3    H215354   5.553   3.072   5.436
 5133TIP3   OH215355   4.484   5.822   5.164
 5133TIP3    H115356   4.400   5.850   5.201
 5133TIP3    H215357   4.525   5.903   5.134
 5134TIP3   OH215358   7.393   7.242   6.751
 5134TIP3    H115359   7.309   7.272   6.785
 5134TIP3    H215360   7.451   7.318   6.758
 5135TIP3   OH215361   5.164   3.681   5.079
 5135TIP3    H115362   5.105   3.754   5.061
 5135TIP3    H215363   5.106   3.609   5.102
 5136TIP3   OH215364   0.774   1.525   4.679
 5136TIP3    H115365   0.849   1.583   4.687
 5136TIP3    H215366   0.806   1.439   4.707
 5137TIP3   OH215367   2.962   5.213   6.509
 5137TIP3    H115368   2.939   5.241   6.421
 5137TIP3    H215369   2.959   5.118   6.506
 5138TIP3   OH215370   5.881   5.515   3.294
 5138TIP3    H115371   5.969   5.539   3.325
 5138TIP3    H215372   5.834   5.598   3.290
 5139TIP3   OH215373   6.970   3.065   1.806
 5139TIP3    H115374   7.021   3.143   1.781
 5139TIP3    H215375   7.010   2.993   1.757
 5140TIP3   OH215376   5.581   4.194   3.174
 5140TIP3    H115377   5.590   4.161   3.085
 5140TIP3    H215378   5.493   4.167   3.201
 5141TIP3   OH215379   7.391   3.004   6.302
 5141TIP3    H115380   7.468   2.948   6.292
 5141TIP3    H215381   7.396   3.064   6.228
 5142TIP3   OH215382   3.934   6.534   1.580
 5142TIP3    H115383   3.994   6.525   1.654
 5142TIP3    H215384   3.968   6.608   1.530
 5143TIP3   OH215385   5.176   2.199   0.972
 5143TIP3    H115386   5.137   2.233   1.052
 5143TIP3    H215387   5.101   2.174   0.917
 5144TIP3   OH215388   5.470   3.258   5.649
 5144TIP3    H115389   5.504   3.185   5.700
 5144TIP3    H215390   5.542   3.282   5.590
 5145TIP3   OH215391   5.598   2.311   3.126
 5145TIP3    H115392   5.529   2.258   3.167
 5145TIP3    H215393   5.633   2.364   3.197
 5146TIP3   OH215394   6.425   4.516   6.599
 5146TIP3    H115395   6.487   4.567   6.651
 5146TIP3    H215396   6.345   4.569   6.598
 5147TIP3   OH215397   4.811   0.919   0.344
 5147TIP3    H115398   4.743   0.891   0.283
 5147TIP3    H215399   4.893   0.906   0.295
 5148TIP3   OH215400   0.355   2.511   0.814
 5148TIP3    H115401   0.334   2.533   0.723
 5148TIP3    H215402   0.434   2.561   0.833
 5149TIP3   OH215403   6.615   3.171   2.933
 5149TIP3    H115404   6.629   3.106   2.864
 5149TIP3    H215405   6.692   3.164   2.989
 5150TIP3   OH215406   5.649   7.451   4.090
 5150TIP3    H115407   5.577   7.510   4.066
 5150TIP3    H215408   5.647   7.383   4.023
 5151TIP3   OH215409   6.484   1.637   2.163
 5151TIP3    H115410   6.513   1.561   2.213
 5151TIP3    H215411   6.557   1.656   2.104
 5152TIP3   OH215412   7.322   5.307   3.335
 5152TIP3    H115413   7.413   5.278   3.324
 5152TIP3    H215414   7.319   5.392   3.290
 5153TIP3   OH215415   2.003   7.321   6.260
 5153TIP3    H115416   2.025   7.319   6.353
 5153TIP3    H215417   1.978   7.231   6.239
 5154TIP3   OH215418   7.702   7.814   2.027
 5154TIP3    H115419   7.701   7.840   2.119
 5154TIP3    H215420   7.641   7.874   1.984
 5155TIP3   OH215421   1.852   6.923   5.148
 5155TIP3    H115422   1.868   6.985   5.077
 5155TIP3    H215423   1.780   6.961   5.197
 5156TIP3   OH215424   7.980   7.096   4.832
 5156TIP3    H115425   8.063   7.138   4.853
 5156TIP3    H215426   7.987   7.073   4.740
 5157TIP3   OH215427   7.713   5.501   2.440
 5157TIP3    H115428   7.733   5.560   2.513
 5157TIP3    H215429   7.798   5.466   2.414
 5158TIP3   OH215430   1.410   6.154   3.431
 5158TIP3    H115431   1.458   6.217   3.378
 5158TIP3    H215432   1.345   6.116   3.371
 5159TIP3   OH215433   0.463   0.182   3.001
 5159TIP3    H115434   0.491   0.256   2.946
 5159TIP3    H215435   0.447   0.111   2.938
 5160TIP3   OH215436   0.637   0.734   1.792
 5160TIP3    H115437   0.604   0.646   1.774
 5160TIP3    H215438   0.583   0.791   1.738
 5161TIP3   OH215439   0.790   4.790   2.219
 5161TIP3    H115440   0.782   4.884   2.232
 5161TIP3    H215441   0.717   4.768   2.161
 5162TIP3   OH215442   1.531   3.137   5.679
 5162TIP3    H115443   1.579   3.216   5.654
 5162TIP3    H215444   1.526   3.141   5.774
 5163TIP3   OH215445   2.957   6.766   2.212
 5163TIP3    H115446   2.902   6.689   2.200
 5163TIP3    H215447   2.904   6.824   2.267
 5164TIP3   OH215448   3.522   6.457   1.530
 5164TIP3    H115449   3.603   6.452   1.582
 5164TIP3    H215450   3.466   6.518   1.578
 5165TIP3   OH215451   1.965   0.939   6.002
 5165TIP3    H115452   1.888   0.947   5.945
 5165TIP3    H215453   1.928   0.923   6.089
 5166TIP3   OH215454   2.391   0.911   1.841
 5166TIP3    H115455   2.446   0.989   1.840
 5166TIP3    H215456   2.371   0.896   1.933
 5167TIP3   OH215457   4.895   0.036   0.664
 5167TIP3    H115458   4.885   0.083   0.747
 5167TIP3    H215459   4.887  -0.056   0.688
 5168TIP3   OH215460   7.458   7.184   3.577
 5168TIP3    H115461   7.486   7.275   3.570
 5168TIP3    H215462   7.367   7.184   3.548
 5169TIP3   OH215463   4.752   0.417   0.495
 5169TIP3    H115464   4.810   0.488   0.525
 5169TIP3    H215465   4.810   0.342   0.485
 5170TIP3   OH215466   4.725   6.261   6.055
 5170TIP3    H115467   4.711   6.322   5.983
 5170TIP3    H215468   4.746   6.178   6.012
 5171TIP3   OH215469   6.257   4.608   3.564
 5171TIP3    H115470   6.334   4.594   3.620
 5171TIP3    H215471   6.254   4.531   3.508
 5172TIP3   OH215472   0.031   6.190   3.441
 5172TIP3    H115473  -0.003   6.250   3.506
 5172TIP3    H215474   0.045   6.244   3.363
 5173TIP3   OH215475   5.696   0.336   4.498
 5173TIP3    H115476   5.686   0.334   4.403
 5173TIP3    H215477   5.650   0.415   4.525
 5174TIP3   OH215478   3.610   5.781   3.418
 5174TIP3    H115479   3.688   5.825   3.384
 5174TIP3    H215480   3.631   5.760   3.508
 5175TIP3   OH215481   2.899   6.238   2.914
 5175TIP3    H115482   2.922   6.301   2.846
 5175TIP3    H215483   2.814   6.268   2.947
 5176TIP3   OH215484   7.222   0.371   4.901
 5176TIP3    H115485   7.139   0.331   4.876
 5176TIP3    H215486   7.199   0.431   4.973
 5177TIP3   OH215487   3.299   7.363   2.924
 5177TIP3    H115488   3.339   7.283   2.892
 5177TIP3    H215489   3.355   7.433   2.892
 5178TIP3   OH215490   1.725   5.758   3.924
 5178TIP3    H115491   1.779   5.679   3.921
 5178TIP3    H215492   1.656   5.743   3.859
 5179TIP3   OH215493   5.880   3.884   2.111
 5179TIP3    H115494   5.801   3.829   2.119
 5179TIP3    H215495   5.877   3.915   2.020
 5180TIP3   OH215496   6.346   2.352   4.105
 5180TIP3    H115497   6.378   2.279   4.158
 5180TIP3    H215498   6.416   2.416   4.107
 5181TIP3   OH215499   8.275   0.996   0.831
 5181TIP3    H115500   8.209   0.938   0.792
 5181TIP3    H215501   8.261   0.987   0.926
 5182TIP3   OH215502   6.467   2.578   0.943
 5182TIP3    H115503   6.505   2.585   1.031
 5182TIP3    H215504   6.393   2.638   0.945
 5183TIP3   OH215505   3.424   4.866   1.149
 5183TIP3    H115506   3.493   4.823   1.099
 5183TIP3    H215507   3.442   4.959   1.139
 5184TIP3   OH215508   0.419   1.855   5.702
 5184TIP3    H115509   0.439   1.823   5.790
 5184TIP3    H215510   0.432   1.950   5.707
 5185TIP3   OH215511   5.667   7.301   6.515
 5185TIP3    H115512   5.736   7.368   6.514
 5185TIP3    H215513   5.618   7.318   6.595
 5186TIP3   OH215514   5.024   2.977   3.645
 5186TIP3    H115515   5.043   2.886   3.669
 5186TIP3    H215516   4.929   2.980   3.638
 5187TIP3   OH215517   4.008   5.882   6.725
 5187TIP3    H115518   4.075   5.815   6.739
 5187TIP3    H215519   3.992   5.880   6.630
 5188TIP3   OH215520   6.635   5.354   4.399
 5188TIP3    H115521   6.600   5.280   4.449
 5188TIP3    H215522   6.655   5.420   4.465
 5189TIP3   OH215523   6.077   4.849   5.447
 5189TIP3    H115524   5.997   4.896   5.427
 5189TIP3    H215525   6.146   4.900   5.405
 5190TIP3   OH215526   7.426   5.832   4.680
 5190TIP3    H115527   7.493   5.811   4.614
 5190TIP3    H215528   7.372   5.753   4.684
 5191TIP3   OH215529   6.587   2.783   3.718
 5191TIP3    H115530   6.512   2.841   3.731
 5191TIP3    H215531   6.560   2.726   3.646
 5192TIP3   OH215532   0.208   6.534   4.029
 5192TIP3    H115533   0.244   6.623   4.026
 5192TIP3    H215534   0.147   6.536   4.103
 5193TIP3   OH215535   5.581   4.041   4.556
 5193TIP3    H115536   5.639   4.116   4.569
 5193TIP3    H215537   5.547   4.022   4.644
 5194TIP3   OH215538   0.821   1.304   3.036
 5194TIP3    H115539   0.801   1.238   3.103
 5194TIP3    H215540   0.908   1.337   3.060
 5195TIP3   OH215541   1.265   1.605   2.504
 5195TIP3    H115542   1.183   1.619   2.458
 5195TIP3    H215543   1.330   1.593   2.434
 5196TIP3   OH215544   7.068   0.748   3.755
 5196TIP3    H115545   7.000   0.723   3.692
 5196TIP3    H215546   7.113   0.666   3.775
 5197TIP3   OH215547   4.558   3.047   6.565
 5197TIP3    H115548   4.523   3.099   6.637
 5197TIP3    H215549   4.611   3.109   6.514
 5198TIP3   OH215550   3.507   5.655   2.185
 5198TIP3    H115551   3.470   5.662   2.272
 5198TIP3    H215552   3.579   5.592   2.193
 5199TIP3   OH215553   7.275   5.518   3.149
 5199TIP3    H115554   7.224   5.589   3.187
 5199TIP3    H215555   7.360   5.557   3.129
 5200TIP3   OH215556   3.025   1.240   1.959
 5200TIP3    H115557   2.996   1.243   2.050
 5200TIP3    H215558   3.111   1.281   1.960
 5201TIP3   OH215559   2.939   3.944   0.474
 5201TIP3    H115560   3.000   4.019   0.479
 5201TIP3    H215561   2.854   3.984   0.459
 5202TIP3   OH215562   6.343   6.669   3.775
 5202TIP3    H115563   6.408   6.634   3.714
 5202TIP3    H215564   6.263   6.620   3.755
 5203TIP3   OH215565   4.259   2.295   1.836
 5203TIP3    H115566   4.313   2.226   1.797
 5203TIP3    H215567   4.244   2.358   1.765
 5204TIP3   OH215568   3.991   5.888   5.290
 5204TIP3    H115569   4.007   5.941   5.368
 5204TIP3    H215570   3.896   5.887   5.281
 5205TIP3   OH215571   8.021   3.854   2.747
 5205TIP3    H115572   8.044   3.777   2.695
 5205TIP3    H215573   8.024   3.823   2.838
 5206TIP3   OH215574   1.038   2.740   4.110
 5206TIP3    H115575   1.130   2.717   4.124
 5206TIP3    H215576   0.990   2.659   4.128
 5207TIP3   OH215577   1.092   0.732   3.584
 5207TIP3    H115578   1.171   0.679   3.571
 5207TIP3    H215579   1.060   0.706   3.670
 5208TIP3   OH215580   0.031   7.490   4.424
 5208TIP3    H115581   0.121   7.508   4.398
 5208TIP3    H215582  -0.005   7.575   4.450
 5209TIP3   OH215583   2.916   0.198   6.244
 5209TIP3    H115584   2.973   0.125   6.219
 5209TIP3    H215585   2.966   0.245   6.312
 5210TIP3   OH215586   0.134   5.594   1.300
 5210TIP3    H115587   0.161   5.556   1.384
 5210TIP3    H215588   0.160   5.528   1.235
 5211TIP3   OH215589   1.919   1.615   0.059
 5211TIP3    H115590   1.995   1.634   0.005
 5211TIP3    H215591   1.905   1.521   0.048
 5212TIP3   OH215592   2.463   6.087   4.192
 5212TIP3    H115593   2.541   6.122   4.235
 5212TIP3    H215594   2.494   6.055   4.108
 5213TIP3   OH215595   2.380   1.935   4.826
 5213TIP3    H115596   2.365   2.022   4.789
 5213TIP3    H215597   2.436   1.891   4.762
 5214TIP3   OH215598   0.643   3.487   1.376
 5214TIP3    H115599   0.646   3.400   1.337
 5214TIP3    H215600   0.701   3.481   1.452
 5215TIP3   OH215601   6.251   0.766   5.875
 5215TIP3    H115602   6.302   0.832   5.922
 5215TIP3    H215603   6.195   0.816   5.815
 5216TIP3   OH215604   0.444   3.656   4.165
 5216TIP3    H115605   0.409   3.634   4.251
 5216TIP3    H215606   0.536   3.677   4.181
 5217TIP3   OH215607   4.983   7.243   5.829
 5217TIP3    H115608   4.987   7.318   5.888
 5217TIP3    H215609   4.915   7.187   5.867
 5218TIP3   OH215610   6.731   6.337   5.400
 5218TIP3    H115611   6.787   6.264   5.375
 5218TIP3    H215612   6.656   6.332   5.340
 5219TIP3   OH215613   5.428   2.588   5.813
 5219TIP3    H115614   5.442   2.508   5.763
 5219TIP3    H215615   5.495   2.649   5.781
 5220TIP3   OH215616   3.141   6.861   2.834
 5220TIP3    H115617   3.211   6.888   2.893
 5220TIP3    H215618   3.118   6.773   2.863
 5221TIP3   OH215619   3.788   0.846   3.241
 5221TIP3    H115620   3.820   0.795   3.166
 5221TIP3    H215621   3.694   0.856   3.224
 5222TIP3   OH215622   5.818   1.403   1.537
 5222TIP3    H115623   5.867   1.335   1.491
 5222TIP3    H215624   5.727   1.373   1.534
 5223TIP3   OH215625   2.893   5.003   4.029
 5223TIP3    H115626   2.861   4.977   4.116
 5223TIP3    H215627   2.852   4.941   3.969
 5224TIP3   OH215628   6.246   7.325   5.121
 5224TIP3    H115629   6.319   7.328   5.060
 5224TIP3    H215630   6.228   7.232   5.133
 5225TIP3   OH215631   6.113   3.781   4.411
 5225TIP3    H115632   6.126   3.822   4.326
 5225TIP3    H215633   6.019   3.765   4.416
 5226TIP3   OH215634   8.127   2.145   3.683
 5226TIP3    H115635   8.100   2.121   3.594
 5226TIP3    H215636   8.087   2.231   3.697
 5227TIP3   OH215637   2.559   0.714   2.346
 5227TIP3    H115638   2.558   0.808   2.324
 5227TIP3    H215639   2.651   0.696   2.367
 5228TIP3   OH215640   5.629   5.296   5.362
 5228TIP3    H115641   5.610   5.216   5.412
 5228TIP3    H215642   5.604   5.367   5.420
 5229TIP3   OH215643   7.697   3.815   4.145
 5229TIP3    H115644   7.632   3.750   4.116
 5229TIP3    H215645   7.659   3.852   4.225
 5230TIP3   OH215646   3.435   0.248   6.351
 5230TIP3    H115647   3.511   0.286   6.395
 5230TIP3    H215648   3.468   0.168   6.311
 5231TIP3   OH215649   4.882   1.211   4.045
 5231TIP3    H115650   4.967   1.168   4.042
 5231TIP3    H215651   4.854   1.203   4.136
 5232TIP3   OH215652   2.855   3.647   5.355
 5232TIP3    H115653   2.825   3.737   5.343
 5232TIP3    H215654   2.913   3.651   5.431
 5233TIP3   OH215655   2.940   3.779   3.394
 5233TIP3    H115656   3.035   3.776   3.403
 5233TIP3    H215657   2.915   3.863   3.433
 5234TIP3   OH215658   3.966   5.040   6.311
 5234TIP3    H115659   3.936   5.044   6.220
 5234TIP3    H215660   4.000   4.950   6.321
 5235TIP3   OH215661   4.789   5.834   5.386
 5235TIP3    H115662   4.737   5.870   5.458
 5235TIP3    H215663   4.839   5.909   5.354
 5236TIP3   OH215664   0.794   2.986   2.835
 5236TIP3    H115665   0.702   2.971   2.856
 5236TIP3    H215666   0.800   2.969   2.741
 5237TIP3   OH215667   3.588   0.943   6.289
 5237TIP3    H115668   3.525   0.936   6.360
 5237TIP3    H215669   3.670   0.910   6.325
 5238TIP3   OH215670   5.287   5.951   5.361
 5238TIP3    H115671   5.292   5.934   5.455
 5238TIP3    H215672   5.217   6.016   5.352
 5239TIP3   OH215673   5.486   5.739   5.326
 5239TIP3    H115674   5.436   5.816   5.299
 5239TIP3    H215675   5.573   5.774   5.346
 5240TIP3   OH215676   1.945   3.080   5.518
 5240TIP3    H115677   1.850   3.079   5.520
 5240TIP3    H215678   1.970   3.148   5.581
 5241TIP3   OH215679   5.516   1.738   0.575
 5241TIP3    H115680   5.547   1.659   0.531
 5241TIP3    H215681   5.470   1.787   0.507
 5242TIP3   OH215682   6.170   0.333   3.365
 5242TIP3    H115683   6.125   0.292   3.439
 5242TIP3    H215684   6.209   0.260   3.317
 5243TIP3   OH215685   3.039   7.271   5.178
 5243TIP3    H115686   2.953   7.281   5.138
 5243TIP3    H215687   3.023   7.219   5.257
 5244TIP3   OH215688   2.002   4.526   4.465
 5244TIP3    H115689   2.076   4.487   4.420
 5244TIP3    H215690   1.995   4.478   4.547
 5245TIP3   OH215691   4.686   4.484   1.357
 5245TIP3    H115692   4.618   4.446   1.413
 5245TIP3    H215693   4.720   4.410   1.307
 5246TIP3   OH215694   5.392   0.069   2.957
 5246TIP3    H115695   5.317   0.127   2.949
 5246TIP3    H215696   5.380   0.023   3.040
 5247TIP3   OH215697   5.251   0.944   5.427
 5247TIP3    H115698   5.215   0.940   5.516
 5247TIP3    H215699   5.335   0.899   5.433
 5248TIP3   OH215700   5.252   4.305   6.663
 5248TIP3    H115701   5.331   4.349   6.694
 5248TIP3    H215702   5.271   4.283   6.572
 5249TIP3   OH215703   2.799   4.662   4.264
 5249TIP3    H115704   2.879   4.609   4.254
 5249TIP3    H215705   2.766   4.672   4.175
 5250TIP3   OH215706   4.663   7.327   0.856
 5250TIP3    H115707   4.596   7.319   0.924
 5250TIP3    H215708   4.613   7.340   0.775
 5251TIP3   OH215709   3.926   3.916   6.651
 5251TIP3    H115710   3.905   3.824   6.667
 5251TIP3    H215711   3.973   3.916   6.568
 5252TIP3   OH215712   6.271   1.680   0.035
 5252TIP3    H115713   6.351   1.631   0.014
 5252TIP3    H215714   6.202   1.636  -0.016
 5253TIP3   OH215715   6.850   3.867   6.486
 5253TIP3    H115716   6.803   3.816   6.552
 5253TIP3    H215717   6.912   3.920   6.536
 5254TIP3   OH215718   4.557   6.336   6.272
 5254TIP3    H115719   4.603   6.307   6.193
 5254TIP3    H215720   4.465   6.314   6.256
 5255TIP3   OH215721   7.691   2.554   1.903
 5255TIP3    H115722   7.609   2.604   1.902
 5255TIP3    H215723   7.687   2.498   1.826
 5256TIP3   OH215724   2.474   7.441   3.230
 5256TIP3    H115725   2.503   7.411   3.316
 5256TIP3    H215726   2.526   7.521   3.214
 5257TIP3   OH215727   6.123   6.995   4.867
 5257TIP3    H115728   6.056   7.019   4.931
 5257TIP3    H215729   6.086   6.918   4.823
 5258TIP3   OH215730   7.708   1.665   3.512
 5258TIP3    H115731   7.735   1.711   3.591
 5258TIP3    H215732   7.711   1.731   3.443
 5259TIP3   OH215733   8.170   5.736   4.498
 5259TIP3    H115734   8.109   5.808   4.481
 5259TIP3    H215735   8.134   5.661   4.451
 5260TIP3   OH215736   6.846   4.936   5.726
 5260TIP3    H115737   6.927   4.943   5.677
 5260TIP3    H215738   6.779   4.915   5.661
 5261TIP3   OH215739   1.329   3.613   3.127
 5261TIP3    H115740   1.376   3.617   3.044
 5261TIP3    H215741   1.240   3.641   3.106
 5262TIP3   OH215742   5.542   2.741   5.477
 5262TIP3    H115743   5.596   2.820   5.471
 5262TIP3    H215744   5.454   2.773   5.493
 5263TIP3   OH215745   6.643   0.686   2.699
 5263TIP3    H115746   6.720   0.727   2.738
 5263TIP3    H215747   6.594   0.759   2.660
 5264TIP3   OH215748   3.798   3.813   5.542
 5264TIP3    H115749   3.791   3.725   5.580
 5264TIP3    H215750   3.710   3.851   5.551
 5265TIP3   OH215751   3.431   6.269   0.568
 5265TIP3    H115752   3.407   6.221   0.647
 5265TIP3    H215753   3.382   6.226   0.498
 5266TIP3   OH215754   3.764   7.000   0.519
 5266TIP3    H115755   3.855   6.979   0.497
 5266TIP3    H215756   3.716   6.919   0.503
 5267TIP3   OH215757   0.786   2.149   5.620
 5267TIP3    H115758   0.829   2.124   5.702
 5267TIP3    H215759   0.855   2.144   5.554
 5268TIP3   OH215760   4.894   1.565   6.273
 5268TIP3    H115761   4.815   1.618   6.263
 5268TIP3    H215762   4.863   1.475   6.280
 5269TIP3   OH215763   5.174   4.782   4.134
 5269TIP3    H115764   5.133   4.720   4.075
 5269TIP3    H215765   5.106   4.802   4.199
 5270TIP3   OH215766   6.863   5.673   5.441
 5270TIP3    H115767   6.869   5.737   5.512
 5270TIP3    H215768   6.817   5.719   5.371
 5271TIP3   OH215769   7.914   3.176   1.978
 5271TIP3    H115770   7.876   3.202   1.894
 5271TIP3    H215771   8.005   3.155   1.958
 5272TIP3   OH215772   1.319   7.199   5.330
 5272TIP3    H115773   1.231   7.228   5.306
 5272TIP3    H215774   1.324   7.108   5.301
 5273TIP3   OH215775   4.558   0.721   5.408
 5273TIP3    H115776   4.463   0.725   5.413
 5273TIP3    H215777   4.583   0.649   5.464
 5274TIP3   OH215778   1.599   1.488   4.835
 5274TIP3    H115779   1.539   1.481   4.761
 5274TIP3    H215780   1.544   1.520   4.907
 5275TIP3   OH215781   6.063   7.487   4.968
 5275TIP3    H115782   6.046   7.431   4.892
 5275TIP3    H215783   6.120   7.434   5.024
 5276TIP3   OH215784   0.083   0.707   3.008
 5276TIP3    H115785   0.157   0.766   2.991
 5276TIP3    H215786   0.110   0.623   2.970
 5277TIP3   OH215787   1.014   7.702   2.433
 5277TIP3    H115788   0.922   7.720   2.455
 5277TIP3    H215789   1.012   7.666   2.345
 5278TIP3   OH215790   1.148   3.160   2.760
 5278TIP3    H115791   1.219   3.097   2.768
 5278TIP3    H215792   1.141   3.176   2.666
 5279TIP3   OH215793   2.107   1.209   3.919
 5279TIP3    H115794   2.066   1.288   3.884
 5279TIP3    H215795   2.201   1.223   3.908
 5280TIP3   OH215796   1.234   0.791   0.218
 5280TIP3    H115797   1.312   0.799   0.273
 5280TIP3    H215798   1.268   0.765   0.132
 5281TIP3   OH215799   7.971   6.248   0.720
 5281TIP3    H115800   8.024   6.284   0.649
 5281TIP3    H215801   7.978   6.313   0.790
 5282TIP3   OH215802   0.972   6.286   4.495
 5282TIP3    H115803   0.939   6.375   4.508
 5282TIP3    H215804   0.962   6.244   4.580
 5283TIP3   OH215805   4.440   3.816   3.129
 5283TIP3    H115806   4.460   3.841   3.039
 5283TIP3    H215807   4.436   3.720   3.127
 5284TIP3   OH215808   7.793   0.068   1.708
 5284TIP3    H115809   7.867   0.101   1.759
 5284TIP3    H215810   7.820  -0.019   1.679
 5285TIP3   OH215811   6.489   0.398   1.280
 5285TIP3    H115812   6.425   0.457   1.318
 5285TIP3    H215813   6.573   0.442   1.291
 5286TIP3   OH215814   4.103   2.066   1.130
 5286TIP3    H115815   4.112   2.156   1.162
 5286TIP3    H215816   4.070   2.017   1.205
 5287TIP3   OH215817   0.804   3.833   0.550
 5287TIP3    H115818   0.860   3.896   0.596
 5287TIP3    H215819   0.861   3.795   0.483
 5288TIP3   OH215820   1.746   7.675   2.107
 5288TIP3    H115821   1.748   7.691   2.201
 5288TIP3    H215822   1.673   7.615   2.094
 5289TIP3   OH215823   7.824   6.279   4.278
 5289TIP3    H115824   7.844   6.356   4.225
 5289TIP3    H215825   7.905   6.262   4.327
 5290TIP3   OH215826   4.976   4.604   2.775
 5290TIP3    H115827   4.987   4.509   2.770
 5290TIP3    H215828   5.063   4.637   2.793
 5291TIP3   OH215829   6.440   6.680   4.028
 5291TIP3    H115830   6.414   6.701   3.939
 5291TIP3    H215831   6.503   6.748   4.051
 5292TIP3   OH215832   3.193   7.796   5.905
 5292TIP3    H115833   3.204   7.759   5.817
 5292TIP3    H215834   3.114   7.753   5.939
 5293TIP3   OH215835   6.295   7.631   5.548
 5293TIP3    H115836   6.296   7.726   5.555
 5293TIP3    H215837   6.298   7.613   5.454
 5294TIP3   OH215838   8.059   7.611   4.231
 5294TIP3    H115839   7.972   7.644   4.209
 5294TIP3    H215840   8.056   7.518   4.207
 5295TIP3   OH215841   5.463   6.302   3.999
 5295TIP3    H115842   5.386   6.254   3.970
 5295TIP3    H215843   5.429   6.370   4.057
 5296TIP3   OH215844   3.799   5.534   0.482
 5296TIP3    H115845   3.786   5.571   0.394
 5296TIP3    H215846   3.793   5.439   0.469
 5297TIP3   OH215847   2.134   5.054   4.537
 5297TIP3    H115848   2.137   4.958   4.541
 5297TIP3    H215849   2.173   5.082   4.620
 5298TIP3   OH215850   5.080   0.289   0.930
 5298TIP3    H115851   5.108   0.219   0.988
 5298TIP3    H215852   4.987   0.271   0.913
 5299TIP3   OH215853   7.298   6.274   1.130
 5299TIP3    H115854   7.277   6.300   1.220
 5299TIP3    H215855   7.387   6.241   1.135
 5300TIP3   OH215856   3.650   3.746   2.726
 5300TIP3    H115857   3.660   3.841   2.722
 5300TIP3    H215858   3.641   3.720   2.634
 5301TIP3   OH215859   1.443   2.517   1.229
 5301TIP3    H115860   1.381   2.583   1.198
 5301TIP3    H215861   1.486   2.558   1.304
 5302TIP3   OH215862   0.887   2.591   5.103
 5302TIP3    H115863   0.965   2.640   5.127
 5302TIP3    H215864   0.894   2.509   5.151
 5303TIP3   OH215865   6.491   1.842   4.185
 5303TIP3    H115866   6.528   1.878   4.104
 5303TIP3    H215867   6.407   1.805   4.159
 5304TIP3   OH215868   1.980   7.067   6.147
 5304TIP3    H115869   1.961   7.014   6.225
 5304TIP3    H215870   2.066   7.036   6.118
 5305TIP3   OH215871   4.059   7.450   1.061
 5305TIP3    H115872   3.965   7.439   1.051
 5305TIP3    H215873   4.069   7.526   1.118
 5306TIP3   OH215874   2.486   5.026   0.323
 5306TIP3    H115875   2.449   5.083   0.256
 5306TIP3    H215876   2.549   4.971   0.276
 5307TIP3   OH215877   3.253   5.951   5.437
 5307TIP3    H115878   3.168   5.920   5.406
 5307TIP3    H215879   3.232   6.029   5.489
 5308TIP3   OH215880   3.314   1.718   4.181
 5308TIP3    H115881   3.294   1.640   4.129
 5308TIP3    H215882   3.406   1.707   4.205
 5309TIP3   OH215883   3.536   6.231   1.866
 5309TIP3    H115884   3.609   6.290   1.846
 5309TIP3    H215885   3.576   6.160   1.916
 5310TIP3   OH215886   5.855   3.712   5.636
 5310TIP3    H115887   5.794   3.742   5.703
 5310TIP3    H215888   5.847   3.776   5.566
 5311TIP3   OH215889   7.989   5.484   3.959
 5311TIP3    H115890   7.978   5.432   4.038
 5311TIP3    H215891   7.912   5.461   3.905
 5312TIP3   OH215892   8.160   0.296   4.812
 5312TIP3    H115893   8.205   0.301   4.896
 5312TIP3    H215894   8.067   0.303   4.834
 5313TIP3   OH215895   8.214   0.709   4.396
 5313TIP3    H115896   8.232   0.616   4.385
 5313TIP3    H215897   8.128   0.722   4.357
 5314TIP3   OH215898   7.388   2.263   4.083
 5314TIP3    H115899   7.386   2.355   4.055
 5314TIP3    H215900   7.467   2.257   4.137
 5315TIP3   OH215901   8.078   1.586   1.288
 5315TIP3    H115902   8.039   1.506   1.253
 5315TIP3    H215903   8.126   1.556   1.365
 5316TIP3   OH215904   7.065   0.938   0.814
 5316TIP3    H115905   6.977   0.947   0.779
 5316TIP3    H215906   7.122   0.941   0.738
 5317TIP3   OH215907   6.530   7.478   3.581
 5317TIP3    H115908   6.575   7.459   3.498
 5317TIP3    H215909   6.488   7.563   3.565
 5318TIP3   OH215910   0.049   0.838   5.709
 5318TIP3    H115911   0.134   0.798   5.694
 5318TIP3    H215912   0.039   0.838   5.804
 5319TIP3   OH215913   3.360   4.631   1.951
 5319TIP3    H115914   3.304   4.555   1.940
 5319TIP3    H215915   3.302   4.700   1.983
 5320TIP3   OH215916   1.176   0.127   6.659
 5320TIP3    H115917   1.155   0.038   6.630
 5320TIP3    H215918   1.220   0.115   6.743
 5321TIP3   OH215919   0.154   7.125   6.228
 5321TIP3    H115920   0.117   7.145   6.142
 5321TIP3    H215921   0.247   7.111   6.212
 5322TIP3   OH215922   1.003   0.375   1.780
 5322TIP3    H115923   0.957   0.403   1.701
 5322TIP3    H215924   1.082   0.429   1.782
 5323TIP3   OH215925   5.643   6.294   1.436
 5323TIP3    H115926   5.636   6.207   1.476
 5323TIP3    H215927   5.620   6.355   1.507
 5324TIP3   OH215928   4.275   3.168   6.033
 5324TIP3    H115929   4.208   3.110   6.070
 5324TIP3    H215930   4.226   3.231   5.980
 5325TIP3   OH215931   6.558   2.955   0.744
 5325TIP3    H115932   6.621   2.929   0.812
 5325TIP3    H215933   6.551   3.050   0.753
 5326TIP3   OH215934   2.954   3.956   6.298
 5326TIP3    H115935   3.005   4.002   6.365
 5326TIP3    H215936   2.956   4.015   6.223
 5327TIP3   OH215937   6.845   3.664   3.919
 5327TIP3    H115938   6.781   3.674   3.989
 5327TIP3    H215939   6.929   3.657   3.965
 5328TIP3   OH215940   0.939   3.646   0.796
 5328TIP3    H115941   0.889   3.585   0.742
 5328TIP3    H215942   1.029   3.639   0.763
 5329TIP3   OH215943   2.685   0.452   3.011
 5329TIP3    H115944   2.753   0.395   2.975
 5329TIP3    H215945   2.725   0.491   3.088
 5330TIP3   OH215946   4.427   5.476   5.746
 5330TIP3    H115947   4.380   5.552   5.782
 5330TIP3    H215948   4.358   5.422   5.706
 5331TIP3   OH215949   4.055   2.686   0.017
 5331TIP3    H115950   4.032   2.600   0.051
 5331TIP3    H215951   4.069   2.740   0.096
 5332TIP3   OH215952   2.734   6.065   5.490
 5332TIP3    H115953   2.709   6.017   5.569
 5332TIP3    H215954   2.725   6.002   5.419
 5333TIP3   OH215955   4.523   7.308   0.077
 5333TIP3    H115956   4.510   7.248   0.003
 5333TIP3    H215957   4.525   7.395   0.038
 5334TIP3   OH215958   7.748   4.309   3.583
 5334TIP3    H115959   7.794   4.362   3.517
 5334TIP3    H215960   7.789   4.223   3.579
 5335TIP3   OH215961   7.035   2.974   5.297
 5335TIP3    H115962   7.092   2.994   5.222
 5335TIP3    H215963   6.946   2.985   5.263
 5336TIP3   OH215964   0.216   3.405   1.175
 5336TIP3    H115965   0.195   3.336   1.112
 5336TIP3    H215966   0.279   3.461   1.129
 5337TIP3   OH215967   0.207   5.536   3.522
 5337TIP3    H115968   0.115   5.528   3.548
 5337TIP3    H215969   0.256   5.518   3.602
 5338TIP3   OH215970   6.203   5.941   4.451
 5338TIP3    H115971   6.155   6.021   4.427
 5338TIP3    H215972   6.282   5.943   4.397
 5339TIP3   OH215973   2.126   5.777   1.144
 5339TIP3    H115974   2.058   5.835   1.179
 5339TIP3    H215975   2.079   5.710   1.096
 5340TIP3   OH215976   1.335   2.824   0.385
 5340TIP3    H115977   1.376   2.879   0.452
 5340TIP3    H215978   1.277   2.883   0.337
 5341TIP3   OH215979   4.769   1.733   0.189
 5341TIP3    H115980   4.787   1.687   0.107
 5341TIP3    H215981   4.739   1.665   0.249
 5342TIP3   OH215982   4.564   6.866   2.376
 5342TIP3    H115983   4.565   6.962   2.383
 5342TIP3    H215984   4.473   6.842   2.394
 5343TIP3   OH215985   4.910   0.606   4.343
 5343TIP3    H115986   4.832   0.626   4.393
 5343TIP3    H215987   4.878   0.583   4.256
 5344TIP3   OH215988   2.681   5.876   3.062
 5344TIP3    H115989   2.761   5.922   3.089
 5344TIP3    H215990   2.665   5.905   2.973
 5345TIP3   OH215991   2.992   1.676   3.953
 5345TIP3    H115992   3.052   1.604   3.969
 5345TIP3    H215993   2.905   1.638   3.970
 5346TIP3   OH215994   5.449   2.642   5.215
 5346TIP3    H115995   5.419   2.595   5.294
 5346TIP3    H215996   5.374   2.639   5.156
 5347TIP3   OH215997   7.725   6.083   2.851
 5347TIP3    H115998   7.768   5.998   2.847
 5347TIP3    H215999   7.635   6.064   2.879
 5348TIP3   OH216000   1.737   6.368   5.546
 5348TIP3    H116001   1.762   6.283   5.583
 5348TIP3    H216002   1.667   6.399   5.603
 5349TIP3   OH216003   0.281   7.409   6.744
 5349TIP3    H116004   0.360   7.359   6.722
 5349TIP3    H216005   0.218   7.386   6.676
 5350TIP3   OH216006   3.105   7.777   3.300
 5350TIP3    H116007   3.075   7.843   3.363
 5350TIP3    H216008   3.187   7.745   3.336
 5351TIP3   OH216009   1.498   2.050   2.532
 5351TIP3    H116010   1.589   2.067   2.508
 5351TIP3    H216011   1.479   1.964   2.494
 5352TIP3   OH216012   2.029   0.397   4.293
 5352TIP3    H116013   1.936   0.410   4.274
 5352TIP3    H216014   2.030   0.354   4.378
 5353TIP3   OH216015   8.154   1.500   4.691
 5353TIP3    H116016   8.059   1.499   4.676
 5353TIP3    H216017   8.183   1.585   4.659
 5354TIP3   OH216018   6.649   7.291   3.767
 5354TIP3    H116019   6.655   7.333   3.853
 5354TIP3    H216020   6.609   7.358   3.712
 5355TIP3   OH216021   3.846   2.812   1.711
 5355TIP3    H116022   3.846   2.897   1.666
 5355TIP3    H216023   3.755   2.801   1.740
 5356TIP3   OH216024   5.510   2.857   4.945
 5356TIP3    H116025   5.527   2.852   4.851
 5356TIP3    H216026   5.596   2.851   4.986
 5357TIP3   OH216027   2.406   3.620   0.349
 5357TIP3    H116028   2.376   3.661   0.268
 5357TIP3    H216029   2.372   3.531   0.346
 5358TIP3   OH216030   5.440   0.179   0.675
 5358TIP3    H116031   5.347   0.156   0.679
 5358TIP3    H216032   5.441   0.274   0.689
 5359TIP3   OH216033   6.321   0.252   0.746
 5359TIP3    H116034   6.400   0.198   0.756
 5359TIP3    H216035   6.331   0.292   0.660
 5360TIP3   OH216036   1.815   2.233   5.715
 5360TIP3    H116037   1.839   2.323   5.696
 5360TIP3    H216038   1.766   2.204   5.638
 5361TIP3   OH216039   3.405   2.032   6.108
 5361TIP3    H116040   3.346   2.027   6.182
 5361TIP3    H216041   3.378   1.961   6.050
 5362TIP3   OH216042   8.294   3.431   6.470
 5362TIP3    H116043   8.352   3.433   6.546
 5362TIP3    H216044   8.241   3.510   6.478
 5363TIP3   OH216045   4.871   2.079   6.136
 5363TIP3    H116046   4.815   2.007   6.107
 5363TIP3    H216047   4.811   2.153   6.146
 5364TIP3   OH216048   4.034   4.378   6.593
 5364TIP3    H116049   4.057   4.425   6.673
 5364TIP3    H216050   3.995   4.445   6.537
 5365TIP3   OH216051   4.819   4.744   5.749
 5365TIP3    H116052   4.760   4.767   5.677
 5365TIP3    H216053   4.810   4.817   5.810
 5366TIP3   OH216054   2.492   4.069   4.034
 5366TIP3    H116055   2.398   4.068   4.019
 5366TIP3    H216056   2.531   4.051   3.948
 5367TIP3   OH216057   2.027   0.449  -0.002
 5367TIP3    H116058   1.998   0.382   0.061
 5367TIP3    H216059   2.122   0.446   0.002
 5368TIP3   OH216060   2.724   0.474   6.441
 5368TIP3    H116061   2.809   0.436   6.418
 5368TIP3    H216062   2.669   0.459   6.365
 5369TIP3   OH216063   3.669   4.917   0.049
 5369TIP3    H116064   3.699   4.934  -0.041
 5369TIP3    H216065   3.734   4.857   0.085
 5370TIP3   OH216066   2.019   5.307   2.509
 5370TIP3    H116067   1.994   5.328   2.419
 5370TIP3    H216068   2.011   5.211   2.515
 5371TIP3   OH216069   0.101   7.460   2.099
 5371TIP3    H116070   0.190   7.486   2.076
 5371TIP3    H216071   0.060   7.436   2.016
 5372TIP3   OH216072   7.146   1.340   5.971
 5372TIP3    H116073   7.112   1.384   6.049
 5372TIP3    H216074   7.183   1.258   6.003
 5373TIP3   OH216075   7.637   4.984   3.868
 5373TIP3    H116076   7.687   4.906   3.895
 5373TIP3    H216077   7.547   4.964   3.895
 5374TIP3   OH216078   5.809   3.145   4.848
 5374TIP3    H116079   5.731   3.198   4.833
 5374TIP3    H216080   5.778   3.054   4.843
 5375TIP3   OH216081   3.190   3.076   1.656
 5375TIP3    H116082   3.159   3.092   1.566
 5375TIP3    H216083   3.119   3.108   1.711
 5376TIP3   OH216084   7.225   0.359   2.754
 5376TIP3    H116085   7.176   0.277   2.765
 5376TIP3    H216086   7.169   0.413   2.698
 5377TIP3   OH216087   7.304   7.526   6.306
 5377TIP3    H116088   7.391   7.546   6.273
 5377TIP3    H216089   7.315   7.447   6.359
 5378TIP3   OH216090   2.816   7.414   0.166
 5378TIP3    H116091   2.899   7.453   0.194
 5378TIP3    H216092   2.840   7.332   0.123
 5379TIP3   OH216093   5.661   0.291   5.375
 5379TIP3    H116094   5.576   0.314   5.338
 5379TIP3    H216095   5.719   0.287   5.299
 5380TIP3   OH216096   0.691   3.418   3.112
 5380TIP3    H116097   0.659   3.333   3.145
 5380TIP3    H216098   0.713   3.402   3.021
 5381TIP3   OH216099   2.750   3.975   6.505
 5381TIP3    H116100   2.824   3.953   6.448
 5381TIP3    H216101   2.692   4.028   6.450
 5382TIP3   OH216102   1.480   6.365   1.817
 5382TIP3    H116103   1.571   6.377   1.844
 5382TIP3    H216104   1.433   6.435   1.861
 5383TIP3   OH216105   3.671   4.852   5.080
 5383TIP3    H116106   3.688   4.916   5.012
 5383TIP3    H216107   3.693   4.897   5.162
 5384TIP3   OH216108   3.559   2.869   0.234
 5384TIP3    H116109   3.564   2.964   0.226
 5384TIP3    H216110   3.520   2.840   0.151
 5385TIP3   OH216111   3.672   7.286   2.559
 5385TIP3    H116112   3.658   7.212   2.500
 5385TIP3    H216113   3.606   7.350   2.533
 5386TIP3   OH216114   5.305   4.233   6.399
 5386TIP3    H116115   5.380   4.173   6.396
 5386TIP3    H216116   5.229   4.177   6.388
 5387TIP3   OH216117   0.260   1.658   0.193
 5387TIP3    H116118   0.287   1.567   0.207
 5387TIP3    H216119   0.171   1.662   0.229
 5388TIP3   OH216120   5.602   2.045   2.177
 5388TIP3    H116121   5.592   2.069   2.270
 5388TIP3    H216122   5.519   2.072   2.137
 5389TIP3   OH216123   3.416   3.826   5.313
 5389TIP3    H116124   3.506   3.856   5.327
 5389TIP3    H216125   3.424   3.746   5.261
 5390TIP3   OH216126   4.299   0.093   0.084
 5390TIP3    H116127   4.220   0.069   0.133
 5390TIP3    H216128   4.324   0.179   0.118
 5391TIP3   OH216129   6.751   5.166   0.541
 5391TIP3    H116130   6.801   5.102   0.491
 5391TIP3    H216131   6.701   5.214   0.475
 5392TIP3   OH216132   6.695   2.371   5.492
 5392TIP3    H116133   6.602   2.359   5.478
 5392TIP3    H216134   6.729   2.282   5.506
 5393TIP3   OH216135   6.941   7.331   0.482
 5393TIP3    H116136   6.879   7.326   0.555
 5393TIP3    H216137   6.918   7.257   0.426
 5394TIP3   OH216138   4.563   3.900   6.267
 5394TIP3    H116139   4.482   3.929   6.308
 5394TIP3    H216140   4.631   3.957   6.304
 5395TIP3   OH216141   3.207   2.651   6.253
 5395TIP3    H116142   3.189   2.716   6.186
 5395TIP3    H216143   3.120   2.626   6.286
 5396TIP3   OH216144   7.223   6.528   4.961
 5396TIP3    H116145   7.191   6.438   4.950
 5396TIP3    H216146   7.272   6.525   5.044
 5397TIP3   OH216147   6.751   6.303   6.282
 5397TIP3    H116148   6.663   6.340   6.288
 5397TIP3    H216149   6.737   6.212   6.258
 5398TIP3   OH216150   2.401   1.436   6.443
 5398TIP3    H116151   2.428   1.508   6.386
 5398TIP3    H216152   2.456   1.362   6.417
 5399TIP3   OH216153   3.351   3.266   1.417
 5399TIP3    H116154   3.261   3.237   1.402
 5399TIP3    H216155   3.404   3.210   1.361
 5400TIP3   OH216156   7.586   3.313   2.568
 5400TIP3    H116157   7.521   3.351   2.627
 5400TIP3    H216158   7.537   3.287   2.491
 5401TIP3   OH216159   4.388   4.714   3.929
 5401TIP3    H116160   4.320   4.767   3.885
 5401TIP3    H216161   4.462   4.774   3.939
 5402TIP3   OH216162   7.514   6.218   1.539
 5402TIP3    H116163   7.424   6.209   1.507
 5402TIP3    H216164   7.530   6.137   1.589
 5403TIP3   OH216165   4.321   0.886   5.549
 5403TIP3    H116166   4.271   0.888   5.467
 5403TIP3    H216167   4.259   0.913   5.616
 5404TIP3   OH216168   6.547   5.321   0.746
 5404TIP3    H116169   6.608   5.261   0.790
 5404TIP3    H216170   6.551   5.296   0.654
 5405TIP3   OH216171   1.880   3.653   1.931
 5405TIP3    H116172   1.826   3.624   1.858
 5405TIP3    H216173   1.869   3.748   1.932
 5406TIP3   OH216174   4.507   4.754   6.604
 5406TIP3    H116175   4.587   4.776   6.653
 5406TIP3    H216176   4.504   4.659   6.605
 5407TIP3   OH216177   8.184   3.715   6.393
 5407TIP3    H116178   8.105   3.769   6.386
 5407TIP3    H216179   8.192   3.674   6.307
 5408TIP3   OH216180   3.975   4.787   6.410
 5408TIP3    H116181   3.969   4.750   6.322
 5408TIP3    H216182   3.921   4.729   6.465
 5409TIP3   OH216183   5.442   1.525   2.803
 5409TIP3    H116184   5.537   1.521   2.791
 5409TIP3    H216185   5.407   1.524   2.714
 5410TIP3   OH216186   5.819   1.881   5.158
 5410TIP3    H116187   5.744   1.938   5.143
 5410TIP3    H216188   5.787   1.814   5.218
 5411TIP3   OH216189   5.118   6.655   5.558
 5411TIP3    H116190   5.132   6.562   5.541
 5411TIP3    H216191   5.033   6.674   5.519
 5412TIP3   OH216192   3.478   0.420   0.623
 5412TIP3    H116193   3.431   0.360   0.681
 5412TIP3    H216194   3.432   0.414   0.539
 5413TIP3   OH216195   0.884   7.726   5.295
 5413TIP3    H116196   0.882   7.794   5.363
 5413TIP3    H216197   0.833   7.763   5.223
 5414TIP3   OH216198   4.068   3.373   0.848
 5414TIP3    H116199   4.069   3.421   0.765
 5414TIP3    H216200   3.975   3.363   0.868
 5415TIP3   OH216201   1.690   7.244   5.609
 5415TIP3    H116202   1.621   7.199   5.562
 5415TIP3    H216203   1.733   7.175   5.660
 5416TIP3   OH216204   3.912   3.732   2.905
 5416TIP3    H116205   3.855   3.737   2.828
 5416TIP3    H216206   3.995   3.768   2.875
 5417TIP3   OH216207   0.853   5.693   1.915
 5417TIP3    H116208   0.831   5.760   1.850
 5417TIP3    H216209   0.786   5.626   1.904
 5418TIP3   OH216210   6.787   0.901   6.008
 5418TIP3    H116211   6.851   0.957   6.051
 5418TIP3    H216212   6.793   0.924   5.915
 5419TIP3   OH216213   6.814   3.239   6.289
 5419TIP3    H116214   6.843   3.213   6.202
 5419TIP3    H216215   6.756   3.314   6.273
 5420TIP3   OH216216   1.736   3.260   0.991
 5420TIP3    H116217   1.700   3.333   1.041
 5420TIP3    H216218   1.826   3.285   0.973
 5421TIP3   OH216219   7.567   5.223   6.130
 5421TIP3    H116220   7.597   5.214   6.220
 5421TIP3    H216221   7.582   5.137   6.090
 5422TIP3   OH216222   3.629   7.034   2.432
 5422TIP3    H116223   3.581   6.993   2.360
 5422TIP3    H216224   3.713   6.988   2.434
 5423TIP3   OH216225   5.626   4.056   2.213
 5423TIP3    H116226   5.618   3.966   2.180
 5423TIP3    H216227   5.581   4.053   2.298
 5424TIP3   OH216228   5.011   6.763   6.618
 5424TIP3    H116229   5.057   6.824   6.676
 5424TIP3    H216230   5.080   6.726   6.563
 5425TIP3   OH216231   6.428   1.269   2.357
 5425TIP3    H116232   6.355   1.330   2.346
 5425TIP3    H216233   6.507   1.322   2.348
 5426TIP3   OH216234   7.604   1.503   2.365
 5426TIP3    H116235   7.584   1.501   2.272
 5426TIP3    H216236   7.539   1.562   2.403
 5427TIP3   OH216237   4.886   3.193   0.901
 5427TIP3    H116238   4.834   3.221   0.826
 5427TIP3    H216239   4.821   3.174   0.969
 5428TIP3   OH216240   4.961   3.403   6.636
 5428TIP3    H116241   5.012   3.322   6.626
 5428TIP3    H216242   5.023   3.465   6.675
 5429TIP3   OH216243   1.468   4.540   1.784
 5429TIP3    H116244   1.403   4.519   1.716
 5429TIP3    H216245   1.535   4.590   1.738
 5430TIP3   OH216246   7.610   0.490   4.759
 5430TIP3    H116247   7.608   0.556   4.690
 5430TIP3    H216248   7.629   0.540   4.839
 5431TIP3   OH216249   3.490   3.656   5.660
 5431TIP3    H116250   3.575   3.613   5.657
 5431TIP3    H216251   3.439   3.605   5.723
 5432TIP3   OH216252   4.161   3.118   2.991
 5432TIP3    H116253   4.190   3.060   3.062
 5432TIP3    H216254   4.242   3.146   2.949
 5433TIP3   OH216255   5.068   5.444   2.032
 5433TIP3    H116256   5.049   5.350   2.033
 5433TIP3    H216257   5.146   5.452   1.977
 5434TIP3   OH216258   7.216   7.065   0.026
 5434TIP3    H116259   7.153   6.994   0.039
 5434TIP3    H216260   7.162   7.145   0.024
 5435TIP3   OH216261   6.409   4.583   3.804
 5435TIP3    H116262   6.357   4.600   3.883
 5435TIP3    H216263   6.473   4.655   3.802
 5436TIP3   OH216264   7.627   4.790   3.222
 5436TIP3    H116265   7.633   4.832   3.136
 5436TIP3    H216266   7.686   4.841   3.277
 5437TIP3   OH216267   4.342   5.089   2.702
 5437TIP3    H116268   4.398   5.112   2.776
 5437TIP3    H216269   4.392   5.023   2.654
 5438TIP3   OH216270   7.039   4.517   4.964
 5438TIP3    H116271   7.113   4.530   4.905
 5438TIP3    H216272   7.074   4.467   5.037
 5439TIP3   OH216273   4.722   4.951   6.431
 5439TIP3    H116274   4.666   4.889   6.383
 5439TIP3    H216275   4.662   4.998   6.489
 5440TIP3   OH216276   2.601   2.428   1.991
 5440TIP3    H116277   2.665   2.357   1.988
 5440TIP3    H216278   2.634   2.491   1.926
 5441TIP3   OH216279   7.614   3.336   5.747
 5441TIP3    H116280   7.669   3.379   5.681
 5441TIP3    H216281   7.640   3.375   5.830
 5442TIP3   OH216282   0.725   6.211   1.471
 5442TIP3    H116283   0.764   6.263   1.541
 5442TIP3    H216284   0.787   6.218   1.398
 5443TIP3   OH216285   3.668   4.769   5.482
 5443TIP3    H116286   3.636   4.679   5.478
 5443TIP3    H216287   3.618   4.809   5.554
 5444TIP3   OH216288   0.978   5.731   2.606
 5444TIP3    H116289   0.951   5.812   2.563
 5444TIP3    H216290   0.941   5.661   2.552
 5445TIP3   OH216291   7.233   5.582   4.311
 5445TIP3    H116292   7.274   5.496   4.301
 5445TIP3    H216293   7.139   5.564   4.311
 5446TIP3   OH216294   7.986   3.277   6.437
 5446TIP3    H116295   8.012   3.247   6.350
 5446TIP3    H216296   7.939   3.359   6.420
 5447TIP3   OH216297   7.620   1.406   4.593
 5447TIP3    H116298   7.623   1.457   4.513
 5447TIP3    H216299   7.560   1.454   4.651
 5448TIP3   OH216300   8.306   6.348   3.850
 5448TIP3    H116301   8.295   6.441   3.871
 5448TIP3    H216302   8.234   6.304   3.894
 5449TIP3   OH216303   5.751   7.739   1.733
 5449TIP3    H116304   5.734   7.653   1.771
 5449TIP3    H216305   5.842   7.759   1.757
 5450TIP3   OH216306   1.551   3.869   4.653
 5450TIP3    H116307   1.538   3.864   4.558
 5450TIP3    H216308   1.614   3.800   4.672
 5451TIP3   OH216309   7.449   3.652   5.937
 5451TIP3    H116310   7.543   3.667   5.953
 5451TIP3    H216311   7.405   3.703   6.005
 5452TIP3   OH216312   0.501   1.734   4.937
 5452TIP3    H116313   0.512   1.671   4.866
 5452TIP3    H216314   0.523   1.818   4.898
 5453TIP3   OH216315   8.071   3.915   3.429
 5453TIP3    H116316   8.107   3.844   3.483
 5453TIP3    H216317   7.978   3.917   3.452
 5454TIP3   OH216318   6.669   0.413   5.780
 5454TIP3    H116319   6.615   0.492   5.779
 5454TIP3    H216320   6.658   0.377   5.868
 5455TIP3   OH216321   3.452   7.676   2.608
 5455TIP3    H116322   3.436   7.581   2.602
 5455TIP3    H216323   3.487   7.688   2.696
 5456TIP3   OH216324   1.286   2.086   0.193
 5456TIP3    H116325   1.272   2.053   0.104
 5456TIP3    H216326   1.289   2.181   0.183
 5457TIP3   OH216327   4.873   5.665   4.723
 5457TIP3    H116328   4.850   5.720   4.648
 5457TIP3    H216329   4.816   5.697   4.793
 5458TIP3   OH216330   4.440   7.636   4.638
 5458TIP3    H116331   4.389   7.698   4.586
 5458TIP3    H216332   4.520   7.683   4.661
 5459TIP3   OH216333   2.938   2.474   2.683
 5459TIP3    H116334   2.982   2.389   2.677
 5459TIP3    H216335   2.989   2.531   2.625
 5460TIP3   OH216336   7.361   0.142   4.901
 5460TIP3    H116337   7.300   0.216   4.898
 5460TIP3    H216338   7.435   0.175   4.952
 5461TIP3   OH216339   7.088   4.714   3.195
 5461TIP3    H116340   7.014   4.686   3.140
 5461TIP3    H216341   7.047   4.765   3.265
 5462TIP3   OH216342   1.067   5.889   3.451
 5462TIP3    H116343   1.022   5.922   3.529
 5462TIP3    H216344   1.132   5.827   3.486
 5463TIP3   OH216345   4.415   5.196   2.138
 5463TIP3    H116346   4.503   5.167   2.112
 5463TIP3    H216347   4.402   5.278   2.090
 5464TIP3   OH216348   1.316   0.717   3.037
 5464TIP3    H116349   1.248   0.779   3.065
 5464TIP3    H216350   1.345   0.752   2.952
 5465TIP3   OH216351   7.838   3.698   3.327
 5465TIP3    H116352   7.797   3.778   3.295
 5465TIP3    H216353   7.931   3.710   3.307
 5466TIP3   OH216354   0.311   4.666   3.917
 5466TIP3    H116355   0.318   4.574   3.895
 5466TIP3    H216356   0.375   4.709   3.860
 5467TIP3   OH216357   6.898   6.256   1.939
 5467TIP3    H116358   6.958   6.301   1.998
 5467TIP3    H216359   6.884   6.317   1.867
 5468TIP3   OH216360   8.050   0.287   5.794
 5468TIP3    H116361   7.991   0.274   5.719
 5468TIP3    H216362   7.997   0.263   5.870
 5469TIP3   OH216363   6.035   1.593   6.544
 5469TIP3    H116364   5.972   1.532   6.582
 5469TIP3    H216365   5.989   1.630   6.469
 5470TIP3   OH216366   5.255   3.739   3.474
 5470TIP3    H116367   5.250   3.747   3.570
 5470TIP3    H216368   5.181   3.683   3.450
 5471TIP3   OH216369   7.619   5.083   6.647
 5471TIP3    H116370   7.700   5.133   6.662
 5471TIP3    H216371   7.570   5.091   6.728
 5472TIP3   OH216372   1.270   2.917   4.635
 5472TIP3    H116373   1.202   2.859   4.599
 5472TIP3    H216374   1.329   2.858   4.682
 5473TIP3   OH216375   7.738   2.534   0.380
 5473TIP3    H116376   7.700   2.594   0.315
 5473TIP3    H216377   7.706   2.567   0.464
 5474TIP3   OH216378   6.540   0.568   3.470
 5474TIP3    H116379   6.621   0.600   3.431
 5474TIP3    H216380   6.524   0.484   3.427
 5475TIP3   OH216381   5.621   7.030   6.485
 5475TIP3    H116382   5.527   7.034   6.465
 5475TIP3    H216383   5.646   7.121   6.500
 5476TIP3   OH216384   1.507   6.784   5.174
 5476TIP3    H116385   1.528   6.695   5.202
 5476TIP3    H216386   1.536   6.788   5.083
 5477TIP3   OH216387   8.152   6.229   6.232
 5477TIP3    H116388   8.192   6.170   6.167
 5477TIP3    H216389   8.059   6.208   6.228
 5478TIP3   OH216390   0.392   3.852   3.222
 5478TIP3    H116391   0.451   3.836   3.296
 5478TIP3    H216392   0.359   3.766   3.198
 5479TIP3   OH216393   2.862   1.718   2.577
 5479TIP3    H116394   2.829   1.645   2.629
 5479TIP3    H216395   2.943   1.686   2.538
 5480TIP3   OH216396   6.230   5.012   1.952
 5480TIP3    H116397   6.275   4.951   2.010
 5480TIP3    H216398   6.241   5.098   1.994
 5481TIP3   OH216399   4.453   5.162   6.362
 5481TIP3    H116400   4.423   5.072   6.373
 5481TIP3    H216401   4.383   5.205   6.313
 5482TIP3   OH216402   6.830   2.478   0.237
 5482TIP3    H116403   6.917   2.517   0.231
 5482TIP3    H216404   6.783   2.511   0.161
 5483TIP3   OH216405   3.223   5.949   3.708
 5483TIP3    H116406   3.243   6.043   3.707
 5483TIP3    H216407   3.137   5.944   3.750
 5484TIP3   OH216408   1.582   1.691   5.350
 5484TIP3    H116409   1.579   1.597   5.334
 5484TIP3    H216410   1.565   1.701   5.443
 5485TIP3   OH216411   1.627   2.022   4.309
 5485TIP3    H116412   1.614   2.031   4.215
 5485TIP3    H216413   1.599   2.106   4.345
 5486TIP3   OH216414   3.831   6.825   1.190
 5486TIP3    H116415   3.909   6.880   1.195
 5486TIP3    H216416   3.788   6.838   1.274
 5487TIP3   OH216417   6.963   6.340   2.668
 5487TIP3    H116418   6.974   6.277   2.740
 5487TIP3    H216419   7.016   6.415   2.694
 5488TIP3   OH216420   3.692   6.726   5.628
 5488TIP3    H116421   3.642   6.661   5.580
 5488TIP3    H216422   3.627   6.773   5.680
 5489TIP3   OH216423   7.922   5.889   4.865
 5489TIP3    H116424   7.871   5.870   4.786
 5489TIP3    H216425   7.890   5.825   4.929
 5490TIP3   OH216426   8.042   1.902   0.021
 5490TIP3    H116427   7.978   1.880   0.088
 5490TIP3    H216428   8.088   1.978   0.055
 5491TIP3   OH216429   5.987   4.043   5.574
 5491TIP3    H116430   6.021   4.120   5.529
 5491TIP3    H216431   5.934   4.077   5.645
 5492TIP3   OH216432   1.120   2.247   4.186
 5492TIP3    H116433   1.099   2.222   4.096
 5492TIP3    H216434   1.159   2.334   4.178
 5493TIP3   OH216435   7.320   1.456   3.307
 5493TIP3    H116436   7.348   1.546   3.289
 5493TIP3    H216437   7.234   1.450   3.266
 5494TIP3   OH216438   8.106   6.550   1.794
 5494TIP3    H116439   8.011   6.564   1.791
 5494TIP3    H216440   8.117   6.457   1.773
 5495TIP3   OH216441   2.597   4.957   3.354
 5495TIP3    H116442   2.576   4.897   3.283
 5495TIP3    H216443   2.690   4.974   3.345
 5496TIP3   OH216444   0.939   6.875   2.271
 5496TIP3    H116445   0.979   6.954   2.307
 5496TIP3    H216446   0.850   6.875   2.306
 5497TIP3   OH216447   6.049   7.704   0.950
 5497TIP3    H116448   6.059   7.711   1.045
 5497TIP3    H216449   6.134   7.731   0.915
 5498TIP3   OH216450   1.194   6.518   2.351
 5498TIP3    H116451   1.257   6.522   2.424
 5498TIP3    H216452   1.234   6.457   2.289
 5499TIP3   OH216453   0.289   2.564   0.538
 5499TIP3    H116454   0.369   2.557   0.486
 5499TIP3    H216455   0.223   2.514   0.490
 5500TIP3   OH216456   7.281   3.923   3.845
 5500TIP3    H116457   7.266   3.946   3.754
 5500TIP3    H216458   7.325   3.999   3.883
 5501TIP3   OH216459   4.379   3.996   5.718
 5501TIP3    H116460   4.397   3.958   5.804
 5501TIP3    H216461   4.433   3.945   5.657
 5502TIP3   OH216462   6.622   2.643   5.241
 5502TIP3    H116463   6.544   2.652   5.295
 5502TIP3    H216464   6.667   2.727   5.249
 5503TIP3   OH216465   3.403   3.382   4.638
 5503TIP3    H116466   3.404   3.474   4.663
 5503TIP3    H216467   3.478   3.344   4.683
 5504TIP3   OH216468   3.473   3.133   2.761
 5504TIP3    H116469   3.423   3.210   2.788
 5504TIP3    H216470   3.408   3.075   2.721
 5505TIP3   OH216471   4.862   7.118   2.502
 5505TIP3    H116472   4.889   7.049   2.441
 5505TIP3    H216473   4.841   7.071   2.583
 5506TIP3   OH216474   7.055   3.989   5.683
 5506TIP3    H116475   7.072   3.936   5.760
 5506TIP3    H216476   6.998   3.936   5.628
 5507TIP3   OH216477   8.290   2.864   3.618
 5507TIP3    H116478   8.327   2.831   3.699
 5507TIP3    H216479   8.366   2.889   3.565
 5508TIP3   OH216480   6.737   2.358   3.742
 5508TIP3    H116481   6.779   2.304   3.675
 5508TIP3    H216482   6.661   2.396   3.697
 5509TIP3   OH216483   4.461   2.657   2.002
 5509TIP3    H116484   4.380   2.659   2.053
 5509TIP3    H216485   4.478   2.563   1.990
 5510TIP3   OH216486   5.967   7.455   6.191
 5510TIP3    H116487   5.972   7.370   6.146
 5510TIP3    H216488   5.984   7.520   6.123
 5511TIP3   OH216489   2.990   1.081   4.611
 5511TIP3    H116490   2.968   1.157   4.666
 5511TIP3    H216491   2.929   1.013   4.638
 5512TIP3   OH216492   0.927   5.829   0.258
 5512TIP3    H116493   0.974   5.755   0.219
 5512TIP3    H216494   0.841   5.827   0.215
 5513TIP3   OH216495   0.800   0.013   2.602
 5513TIP3    H116496   0.832   0.048   2.519
 5513TIP3    H216497   0.879  -0.016   2.648
 5514TIP3   OH216498   2.153   6.927   3.610
 5514TIP3    H116499   2.060   6.908   3.623
 5514TIP3    H216500   2.172   6.997   3.671
 5515TIP3   OH216501   5.978   3.880   3.326
 5515TIP3    H116502   6.021   3.837   3.253
 5515TIP3    H216503   5.892   3.837   3.332
 5516TIP3   OH216504   1.034   3.921   6.333
 5516TIP3    H116505   1.081   3.909   6.415
 5516TIP3    H216506   1.059   3.844   6.281
 5517TIP3   OH216507   7.605   3.980   4.375
 5517TIP3    H116508   7.683   3.994   4.429
 5517TIP3    H216509   7.540   3.943   4.434
 5518TIP3   OH216510   6.575   3.676   4.006
 5518TIP3    H116511   6.570   3.629   4.089
 5518TIP3    H216512   6.533   3.618   3.942
 5519TIP3   OH216513   8.219   0.527   5.342
 5519TIP3    H116514   8.228   0.580   5.421
 5519TIP3    H216515   8.125   0.528   5.324
 5520TIP3   OH216516   6.215   7.048   1.282
 5520TIP3    H116517   6.189   7.078   1.195
 5520TIP3    H216518   6.195   7.122   1.340
 5521TIP3   OH216519   0.360   1.800   5.359
 5521TIP3    H116520   0.343   1.890   5.387
 5521TIP3    H216521   0.292   1.748   5.401
 5522TIP3   OH216522   0.490   0.952   2.104
 5522TIP3    H116523   0.517   0.861   2.115
 5522TIP3    H216524   0.559   1.003   2.147
 5523TIP3   OH216525   0.454   6.694   6.380
 5523TIP3    H116526   0.518   6.763   6.401
 5523TIP3    H216527   0.372   6.741   6.367
 5524TIP3   OH216528   1.744   1.169   6.589
 5524TIP3    H116529   1.681   1.226   6.633
 5524TIP3    H216530   1.829   1.207   6.610
 5525TIP3   OH216531   3.750   2.403   4.116
 5525TIP3    H116532   3.658   2.376   4.124
 5525TIP3    H216533   3.795   2.323   4.090
 5526TIP3   OH216534   3.879   1.834   3.140
 5526TIP3    H116535   3.888   1.844   3.045
 5526TIP3    H216536   3.898   1.742   3.156
 5527TIP3   OH216537   7.903   6.530   3.723
 5527TIP3    H116538   7.895   6.440   3.752
 5527TIP3    H216539   7.862   6.532   3.636
 5528TIP3   OH216540   7.353   4.550   0.450
 5528TIP3    H116541   7.444   4.564   0.477
 5528TIP3    H216542   7.359   4.487   0.378
 5529TIP3   OH216543   2.643   1.658   3.389
 5529TIP3    H116544   2.619   1.728   3.449
 5529TIP3    H216545   2.577   1.662   3.320
 5530TIP3   OH216546   4.691   2.613   5.531
 5530TIP3    H116547   4.602   2.589   5.553
 5530TIP3    H216548   4.697   2.707   5.550
 5531TIP3   OH216549   6.863   4.959   1.952
 5531TIP3    H116550   6.864   5.046   1.913
 5531TIP3    H216551   6.953   4.944   1.981
 5532TIP3   OH216552   5.196   1.703   1.726
 5532TIP3    H116553   5.197   1.657   1.642
 5532TIP3    H216554   5.109   1.686   1.761
 5533TIP3   OH216555   1.181   6.288   1.426
 5533TIP3    H116556   1.271   6.307   1.453
 5533TIP3    H216557   1.185   6.201   1.388
 5534TIP3   OH216558   2.757   5.947   4.375
 5534TIP3    H116559   2.699   6.003   4.427
 5534TIP3    H216560   2.700   5.880   4.339
 5535TIP3   OH216561   7.333   1.470   0.730
 5535TIP3    H116562   7.399   1.535   0.757
 5535TIP3    H216563   7.335   1.404   0.798
 5536TIP3   OH216564   0.414   5.641   4.695
 5536TIP3    H116565   0.328   5.612   4.664
 5536TIP3    H216566   0.428   5.725   4.651
 5537TIP3   OH216567   0.197   1.140   5.119
 5537TIP3    H116568   0.241   1.204   5.174
 5537TIP3    H216569   0.111   1.177   5.102
 5538TIP3   OH216570   7.187   6.149   1.684
 5538TIP3    H116571   7.214   6.072   1.734
 5538TIP3    H216572   7.210   6.224   1.738
 5539TIP3   OH216573   4.404   4.491   6.599
 5539TIP3    H116574   4.337   4.473   6.665
 5539TIP3    H216575   4.357   4.494   6.516
 5540TIP3   OH216576   7.477   5.088   5.081
 5540TIP3    H116577   7.392   5.123   5.107
 5540TIP3    H216578   7.464   4.994   5.077
 5541TIP3   OH216579   1.588   3.431   4.690
 5541TIP3    H116580   1.508   3.471   4.655
 5541TIP3    H216581   1.655   3.498   4.678
 5542TIP3   OH216582   7.585   2.504   5.061
 5542TIP3    H116583   7.502   2.551   5.068
 5542TIP3    H216584   7.633   2.549   4.991
 5543TIP3   OH216585   5.202   0.502   3.783
 5543TIP3    H116586   5.269   0.569   3.770
 5543TIP3    H216587   5.139   0.518   3.713
 5544TIP3   OH216588   6.765   0.169   1.902
 5544TIP3    H116589   6.834   0.180   1.836
 5544TIP3    H216590   6.810   0.134   1.979
 5545TIP3   OH216591   4.173   7.309   0.306
 5545TIP3    H116592   4.094   7.322   0.252
 5545TIP3    H216593   4.145   7.332   0.395
 5546TIP3   OH216594   5.404   3.654   5.529
 5546TIP3    H116595   5.349   3.625   5.602
 5546TIP3    H216596   5.343   3.691   5.466
 5547TIP3   OH216597   6.150   5.807   0.525
 5547TIP3    H116598   6.177   5.898   0.515
 5547TIP3    H216599   6.227   5.756   0.499
 5548TIP3   OH216600   6.560   1.896   3.947
 5548TIP3    H116601   6.502   1.824   3.921
 5548TIP3    H216602   6.579   1.942   3.865
 5549TIP3   OH216603   3.266   2.547   2.902
 5549TIP3    H116604   3.287   2.625   2.850
 5549TIP3    H216605   3.296   2.569   2.990
 5550TIP3   OH216606   1.838   0.902   2.961
 5550TIP3    H116607   1.823   0.987   2.920
 5550TIP3    H216608   1.750   0.867   2.976
 5551TIP3   OH216609   4.564   4.929   2.686
 5551TIP3    H116610   4.633   4.993   2.670
 5551TIP3    H216611   4.611   4.847   2.704
 5552TIP3   OH216612   2.863   0.625   6.650
 5552TIP3    H116613   2.816   0.707   6.634
 5552TIP3    H216614   2.803   0.557   6.619
 5553TIP3   OH216615   4.183   0.188   4.531
 5553TIP3    H116616   4.166   0.263   4.589
 5553TIP3    H216617   4.216   0.120   4.589
 5554TIP3   OH216618   3.827   1.596   3.871
 5554TIP3    H116619   3.789   1.550   3.946
 5554TIP3    H216620   3.794   1.686   3.881
 5555TIP3   OH216621   7.426   6.780   5.082
 5555TIP3    H116622   7.411   6.714   5.015
 5555TIP3    H216623   7.444   6.730   5.161
 5556TIP3   OH216624   0.278   1.168   3.590
 5556TIP3    H116625   0.272   1.260   3.617
 5556TIP3    H216626   0.215   1.161   3.518
 5557TIP3   OH216627   4.373   1.128   4.788
 5557TIP3    H116628   4.358   1.194   4.856
 5557TIP3    H216629   4.468   1.131   4.773
 5558TIP3   OH216630   7.444   3.736   5.436
 5558TIP3    H116631   7.359   3.692   5.437
 5558TIP3    H216632   7.485   3.706   5.355
 5559TIP3   OH216633   1.270   7.613   1.289
 5559TIP3    H116634   1.299   7.582   1.203
 5559TIP3    H216635   1.184   7.573   1.301
 5560TIP3   OH216636   6.515   4.532   5.028
 5560TIP3    H116637   6.566   4.524   5.108
 5560TIP3    H216638   6.579   4.523   4.957
 5561TIP3   OH216639   0.795   2.043   0.145
 5561TIP3    H116640   0.850   2.040   0.067
 5561TIP3    H216641   0.707   2.020   0.113
 5562TIP3   OH216642   1.779   4.604   3.553
 5562TIP3    H116643   1.714   4.579   3.488
 5562TIP3    H216644   1.728   4.641   3.625
 5563TIP3   OH216645   3.653   7.190   5.222
 5563TIP3    H116646   3.579   7.141   5.256
 5563TIP3    H216647   3.730   7.141   5.250
 5564TIP3   OH216648   0.750   2.821   6.283
 5564TIP3    H116649   0.805   2.742   6.285
 5564TIP3    H216650   0.807   2.889   6.246
 5565TIP3   OH216651   8.051   6.301   4.704
 5565TIP3    H116652   8.035   6.351   4.784
 5565TIP3    H216653   8.120   6.349   4.658
 5566TIP3   OH216654   5.427   0.433   4.360
 5566TIP3    H116655   5.454   0.342   4.349
 5566TIP3    H216656   5.381   0.454   4.278
 5567TIP3   OH216657   8.041   3.262   0.658
 5567TIP3    H116658   7.961   3.221   0.627
 5567TIP3    H216659   8.106   3.244   0.590
 5568TIP3   OH216660   7.736   1.348   0.322
 5568TIP3    H116661   7.704   1.268   0.279
 5568TIP3    H216662   7.699   1.343   0.411
 5569TIP3   OH216663   0.102   6.111   0.697
 5569TIP3    H116664   0.034   6.059   0.741
 5569TIP3    H216665   0.146   6.049   0.640
 5570TIP3   OH216666   0.780   4.783   5.880
 5570TIP3    H116667   0.734   4.850   5.932
 5570TIP3    H216668   0.869   4.816   5.872
 5571TIP3   OH216669   5.287   0.848   0.659
 5571TIP3    H116670   5.329   0.907   0.721
 5571TIP3    H216671   5.312   0.882   0.573
 5572TIP3   OH216672   6.188   7.354   1.352
 5572TIP3    H116673   6.198   7.382   1.443
 5572TIP3    H216674   6.097   7.325   1.345
 5573TIP3   OH216675   4.579   2.315   5.905
 5573TIP3    H116676   4.634   2.388   5.877
 5573TIP3    H216677   4.627   2.237   5.877
 5574TIP3   OH216678   2.592   2.087   5.409
 5574TIP3    H116679   2.561   2.160   5.356
 5574TIP3    H216680   2.647   2.128   5.476
 5575TIP3   OH216681   4.995   0.159   4.274
 5575TIP3    H116682   5.005   0.244   4.317
 5575TIP3    H216683   4.917   0.170   4.219
 5576TIP3   OH216684   0.323   3.485   0.218
 5576TIP3    H116685   0.357   3.426   0.151
 5576TIP3    H216686   0.279   3.555   0.170
 5577TIP3   OH216687   1.667   3.846   6.484
 5577TIP3    H116688   1.599   3.908   6.507
 5577TIP3    H216689   1.630   3.760   6.504
 5578TIP3   OH216690   7.453   3.249   4.546
 5578TIP3    H116691   7.369   3.295   4.551
 5578TIP3    H216692   7.462   3.225   4.454
 5579TIP3   OH216693   4.730   1.169   3.824
 5579TIP3    H116694   4.677   1.110   3.878
 5579TIP3    H216695   4.771   1.228   3.886
 5580TIP3   OH216696   1.528   0.734   0.659
 5580TIP3    H116697   1.571   0.781   0.731
 5580TIP3    H216698   1.437   0.725   0.687
 5581TIP3   OH216699   0.921   7.653   0.173
 5581TIP3    H116700   0.952   7.739   0.144
 5581TIP3    H216701   0.894   7.609   0.092
 5582TIP3   OH216702   5.587   2.267   0.538
 5582TIP3    H116703   5.525   2.195   0.530
 5582TIP3    H216704   5.537   2.345   0.516
 5583TIP3   OH216705   4.854   0.545   5.083
 5583TIP3    H116706   4.932   0.536   5.028
 5583TIP3    H216707   4.786   0.498   5.036
 5584TIP3   OH216708   2.682   1.750   3.796
 5584TIP3    H116709   2.758   1.701   3.767
 5584TIP3    H216710   2.642   1.696   3.864
 5585TIP3   OH216711   3.023   7.705   2.685
 5585TIP3    H116712   3.033   7.617   2.722
 5585TIP3    H216713   2.931   7.728   2.701
 5586TIP3   OH216714   0.716   5.339   3.142
 5586TIP3    H116715   0.707   5.275   3.072
 5586TIP3    H216716   0.699   5.424   3.100
 5587TIP3   OH216717   5.580   4.708   4.828
 5587TIP3    H116718   5.542   4.635   4.779
 5587TIP3    H216719   5.506   4.768   4.843
 5588TIP3   OH216720   5.810   2.001   1.731
 5588TIP3    H116721   5.854   2.066   1.785
 5588TIP3    H216722   5.760   1.948   1.793
 5589TIP3   OH216723   3.635   1.919   3.293
 5589TIP3    H116724   3.648   1.920   3.388
 5589TIP3    H216725   3.722   1.907   3.257
 5590TIP3   OH216726   1.551   0.945   6.578
 5590TIP3    H116727   1.620   1.011   6.590
 5590TIP3    H216728   1.550   0.929   6.484
 5591TIP3   OH216729   6.879   3.555   0.278
 5591TIP3    H116730   6.969   3.574   0.251
 5591TIP3    H216731   6.830   3.634   0.256
 5592TIP3   OH216732   0.489   3.595   4.734
 5592TIP3    H116733   0.462   3.532   4.668
 5592TIP3    H216734   0.574   3.564   4.765
 5593TIP3   OH216735   2.981   4.177   5.092
 5593TIP3    H116736   3.060   4.193   5.144
 5593TIP3    H216737   3.014   4.142   5.009
 5594TIP3   OH216738   5.994   4.088   4.779
 5594TIP3    H116739   5.994   3.997   4.808
 5594TIP3    H216740   6.002   4.139   4.859
 5595TIP3   OH216741   2.542   3.922   1.050
 5595TIP3    H116742   2.532   3.834   1.013
 5595TIP3    H216743   2.524   3.910   1.144
 5596TIP3   OH216744   7.289   6.765   4.578
 5596TIP3    H116745   7.216   6.807   4.533
 5596TIP3    H216746   7.256   6.678   4.600
 5597TIP3   OH216747   3.951   0.681   3.047
 5597TIP3    H116748   3.900   0.734   2.986
 5597TIP3    H216749   3.916   0.592   3.036
 5598TIP3   OH216750   2.763   0.680   4.122
 5598TIP3    H116751   2.749   0.772   4.099
 5598TIP3    H216752   2.688   0.634   4.085
 5599TIP3   OH216753   7.436   2.642   0.100
 5599TIP3    H116754   7.362   2.620   0.043
 5599TIP3    H216755   7.403   2.626   0.188
 5600TIP3   OH216756   7.022   5.592   2.742
 5600TIP3    H116757   7.105   5.614   2.700
 5600TIP3    H216758   7.042   5.516   2.798
 5601TIP3   OH216759   3.333   2.988   6.259
 5601TIP3    H116760   3.386   3.012   6.182
 5601TIP3    H216761   3.315   2.895   6.248
 5602TIP3   OH216762   3.269   0.913   1.304
 5602TIP3    H116763   3.266   0.995   1.255
 5602TIP3    H216764   3.358   0.879   1.289
 5603TIP3   OH216765   5.542   1.443   1.369
 5603TIP3    H116766   5.492   1.523   1.355
 5603TIP3    H216767   5.481   1.373   1.348
 5604TIP3   OH216768   5.534   5.621   2.440
 5604TIP3    H116769   5.559   5.546   2.494
 5604TIP3    H216770   5.591   5.615   2.364
 5605TIP3   OH216771   3.762   1.405   0.732
 5605TIP3    H116772   3.733   1.336   0.791
 5605TIP3    H216773   3.785   1.479   0.789
 5606TIP3   OH216774   4.844   0.308   1.325
 5606TIP3    H116775   4.783   0.350   1.386
 5606TIP3    H216776   4.788   0.271   1.257
 5607TIP3   OH216777   4.251   6.018   5.638
 5607TIP3    H116778   4.273   5.932   5.603
 5607TIP3    H216779   4.156   6.024   5.628
 5608TIP3   OH216780   3.010   2.105   5.620
 5608TIP3    H116781   2.985   2.025   5.573
 5608TIP3    H216782   3.100   2.122   5.592
 5609TIP3   OH216783   0.139   5.277   2.523
 5609TIP3    H116784   0.209   5.230   2.478
 5609TIP3    H216785   0.108   5.341   2.460
 5610TIP3   OH216786   7.933   5.743   2.492
 5610TIP3    H116787   7.889   5.770   2.573
 5610TIP3    H216788   7.993   5.674   2.520
 5611TIP3   OH216789   1.589   6.515   5.726
 5611TIP3    H116790   1.579   6.599   5.682
 5611TIP3    H216791   1.578   6.535   5.819
 5612TIP3   OH216792   3.938   6.269   5.658
 5612TIP3    H116793   3.934   6.355   5.700
 5612TIP3    H216794   3.846   6.245   5.644
 5613TIP3   OH216795   7.386   0.979   3.410
 5613TIP3    H116796   7.311   1.015   3.363
 5613TIP3    H216797   7.363   0.988   3.503
 5614TIP3   OH216798   2.321   7.119   3.403
 5614TIP3    H116799   2.328   7.057   3.476
 5614TIP3    H216800   2.373   7.195   3.431
 5615TIP3   OH216801   7.819   1.086   1.860
 5615TIP3    H116802   7.784   1.120   1.778
 5615TIP3    H216803   7.771   1.005   1.875
 5616TIP3   OH216804   0.159   7.437   3.837
 5616TIP3    H116805   0.169   7.436   3.932
 5616TIP3    H216806   0.244   7.410   3.803
 5617TIP3   OH216807   4.009   6.014   3.530
 5617TIP3    H116808   3.946   6.083   3.551
 5617TIP3    H216809   3.958   5.948   3.482
 5618TIP3   OH216810   3.803   7.634   2.057
 5618TIP3    H116811   3.866   7.680   2.113
 5618TIP3    H216812   3.793   7.691   1.980
 5619TIP3   OH216813   7.965   6.654   4.468
 5619TIP3    H116814   8.058   6.653   4.493
 5619TIP3    H216815   7.931   6.571   4.499
 5620TIP3   OH216816   5.422   1.935   1.450
 5620TIP3    H116817   5.492   1.992   1.482
 5620TIP3    H216818   5.350   1.948   1.512
 5621TIP3   OH216819   1.224   5.270   2.052
 5621TIP3    H116820   1.313   5.258   2.083
 5621TIP3    H216821   1.180   5.187   2.075
 5622TIP3   OH216822   1.635   7.648   3.953
 5622TIP3    H116823   1.675   7.612   3.874
 5622TIP3    H216824   1.568   7.584   3.978
 5623TIP3   OH216825   2.178   7.609   5.362
 5623TIP3    H116826   2.098   7.564   5.391
 5623TIP3    H216827   2.167   7.618   5.267
 5624TIP3   OH216828   6.597   4.982   6.542
 5624TIP3    H116829   6.563   5.016   6.459
 5624TIP3    H216830   6.522   4.985   6.602
 5625TIP3   OH216831   0.376   0.297   5.692
 5625TIP3    H116832   0.450   0.356   5.706
 5625TIP3    H216833   0.329   0.335   5.617
 5626TIP3   OH216834   7.250   4.683   4.282
 5626TIP3    H116835   7.213   4.601   4.251
 5626TIP3    H216836   7.316   4.707   4.217
 5627TIP3   OH216837   7.385   6.363   3.285
 5627TIP3    H116838   7.439   6.404   3.353
 5627TIP3    H216839   7.436   6.287   3.257
 5628TIP3   OH216840   5.254   2.834   1.071
 5628TIP3    H116841   5.324   2.815   1.133
 5628TIP3    H216842   5.300   2.871   0.995
 5629TIP3   OH216843   6.740   1.659   4.510
 5629TIP3    H116844   6.756   1.618   4.425
 5629TIP3    H216845   6.697   1.590   4.562
 5630TIP3   OH216846   3.160   2.882   4.431
 5630TIP3    H116847   3.243   2.928   4.421
 5630TIP3    H216848   3.183   2.799   4.473
 5631TIP3   OH216849   5.021   4.024   5.118
 5631TIP3    H116850   4.999   3.931   5.126
 5631TIP3    H216851   5.095   4.035   5.177
 5632TIP3   OH216852   3.899   2.040   5.906
 5632TIP3    H116853   3.855   1.971   5.954
 5632TIP3    H216854   3.970   2.069   5.963
 5633TIP3   OH216855   3.453   0.762   3.651
 5633TIP3    H116856   3.536   0.809   3.638
 5633TIP3    H216857   3.452   0.741   3.744
 5634TIP3   OH216858   0.394   6.132   4.656
 5634TIP3    H116859   0.379   6.041   4.632
 5634TIP3    H216860   0.437   6.128   4.742
 5635TIP3   OH216861   1.537   7.309   1.055
 5635TIP3    H116862   1.587   7.338   0.979
 5635TIP3    H216863   1.598   7.317   1.128
 5636TIP3   OH216864   2.883   0.164   4.188
 5636TIP3    H116865   2.975   0.188   4.174
 5636TIP3    H216866   2.874   0.078   4.146
 5637TIP3   OH216867   7.701   7.456   0.813
 5637TIP3    H116868   7.683   7.486   0.902
 5637TIP3    H216869   7.699   7.361   0.820
 5638TIP3   OH216870   0.506   2.141   5.759
 5638TIP3    H116871   0.597   2.121   5.737
 5638TIP3    H216872   0.469   2.175   5.678
 5639TIP3   OH216873   0.607   1.732   1.188
 5639TIP3    H116874   0.691   1.747   1.231
 5639TIP3    H216875   0.630   1.697   1.102
 5640TIP3   OH216876   1.859   0.797   3.481
 5640TIP3    H116877   1.830   0.791   3.572
 5640TIP3    H216878   1.891   0.887   3.473
 5641TIP3   OH216879   2.419   5.242   4.101
 5641TIP3    H116880   2.504   5.232   4.145
 5641TIP3    H216881   2.441   5.277   4.015
 5642TIP3   OH216882   3.594   4.183   2.965
 5642TIP3    H116883   3.610   4.247   3.034
 5642TIP3    H216884   3.636   4.220   2.887
 5643TIP3   OH216885   3.473   3.358   3.151
 5643TIP3    H116886   3.566   3.381   3.152
 5643TIP3    H216887   3.443   3.383   3.063
 5644TIP3   OH216888   2.347   7.576   3.876
 5644TIP3    H116889   2.305   7.621   3.949
 5644TIP3    H216890   2.282   7.577   3.806
 5645TIP3   OH216891   2.208   0.683   6.325
 5645TIP3    H116892   2.209   0.734   6.405
 5645TIP3    H216893   2.260   0.605   6.345
 5646TIP3   OH216894   1.743   2.010   6.497
 5646TIP3    H116895   1.737   1.967   6.582
 5646TIP3    H216896   1.828   2.055   6.499
 5647TIP3   OH216897   1.330   5.015   6.778
 5647TIP3    H116898   1.417   5.029   6.741
 5647TIP3    H216899   1.270   5.030   6.705
 5648TIP3   OH216900   7.623   0.239   6.196
 5648TIP3    H116901   7.695   0.252   6.257
 5648TIP3    H216902   7.545   0.235   6.252
 5649TIP3   OH216903   1.805   5.676   1.762
 5649TIP3    H116904   1.743   5.706   1.695
 5649TIP3    H216905   1.772   5.589   1.787
 5650TIP3   OH216906   5.992   7.311   0.520
 5650TIP3    H116907   5.935   7.387   0.509
 5650TIP3    H216908   6.067   7.344   0.569
 5651TIP3   OH216909   7.639   5.244   6.392
 5651TIP3    H116910   7.632   5.188   6.470
 5651TIP3    H216911   7.721   5.291   6.404
 5652TIP3   OH216912   1.255   0.728   6.106
 5652TIP3    H116913   1.244   0.634   6.091
 5652TIP3    H216914   1.325   0.734   6.171
 5653TIP3   OH216915   1.789   3.576   3.675
 5653TIP3    H116916   1.787   3.557   3.581
 5653TIP3    H216917   1.700   3.559   3.705
 5654TIP3   OH216918   3.014   1.943   2.787
 5654TIP3    H116919   3.061   2.020   2.756
 5654TIP3    H216920   3.009   1.886   2.710
 5655TIP3   OH216921   4.605   5.719   2.362
 5655TIP3    H116922   4.544   5.709   2.289
 5655TIP3    H216923   4.582   5.648   2.421
 5656TIP3   OH216924   5.613   1.284   5.973
 5656TIP3    H116925   5.685   1.243   6.020
 5656TIP3    H216926   5.555   1.212   5.949
 5657TIP3   OH216927   7.204   2.438   4.417
 5657TIP3    H116928   7.239   2.424   4.329
 5657TIP3    H216929   7.189   2.532   4.422
 5658TIP3   OH216930   2.539   6.977   2.881
 5658TIP3    H116931   2.444   6.985   2.870
 5658TIP3    H216932   2.549   6.930   2.963
 5659TIP3   OH216933   7.542   3.306   3.756
 5659TIP3    H116934   7.630   3.342   3.740
 5659TIP3    H216935   7.537   3.229   3.700
 5660TIP3   OH216936   0.400   3.407   3.177
 5660TIP3    H116937   0.480   3.357   3.161
 5660TIP3    H216938   0.415   3.491   3.135
 5661TIP3   OH216939   7.425   1.665   1.910
 5661TIP3    H116940   7.346   1.638   1.862
 5661TIP3    H216941   7.497   1.631   1.858
 5662TIP3   OH216942   2.067   1.511   6.453
 5662TIP3    H116943   2.074   1.606   6.468
 5662TIP3    H216944   2.109   1.471   6.529
 5663TIP3   OH216945   1.922   7.818   1.947
 5663TIP3    H116946   1.858   7.782   2.008
 5663TIP3    H216947   1.913   7.763   1.869
 5664TIP3   OH216948   6.841   7.744   4.264
 5664TIP3    H116949   6.764   7.690   4.248
 5664TIP3    H216950   6.907   7.712   4.203
 5665TIP3   OH216951   3.716   1.933   2.901
 5665TIP3    H116952   3.668   1.861   2.942
 5665TIP3    H216953   3.705   1.917   2.807
 5666TIP3   OH216954   0.308   0.888   1.873
 5666TIP3    H116955   0.391   0.934   1.881
 5666TIP3    H216956   0.268   0.897   1.960
 5667TIP3   OH216957   6.624   5.153   2.774
 5667TIP3    H116958   6.684   5.141   2.700
 5667TIP3    H216959   6.577   5.234   2.754
 5668TIP3   OH216960   6.399   1.544   0.439
 5668TIP3    H116961   6.354   1.511   0.518
 5668TIP3    H216962   6.486   1.505   0.443
 5669TIP3   OH216963   2.247   2.666   3.914
 5669TIP3    H116964   2.224   2.596   3.975
 5669TIP3    H216965   2.279   2.737   3.970
 5670TIP3   OH216966   6.429   6.306   5.550
 5670TIP3    H116967   6.347   6.320   5.597
 5670TIP3    H216968   6.409   6.327   5.459
 5671TIP3   OH216969   1.920   3.436   5.454
 5671TIP3    H116970   1.840   3.429   5.402
 5671TIP3    H216971   1.930   3.529   5.471
 5672TIP3   OH216972   1.634   4.720   3.746
 5672TIP3    H116973   1.627   4.756   3.834
 5672TIP3    H216974   1.562   4.761   3.697
 5673TIP3   OH216975   7.640   0.748   2.617
 5673TIP3    H116976   7.640   0.812   2.688
 5673TIP3    H216977   7.725   0.705   2.623
 5674TIP3   OH216978   0.061   4.389   1.371
 5674TIP3    H116979   0.106   4.307   1.387
 5674TIP3    H216980  -0.032   4.365   1.366
 5675TIP3   OH216981   4.828   4.044   0.639
 5675TIP3    H116982   4.779   3.963   0.656
 5675TIP3    H216983   4.877   4.059   0.720
 5676TIP3   OH216984   3.077   6.921   4.688
 5676TIP3    H116985   3.048   6.853   4.627
 5676TIP3    H216986   3.150   6.964   4.643
 5677TIP3   OH216987   1.079   5.945   4.511
 5677TIP3    H116988   1.024   5.931   4.589
 5677TIP3    H216989   1.136   5.868   4.508
 5678TIP3   OH216990   0.435   3.995   4.355
 5678TIP3    H116991   0.388   3.919   4.391
 5678TIP3    H216992   0.376   4.030   4.289
 5679TIP3   OH216993   6.532   3.349   0.310
 5679TIP3    H116994   6.614   3.312   0.344
 5679TIP3    H216995   6.560   3.426   0.260
 5680TIP3   OH216996   4.266   1.928   4.251
 5680TIP3    H116997   4.199   1.860   4.243
 5680TIP3    H216998   4.302   1.916   4.339
 5681TIP3   OH216999   7.889   7.637   1.007
 5681TIP3    H117000   7.820   7.571   1.009
 5681TIP3    H217001   7.970   7.587   1.013
 5682TIP3   OH217002   2.201   1.100   2.040
 5682TIP3    H117003   2.203   1.165   2.110
 5682TIP3    H217004   2.268   1.037   2.064
 5683TIP3   OH217005   7.585   3.347   5.291
 5683TIP3    H117006   7.598   3.252   5.298
 5683TIP3    H217007   7.634   3.372   5.213
 5684TIP3   OH217008   3.570   0.278   2.935
 5684TIP3    H117009   3.588   0.233   2.852
 5684TIP3    H217010   3.531   0.210   2.990
 5685TIP3   OH217011   3.484   5.073   2.461
 5685TIP3    H117012   3.566   5.035   2.493
 5685TIP3    H217013   3.428   4.998   2.445
 5686TIP3   OH217014   0.995   5.134   1.141
 5686TIP3    H117015   0.966   5.043   1.154
 5686TIP3    H217016   0.939   5.185   1.200
 5687TIP3   OH217017   5.447   7.590   0.350
 5687TIP3    H117018   5.520   7.560   0.297
 5687TIP3    H217019   5.431   7.518   0.412
 5688TIP3   OH217020   0.630   6.435   3.253
 5688TIP3    H117021   0.608   6.473   3.168
 5688TIP3    H217022   0.547   6.406   3.289
 5689TIP3   OH217023   4.989   5.169   0.745
 5689TIP3    H117024   4.976   5.115   0.823
 5689TIP3    H217025   4.939   5.124   0.676
 5690TIP3   OH217026   6.033   7.813   6.138
 5690TIP3    H117027   6.127   7.806   6.120
 5690TIP3    H217028   6.023   7.898   6.182
 5691TIP3   OH217029   2.189   4.990   5.456
 5691TIP3    H117030   2.285   4.989   5.463
 5691TIP3    H217031   2.171   4.960   5.367
 5692TIP3   OH217032   8.039   1.338   2.435
 5692TIP3    H117033   8.048   1.301   2.523
 5692TIP3    H217034   7.945   1.348   2.422
 5693TIP3   OH217035   2.069   7.699   4.477
 5693TIP3    H117036   2.081   7.673   4.568
 5693TIP3    H217037   2.158   7.708   4.442
 5694TIP3   OH217038   0.317   6.573   1.929
 5694TIP3    H117039   0.342   6.493   1.974
 5694TIP3    H217040   0.399   6.613   1.901
 5695TIP3   OH217041   6.157   1.766   1.880
 5695TIP3    H117042   6.170   1.853   1.843
 5695TIP3    H217043   6.108   1.719   1.812
 5696TIP3   OH217044   1.190   1.955   1.214
 5696TIP3    H117045   1.231   1.996   1.138
 5696TIP3    H217046   1.108   2.003   1.226
 5697TIP3   OH217047   7.854   2.794   4.590
 5697TIP3    H117048   7.891   2.710   4.621
 5697TIP3    H217049   7.901   2.860   4.641
 5698TIP3   OH217050   2.347   0.584   3.213
 5698TIP3    H117051   2.304   0.557   3.133
 5698TIP3    H217052   2.344   0.680   3.211
 5699TIP3   OH217053   2.445   0.331   2.994
 5699TIP3    H117054   2.530   0.366   3.019
 5699TIP3    H217055   2.389   0.407   2.984
 5700TIP3   OH217056   4.121   2.628   2.084
 5700TIP3    H117057   4.118   2.710   2.133
 5700TIP3    H217058   4.051   2.574   2.121
 5701TIP3   OH217059   3.008   5.618   5.644
 5701TIP3    H117060   3.077   5.555   5.664
 5701TIP3    H217061   3.022   5.690   5.705
 5702TIP3   OH217062   5.472   5.567   0.716
 5702TIP3    H117063   5.518   5.621   0.652
 5702TIP3    H217064   5.394   5.617   0.739
 5703TIP3   OH217065   1.661   0.913   5.242
 5703TIP3    H117066   1.681   0.842   5.181
 5703TIP3    H217067   1.735   0.915   5.303
 5704TIP3   OH217068   2.545   0.371   4.764
 5704TIP3    H117069   2.470   0.382   4.822
 5704TIP3    H217070   2.541   0.447   4.706
 5705TIP3   OH217071   0.468   7.007   3.775
 5705TIP3    H117072   0.540   6.989   3.835
 5705TIP3    H217073   0.436   7.094   3.801
 5706TIP3   OH217074   1.318   5.241   1.229
 5706TIP3    H117075   1.396   5.212   1.181
 5706TIP3    H217076   1.245   5.207   1.177
 5707TIP3   OH217077   3.505   1.689   0.485
 5707TIP3    H117078   3.500   1.749   0.411
 5707TIP3    H217079   3.597   1.663   0.489
 5708TIP3   OH217080   0.975   7.360   1.496
 5708TIP3    H117081   0.895   7.406   1.521
 5708TIP3    H217082   1.020   7.421   1.438
 5709TIP3   OH217083   4.507   3.541   3.046
 5709TIP3    H117084   4.446   3.525   2.974
 5709TIP3    H217085   4.523   3.454   3.084
 5710TIP3   OH217086   8.172   6.605   2.054
 5710TIP3    H117087   8.161   6.579   1.962
 5710TIP3    H217088   8.087   6.586   2.094
 5711TIP3   OH217089   6.014   1.412   0.171
 5711TIP3    H117090   5.980   1.408   0.260
 5711TIP3    H217091   5.950   1.463   0.123
 5712TIP3   OH217092   5.039   6.947   3.484
 5712TIP3    H117093   5.048   7.015   3.550
 5712TIP3    H217094   5.103   6.969   3.416
 5713TIP3   OH217095   8.107   4.442   6.667
 5713TIP3    H117096   8.147   4.441   6.580
 5713TIP3    H217097   8.022   4.399   6.655
 5714TIP3   OH217098   1.656   7.457   3.158
 5714TIP3    H117099   1.678   7.370   3.124
 5714TIP3    H217100   1.623   7.440   3.247
 5715TIP3   OH217101   6.161   7.671   5.778
 5715TIP3    H117102   6.220   7.629   5.715
 5715TIP3    H217103   6.120   7.743   5.729
 5716TIP3   OH217104   0.725   4.675   5.103
 5716TIP3    H117105   0.752   4.682   5.011
 5716TIP3    H217106   0.783   4.608   5.140
 5717TIP3   OH217107   5.532   2.850   0.337
 5717TIP3    H117108   5.511   2.943   0.348
 5717TIP3    H217109   5.450   2.806   0.359
 5718TIP3   OH217110   0.845   6.712   1.835
 5718TIP3    H117111   0.760   6.757   1.837
 5718TIP3    H217112   0.845   6.657   1.913
 5719TIP3   OH217113   1.449   6.992   4.201
 5719TIP3    H117114   1.432   6.929   4.271
 5719TIP3    H217115   1.497   7.062   4.243
 5720TIP3   OH217116   0.831   0.977   2.800
 5720TIP3    H117117   0.888   0.915   2.756
 5720TIP3    H217118   0.868   1.063   2.780
 5721TIP3   OH217119   1.454   4.138   4.732
 5721TIP3    H117120   1.445   4.045   4.712
 5721TIP3    H217121   1.547   4.156   4.724
 5722TIP3   OH217122   1.157   4.163   1.717
 5722TIP3    H117123   1.073   4.200   1.741
 5722TIP3    H217124   1.212   4.238   1.695
 5723TIP3   OH217125   2.241   3.850   0.492
 5723TIP3    H117126   2.277   3.805   0.416
 5723TIP3    H217127   2.279   3.806   0.567
 5724TIP3   OH217128   2.080   3.587   3.081
 5724TIP3    H117129   2.002   3.565   3.131
 5724TIP3    H217130   2.058   3.563   2.991
 5725TIP3   OH217131   8.304   2.192   1.801
 5725TIP3    H117132   8.321   2.232   1.886
 5725TIP3    H217133   8.256   2.111   1.820
 5726TIP3   OH217134   1.484   3.619   0.936
 5726TIP3    H117135   1.568   3.647   0.901
 5726TIP3    H217136   1.422   3.685   0.906
 5727TIP3   OH217137   3.372   7.595   4.591
 5727TIP3    H117138   3.300   7.652   4.615
 5727TIP3    H217139   3.451   7.645   4.613
 5728TIP3   OH217140   3.187   0.220   6.467
 5728TIP3    H117141   3.269   0.231   6.419
 5728TIP3    H217142   3.214   0.198   6.556
 5729TIP3   OH217143   1.305   6.674   5.844
 5729TIP3    H117144   1.368   6.617   5.887
 5729TIP3    H217145   1.356   6.724   5.780
 5730TIP3   OH217146   7.447   4.677   4.074
 5730TIP3    H117147   7.519   4.656   4.134
 5730TIP3    H217148   7.470   4.630   3.993
 5731TIP3   OH217149   1.561   6.404   1.241
 5731TIP3    H117150   1.504   6.454   1.182
 5731TIP3    H217151   1.650   6.430   1.215
 5732TIP3   OH217152   0.981   3.474   6.186
 5732TIP3    H117153   1.040   3.402   6.162
 5732TIP3    H217154   0.910   3.431   6.235
 5733TIP3   OH217155   3.034   1.695   6.492
 5733TIP3    H117156   2.950   1.658   6.466
 5733TIP3    H217157   3.087   1.696   6.412
 5734TIP3   OH217158   2.480   7.665   1.595
 5734TIP3    H117159   2.510   7.654   1.685
 5734TIP3    H217160   2.514   7.750   1.569
 5735TIP3   OH217161   1.980   2.439   3.477
 5735TIP3    H117162   1.892   2.442   3.439
 5735TIP3    H217163   2.030   2.502   3.425
 5736TIP3   OH217164   4.220   5.050   6.680
 5736TIP3    H117165   4.193   4.977   6.736
 5736TIP3    H217166   4.228   5.011   6.593
 5737TIP3   OH217167   3.008   5.902   5.328
 5737TIP3    H117168   3.010   5.840   5.255
 5737TIP3    H217169   2.929   5.954   5.314
 5738TIP3   OH217170   2.101   1.975   2.551
 5738TIP3    H117171   2.111   2.049   2.611
 5738TIP3    H217172   2.172   1.987   2.488
 5739TIP3   OH217173   1.460   5.608   1.182
 5739TIP3    H117174   1.474   5.679   1.245
 5739TIP3    H217175   1.395   5.551   1.224
 5740TIP3   OH217176   5.747   7.800   2.334
 5740TIP3    H117177   5.664   7.782   2.290
 5740TIP3    H217178   5.723   7.810   2.427
 5741TIP3   OH217179   2.150   5.129   5.942
 5741TIP3    H117180   2.102   5.189   5.999
 5741TIP3    H217181   2.219   5.094   5.998
 5742TIP3   OH217182   5.352   5.722   3.377
 5742TIP3    H117183   5.342   5.652   3.442
 5742TIP3    H217184   5.386   5.678   3.299
 5743TIP3   OH217185   7.370   0.422   5.965
 5743TIP3    H117186   7.324   0.359   6.021
 5743TIP3    H217187   7.400   0.370   5.891
 5744TIP3   OH217188   7.017   7.421   3.359
 5744TIP3    H117189   6.996   7.331   3.331
 5744TIP3    H217190   7.072   7.455   3.288
 5745TIP3   OH217191   1.429   1.542   1.045
 5745TIP3    H117192   1.434   1.555   1.139
 5745TIP3    H217193   1.337   1.522   1.027
 5746TIP3   OH217194   5.529   7.077   0.798
 5746TIP3    H117195   5.506   7.170   0.802
 5746TIP3    H217196   5.524   7.054   0.706
 5747TIP3   OH217197   4.662   1.416   6.613
 5747TIP3    H117198   4.602   1.440   6.683
 5747TIP3    H217199   4.748   1.415   6.655
 5748TIP3   OH217200   2.289   5.994   0.492
 5748TIP3    H117201   2.377   5.961   0.513
 5748TIP3    H217202   2.267   6.051   0.566
 5749TIP3   OH217203   2.754   0.159   4.431
 5749TIP3    H117204   2.800   0.178   4.349
 5749TIP3    H217205   2.732   0.066   4.425
 5750TIP3   OH217206   0.171   3.060   4.898
 5750TIP3    H117207   0.125   3.083   4.979
 5750TIP3    H217208   0.250   3.114   4.898
 5751TIP3   OH217209   3.713   3.268   2.152
 5751TIP3    H117210   3.646   3.261   2.084
 5751TIP3    H217211   3.664   3.271   2.234
 5752TIP3   OH217212   3.632   3.709   0.429
 5752TIP3    H117213   3.559   3.748   0.477
 5752TIP3    H217214   3.656   3.631   0.479
 5753TIP3   OH217215   7.493   3.137   1.773
 5753TIP3    H117216   7.412   3.115   1.727
 5753TIP3    H217217   7.464   3.167   1.859
 5754TIP3   OH217218   4.085   5.437   2.444
 5754TIP3    H117219   4.130   5.398   2.518
 5754TIP3    H217220   4.057   5.523   2.474
 5755TIP3   OH217221   2.659   2.531   0.082
 5755TIP3    H117222   2.653   2.548   0.176
 5755TIP3    H217223   2.583   2.575   0.045
 5756TIP3   OH217224   3.249   1.964   0.901
 5756TIP3    H117225   3.172   1.912   0.876
 5756TIP3    H217226   3.214   2.052   0.916
 5757TIP3   OH217227   1.901   1.344   0.096
 5757TIP3    H117228   1.986   1.303   0.109
 5757TIP3    H217229   1.859   1.292   0.027
 5758TIP3   OH217230   7.214   4.506   0.075
 5758TIP3    H117231   7.144   4.558   0.115
 5758TIP3    H217232   7.294   4.539   0.116
 5759TIP3   OH217233   1.323   4.533   0.487
 5759TIP3    H117234   1.298   4.570   0.402
 5759TIP3    H217235   1.341   4.609   0.542
 5760TIP3   OH217236   5.390   1.360   6.101
 5760TIP3    H117237   5.355   1.428   6.043
 5760TIP3    H217238   5.478   1.342   6.067
 5761TIP3   OH217239   4.503   0.222   1.395
 5761TIP3    H117240   4.408   0.220   1.409
 5761TIP3    H217241   4.529   0.309   1.425
 5762TIP3   OH217242   4.077   2.014   3.923
 5762TIP3    H117243   4.082   1.943   3.860
 5762TIP3    H217244   4.038   1.974   4.001
 5763TIP3   OH217245   7.333   2.574   0.333
 5763TIP3    H117246   7.356   2.600   0.422
 5763TIP3    H217247   7.305   2.482   0.341
 5764TIP3   OH217248   0.561   6.926   2.645
 5764TIP3    H117249   0.617   6.853   2.671
 5764TIP3    H217250   0.551   6.977   2.726
 5765TIP3   OH217251   3.790   5.234   3.010
 5765TIP3    H117252   3.756   5.147   3.030
 5765TIP3    H217253   3.715   5.292   3.022
 5766TIP3   OH217254   6.614   3.994   3.712
 5766TIP3    H117255   6.638   3.905   3.736
 5766TIP3    H217256   6.528   4.007   3.751
 5767TIP3   OH217257   2.539   4.178   4.702
 5767TIP3    H117258   2.506   4.221   4.780
 5767TIP3    H217259   2.606   4.117   4.734
 5768TIP3   OH217260   3.687   3.065   2.900
 5768TIP3    H117261   3.605   3.074   2.852
 5768TIP3    H217262   3.730   3.150   2.892
 5769TIP3   OH217263   7.143   6.796   4.330
 5769TIP3    H117264   7.219   6.853   4.326
 5769TIP3    H217265   7.073   6.847   4.289
 5770TIP3   OH217266   0.563   5.961   6.575
 5770TIP3    H117267   0.545   6.047   6.612
 5770TIP3    H217268   0.630   5.923   6.633
 5771TIP3   OH217269   8.264   0.941   4.041
 5771TIP3    H117270   8.352   0.972   4.020
 5771TIP3    H217271   8.213   0.958   3.962
 5772TIP3   OH217272   3.748   6.580   4.616
 5772TIP3    H117273   3.694   6.503   4.599
 5772TIP3    H217274   3.705   6.650   4.568
 5773TIP3   OH217275   4.111   6.098   3.233
 5773TIP3    H117276   4.174   6.037   3.195
 5773TIP3    H217277   4.035   6.043   3.255
 5774TIP3   OH217278   2.494   4.030   2.019
 5774TIP3    H117279   2.405   4.063   2.019
 5774TIP3    H217280   2.494   3.961   1.952
 5775TIP3   OH217281   7.474   5.223   4.447
 5775TIP3    H117282   7.471   5.161   4.520
 5775TIP3    H217283   7.566   5.224   4.421
 5776TIP3   OH217284   2.015   3.110   4.107
 5776TIP3    H117285   1.954   3.183   4.113
 5776TIP3    H217286   1.975   3.050   4.043
 5777TIP3   OH217287   6.811   3.464   1.277
 5777TIP3    H117288   6.844   3.374   1.264
 5777TIP3    H217289   6.877   3.505   1.333
 5778TIP3   OH217290   3.028   3.898   4.667
 5778TIP3    H117291   2.941   3.914   4.630
 5778TIP3    H217292   3.054   3.983   4.704
 5779TIP3   OH217293   3.742   5.534   4.683
 5779TIP3    H117294   3.692   5.476   4.626
 5779TIP3    H217295   3.829   5.495   4.686
 5780TIP3   OH217296   3.637   6.584   6.421
 5780TIP3    H117297   3.637   6.582   6.517
 5780TIP3    H217298   3.690   6.508   6.396
 5781TIP3   OH217299   3.114   6.312   1.744
 5781TIP3    H117300   3.085   6.383   1.686
 5781TIP3    H217301   3.181   6.266   1.694
 5782TIP3   OH217302   6.514   4.453   0.698
 5782TIP3    H117303   6.596   4.461   0.748
 5782TIP3    H217304   6.459   4.396   0.751
 5783TIP3   OH217305   5.609   5.579   0.257
 5783TIP3    H117306   5.621   5.583   0.162
 5783TIP3    H217307   5.688   5.617   0.294
 5784TIP3   OH217308   0.434   2.904   0.406
 5784TIP3    H117309   0.467   2.816   0.425
 5784TIP3    H217310   0.339   2.897   0.415
 5785TIP3   OH217311   3.632   1.068   5.303
 5785TIP3    H117312   3.708   1.013   5.286
 5785TIP3    H217313   3.622   1.067   5.398
 5786TIP3   OH217314   3.784   0.810   2.878
 5786TIP3    H117315   3.804   0.839   2.789
 5786TIP3    H217316   3.726   0.877   2.913
 5787TIP3   OH217317   5.880   4.290   6.232
 5787TIP3    H117318   5.961   4.319   6.191
 5787TIP3    H217319   5.812   4.342   6.189
 5788TIP3   OH217320   2.532   5.327   1.026
 5788TIP3    H117321   2.615   5.279   1.015
 5788TIP3    H217322   2.466   5.268   0.990
 5789TIP3   OH217323   6.172   6.628   2.820
 5789TIP3    H117324   6.155   6.716   2.788
 5789TIP3    H217325   6.098   6.607   2.876
 5790TIP3   OH217326   4.853   2.189   2.571
 5790TIP3    H117327   4.944   2.212   2.588
 5790TIP3    H217328   4.803   2.241   2.634
 5791TIP3   OH217329   3.413   7.647   0.710
 5791TIP3    H117330   3.468   7.681   0.781
 5791TIP3    H217331   3.438   7.555   0.703
 5792TIP3   OH217332   4.849   1.103   5.273
 5792TIP3    H117333   4.788   1.175   5.286
 5792TIP3    H217334   4.793   1.027   5.255
 5793TIP3   OH217335   6.186   7.459   2.602
 5793TIP3    H117336   6.094   7.436   2.589
 5793TIP3    H217337   6.183   7.545   2.644
 5794TIP3   OH217338   6.312   1.589   6.517
 5794TIP3    H117339   6.318   1.494   6.527
 5794TIP3    H217340   6.219   1.609   6.529
 5795TIP3   OH217341   4.539   3.606   6.164
 5795TIP3    H117342   4.545   3.548   6.240
 5795TIP3    H217343   4.524   3.693   6.202
 5796TIP3   OH217344   1.116   5.231   0.896
 5796TIP3    H117345   1.106   5.321   0.928
 5796TIP3    H217346   1.067   5.178   0.959
 5797TIP3   OH217347   5.298   5.908   0.733
 5797TIP3    H117348   5.353   5.900   0.811
 5797TIP3    H217349   5.222   5.854   0.751
 5798TIP3   OH217350   4.794   6.746   4.204
 5798TIP3    H117351   4.846   6.821   4.177
 5798TIP3    H217352   4.725   6.782   4.260
 5799TIP3   OH217353   7.320   6.974   1.600
 5799TIP3    H117354   7.355   7.016   1.522
 5799TIP3    H217355   7.398   6.949   1.650
 5800TIP3   OH217356   2.537   1.858   5.053
 5800TIP3    H117357   2.483   1.891   4.981
 5800TIP3    H217358   2.604   1.805   5.010
 5801TIP3   OH217359   4.292   4.243   6.187
 5801TIP3    H117360   4.318   4.192   6.264
 5801TIP3    H217361   4.356   4.219   6.120
 5802TIP3   OH217362   2.880   0.435   1.724
 5802TIP3    H117363   2.964   0.468   1.693
 5802TIP3    H217364   2.901   0.382   1.801
 5803TIP3   OH217365   7.124   2.217   5.558
 5803TIP3    H117366   7.138   2.274   5.482
 5803TIP3    H217367   7.154   2.131   5.529
 5804TIP3   OH217368   6.323   4.511   1.430
 5804TIP3    H117369   6.397   4.556   1.388
 5804TIP3    H217370   6.272   4.582   1.469
 5805TIP3   OH217371   0.647   5.666   6.160
 5805TIP3    H117372   0.601   5.696   6.239
 5805TIP3    H217373   0.581   5.618   6.111
 5806TIP3   OH217374   7.546   3.304   2.931
 5806TIP3    H117375   7.506   3.306   2.844
 5806TIP3    H217376   7.576   3.394   2.946
 5807TIP3   OH217377   2.038   0.077   3.471
 5807TIP3    H117378   2.021   0.160   3.517
 5807TIP3    H217379   2.052   0.103   3.380
 5808TIP3   OH217380   6.353   4.223   5.856
 5808TIP3    H117381   6.285   4.157   5.843
 5808TIP3    H217382   6.369   4.259   5.769
 5809TIP3   OH217383   0.762   3.289   2.835
 5809TIP3    H117384   0.799   3.283   2.747
 5809TIP3    H217385   0.777   3.202   2.873
 5810TIP3   OH217386   5.769   6.064   6.034
 5810TIP3    H117387   5.711   6.063   6.110
 5810TIP3    H217388   5.856   6.082   6.069
 5811TIP3   OH217389   0.808   4.559   2.359
 5811TIP3    H117390   0.822   4.651   2.336
 5811TIP3    H217391   0.873   4.542   2.427
 5812TIP3   OH217392   6.268   4.759   0.757
 5812TIP3    H117393   6.252   4.671   0.722
 5812TIP3    H217394   6.339   4.793   0.703
 5813TIP3   OH217395   4.057   5.283   3.096
 5813TIP3    H117396   4.050   5.377   3.115
 5813TIP3    H217397   3.974   5.261   3.054
 5814TIP3   OH217398   3.103   2.609   4.471
 5814TIP3    H117399   3.173   2.546   4.487
 5814TIP3    H217400   3.032   2.583   4.529
 5815TIP3   OH217401   1.739   5.487   0.301
 5815TIP3    H117402   1.662   5.431   0.297
 5815TIP3    H217403   1.709   5.572   0.270
 5816TIP3   OH217404   5.740   4.453   4.232
 5816TIP3    H117405   5.752   4.390   4.161
 5816TIP3    H217406   5.701   4.403   4.303
 5817TIP3   OH217407   4.237   6.148   1.777
 5817TIP3    H117408   4.179   6.078   1.807
 5817TIP3    H217409   4.258   6.125   1.686
 5818TIP3   OH217410   6.532   6.197   0.457
 5818TIP3    H117411   6.626   6.191   0.440
 5818TIP3    H217412   6.508   6.285   0.426
 5819TIP3   OH217413   0.279   2.575   3.883
 5819TIP3    H117414   0.251   2.486   3.902
 5819TIP3    H217415   0.350   2.566   3.820
 5820TIP3   OH217416   4.040   3.710   5.435
 5820TIP3    H117417   4.013   3.657   5.360
 5820TIP3    H217418   3.960   3.725   5.484
 5821TIP3   OH217419   5.484   7.415   3.515
 5821TIP3    H117420   5.566   7.436   3.560
 5821TIP3    H217421   5.495   7.453   3.427
 5822TIP3   OH217422   2.038   7.553   1.269
 5822TIP3    H117423   2.079   7.627   1.314
 5822TIP3    H217424   1.968   7.525   1.329
 5823TIP3   OH217425   2.298   1.889   1.730
 5823TIP3    H117426   2.225   1.837   1.763
 5823TIP3    H217427   2.300   1.966   1.788
 5824TIP3   OH217428   2.243   6.697   4.751
 5824TIP3    H117429   2.174   6.666   4.810
 5824TIP3    H217430   2.221   6.788   4.733
 5825TIP3   OH217431   8.184   1.483   5.596
 5825TIP3    H117432   8.268   1.436   5.594
 5825TIP3    H217433   8.140   1.455   5.516
 5826TIP3   OH217434   3.175   3.026   0.394
 5826TIP3    H117435   3.131   2.971   0.458
 5826TIP3    H217436   3.112   3.095   0.375
 5827TIP3   OH217437   3.872   0.144   0.769
 5827TIP3    H117438   3.920   0.091   0.833
 5827TIP3    H217439   3.787   0.158   0.809
 5828TIP3   OH217440   3.189   5.056   1.565
 5828TIP3    H117441   3.144   5.008   1.495
 5828TIP3    H217442   3.153   5.144   1.561
 5829TIP3   OH217443   0.153   7.521   0.084
 5829TIP3    H117444   0.127   7.556  -0.001
 5829TIP3    H217445   0.086   7.455   0.105
 5830TIP3   OH217446   0.910   4.251   1.312
 5830TIP3    H117447   0.872   4.205   1.238
 5830TIP3    H217448   0.862   4.220   1.388
 5831TIP3   OH217449   0.360   7.003   5.388
 5831TIP3    H117450   0.276   6.965   5.413
 5831TIP3    H217451   0.425   6.952   5.438
 5832TIP3   OH217452   6.397   5.237   1.929
 5832TIP3    H117453   6.448   5.273   1.856
 5832TIP3    H217454   6.451   5.165   1.962
 5833TIP3   OH217455   3.824   1.675   4.232
 5833TIP3    H117456   3.786   1.715   4.310
 5833TIP3    H217457   3.805   1.582   4.240
 5834TIP3   OH217458   3.223   1.048   6.645
 5834TIP3    H117459   3.139   1.006   6.664
 5834TIP3    H217460   3.276   0.979   6.606
 5835TIP3   OH217461   0.647   3.207   1.520
 5835TIP3    H117462   0.667   3.119   1.555
 5835TIP3    H217463   0.611   3.254   1.594
 5836TIP3   OH217464   2.448   4.019   5.174
 5836TIP3    H117465   2.363   3.977   5.190
 5836TIP3    H217466   2.493   4.015   5.259
 5837TIP3   OH217467   1.794   4.672   1.670
 5837TIP3    H117468   1.864   4.725   1.632
 5837TIP3    H217469   1.746   4.637   1.595
 5838TIP3   OH217470   2.363   7.449   4.612
 5838TIP3    H117471   2.274   7.483   4.598
 5838TIP3    H217472   2.397   7.501   4.685
 5839TIP3   OH217473   7.235   7.543   2.536
 5839TIP3    H117474   7.290   7.586   2.601
 5839TIP3    H217475   7.237   7.450   2.561
 5840TIP3   OH217476   6.651   7.800   2.471
 5840TIP3    H117477   6.601   7.753   2.404
 5840TIP3    H217478   6.734   7.820   2.428
 5841TIP3   OH217479   6.389   6.136   2.249
 5841TIP3    H117480   6.386   6.229   2.271
 5841TIP3    H217481   6.328   6.095   2.311
 5842TIP3   OH217482   6.624   0.238   4.085
 5842TIP3    H117483   6.548   0.231   4.027
 5842TIP3    H217484   6.641   0.332   4.091
 5843TIP3   OH217485   3.064   7.542   4.373
 5843TIP3    H117486   3.027   7.533   4.460
 5843TIP3    H217487   3.020   7.618   4.335
 5844TIP3   OH217488   0.145   3.169   0.672
 5844TIP3    H117489   0.139   3.087   0.623
 5844TIP3    H217490   0.168   3.235   0.606
 5845TIP3   OH217491   8.135   5.064   2.740
 5845TIP3    H117492   8.162   5.066   2.648
 5845TIP3    H217493   8.216   5.078   2.789
 5846TIP3   OH217494   4.701   7.544   2.725
 5846TIP3    H117495   4.679   7.627   2.682
 5846TIP3    H217496   4.697   7.479   2.654
 5847TIP3   OH217497   6.442   5.688   0.543
 5847TIP3    H117498   6.485   5.668   0.626
 5847TIP3    H217499   6.395   5.608   0.520
 5848TIP3   OH217500   3.230   3.765   0.744
 5848TIP3    H117501   3.212   3.772   0.838
 5848TIP3    H217502   3.144   3.757   0.703
 5849TIP3   OH217503   1.954   1.049   3.427
 5849TIP3    H117504   1.996   1.114   3.483
 5849TIP3    H217505   1.915   1.101   3.356
 5850TIP3   OH217506   3.681   3.641   6.070
 5850TIP3    H117507   3.771   3.672   6.058
 5850TIP3    H217508   3.672   3.569   6.007
 5851TIP3   OH217509   7.115   0.482   1.890
 5851TIP3    H117510   7.210   0.493   1.879
 5851TIP3    H217511   7.077   0.541   1.825
 5852TIP3   OH217512   6.830   0.665   2.013
 5852TIP3    H117513   6.881   0.729   1.964
 5852TIP3    H217514   6.761   0.717   2.055
 5853TIP3   OH217515   1.061   7.614   3.089
 5853TIP3    H117516   0.979   7.565   3.091
 5853TIP3    H217517   1.129   7.548   3.077
 5854TIP3   OH217518   0.044   1.694   5.392
 5854TIP3    H117519   0.056   1.602   5.416
 5854TIP3    H217520   0.069   1.743   5.471
 5855TIP3   OH217521   4.789   5.708   2.853
 5855TIP3    H117522   4.883   5.705   2.834
 5855TIP3    H217523   4.758   5.620   2.834
 5856TIP3   OH217524   5.337   4.110   5.008
 5856TIP3    H117525   5.416   4.071   5.045
 5856TIP3    H217526   5.265   4.070   5.057
 5857TIP3   OH217527   0.033   5.185   1.101
 5857TIP3    H117528  -0.013   5.106   1.128
 5857TIP3    H217529  -0.034   5.240   1.061
 5858TIP3   OH217530   2.393   5.643   6.015
 5858TIP3    H117531   2.426   5.586   6.084
 5858TIP3    H217532   2.444   5.723   6.025
 5859TIP3   OH217533   3.865   2.920   2.227
 5859TIP3    H117534   3.776   2.925   2.262
 5859TIP3    H217535   3.856   2.869   2.147
 5860TIP3   OH217536   5.926   4.698   0.936
 5860TIP3    H117537   6.012   4.717   0.975
 5860TIP3    H217538   5.946   4.672   0.846
 5861TIP3   OH217539   3.449   1.752   1.291
 5861TIP3    H117540   3.465   1.770   1.384
 5861TIP3    H217541   3.436   1.839   1.252
 5862TIP3   OH217542   7.081   1.275   3.245
 5862TIP3    H117543   7.090   1.186   3.281
 5862TIP3    H217544   7.036   1.324   3.315
 5863TIP3   OH217545   0.400   7.356   1.528
 5863TIP3    H117546   0.388   7.446   1.497
 5863TIP3    H217547   0.448   7.313   1.457
 5864TIP3   OH217548   7.670   1.836   5.578
 5864TIP3    H117549   7.650   1.811   5.488
 5864TIP3    H217550   7.620   1.916   5.593
 5865TIP3   OH217551   7.734   1.583   4.401
 5865TIP3    H117552   7.773   1.561   4.316
 5865TIP3    H217553   7.734   1.679   4.403
 5866TIP3   OH217554   2.743   6.612   5.015
 5866TIP3    H117555   2.780   6.602   5.103
 5866TIP3    H217556   2.666   6.554   5.015
 5867TIP3   OH217557   5.571   3.875   3.841
 5867TIP3    H117558   5.631   3.846   3.909
 5867TIP3    H217559   5.626   3.917   3.775
 5868TIP3   OH217560   0.811   3.730   6.611
 5868TIP3    H117561   0.735   3.672   6.613
 5868TIP3    H217562   0.796   3.792   6.682
 5869TIP3   OH217563   0.562   2.379   1.332
 5869TIP3    H117564   0.649   2.342   1.315
 5869TIP3    H217565   0.569   2.471   1.305
 5870TIP3   OH217566   0.690   5.296   3.921
 5870TIP3    H117567   0.708   5.369   3.862
 5870TIP3    H217568   0.764   5.237   3.908
 5871TIP3   OH217569   1.573   2.797   2.913
 5871TIP3    H117570   1.589   2.833   3.000
 5871TIP3    H217571   1.648   2.826   2.861
 5872TIP3   OH217572   1.315   5.382   4.818
 5872TIP3    H117573   1.318   5.312   4.753
 5872TIP3    H217574   1.226   5.379   4.853
 5873TIP3   OH217575   5.853   5.190   4.599
 5873TIP3    H117576   5.864   5.130   4.673
 5873TIP3    H217577   5.930   5.246   4.601
 5874TIP3   OH217578   7.460   7.640   1.852
 5874TIP3    H117579   7.521   7.621   1.924
 5874TIP3    H217580   7.374   7.634   1.892
 5875TIP3   OH217581   7.684   5.341   5.133
 5875TIP3    H117582   7.627   5.333   5.057
 5875TIP3    H217583   7.643   5.410   5.186
 5876TIP3   OH217584   2.021   6.082   6.450
 5876TIP3    H117585   2.093   6.127   6.406
 5876TIP3    H217586   1.949   6.082   6.386
 5877TIP3   OH217587   8.007   0.095   0.583
 5877TIP3    H117588   7.915   0.083   0.560
 5877TIP3    H217589   8.047   0.132   0.504
 5878TIP3   OH217590   0.295   6.383   4.594
 5878TIP3    H117591   0.342   6.306   4.625
 5878TIP3    H217592   0.280   6.366   4.501
 5879TIP3   OH217593   2.002   4.948   0.412
 5879TIP3    H117594   2.013   4.854   0.401
 5879TIP3    H217595   1.994   4.982   0.323
 5880TIP3   OH217596   1.784   4.898   6.306
 5880TIP3    H117597   1.812   4.819   6.352
 5880TIP3    H217598   1.861   4.954   6.307
 5881TIP3   OH217599   7.100   4.744   5.517
 5881TIP3    H117600   7.080   4.738   5.424
 5881TIP3    H217601   7.044   4.678   5.558
 5882TIP3   OH217602   5.736   2.078   0.659
 5882TIP3    H117603   5.698   2.162   0.634
 5882TIP3    H217604   5.669   2.036   0.713
 5883TIP3   OH217605   7.402   7.018   3.782
 5883TIP3    H117606   7.435   7.047   3.697
 5883TIP3    H217607   7.413   6.923   3.781
 5884TIP3   OH217608   1.304   2.205   3.659
 5884TIP3    H117609   1.218   2.237   3.632
 5884TIP3    H217610   1.342   2.168   3.579
 5885TIP3   OH217611   2.039   2.976   0.121
 5885TIP3    H117612   1.990   2.933   0.191
 5885TIP3    H217613   1.972   2.999   0.056
 5886TIP3   OH217614   2.697   2.786   4.243
 5886TIP3    H117615   2.685   2.707   4.295
 5886TIP3    H217616   2.788   2.813   4.260
 5887TIP3   OH217617   2.798   3.492   1.058
 5887TIP3    H117618   2.880   3.495   1.108
 5887TIP3    H217619   2.774   3.583   1.045
 5888TIP3   OH217620   4.668   2.016   4.609
 5888TIP3    H117621   4.627   1.994   4.692
 5888TIP3    H217622   4.752   2.055   4.633
 5889TIP3   OH217623   1.364   4.913   2.301
 5889TIP3    H117624   1.273   4.892   2.279
 5889TIP3    H217625   1.415   4.881   2.227
 5890TIP3   OH217626   1.651   5.726   5.547
 5890TIP3    H117627   1.602   5.804   5.521
 5890TIP3    H217628   1.688   5.692   5.466
 5891TIP3   OH217629   0.633   7.752   1.581
 5891TIP3    H117630   0.615   7.799   1.499
 5891TIP3    H217631   0.546   7.731   1.615
 5892TIP3   OH217632   7.696   0.975   4.749
 5892TIP3    H117633   7.673   1.065   4.772
 5892TIP3    H217634   7.742   0.941   4.826
 5893TIP3   OH217635   2.990   3.536   2.249
 5893TIP3    H117636   2.929   3.520   2.177
 5893TIP3    H217637   2.940   3.517   2.328
 5894TIP3   OH217638   3.462   1.428   2.206
 5894TIP3    H117639   3.552   1.438   2.175
 5894TIP3    H217640   3.428   1.518   2.208
 5895TIP3   OH217641   8.085   7.243   1.247
 5895TIP3    H117642   8.020   7.200   1.303
 5895TIP3    H217643   8.168   7.226   1.290
 5896TIP3   OH217644   5.845   6.565   0.987
 5896TIP3    H117645   5.858   6.486   1.039
 5896TIP3    H217646   5.787   6.537   0.915
 5897TIP3   OH217647   4.314   6.731   2.454
 5897TIP3    H117648   4.343   6.696   2.538
 5897TIP3    H217649   4.320   6.656   2.395
 5898TIP3   OH217650   0.875   7.775   3.360
 5898TIP3    H117651   0.952   7.727   3.329
 5898TIP3    H217652   0.802   7.715   3.344
 5899TIP3   OH217653   7.845   7.354   2.050
 5899TIP3    H117654   7.795   7.313   1.979
 5899TIP3    H217655   7.920   7.394   2.006
 5900TIP3   OH217656   4.249   7.485   4.502
 5900TIP3    H117657   4.280   7.505   4.590
 5900TIP3    H217658   4.161   7.449   4.515
 5901TIP3   OH217659   6.911   3.095   3.480
 5901TIP3    H117660   6.881   3.033   3.547
 5901TIP3    H217661   7.006   3.093   3.486
 5902TIP3   OH217662   0.456   7.656   1.251
 5902TIP3    H117663   0.485   7.745   1.228
 5902TIP3    H217664   0.431   7.662   1.343
 5903TIP3   OH217665   3.105   0.402   4.797
 5903TIP3    H117666   3.167   0.433   4.731
 5903TIP3    H217667   3.157   0.344   4.853
 5904TIP3   OH217668   7.077   3.903   1.002
 5904TIP3    H117669   7.079   3.829   0.942
 5904TIP3    H217670   7.095   3.980   0.947
 5905TIP3   OH217671   8.151   2.949   0.387
 5905TIP3    H117672   8.113   2.940   0.300
 5905TIP3    H217673   8.082   2.990   0.439
 5906TIP3   OH217674   4.547   3.560   5.630
 5906TIP3    H117675   4.505   3.511   5.560
 5906TIP3    H217676   4.492   3.544   5.707
 5907TIP3   OH217677   1.175   1.447   3.405
 5907TIP3    H117678   1.216   1.392   3.472
 5907TIP3    H217679   1.113   1.501   3.453
 5908TIP3   OH217680   4.797   1.121   4.541
 5908TIP3    H117681   4.774   1.030   4.523
 5908TIP3    H217682   4.888   1.118   4.569
 5909TIP3   OH217683   4.668   6.136   1.055
 5909TIP3    H117684   4.605   6.205   1.074
 5909TIP3    H217685   4.653   6.114   0.963
 5910TIP3   OH217686   1.578   3.874   2.973
 5910TIP3    H117687   1.636   3.845   3.043
 5910TIP3    H217688   1.588   3.808   2.904
 5911TIP3   OH217689   5.922   6.888   2.693
 5911TIP3    H117690   5.958   6.906   2.780
 5911TIP3    H217691   5.865   6.811   2.706
 5912TIP3   OH217692   2.900   5.059   1.477
 5912TIP3    H117693   2.924   5.027   1.564
 5912TIP3    H217694   2.828   5.119   1.493
 5913TIP3   OH217695   2.505   5.309   5.465
 5913TIP3    H117696   2.542   5.221   5.477
 5913TIP3    H217697   2.494   5.343   5.554
 5914TIP3   OH217698   6.602   0.952   6.662
 5914TIP3    H117699   6.523   0.940   6.715
 5914TIP3    H217700   6.571   0.991   6.581
 5915TIP3   OH217701   2.963   3.378   6.778
 5915TIP3    H117702   3.043   3.406   6.735
 5915TIP3    H217703   2.894   3.394   6.714
 5916TIP3   OH217704   3.466   3.300   4.381
 5916TIP3    H117705   3.403   3.368   4.358
 5916TIP3    H217706   3.506   3.330   4.462
 5917TIP3   OH217707   6.033   0.818   2.031
 5917TIP3    H117708   6.126   0.812   2.011
 5917TIP3    H217709   6.000   0.728   2.021
 5918TIP3   OH217710   7.622   4.476   1.055
 5918TIP3    H117711   7.644   4.543   0.990
 5918TIP3    H217712   7.527   4.468   1.049
 5919TIP3   OH217713   8.204   4.687   2.730
 5919TIP3    H117714   8.279   4.746   2.722
 5919TIP3    H217715   8.220   4.617   2.667
 5920TIP3   OH217716   0.290   4.177   2.289
 5920TIP3    H117717   0.348   4.121   2.341
 5920TIP3    H217718   0.283   4.132   2.205
 5921TIP3   OH217719   6.525   0.769   0.573
 5921TIP3    H117720   6.484   0.805   0.494
 5921TIP3    H217721   6.585   0.702   0.540
 5922TIP3   OH217722   6.419   3.313   4.330
 5922TIP3    H117723   6.329   3.342   4.345
 5922TIP3    H217724   6.411   3.225   4.292
 5923TIP3   OH217725   7.750   4.875   1.397
 5923TIP3    H117726   7.716   4.789   1.421
 5923TIP3    H217727   7.674   4.933   1.403
 5924TIP3   OH217728   5.579   3.102   3.543
 5924TIP3    H117729   5.568   3.041   3.615
 5924TIP3    H217730   5.517   3.072   3.476
 5925TIP3   OH217731   4.098   0.162   5.251
 5925TIP3    H117732   4.010   0.189   5.225
 5925TIP3    H217733   4.143   0.244   5.272
 5926TIP3   OH217734   0.814   6.457   6.338
 5926TIP3    H117735   0.852   6.542   6.313
 5926TIP3    H217736   0.777   6.423   6.257
 5927TIP3   OH217737   0.397   0.587   5.405
 5927TIP3    H117738   0.478   0.540   5.425
 5927TIP3    H217739   0.327   0.526   5.429
 5928TIP3   OH217740   4.928   4.278   5.256
 5928TIP3    H117741   4.989   4.206   5.239
 5928TIP3    H217742   4.846   4.251   5.215
 5929TIP3   OH217743   5.493   3.001   3.796
 5929TIP3    H117744   5.532   3.035   3.877
 5929TIP3    H217745   5.516   2.908   3.796
 5930TIP3   OH217746   4.512   2.266   6.705
 5930TIP3    H117747   4.505   2.231   6.794
 5930TIP3    H217748   4.459   2.207   6.652
 5931TIP3   OH217749   8.117   3.663   6.032
 5931TIP3    H117750   8.029   3.680   6.065
 5931TIP3    H217751   8.151   3.594   6.089
 5932TIP3   OH217752   5.074   1.489   4.027
 5932TIP3    H117753   5.132   1.454   4.094
 5932TIP3    H217754   5.002   1.427   4.023
 5933TIP3   OH217755   0.635   0.978   1.184
 5933TIP3    H117756   0.708   1.023   1.141
 5933TIP3    H217757   0.594   0.927   1.114
 5934TIP3   OH217758   3.644   7.801   5.486
 5934TIP3    H117759   3.660   7.753   5.568
 5934TIP3    H217760   3.694   7.882   5.496
 5935TIP3   OH217761   3.196   0.663   6.430
 5935TIP3    H117762   3.211   0.586   6.376
 5935TIP3    H217763   3.238   0.642   6.514
 5936TIP3   OH217764   1.796   1.721   3.606
 5936TIP3    H117765   1.861   1.651   3.614
 5936TIP3    H217766   1.792   1.739   3.512
 5937TIP3   OH217767   1.660   7.656   3.631
 5937TIP3    H117768   1.670   7.748   3.658
 5937TIP3    H217769   1.577   7.655   3.583
 5938TIP3   OH217770   5.903   6.660   0.263
 5938TIP3    H117771   5.933   6.617   0.183
 5938TIP3    H217772   5.848   6.732   0.232
 5939TIP3   OH217773   4.204   0.846   0.302
 5939TIP3    H117774   4.178   0.936   0.324
 5939TIP3    H217775   4.136   0.816   0.242
 5940TIP3   OH217776   3.188   4.793   3.128
 5940TIP3    H117777   3.235   4.862   3.083
 5940TIP3    H217778   3.155   4.835   3.208
 5941TIP3   OH217779   3.962   1.110   5.955
 5941TIP3    H117780   3.882   1.108   6.007
 5941TIP3    H217781   3.958   1.031   5.901
 5942TIP3   OH217782   5.382   6.127   4.746
 5942TIP3    H117783   5.445   6.075   4.796
 5942TIP3    H217784   5.297   6.099   4.779
 5943TIP3   OH217785   4.176   4.729   4.910
 5943TIP3    H117786   4.192   4.647   4.956
 5943TIP3    H217787   4.106   4.708   4.847
 5944TIP3   OH217788   0.872   3.532   5.929
 5944TIP3    H117789   0.858   3.437   5.927
 5944TIP3    H217790   0.914   3.548   6.013
 5945TIP3   OH217791   6.333   1.942   2.379
 5945TIP3    H117792   6.262   2.004   2.399
 5945TIP3    H217793   6.300   1.891   2.305
 5946TIP3   OH217794   2.912   4.770   0.609
 5946TIP3    H117795   2.835   4.714   0.614
 5946TIP3    H217796   2.880   4.857   0.632
 5947TIP3   OH217797   8.238   4.881   5.466
 5947TIP3    H117798   8.161   4.915   5.511
 5947TIP3    H217799   8.312   4.906   5.522
 5948TIP3   OH217800   3.296   3.478   3.334
 5948TIP3    H117801   3.237   3.409   3.364
 5948TIP3    H217802   3.366   3.431   3.288
 5949TIP3   OH217803   5.701   3.114   6.643
 5949TIP3    H117804   5.670   3.205   6.639
 5949TIP3    H217805   5.724   3.093   6.552
 5950TIP3   OH217806   2.050   1.457   1.943
 5950TIP3    H117807   2.143   1.463   1.923
 5950TIP3    H217808   2.018   1.389   1.884
 5951TIP3   OH217809   1.723   2.434   2.816
 5951TIP3    H117810   1.691   2.502   2.757
 5951TIP3    H217811   1.657   2.365   2.812
 5952TIP3   OH217812   3.108   4.703   2.556
 5952TIP3    H117813   3.174   4.772   2.560
 5952TIP3    H217814   3.154   4.625   2.587
 5953TIP3   OH217815   7.031   0.340   3.014
 5953TIP3    H117816   7.042   0.257   2.968
 5953TIP3    H217817   6.966   0.387   2.961
 5954TIP3   OH217818   5.894   6.717   4.797
 5954TIP3    H117819   5.953   6.714   4.873
 5954TIP3    H217820   5.809   6.691   4.832
 5955TIP3   OH217821   7.619   5.556   2.136
 5955TIP3    H117822   7.665   5.628   2.178
 5955TIP3    H217823   7.630   5.482   2.197
 5956TIP3   OH217824   4.830   5.884   6.145
 5956TIP3    H117825   4.820   5.896   6.240
 5956TIP3    H217826   4.772   5.950   6.107
 5957TIP3   OH217827   3.605   1.054   4.979
 5957TIP3    H117828   3.574   1.145   4.984
 5957TIP3    H217829   3.700   1.061   4.987
 5958TIP3   OH217830   4.702   6.930   5.030
 5958TIP3    H117831   4.763   7.003   5.022
 5958TIP3    H217832   4.672   6.914   4.940
 5959TIP3   OH217833   3.919   7.592   0.016
 5959TIP3    H117834   3.842   7.591  -0.042
 5959TIP3    H217835   3.913   7.676   0.062
 5960TIP3   OH217836   7.238   1.668   2.594
 5960TIP3    H117837   7.279   1.689   2.678
 5960TIP3    H217838   7.145   1.659   2.614
 5961TIP3   OH217839   2.408   7.256   3.950
 5961TIP3    H117840   2.363   7.338   3.933
 5961TIP3    H217841   2.359   7.215   4.021
 5962TIP3   OH217842   2.818   7.616   3.600
 5962TIP3    H117843   2.750   7.567   3.647
 5962TIP3    H217844   2.849   7.680   3.664
 5963TIP3   OH217845   1.881   1.467   1.347
 5963TIP3    H117846   1.787   1.483   1.354
 5963TIP3    H217847   1.921   1.529   1.408
 5964TIP3   OH217848   1.992   6.926   2.497
 5964TIP3    H117849   2.064   6.918   2.435
 5964TIP3    H217850   1.998   6.848   2.552
 5965TIP3   OH217851   1.459   6.183   6.160
 5965TIP3    H117852   1.365   6.188   6.175
 5965TIP3    H217853   1.470   6.208   6.069
 5966TIP3   OH217854   1.430   6.992   3.757
 5966TIP3    H117855   1.420   7.050   3.681
 5966TIP3    H217856   1.346   6.947   3.764
 5967TIP3   OH217857   3.943   4.870   1.036
 5967TIP3    H117858   3.969   4.911   1.119
 5967TIP3    H217859   3.983   4.925   0.969
 5968TIP3   OH217860   2.443   3.415   2.149
 5968TIP3    H117861   2.387   3.468   2.092
 5968TIP3    H217862   2.454   3.468   2.228
 5969TIP3   OH217863   2.608   4.843   2.878
 5969TIP3    H117864   2.586   4.850   2.785
 5969TIP3    H217865   2.697   4.808   2.879
 5970TIP3   OH217866   7.772   5.784   5.890
 5970TIP3    H117867   7.753   5.690   5.881
 5970TIP3    H217868   7.866   5.791   5.873
 5971TIP3   OH217869   3.055   4.896   4.255
 5971TIP3    H117870   2.971   4.865   4.287
 5971TIP3    H217871   3.086   4.956   4.323
 5972TIP3   OH217872   5.633   7.522   0.155
 5972TIP3    H117873   5.639   7.612   0.125
 5972TIP3    H217874   5.616   7.471   0.076
 5973TIP3   OH217875   6.547   0.548   0.102
 5973TIP3    H117876   6.554   0.555   0.007
 5973TIP3    H217877   6.637   0.531   0.131
 5974TIP3   OH217878   5.859   2.604   2.575
 5974TIP3    H117879   5.880   2.560   2.657
 5974TIP3    H217880   5.943   2.610   2.529
 5975TIP3   OH217881   3.852   6.137   0.897
 5975TIP3    H117882   3.853   6.210   0.960
 5975TIP3    H217883   3.907   6.070   0.937
 5976TIP3   OH217884   5.871   5.501   6.084
 5976TIP3    H117885   5.806   5.481   6.017
 5976TIP3    H217886   5.861   5.595   6.101
 5977TIP3   OH217887   0.325   1.889   3.203
 5977TIP3    H117888   0.255   1.830   3.230
 5977TIP3    H217889   0.287   1.976   3.207
 5978TIP3   OH217890   0.877   7.553   1.749
 5978TIP3    H117891   0.819   7.480   1.773
 5978TIP3    H217892   0.818   7.626   1.729
 5979TIP3   OH217893   1.143   2.108   4.865
 5979TIP3    H117894   1.235   2.123   4.882
 5979TIP3    H217895   1.115   2.185   4.815
 5980TIP3   OH217896   7.115   3.355   2.009
 5980TIP3    H117897   7.038   3.355   2.066
 5980TIP3    H217898   7.161   3.274   2.031
 5981TIP3   OH217899   5.789   3.991   3.692
 5981TIP3    H117900   5.879   4.022   3.687
 5981TIP3    H217901   5.784   3.920   3.628
 5982TIP3   OH217902   6.687   4.233   0.242
 5982TIP3    H117903   6.752   4.291   0.280
 5982TIP3    H217904   6.712   4.145   0.271
 5983TIP3   OH217905   7.192   7.134   3.931
 5983TIP3    H117906   7.184   7.188   3.853
 5983TIP3    H217907   7.244   7.059   3.903
 5984TIP3   OH217908   6.053   1.212   5.980
 5984TIP3    H117909   5.994   1.161   6.037
 5984TIP3    H217910   5.995   1.250   5.914
 5985TIP3   OH217911   4.737   2.832   3.889
 5985TIP3    H117912   4.672   2.842   3.959
 5985TIP3    H217913   4.694   2.868   3.811
 5986TIP3   OH217914   4.540   2.203   0.008
 5986TIP3    H117915   4.562   2.110   0.012
 5986TIP3    H217916   4.611   2.242  -0.043
 5987TIP3   OH217917   5.735   5.277   2.364
 5987TIP3    H117918   5.804   5.297   2.302
 5987TIP3    H217919   5.734   5.181   2.369
 5988TIP3   OH217920   7.579   2.481   4.117
 5988TIP3    H117921   7.651   2.440   4.069
 5988TIP3    H217922   7.621   2.521   4.194
 5989TIP3   OH217923   1.801   1.140   3.728
 5989TIP3    H117924   1.871   1.189   3.686
 5989TIP3    H217925   1.743   1.113   3.657
 5990TIP3   OH217926   5.322   1.837   0.005
 5990TIP3    H117927   5.270   1.873  -0.066
 5990TIP3    H217928   5.260   1.787   0.058
 5991TIP3   OH217929   7.437   3.097   4.277
 5991TIP3    H117930   7.412   3.187   4.255
 5991TIP3    H217931   7.457   3.057   4.193
 5992TIP3   OH217932   8.035   3.681   2.004
 5992TIP3    H117933   7.971   3.612   2.022
 5992TIP3    H217934   8.026   3.742   2.077
 5993TIP3   OH217935   2.058   4.027   0.494
 5993TIP3    H117936   2.128   3.964   0.478
 5993TIP3    H217937   1.978   3.982   0.467
 5994TIP3   OH217938   3.096   5.358   1.829
 5994TIP3    H117939   3.078   5.330   1.740
 5994TIP3    H217940   3.188   5.339   1.843
 5995TIP3   OH217941   0.644   3.082   1.281
 5995TIP3    H117942   0.628   3.122   1.366
 5995TIP3    H217943   0.590   3.002   1.282
 5996TIP3   OH217944   6.042   0.698   1.041
 5996TIP3    H117945   6.044   0.602   1.034
 5996TIP3    H217946   6.060   0.728   0.952
 5997TIP3   OH217947   2.920   5.488   4.994
 5997TIP3    H117948   2.866   5.565   4.977
 5997TIP3    H217949   2.913   5.436   4.914
 5998TIP3   OH217950   0.220   3.921   2.640
 5998TIP3    H117951   0.302   3.895   2.597
 5998TIP3    H217952   0.159   3.937   2.568
 5999TIP3   OH217953   0.207   0.861   0.815
 5999TIP3    H117954   0.125   0.910   0.829
 5999TIP3    H217955   0.207   0.840   0.722
 6000TIP3   OH217956   4.450   5.042   1.678
 6000TIP3    H117957   4.430   4.986   1.603
 6000TIP3    H217958   4.391   5.117   1.668
 6001TIP3   OH217959   7.581   0.113   2.869
 6001TIP3    H117960   7.648   0.060   2.825
 6001TIP3    H217961   7.629   0.159   2.939
 6002TIP3   OH217962   7.642   3.739   1.230
 6002TIP3    H117963   7.561   3.694   1.205
 6002TIP3    H217964   7.694   3.742   1.149
 6003TIP3   OH217965   1.990   5.589   4.512
 6003TIP3    H117966   1.948   5.574   4.427
 6003TIP3    H217967   1.989   5.684   4.524
 6004TIP3   OH217968   7.064   0.562   3.512
 6004TIP3    H117969   7.094   0.504   3.582
 6004TIP3    H217970   7.143   0.578   3.460
 6005TIP3   OH217971   8.149   5.096   1.586
 6005TIP3    H117972   8.224   5.143   1.548
 6005TIP3    H217973   8.114   5.044   1.515
 6006TIP3   OH217974   3.082   3.177   1.410
 6006TIP3    H117975   3.030   3.258   1.404
 6006TIP3    H217976   3.020   3.107   1.389
 6007TIP3   OH217977   3.863   5.350   2.287
 6007TIP3    H117978   3.835   5.440   2.266
 6007TIP3    H217979   3.926   5.361   2.358
 6008TIP3   OH217980   3.741   7.193   1.821
 6008TIP3    H117981   3.664   7.152   1.781
 6008TIP3    H217982   3.712   7.280   1.847
 6009TIP3   OH217983   3.908   4.642   3.266
 6009TIP3    H117984   4.004   4.643   3.267
 6009TIP3    H217985   3.883   4.689   3.346
 6010TIP3   OH217986   2.965   1.693   4.800
 6010TIP3    H117987   3.016   1.672   4.722
 6010TIP3    H217988   3.000   1.635   4.867
 6011TIP3   OH217989   1.721   1.388   3.838
 6011TIP3    H117990   1.724   1.294   3.855
 6011TIP3    H217991   1.807   1.419   3.865
 6012TIP3   OH217992   4.387   0.437   0.431
 6012TIP3    H117993   4.359   0.439   0.523
 6012TIP3    H217994   4.423   0.525   0.415
 6013TIP3   OH217995   5.838   7.049   3.259
 6013TIP3    H117996   5.818   6.956   3.257
 6013TIP3    H217997   5.772   7.087   3.317
 6014TIP3   OH217998   7.587   3.330   0.427
 6014TIP3    H117999   7.499   3.337   0.464
 6014TIP3    H218000   7.644   3.316   0.503
 6015TIP3   OH218001   8.009   1.648   5.256
 6015TIP3    H118002   8.075   1.715   5.237
 6015TIP3    H218003   8.017   1.585   5.185
 6016TIP3   OH218004   0.904   4.570   0.956
 6016TIP3    H118005   0.822   4.605   0.991
 6016TIP3    H218006   0.970   4.593   1.022
 6017TIP3   OH218007   6.747   2.673   4.047
 6017TIP3    H118008   6.751   2.766   4.022
 6017TIP3    H218009   6.661   2.644   4.018
 6018TIP3   OH218010   3.573   0.131   2.111
 6018TIP3    H118011   3.657   0.130   2.156
 6018TIP3    H218012   3.576   0.211   2.058
 6019TIP3   OH218013   3.558   5.911   4.887
 6019TIP3    H118014   3.524   5.999   4.900
 6019TIP3    H218015   3.651   5.923   4.866
 6020TIP3   OH218016   1.704   0.674   4.723
 6020TIP3    H118017   1.697   0.623   4.803
 6020TIP3    H218018   1.676   0.762   4.748
 6021TIP3   OH218019   0.412   6.857   5.031
 6021TIP3    H118020   0.451   6.904   5.105
 6021TIP3    H218021   0.389   6.771   5.067
 6022TIP3   OH218022   3.669   5.267   1.306
 6022TIP3    H118023   3.646   5.255   1.214
 6022TIP3    H218024   3.590   5.306   1.344
 6023TIP3   OH218025   0.355   7.048   0.056
 6023TIP3    H118026   0.314   7.013  -0.023
 6023TIP3    H218027   0.415   7.115   0.024
 6024TIP3   OH218028   6.150   3.313   3.784
 6024TIP3    H118029   6.207   3.315   3.707
 6024TIP3    H218030   6.173   3.231   3.827
 6025TIP3   OH218031   7.221   0.416   0.243
 6025TIP3    H118032   7.288   0.455   0.188
 6025TIP3    H218033   7.190   0.487   0.298
 6026TIP3   OH218034   3.105   6.483   4.989
 6026TIP3    H118035   3.080   6.519   4.904
 6026TIP3    H218036   3.088   6.553   5.052
 6027TIP3   OH218037   3.245   4.215   3.239
 6027TIP3    H118038   3.238   4.309   3.224
 6027TIP3    H218039   3.293   4.182   3.163
 6028TIP3   OH218040   0.691   4.506   0.336
 6028TIP3    H118041   0.782   4.529   0.320
 6028TIP3    H218042   0.685   4.497   0.431
 6029TIP3   OH218043   7.206   6.543   4.385
 6029TIP3    H118044   7.132   6.493   4.350
 6029TIP3    H218045   7.182   6.635   4.370
 6030TIP3   OH218046   2.657   5.323   2.104
 6030TIP3    H118047   2.670   5.323   2.009
 6030TIP3    H218048   2.745   5.319   2.140
 6031TIP3   OH218049   7.980   4.133   1.807
 6031TIP3    H118050   8.026   4.185   1.872
 6031TIP3    H218051   7.925   4.074   1.858
 6032TIP3   OH218052   3.335   6.727   5.998
 6032TIP3    H118053   3.305   6.810   6.036
 6032TIP3    H218054   3.262   6.698   5.944
 6033TIP3   OH218055   2.662   1.771   1.316
 6033TIP3    H118056   2.578   1.811   1.293
 6033TIP3    H218057   2.647   1.729   1.401
 6034TIP3   OH218058   3.666   7.660   3.549
 6034TIP3    H118059   3.635   7.603   3.479
 6034TIP3    H218060   3.729   7.606   3.597
 6035TIP3   OH218061   5.901   5.325   6.693
 6035TIP3    H118062   5.967   5.273   6.739
 6035TIP3    H218063   5.944   5.408   6.675
 6036TIP3   OH218064   6.737   2.870   2.294
 6036TIP3    H118065   6.815   2.924   2.281
 6036TIP3    H218066   6.723   2.827   2.210
 6037TIP3   OH218067   4.617   3.649   5.173
 6037TIP3    H118068   4.522   3.649   5.164
 6037TIP3    H218069   4.634   3.710   5.245
 6038TIP3   OH218070   4.086   2.826   0.548
 6038TIP3    H118071   4.062   2.738   0.575
 6038TIP3    H218072   4.005   2.876   0.556
 6039TIP3   OH218073   7.307   3.063   0.153
 6039TIP3    H118074   7.235   3.127   0.154
 6039TIP3    H218075   7.264   2.979   0.166
 6040TIP3   OH218076   7.496   2.381   0.773
 6040TIP3    H118077   7.485   2.328   0.852
 6040TIP3    H218078   7.408   2.387   0.736
 6041TIP3   OH218079   1.021   2.878   1.520
 6041TIP3    H118080   0.974   2.911   1.444
 6041TIP3    H218081   0.990   2.932   1.593
 6042TIP3   OH218082   0.484   2.495   3.706
 6042TIP3    H118083   0.560   2.512   3.761
 6042TIP3    H218084   0.516   2.435   3.639
 6043TIP3   OH218085   7.215   5.791   2.624
 6043TIP3    H118086   7.267   5.757   2.551
 6043TIP3    H218087   7.178   5.873   2.590
 6044TIP3   OH218088   7.987   1.993   6.594
 6044TIP3    H118089   8.046   2.016   6.666
 6044TIP3    H218090   7.940   1.916   6.625
 6045TIP3   OH218091   0.742   3.778   2.011
 6045TIP3    H118092   0.676   3.768   1.942
 6045TIP3    H218093   0.724   3.864   2.049
 6046TIP3   OH218094   4.726   5.812   4.214
 6046TIP3    H118095   4.766   5.740   4.165
 6046TIP3    H218096   4.637   5.818   4.180
 6047TIP3   OH218097   4.159   7.334   5.172
 6047TIP3    H118098   4.084   7.276   5.156
 6047TIP3    H218099   4.165   7.387   5.093
 6048TIP3   OH218100   3.931   0.092   6.591
 6048TIP3    H118101   3.993   0.156   6.627
 6048TIP3    H218102   3.987   0.030   6.543
 6049TIP3   OH218103   2.233   6.624   3.731
 6049TIP3    H118104   2.245   6.574   3.650
 6049TIP3    H218105   2.141   6.611   3.754
 6050TIP3   OH218106   4.083   0.719   6.254
 6050TIP3    H118107   4.071   0.667   6.334
 6050TIP3    H218108   4.157   0.777   6.273
 6051TIP3   OH218109   6.892   6.805   6.334
 6051TIP3    H118110   6.878   6.728   6.389
 6051TIP3    H218111   6.897   6.878   6.397
 6052TIP3   OH218112   7.626   0.485   1.543
 6052TIP3    H118113   7.531   0.479   1.554
 6052TIP3    H218114   7.645   0.430   1.467
 6053TIP3   OH218115   4.870   6.172   6.695
 6053TIP3    H118116   4.956   6.137   6.719
 6053TIP3    H218117   4.877   6.266   6.712
 6054TIP3   OH218118   0.750   0.579   5.637
 6054TIP3    H118119   0.845   0.584   5.649
 6054TIP3    H218120   0.723   0.669   5.620
 6055TIP3   OH218121   3.681   3.919   5.284
 6055TIP3    H118122   3.721   3.969   5.213
 6055TIP3    H218123   3.723   3.833   5.280
 6056TIP3   OH218124   4.352   4.688   1.260
 6056TIP3    H118125   4.322   4.685   1.169
 6056TIP3    H218126   4.326   4.604   1.297
 6057TIP3   OH218127   5.153   0.189   0.659
 6057TIP3    H118128   5.107   0.264   0.697
 6057TIP3    H218129   5.084   0.125   0.642
 6058TIP3   OH218130   2.885   2.603   0.625
 6058TIP3    H118131   2.938   2.582   0.548
 6058TIP3    H218132   2.795   2.608   0.592
 6059TIP3   OH218133   6.634   2.938   0.218
 6059TIP3    H118134   6.635   2.915   0.311
 6059TIP3    H218135   6.556   2.991   0.207
 6060TIP3   OH218136   5.818   7.772   0.025
 6060TIP3    H118137   5.912   7.761   0.041
 6060TIP3    H218138   5.806   7.745  -0.066
 6061TIP3   OH218139   1.943   0.088   6.509
 6061TIP3    H118140   1.874   0.153   6.504
 6061TIP3    H218141   2.023   0.137   6.529
 6062TIP3   OH218142   7.643   2.442   6.244
 6062TIP3    H118143   7.738   2.444   6.254
 6062TIP3    H218144   7.619   2.352   6.265
 6063TIP3   OH218145   0.587   0.981   4.055
 6063TIP3    H118146   0.526   1.053   4.069
 6063TIP3    H218147   0.546   0.929   3.985
 6064TIP3   OH218148   6.702   0.930   4.305
 6064TIP3    H118149   6.713   0.865   4.235
 6064TIP3    H218150   6.672   0.879   4.380
 6065TIP3   OH218151   2.930   2.889   6.053
 6065TIP3    H118152   2.890   2.951   5.993
 6065TIP3    H218153   2.983   2.832   5.997
 6066TIP3   OH218154   0.159   2.123   5.647
 6066TIP3    H118155   0.067   2.146   5.631
 6066TIP3    H218156   0.207   2.204   5.630
 6067TIP3   OH218157   7.692   7.729   6.458
 6067TIP3    H118158   7.656   7.680   6.384
 6067TIP3    H218159   7.616   7.750   6.513
 6068TIP3   OH218160   2.375   0.222   1.977
 6068TIP3    H118161   2.339   0.140   1.942
 6068TIP3    H218162   2.438   0.193   2.043
 6069TIP3   OH218163   0.648   6.389   5.648
 6069TIP3    H118164   0.676   6.303   5.619
 6069TIP3    H218165   0.713   6.416   5.713
 6070TIP3   OH218166   4.718   2.900   5.545
 6070TIP3    H118167   4.643   2.909   5.604
 6070TIP3    H218168   4.771   2.978   5.562
 6071TIP3   OH218169   7.945   1.877   0.650
 6071TIP3    H118170   7.867   1.866   0.596
 6071TIP3    H218171   7.971   1.788   0.674
 6072TIP3   OH218172   5.503   4.216   0.800
 6072TIP3    H118173   5.569   4.282   0.823
 6072TIP3    H218174   5.457   4.198   0.881
 6073TIP3   OH218175   3.832   7.163   5.948
 6073TIP3    H118176   3.769   7.115   6.001
 6073TIP3    H218177   3.901   7.100   5.928
 6074TIP3   OH218178   3.669   2.791   6.425
 6074TIP3    H118179   3.684   2.728   6.495
 6074TIP3    H218180   3.604   2.749   6.369
 6075TIP3   OH218181   2.631   1.872   6.327
 6075TIP3    H118182   2.719   1.864   6.289
 6075TIP3    H218183   2.639   1.834   6.415
 6076TIP3   OH218184   1.053   2.573   2.602
 6076TIP3    H118185   0.968   2.529   2.600
 6076TIP3    H218186   1.040   2.646   2.662
 6077TIP3   OH218187   1.745   4.459   4.330
 6077TIP3    H118188   1.689   4.499   4.397
 6077TIP3    H218189   1.833   4.461   4.369
 6078TIP3   OH218190   2.271   2.139   4.588
 6078TIP3    H118191   2.303   2.049   4.584
 6078TIP3    H218192   2.325   2.187   4.526
 6079TIP3   OH218193   8.280   5.654   5.951
 6079TIP3    H118194   8.322   5.716   6.011
 6079TIP3    H218195   8.349   5.632   5.888
 6080TIP3   OH218196   1.121   7.665   0.815
 6080TIP3    H118197   1.048   7.658   0.875
 6080TIP3    H218198   1.193   7.699   0.868
 6081TIP3   OH218199   4.136   6.949   5.247
 6081TIP3    H118200   4.123   6.961   5.153
 6081TIP3    H218201   4.190   7.024   5.274
 6082TIP3   OH218202   1.823   7.650   5.766
 6082TIP3    H118203   1.800   7.562   5.795
 6082TIP3    H218204   1.899   7.638   5.710
 6083TIP3   OH218205   4.638   6.741   5.493
 6083TIP3    H118206   4.559   6.710   5.536
 6083TIP3    H218207   4.613   6.751   5.401
 6084TIP3   OH218208   7.832   5.603   6.253
 6084TIP3    H118209   7.846   5.511   6.276
 6084TIP3    H218210   7.854   5.608   6.159
 6085TIP3   OH218211   6.708   1.218   2.914
 6085TIP3    H118212   6.633   1.204   2.857
 6085TIP3    H218213   6.784   1.213   2.856
 6086TIP3   OH218214   3.068   7.463   3.799
 6086TIP3    H118215   3.038   7.403   3.867
 6086TIP3    H218216   3.008   7.537   3.805
 6087TIP3   OH218217   2.296   5.872   0.116
 6087TIP3    H118218   2.219   5.891   0.064
 6087TIP3    H218219   2.291   5.778   0.135
 6088TIP3   OH218220   6.844   5.451   2.089
 6088TIP3    H118221   6.798   5.462   2.173
 6088TIP3    H218222   6.827   5.360   2.065
 6089TIP3   OH218223   2.954   1.056   5.481
 6089TIP3    H118224   2.897   0.980   5.490
 6089TIP3    H218225   2.966   1.067   5.387
 6090TIP3   OH218226   0.128   4.760   5.323
 6090TIP3    H118227   0.057   4.810   5.363
 6090TIP3    H218228   0.084   4.689   5.276
 6091TIP3   OH218229   6.569   3.757   4.787
 6091TIP3    H118230   6.537   3.841   4.755
 6091TIP3    H218231   6.524   3.692   4.733
 6092TIP3   OH218232   7.412   2.681   5.873
 6092TIP3    H118233   7.452   2.696   5.788
 6092TIP3    H218234   7.486   2.666   5.932
 6093TIP3   OH218235   5.764   5.482   0.860
 6093TIP3    H118236   5.673   5.494   0.884
 6093TIP3    H218237   5.798   5.571   0.848
 6094TIP3   OH218238   6.139   6.205   5.199
 6094TIP3    H118239   6.210   6.258   5.234
 6094TIP3    H218240   6.176   6.117   5.191
 6095TIP3   OH218241   7.633   4.145   0.978
 6095TIP3    H118242   7.663   4.123   1.066
 6095TIP3    H218243   7.598   4.234   0.985
 6096TIP3   OH218244   0.081   6.186   4.885
 6096TIP3    H118245   0.082   6.165   4.791
 6096TIP3    H218246  -0.008   6.162   4.913
 6097TIP3   OH218247   2.054   6.082   4.427
 6097TIP3    H118248   1.975   6.057   4.379
 6097TIP3    H218249   2.110   6.124   4.361
 6098TIP3   OH218250   0.787   7.081   1.959
 6098TIP3    H118251   0.872   7.122   1.941
 6098TIP3    H218252   0.776   7.018   1.888
 6099TIP3   OH218253   7.973   6.472   4.925
 6099TIP3    H118254   7.911   6.540   4.900
 6099TIP3    H218255   7.927   6.420   4.991
 6100TIP3   OH218256   7.051   5.271   4.855
 6100TIP3    H118257   7.048   5.365   4.872
 6100TIP3    H218258   6.987   5.234   4.916
 6101TIP3   OH218259   2.162   0.158   1.099
 6101TIP3    H118260   2.146   0.139   1.006
 6101TIP3    H218261   2.108   0.094   1.146
 6102TIP3   OH218262   2.815   1.598   2.856
 6102TIP3    H118263   2.861   1.523   2.817
 6102TIP3    H218264   2.722   1.576   2.846
 6103TIP3   OH218265   5.994   4.094   1.600
 6103TIP3    H118266   5.960   4.006   1.615
 6103TIP3    H218267   6.081   4.080   1.562
 6104TIP3   OH218268   5.810   7.521   0.477
 6104TIP3    H118269   5.752   7.530   0.553
 6104TIP3    H218270   5.827   7.611   0.450
 6105TIP3   OH218271   6.911   3.408   0.524
 6105TIP3    H118272   6.961   3.326   0.520
 6105TIP3    H218273   6.944   3.460   0.451
 6106TIP3   OH218274   3.594   6.769   3.254
 6106TIP3    H118275   3.685   6.740   3.246
 6106TIP3    H218276   3.565   6.780   3.163
 6107TIP3   OH218277   6.914   4.457   5.300
 6107TIP3    H118278   6.992   4.417   5.262
 6107TIP3    H218279   6.898   4.409   5.381
 6108TIP3   OH218280   1.821   1.152   2.857
 6108TIP3    H118281   1.733   1.172   2.887
 6108TIP3    H218282   1.822   1.181   2.765
 6109TIP3   OH218283   2.920   4.718   5.646
 6109TIP3    H118284   3.015   4.710   5.657
 6109TIP3    H218285   2.884   4.649   5.701
 6110TIP3   OH218286   5.031   2.341   4.505
 6110TIP3    H118287   5.037   2.434   4.482
 6110TIP3    H218288   4.968   2.306   4.441
 6111TIP3   OH218289   3.583   5.690   1.067
 6111TIP3    H118290   3.611   5.685   1.158
 6111TIP3    H218291   3.665   5.695   1.017
 6112TIP3   OH218292   4.236   5.202   3.925
 6112TIP3    H118293   4.331   5.194   3.931
 6112TIP3    H218294   4.220   5.295   3.908
 6113TIP3   OH218295   0.686   6.580   5.476
 6113TIP3    H118296   0.656   6.555   5.563
 6113TIP3    H218297   0.648   6.514   5.418
 6114TIP3   OH218298   5.446   0.533   0.428
 6114TIP3    H118299   5.414   0.449   0.394
 6114TIP3    H218300   5.377   0.561   0.488
 6115TIP3   OH218301   4.561   4.519   2.537
 6115TIP3    H118302   4.487   4.578   2.536
 6115TIP3    H218303   4.531   4.444   2.588
 6116TIP3   OH218304   2.205   3.558   4.307
 6116TIP3    H118305   2.149   3.481   4.295
 6116TIP3    H218306   2.146   3.633   4.296
 6117TIP3   OH218307   2.484   0.192   1.133
 6117TIP3    H118308   2.390   0.177   1.128
 6117TIP3    H218309   2.523   0.116   1.088
 6118TIP3   OH218310   1.432   7.815   5.004
 6118TIP3    H118311   1.415   7.867   5.082
 6118TIP3    H218312   1.376   7.738   5.014
 6119TIP3   OH218313   4.280   4.725   0.487
 6119TIP3    H118314   4.306   4.746   0.397
 6119TIP3    H218315   4.363   4.712   0.533
 6120TIP3   OH218316   1.073   1.745   3.955
 6120TIP3    H118317   1.080   1.653   3.980
 6120TIP3    H218318   1.066   1.744   3.859
 6121TIP3   OH218319   6.390   2.466   2.648
 6121TIP3    H118320   6.315   2.509   2.688
 6121TIP3    H218321   6.466   2.513   2.682
 6122TIP3   OH218322   6.786   3.840   4.173
 6122TIP3    H118323   6.846   3.790   4.228
 6122TIP3    H218324   6.705   3.845   4.223
 6123TIP3   OH218325   8.085   1.091   3.173
 6123TIP3    H118326   8.176   1.112   3.150
 6123TIP3    H218327   8.065   1.148   3.247
 6124TIP3   OH218328   6.157   7.413   0.949
 6124TIP3    H118329   6.202   7.416   1.033
 6124TIP3    H218330   6.079   7.467   0.962
 6125TIP3   OH218331   1.564   6.529   5.995
 6125TIP3    H118332   1.513   6.454   6.026
 6125TIP3    H218333   1.654   6.497   5.991
 6126TIP3   OH218334   6.926   5.366   6.623
 6126TIP3    H118335   6.959   5.442   6.575
 6126TIP3    H218336   6.888   5.403   6.703
 6127TIP3   OH218337   5.288   7.343   2.942
 6127TIP3    H118338   5.297   7.248   2.958
 6127TIP3    H218339   5.200   7.363   2.974
 6128TIP3   OH218340   3.140   3.411   0.704
 6128TIP3    H118341   3.055   3.446   0.732
 6128TIP3    H218342   3.200   3.433   0.776
 6129TIP3   OH218343   7.654   3.881   2.933
 6129TIP3    H118344   7.690   3.877   2.845
 6129TIP3    H218345   7.586   3.948   2.929
 6130TIP3   OH218346   6.859   6.624   0.767
 6130TIP3    H118347   6.853   6.673   0.850
 6130TIP3    H218348   6.907   6.683   0.709
 6131TIP3   OH218349   0.499   1.192   3.042
 6131TIP3    H118350   0.485   1.285   3.025
 6131TIP3    H218351   0.487   1.150   2.957
 6132TIP3   OH218352   2.912   4.832   4.653
 6132TIP3    H118353   2.818   4.833   4.633
 6132TIP3    H218354   2.946   4.757   4.605
 6133TIP3   OH218355   1.373   7.767   0.899
 6133TIP3    H118356   1.391   7.812   0.816
 6133TIP3    H218357   1.446   7.706   0.910
 6134TIP3   OH218358   6.723   2.246   2.001
 6134TIP3    H118359   6.775   2.166   2.007
 6134TIP3    H218360   6.692   2.247   1.910
 6135TIP3   OH218361   6.072   6.132   3.797
 6135TIP3    H118362   6.155   6.173   3.820
 6135TIP3    H218363   6.097   6.055   3.745
 6136TIP3   OH218364   6.467   1.657   6.757
 6136TIP3    H118365   6.405   1.621   6.820
 6136TIP3    H218366   6.439   1.622   6.673
 6137TIP3   OH218367   5.260   5.451   2.745
 6137TIP3    H118368   5.309   5.532   2.733
 6137TIP3    H218369   5.222   5.459   2.833
 6138TIP3   OH218370   1.504   4.850   6.366
 6138TIP3    H118371   1.451   4.926   6.345
 6138TIP3    H218372   1.585   4.862   6.316
 6139TIP3   OH218373   4.269   3.938   6.246
 6139TIP3    H118374   4.220   3.959   6.326
 6139TIP3    H218375   4.231   3.856   6.215
 6140TIP3   OH218376   6.649   3.882   0.999
 6140TIP3    H118377   6.581   3.831   1.044
 6140TIP3    H218378   6.701   3.817   0.953
 6141TIP3   OH218379   1.960   2.252   2.453
 6141TIP3    H118380   2.031   2.277   2.511
 6141TIP3    H218381   1.893   2.319   2.465
 6142TIP3   OH218382   6.119   7.402   2.928
 6142TIP3    H118383   6.115   7.385   3.022
 6142TIP3    H218384   6.072   7.485   2.916
 6143TIP3   OH218385   4.700   2.047   0.933
 6143TIP3    H118386   4.627   2.093   0.891
 6143TIP3    H218387   4.679   2.050   1.027
 6144TIP3   OH218388   0.675   2.092   3.180
 6144TIP3    H118389   0.770   2.083   3.166
 6144TIP3    H218390   0.637   2.026   3.122
 6145TIP3   OH218391   4.944   0.153   6.711
 6145TIP3    H118392   4.882   0.142   6.639
 6145TIP3    H218393   4.947   0.067   6.753
 6146TIP3   OH218394   4.610   1.236   5.342
 6146TIP3    H118395   4.529   1.286   5.353
 6146TIP3    H218396   4.621   1.189   5.425
 6147TIP3   OH218397   0.285   0.985   1.472
 6147TIP3    H118398   0.244   0.989   1.385
 6147TIP3    H218399   0.220   0.940   1.526
 6148TIP3   OH218400   2.943   0.778   0.496
 6148TIP3    H118401   2.908   0.836   0.563
 6148TIP3    H218402   2.889   0.699   0.501
 6149TIP3   OH218403   5.519   3.094   1.982
 6149TIP3    H118404   5.548   3.062   1.896
 6149TIP3    H218405   5.440   3.042   2.000
 6150TIP3   OH218406   6.133   3.475   2.188
 6150TIP3    H118407   6.101   3.520   2.110
 6150TIP3    H218408   6.084   3.393   2.191
 6151TIP3   OH218409   0.602   2.366   3.472
 6151TIP3    H118410   0.632   2.387   3.383
 6151TIP3    H218411   0.515   2.327   3.459
 6152TIP3   OH218412   0.999   3.296   1.327
 6152TIP3    H118413   0.996   3.282   1.422
 6152TIP3    H218414   1.043   3.380   1.316
 6153TIP3   OH218415   2.858   7.381   3.279
 6153TIP3    H118416   2.804   7.349   3.206
 6153TIP3    H218417   2.820   7.467   3.300
 6154TIP3   OH218418   2.006   0.427   1.695
 6154TIP3    H118419   2.034   0.335   1.705
 6154TIP3    H218420   2.028   0.448   1.604
 6155TIP3   OH218421   7.038   1.877   0.789
 6155TIP3    H118422   7.124   1.853   0.755
 6155TIP3    H218423   7.044   1.859   0.883
 6156TIP3   OH218424   7.072   5.747   0.711
 6156TIP3    H118425   7.103   5.821   0.659
 6156TIP3    H218426   6.986   5.775   0.744
 6157TIP3   OH218427   6.500   5.838   4.948
 6157TIP3    H118428   6.474   5.906   5.010
 6157TIP3    H218429   6.582   5.869   4.911
 6158TIP3   OH218430   6.675   6.408   5.704
 6158TIP3    H118431   6.656   6.365   5.787
 6158TIP3    H218432   6.601   6.385   5.648
 6159TIP3   OH218433   5.725   3.332   0.821
 6159TIP3    H118434   5.736   3.258   0.761
 6159TIP3    H218435   5.805   3.332   0.873
 6160TIP3   OH218436   0.532   3.917   2.666
 6160TIP3    H118437   0.550   3.935   2.758
 6160TIP3    H218438   0.612   3.873   2.635
 6161TIP3   OH218439   7.530   2.741   3.835
 6161TIP3    H118440   7.595   2.758   3.767
 6161TIP3    H218441   7.446   2.749   3.790
 6162TIP3   OH218442   6.884   6.047   0.481
 6162TIP3    H118443   6.912   5.970   0.431
 6162TIP3    H218444   6.935   6.043   0.561
 6163TIP3   OH218445   4.005   1.212   4.186
 6163TIP3    H118446   4.049   1.259   4.115
 6163TIP3    H218447   4.031   1.259   4.265
 6164TIP3   OH218448   2.244   0.841   1.580
 6164TIP3    H118449   2.256   0.917   1.522
 6164TIP3    H218450   2.274   0.871   1.666
 6165TIP3   OH218451   4.552   1.669   5.861
 6165TIP3    H118452   4.612   1.627   5.800
 6165TIP3    H218453   4.519   1.745   5.813
 6166TIP3   OH218454   1.778   4.935   3.501
 6166TIP3    H118455   1.755   4.946   3.593
 6166TIP3    H218456   1.863   4.891   3.502
 6167TIP3   OH218457   5.093   5.870   0.927
 6167TIP3    H118458   5.037   5.794   0.943
 6167TIP3    H218459   5.034   5.945   0.938
 6168TIP3   OH218460   6.570   3.610   2.302
 6168TIP3    H118461   6.638   3.551   2.334
 6168TIP3    H218462   6.590   3.694   2.344
 6169TIP3   OH218463   1.334   2.340   1.662
 6169TIP3    H118464   1.349   2.311   1.752
 6169TIP3    H218465   1.416   2.382   1.637
 6170TIP3   OH218466   6.231   4.221   0.665
 6170TIP3    H118467   6.300   4.155   0.667
 6170TIP3    H218468   6.149   4.171   0.665
 6171TIP3   OH218469   4.146   2.238   5.262
 6171TIP3    H118470   4.151   2.285   5.178
 6171TIP3    H218471   4.155   2.146   5.238
 6172TIP3   OH218472   4.410   4.953   5.459
 6172TIP3    H118473   4.416   4.913   5.373
 6172TIP3    H218474   4.419   5.047   5.444
 6173TIP3   OH218475   5.449   5.602   5.999
 6173TIP3    H118476   5.487   5.592   6.086
 6173TIP3    H218477   5.523   5.594   5.939
 6174TIP3   OH218478   3.522   3.137   0.247
 6174TIP3    H118479   3.444   3.158   0.196
 6174TIP3    H218480   3.555   3.222   0.277
 6175TIP3   OH218481   3.375   0.081   2.350
 6175TIP3    H118482   3.425   0.114   2.275
 6175TIP3    H218483   3.335   0.159   2.389
 6176TIP3   OH218484   2.158   0.064   3.852
 6176TIP3    H118485   2.180   0.137   3.793
 6176TIP3    H218486   2.113   0.106   3.926
 6177TIP3   OH218487   3.299   6.360   2.261
 6177TIP3    H118488   3.208   6.383   2.278
 6177TIP3    H218489   3.302   6.338   2.168
 6178TIP3   OH218490   1.168   3.729   3.538
 6178TIP3    H118491   1.229   3.801   3.521
 6178TIP3    H218492   1.114   3.725   3.459
 6179TIP3   OH218493   5.975   3.777   0.936
 6179TIP3    H118494   5.895   3.825   0.914
 6179TIP3    H218495   5.990   3.721   0.860
 6180TIP3   OH218496   2.753   3.442   2.099
 6180TIP3    H118497   2.738   3.349   2.116
 6180TIP3    H218498   2.681   3.487   2.143
 6181TIP3   OH218499   0.662   4.806   0.722
 6181TIP3    H118500   0.736   4.848   0.767
 6181TIP3    H218501   0.588   4.863   0.740
 6182TIP3   OH218502   1.781   3.810   5.088
 6182TIP3    H118503   1.804   3.718   5.088
 6182TIP3    H218504   1.743   3.826   5.174
 6183TIP3   OH218505   5.558   3.375   2.663
 6183TIP3    H118506   5.531   3.296   2.617
 6183TIP3    H218507   5.617   3.420   2.602
 6184TIP3   OH218508   5.711   1.649   2.365
 6184TIP3    H118509   5.673   1.565   2.338
 6184TIP3    H218510   5.802   1.644   2.336
 6185TIP3   OH218511   4.857   3.328   6.079
 6185TIP3    H118512   4.934   3.383   6.069
 6185TIP3    H218513   4.796   3.360   6.012
 6186TIP3   OH218514   3.787   3.658   3.856
 6186TIP3    H118515   3.728   3.583   3.857
 6186TIP3    H218516   3.763   3.706   3.776
 6187TIP3   OH218517   6.218   1.724   2.153
 6187TIP3    H118518   6.305   1.686   2.141
 6187TIP3    H218519   6.180   1.724   2.066
 6188TIP3   OH218520   1.335   1.926   1.894
 6188TIP3    H118521   1.428   1.918   1.913
 6188TIP3    H218522   1.312   2.015   1.921
 6189TIP3   OH218523   6.284   4.043   3.982
 6189TIP3    H118524   6.377   4.021   3.976
 6189TIP3    H218525   6.268   4.101   3.907
 6190TIP3   OH218526   3.465   3.498   1.780
 6190TIP3    H118527   3.397   3.484   1.846
 6190TIP3    H218528   3.478   3.412   1.741
 6191TIP3   OH218529   2.201   4.236   6.729
 6191TIP3    H118530   2.106   4.235   6.719
 6191TIP3    H218531   2.225   4.328   6.734
 6192TIP3   OH218532   1.318   2.770   4.311
 6192TIP3    H118533   1.391   2.755   4.371
 6192TIP3    H218534   1.359   2.790   4.227
 6193TIP3   OH218535   5.645   5.874   4.289
 6193TIP3    H118536   5.594   5.914   4.359
 6193TIP3    H218537   5.633   5.931   4.214
 6194TIP3   OH218538   4.356   2.620   0.614
 6194TIP3    H118539   4.396   2.696   0.571
 6194TIP3    H218540   4.398   2.617   0.700
 6195TIP3   OH218541   5.904   1.309   6.618
 6195TIP3    H118542   5.958   1.324   6.695
 6195TIP3    H218543   5.831   1.256   6.648
 6196TIP3   OH218544   0.201   0.622   1.968
 6196TIP3    H118545   0.278   0.592   1.920
 6196TIP3    H218546   0.235   0.654   2.051
 6197TIP3   OH218547   1.060   1.035   0.363
 6197TIP3    H118548   1.086   0.957   0.314
 6197TIP3    H218549   1.052   1.104   0.297
 6198TIP3   OH218550   6.032   3.047   4.360
 6198TIP3    H118551   6.057   3.055   4.452
 6198TIP3    H218552   6.090   2.979   4.325
 6199TIP3   OH218553   3.603   3.320   4.806
 6199TIP3    H118554   3.630   3.229   4.802
 6199TIP3    H218555   3.657   3.364   4.739
 6200TIP3   OH218556   2.693   1.707   4.594
 6200TIP3    H118557   2.788   1.701   4.603
 6200TIP3    H218558   2.662   1.618   4.612
 6201TIP3   OH218559   4.859   1.943   6.647
 6201TIP3    H118560   4.845   1.953   6.553
 6201TIP3    H218561   4.783   1.894   6.678
 6202TIP3   OH218562   4.836   5.149   4.949
 6202TIP3    H118563   4.751   5.158   4.906
 6202TIP3    H218564   4.830   5.065   4.995
 6203TIP3   OH218565   2.107   1.340   2.488
 6203TIP3    H118566   2.151   1.385   2.560
 6203TIP3    H218567   2.078   1.411   2.430
 6204TIP3   OH218568   3.936   4.200   6.339
 6204TIP3    H118569   3.928   4.111   6.372
 6204TIP3    H218570   3.974   4.191   6.252
 6205TIP3   OH218571   7.374   4.776   1.536
 6205TIP3    H118572   7.333   4.692   1.553
 6205TIP3    H218573   7.345   4.832   1.607
 6206TIP3   OH218574   1.887   0.933   5.433
 6206TIP3    H118575   1.893   1.028   5.442
 6206TIP3    H218576   1.942   0.899   5.503
 6207TIP3   OH218577   1.739   7.035   0.576
 6207TIP3    H118578   1.790   7.102   0.620
 6207TIP3    H218579   1.671   7.011   0.638
 6208TIP3   OH218580   6.556   7.620   6.031
 6208TIP3    H118581   6.533   7.527   6.040
 6208TIP3    H218582   6.486   7.657   5.977
 6209TIP3   OH218583   1.629   5.379   4.448
 6209TIP3    H118584   1.643   5.286   4.467
 6209TIP3    H218585   1.701   5.402   4.389
 6210TIP3   OH218586   3.500   3.166   5.610
 6210TIP3    H118587   3.471   3.103   5.544
 6210TIP3    H218588   3.421   3.213   5.635
 6211TIP3   OH218589   7.761   3.906   2.661
 6211TIP3    H118590   7.766   3.991   2.619
 6211TIP3    H218591   7.852   3.878   2.670
 6212TIP3   OH218592   2.384   3.133   1.273
 6212TIP3    H118593   2.412   3.043   1.261
 6212TIP3    H218594   2.462   3.185   1.256
 6213TIP3   OH218595   7.986   1.622   0.731
 6213TIP3    H118596   7.912   1.570   0.762
 6213TIP3    H218597   8.048   1.621   0.804
 6214TIP3   OH218598   5.351   6.916   1.872
 6214TIP3    H118599   5.372   6.992   1.819
 6214TIP3    H218600   5.258   6.924   1.891
 6215TIP3   OH218601   3.143   6.395   6.083
 6215TIP3    H118602   3.195   6.367   6.008
 6215TIP3    H218603   3.207   6.430   6.145
 6216TIP3   OH218604   5.036   0.538   0.820
 6216TIP3    H118605   5.070   0.457   0.857
 6216TIP3    H218606   4.949   0.548   0.859
 6217TIP3   OH218607   4.322   0.031   5.355
 6217TIP3    H118608   4.376   0.091   5.304
 6217TIP3    H218609   4.232   0.056   5.336
 6218TIP3   OH218610   0.071   6.577   0.164
 6218TIP3    H118611   0.110   6.659   0.133
 6218TIP3    H218612  -0.023   6.588   0.147
 6219TIP3   OH218613   2.435   0.142   5.579
 6219TIP3    H118614   2.343   0.168   5.572
 6219TIP3    H218615   2.436   0.049   5.557
 6220TIP3   OH218616   1.604   3.788   5.357
 6220TIP3    H118617   1.566   3.838   5.284
 6220TIP3    H218618   1.596   3.846   5.432
 6221TIP3   OH218619   6.252   4.697   5.163
 6221TIP3    H118620   6.329   4.725   5.213
 6221TIP3    H218621   6.280   4.619   5.116
 6222TIP3   OH218622   0.278   2.522   5.302
 6222TIP3    H118623   0.269   2.617   5.298
 6222TIP3    H218624   0.268   2.500   5.395
 6223TIP3   OH218625   0.460   2.143   3.379
 6223TIP3    H118626   0.526   2.093   3.330
 6223TIP3    H218627   0.396   2.169   3.312
 6224TIP3   OH218628   1.714   7.423   0.869
 6224TIP3    H118629   1.795   7.373   0.879
 6224TIP3    H218630   1.736   7.494   0.810
 6225TIP3   OH218631   1.839   3.567   3.234
 6225TIP3    H118632   1.865   3.658   3.220
 6225TIP3    H218633   1.786   3.546   3.156
 6226TIP3   OH218634   7.035   7.776   0.693
 6226TIP3    H118635   7.071   7.723   0.764
 6226TIP3    H218636   6.941   7.759   0.696
 6227TIP3   OH218637   3.992   4.395   5.799
 6227TIP3    H118638   3.947   4.377   5.717
 6227TIP3    H218639   4.036   4.313   5.821
 6228TIP3   OH218640   4.695   6.610   6.259
 6228TIP3    H118641   4.629   6.564   6.312
 6228TIP3    H218642   4.664   6.599   6.169
 6229TIP3   OH218643   5.880   3.635   6.198
 6229TIP3    H118644   5.852   3.583   6.273
 6229TIP3    H218645   5.815   3.705   6.191
 6230TIP3   OH218646   8.030   5.747   4.158
 6230TIP3    H118647   7.951   5.695   4.143
 6230TIP3    H218648   8.006   5.809   4.227
 6231TIP3   OH218649   1.635   0.522   1.330
 6231TIP3    H118650   1.711   0.468   1.352
 6231TIP3    H218651   1.560   0.465   1.343
 6232TIP3   OH218652   0.550   7.435   5.474
 6232TIP3    H118653   0.503   7.364   5.517
 6232TIP3    H218654   0.513   7.439   5.386
 6233TIP3   OH218655   1.167   3.925   0.776
 6233TIP3    H118656   1.095   3.980   0.745
 6233TIP3    H218657   1.152   3.841   0.734
 6234TIP3   OH218658   8.092   4.181   4.388
 6234TIP3    H118659   8.048   4.105   4.352
 6234TIP3    H218660   8.120   4.232   4.312
 6235TIP3   OH218661   7.140   1.934   5.866
 6235TIP3    H118662   7.179   1.922   5.779
 6235TIP3    H218663   7.139   2.029   5.877
 6236TIP3   OH218664   1.854   1.375   0.859
 6236TIP3    H118665   1.789   1.446   0.851
 6236TIP3    H218666   1.891   1.387   0.946
 6237TIP3   OH218667   5.261   0.606   1.181
 6237TIP3    H118668   5.189   0.558   1.222
 6237TIP3    H218669   5.293   0.548   1.112
 6238TIP3   OH218670   4.102   4.910   6.103
 6238TIP3    H118671   4.089   4.944   6.014
 6238TIP3    H218672   4.038   4.840   6.112
 6239TIP3   OH218673   7.046   0.266   5.451
 6239TIP3    H118674   7.083   0.197   5.506
 6239TIP3    H218675   6.969   0.296   5.499
 6240TIP3   OH218676   5.803   7.039   4.226
 6240TIP3    H118677   5.778   6.947   4.215
 6240TIP3    H218678   5.823   7.047   4.320
 6241TIP3   OH218679   5.193   2.203   4.808
 6241TIP3    H118680   5.099   2.220   4.801
 6241TIP3    H218681   5.204   2.114   4.775
 6242TIP3   OH218682   4.376   2.116   5.992
 6242TIP3    H118683   4.450   2.058   6.010
 6242TIP3    H218684   4.396   2.197   6.039
 6243TIP3   OH218685   5.605   3.215   4.387
 6243TIP3    H118686   5.632   3.134   4.345
 6243TIP3    H218687   5.556   3.263   4.320
 6244TIP3   OH218688   0.942   7.691   0.455
 6244TIP3    H118689   0.858   7.717   0.495
 6244TIP3    H218690   0.925   7.694   0.361
 6245TIP3   OH218691   3.053   7.126   6.233
 6245TIP3    H118692   3.049   7.212   6.274
 6245TIP3    H218693   2.985   7.128   6.166
 6246TIP3   OH218694   2.662   0.598   3.678
 6246TIP3    H118695   2.581   0.637   3.712
 6246TIP3    H218696   2.642   0.582   3.585
 6247TIP3   OH218697   3.562   2.167   2.692
 6247TIP3    H118698   3.644   2.209   2.716
 6247TIP3    H218699   3.506   2.177   2.770
 6248TIP3   OH218700   1.051   5.738   6.301
 6248TIP3    H118701   1.128   5.781   6.265
 6248TIP3    H218702   1.047   5.768   6.392
 6249TIP3   OH218703   5.443   7.184   1.768
 6249TIP3    H118704   5.471   7.262   1.720
 6249TIP3    H218705   5.386   7.217   1.837
 6250TIP3   OH218706   1.365   3.275   4.199
 6250TIP3    H118707   1.295   3.339   4.192
 6250TIP3    H218708   1.322   3.196   4.234
 6251TIP3   OH218709   2.665   7.830   5.178
 6251TIP3    H118710   2.755   7.850   5.152
 6251TIP3    H218711   2.674   7.764   5.247
 6252TIP3   OH218712   7.154   2.581   5.985
 6252TIP3    H118713   7.232   2.620   5.947
 6252TIP3    H218714   7.186   2.528   6.058
 6253TIP3   OH218715   1.223   3.292   6.241
 6253TIP3    H118716   1.248   3.285   6.333
 6253TIP3    H218717   1.307   3.298   6.194
 6254TIP3   OH218718   4.272   0.374   3.595
 6254TIP3    H118719   4.345   0.312   3.598
 6254TIP3    H218720   4.210   0.341   3.661
 6255TIP3   OH218721   2.138   7.680   0.312
 6255TIP3    H118722   2.152   7.618   0.384
 6255TIP3    H218723   2.202   7.655   0.246
 6256TIP3   OH218724   1.976   2.929   1.196
 6256TIP3    H118725   2.026   2.881   1.262
 6256TIP3    H218726   2.010   3.018   1.200
 6257TIP3   OH218727   0.490   0.784   3.874
 6257TIP3    H118728   0.445   0.839   3.810
 6257TIP3    H218729   0.425   0.769   3.943
 6258TIP3   OH218730   6.132   0.077   1.962
 6258TIP3    H118731   6.071   0.136   1.918
 6258TIP3    H218732   6.217   0.121   1.955
 6259TIP3   OH218733   5.569   5.860   6.262
 6259TIP3    H118734   5.641   5.913   6.298
 6259TIP3    H218735   5.523   5.919   6.202
 6260TIP3   OH218736   4.303   0.892   4.096
 6260TIP3    H118737   4.346   0.865   4.177
 6260TIP3    H218738   4.244   0.820   4.075
 6261TIP3   OH218739   2.437   3.192   2.326
 6261TIP3    H118740   2.526   3.157   2.332
 6261TIP3    H218741   2.442   3.262   2.262
 6262TIP3   OH218742   0.211   1.021   1.206
 6262TIP3    H118743   0.138   0.968   1.175
 6262TIP3    H218744   0.280   1.006   1.141
 6263TIP3   OH218745   5.791   2.076   5.477
 6263TIP3    H118746   5.774   2.160   5.435
 6263TIP3    H218747   5.805   2.097   5.569
 6264TIP3   OH218748   0.146   4.512   3.492
 6264TIP3    H118749   0.148   4.584   3.428
 6264TIP3    H218750   0.053   4.505   3.516
 6265TIP3   OH218751   2.031   7.622   1.723
 6265TIP3    H118752   2.093   7.693   1.706
 6265TIP3    H218753   2.047   7.598   1.814
 6266TIP3   OH218754   5.597   0.624   1.584
 6266TIP3    H118755   5.565   0.606   1.495
 6266TIP3    H218756   5.692   0.629   1.574
 6267TIP3   OH218757   0.023   3.427   1.759
 6267TIP3    H118758  -0.016   3.479   1.688
 6267TIP3    H218759   0.085   3.487   1.800
 6268TIP3   OH218760   2.651   7.738   1.149
 6268TIP3    H118761   2.681   7.772   1.064
 6268TIP3    H218762   2.728   7.694   1.185
 6269TIP3   OH218763   1.157   4.255   0.764
 6269TIP3    H118764   1.076   4.301   0.744
 6269TIP3    H218765   1.129   4.167   0.790
 6270TIP3   OH218766   1.330   0.969   3.226
 6270TIP3    H118767   1.389   0.899   3.252
 6270TIP3    H218768   1.262   0.970   3.293
 6271TIP3   OH218769   0.325   4.572   1.928
 6271TIP3    H118770   0.379   4.520   1.988
 6271TIP3    H218771   0.348   4.663   1.948
 6272TIP3   OH218772   2.316   7.678   5.046
 6272TIP3    H118773   2.230   7.636   5.049
 6272TIP3    H218774   2.321   7.729   5.126
 6273TIP3   OH218775   4.115   2.864   1.383
 6273TIP3    H118776   4.102   2.916   1.304
 6273TIP3    H218777   4.209   2.871   1.401
 6274TIP3   OH218778   6.814   5.519   2.590
 6274TIP3    H118779   6.762   5.598   2.605
 6274TIP3    H218780   6.894   5.532   2.642
 6275TIP3   OH218781   8.202   4.762   4.943
 6275TIP3    H118782   8.273   4.801   4.893
 6275TIP3    H218783   8.237   4.679   4.975
 6276TIP3   OH218784   1.615   2.061   1.162
 6276TIP3    H118785   1.598   2.029   1.073
 6276TIP3    H218786   1.564   2.002   1.218
 6277TIP3   OH218787   2.016   4.565   1.861
 6277TIP3    H118788   1.923   4.555   1.843
 6277TIP3    H218789   2.032   4.659   1.855
 6278TIP3   OH218790   1.935   2.016   4.168
 6278TIP3    H118791   1.925   2.098   4.120
 6278TIP3    H218792   1.846   1.984   4.181
 6279TIP3   OH218793   4.772   6.155   0.531
 6279TIP3    H118794   4.743   6.242   0.559
 6279TIP3    H218795   4.747   6.097   0.602
 6280TIP3   OH218796   8.002   4.898   1.940
 6280TIP3    H118797   7.940   4.881   1.870
 6280TIP3    H218798   8.024   4.990   1.932
 6281TIP3   OH218799   3.232   7.601   0.927
 6281TIP3    H118800   3.225   7.507   0.909
 6281TIP3    H218801   3.325   7.620   0.915
 6282TIP3   OH218802   2.008   3.753   4.414
 6282TIP3    H118803   1.912   3.758   4.413
 6282TIP3    H218804   2.036   3.814   4.346
 6283TIP3   OH218805   1.602   1.030   2.484
 6283TIP3    H118806   1.574   1.031   2.576
 6283TIP3    H218807   1.540   0.971   2.442
 6284TIP3   OH218808   2.508   1.697   1.758
 6284TIP3    H118809   2.471   1.648   1.685
 6284TIP3    H218810   2.444   1.767   1.774
 6285TIP3   OH218811   2.181   6.681   5.144
 6285TIP3    H118812   2.260   6.711   5.100
 6285TIP3    H218813   2.212   6.636   5.223
 6286TIP3   OH218814   6.612   6.509   3.252
 6286TIP3    H118815   6.543   6.455   3.214
 6286TIP3    H218816   6.647   6.455   3.323
 6287TIP3   OH218817   2.972   0.621   6.144
 6287TIP3    H118818   2.921   0.593   6.068
 6287TIP3    H218819   2.966   0.547   6.205
 6288TIP3   OH218820   0.933   0.279   1.499
 6288TIP3    H118821   0.949   0.348   1.435
 6288TIP3    H218822   0.841   0.290   1.524
 6289TIP3   OH218823   1.506   4.519   0.097
 6289TIP3    H118824   1.412   4.535   0.088
 6289TIP3    H218825   1.531   4.565   0.177
 6290TIP3   OH218826   0.219   0.366   0.894
 6290TIP3    H118827   0.309   0.337   0.883
 6290TIP3    H218828   0.207   0.434   0.828
 6291TIP3   OH218829   7.535   1.442   3.511
 6291TIP3    H118830   7.469   1.427   3.444
 6291TIP3    H218831   7.602   1.495   3.468
 6292TIP3   OH218832   8.181   7.721   4.445
 6292TIP3    H118833   8.116   7.680   4.388
 6292TIP3    H218834   8.136   7.729   4.530
 6293TIP3   OH218835   4.092   3.982   1.772
 6293TIP3    H118836   4.131   3.947   1.692
 6293TIP3    H218837   4.150   3.950   1.842
 6294TIP3   OH218838   4.569   2.405   0.263
 6294TIP3    H118839   4.655   2.447   0.259
 6294TIP3    H218840   4.574   2.333   0.200
 6295TIP3   OH218841   7.556   6.258   4.267
 6295TIP3    H118842   7.650   6.265   4.278
 6295TIP3    H218843   7.519   6.321   4.329
 6296TIP3   OH218844   5.655   7.049   4.984
 6296TIP3    H118845   5.576   7.066   4.933
 6296TIP3    H218846   5.658   6.953   4.991
 6297TIP3   OH218847   3.295   6.795   0.899
 6297TIP3    H118848   3.361   6.864   0.892
 6297TIP3    H218849   3.239   6.823   0.971
 6298TIP3   OH218850   7.002   7.239   5.512
 6298TIP3    H118851   6.992   7.158   5.460
 6298TIP3    H218852   6.913   7.261   5.539
 6299TIP3   OH218853   4.936   3.430   0.545
 6299TIP3    H118854   4.940   3.512   0.496
 6299TIP3    H218855   4.929   3.362   0.478
 6300TIP3   OH218856   6.243   4.618   4.017
 6300TIP3    H118857   6.223   4.699   4.064
 6300TIP3    H218858   6.199   4.550   4.067
 6301TIP3   OH218859   5.777   3.093   0.725
 6301TIP3    H118860   5.856   3.099   0.671
 6301TIP3    H218861   5.780   3.004   0.761
 6302TIP3   OH218862   5.090   1.467   3.346
 6302TIP3    H118863   4.998   1.489   3.329
 6302TIP3    H218864   5.139   1.530   3.294
 6303TIP3   OH218865   5.832   2.284   4.016
 6303TIP3    H118866   5.757   2.336   3.989
 6303TIP3    H218867   5.899   2.348   4.037
 6304TIP3   OH218868   3.878   4.465   2.622
 6304TIP3    H118869   3.844   4.550   2.595
 6304TIP3    H218870   3.973   4.472   2.612
 6305TIP3   OH218871   6.738   1.356   0.058
 6305TIP3    H118872   6.807   1.393   0.114
 6305TIP3    H218873   6.764   1.265   0.045
 6306TIP3   OH218874   3.178   4.606   0.184
 6306TIP3    H118875   3.268   4.604   0.218
 6306TIP3    H218876   3.143   4.689   0.216
 6307TIP3   OH218877   3.396   3.496   0.835
 6307TIP3    H118878   3.405   3.556   0.909
 6307TIP3    H218879   3.354   3.549   0.767
 6308TIP3   OH218880   5.583   1.528   0.425
 6308TIP3    H118881   5.543   1.553   0.342
 6308TIP3    H218882   5.553   1.438   0.439
 6309TIP3   OH218883   2.364   1.172   5.794
 6309TIP3    H118884   2.393   1.081   5.801
 6309TIP3    H218885   2.400   1.202   5.710
 6310TIP3   OH218886   7.474   6.742   0.117
 6310TIP3    H118887   7.422   6.667   0.146
 6310TIP3    H218888   7.512   6.713   0.034
 6311TIP3   OH218889   5.058   4.323   4.927
 6311TIP3    H118890   5.071   4.258   4.857
 6311TIP3    H218891   5.136   4.316   4.981
 6312TIP3   OH218892   5.658   2.403   4.614
 6312TIP3    H118893   5.657   2.394   4.519
 6312TIP3    H218894   5.571   2.373   4.642
 6313TIP3   OH218895   0.656   2.143   0.673
 6313TIP3    H118896   0.726   2.204   0.648
 6313TIP3    H218897   0.613   2.120   0.591
 6314TIP3   OH218898   7.295   4.139   6.758
 6314TIP3    H118899   7.223   4.193   6.725
 6314TIP3    H218900   7.294   4.152   6.852
 6315TIP3   OH218901   2.192   2.554   1.069
 6315TIP3    H118902   2.113   2.545   1.122
 6315TIP3    H218903   2.261   2.574   1.133
 6316TIP3   OH218904   1.226   5.589   3.078
 6316TIP3    H118905   1.204   5.496   3.073
 6316TIP3    H218906   1.176   5.629   3.006
 6317TIP3   OH218907   5.515   4.411   4.803
 6317TIP3    H118908   5.440   4.445   4.851
 6317TIP3    H218909   5.487   4.325   4.771
 6318TIP3   OH218910   4.823   6.813   1.801
 6318TIP3    H118911   4.818   6.782   1.891
 6318TIP3    H218912   4.792   6.903   1.804
 6319TIP3   OH218913   3.242   6.531   0.065
 6319TIP3    H118914   3.191   6.590   0.120
 6319TIP3    H218915   3.240   6.447   0.111
 6320TIP3   OH218916   0.374   7.487   0.215
 6320TIP3    H118917   0.307   7.502   0.149
 6320TIP3    H218918   0.360   7.397   0.244
 6321TIP3   OH218919   1.512   2.597   2.748
 6321TIP3    H118920   1.534   2.656   2.820
 6321TIP3    H218921   1.440   2.640   2.703
 6322TIP3   OH218922   6.546   5.792   0.309
 6322TIP3    H118923   6.526   5.766   0.399
 6322TIP3    H218924   6.579   5.712   0.268
 6323TIP3   OH218925   0.744   6.234   2.079
 6323TIP3    H118926   0.682   6.257   2.010
 6323TIP3    H218927   0.818   6.293   2.066
 6324TIP3   OH218928   3.657   2.742   3.934
 6324TIP3    H118929   3.716   2.815   3.954
 6324TIP3    H218930   3.712   2.680   3.887
 6325TIP3   OH218931   0.021   2.139   4.493
 6325TIP3    H118932  -0.031   2.208   4.451
 6325TIP3    H218933  -0.036   2.106   4.563
 6326TIP3   OH218934   2.281   1.377   6.702
 6326TIP3    H118935   2.323   1.296   6.732
 6326TIP3    H218936   2.323   1.395   6.617
 6327TIP3   OH218937   1.381   7.348   2.107
 6327TIP3    H118938   1.296   7.310   2.126
 6327TIP3    H218939   1.389   7.345   2.012
 6328TIP3   OH218940   7.568   3.909   1.675
 6328TIP3    H118941   7.540   3.818   1.682
 6328TIP3    H218942   7.646   3.905   1.620
 6329TIP3   OH218943   1.603   4.288   6.347
 6329TIP3    H118944   1.527   4.334   6.311
 6329TIP3    H218945   1.622   4.334   6.428
 6330TIP3   OH218946   1.532   2.277   4.353
 6330TIP3    H118947   1.531   2.298   4.259
 6330TIP3    H218948   1.582   2.349   4.393
 6331TIP3   OH218949   4.501   1.955   4.155
 6331TIP3    H118950   4.412   1.950   4.191
 6331TIP3    H218951   4.555   1.977   4.231
 6332TIP3   OH218952   4.126   3.593   0.681
 6332TIP3    H118953   4.052   3.585   0.621
 6332TIP3    H218954   4.179   3.664   0.645
 6333TIP3   OH218955   3.474   5.496   2.765
 6333TIP3    H118956   3.437   5.430   2.706
 6333TIP3    H218957   3.402   5.558   2.778
 6334TIP3   OH218958   6.612   7.395   2.246
 6334TIP3    H118959   6.636   7.349   2.165
 6334TIP3    H218960   6.534   7.350   2.278
 6335TIP3   OH218961   3.786   6.372   5.173
 6335TIP3    H118962   3.786   6.375   5.268
 6335TIP3    H218963   3.799   6.463   5.146
 6336TIP3   OH218964   1.941   0.411   3.239
 6336TIP3    H118965   1.846   0.428   3.238
 6336TIP3    H218966   1.948   0.316   3.239
 6337TIP3   OH218967   3.697   6.470   1.730
 6337TIP3    H118968   3.719   6.472   1.823
 6337TIP3    H218969   3.782   6.475   1.685
 6338TIP3   OH218970   4.432   2.431   1.005
 6338TIP3    H118971   4.365   2.467   0.947
 6338TIP3    H218972   4.399   2.447   1.094
 6339TIP3   OH218973   7.769   2.988   4.198
 6339TIP3    H118974   7.858   3.015   4.173
 6339TIP3    H218975   7.725   3.070   4.221
 6340TIP3   OH218976   7.943   7.687   1.979
 6340TIP3    H118977   7.955   7.665   1.886
 6340TIP3    H218978   7.852   7.716   1.985
 6341TIP3   OH218979   1.458   2.494   3.484
 6341TIP3    H118980   1.498   2.472   3.568
 6341TIP3    H218981   1.438   2.409   3.444
 6342TIP3   OH218982   3.103   6.427   0.693
 6342TIP3    H118983   3.175   6.461   0.747
 6342TIP3    H218984   3.147   6.382   0.621
 6343TIP3   OH218985   3.681   0.963   1.426
 6343TIP3    H118986   3.762   0.976   1.377
 6343TIP3    H218987   3.677   0.868   1.441
 6344TIP3   OH218988   6.250   5.516   0.062
 6344TIP3    H118989   6.320   5.452   0.076
 6344TIP3    H218990   6.181   5.491   0.124
 6345TIP3   OH218991   7.400   0.690   6.707
 6345TIP3    H118992   7.365   0.653   6.788
 6345TIP3    H218993   7.392   0.784   6.718
 6346TIP3   OH218994   3.795   1.261   0.099
 6346TIP3    H118995   3.825   1.297   0.016
 6346TIP3    H218996   3.736   1.190   0.075
 6347TIP3   OH218997   3.106   3.445   4.290
 6347TIP3    H118998   3.083   3.370   4.345
 6347TIP3    H218999   3.116   3.409   4.203
 6348TIP3   OH219000   0.342   0.161   0.731
 6348TIP3    H119001   0.392   0.198   0.804
 6348TIP3    H219002   0.356   0.222   0.659
 6349TIP3   OH219003   0.465   4.839   3.779
 6349TIP3    H119004   0.478   4.923   3.823
 6349TIP3    H219005   0.495   4.855   3.689
 6350TIP3   OH219006   0.969   3.684   5.702
 6350TIP3    H119007   0.900   3.704   5.639
 6350TIP3    H219008   0.936   3.609   5.750
 6351TIP3   OH219009   3.893   1.611   0.852
 6351TIP3    H119010   3.981   1.607   0.815
 6351TIP3    H219011   3.870   1.704   0.853
 6352TIP3   OH219012   3.036   5.699   0.773
 6352TIP3    H119013   3.063   5.641   0.702
 6352TIP3    H219014   2.959   5.657   0.811
 6353TIP3   OH219015   6.385   0.613   6.389
 6353TIP3    H119016   6.384   0.702   6.353
 6353TIP3    H219017   6.423   0.622   6.476
 6354TIP3   OH219018   7.284   4.475   5.866
 6354TIP3    H119019   7.321   4.464   5.954
 6354TIP3    H219020   7.268   4.569   5.858
 6355TIP3   OH219021   2.377   3.105   5.429
 6355TIP3    H119022   2.450   3.166   5.435
 6355TIP3    H219023   2.305   3.158   5.393
 6356TIP3   OH219024   5.662   5.049   6.444
 6356TIP3    H119025   5.667   5.054   6.539
 6356TIP3    H219026   5.749   5.019   6.417
 6357TIP3   OH219027   2.771   4.406   0.425
 6357TIP3    H119028   2.747   4.490   0.466
 6357TIP3    H219029   2.867   4.405   0.427
 6358TIP3   OH219030   3.795   6.210   0.329
 6358TIP3    H119031   3.884   6.243   0.342
 6358TIP3    H219032   3.746   6.244   0.404
 6359TIP3   OH219033   5.720   1.453   4.455
 6359TIP3    H119034   5.799   1.496   4.488
 6359TIP3    H219035   5.712   1.374   4.508
 6360TIP3   OH219036   2.822   2.296   3.348
 6360TIP3    H119037   2.757   2.287   3.278
 6360TIP3    H219038   2.904   2.266   3.309
 6361TIP3   OH219039   6.440   6.491   0.968
 6361TIP3    H119040   6.443   6.397   0.986
 6361TIP3    H219041   6.497   6.502   0.892
 6362TIP3   OH219042   7.385   6.965   0.241
 6362TIP3    H119043   7.334   6.975   0.160
 6362TIP3    H219044   7.445   6.893   0.222
 6363TIP3   OH219045   0.667   5.296   6.711
 6363TIP3    H119046   0.621   5.282   6.793
 6363TIP3    H219047   0.602   5.339   6.655
 6364TIP3   OH219048   1.353   1.240   5.106
 6364TIP3    H119049   1.284   1.290   5.149
 6364TIP3    H219050   1.308   1.195   5.034
 6365TIP3   OH219051   3.444   1.628   6.383
 6365TIP3    H119052   3.492   1.546   6.390
 6365TIP3    H219053   3.478   1.669   6.303
 6366TIP3   OH219054   5.066   7.433   3.069
 6366TIP3    H119055   5.099   7.493   3.136
 6366TIP3    H219056   4.980   7.469   3.045
 6367TIP3   OH219057   4.883   3.739   5.578
 6367TIP3    H119058   4.950   3.807   5.576
 6367TIP3    H219059   4.903   3.687   5.656
 6368TIP3   OH219060   4.835   4.912   5.392
 6368TIP3    H119061   4.887   4.832   5.395
 6368TIP3    H219062   4.890   4.978   5.434
 6369TIP3   OH219063   4.491   6.349   3.915
 6369TIP3    H119064   4.517   6.371   4.004
 6369TIP3    H219065   4.502   6.430   3.866
 6370TIP3   OH219066   2.639   6.293   4.259
 6370TIP3    H119067   2.583   6.369   4.271
 6370TIP3    H219068   2.718   6.312   4.309
 6371TIP3   OH219069   0.103   4.273   6.601
 6371TIP3    H119070   0.071   4.341   6.661
 6371TIP3    H219071   0.034   4.206   6.602
 6372TIP3   OH219072   0.855   6.919   2.624
 6372TIP3    H119073   0.787   6.981   2.651
 6372TIP3    H219074   0.919   6.973   2.578
 6373TIP3   OH219075   4.711   1.450   1.972
 6373TIP3    H119076   4.670   1.369   2.002
 6373TIP3    H219077   4.721   1.502   2.052
 6374TIP3   OH219078   2.180   7.487   3.157
 6374TIP3    H119079   2.122   7.412   3.171
 6374TIP3    H219080   2.267   7.449   3.146
 6375TIP3   OH219081   2.262   1.469   0.644
 6375TIP3    H119082   2.249   1.540   0.582
 6375TIP3    H219083   2.264   1.511   0.730
 6376TIP3   OH219084   7.757   1.811   6.205
 6376TIP3    H119085   7.802   1.874   6.148
 6376TIP3    H219086   7.686   1.777   6.151
 6377TIP3   OH219087   5.753   0.889   2.403
 6377TIP3    H119088   5.843   0.868   2.380
 6377TIP3    H219089   5.723   0.815   2.455
 6378TIP3   OH219090   1.034   7.671   1.481
 6378TIP3    H119091   1.095   7.597   1.476
 6378TIP3    H219092   0.975   7.649   1.553
 6379TIP3   OH219093   0.688   5.448   1.899
 6379TIP3    H119094   0.668   5.371   1.953
 6379TIP3    H219095   0.664   5.421   1.810
 6380TIP3   OH219096   3.728   1.284   2.791
 6380TIP3    H119097   3.661   1.321   2.848
 6380TIP3    H219098   3.809   1.329   2.817
 6381TIP3   OH219099   4.761   3.581   0.320
 6381TIP3    H119100   4.685   3.611   0.369
 6381TIP3    H219101   4.835   3.628   0.359
 6382TIP3   OH219102   3.121   3.788   4.887
 6382TIP3    H119103   3.079   3.820   4.807
 6382TIP3    H219104   3.122   3.863   4.945
 6383TIP3   OH219105   2.291   2.613   4.640
 6383TIP3    H119106   2.377   2.655   4.630
 6383TIP3    H219107   2.278   2.607   4.734
 6384TIP3   OH219108   6.040   4.766   5.700
 6384TIP3    H119109   6.077   4.834   5.756
 6384TIP3    H219110   6.075   4.784   5.613
 6385TIP3   OH219111   3.595   1.284   0.463
 6385TIP3    H119112   3.605   1.197   0.503
 6385TIP3    H219113   3.504   1.287   0.435
 6386TIP3   OH219114   0.255   6.334   2.581
 6386TIP3    H119115   0.243   6.254   2.632
 6386TIP3    H219116   0.350   6.342   2.571
 6387TIP3   OH219117   0.814   7.474   5.457
 6387TIP3    H119118   0.718   7.469   5.463
 6387TIP3    H219119   0.830   7.532   5.382
 6388TIP3   OH219120   6.478   1.074   1.584
 6388TIP3    H119121   6.412   1.144   1.587
 6388TIP3    H219122   6.470   1.037   1.496
 6389TIP3   OH219123   5.874   5.704   1.775
 6389TIP3    H119124   5.905   5.625   1.819
 6389TIP3    H219125   5.856   5.676   1.685
 6390TIP3   OH219126   6.112   3.164   1.395
 6390TIP3    H119127   6.142   3.239   1.447
 6390TIP3    H219128   6.191   3.112   1.380
 6391TIP3   OH219129   7.626   7.756   1.405
 6391TIP3    H119130   7.713   7.725   1.382
 6391TIP3    H219131   7.617   7.735   1.498
 6392TIP3   OH219132   3.680   6.857   1.441
 6392TIP3    H119133   3.685   6.805   1.521
 6392TIP3    H219134   3.745   6.927   1.453
 6393TIP3   OH219135   5.687   0.314   4.239
 6393TIP3    H119136   5.618   0.275   4.185
 6393TIP3    H219137   5.765   0.263   4.219
 6394TIP3   OH219138   6.544   1.777   0.855
 6394TIP3    H119139   6.507   1.807   0.772
 6394TIP3    H219140   6.518   1.844   0.918
 6395TIP3   OH219141   3.530   6.176   1.453
 6395TIP3    H119142   3.478   6.142   1.525
 6395TIP3    H219143   3.510   6.269   1.450
 6396TIP3   OH219144   7.825   2.318   5.691
 6396TIP3    H119145   7.745   2.369   5.678
 6396TIP3    H219146   7.889   2.358   5.631
 6397TIP3   OH219147   6.834   2.352   0.671
 6397TIP3    H119148   6.776   2.388   0.738
 6397TIP3    H219149   6.851   2.263   0.700
 6398TIP3   OH219150   4.728   2.102   1.813
 6398TIP3    H119151   4.758   2.049   1.739
 6398TIP3    H219152   4.707   2.187   1.774
 6399TIP3   OH219153   4.657   7.575   2.425
 6399TIP3    H119154   4.566   7.603   2.409
 6399TIP3    H219155   4.663   7.489   2.383
 6400TIP3   OH219156   0.948   7.117   3.281
 6400TIP3    H119157   1.010   7.082   3.346
 6400TIP3    H219158   0.886   7.045   3.267
 6401TIP3   OH219159   8.198   0.257   1.216
 6401TIP3    H119160   8.227   0.324   1.278
 6401TIP3    H219161   8.165   0.306   1.141
 6402TIP3   OH219162   5.030   3.583   3.813
 6402TIP3    H119163   5.111   3.605   3.767
 6402TIP3    H219164   5.033   3.488   3.824
 6403TIP3   OH219165   6.325   1.111   1.176
 6403TIP3    H119166   6.353   1.137   1.089
 6403TIP3    H219167   6.298   1.193   1.218
 6404TIP3   OH219168   5.359   5.745   4.439
 6404TIP3    H119169   5.298   5.782   4.504
 6404TIP3    H219170   5.422   5.696   4.491
 6405TIP3   OH219171   1.424   7.681   6.708
 6405TIP3    H119172   1.389   7.741   6.774
 6405TIP3    H219173   1.500   7.726   6.672
 6406TIP3   OH219174   1.397   1.086   3.899
 6406TIP3    H119175   1.387   1.039   3.815
 6406TIP3    H219176   1.384   1.178   3.877
 6407TIP3   OH219177   6.459   7.750   5.812
 6407TIP3    H119178   6.544   7.716   5.785
 6407TIP3    H219179   6.437   7.815   5.745
 6408TIP3   OH219180   4.286   5.950   3.765
 6408TIP3    H119181   4.291   5.965   3.671
 6408TIP3    H219182   4.362   5.996   3.801
 6409TIP3   OH219183   7.286   4.131   5.525
 6409TIP3    H119184   7.266   4.224   5.536
 6409TIP3    H219185   7.206   4.086   5.552
 6410TIP3   OH219186   3.962   0.406   6.770
 6410TIP3    H119187   3.954   0.375   6.860
 6410TIP3    H219188   4.036   0.358   6.734
 6411TIP3   OH219189   5.571   2.967   1.022
 6411TIP3    H119190   5.620   3.035   1.069
 6411TIP3    H219191   5.496   3.012   0.985
 6412TIP3   OH219192   0.007   0.736   6.522
 6412TIP3    H119193  -0.068   0.775   6.567
 6412TIP3    H219194  -0.029   0.660   6.477
 6413TIP3   OH219195   0.210   0.137   0.212
 6413TIP3    H119196   0.240   0.067   0.155
 6413TIP3    H219197   0.142   0.097   0.266
 6414TIP3   OH219198   2.324   5.212   5.763
 6414TIP3    H119199   2.276   5.159   5.825
 6414TIP3    H219200   2.357   5.150   5.698
 6415TIP3   OH219201   6.817   6.262   1.548
 6415TIP3    H119202   6.756   6.195   1.579
 6415TIP3    H219203   6.834   6.317   1.625
 6416TIP3   OH219204   3.204   6.251   3.738
 6416TIP3    H119205   3.190   6.320   3.672
 6416TIP3    H219206   3.299   6.243   3.744
 6417TIP3   OH219207   3.246   2.407   1.760
 6417TIP3    H119208   3.283   2.476   1.706
 6417TIP3    H219209   3.238   2.446   1.847
 6418TIP3   OH219210   7.058   2.838   1.165
 6418TIP3    H119211   7.154   2.837   1.170
 6418TIP3    H219212   7.036   2.755   1.123
 6419TIP3   OH219213   0.922   4.155   3.356
 6419TIP3    H119214   0.940   4.133   3.447
 6419TIP3    H219215   0.864   4.231   3.360
 6420TIP3   OH219216   3.516   2.328   2.434
 6420TIP3    H119217   3.521   2.381   2.354
 6420TIP3    H219218   3.522   2.392   2.505
 6421TIP3   OH219219   2.432   2.619   4.216
 6421TIP3    H119220   2.506   2.576   4.258
 6421TIP3    H219221   2.419   2.699   4.268
 6422TIP3   OH219222   3.040   0.904   6.478
 6422TIP3    H119223   3.076   0.815   6.474
 6422TIP3    H219224   3.003   0.920   6.392
 6423TIP3   OH219225   6.413   3.537   3.610
 6423TIP3    H119226   6.335   3.591   3.604
 6423TIP3    H219227   6.478   3.581   3.555
 6424TIP3   OH219228   1.868   6.835   2.214
 6424TIP3    H119229   1.897   6.913   2.168
 6424TIP3    H219230   1.800   6.866   2.274
 6425TIP3   OH219231   8.079   4.924   4.458
 6425TIP3    H119232   7.995   4.882   4.438
 6425TIP3    H219233   8.121   4.864   4.519
 6426TIP3   OH219234   6.801   7.524   4.958
 6426TIP3    H119235   6.816   7.450   5.017
 6426TIP3    H219236   6.757   7.485   4.883
 6427TIP3   OH219237   6.132   1.573   1.415
 6427TIP3    H119238   6.132   1.599   1.508
 6427TIP3    H219239   6.150   1.654   1.368
 6428TIP3   OH219240   5.100   2.290   1.726
 6428TIP3    H119241   5.185   2.256   1.753
 6428TIP3    H219242   5.118   2.380   1.699
 6429TIP3   OH219243   8.226   3.385   3.219
 6429TIP3    H119244   8.289   3.317   3.195
 6429TIP3    H219245   8.145   3.359   3.177
 6430TIP3   OH219246   5.894   1.976   6.523
 6430TIP3    H119247   5.847   2.056   6.500
 6430TIP3    H219248   5.972   2.006   6.570
 6431TIP3   OH219249   2.587   6.612   2.581
 6431TIP3    H119250   2.512   6.604   2.640
 6431TIP3    H219251   2.610   6.705   2.585
 6432TIP3   OH219252   3.583   0.774   4.598
 6432TIP3    H119253   3.676   0.794   4.586
 6432TIP3    H219254   3.579   0.731   4.683
 6433TIP3   OH219255   3.171   0.090   0.465
 6433TIP3    H119256   3.154   0.004   0.503
 6433TIP3    H219257   3.087   0.115   0.425
 6434TIP3   OH219258   2.619   0.004   1.010
 6434TIP3    H119259   2.642  -0.059   0.942
 6434TIP3    H219260   2.646   0.088   0.975
 6435TIP3   OH219261   0.145   0.894   2.447
 6435TIP3    H119262   0.148   0.845   2.365
 6435TIP3    H219263   0.229   0.878   2.489
 6436TIP3   OH219264   1.468   6.271   1.564
 6436TIP3    H119265   1.481   6.315   1.648
 6436TIP3    H219266   1.523   6.193   1.569
 6437TIP3   OH219267   5.725   2.126   6.150
 6437TIP3    H119268   5.816   2.148   6.127
 6437TIP3    H219269   5.729   2.033   6.172
 6438TIP3   OH219270   8.119   7.649   0.238
 6438TIP3    H119271   8.081   7.567   0.205
 6438TIP3    H219272   8.096   7.651   0.331
 6439TIP3   OH219273   0.151   5.781   0.870
 6439TIP3    H119274   0.221   5.765   0.807
 6439TIP3    H219275   0.196   5.816   0.947
 6440TIP3   OH219276   4.102   3.696   0.013
 6440TIP3    H119277   4.184   3.689   0.063
 6440TIP3    H219278   4.076   3.606  -0.004
 6441TIP3   OH219279   7.696   1.749   5.301
 6441TIP3    H119280   7.785   1.714   5.300
 6441TIP3    H219281   7.696   1.815   5.232
 6442TIP3   OH219282   4.006   2.976   0.907
 6442TIP3    H119283   4.020   2.882   0.892
 6442TIP3    H219284   3.918   2.993   0.875
 6443TIP3   OH219285   0.386   1.851   0.425
 6443TIP3    H119286   0.314   1.817   0.372
 6443TIP3    H219287   0.350   1.856   0.513
 6444TIP3   OH219288   3.498   3.726   6.404
 6444TIP3    H119289   3.463   3.662   6.465
 6444TIP3    H219290   3.562   3.776   6.454
 6445TIP3   OH219291   6.020   3.254   4.174
 6445TIP3    H119292   5.973   3.225   4.096
 6445TIP3    H219293   6.019   3.178   4.232
 6446TIP3   OH219294   7.743   4.910   2.094
 6446TIP3    H119295   7.782   4.846   2.035
 6446TIP3    H219296   7.816   4.940   2.148
 6447TIP3   OH219297   7.208   5.392   6.267
 6447TIP3    H119298   7.172   5.330   6.331
 6447TIP3    H219299   7.277   5.438   6.314
 6448TIP3   OH219300   3.344   2.716   6.535
 6448TIP3    H119301   3.408   2.667   6.485
 6448TIP3    H219302   3.260   2.697   6.493
 6449TIP3   OH219303   5.341   4.532   0.834
 6449TIP3    H119304   5.425   4.577   0.837
 6449TIP3    H219305   5.314   4.525   0.925
 6450TIP3   OH219306   3.849   5.042   4.664
 6450TIP3    H119307   3.824   5.000   4.746
 6450TIP3    H219308   3.775   5.027   4.605
 6451TIP3   OH219309   6.602   5.600   0.739
 6451TIP3    H119310   6.688   5.603   0.781
 6451TIP3    H219311   6.561   5.521   0.775
 6452TIP3   OH219312   5.128   3.787   2.458
 6452TIP3    H119313   5.084   3.713   2.501
 6452TIP3    H219314   5.175   3.831   2.528
 6453TIP3   OH219315   2.951   5.316   6.756
 6453TIP3    H119316   2.954   5.285   6.665
 6453TIP3    H219317   2.870   5.368   6.760
 6454TIP3   OH219318   0.379   7.382   5.236
 6454TIP3    H119319   0.297   7.336   5.256
 6454TIP3    H219320   0.359   7.430   5.156
 6455TIP3   OH219321   7.309   3.855   3.300
 6455TIP3    H119322   7.214   3.843   3.301
 6455TIP3    H219323   7.337   3.816   3.217
 6456TIP3   OH219324   6.396   1.976   2.657
 6456TIP3    H119325   6.439   2.061   2.643
 6456TIP3    H219326   6.388   1.939   2.569
 6457TIP3   OH219327   1.531   5.961   0.550
 6457TIP3    H119328   1.581   5.953   0.631
 6457TIP3    H219329   1.507   5.871   0.527
 6458TIP3   OH219330   4.339   6.030   2.290
 6458TIP3    H119331   4.418   6.022   2.344
 6458TIP3    H219332   4.349   6.115   2.246
 6459TIP3   OH219333   7.142   5.310   3.550
 6459TIP3    H119334   7.050   5.326   3.530
 6459TIP3    H219335   7.187   5.323   3.466
 6460TIP3   OH219336   3.955   0.303   2.742
 6460TIP3    H119337   3.917   0.364   2.806
 6460TIP3    H219338   4.035   0.271   2.785
 6461TIP3   OH219339   4.111   4.682   1.932
 6461TIP3    H119340   4.077   4.592   1.938
 6461TIP3    H219341   4.182   4.676   1.868
 6462TIP3   OH219342   7.774   4.650   2.013
 6462TIP3    H119343   7.735   4.622   2.095
 6462TIP3    H219344   7.861   4.609   2.013
 6463TIP3   OH219345   7.688   1.439   6.648
 6463TIP3    H119346   7.736   1.426   6.729
 6463TIP3    H219347   7.614   1.495   6.673
 6464TIP3   OH219348   4.708   7.626   5.633
 6464TIP3    H119349   4.774   7.659   5.572
 6464TIP3    H219350   4.719   7.531   5.631
 6465TIP3   OH219351   7.580   1.429   0.541
 6465TIP3    H119352   7.571   1.459   0.632
 6465TIP3    H219353   7.527   1.490   0.490
 6466TIP3   OH219354   5.359   7.592   3.003
 6466TIP3    H119355   5.346   7.499   2.989
 6466TIP3    H219356   5.280   7.621   3.047
 6467TIP3   OH219357   4.656   3.576   0.060
 6467TIP3    H119358   4.667   3.670   0.042
 6467TIP3    H219359   4.671   3.568   0.154
 6468TIP3   OH219360   1.366   6.108   0.722
 6468TIP3    H119361   1.422   6.058   0.662
 6468TIP3    H219362   1.417   6.112   0.803
 6469TIP3   OH219363   7.204   5.404   1.216
 6469TIP3    H119364   7.114   5.374   1.205
 6469TIP3    H219365   7.231   5.370   1.301
 6470TIP3   OH219366   4.730   0.376   3.566
 6470TIP3    H119367   4.724   0.471   3.556
 6470TIP3    H219368   4.762   0.345   3.482
 6471TIP3   OH219369   4.688   3.554   4.896
 6471TIP3    H119370   4.669   3.568   4.989
 6471TIP3    H219371   4.634   3.619   4.850
 6472TIP3   OH219372   5.643   0.159   0.504
 6472TIP3    H119373   5.576   0.144   0.571
 6472TIP3    H219374   5.615   0.105   0.430
 6473TIP3   OH219375   1.617   5.532   4.673
 6473TIP3    H119376   1.530   5.569   4.683
 6473TIP3    H219377   1.616   5.492   4.585
 6474TIP3   OH219378   5.243   1.213   3.336
 6474TIP3    H119379   5.313   1.202   3.401
 6474TIP3    H219380   5.184   1.276   3.376
 6475TIP3   OH219381   4.648   4.203   6.300
 6475TIP3    H119382   4.565   4.158   6.317
 6475TIP3    H219383   4.669   4.247   6.383
 6476TIP3   OH219384   6.320   4.386   1.995
 6476TIP3    H119385   6.283   4.462   1.951
 6476TIP3    H219386   6.372   4.342   1.927
 6477TIP3   OH219387   3.071   3.236   3.140
 6477TIP3    H119388   3.029   3.298   3.199
 6477TIP3    H219389   3.096   3.163   3.196
 6478TIP3   OH219390   5.010   7.316   1.989
 6478TIP3    H119391   4.990   7.335   2.080
 6478TIP3    H219392   4.986   7.397   1.943
 6479TIP3   OH219393   1.375   7.173   3.114
 6479TIP3    H119394   1.453   7.214   3.078
 6479TIP3    H219395   1.409   7.113   3.181
 6480TIP3   OH219396   1.095   5.243   6.429
 6480TIP3    H119397   1.044   5.312   6.471
 6480TIP3    H219398   1.068   5.246   6.337
 6481TIP3   OH219399   6.798   6.298   6.598
 6481TIP3    H119400   6.882   6.270   6.562
 6481TIP3    H219401   6.821   6.336   6.683
 6482TIP3   OH219402   1.673   5.960   1.338
 6482TIP3    H119403   1.638   6.033   1.288
 6482TIP3    H219404   1.596   5.918   1.377
 6483TIP3   OH219405   3.501   3.854   6.171
 6483TIP3    H119406   3.494   3.816   6.258
 6483TIP3    H219407   3.518   3.780   6.113
 6484TIP3   OH219408   7.260   0.886   2.567
 6484TIP3    H119409   7.242   0.980   2.564
 6484TIP3    H219410   7.303   0.867   2.483
 6485TIP3   OH219411   2.184   2.235   5.427
 6485TIP3    H119412   2.175   2.142   5.448
 6485TIP3    H219413   2.227   2.273   5.503
 6486TIP3   OH219414   0.741   2.264   1.744
 6486TIP3    H119415   0.805   2.220   1.799
 6486TIP3    H219416   0.725   2.348   1.788
 6487TIP3   OH219417   0.390   2.045   4.080
 6487TIP3    H119418   0.328   1.972   4.090
 6487TIP3    H219419   0.381   2.071   3.988
 6488TIP3   OH219420   1.075   6.481   1.814
 6488TIP3    H119421   1.038   6.429   1.743
 6488TIP3    H219422   1.113   6.557   1.771
 6489TIP3   OH219423   2.045   3.108   5.242
 6489TIP3    H119424   2.037   3.124   5.335
 6489TIP3    H219425   1.957   3.122   5.207
 6490TIP3   OH219426   6.591   2.915   1.554
 6490TIP3    H119427   6.676   2.899   1.515
 6490TIP3    H219428   6.571   2.836   1.604
 6491TIP3   OH219429   6.058   7.785   4.520
 6491TIP3    H119430   6.022   7.749   4.601
 6491TIP3    H219431   6.153   7.775   4.530
 6492TIP3   OH219432   0.634   1.388   6.511
 6492TIP3    H119433   0.638   1.293   6.515
 6492TIP3    H219434   0.541   1.409   6.522
 6493TIP3   OH219435   6.027   7.639   2.108
 6493TIP3    H119436   6.019   7.674   2.197
 6493TIP3    H219437   5.972   7.696   2.054
 6494TIP3   OH219438   4.277   1.646   6.507
 6494TIP3    H119439   4.209   1.680   6.566
 6494TIP3    H219440   4.234   1.639   6.422
 6495TIP3   OH219441   0.551   5.729   2.207
 6495TIP3    H119442   0.538   5.819   2.238
 6495TIP3    H219443   0.643   5.710   2.225
 6496TIP3   OH219444   8.294   7.510   5.395
 6496TIP3    H119445   8.374   7.553   5.426
 6496TIP3    H219446   8.310   7.498   5.301
 6497TIP3   OH219447   6.898   5.397   5.379
 6497TIP3    H119448   6.821   5.369   5.428
 6497TIP3    H219449   6.902   5.492   5.391
 6498TIP3   OH219450   1.653   0.169   2.815
 6498TIP3    H119451   1.598   0.115   2.872
 6498TIP3    H219452   1.736   0.121   2.811
 6499TIP3   OH219453   0.352   2.040   1.643
 6499TIP3    H119454   0.328   2.132   1.651
 6499TIP3    H219455   0.308   1.997   1.716
 6500TIP3   OH219456   2.153   3.510   5.002
 6500TIP3    H119457   2.199   3.445   5.054
 6500TIP3    H219458   2.169   3.593   5.047
 6501TIP3   OH219459   1.629   3.909   0.383
 6501TIP3    H119460   1.541   3.892   0.417
 6501TIP3    H219461   1.648   3.835   0.326
 6502TIP3   OH219462   1.950   3.861   0.280
 6502TIP3    H119463   1.983   3.774   0.260
 6502TIP3    H219464   1.862   3.847   0.312
 6503TIP3   OH219465   1.361   4.743   0.748
 6503TIP3    H119466   1.397   4.664   0.789
 6503TIP3    H219467   1.282   4.763   0.799
 6504TIP3   OH219468   3.547   0.760   2.230
 6504TIP3    H119469   3.513   0.729   2.146
 6504TIP3    H219470   3.494   0.838   2.250
 6505TIP3   OH219471   1.081   3.894   5.995
 6505TIP3    H119472   0.989   3.869   6.010
 6505TIP3    H219473   1.130   3.842   6.058
 6506TIP3   OH219474   3.800   3.295   6.608
 6506TIP3    H119475   3.820   3.380   6.569
 6506TIP3    H219476   3.751   3.248   6.541
 6507TIP3   OH219477   7.690   5.998   4.484
 6507TIP3    H119478   7.665   6.061   4.550
 6507TIP3    H219479   7.765   5.952   4.522
 6508TIP3   OH219480   3.053   7.069   5.399
 6508TIP3    H119481   3.107   7.129   5.450
 6508TIP3    H219482   3.067   6.983   5.439
 6509TIP3   OH219483   1.026   5.443   1.879
 6509TIP3    H119484   0.985   5.362   1.911
 6509TIP3    H219485   0.980   5.513   1.924
 6510TIP3   OH219486   5.810   0.963   0.738
 6510TIP3    H119487   5.863   0.973   0.817
 6510TIP3    H219488   5.833   0.876   0.705
 6511TIP3   OH219489   4.151   2.486   0.945
 6511TIP3    H119490   4.171   2.392   0.953
 6511TIP3    H219491   4.185   2.524   1.026
 6512TIP3   OH219492   5.288   7.273   1.996
 6512TIP3    H119493   5.194   7.291   1.987
 6512TIP3    H219494   5.302   7.266   2.090
 6513TIP3   OH219495   7.672   7.162   0.829
 6513TIP3    H119496   7.671   7.079   0.878
 6513TIP3    H219497   7.736   7.148   0.760
 6514TIP3   OH219498   6.415   6.686   1.382
 6514TIP3    H119499   6.464   6.747   1.438
 6514TIP3    H219500   6.471   6.609   1.377
 6515TIP3   OH219501   6.276   0.297   4.394
 6515TIP3    H119502   6.219   0.350   4.338
 6515TIP3    H219503   6.270   0.339   4.480
 6516TIP3   OH219504   0.887   7.088   3.614
 6516TIP3    H119505   0.945   7.095   3.538
 6516TIP3    H219506   0.805   7.054   3.578
 6517TIP3   OH219507   5.843   1.818   0.553
 6517TIP3    H119508   5.802   1.905   0.557
 6517TIP3    H219509   5.786   1.763   0.607
 6518TIP3   OH219510   2.278   3.732   3.554
 6518TIP3    H119511   2.278   3.653   3.501
 6518TIP3    H219512   2.217   3.713   3.625
 6519TIP3   OH219513   2.873   5.985   6.236
 6519TIP3    H119514   2.784   6.020   6.242
 6519TIP3    H219515   2.870   5.923   6.163
 6520TIP3   OH219516   3.068   0.812   3.354
 6520TIP3    H119517   3.027   0.733   3.390
 6520TIP3    H219518   3.140   0.831   3.414
 6521TIP3   OH219519   5.130   2.255   6.409
 6521TIP3    H119520   5.079   2.320   6.360
 6521TIP3    H219521   5.068   2.219   6.472
 6522TIP3   OH219522   8.017   3.858   1.051
 6522TIP3    H119523   8.080   3.816   0.993
 6522TIP3    H219524   8.046   3.949   1.055
 6523TIP3   OH219525   3.921   1.704   5.499
 6523TIP3    H119526   3.847   1.645   5.512
 6523TIP3    H219527   3.907   1.776   5.561
 6524TIP3   OH219528   1.016   2.757   2.792
 6524TIP3    H119529   0.938   2.713   2.824
 6524TIP3    H219530   0.984   2.838   2.753
 6525TIP3   OH219531   5.068   1.078   4.540
 6525TIP3    H119532   5.148   1.131   4.552
 6525TIP3    H219533   5.073   1.050   4.448
 6526TIP3   OH219534   6.117   6.454   4.766
 6526TIP3    H119535   6.180   6.525   4.780
 6526TIP3    H219536   6.065   6.452   4.846
 6527TIP3   OH219537   0.346   0.363   3.938
 6527TIP3    H119538   0.404   0.346   3.864
 6527TIP3    H219539   0.268   0.310   3.919
 6528TIP3   OH219540   2.966   0.557   3.944
 6528TIP3    H119541   2.918   0.600   4.014
 6528TIP3    H219542   3.056   0.551   3.976
 6529TIP3   OH219543   3.066   3.116   5.340
 6529TIP3    H119544   3.131   3.049   5.321
 6529TIP3    H219545   3.102   3.197   5.302
 6530TIP3   OH219546   5.810   4.121   5.068
 6530TIP3    H119547   5.876   4.123   5.137
 6530TIP3    H219548   5.789   4.214   5.053
 6531TIP3   OH219549   0.828   5.489   2.456
 6531TIP3    H119550   0.779   5.407   2.456
 6531TIP3    H219551   0.848   5.505   2.364
 6532TIP3   OH219552   5.151   1.324   4.705
 6532TIP3    H119553   5.166   1.250   4.764
 6532TIP3    H219554   5.234   1.371   4.704
 6533TIP3   OH219555   0.563   5.660   4.328
 6533TIP3    H119556   0.582   5.583   4.383
 6533TIP3    H219557   0.644   5.674   4.279
 6534TIP3   OH219558   0.662   5.400   5.782
 6534TIP3    H119559   0.632   5.338   5.715
 6534TIP3    H219560   0.581   5.431   5.823
 6535TIP3   OH219561   5.091   3.063   2.150
 6535TIP3    H119562   5.042   3.083   2.230
 6535TIP3    H219563   5.144   3.140   2.133
 6536TIP3   OH219564   1.876   6.938   5.902
 6536TIP3    H119565   1.791   6.913   5.939
 6536TIP3    H219566   1.926   6.972   5.976
 6537TIP3   OH219567   5.897   5.789   6.120
 6537TIP3    H119568   5.819   5.844   6.109
 6537TIP3    H219569   5.963   5.830   6.065
 6538TIP3   OH219570   1.752   3.657   0.271
 6538TIP3    H119571   1.697   3.581   0.252
 6538TIP3    H219572   1.783   3.643   0.361
 6539TIP3   OH219573   0.350   5.516   3.277
 6539TIP3    H119574   0.293   5.525   3.353
 6539TIP3    H219575   0.426   5.467   3.308
 6540TIP3   OH219576   7.929   0.275   3.315
 6540TIP3    H119577   7.850   0.260   3.366
 6540TIP3    H219578   7.905   0.346   3.255
 6541TIP3   OH219579   7.617   6.451   6.511
 6541TIP3    H119580   7.551   6.497   6.562
 6541TIP3    H219581   7.696   6.506   6.518
 6542TIP3   OH219582   0.016   1.791   3.831
 6542TIP3    H119583  -0.009   1.712   3.880
 6542TIP3    H219584   0.047   1.757   3.747
 6543TIP3   OH219585   5.710   4.441   3.199
 6543TIP3    H119586   5.641   4.377   3.184
 6543TIP3    H219587   5.664   4.524   3.213
 6544TIP3   OH219588   5.681   0.181   2.744
 6544TIP3    H119589   5.719   0.098   2.715
 6544TIP3    H219590   5.690   0.179   2.840
 6545TIP3   OH219591   0.213   1.787   0.685
 6545TIP3    H119592   0.297   1.745   0.704
 6545TIP3    H219593   0.184   1.822   0.770
 6546TIP3   OH219594   0.091   3.805   1.892
 6546TIP3    H119595   0.026   3.857   1.843
 6546TIP3    H219596   0.127   3.745   1.827
 6547TIP3   OH219597   5.717   1.655   3.700
 6547TIP3    H119598   5.667   1.715   3.755
 6547TIP3    H219599   5.807   1.664   3.730
 6548TIP3   OH219600   2.704   4.672   3.987
 6548TIP3    H119601   2.641   4.614   3.943
 6548TIP3    H219602   2.771   4.689   3.921
 6549TIP3   OH219603   0.135   7.418   4.131
 6549TIP3    H119604   0.102   7.331   4.153
 6549TIP3    H219605   0.192   7.441   4.204
 6550TIP3   OH219606   8.242   3.499   6.207
 6550TIP3    H119607   8.281   3.430   6.153
 6550TIP3    H219608   8.246   3.464   6.296
 6551TIP3   OH219609   0.265   5.635   5.570
 6551TIP3    H119610   0.239   5.693   5.641
 6551TIP3    H219611   0.303   5.693   5.504
 6552TIP3   OH219612   1.872   5.706   3.506
 6552TIP3    H119613   1.830   5.679   3.424
 6552TIP3    H219614   1.964   5.684   3.494
 6553TIP3   OH219615   2.175   5.312   6.616
 6553TIP3    H119616   2.186   5.219   6.632
 6553TIP3    H219617   2.087   5.332   6.648
 6554TIP3   OH219618   5.910   5.210   2.636
 6554TIP3    H119619   5.845   5.215   2.706
 6554TIP3    H219620   5.859   5.197   2.557
 6555TIP3   OH219621   6.462   0.527   5.175
 6555TIP3    H119622   6.524   0.455   5.181
 6555TIP3    H219623   6.516   0.604   5.157
 6556TIP3   OH219624   3.200   2.112   3.776
 6556TIP3    H119625   3.200   2.114   3.680
 6556TIP3    H219626   3.191   2.019   3.799
 6557TIP3   OH219627   1.927   4.853   0.653
 6557TIP3    H119628   1.854   4.878   0.596
 6557TIP3    H219629   2.006   4.871   0.602
 6558TIP3   OH219630   5.572   6.318   0.471
 6558TIP3    H119631   5.666   6.328   0.459
 6558TIP3    H219632   5.559   6.322   0.566
 6559TIP3   OH219633   6.329   6.247   3.796
 6559TIP3    H119634   6.396   6.247   3.865
 6559TIP3    H219635   6.380   6.257   3.715
 6560TIP3   OH219636   3.973   5.904   6.167
 6560TIP3    H119637   4.014   5.986   6.195
 6560TIP3    H219638   3.934   5.925   6.082
 6561TIP3   OH219639   8.020   0.854   1.994
 6561TIP3    H119640   8.008   0.949   1.989
 6561TIP3    H219641   8.039   0.827   1.905
 6562TIP3   OH219642   2.917   5.899   1.218
 6562TIP3    H119643   2.975   5.900   1.294
 6562TIP3    H219644   2.975   5.908   1.142
 6563TIP3   OH219645   4.267   6.013   3.478
 6563TIP3    H119646   4.172   6.030   3.482
 6563TIP3    H219647   4.277   5.950   3.407
 6564TIP3   OH219648   7.626   1.008   4.434
 6564TIP3    H119649   7.712   0.981   4.466
 6564TIP3    H219650   7.632   0.999   4.339
 6565TIP3   OH219651   6.046   5.181   3.252
 6565TIP3    H119652   6.039   5.159   3.345
 6565TIP3    H219653   6.110   5.118   3.217
 6566TIP3   OH219654   5.741   0.873   2.065
 6566TIP3    H119655   5.722   0.792   2.113
 6566TIP3    H219656   5.827   0.901   2.097
 6567TIP3   OH219657   4.928   1.471   6.684
 6567TIP3    H119658   5.009   1.457   6.733
 6567TIP3    H219659   4.954   1.458   6.592
 6568TIP3   OH219660   1.766   2.830   1.674
 6568TIP3    H119661   1.849   2.783   1.682
 6568TIP3    H219662   1.792   2.921   1.657
 6569TIP3   OH219663   3.616   1.530   5.793
 6569TIP3    H119664   3.688   1.545   5.732
 6569TIP3    H219665   3.655   1.542   5.880
 6570TIP3   OH219666   2.815   2.031   4.865
 6570TIP3    H119667   2.802   1.938   4.847
 6570TIP3    H219668   2.876   2.033   4.939
 6571TIP3   OH219669   2.578   0.980   3.827
 6571TIP3    H119670   2.595   1.048   3.762
 6571TIP3    H219671   2.485   0.962   3.820
 6572TIP3   OH219672   4.519   0.002   6.010
 6572TIP3    H119673   4.600   0.021   5.963
 6572TIP3    H219674   4.454  -0.012   5.941
 6573TIP3   OH219675   7.873   0.486   3.145
 6573TIP3    H119676   7.794   0.540   3.146
 6573TIP3    H219677   7.919   0.513   3.065
 6574TIP3   OH219678   0.048   6.567   4.260
 6574TIP3    H119679   0.103   6.593   4.334
 6574TIP3    H219680  -0.008   6.644   4.245
 6575TIP3   OH219681   2.893   5.071   1.991
 6575TIP3    H119682   2.982   5.072   2.027
 6575TIP3    H219683   2.836   5.077   2.067
 6576TIP3   OH219684   2.658   1.259   6.469
 6576TIP3    H119685   2.653   1.252   6.565
 6576TIP3    H219686   2.658   1.168   6.439
 6577TIP3   OH219687   2.652   1.007   6.373
 6577TIP3    H119688   2.574   0.973   6.329
 6577TIP3    H219689   2.725   0.973   6.322
 6578TIP3   OH219690   5.950   4.738   1.678
 6578TIP3    H119691   5.864   4.750   1.639
 6578TIP3    H219692   5.933   4.728   1.772
 6579TIP3   OH219693   0.738   7.354   0.994
 6579TIP3    H119694   0.829   7.339   0.970
 6579TIP3    H219695   0.688   7.302   0.931
 6580TIP3   OH219696   1.052   3.351   3.729
 6580TIP3    H119697   0.990   3.400   3.676
 6580TIP3    H219698   1.079   3.278   3.673
 6581TIP3   OH219699   3.589   0.076   1.731
 6581TIP3    H119700   3.514   0.078   1.791
 6581TIP3    H219701   3.557   0.030   1.654
 6582TIP3   OH219702   1.779   2.095   5.012
 6582TIP3    H119703   1.765   2.022   5.073
 6582TIP3    H219704   1.869   2.124   5.031
 6583TIP3   OH219705   4.549   4.640   3.506
 6583TIP3    H119706   4.547   4.721   3.557
 6583TIP3    H219707   4.628   4.647   3.453
 6584TIP3   OH219708   6.264   5.544   6.770
 6584TIP3    H119709   6.310   5.628   6.771
 6584TIP3    H219710   6.270   5.513   6.860
 6585TIP3   OH219711   1.038   4.410   2.342
 6585TIP3    H119712   1.023   4.359   2.422
 6585TIP3    H219713   0.993   4.360   2.274
 6586TIP3   OH219714   0.067   1.879   1.437
 6586TIP3    H119715   0.040   1.807   1.493
 6586TIP3    H219716   0.162   1.874   1.436
 6587TIP3   OH219717   2.836   6.855   5.247
 6587TIP3    H119718   2.870   6.941   5.222
 6587TIP3    H219719   2.745   6.872   5.272
 6588TIP3   OH219720   4.257   6.825   3.429
 6588TIP3    H119721   4.164   6.806   3.443
 6588TIP3    H219722   4.267   6.827   3.334
 6589TIP3   OH219723   2.335   4.504   5.996
 6589TIP3    H119724   2.312   4.541   5.911
 6589TIP3    H219725   2.373   4.418   5.975
 6590TIP3   OH219726   0.638   4.151   1.831
 6590TIP3    H119727   0.554   4.152   1.877
 6590TIP3    H219728   0.614   4.150   1.738
 6591TIP3   OH219729   7.126   7.245   4.167
 6591TIP3    H119730   7.185   7.201   4.105
 6591TIP3    H219731   7.150   7.338   4.161
 6592TIP3   OH219732   0.228   2.289   1.237
 6592TIP3    H119733   0.150   2.241   1.265
 6592TIP3    H219734   0.271   2.230   1.174
 6593TIP3   OH219735   4.242   6.341   2.486
 6593TIP3    H119736   4.231   6.246   2.494
 6593TIP3    H219737   4.271   6.369   2.573
 6594TIP3   OH219738   3.058   3.787   2.877
 6594TIP3    H119739   3.106   3.851   2.825
 6594TIP3    H219740   3.118   3.714   2.888
 6595TIP3   OH219741   6.907   7.822   2.354
 6595TIP3    H119742   7.002   7.830   2.350
 6595TIP3    H219743   6.876   7.861   2.272
 6596TIP3   OH219744   7.358   6.870   0.521
 6596TIP3    H119745   7.321   6.912   0.443
 6596TIP3    H219746   7.435   6.922   0.542
 6597TIP3   OH219747   4.371   1.411   2.909
 6597TIP3    H119748   4.288   1.365   2.901
 6597TIP3    H219749   4.413   1.403   2.824
 6598TIP3   OH219750   0.623   1.914   6.463
 6598TIP3    H119751   0.605   1.823   6.488
 6598TIP3    H219752   0.669   1.908   6.380
 6599TIP3   OH219753   7.499   4.422   1.932
 6599TIP3    H119754   7.451   4.504   1.939
 6599TIP3    H219755   7.458   4.376   1.858
 6600TIP3   OH219756   2.292   4.108   4.893
 6600TIP3    H119757   2.220   4.062   4.935
 6600TIP3    H219758   2.311   4.057   4.814
 6601TIP3   OH219759   0.580   3.113   6.581
 6601TIP3    H119760   0.659   3.162   6.606
 6601TIP3    H219761   0.597   3.083   6.492
 6602TIP3   OH219762   7.344   0.993   0.390
 6602TIP3    H119763   7.364   0.908   0.352
 6602TIP3    H219764   7.328   1.050   0.314
 6603TIP3   OH219765   3.567   7.396   5.416
 6603TIP3    H119766   3.587   7.336   5.344
 6603TIP3    H219767   3.648   7.401   5.466
 6604TIP3   OH219768   4.702   0.978   2.539
 6604TIP3    H119769   4.677   0.886   2.543
 6604TIP3    H219770   4.679   1.012   2.626
 6605TIP3   OH219771   4.795   7.096   1.789
 6605TIP3    H119772   4.867   7.114   1.728
 6605TIP3    H219773   4.720   7.143   1.753
 6606TIP3   OH219774   8.147   5.591   5.562
 6606TIP3    H119775   8.214   5.579   5.495
 6606TIP3    H219776   8.066   5.603   5.513
 6607TIP3   OH219777   1.364   7.063   1.097
 6607TIP3    H119778   1.374   7.125   1.025
 6607TIP3    H219779   1.453   7.030   1.112
 6608TIP3   OH219780   4.995   3.448   4.100
 6608TIP3    H119781   5.017   3.489   4.016
 6608TIP3    H219782   5.038   3.503   4.166
 6609TIP3   OH219783   0.629   0.471   5.416
 6609TIP3    H119784   0.661   0.388   5.380
 6609TIP3    H219785   0.684   0.485   5.494
 6610TIP3   OH219786   7.190   5.302   0.257
 6610TIP3    H119787   7.123   5.292   0.188
 6610TIP3    H219788   7.193   5.216   0.299
 6611TIP3   OH219789   5.810   2.254   6.566
 6611TIP3    H119790   5.775   2.329   6.615
 6611TIP3    H219791   5.860   2.294   6.495
 6612TIP3   OH219792   1.710   5.343   4.134
 6612TIP3    H119793   1.686   5.334   4.042
 6612TIP3    H219794   1.770   5.270   4.150
 6613TIP3   OH219795   6.511   7.803   3.175
 6613TIP3    H119796   6.466   7.817   3.259
 6613TIP3    H219797   6.578   7.737   3.195
 6614TIP3   OH219798   0.114   7.305   0.613
 6614TIP3    H119799   0.101   7.294   0.519
 6614TIP3    H219800   0.148   7.221   0.643
 6615TIP3   OH219801   5.333   7.697   1.006
 6615TIP3    H119802   5.384   7.725   0.931
 6615TIP3    H219803   5.249   7.668   0.970
 6616TIP3   OH219804   4.016   5.280   4.133
 6616TIP3    H119805   3.976   5.199   4.166
 6616TIP3    H219806   4.080   5.251   4.068
 6617TIP3   OH219807   2.480   6.505   4.378
 6617TIP3    H119808   2.429   6.431   4.411
 6617TIP3    H219809   2.544   6.523   4.446
 6618TIP3   OH219810   3.895   4.350   5.543
 6618TIP3    H119811   3.970   4.363   5.485
 6618TIP3    H219812   3.877   4.256   5.537
 6619TIP3   OH219813   7.605   1.597   1.731
 6619TIP3    H119814   7.588   1.508   1.700
 6619TIP3    H219815   7.632   1.645   1.652
 6620TIP3   OH219816   4.813   4.300   5.936
 6620TIP3    H119817   4.815   4.209   5.905
 6620TIP3    H219818   4.903   4.319   5.961
 6621TIP3   OH219819   6.293   7.404   4.402
 6621TIP3    H119820   6.271   7.381   4.312
 6621TIP3    H219821   6.209   7.429   4.441
 6622TIP3   OH219822   4.779   7.061   6.408
 6622TIP3    H119823   4.821   6.978   6.385
 6622TIP3    H219824   4.702   7.036   6.459
 6623TIP3   OH219825   2.720   4.330   4.568
 6623TIP3    H119826   2.678   4.328   4.482
 6623TIP3    H219827   2.675   4.264   4.619
 6624TIP3   OH219828   7.213   4.660   6.263
 6624TIP3    H119829   7.300   4.699   6.250
 6624TIP3    H219830   7.223   4.571   6.229
 6625TIP3   OH219831   1.571   6.695   4.078
 6625TIP3    H119832   1.639   6.729   4.136
 6625TIP3    H219833   1.578   6.599   4.086
 6626TIP3   OH219834   6.261   4.943   0.467
 6626TIP3    H119835   6.349   4.962   0.501
 6626TIP3    H219836   6.257   4.991   0.384
 6627TIP3   OH219837   0.254   5.342   3.729
 6627TIP3    H119838   0.200   5.339   3.808
 6627TIP3    H219839   0.212   5.281   3.669
 6628TIP3   OH219840   8.257   6.877   0.071
 6628TIP3    H119841   8.219   6.802   0.117
 6628TIP3    H219842   8.347   6.881   0.103
 6629TIP3   OH219843   6.487   7.293   3.227
 6629TIP3    H119844   6.402   7.337   3.237
 6629TIP3    H219845   6.499   7.286   3.132
 6630TIP3   OH219846   1.014   4.559   4.933
 6630TIP3    H119847   0.924   4.590   4.921
 6630TIP3    H219848   1.061   4.590   4.855
 6631TIP3   OH219849   2.471   3.132   0.885
 6631TIP3    H119850   2.378   3.149   0.898
 6631TIP3    H219851   2.513   3.217   0.899
 6632TIP3   OH219852   1.092   6.156   2.183
 6632TIP3    H119853   1.067   6.243   2.153
 6632TIP3    H219854   1.078   6.099   2.107
 6633TIP3   OH219855   8.300   1.728   4.534
 6633TIP3    H119856   8.286   1.795   4.602
 6633TIP3    H219857   8.384   1.750   4.495
 6634TIP3   OH219858   0.411   0.727   3.029
 6634TIP3    H119859   0.488   0.741   2.974
 6634TIP3    H219860   0.446   0.692   3.111
 6635TIP3   OH219861   0.636   1.732   0.918
 6635TIP3    H119862   0.605   1.822   0.912
 6635TIP3    H219863   0.581   1.683   0.856
 6636TIP3   OH219864   6.147   6.011   0.216
 6636TIP3    H119865   6.207   6.035   0.287
 6636TIP3    H219866   6.152   5.916   0.212
 6637TIP3   OH219867   2.902   0.062   0.385
 6637TIP3    H119868   2.870   0.071   0.295
 6637TIP3    H219869   2.852  -0.010   0.422
 6638TIP3   OH219870   3.546   2.107   3.115
 6638TIP3    H119871   3.572   2.054   3.190
 6638TIP3    H219872   3.577   2.058   3.039
 6639TIP3   OH219873   0.231   3.477   4.777
 6639TIP3    H119874   0.271   3.401   4.735
 6639TIP3    H219875   0.301   3.542   4.782
 6640TIP3   OH219876   8.044   0.276   1.633
 6640TIP3    H119877   7.995   0.358   1.626
 6640TIP3    H219878   7.987   0.211   1.592
 6641TIP3   OH219879   1.220   2.372   0.176
 6641TIP3    H119880   1.148   2.424   0.213
 6641TIP3    H219881   1.258   2.428   0.109
 6642TIP3   OH219882   2.990   5.885   2.093
 6642TIP3    H119883   3.074   5.839   2.093
 6642TIP3    H219884   2.935   5.836   2.031
 6643TIP3   OH219885   6.321   5.798   3.754
 6643TIP3    H119886   6.326   5.827   3.845
 6643TIP3    H219887   6.238   5.750   3.749
 6644TIP3   OH219888   5.757   4.228   2.481
 6644TIP3    H119889   5.781   4.189   2.397
 6644TIP3    H219890   5.832   4.211   2.538
 6645TIP3   OH219891   5.925   0.210   0.589
 6645TIP3    H119892   5.831   0.199   0.577
 6645TIP3    H219893   5.962   0.126   0.564
 6646TIP3   OH219894   0.154   6.258   1.547
 6646TIP3    H119895   0.219   6.243   1.616
 6646TIP3    H219896   0.147   6.173   1.503
 6647TIP3   OH219897   1.560   3.477   0.215
 6647TIP3    H119898   1.505   3.439   0.283
 6647TIP3    H219899   1.586   3.403   0.161
 6648TIP3   OH219900   5.177   6.182   5.330
 6648TIP3    H119901   5.203   6.159   5.241
 6648TIP3    H219902   5.196   6.276   5.336
 6649TIP3   OH219903   3.210   1.057   1.627
 6649TIP3    H119904   3.304   1.061   1.610
 6649TIP3    H219905   3.203   1.032   1.719
 6650TIP3   OH219906   3.931   1.442   0.268
 6650TIP3    H119907   3.897   1.453   0.357
 6650TIP3    H219908   3.889   1.363   0.236
 6651TIP3   OH219909   4.710   4.073   1.558
 6651TIP3    H119910   4.768   4.001   1.530
 6651TIP3    H219911   4.747   4.102   1.641
 6652TIP3   OH219912   4.894   7.278   0.370
 6652TIP3    H119913   4.966   7.252   0.312
 6652TIP3    H219914   4.902   7.220   0.446
 6653TIP3   OH219915   5.810   6.998   5.941
 6653TIP3    H119916   5.856   6.915   5.943
 6653TIP3    H219917   5.760   6.996   5.859
 6654TIP3   OH219918   3.137   4.369   2.767
 6654TIP3    H119919   3.152   4.456   2.805
 6654TIP3    H219920   3.215   4.352   2.714
 6655TIP3   OH219921   6.175   0.979   0.952
 6655TIP3    H119922   6.200   0.946   1.038
 6655TIP3    H219923   6.222   0.923   0.890
 6656TIP3   OH219924   3.766   1.170   3.478
 6656TIP3    H119925   3.709   1.197   3.407
 6656TIP3    H219926   3.849   1.215   3.461
 6657TIP3   OH219927   3.291   6.765   5.367
 6657TIP3    H119928   3.297   6.809   5.451
 6657TIP3    H219929   3.272   6.835   5.304
 6658TIP3   OH219930   2.455   1.431   3.616
 6658TIP3    H119931   2.526   1.431   3.552
 6658TIP3    H219932   2.496   1.463   3.697
 6659TIP3   OH219933   7.690   7.303   6.390
 6659TIP3    H119934   7.620   7.259   6.438
 6659TIP3    H219935   7.761   7.313   6.454
 6660TIP3   OH219936   5.097   1.014   4.017
 6660TIP3    H119937   5.174   1.057   4.053
 6660TIP3    H219938   5.133   0.946   3.959
 6661TIP3   OH219939   4.575   7.378   5.808
 6661TIP3    H119940   4.497   7.355   5.756
 6661TIP3    H219941   4.649   7.356   5.751
 6662TIP3   OH219942   1.902   6.307   3.832
 6662TIP3    H119943   1.915   6.341   3.743
 6662TIP3    H219944   1.880   6.215   3.819
 6663TIP3   OH219945   2.525   3.470   6.440
 6663TIP3    H119946   2.605   3.518   6.419
 6663TIP3    H219947   2.471   3.533   6.488
 6664TIP3   OH219948   2.333   1.682   3.806
 6664TIP3    H119949   2.379   1.685   3.890
 6664TIP3    H219950   2.385   1.738   3.749
 6665TIP3   OH219951   1.598   4.057   2.496
 6665TIP3    H119952   1.683   4.082   2.461
 6665TIP3    H219953   1.595   4.096   2.584
 6666TIP3   OH219954   0.479   4.128   3.301
 6666TIP3    H119955   0.426   4.188   3.354
 6666TIP3    H219956   0.429   4.046   3.300
 6667TIP3   OH219957   3.209   1.913   4.870
 6667TIP3    H119958   3.119   1.905   4.838
 6667TIP3    H219959   3.200   1.925   4.964
 6668TIP3   OH219960   7.125   4.892   0.578
 6668TIP3    H119961   7.141   4.984   0.596
 6668TIP3    H219962   7.044   4.890   0.528
 6669TIP3   OH219963   3.275   6.651   1.187
 6669TIP3    H119964   3.331   6.726   1.207
 6669TIP3    H219965   3.332   6.575   1.204
 6670TIP3   OH219966   6.290   3.238   1.040
 6670TIP3    H119967   6.255   3.295   0.972
 6670TIP3    H219968   6.280   3.288   1.121
 6671TIP3   OH219969   2.448   4.456   4.785
 6671TIP3    H119970   2.427   4.403   4.708
 6671TIP3    H219971   2.517   4.515   4.755
 6672TIP3   OH219972   3.431   1.790   1.967
 6672TIP3    H119973   3.495   1.860   1.955
 6672TIP3    H219974   3.465   1.717   1.915
 6673TIP3   OH219975   3.942   4.216   1.799
 6673TIP3    H119976   3.889   4.149   1.756
 6673TIP3    H219977   4.022   4.170   1.825
 6674TIP3   OH219978   5.658   2.151   3.723
 6674TIP3    H119979   5.639   2.058   3.736
 6674TIP3    H219980   5.611   2.196   3.793
 6675TIP3   OH219981   8.033   3.567   4.590
 6675TIP3    H119982   7.999   3.480   4.612
 6675TIP3    H219983   8.121   3.568   4.627
 6676TIP3   OH219984   0.451   4.845   6.073
 6676TIP3    H119985   0.534   4.825   6.117
 6676TIP3    H219986   0.440   4.776   6.009
 6677TIP3   OH219987   0.513   0.170   4.881
 6677TIP3    H119988   0.435   0.115   4.891
 6677TIP3    H219989   0.586   0.108   4.882
 6678TIP3   OH219990   0.682   4.222   0.323
 6678TIP3    H119991   0.757   4.180   0.281
 6678TIP3    H219992   0.679   4.310   0.285
 6679TIP3   OH219993   5.405   2.200   1.150
 6679TIP3    H119994   5.433   2.112   1.176
 6679TIP3    H219995   5.336   2.185   1.085
 6680TIP3   OH219996   0.807   3.563   2.181
 6680TIP3    H119997   0.781   3.631   2.118
 6680TIP3    H219998   0.789   3.602   2.266
 6681TIP3   OH219999   1.364   3.572   6.398
 6681TIP3    H120000   1.438   3.515   6.378
 6681TIP3    H220001   1.308   3.518   6.454
 6682TIP3   OH220002   2.704   5.203   3.959
 6682TIP3    H120003   2.696   5.222   4.052
 6682TIP3    H220004   2.790   5.160   3.950
 6683TIP3   OH220005   7.356   5.857   5.978
 6683TIP3    H120006   7.416   5.807   6.033
 6683TIP3    H220007   7.276   5.805   5.976
 6684TIP3   OH220008   7.852   1.424   3.542
 6684TIP3    H120009   7.807   1.508   3.528
 6684TIP3    H220010   7.815   1.392   3.624
 6685TIP3   OH220011   6.985   4.602   1.655
 6685TIP3    H120012   6.972   4.658   1.578
 6685TIP3    H220013   7.064   4.553   1.636
 6686TIP3   OH220014   7.848   6.625   6.548
 6686TIP3    H120015   7.846   6.712   6.587
 6686TIP3    H220016   7.889   6.639   6.462
 6687TIP3   OH220017   3.242   3.577   3.040
 6687TIP3    H120018   3.282   3.568   3.126
 6687TIP3    H220019   3.148   3.574   3.057
 6688TIP3   OH220020   1.701   3.317   4.927
 6688TIP3    H120021   1.643   3.359   4.863
 6688TIP3    H220022   1.775   3.285   4.876
 6689TIP3   OH220023   0.414   2.221   0.148
 6689TIP3    H120024   0.434   2.244   0.058
 6689TIP3    H220025   0.425   2.126   0.153
 6690TIP3   OH220026   2.112   6.154   3.292
 6690TIP3    H120027   2.049   6.090   3.260
 6690TIP3    H220028   2.076   6.183   3.376
 6691TIP3   OH220029   5.963   4.575   4.128
 6691TIP3    H120030   6.019   4.603   4.200
 6691TIP3    H220031   5.883   4.543   4.171
 6692TIP3   OH220032   7.002   4.357   0.724
 6692TIP3    H120033   6.946   4.283   0.701
 6692TIP3    H220034   7.081   4.318   0.761
 6693TIP3   OH220035   8.287   6.548   0.996
 6693TIP3    H120036   8.277   6.641   1.018
 6693TIP3    H220037   8.356   6.546   0.930
 6694TIP3   OH220038   3.771   0.630   5.116
 6694TIP3    H120039   3.814   0.565   5.061
 6694TIP3    H220040   3.706   0.581   5.166
 6695TIP3   OH220041   5.512   6.372   4.411
 6695TIP3    H120042   5.477   6.425   4.340
 6695TIP3    H220043   5.607   6.383   4.406
 6696TIP3   OH220044   6.556   6.331   3.983
 6696TIP3    H120045   6.500   6.374   4.047
 6696TIP3    H220046   6.631   6.299   4.033
 6697TIP3   OH220047   6.925   5.010   0.364
 6697TIP3    H120048   6.882   5.071   0.303
 6697TIP3    H220049   6.914   4.924   0.324
 6698TIP3   OH220050   5.189   4.973   6.695
 6698TIP3    H120051   5.173   4.892   6.744
 6698TIP3    H220052   5.126   4.970   6.623
 6699TIP3   OH220053   5.726   4.434   5.765
 6699TIP3    H120054   5.650   4.377   5.775
 6699TIP3    H220055   5.694   4.522   5.786
 6700TIP3   OH220056   0.234   6.346   0.891
 6700TIP3    H120057   0.276   6.418   0.844
 6700TIP3    H220058   0.206   6.286   0.822
 6701TIP3   OH220059   5.243   7.286   1.440
 6701TIP3    H120060   5.214   7.317   1.354
 6701TIP3    H220061   5.314   7.225   1.421
 6702TIP3   OH220062   7.854   2.708   6.306
 6702TIP3    H120063   7.859   2.680   6.397
 6702TIP3    H220064   7.868   2.628   6.256
 6703TIP3   OH220065   2.380   5.079   6.098
 6703TIP3    H120066   2.430   5.034   6.166
 6703TIP3    H220067   2.439   5.147   6.066
 6704TIP3   OH220068   1.764   7.126   2.492
 6704TIP3    H120069   1.700   7.071   2.448
 6704TIP3    H220070   1.843   7.071   2.497
 6705TIP3   OH220071   3.085   0.031   0.999
 6705TIP3    H120072   3.106  -0.049   0.949
 6705TIP3    H220073   3.031   0.001   1.071
 6706TIP3   OH220074   1.936   7.415   4.919
 6706TIP3    H120075   1.989   7.413   4.998
 6706TIP3    H220076   1.907   7.324   4.907
 6707TIP3   OH220077   7.636   4.552   0.461
 6707TIP3    H120078   7.675   4.484   0.406
 6707TIP3    H220079   7.711   4.598   0.499
 6708TIP3   OH220080   2.845   7.122   0.086
 6708TIP3    H120081   2.931   7.104   0.126
 6708TIP3    H220082   2.848   7.076   0.002
 6709TIP3   OH220083   4.284   6.384   0.360
 6709TIP3    H120084   4.330   6.461   0.328
 6709TIP3    H220085   4.349   6.337   0.413
 6710TIP3   OH220086   4.865   2.743   6.491
 6710TIP3    H120087   4.839   2.804   6.421
 6710TIP3    H220088   4.960   2.738   6.484
 6711TIP3   OH220089   5.546   0.634   5.219
 6711TIP3    H120090   5.573   0.704   5.159
 6711TIP3    H220091   5.494   0.575   5.164
 6712TIP3   OH220092   7.889   2.001   6.053
 6712TIP3    H120093   7.961   2.045   6.097
 6712TIP3    H220094   7.908   2.009   5.960
 6713TIP3   OH220095   0.984   7.331   2.212
 6713TIP3    H120096   0.937   7.371   2.138
 6713TIP3    H220097   0.923   7.267   2.248
 6714TIP3   OH220098   7.581   3.192   3.223
 6714TIP3    H120099   7.630   3.274   3.230
 6714TIP3    H220100   7.489   3.219   3.215
 6715TIP3   OH220101   3.846   4.972   2.070
 6715TIP3    H120102   3.881   5.033   2.135
 6715TIP3    H220103   3.916   4.964   2.006
 6716TIP3   OH220104   0.179   0.026   3.994
 6716TIP3    H120105   0.103   0.078   4.024
 6716TIP3    H220106   0.202  -0.028   4.070
 6717TIP3   OH220107   2.934   6.131   4.302
 6717TIP3    H120108   2.869   6.065   4.327
 6717TIP3    H220109   2.901   6.212   4.340
 6718TIP3   OH220110   1.702   7.567   5.180
 6718TIP3    H120111   1.756   7.609   5.247
 6718TIP3    H220112   1.664   7.491   5.224
 6719TIP3   OH220113   0.070   1.895   2.860
 6719TIP3    H120114   0.113   1.976   2.835
 6719TIP3    H220115  -0.013   1.896   2.813
 6720TIP3   OH220116   2.821   6.655   4.306
 6720TIP3    H120117   2.911   6.659   4.273
 6720TIP3    H220118   2.772   6.611   4.237
 6721TIP3   OH220119   6.111   7.749   0.006
 6721TIP3    H120120   6.189   7.697  -0.012
 6721TIP3    H220121   6.143   7.838   0.016
 6722TIP3   OH220122   7.275   5.143   2.580
 6722TIP3    H120123   7.340   5.210   2.601
 6722TIP3    H220124   7.190   5.184   2.599
 6723TIP3   OH220125   2.545   7.603   1.986
 6723TIP3    H120126   2.622   7.620   1.932
 6723TIP3    H220127   2.513   7.690   2.008
 6724TIP3   OH220128   6.633   0.739   4.507
 6724TIP3    H120129   6.712   0.686   4.501
 6724TIP3    H220130   6.561   0.676   4.498
 6725TIP3   OH220131   1.757   4.100   1.354
 6725TIP3    H120132   1.822   4.100   1.423
 6725TIP3    H220133   1.808   4.089   1.273
 6726TIP3   OH220134   5.301   6.132   1.273
 6726TIP3    H120135   5.270   6.196   1.337
 6726TIP3    H220136   5.381   6.169   1.238
 6727TIP3   OH220137   0.115   6.957   3.404
 6727TIP3    H120138   0.070   7.035   3.371
 6727TIP3    H220139   0.065   6.884   3.369
 6728TIP3   OH220140   6.803   5.997   4.883
 6728TIP3    H120141   6.870   5.954   4.935
 6728TIP3    H220142   6.780   6.075   4.934
 6729TIP3   OH220143   2.559   1.935   2.191
 6729TIP3    H120144   2.620   1.923   2.264
 6729TIP3    H220145   2.475   1.952   2.233
 6730TIP3   OH220146   6.015   6.391   2.570
 6730TIP3    H120147   6.063   6.472   2.554
 6730TIP3    H220148   5.969   6.374   2.488
 6731TIP3   OH220149   6.476   5.004   1.518
 6731TIP3    H120150   6.402   5.007   1.578
 6731TIP3    H220151   6.515   5.092   1.522
 6732TIP3   OH220152   1.509   0.036   1.750
 6732TIP3    H120153   1.429   0.083   1.773
 6732TIP3    H220154   1.479  -0.043   1.707
 6733TIP3   OH220155   1.748   7.727   3.220
 6733TIP3    H120156   1.672   7.773   3.256
 6733TIP3    H220157   1.718   7.637   3.208
 6734TIP3   OH220158   5.199   4.862   2.355
 6734TIP3    H120159   5.257   4.910   2.414
 6734TIP3    H220160   5.117   4.855   2.402
 6735TIP3   OH220161   6.528   1.578   0.056
 6735TIP3    H120162   6.568   1.591   0.142
 6735TIP3    H220163   6.569   1.498   0.022
 6736TIP3   OH220164   5.370   4.336   2.788
 6736TIP3    H120165   5.313   4.358   2.715
 6736TIP3    H220166   5.382   4.420   2.834
 6737TIP3   OH220167   4.288   2.965   4.898
 6737TIP3    H120168   4.206   2.916   4.897
 6737TIP3    H220169   4.336   2.928   4.972
 6738TIP3   OH220170   3.058   6.144   2.013
 6738TIP3    H120171   3.017   6.207   2.072
 6738TIP3    H220172   3.043   6.059   2.054
 6739TIP3   OH220173   4.089   7.086   2.888
 6739TIP3    H120174   4.024   7.100   2.956
 6739TIP3    H220175   4.041   7.043   2.817
 6740TIP3   OH220176   0.404   3.245   2.528
 6740TIP3    H120177   0.395   3.339   2.547
 6740TIP3    H220178   0.413   3.240   2.433
 6741TIP3   OH220179   7.839   5.325   1.032
 6741TIP3    H120180   7.832   5.396   1.096
 6741TIP3    H220181   7.840   5.246   1.086
 6742TIP3   OH220182   2.099   2.218   4.788
 6742TIP3    H120183   2.160   2.218   4.714
 6742TIP3    H220184   2.035   2.150   4.766
 6743TIP3   OH220185   2.561   5.372   3.177
 6743TIP3    H120186   2.606   5.447   3.137
 6743TIP3    H220187   2.573   5.383   3.271
 6744TIP3   OH220188   7.567   0.513   6.161
 6744TIP3    H120189   7.485   0.475   6.130
 6744TIP3    H220190   7.624   0.437   6.175
 6745TIP3   OH220191   5.143   0.737   4.461
 6745TIP3    H120192   5.079   0.699   4.401
 6745TIP3    H220193   5.109   0.717   4.548
 6746TIP3   OH220194   2.512   6.611   2.301
 6746TIP3    H120195   2.466   6.686   2.266
 6746TIP3    H220196   2.552   6.643   2.382
 6747TIP3   OH220197   8.270   4.568   2.491
 6747TIP3    H120198   8.231   4.481   2.483
 6747TIP3    H220199   8.308   4.586   2.405
 6748TIP3   OH220200   4.179   5.586   6.257
 6748TIP3    H120201   4.247   5.625   6.201
 6748TIP3    H220202   4.212   5.596   6.346
 6749TIP3   OH220203   1.795   6.373   4.293
 6749TIP3    H120204   1.855   6.360   4.219
 6749TIP3    H220205   1.713   6.400   4.252
 6750TIP3   OH220206   4.525   2.833   2.535
 6750TIP3    H120207   4.452   2.886   2.503
 6750TIP3    H220208   4.583   2.824   2.459
 6751TIP3   OH220209   8.001   4.332   5.352
 6751TIP3    H120210   8.032   4.395   5.417
 6751TIP3    H220211   7.964   4.386   5.282
 6752TIP3   OH220212   0.686   4.306   3.391
 6752TIP3    H120213   0.664   4.378   3.331
 6752TIP3    H220214   0.611   4.247   3.387
 6753TIP3   OH220215   0.326   2.466   0.184
 6753TIP3    H120216   0.297   2.477   0.093
 6753TIP3    H220217   0.366   2.379   0.186
 6754TIP3   OH220218   0.548   3.859   6.441
 6754TIP3    H120219   0.504   3.934   6.401
 6754TIP3    H220220   0.631   3.852   6.395
 6755TIP3   OH220221   2.519   4.207   4.995
 6755TIP3    H120222   2.432   4.211   4.956
 6755TIP3    H220223   2.511   4.142   5.065
 6756TIP3   OH220224   3.333   4.369   1.483
 6756TIP3    H120225   3.336   4.413   1.568
 6756TIP3    H220226   3.304   4.438   1.422
 6757TIP3   OH220227   6.439   2.110   3.010
 6757TIP3    H120228   6.523   2.070   2.987
 6757TIP3    H220229   6.454   2.204   2.999
 6758TIP3   OH220230   3.566   1.092   5.832
 6758TIP3    H120231   3.658   1.079   5.856
 6758TIP3    H220232   3.520   1.093   5.916
 6759TIP3   OH220233   4.536   2.973   2.078
 6759TIP3    H120234   4.630   2.982   2.059
 6759TIP3    H220235   4.509   2.896   2.029
 6760TIP3   OH220236   5.195   3.091   0.524
 6760TIP3    H120237   5.219   3.176   0.488
 6760TIP3    H220238   5.204   3.101   0.619
 6761TIP3   OH220239   3.965   3.392   3.975
 6761TIP3    H120240   3.948   3.313   3.925
 6761TIP3    H220241   3.878   3.421   4.004
 6762TIP3   OH220242   1.654   5.017   4.913
 6762TIP3    H120243   1.621   5.075   4.982
 6762TIP3    H220244   1.613   5.049   4.833
 6763TIP3   OH220245   6.645   4.114   3.162
 6763TIP3    H120246   6.559   4.074   3.145
 6763TIP3    H220247   6.650   4.120   3.257
 6764TIP3   OH220248   4.560   1.734   2.300
 6764TIP3    H120249   4.645   1.697   2.278
 6764TIP3    H220250   4.498   1.685   2.246
 6765TIP3   OH220251   8.275   2.857   4.773
 6765TIP3    H120252   8.280   2.884   4.681
 6765TIP3    H220253   8.278   2.939   4.822
 6766TIP3   OH220254   7.471   3.049   3.677
 6766TIP3    H120255   7.418   3.085   3.748
 6766TIP3    H220256   7.553   3.023   3.718
 6767TIP3   OH220257   1.950   3.721   1.227
 6767TIP3    H120258   2.001   3.793   1.190
 6767TIP3    H220259   1.981   3.712   1.316
 6768TIP3   OH220260   4.004   5.451   4.638
 6768TIP3    H120261   3.969   5.512   4.573
 6768TIP3    H220262   4.083   5.416   4.598
 6769TIP3   OH220263   7.293   3.693   5.106
 6769TIP3    H120264   7.282   3.632   5.034
 6769TIP3    H220265   7.378   3.734   5.090
 6770TIP3   OH220266   3.653   6.236   5.889
 6770TIP3    H120267   3.629   6.312   5.835
 6770TIP3    H220268   3.714   6.271   5.954
 6771TIP3   OH220269   5.444   4.479   6.734
 6771TIP3    H120270   5.412   4.563   6.699
 6771TIP3    H220271   5.505   4.447   6.667
 6772TIP3   OH220272   7.977   4.102   2.302
 6772TIP3    H120273   8.036   4.102   2.377
 6772TIP3    H220274   8.011   4.172   2.246
 6773TIP3   OH220275   2.995   6.579   5.489
 6773TIP3    H120276   2.931   6.566   5.419
 6773TIP3    H220277   3.058   6.641   5.452
 6774TIP3   OH220278   0.080   6.972   5.425
 6774TIP3    H120279   0.074   6.888   5.380
 6774TIP3    H220280  -0.006   6.983   5.466
 6775TIP3   OH220281   5.582   7.120   6.035
 6775TIP3    H120282   5.665   7.075   6.024
 6775TIP3    H220283   5.565   7.162   5.950
 6776TIP3   OH220284   4.176   1.943   2.014
 6776TIP3    H120285   4.254   1.936   2.070
 6776TIP3    H220286   4.207   1.918   1.927
 6777TIP3   OH220287   4.138   5.912   4.726
 6777TIP3    H120288   4.225   5.949   4.711
 6777TIP3    H220289   4.079   5.987   4.723
 6778TIP3   OH220290   7.265   1.743   0.364
 6778TIP3    H120291   7.261   1.833   0.331
 6778TIP3    H220292   7.233   1.690   0.292
 6779TIP3   OH220293   5.785   5.686   4.407
 6779TIP3    H120294   5.864   5.667   4.356
 6779TIP3    H220295   5.742   5.757   4.359
 6780TIP3   OH220296   2.208   0.834   3.352
 6780TIP3    H120297   2.153   0.868   3.281
 6780TIP3    H220298   2.156   0.764   3.391
 6781TIP3   OH220299   7.773   6.678   3.529
 6781TIP3    H120300   7.679   6.696   3.539
 6781TIP3    H220301   7.816   6.753   3.571
 6782TIP3   OH220302   3.117   6.521   3.924
 6782TIP3    H120303   3.024   6.501   3.911
 6782TIP3    H220304   3.147   6.454   3.985
 6783TIP3   OH220305   8.070   3.934   6.666
 6783TIP3    H120306   8.139   3.914   6.729
 6783TIP3    H220307   8.087   3.877   6.592
 6784TIP3   OH220308   6.114   2.386   6.624
 6784TIP3    H120309   6.085   2.380   6.715
 6784TIP3    H220310   6.070   2.464   6.590
 6785TIP3   OH220311   4.919   5.482   0.091
 6785TIP3    H120312   4.980   5.535   0.143
 6785TIP3    H220313   4.975   5.423   0.042
 6786TIP3   OH220314   6.539   1.716   6.322
 6786TIP3    H120315   6.567   1.786   6.382
 6786TIP3    H220316   6.466   1.674   6.367
 6787TIP3   OH220317   7.875   7.559   4.510
 6787TIP3    H120318   7.791   7.514   4.499
 6787TIP3    H220319   7.871   7.632   4.448
 6788TIP3   OH220320   5.830   6.469   0.482
 6788TIP3    H120321   5.886   6.504   0.551
 6788TIP3    H220322   5.854   6.519   0.404
 6789TIP3   OH220323   0.586   2.829   0.958
 6789TIP3    H120324   0.491   2.835   0.950
 6789TIP3    H220325   0.615   2.920   0.968
 6790TIP3   OH220326   0.055   5.627   2.915
 6790TIP3    H120327   0.007   5.545   2.910
 6790TIP3    H220328  -0.012   5.695   2.921
 6791TIP3   OH220329   4.091   1.986   0.819
 6791TIP3    H120330   4.135   2.014   0.900
 6791TIP3    H220331   4.001   2.018   0.829
 6792TIP3   OH220332   7.659   3.037   0.604
 6792TIP3    H120333   7.609   2.962   0.571
 6792TIP3    H220334   7.611   3.064   0.683
 6793TIP3   OH220335   2.724   4.962   1.175
 6793TIP3    H120336   2.770   4.892   1.128
 6793TIP3    H220337   2.736   5.039   1.120
 6794TIP3   OH220338   4.918   6.356   6.257
 6794TIP3    H120339   4.859   6.395   6.322
 6794TIP3    H220340   4.864   6.292   6.211
 6795TIP3   OH220341   0.940   2.088   1.503
 6795TIP3    H120342   0.983   2.040   1.574
 6795TIP3    H220343   0.958   2.180   1.523
 6796TIP3   OH220344   4.409   2.421   2.306
 6796TIP3    H120345   4.348   2.483   2.347
 6796TIP3    H220346   4.387   2.423   2.213
 6797TIP3   OH220347   1.619   6.154   5.200
 6797TIP3    H120348   1.632   6.249   5.192
 6797TIP3    H220349   1.524   6.143   5.199
 6798TIP3   OH220350   0.428   7.352   6.435
 6798TIP3    H120351   0.436   7.443   6.462
 6798TIP3    H220352   0.473   7.348   6.350
 6799TIP3   OH220353   0.513   1.473   0.368
 6799TIP3    H120354   0.443   1.473   0.434
 6799TIP3    H220355   0.561   1.392   0.384
 6800TIP3   OH220356   3.005   5.522   4.312
 6800TIP3    H120357   3.094   5.546   4.337
 6800TIP3    H220358   3.013   5.431   4.280
 6801TIP3   OH220359   0.857   3.174   0.378
 6801TIP3    H120360   0.882   3.266   0.389
 6801TIP3    H220361   0.776   3.178   0.327
 6802TIP3   OH220362   1.581   5.307   4.938
 6802TIP3    H120363   1.498   5.345   4.909
 6802TIP3    H220364   1.631   5.296   4.857
 6803TIP3   OH220365   4.626   3.274   3.157
 6803TIP3    H120366   4.685   3.307   3.089
 6803TIP3    H220367   4.543   3.260   3.112
 6804TIP3   OH220368   4.818   2.588   4.172
 6804TIP3    H120369   4.806   2.668   4.223
 6804TIP3    H220370   4.814   2.518   4.236
 6805TIP3   OH220371   0.755   5.936   1.180
 6805TIP3    H120372   0.837   5.887   1.174
 6805TIP3    H220373   0.742   5.972   1.093
 6806TIP3   OH220374   7.983   4.540   6.211
 6806TIP3    H120375   8.007   4.516   6.121
 6806TIP3    H220376   8.038   4.485   6.266
 6807TIP3   OH220377   7.281   1.136   4.956
 6807TIP3    H120378   7.277   1.185   4.874
 6807TIP3    H220379   7.309   1.048   4.931
 6808TIP3   OH220380   2.081   1.831   5.426
 6808TIP3    H120381   2.066   1.771   5.354
 6808TIP3    H220382   2.176   1.844   5.428
 6809TIP3   OH220383   2.249   6.773   2.073
 6809TIP3    H120384   2.326   6.725   2.043
 6809TIP3    H220385   2.176   6.732   2.027
 6810TIP3   OH220386   7.834   4.922   0.822
 6810TIP3    H120387   7.917   4.958   0.792
 6810TIP3    H220388   7.780   4.915   0.743
 6811TIP3   OH220389   2.851   0.034   5.434
 6811TIP3    H120390   2.837   0.057   5.526
 6811TIP3    H220391   2.888  -0.054   5.437
 6812TIP3   OH220392   1.898   0.026   2.956
 6812TIP3    H120393   1.958  -0.048   2.947
 6812TIP3    H220394   1.820  -0.011   2.998
 6813TIP3   OH220395   6.565   1.334   1.005
 6813TIP3    H120396   6.512   1.404   0.967
 6813TIP3    H220397   6.542   1.256   0.956
 6814TIP3   OH220398   3.504   3.224   3.811
 6814TIP3    H120399   3.415   3.197   3.788
 6814TIP3    H220400   3.517   3.192   3.901
 6815TIP3   OH220401   4.555   6.345   2.378
 6815TIP3    H120402   4.609   6.311   2.450
 6815TIP3    H220403   4.574   6.287   2.304
 6816TIP3   OH220404   2.735   7.171   1.372
 6816TIP3    H120405   2.697   7.224   1.302
 6816TIP3    H220406   2.716   7.080   1.347
 6817TIP3   OH220407   2.126   0.063   0.015
 6817TIP3    H120408   2.155   0.043   0.104
 6817TIP3    H220409   2.044   0.110   0.026
 6818TIP3   OH220410   4.127   0.728   4.712
 6818TIP3    H120411   4.181   0.693   4.641
 6818TIP3    H220412   4.049   0.672   4.713
 6819TIP3   OH220413   0.889   2.865   0.678
 6819TIP3    H120414   0.892   2.873   0.774
 6819TIP3    H220415   0.796   2.867   0.657
 6820TIP3   OH220416   4.689   6.550   1.506
 6820TIP3    H120417   4.691   6.548   1.602
 6820TIP3    H220418   4.634   6.476   1.481
 6821TIP3   OH220419   3.121   2.210   0.917
 6821TIP3    H120420   3.084   2.188   1.003
 6821TIP3    H220421   3.067   2.283   0.886
 6822TIP3   OH220422   1.070   3.952   4.167
 6822TIP3    H120423   1.060   3.897   4.245
 6822TIP3    H220424   1.022   3.907   4.098
 6823TIP3   OH220425   2.372   6.475   4.641
 6823TIP3    H120426   2.425   6.427   4.703
 6823TIP3    H220427   2.359   6.561   4.681
 6824TIP3   OH220428   0.399   0.176   1.695
 6824TIP3    H120429   0.304   0.187   1.690
 6824TIP3    H220430   0.433   0.220   1.617
 6825TIP3   OH220431   3.478   6.170   2.712
 6825TIP3    H120432   3.415   6.183   2.783
 6825TIP3    H220433   3.436   6.208   2.635
 6826TIP3   OH220434   4.026   2.637   4.331
 6826TIP3    H120435   3.933   2.657   4.343
 6826TIP3    H220436   4.029   2.542   4.326
 6827TIP3   OH220437   5.179   4.173   1.105
 6827TIP3    H120438   5.119   4.155   1.033
 6827TIP3    H220439   5.213   4.087   1.131
 6828TIP3   OH220440   3.447   0.872   4.195
 6828TIP3    H120441   3.456   0.809   4.266
 6828TIP3    H220442   3.354   0.872   4.174
 6829TIP3   OH220443   5.431   1.828   1.851
 6829TIP3    H120444   5.344   1.788   1.854
 6829TIP3    H220445   5.462   1.814   1.762
 6830TIP3   OH220446   5.461   4.510   4.177
 6830TIP3    H120447   5.555   4.513   4.158
 6830TIP3    H220448   5.456   4.494   4.271
 6831TIP3   OH220449   3.880   4.304   1.495
 6831TIP3    H120450   3.856   4.218   1.531
 6831TIP3    H220451   3.975   4.298   1.482
 6832TIP3   OH220452   2.706   0.391   5.149
 6832TIP3    H120453   2.708   0.298   5.124
 6832TIP3    H220454   2.796   0.420   5.139
 6833TIP3   OH220455   1.421   6.916   5.916
 6833TIP3    H120456   1.337   6.895   5.876
 6833TIP3    H220457   1.431   7.011   5.902
 6834TIP3   OH220458   7.547   4.609   6.024
 6834TIP3    H120459   7.542   4.625   6.118
 6834TIP3    H220460   7.585   4.522   6.016
 6835TIP3   OH220461   0.835   4.816   0.003
 6835TIP3    H120462   0.766   4.795  -0.059
 6835TIP3    H220463   0.823   4.754   0.075
 6836TIP3   OH220464   0.406   4.627   4.446
 6836TIP3    H120465   0.485   4.574   4.457
 6836TIP3    H220466   0.365   4.593   4.366
 6837TIP3   OH220467   4.414   4.108   4.314
 6837TIP3    H120468   4.357   4.184   4.320
 6837TIP3    H220469   4.358   4.033   4.333
 6838TIP3   OH220470   5.794   2.856   4.995
 6838TIP3    H120471   5.885   2.880   4.979
 6838TIP3    H220472   5.784   2.770   4.954
 6839TIP3   OH220473   5.071   7.669   5.993
 6839TIP3    H120474   5.122   7.690   5.914
 6839TIP3    H220475   5.076   7.749   6.046
 6840TIP3   OH220476   2.064   3.073   3.126
 6840TIP3    H120477   1.973   3.085   3.151
 6840TIP3    H220478   2.081   3.142   3.061
 6841TIP3   OH220479   8.133   5.175   3.505
 6841TIP3    H120480   8.197   5.201   3.439
 6841TIP3    H220481   8.142   5.080   3.511
 6842TIP3   OH220482   3.681   5.983   1.068
 6842TIP3    H120483   3.684   5.931   0.987
 6842TIP3    H220484   3.763   5.963   1.113
 6843TIP3   OH220485   2.756   2.297   0.590
 6843TIP3    H120486   2.675   2.259   0.555
 6843TIP3    H220487   2.817   2.294   0.517
 6844TIP3   OH220488   6.110   6.684   4.045
 6844TIP3    H120489   6.195   6.644   4.024
 6844TIP3    H220490   6.101   6.671   4.139
 6845TIP3   OH220491   8.090   4.734   0.736
 6845TIP3    H120492   8.117   4.818   0.775
 6845TIP3    H220493   8.173   4.688   0.720
 6846TIP3   OH220494   2.116   2.952   1.889
 6846TIP3    H120495   2.205   2.964   1.856
 6846TIP3    H220496   2.112   3.007   1.967
 6847TIP3   OH220497   4.536   1.639   0.767
 6847TIP3    H120498   4.613   1.682   0.804
 6847TIP3    H220499   4.552   1.546   0.778
 6848TIP3   OH220500   1.764   7.617   6.435
 6848TIP3    H120501   1.775   7.544   6.497
 6848TIP3    H220502   1.848   7.622   6.390
 6849TIP3   OH220503   7.196   2.673   1.833
 6849TIP3    H120504   7.194   2.739   1.903
 6849TIP3    H220505   7.119   2.693   1.779
 6850TIP3   OH220506   6.304   4.246   3.514
 6850TIP3    H120507   6.303   4.301   3.435
 6850TIP3    H220508   6.331   4.160   3.483
 6851TIP3   OH220509   1.772   7.793   4.133
 6851TIP3    H120510   1.728   7.761   4.054
 6851TIP3    H220511   1.702   7.827   4.188
 6852TIP3   OH220512   7.665   2.769   0.231
 6852TIP3    H120513   7.620   2.818   0.301
 6852TIP3    H220514   7.594   2.727   0.183
 6853TIP3   OH220515   5.046   1.760   5.115
 6853TIP3    H120516   5.026   1.742   5.023
 6853TIP3    H220517   5.121   1.704   5.135
 6854TIP3   OH220518   7.750   6.512   1.892
 6854TIP3    H120519   7.673   6.482   1.843
 6854TIP3    H220520   7.758   6.448   1.963
 6855TIP3   OH220521   4.253   6.208   5.409
 6855TIP3    H120522   4.163   6.197   5.376
 6855TIP3    H220523   4.262   6.140   5.476
 6856TIP3   OH220524   3.102   4.158   2.483
 6856TIP3    H120525   3.179   4.190   2.532
 6856TIP3    H220526   3.120   4.183   2.393
 6857TIP3   OH220527   7.053   3.819   3.253
 6857TIP3    H120528   7.034   3.730   3.281
 6857TIP3    H220529   6.977   3.870   3.283
 6858TIP3   OH220530   0.550   1.961   3.572
 6858TIP3    H120531   0.478   2.023   3.565
 6858TIP3    H220532   0.549   1.913   3.490
 6859TIP3   OH220533   5.281   1.077   0.107
 6859TIP3    H120534   5.250   1.027   0.031
 6859TIP3    H220535   5.222   1.051   0.178
 6860TIP3   OH220536   8.118   5.660   5.040
 6860TIP3    H120537   8.111   5.673   5.134
 6860TIP3    H220538   8.115   5.748   5.002
 6861TIP3   OH220539   4.244   3.564   2.958
 6861TIP3    H120540   4.209   3.652   2.961
 6861TIP3    H220541   4.229   3.529   3.046
 6862TIP3   OH220542   3.793   3.743   4.209
 6862TIP3    H120543   3.860   3.717   4.146
 6862TIP3    H220544   3.800   3.839   4.213
 6863TIP3   OH220545   2.717   3.455   5.979
 6863TIP3    H120546   2.723   3.479   5.887
 6863TIP3    H220547   2.650   3.386   5.982
 6864TIP3   OH220548   1.273   5.479   1.348
 6864TIP3    H120549   1.181   5.493   1.367
 6864TIP3    H220550   1.279   5.386   1.327
 6865TIP3   OH220551   3.529   6.530   4.915
 6865TIP3    H120552   3.460   6.574   4.866
 6865TIP3    H220553   3.486   6.498   4.994
 6866TIP3   OH220554   6.895   2.532   6.258
 6866TIP3    H120555   6.939   2.523   6.342
 6866TIP3    H220556   6.891   2.627   6.244
 6867TIP3   OH220557   8.096   5.976   6.375
 6867TIP3    H120558   8.145   5.996   6.296
 6867TIP3    H220559   8.101   6.056   6.428
 6868TIP3   OH220560   7.781   4.341   3.854
 6868TIP3    H120561   7.840   4.268   3.838
 6868TIP3    H220562   7.777   4.388   3.771
 6869TIP3   OH220563   2.416   4.702   5.257
 6869TIP3    H120564   2.357   4.736   5.189
 6869TIP3    H220565   2.454   4.624   5.219
 6870TIP3   OH220566   5.249   5.875   1.364
 6870TIP3    H120567   5.243   5.887   1.458
 6870TIP3    H220568   5.283   5.959   1.331
 6871TIP3   OH220569   1.576   6.295   4.678
 6871TIP3    H120570   1.508   6.238   4.642
 6871TIP3    H220571   1.562   6.292   4.773
 6872TIP3   OH220572   5.486   7.223   6.270
 6872TIP3    H120573   5.554   7.247   6.333
 6872TIP3    H220574   5.533   7.204   6.189
 6873TIP3   OH220575   5.926   0.929   5.600
 6873TIP3    H120576   5.971   0.979   5.531
 6873TIP3    H220577   5.973   0.952   5.680
 6874TIP3   OH220578   5.672   1.312   0.210
 6874TIP3    H120579   5.707   1.364   0.137
 6874TIP3    H220580   5.707   1.354   0.288
 6875TIP3   OH220581   6.122   5.630   3.344
 6875TIP3    H120582   6.169   5.553   3.377
 6875TIP3    H220583   6.192   5.691   3.318
 6876TIP3   OH220584   5.804   3.325   1.829
 6876TIP3    H120585   5.899   3.336   1.827
 6876TIP3    H220586   5.786   3.286   1.915
 6877TIP3   OH220587   2.147   4.596   1.256
 6877TIP3    H120588   2.234   4.556   1.247
 6877TIP3    H220589   2.140   4.655   1.182
 6878TIP3   OH220590   2.746   7.619   0.708
 6878TIP3    H120591   2.729   7.635   0.615
 6878TIP3    H220592   2.748   7.706   0.747
 6879TIP3   OH220593   7.554   3.744   3.800
 6879TIP3    H120594   7.635   3.720   3.847
 6879TIP3    H220595   7.553   3.839   3.801
 6880TIP3   OH220596   3.896   5.644   1.082
 6880TIP3    H120597   3.929   5.729   1.113
 6880TIP3    H220598   3.974   5.599   1.051
 6881TIP3   OH220599   7.572   5.408   5.655
 6881TIP3    H120600   7.668   5.404   5.651
 6881TIP3    H220601   7.552   5.502   5.651
 6882TIP3   OH220602   2.613   2.848   2.070
 6882TIP3    H120603   2.671   2.842   1.994
 6882TIP3    H220604   2.533   2.804   2.042
 6883TIP3   OH220605   0.751   2.999   3.319
 6883TIP3    H120606   0.844   2.975   3.318
 6883TIP3    H220607   0.704   2.917   3.302
 6884TIP3   OH220608   1.354   1.801   1.560
 6884TIP3    H120609   1.404   1.866   1.609
 6884TIP3    H220610   1.419   1.740   1.526
 6885TIP3   OH220611   5.172   3.089   1.644
 6885TIP3    H120612   5.165   3.178   1.679
 6885TIP3    H220613   5.095   3.078   1.589
 6886TIP3   OH220614   4.222   2.073   5.537
 6886TIP3    H120615   4.280   2.136   5.580
 6886TIP3    H220616   4.136   2.115   5.537
 6887TIP3   OH220617   2.370   3.492   1.131
 6887TIP3    H120618   2.373   3.522   1.222
 6887TIP3    H220619   2.428   3.416   1.129
 6888TIP3   OH220620   7.035   6.374   3.171
 6888TIP3    H120621   7.050   6.468   3.185
 6888TIP3    H220622   7.110   6.345   3.120
 6889TIP3   OH220623   6.737   6.118   0.232
 6889TIP3    H120624   6.784   6.075   0.303
 6889TIP3    H220625   6.792   6.105   0.155
 6890TIP3   OH220626   4.565   0.066   3.753
 6890TIP3    H120627   4.550   0.102   3.665
 6890TIP3    H220628   4.524   0.129   3.812
 6891TIP3   OH220629   6.474   5.554   4.251
 6891TIP3    H120630   6.417   5.531   4.177
 6891TIP3    H220631   6.538   5.484   4.254
 6892TIP3   OH220632   1.691   0.825   2.222
 6892TIP3    H120633   1.687   0.759   2.154
 6892TIP3    H220634   1.610   0.813   2.272
 6893TIP3   OH220635   5.229   0.073   4.983
 6893TIP3    H120636   5.155   0.012   4.980
 6893TIP3    H220637   5.287   0.036   5.049
 6894TIP3   OH220638   0.372   4.221   6.625
 6894TIP3    H120639   0.309   4.153   6.603
 6894TIP3    H220640   0.320   4.300   6.637
 6895TIP3   OH220641   5.929   5.174   1.395
 6895TIP3    H120642   5.999   5.189   1.459
 6895TIP3    H220643   5.970   5.123   1.325
 6896TIP3   OH220644   1.712   5.989   0.269
 6896TIP3    H120645   1.784   6.050   0.286
 6896TIP3    H220646   1.669   5.978   0.353
 6897TIP3   OH220647   2.755   0.476   0.442
 6897TIP3    H120648   2.841   0.434   0.434
 6897TIP3    H220649   2.716   0.468   0.355
 6898TIP3   OH220650   2.331   2.379   3.288
 6898TIP3    H120651   2.379   2.313   3.238
 6898TIP3    H220652   2.255   2.332   3.322
 6899TIP3   OH220653   6.548   7.674   1.074
 6899TIP3    H120654   6.501   7.657   0.992
 6899TIP3    H220655   6.641   7.666   1.050
 6900TIP3   OH220656   7.321   5.788   1.516
 6900TIP3    H120657   7.379   5.761   1.445
 6900TIP3    H220658   7.329   5.883   1.519
 6901TIP3   OH220659   0.083   7.632   1.862
 6901TIP3    H120660   0.153   7.580   1.823
 6901TIP3    H220661   0.106   7.723   1.842
 6902TIP3   OH220662   5.911   4.524   4.544
 6902TIP3    H120663   5.929   4.596   4.605
 6902TIP3    H220664   5.843   4.473   4.588
 6903TIP3   OH220665   3.855   7.172   1.027
 6903TIP3    H120666   3.864   7.151   0.935
 6903TIP3    H220667   3.939   7.149   1.066
 6904TIP3   OH220668   1.292   4.127   1.071
 6904TIP3    H120669   1.242   4.053   1.106
 6904TIP3    H220670   1.225   4.188   1.040
 6905TIP3   OH220671   8.094   2.836   0.929
 6905TIP3    H120672   8.028   2.891   0.888
 6905TIP3    H220673   8.158   2.820   0.860
 6906TIP3   OH220674   7.220   7.722   1.154
 6906TIP3    H120675   7.176   7.776   1.220
 6906TIP3    H220676   7.275   7.663   1.205
 6907TIP3   OH220677   3.903   6.930   2.387
 6907TIP3    H120678   3.921   6.837   2.402
 6907TIP3    H220679   3.983   6.974   2.415
 6908TIP3   OH220680   3.372   6.447   4.203
 6908TIP3    H120681   3.389   6.423   4.294
 6908TIP3    H220682   3.289   6.403   4.183
 6909TIP3   OH220683   5.277   7.240   5.720
 6909TIP3    H120684   5.221   7.172   5.758
 6909TIP3    H220685   5.348   7.250   5.783
 6910TIP3   OH220686   5.396   1.016   3.190
 6910TIP3    H120687   5.424   0.947   3.250
 6910TIP3    H220688   5.358   1.083   3.247
 6911TIP3   OH220689   0.607   5.329   1.659
 6911TIP3    H120690   0.515   5.305   1.662
 6911TIP3    H220691   0.608   5.419   1.627
 6912TIP3   OH220692   6.127   0.439   0.574
 6912TIP3    H120693   6.097   0.352   0.601
 6912TIP3    H220694   6.048   0.493   0.578
 6913TIP3   OH220695   2.279   5.119   1.820
 6913TIP3    H120696   2.197   5.081   1.853
 6913TIP3    H220697   2.330   5.139   1.899
 6914TIP3   OH220698   4.904   6.202   2.920
 6914TIP3    H120699   4.883   6.172   3.009
 6914TIP3    H220700   4.870   6.291   2.916
 6915TIP3   OH220701   6.468   3.646   5.146
 6915TIP3    H120702   6.555   3.610   5.164
 6915TIP3    H220703   6.445   3.612   5.060
 6916TIP3   OH220704   7.639   0.647   0.959
 6916TIP3    H120705   7.598   0.653   0.873
 6916TIP3    H220706   7.581   0.696   1.017
 6917TIP3   OH220707   3.099   0.258   3.051
 6917TIP3    H120708   3.110   0.215   3.136
 6917TIP3    H220709   3.137   0.345   3.064
 6918TIP3   OH220710   1.785   5.418   2.241
 6918TIP3    H120711   1.829   5.467   2.171
 6918TIP3    H220712   1.709   5.471   2.264
 6919TIP3   OH220713   3.547   4.822   0.618
 6919TIP3    H120714   3.578   4.791   0.533
 6919TIP3    H220715   3.618   4.878   0.650
 6920TIP3   OH220716   2.454   7.106   3.139
 6920TIP3    H120717   2.408   7.101   3.223
 6920TIP3    H220718   2.385   7.116   3.074
 6921TIP3   OH220719   3.669   3.005   3.685
 6921TIP3    H120720   3.677   3.037   3.595
 6921TIP3    H220721   3.714   2.921   3.684
 6922TIP3   OH220722   7.877   2.290   0.350
 6922TIP3    H120723   7.887   2.302   0.256
 6922TIP3    H220724   7.856   2.378   0.383
 6923TIP3   OH220725   0.786   7.170   2.362
 6923TIP3    H120726   0.711   7.226   2.342
 6923TIP3    H220727   0.814   7.198   2.449
 6924TIP3   OH220728   7.353   0.078   2.602
 6924TIP3    H120729   7.425   0.140   2.614
 6924TIP3    H220730   7.343   0.036   2.687
 6925TIP3   OH220731   7.253   6.426   1.791
 6925TIP3    H120732   7.268   6.481   1.869
 6925TIP3    H220733   7.207   6.484   1.730
 6926TIP3   OH220734   4.140   7.087   0.591
 6926TIP3    H120735   4.225   7.052   0.620
 6926TIP3    H220736   4.107   7.022   0.530
 6927TIP3   OH220737   4.033   4.776   5.452
 6927TIP3    H120738   4.027   4.870   5.434
 6927TIP3    H220739   4.071   4.770   5.539
 6928TIP3   OH220740   3.228   3.956   5.479
 6928TIP3    H120741   3.165   3.884   5.485
 6928TIP3    H220742   3.295   3.923   5.419
 6929TIP3   OH220743   7.314   4.125   1.094
 6929TIP3    H120744   7.305   4.220   1.099
 6929TIP3    H220745   7.262   4.100   1.018
 6930TIP3   OH220746   2.651   1.166   3.643
 6930TIP3    H120747   2.728   1.202   3.687
 6930TIP3    H220748   2.628   1.231   3.577
 6931TIP3   OH220749   0.903   7.619   0.986
 6931TIP3    H120750   0.817   7.661   0.980
 6931TIP3    H220751   0.900   7.572   1.070
 6932TIP3   OH220752   6.084   0.890   3.925
 6932TIP3    H120753   6.106   0.816   3.868
 6932TIP3    H220754   6.108   0.860   4.012
 6933TIP3   OH220755   0.093   6.554   0.707
 6933TIP3    H120756   0.010   6.569   0.662
 6933TIP3    H220757   0.143   6.498   0.647
 6934TIP3   OH220758   1.540   3.832   0.715
 6934TIP3    H120759   1.461   3.796   0.676
 6934TIP3    H220760   1.513   3.916   0.753
 6935TIP3   OH220761   6.635   6.768   4.250
 6935TIP3    H120762   6.688   6.702   4.205
 6935TIP3    H220763   6.584   6.718   4.313
 6936TIP3   OH220764   5.161   5.004   3.599
 6936TIP3    H120765   5.226   4.994   3.668
 6936TIP3    H220766   5.213   5.009   3.518
 6937TIP3   OH220767   1.709   2.555   0.043
 6937TIP3    H120768   1.615   2.545   0.031
 6937TIP3    H220769   1.746   2.536  -0.044
 6938TIP3   OH220770   1.045   4.609   5.838
 6938TIP3    H120771   1.031   4.701   5.863
 6938TIP3    H220772   1.028   4.560   5.919
 6939TIP3   OH220773   8.211   7.249   4.862
 6939TIP3    H120774   8.184   7.341   4.858
 6939TIP3    H220775   8.294   7.251   4.908
 6940TIP3   OH220776   2.232   0.318   5.161
 6940TIP3    H120777   2.255   0.225   5.163
 6940TIP3    H220778   2.170   0.329   5.234
 6941TIP3   OH220779   4.366   4.470   5.552
 6941TIP3    H120780   4.352   4.481   5.646
 6941TIP3    H220781   4.414   4.388   5.544
 6942TIP3   OH220782   5.382   5.285   4.262
 6942TIP3    H120783   5.467   5.259   4.226
 6942TIP3    H220784   5.380   5.244   4.349
 6943TIP3   OH220785   1.707   0.540   4.494
 6943TIP3    H120786   1.682   0.453   4.526
 6943TIP3    H220787   1.708   0.595   4.573
 6944TIP3   OH220788   4.559   6.374   3.591
 6944TIP3    H120789   4.486   6.429   3.622
 6944TIP3    H220790   4.537   6.356   3.500
 6945TIP3   OH220791   6.844   4.976   0.839
 6945TIP3    H120792   6.802   4.958   0.755
 6945TIP3    H220793   6.803   4.914   0.900
 6946TIP3   OH220794   0.023   7.790   2.693
 6946TIP3    H120795   0.011   7.746   2.608
 6946TIP3    H220796  -0.050   7.850   2.700
 6947TIP3   OH220797   4.322   1.915   4.497
 6947TIP3    H120798   4.393   1.864   4.535
 6947TIP3    H220799   4.326   2.000   4.540
 6948TIP3   OH220800   7.035   4.189   3.566
 6948TIP3    H120801   6.974   4.161   3.634
 6948TIP3    H220802   7.116   4.142   3.586
 6949TIP3   OH220803   4.179   3.789   3.465
 6949TIP3    H120804   4.250   3.724   3.459
 6949TIP3    H220805   4.192   3.830   3.551
 6950TIP3   OH220806   2.082   5.063   0.110
 6950TIP3    H120807   2.086   5.015   0.027
 6950TIP3    H220808   2.142   5.016   0.168
 6951TIP3   OH220809   7.864   7.664   5.384
 6951TIP3    H120810   7.835   7.747   5.346
 6951TIP3    H220811   7.960   7.668   5.381
 6952TIP3   OH220812   3.869   0.998   4.794
 6952TIP3    H120813   3.779   1.004   4.762
 6952TIP3    H220814   3.909   0.929   4.740
 6953TIP3   OH220815   4.785   6.047   3.178
 6953TIP3    H120816   4.820   5.961   3.156
 6953TIP3    H220817   4.784   6.049   3.273
 6954TIP3   OH220818   6.005   5.251   0.509
 6954TIP3    H120819   6.074   5.283   0.567
 6954TIP3    H220820   5.990   5.161   0.536
 6955TIP3   OH220821   4.147   4.633   1.623
 6955TIP3    H120822   4.191   4.555   1.591
 6955TIP3    H220823   4.212   4.703   1.616
 6956TIP3   OH220824   4.829   4.012   5.918
 6956TIP3    H120825   4.826   3.971   5.831
 6956TIP3    H220826   4.808   3.941   5.979
 6957TIP3   OH220827   2.727   4.022   5.934
 6957TIP3    H120828   2.757   4.094   5.989
 6957TIP3    H220829   2.804   3.965   5.927
 6958TIP3   OH220830   2.152   2.865   1.501
 6958TIP3    H120831   2.131   2.815   1.580
 6958TIP3    H220832   2.077   2.922   1.489
 6959TIP3   OH220833   5.895   6.966   2.157
 6959TIP3    H120834   5.909   7.061   2.158
 6959TIP3    H220835   5.817   6.952   2.211
 6960TIP3   OH220836   1.294   5.014   3.404
 6960TIP3    H120837   1.226   4.986   3.342
 6960TIP3    H220838   1.346   5.078   3.355
 6961TIP3   OH220839   4.771   2.882   1.351
 6961TIP3    H120840   4.680   2.856   1.337
 6961TIP3    H220841   4.813   2.804   1.388
 6962TIP3   OH220842   3.721   5.058   4.904
 6962TIP3    H120843   3.631   5.068   4.873
 6962TIP3    H220844   3.756   5.147   4.907
 6963TIP3   OH220845   2.698   0.147   6.696
 6963TIP3    H120846   2.786   0.182   6.713
 6963TIP3    H220847   2.643   0.224   6.684
 6964TIP3   OH220848   8.087   7.385   0.099
 6964TIP3    H120849   8.118   7.326   0.030
 6964TIP3    H220850   8.127   7.352   0.179
 6965TIP3   OH220851   6.171   5.381   2.161
 6965TIP3    H120852   6.187   5.402   2.069
 6965TIP3    H220853   6.181   5.465   2.206
 6966TIP3   OH220854   7.680   2.150   5.296
 6966TIP3    H120855   7.662   2.204   5.219
 6966TIP3    H220856   7.601   2.159   5.349
 6967TIP3   OH220857   1.386   7.546   5.792
 6967TIP3    H120858   1.479   7.528   5.801
 6967TIP3    H220859   1.382   7.630   5.745
 6968TIP3   OH220860   2.288   6.448   3.507
 6968TIP3    H120861   2.374   6.447   3.466
 6968TIP3    H220862   2.269   6.356   3.527
 6969TIP3   OH220863   7.819   0.133   1.099
 6969TIP3    H120864   7.869   0.075   1.158
 6969TIP3    H220865   7.853   0.112   1.012
 6970TIP3   OH220866   0.016   6.977   6.420
 6970TIP3    H120867   0.072   7.025   6.359
 6970TIP3    H220868  -0.066   7.026   6.420
 6971TIP3   OH220869   0.549   5.025   5.055
 6971TIP3    H120870   0.613   5.042   5.124
 6971TIP3    H220871   0.475   5.083   5.075
 6972TIP3   OH220872   1.592   2.174   6.770
 6972TIP3    H120873   1.504   2.161   6.806
 6972TIP3    H220874   1.585   2.145   6.679
 6973TIP3   OH220875   2.008   1.303   6.688
 6973TIP3    H120876   2.001   1.320   6.782
 6973TIP3    H220877   2.097   1.331   6.666
 6974TIP3   OH220878   2.891   3.637   1.900
 6974TIP3    H120879   2.868   3.706   1.962
 6974TIP3    H220880   2.821   3.572   1.910
 6975TIP3   OH220881   0.608   6.413   1.905
 6975TIP3    H120882   0.601   6.506   1.885
 6975TIP3    H220883   0.551   6.400   1.981
 6976TIP3   OH220884   3.995   0.623   1.679
 6976TIP3    H120885   3.994   0.535   1.716
 6976TIP3    H220886   4.016   0.680   1.753
 6977TIP3   OH220887   6.805   3.949   5.922
 6977TIP3    H120888   6.782   3.883   5.856
 6977TIP3    H220889   6.900   3.953   5.920
 6978TIP3   OH220890   6.823   7.823   2.024
 6978TIP3    H120891   6.842   7.729   2.030
 6978TIP3    H220892   6.750   7.836   2.086
 6979TIP3   OH220893   3.216   5.996   1.441
 6979TIP3    H120894   3.284   6.053   1.477
 6979TIP3    H220895   3.194   6.036   1.356
 6980TIP3   OH220896   0.798   7.594   5.749
 6980TIP3    H120897   0.756   7.521   5.795
 6980TIP3    H220898   0.806   7.662   5.816
 6981TIP3   OH220899   5.379   7.423   5.206
 6981TIP3    H120900   5.346   7.376   5.282
 6981TIP3    H220901   5.474   7.412   5.209
 6982TIP3   OH220902   3.946   3.175   2.190
 6982TIP3    H120903   3.914   3.086   2.183
 6982TIP3    H220904   3.872   3.230   2.162
 6983TIP3   OH220905   2.771   6.923   6.441
 6983TIP3    H120906   2.684   6.894   6.468
 6983TIP3    H220907   2.755   6.998   6.383
 6984TIP3   OH220908   2.863   5.313   2.989
 6984TIP3    H120909   2.888   5.280   3.075
 6984TIP3    H220910   2.822   5.398   3.006
 6985TIP3   OH220911   6.574   0.043   3.425
 6985TIP3    H120912   6.581  -0.009   3.345
 6985TIP3    H220913   6.529  -0.014   3.487
 6986TIP3   OH220914   4.664   5.623   3.236
 6986TIP3    H120915   4.604   5.606   3.164
 6986TIP3    H220916   4.721   5.692   3.203
 6987TIP3   OH220917   7.674   2.405   1.649
 6987TIP3    H120918   7.601   2.417   1.589
 6987TIP3    H220919   7.750   2.393   1.593
 6988TIP3   OH220920   7.041   5.256   1.453
 6988TIP3    H120921   6.988   5.318   1.503
 6988TIP3    H220922   7.131   5.279   1.475
 6989TIP3   OH220923   1.358   1.775   4.321
 6989TIP3    H120924   1.361   1.700   4.262
 6989TIP3    H220925   1.329   1.848   4.266
 6990TIP3   OH220926   1.212   1.330   2.251
 6990TIP3    H120927   1.177   1.246   2.281
 6990TIP3    H220928   1.304   1.313   2.234
 6991TIP3   OH220929   4.123   4.112   5.821
 6991TIP3    H120930   4.202   4.094   5.769
 6991TIP3    H220931   4.067   4.036   5.806
 6992TIP3   OH220932   2.767   1.147   5.754
 6992TIP3    H120933   2.770   1.239   5.728
 6992TIP3    H220934   2.835   1.105   5.702
 6993TIP3   OH220935   4.228   0.013   6.123
 6993TIP3    H120936   4.231  -0.080   6.144
 6993TIP3    H220937   4.318   0.044   6.137
 6994TIP3   OH220938   2.616   4.331   3.116
 6994TIP3    H120939   2.640   4.292   3.031
 6994TIP3    H220940   2.662   4.277   3.180
 6995TIP3   OH220941   0.374   2.419   2.517
 6995TIP3    H120942   0.339   2.334   2.487
 6995TIP3    H220943   0.413   2.458   2.439
 6996TIP3   OH220944   7.980   5.721   1.083
 6996TIP3    H120945   8.057   5.680   1.123
 6996TIP3    H220946   7.977   5.684   0.995
 6997TIP3   OH220947   6.682   0.238   1.446
 6997TIP3    H120948   6.726   0.290   1.513
 6997TIP3    H220949   6.614   0.296   1.412
 6998TIP3   OH220950   4.164   4.255   2.869
 6998TIP3    H120951   4.084   4.265   2.921
 6998TIP3    H220952   4.132   4.252   2.778
 6999TIP3   OH220953   1.657   0.545   5.615
 6999TIP3    H120954   1.583   0.552   5.674
 6999TIP3    H220955   1.622   0.568   5.529
 7000TIP3   OH220956   4.673   6.791   0.228
 7000TIP3    H120957   4.640   6.831   0.148
 7000TIP3    H220958   4.640   6.701   0.224
 7001TIP3   OH220959   8.043   2.688   1.172
 7001TIP3    H120960   8.131   2.659   1.198
 7001TIP3    H220961   8.058   2.758   1.109
 7002TIP3   OH220962   2.334   0.177   0.425
 7002TIP3    H120963   2.354   0.228   0.503
 7002TIP3    H220964   2.349   0.237   0.352
 7003TIP3   OH220965   4.755   3.094   3.309
 7003TIP3    H120966   4.848   3.080   3.296
 7003TIP3    H220967   4.730   3.158   3.243
 7004TIP3   OH220968   1.164   3.730   1.919
 7004TIP3    H120969   1.230   3.661   1.931
 7004TIP3    H220970   1.191   3.776   1.840
 7005TIP3   OH220971   6.176   1.483   3.227
 7005TIP3    H120972   6.200   1.440   3.145
 7005TIP3    H220973   6.207   1.573   3.216
 7006TIP3   OH220974   2.085   2.236   6.121
 7006TIP3    H120975   2.127   2.210   6.039
 7006TIP3    H220976   2.030   2.311   6.097
 7007TIP3   OH220977   2.273   2.855   5.561
 7007TIP3    H120978   2.364   2.825   5.570
 7007TIP3    H220979   2.280   2.941   5.521
 7008TIP3   OH220980   4.428   5.045   0.502
 7008TIP3    H120981   4.338   5.066   0.479
 7008TIP3    H220982   4.473   5.037   0.418
 7009TIP3   OH220983   3.470   5.447   1.062
 7009TIP3    H120984   3.483   5.540   1.047
 7009TIP3    H220985   3.406   5.444   1.133
 7010TIP3   OH220986   4.965   3.914   3.869
 7010TIP3    H120987   5.018   3.932   3.792
 7010TIP3    H220988   5.025   3.872   3.930
 7011TIP3   OH220989   2.527   0.579   4.029
 7011TIP3    H120990   2.466   0.525   4.079
 7011TIP3    H220991   2.497   0.571   3.938
 7012TIP3   OH220992   7.238   0.354   4.137
 7012TIP3    H120993   7.218   0.441   4.172
 7012TIP3    H220994   7.332   0.354   4.123
 7013TIP3   OH220995   8.150   5.770   2.144
 7013TIP3    H120996   8.141   5.852   2.097
 7013TIP3    H220997   8.062   5.732   2.144
 7014TIP3   OH220998   1.938   1.505   5.430
 7014TIP3    H120999   1.951   1.573   5.365
 7014TIP3    H221000   2.023   1.462   5.438
 7015TIP3   OH221001   5.247   3.058   0.214
 7015TIP3    H121002   5.261   2.964   0.201
 7015TIP3    H221003   5.198   3.063   0.296
 7016TIP3   OH221004   7.918   3.259   0.209
 7016TIP3    H121005   8.013   3.268   0.216
 7016TIP3    H221006   7.890   3.225   0.294
 7017TIP3   OH221007   2.759   2.519   5.348
 7017TIP3    H121008   2.740   2.610   5.325
 7017TIP3    H221009   2.674   2.482   5.370
 7018TIP3   OH221010   7.282   3.553   1.089
 7018TIP3    H121011   7.343   3.575   1.159
 7018TIP3    H221012   7.198   3.591   1.116
 7019TIP3   OH221013   8.139   0.410   0.987
 7019TIP3    H121014   8.185   0.485   0.948
 7019TIP3    H221015   8.047   0.435   0.985
 7020TIP3   OH221016   0.140   2.468   1.439
 7020TIP3    H121017   0.197   2.398   1.408
 7020TIP3    H221018   0.131   2.451   1.533
 7021TIP3   OH221019   5.687   7.349   5.269
 7021TIP3    H121020   5.751   7.356   5.340
 7021TIP3    H221021   5.684   7.436   5.231
 7022TIP3   OH221022   2.600   6.271   5.658
 7022TIP3    H121023   2.670   6.314   5.707
 7022TIP3    H221024   2.644   6.220   5.591
 7023TIP3   OH221025   3.457   2.252   0.578
 7023TIP3    H121026   3.473   2.327   0.521
 7023TIP3    H221027   3.362   2.254   0.592
 7024TIP3   OH221028   6.956   4.362   2.847
 7024TIP3    H121029   7.011   4.374   2.769
 7024TIP3    H221030   7.019   4.353   2.919
 7025TIP3   OH221031   6.929   6.478   3.879
 7025TIP3    H121032   6.999   6.415   3.864
 7025TIP3    H221033   6.972   6.563   3.873
 7026TIP3   OH221034   1.570   1.679   3.065
 7026TIP3    H121035   1.619   1.618   3.010
 7026TIP3    H221036   1.484   1.639   3.075
 7027TIP3   OH221037   4.505   1.493   3.852
 7027TIP3    H121038   4.475   1.577   3.886
 7027TIP3    H221039   4.527   1.442   3.930
 7028TIP3   OH221040   8.260   4.833   1.977
 7028TIP3    H121041   8.277   4.837   1.883
 7028TIP3    H221042   8.164   4.831   1.984
 7029TIP3   OH221043   5.180   5.369   2.295
 7029TIP3    H121044   5.148   5.409   2.214
 7029TIP3    H221045   5.141   5.282   2.295
 7030TIP3   OH221046   2.281   4.830   0.457
 7030TIP3    H121047   2.269   4.799   0.368
 7030TIP3    H221048   2.331   4.911   0.448
 7031TIP3   OH221049   2.506   0.263   0.205
 7031TIP3    H121050   2.497   0.286   0.112
 7031TIP3    H221051   2.601   0.270   0.221
 7032TIP3   OH221052   5.832   0.177   5.766
 7032TIP3    H121053   5.866   0.264   5.788
 7032TIP3    H221054   5.889   0.116   5.814
 7033TIP3   OH221055   6.391   2.943   2.171
 7033TIP3    H121056   6.370   3.037   2.168
 7033TIP3    H221057   6.455   2.931   2.101
 7034TIP3   OH221058   5.943   5.844   0.691
 7034TIP3    H121059   6.017   5.821   0.634
 7034TIP3    H221060   5.873   5.869   0.630
 7035TIP3   OH221061   3.953   1.830   5.763
 7035TIP3    H121062   3.876   1.835   5.819
 7035TIP3    H221063   3.999   1.913   5.779
 7036TIP3   OH221064   0.495   1.026   5.141
 7036TIP3    H121065   0.555   0.966   5.095
 7036TIP3    H221066   0.417   0.973   5.157
 7037TIP3   OH221067   5.039   5.975   2.799
 7037TIP3    H121068   4.988   6.056   2.799
 7037TIP3    H221069   5.014   5.930   2.718
 7038TIP3   OH221070   4.999   0.784   5.577
 7038TIP3    H121071   5.069   0.836   5.617
 7038TIP3    H221072   5.045   0.716   5.529
 7039TIP3   OH221073   7.426   4.058   2.994
 7039TIP3    H121074   7.473   4.088   3.071
 7039TIP3    H221075   7.420   4.135   2.938
 7040TIP3   OH221076   1.499   0.498   0.046
 7040TIP3    H121077   1.557   0.525   0.117
 7040TIP3    H221078   1.496   0.403   0.052
 7041TIP3   OH221079   4.638   6.511   0.177
 7041TIP3    H121080   4.677   6.437   0.224
 7041TIP3    H221081   4.564   6.472   0.129
 7042TIP3   OH221082   2.983   0.551   2.337
 7042TIP3    H121083   3.006   0.587   2.251
 7042TIP3    H221084   2.912   0.607   2.368
 7043TIP3   OH221085   2.994   7.024   1.736
 7043TIP3    H121086   3.069   6.980   1.775
 7043TIP3    H221087   3.012   7.023   1.642
 7044TIP3   OH221088   6.020   4.890   4.618
 7044TIP3    H121089   5.964   4.868   4.692
 7044TIP3    H221090   6.103   4.916   4.659
 7045TIP3   OH221091   5.577   3.360   1.064
 7045TIP3    H121092   5.574   3.270   1.095
 7045TIP3    H221093   5.610   3.354   0.974
 7046TIP3   OH221094   0.082   1.180   1.981
 7046TIP3    H121095   0.029   1.196   2.059
 7046TIP3    H221096   0.141   1.109   2.005
 7047TIP3   OH221097   2.115   6.300   5.288
 7047TIP3    H121098   2.022   6.296   5.264
 7047TIP3    H221099   2.135   6.213   5.322
 7048TIP3   OH221100   7.951   1.206   6.580
 7048TIP3    H121101   8.011   1.182   6.510
 7048TIP3    H221102   7.867   1.223   6.536
 7049TIP3   OH221103   5.481   1.078   2.617
 7049TIP3    H121104   5.572   1.048   2.619
 7049TIP3    H221105   5.431   1.000   2.594
 7050TIP3   OH221106   3.404   7.304   2.350
 7050TIP3    H121107   3.320   7.336   2.318
 7050TIP3    H221108   3.461   7.305   2.273
 7051TIP3   OH221109   2.627   0.314   3.587
 7051TIP3    H121110   2.655   0.229   3.555
 7051TIP3    H221111   2.696   0.340   3.650
 7052TIP3   OH221112   6.209   3.767   3.542
 7052TIP3    H121113   6.121   3.805   3.534
 7052TIP3    H221114   6.229   3.736   3.453
 7053TIP3   OH221115   6.892   4.555   6.051
 7053TIP3    H121116   6.920   4.646   6.037
 7053TIP3    H221117   6.891   4.517   5.963
 7054TIP3   OH221118   6.962   7.242   1.446
 7054TIP3    H121119   6.945   7.295   1.524
 7054TIP3    H221120   6.997   7.304   1.382
 7055TIP3   OH221121   2.386   4.406   0.408
 7055TIP3    H121122   2.461   4.436   0.355
 7055TIP3    H221123   2.407   4.433   0.497
 7056TIP3   OH221124   2.346   5.851   3.913
 7056TIP3    H121125   2.385   5.778   3.866
 7056TIP3    H221126   2.373   5.929   3.864
 7057TIP3   OH221127   6.711   5.231   3.743
 7057TIP3    H121128   6.681   5.154   3.792
 7057TIP3    H221129   6.706   5.205   3.652
 7058TIP3   OH221130   3.353   3.719   0.014
 7058TIP3    H121131   3.396   3.645   0.057
 7058TIP3    H221132   3.260   3.696   0.015
 7059TIP3   OH221133   3.545   7.213   4.238
 7059TIP3    H121134   3.458   7.245   4.262
 7059TIP3    H221135   3.543   7.120   4.262
 7060TIP3   OH221136   6.371   0.215   1.059
 7060TIP3    H121137   6.425   0.241   1.133
 7060TIP3    H221138   6.344   0.298   1.019
 7061TIP3   OH221139   0.819   1.277   1.805
 7061TIP3    H121140   0.820   1.182   1.799
 7061TIP3    H221141   0.898   1.305   1.760
 7062TIP3   OH221142   6.593   5.056   4.889
 7062TIP3    H121143   6.507   5.088   4.916
 7062TIP3    H221144   6.584   4.961   4.891
 7063TIP3   OH221145   3.984   3.495   4.728
 7063TIP3    H121146   4.052   3.466   4.667
 7063TIP3    H221147   3.902   3.463   4.690
 7064TIP3   OH221148   7.848   1.760   3.219
 7064TIP3    H121149   7.774   1.701   3.207
 7064TIP3    H221150   7.812   1.836   3.265
 7065TIP3   OH221151   6.527   3.774   6.590
 7065TIP3    H121152   6.615   3.742   6.610
 7065TIP3    H221153   6.470   3.729   6.652
 7066TIP3   OH221154   2.775   2.843   4.976
 7066TIP3    H121155   2.713   2.777   4.944
 7066TIP3    H221156   2.844   2.845   4.910
 7067TIP3   OH221157   1.859   2.810   5.389
 7067TIP3    H121158   1.764   2.811   5.394
 7067TIP3    H221159   1.886   2.898   5.415
 7068TIP3   OH221160   0.708   2.485   0.138
 7068TIP3    H121161   0.728   2.403   0.093
 7068TIP3    H221162   0.629   2.518   0.094
 7069TIP3   OH221163   2.106   5.052   2.887
 7069TIP3    H121164   2.185   5.003   2.909
 7069TIP3    H221165   2.035   4.990   2.902
 7070TIP3   OH221166   8.015   2.287   0.862
 7070TIP3    H121167   8.006   2.371   0.817
 7070TIP3    H221168   8.018   2.222   0.792
 7071TIP3   OH221169   2.732   5.474   6.750
 7071TIP3    H121170   2.664   5.423   6.707
 7071TIP3    H221171   2.719   5.564   6.720
 7072TIP3   OH221172   3.464   0.224   5.772
 7072TIP3    H121173   3.390   0.206   5.715
 7072TIP3    H221174   3.510   0.297   5.729
 7073TIP3   OH221175   7.645   1.073   0.286
 7073TIP3    H121176   7.649   1.065   0.381
 7073TIP3    H221177   7.736   1.067   0.257
 7074TIP3   OH221178   1.080   0.798   4.573
 7074TIP3    H121179   1.149   0.822   4.636
 7074TIP3    H221180   1.113   0.830   4.489
 7075TIP3   OH221181   3.173   0.900   4.132
 7075TIP3    H121182   3.132   0.982   4.159
 7075TIP3    H221183   3.145   0.836   4.197
 7076TIP3   OH221184   8.103   1.650   3.273
 7076TIP3    H121185   8.114   1.672   3.365
 7076TIP3    H221186   8.012   1.675   3.253
 7077TIP3   OH221187   0.944   4.053   0.682
 7077TIP3    H121188   0.874   4.044   0.746
 7077TIP3    H221189   0.935   4.143   0.649
 7078TIP3   OH221190   7.008   2.353   3.193
 7078TIP3    H121191   6.967   2.398   3.268
 7078TIP3    H221192   6.934   2.323   3.140
 7079TIP3   OH221193   5.034   6.616   0.984
 7079TIP3    H121194   5.114   6.565   0.997
 7079TIP3    H221195   5.024   6.666   1.065
 7080TIP3   OH221196   7.442   4.821   6.304
 7080TIP3    H121197   7.431   4.805   6.398
 7080TIP3    H221198   7.536   4.815   6.290
 7081TIP3   OH221199   5.228   0.270   0.043
 7081TIP3    H121200   5.289   0.201   0.016
 7081TIP3    H221201   5.141   0.235   0.021
 7082TIP3   OH221202   4.972   1.195   0.183
 7082TIP3    H121203   5.036   1.252   0.140
 7082TIP3    H221204   4.887   1.228   0.155
 7083TIP3   OH221205   5.972   0.020   2.158
 7083TIP3    H121206   5.901   0.085   2.153
 7083TIP3    H221207   6.022   0.032   2.078
 7084TIP3   OH221208   3.736   2.177   0.087
 7084TIP3    H121209   3.685   2.101   0.113
 7084TIP3    H221210   3.717   2.188  -0.006
 7085TIP3   OH221211   4.033   6.704   6.338
 7085TIP3    H121212   3.943   6.736   6.351
 7085TIP3    H221213   4.058   6.668   6.423
 7086TIP3   OH221214   1.242   5.864   1.637
 7086TIP3    H121215   1.178   5.871   1.707
 7086TIP3    H221216   1.245   5.771   1.616
 7087TIP3   OH221217   1.196   3.423   5.636
 7087TIP3    H121218   1.226   3.401   5.725
 7087TIP3    H221219   1.187   3.518   5.636
 7088TIP3   OH221220   5.178   3.787   0.703
 7088TIP3    H121221   5.233   3.744   0.637
 7088TIP3    H221222   5.128   3.852   0.654
 7089TIP3   OH221223   7.464   0.806   6.354
 7089TIP3    H121224   7.502   0.718   6.355
 7089TIP3    H221225   7.449   0.825   6.261
 7090TIP3   OH221226   3.763   0.255   1.658
 7090TIP3    H121227   3.682   0.207   1.675
 7090TIP3    H221228   3.815   0.195   1.604
 7091TIP3   OH221229   2.318   6.566   6.315
 7091TIP3    H121230   2.286   6.654   6.335
 7091TIP3    H221231   2.311   6.518   6.398
 7092TIP3   OH221232   0.035   6.137   4.613
 7092TIP3    H121233   0.101   6.119   4.546
 7092TIP3    H221234   0.012   6.229   4.601
 7093TIP3   OH221235   5.088   5.674   2.351
 7093TIP3    H121236   5.148   5.647   2.421
 7093TIP3    H221237   5.141   5.727   2.292
 7094TIP3   OH221238   0.280   1.507   3.003
 7094TIP3    H121239   0.314   1.479   3.088
 7094TIP3    H221240   0.306   1.437   2.943
 7095TIP3   OH221241   0.759   4.383   3.128
 7095TIP3    H121242   0.734   4.382   3.036
 7095TIP3    H221243   0.827   4.316   3.135
 7096TIP3   OH221244   3.883   1.080   5.048
 7096TIP3    H121245   3.906   1.068   4.956
 7096TIP3    H221246   3.940   1.152   5.077
 7097TIP3   OH221247   1.140   1.177   6.627
 7097TIP3    H121248   1.126   1.264   6.592
 7097TIP3    H221249   1.064   1.126   6.599
 7098TIP3   OH221250   5.375   6.825   2.865
 7098TIP3    H121251   5.343   6.742   2.829
 7098TIP3    H221252   5.331   6.832   2.950
 7099TIP3   OH221253   6.560   5.429   2.682
 7099TIP3    H121254   6.650   5.432   2.649
 7099TIP3    H221255   6.507   5.404   2.607
 7100TIP3   OH221256   5.446   3.442   2.075
 7100TIP3    H121257   5.490   3.434   2.159
 7100TIP3    H221258   5.365   3.392   2.085
 7101TIP3   OH221259   7.209   0.458   2.376
 7101TIP3    H121260   7.211   0.532   2.316
 7101TIP3    H221261   7.137   0.477   2.436
 7102TIP3   OH221262   1.761   4.241   2.131
 7102TIP3    H121263   1.751   4.297   2.053
 7102TIP3    H221264   1.677   4.249   2.177
 7103TIP3   OH221265   6.989   1.508   0.184
 7103TIP3    H121266   7.054   1.442   0.160
 7103TIP3    H221267   6.968   1.489   0.276
 7104TIP3   OH221268   0.942   2.491   5.359
 7104TIP3    H121269   0.904   2.578   5.368
 7104TIP3    H221270   1.030   2.499   5.395
 7105TIP3   OH221271   3.720   5.184   1.557
 7105TIP3    H121272   3.626   5.188   1.541
 7105TIP3    H221273   3.759   5.240   1.490
 7106TIP3   OH221274   3.157   5.066   2.082
 7106TIP3    H121275   3.229   5.119   2.046
 7106TIP3    H221276   3.167   5.073   2.177
 7107TIP3   OH221277   8.090   2.992   1.461
 7107TIP3    H121278   8.163   2.934   1.440
 7107TIP3    H221279   8.056   2.958   1.545
 7108TIP3   OH221280   3.310   1.887   3.431
 7108TIP3    H121281   3.292   1.840   3.349
 7108TIP3    H221282   3.403   1.872   3.447
 7109TIP3   OH221283   1.030   1.676   2.020
 7109TIP3    H121284   0.979   1.596   2.011
 7109TIP3    H221285   0.967   1.746   2.003
 7110TIP3   OH221286   1.636   0.731   1.541
 7110TIP3    H121287   1.668   0.804   1.488
 7110TIP3    H221288   1.611   0.664   1.477
 7111TIP3   OH221289   2.041   0.505   1.410
 7111TIP3    H121290   1.969   0.447   1.386
 7111TIP3    H221291   2.095   0.512   1.331
 7112TIP3   OH221292   1.535   5.919   6.146
 7112TIP3    H121293   1.496   5.918   6.059
 7112TIP3    H221294   1.535   6.011   6.172
 7113TIP3   OH221295   0.756   1.490   3.327
 7113TIP3    H121296   0.733   1.503   3.235
 7113TIP3    H221297   0.679   1.449   3.366
 7114TIP3   OH221298   4.171   0.397   4.729
 7114TIP3    H121299   4.145   0.467   4.788
 7114TIP3    H221300   4.100   0.332   4.736
 7115TIP3   OH221301   6.312   2.752   3.479
 7115TIP3    H121302   6.280   2.692   3.546
 7115TIP3    H221303   6.333   2.696   3.405
 7116TIP3   OH221304   2.301   3.199   5.674
 7116TIP3    H121305   2.352   3.143   5.615
 7116TIP3    H221306   2.246   3.252   5.616
 7117TIP3   OH221307   3.030   2.127   6.173
 7117TIP3    H121308   2.980   2.202   6.205
 7117TIP3    H221309   3.018   2.129   6.078
 7118TIP3   OH221310   6.387   0.315   0.103
 7118TIP3    H121311   6.404   0.410   0.103
 7118TIP3    H221312   6.299   0.307   0.065
 7119TIP3   OH221313   2.292   4.964   4.003
 7119TIP3    H121314   2.287   5.018   4.082
 7119TIP3    H221315   2.320   5.025   3.934
 7120TIP3   OH221316   2.327   3.657   3.170
 7120TIP3    H121317   2.290   3.602   3.239
 7120TIP3    H221318   2.263   3.654   3.099
 7121TIP3   OH221319   8.255   6.988   5.850
 7121TIP3    H121320   8.345   6.957   5.836
 7121TIP3    H221321   8.200   6.926   5.802
 7122TIP3   OH221322   4.942   6.024   2.085
 7122TIP3    H121323   4.886   6.064   2.019
 7122TIP3    H221324   4.990   5.955   2.038
 7123TIP3   OH221325   4.430   1.453   5.331
 7123TIP3    H121326   4.505   1.492   5.287
 7123TIP3    H221327   4.363   1.521   5.330
 7124TIP3   OH221328   5.010   7.666   0.417
 7124TIP3    H121329   5.040   7.742   0.366
 7124TIP3    H221330   5.090   7.632   0.458
 7125TIP3   OH221331   5.161   4.322   0.294
 7125TIP3    H121332   5.186   4.388   0.229
 7125TIP3    H221333   5.124   4.372   0.366
 7126TIP3   OH221334   6.725   3.524   4.901
 7126TIP3    H121335   6.688   3.443   4.868
 7126TIP3    H221336   6.676   3.593   4.857
 7127TIP3   OH221337   5.888   7.800   0.503
 7127TIP3    H121338   5.886   7.892   0.478
 7127TIP3    H221339   5.927   7.799   0.590
 7128TIP3   OH221340   7.074   3.703   2.865
 7128TIP3    H121341   7.163   3.723   2.894
 7128TIP3    H221342   7.085   3.647   2.789
 7129TIP3   OH221343   5.581   5.606   1.830
 7129TIP3    H121344   5.643   5.640   1.895
 7129TIP3    H221345   5.602   5.654   1.750
 7130TIP3   OH221346   0.513   6.503   3.956
 7130TIP3    H121347   0.421   6.529   3.964
 7130TIP3    H221348   0.514   6.410   3.975
 7131TIP3   OH221349   3.159   7.377   2.243
 7131TIP3    H121350   3.127   7.467   2.243
 7131TIP3    H221351   3.086   7.326   2.206
 7132TIP3   OH221352   7.265   1.174   5.266
 7132TIP3    H121353   7.257   1.125   5.184
 7132TIP3    H221354   7.357   1.196   5.272
 7133TIP3   OH221355   1.965   7.664   6.275
 7133TIP3    H121356   2.038   7.718   6.305
 7133TIP3    H221357   1.974   7.663   6.179
 7134TIP3   OH221358   3.533   5.344   4.886
 7134TIP3    H121359   3.528   5.255   4.854
 7134TIP3    H221360   3.626   5.359   4.904
 7135TIP3   OH221361   4.737   2.089   3.207
 7135TIP3    H121362   4.810   2.028   3.194
 7135TIP3    H221363   4.664   2.034   3.235
 7136TIP3   OH221364   5.115   0.530   4.968
 7136TIP3    H121365   5.169   0.606   4.991
 7136TIP3    H221366   5.167   0.454   4.996
 7137TIP3   OH221367   4.181   0.776   6.521
 7137TIP3    H121368   4.243   0.813   6.584
 7137TIP3    H221369   4.237   0.732   6.457
 7138TIP3   OH221370   3.311   4.601   1.285
 7138TIP3    H121371   3.395   4.604   1.331
 7138TIP3    H221372   3.330   4.636   1.198
 7139TIP3   OH221373   2.049   1.919   4.903
 7139TIP3    H121374   2.078   2.010   4.911
 7139TIP3    H221375   2.119   1.868   4.944
 7140TIP3   OH221376   7.054   1.339   5.210
 7140TIP3    H121377   7.043   1.305   5.121
 7140TIP3    H221378   7.100   1.269   5.257
 7141TIP3   OH221379   7.430   2.606   1.721
 7141TIP3    H121380   7.359   2.639   1.776
 7141TIP3    H221381   7.432   2.511   1.739
 7142TIP3   OH221382   4.257   1.787   5.595
 7142TIP3    H121383   4.174   1.834   5.582
 7142TIP3    H221384   4.235   1.713   5.652
 7143TIP3   OH221385   1.833   0.330   5.525
 7143TIP3    H121386   1.762   0.268   5.542
 7143TIP3    H221387   1.802   0.413   5.561
 7144TIP3   OH221388   1.506   5.170   2.797
 7144TIP3    H121389   1.535   5.234   2.732
 7144TIP3    H221390   1.586   5.144   2.843
 7145TIP3   OH221391   5.322   6.012   1.013
 7145TIP3    H121392   5.238   5.971   0.993
 7145TIP3    H221393   5.302   6.105   1.023
 7146TIP3   OH221394   0.024   6.138   0.402
 7146TIP3    H121395   0.105   6.119   0.449
 7146TIP3    H221396   0.017   6.234   0.404
 7147TIP3   OH221397   5.492   1.936   1.189
 7147TIP3    H121398   5.484   1.906   1.280
 7147TIP3    H221399   5.563   1.884   1.152
 7148TIP3   OH221400   2.723   0.657   0.641
 7148TIP3    H121401   2.732   0.617   0.728
 7148TIP3    H221402   2.749   0.587   0.581
 7149TIP3   OH221403   3.270   6.781   5.674
 7149TIP3    H121404   3.248   6.716   5.740
 7149TIP3    H221405   3.346   6.827   5.710
 7150TIP3   OH221406   7.430   1.381   0.280
 7150TIP3    H121407   7.504   1.336   0.321
 7150TIP3    H221408   7.365   1.388   0.350
 7151TIP3   OH221409   5.938   1.473   2.694
 7151TIP3    H121410   5.863   1.416   2.678
 7151TIP3    H221411   6.013   1.414   2.697
 7152TIP3   OH221412   6.193   6.865   5.379
 7152TIP3    H121413   6.200   6.900   5.290
 7152TIP3    H221414   6.132   6.792   5.372
 7153TIP3   OH221415   7.201   6.835   6.249
 7153TIP3    H121416   7.202   6.760   6.308
 7153TIP3    H221417   7.169   6.800   6.166
 7154TIP3   OH221418   6.033   4.359   6.005
 7154TIP3    H121419   6.026   4.389   5.914
 7154TIP3    H221420   5.958   4.301   6.018
 7155TIP3   OH221421   1.953   6.083   1.709
 7155TIP3    H121422   1.954   6.177   1.726
 7155TIP3    H221423   1.973   6.043   1.793
 7156TIP3   OH221424   6.732   4.264   3.960
 7156TIP3    H121425   6.659   4.228   3.910
 7156TIP3    H221426   6.778   4.188   3.995
 7157TIP3   OH221427   7.215   0.554   5.102
 7157TIP3    H121428   7.146   0.502   5.144
 7157TIP3    H221429   7.240   0.618   5.167
 7158TIP3   OH221430   4.011   1.272   4.557
 7158TIP3    H121431   4.080   1.260   4.622
 7158TIP3    H221432   4.039   1.349   4.507
 7159TIP3   OH221433   2.915   5.298   0.786
 7159TIP3    H121434   2.887   5.386   0.810
 7159TIP3    H221435   2.964   5.309   0.705
 7160TIP3   OH221436   5.980   1.622   1.678
 7160TIP3    H121437   6.052   1.563   1.702
 7160TIP3    H221438   5.904   1.564   1.670
 7161TIP3   OH221439   1.038   3.248   5.506
 7161TIP3    H121440   0.959   3.276   5.552
 7161TIP3    H221441   1.109   3.294   5.549
 7162TIP3   OH221442   0.002   2.679   3.832
 7162TIP3    H121443   0.092   2.654   3.850
 7162TIP3    H221444  -0.039   2.685   3.918
 7163TIP3   OH221445   2.737   4.422   3.475
 7163TIP3    H121446   2.713   4.452   3.387
 7163TIP3    H221447   2.654   4.416   3.522
 7164TIP3   OH221448   6.163   1.802   1.228
 7164TIP3    H121449   6.082   1.841   1.195
 7164TIP3    H221450   6.201   1.870   1.284
 7165TIP3   OH221451   7.068   1.019   3.382
 7165TIP3    H121452   6.990   0.963   3.384
 7165TIP3    H221453   7.062   1.071   3.462
 7166TIP3   OH221454   4.382   6.782   6.603
 7166TIP3    H121455   4.364   6.772   6.697
 7166TIP3    H221456   4.302   6.822   6.568
 7167TIP3   OH221457   0.948   5.213   3.231
 7167TIP3    H121458   0.929   5.243   3.320
 7167TIP3    H221459   0.873   5.245   3.180
 7168TIP3   OH221460   7.154   6.979   3.584
 7168TIP3    H121461   7.134   6.954   3.674
 7168TIP3    H221462   7.079   6.948   3.533
 7169TIP3   OH221463   0.239   7.223   3.133
 7169TIP3    H121464   0.307   7.252   3.194
 7169TIP3    H221465   0.288   7.193   3.056
 7170TIP3   OH221466   4.128   4.071   0.490
 7170TIP3    H121467   4.084   4.133   0.549
 7170TIP3    H221468   4.154   4.124   0.415
 7171TIP3   OH221469   3.199   3.303   5.200
 7171TIP3    H121470   3.274   3.272   5.250
 7171TIP3    H221471   3.235   3.370   5.142
 7172TIP3   OH221472   1.332   2.035   6.143
 7172TIP3    H121473   1.266   1.969   6.167
 7172TIP3    H221474   1.413   1.985   6.133
 7173TIP3   OH221475   3.364   7.617   2.079
 7173TIP3    H121476   3.351   7.707   2.050
 7173TIP3    H221477   3.392   7.625   2.170
 7174TIP3   OH221478   0.851   0.837   5.463
 7174TIP3    H121479   0.758   0.843   5.486
 7174TIP3    H221480   0.897   0.868   5.541
 7175TIP3   OH221481   5.726   6.414   6.706
 7175TIP3    H121482   5.650   6.468   6.729
 7175TIP3    H221483   5.691   6.325   6.697
 7176TIP3   OH221484   4.672   7.328   3.146
 7176TIP3    H121485   4.728   7.320   3.070
 7176TIP3    H221486   4.596   7.378   3.115
 7177TIP3   OH221487   5.207   6.372   2.555
 7177TIP3    H121488   5.256   6.436   2.503
 7177TIP3    H221489   5.137   6.423   2.596
 7178TIP3   OH221490   1.931   2.476   1.126
 7178TIP3    H121491   1.851   2.427   1.148
 7178TIP3    H221492   1.902   2.546   1.069
 7179TIP3   OH221493   3.110   6.679   5.877
 7179TIP3    H121494   3.084   6.593   5.843
 7179TIP3    H221495   3.032   6.712   5.921
 7180TIP3   OH221496   2.988   5.693   1.798
 7180TIP3    H121497   3.037   5.630   1.851
 7180TIP3    H221498   3.003   5.665   1.708
 7181TIP3   OH221499   1.684   7.688   0.214
 7181TIP3    H121500   1.628   7.626   0.261
 7181TIP3    H221501   1.623   7.744   0.166
 7182TIP3   OH221502   3.732   1.953   0.680
 7182TIP3    H121503   3.644   1.918   0.689
 7182TIP3    H221504   3.735   1.988   0.591
 7183TIP3   OH221505   4.529   5.434   4.953
 7183TIP3    H121506   4.519   5.477   5.038
 7183TIP3    H221507   4.527   5.340   4.974
 7184TIP3   OH221508   2.596   0.562   4.591
 7184TIP3    H121509   2.616   0.631   4.654
 7184TIP3    H221510   2.653   0.579   4.517
 7185TIP3   OH221511   1.160   3.049   6.688
 7185TIP3    H121512   1.114   3.038   6.605
 7185TIP3    H221513   1.092   3.074   6.750
 7186TIP3   OH221514   5.337   5.523   1.646
 7186TIP3    H121515   5.368   5.545   1.558
 7186TIP3    H221516   5.409   5.473   1.685
 7187TIP3   OH221517   1.256   6.188   1.870
 7187TIP3    H121518   1.323   6.249   1.838
 7187TIP3    H221519   1.190   6.187   1.801
 7188TIP3   OH221520   5.330   7.676   2.500
 7188TIP3    H121521   5.359   7.602   2.447
 7188TIP3    H221522   5.261   7.640   2.555
 7189TIP3   OH221523   6.154   5.931   4.723
 7189TIP3    H121524   6.178   5.908   4.633
 7189TIP3    H221525   6.234   5.915   4.774
 7190TIP3   OH221526   0.416   6.095   6.290
 7190TIP3    H121527   0.482   6.027   6.302
 7190TIP3    H221528   0.419   6.147   6.371
 7191TIP3   OH221529   2.974   1.995   4.195
 7191TIP3    H121530   3.056   2.035   4.167
 7191TIP3    H221531   2.930   1.972   4.113
 7192TIP3   OH221532   3.853   4.459   0.283
 7192TIP3    H121533   3.926   4.439   0.225
 7192TIP3    H221534   3.806   4.376   0.293
 7193TIP3   OH221535   4.322   7.489   3.371
 7193TIP3    H121536   4.274   7.418   3.328
 7193TIP3    H221537   4.350   7.452   3.455
 7194TIP3   OH221538   4.998   5.612   5.825
 7194TIP3    H121539   5.048   5.632   5.746
 7194TIP3    H221540   5.057   5.560   5.878
 7195TIP3   OH221541   7.830   4.066   6.080
 7195TIP3    H121542   7.769   4.071   6.153
 7195TIP3    H221543   7.798   3.993   6.027
 7196TIP3   OH221544   0.263   3.040   4.056
 7196TIP3    H121545   0.302   2.953   4.045
 7196TIP3    H221546   0.251   3.073   3.967
 7197TIP3   OH221547   3.324   3.548   3.748
 7197TIP3    H121548   3.276   3.478   3.793
 7197TIP3    H221549   3.385   3.580   3.814
 7198TIP3   OH221550   5.081   0.931   2.208
 7198TIP3    H121551   5.175   0.935   2.224
 7198TIP3    H221552   5.041   0.957   2.292
 7199TIP3   OH221553   6.035   6.919   1.702
 7199TIP3    H121554   6.115   6.871   1.722
 7199TIP3    H221555   6.055   6.963   1.619
 7200TIP3   OH221556   4.954   1.257   0.833
 7200TIP3    H121557   5.027   1.198   0.814
 7200TIP3    H221558   4.981   1.304   0.912
 7201TIP3   OH221559   2.286   7.166   2.137
 7201TIP3    H121560   2.313   7.189   2.048
 7201TIP3    H221561   2.242   7.244   2.170
 7202TIP3   OH221562   7.563   0.134   5.410
 7202TIP3    H121563   7.603   0.176   5.334
 7202TIP3    H221564   7.579   0.041   5.398
 7203TIP3   OH221565   3.465   7.443   3.461
 7203TIP3    H121566   3.422   7.459   3.545
 7203TIP3    H221567   3.401   7.395   3.409
 7204TIP3   OH221568   7.984   1.029   3.741
 7204TIP3    H121569   8.003   1.122   3.754
 7204TIP3    H221570   8.001   1.014   3.648
 7205TIP3   OH221571   2.838   5.985   2.278
 7205TIP3    H121572   2.887   5.948   2.204
 7205TIP3    H221573   2.809   5.909   2.328
 7206TIP3   OH221574   3.801   7.348   1.514
 7206TIP3    H121575   3.796   7.422   1.453
 7206TIP3    H221576   3.862   7.377   1.581
 7207TIP3   OH221577   7.930   6.888   5.970
 7207TIP3    H121578   7.971   6.803   5.961
 7207TIP3    H221579   7.870   6.878   6.044
 7208TIP3   OH221580   1.550   2.634   1.467
 7208TIP3    H121581   1.457   2.654   1.470
 7208TIP3    H221582   1.566   2.579   1.544
 7209TIP3   OH221583   4.312   5.831   2.073
 7209TIP3    H121584   4.306   5.908   2.129
 7209TIP3    H221585   4.235   5.836   2.017
 7210TIP3   OH221586   2.562   6.570   0.135
 7210TIP3    H121587   2.528   6.490   0.176
 7210TIP3    H221588   2.639   6.592   0.187
 7211TIP3   OH221589   6.220   2.672   0.943
 7211TIP3    H121590   6.145   2.713   0.986
 7211TIP3    H221591   6.188   2.587   0.914
 7212TIP3   OH221592   6.570   4.666   4.105
 7212TIP3    H121593   6.581   4.642   4.197
 7212TIP3    H221594   6.475   4.661   4.090
 7213TIP3   OH221595   6.831   7.570   1.379
 7213TIP3    H121596   6.767   7.499   1.386
 7213TIP3    H221597   6.906   7.529   1.336
 7214TIP3   OH221598   0.976   4.512   3.371
 7214TIP3    H121599   1.026   4.511   3.453
 7214TIP3    H221600   0.889   4.542   3.397
 7215TIP3   OH221601   4.451   1.415   5.946
 7215TIP3    H121602   4.511   1.489   5.950
 7215TIP3    H221603   4.366   1.453   5.967
 7216TIP3   OH221604   3.319   0.225   0.762
 7216TIP3    H121605   3.338   0.133   0.746
 7216TIP3    H221606   3.229   0.237   0.732
 7217TIP3   OH221607   2.366   2.735   1.831
 7217TIP3    H121608   2.351   2.700   1.919
 7217TIP3    H221609   2.369   2.830   1.843
 7218TIP3   OH221610   5.994   5.727   4.853
 7218TIP3    H121611   5.930   5.748   4.922
 7218TIP3    H221612   6.019   5.812   4.817
 7219TIP3   OH221613   4.653   3.531   3.327
 7219TIP3    H121614   4.726   3.505   3.272
 7219TIP3    H221615   4.607   3.449   3.345
 7220TIP3   OH221616   7.963   7.659   1.705
 7220TIP3    H121617   8.004   7.593   1.649
 7220TIP3    H221618   7.870   7.655   1.682
 7221TIP3   OH221619   0.790   1.801   5.053
 7221TIP3    H121620   0.697   1.779   5.056
 7221TIP3    H221621   0.834   1.716   5.048
 7222TIP3   OH221622   1.748   5.167   3.339
 7222TIP3    H121623   1.838   5.170   3.307
 7222TIP3    H221624   1.736   5.077   3.370
 7223TIP3   OH221625   1.417   6.531   6.354
 7223TIP3    H121626   1.482   6.598   6.334
 7223TIP3    H221627   1.467   6.459   6.391
 7224TIP3   OH221628   4.980   7.286   4.161
 7224TIP3    H121629   5.030   7.271   4.241
 7224TIP3    H221630   4.940   7.372   4.173
 7225TIP3   OH221631   0.185   1.271   5.847
 7225TIP3    H121632   0.163   1.342   5.787
 7225TIP3    H221633   0.270   1.296   5.883
 7226TIP3   OH221634   3.378   7.799   4.905
 7226TIP3    H121635   3.445   7.790   4.837
 7226TIP3    H221636   3.427   7.818   4.984
 7227TIP3   OH221637   0.719   4.246   3.673
 7227TIP3    H121638   0.798   4.298   3.687
 7227TIP3    H221639   0.712   4.240   3.578
 7228TIP3   OH221640   4.322   6.550   3.567
 7228TIP3    H121641   4.341   6.639   3.539
 7228TIP3    H221642   4.245   6.525   3.516
 7229TIP3   OH221643   7.006   6.104   6.063
 7229TIP3    H121644   7.047   6.050   5.996
 7229TIP3    H221645   7.055   6.186   6.061
 7230TIP3   OH221646   5.245   4.071   5.674
 7230TIP3    H121647   5.162   4.076   5.627
 7230TIP3    H221648   5.247   4.150   5.728
 7231TIP3   OH221649   1.791   6.569   3.195
 7231TIP3    H121650   1.821   6.587   3.283
 7231TIP3    H221651   1.772   6.475   3.195
 7232TIP3   OH221652   6.933   7.003   0.514
 7232TIP3    H121653   6.909   7.034   0.426
 7232TIP3    H221654   7.006   7.059   0.540
 7233TIP3   OH221655   5.672   1.771   2.854
 7233TIP3    H121656   5.761   1.799   2.878
 7233TIP3    H221657   5.618   1.849   2.867
 7234TIP3   OH221658   6.294   7.555   2.133
 7234TIP3    H121659   6.205   7.589   2.125
 7234TIP3    H221660   6.288   7.489   2.202
 7235TIP3   OH221661   4.919   3.305   4.460
 7235TIP3    H121662   4.912   3.216   4.425
 7235TIP3    H221663   4.962   3.355   4.391
 7236TIP3   OH221664   1.107   1.318   1.165
 7236TIP3    H121665   1.182   1.264   1.189
 7236TIP3    H221666   1.144   1.389   1.112
 7237TIP3   OH221667   6.464   1.081   6.477
 7237TIP3    H121668   6.492   1.123   6.395
 7237TIP3    H221669   6.371   1.061   6.463
 7238TIP3   OH221670   0.712   2.598   3.856
 7238TIP3    H121671   0.698   2.644   3.939
 7238TIP3    H221672   0.801   2.563   3.863
 7239TIP3   OH221673   2.778   2.404   1.614
 7239TIP3    H121674   2.872   2.390   1.624
 7239TIP3    H221675   2.754   2.461   1.687
 7240TIP3   OH221676   3.507   2.909   4.178
 7240TIP3    H121677   3.489   2.975   4.245
 7240TIP3    H221678   3.598   2.882   4.194
 7241TIP3   OH221679   4.088   2.720   5.971
 7241TIP3    H121680   4.154   2.650   5.966
 7241TIP3    H221681   4.029   2.691   6.041
 7242TIP3   OH221682   4.940   4.062   1.265
 7242TIP3    H121683   5.022   4.027   1.299
 7242TIP3    H221684   4.878   3.989   1.273
 7243TIP3   OH221685   5.117   5.747   0.528
 7243TIP3    H121686   5.198   5.794   0.508
 7243TIP3    H221687   5.069   5.805   0.586
 7244TIP3   OH221688   0.312   3.914   3.580
 7244TIP3    H121689   0.250   3.844   3.562
 7244TIP3    H221690   0.257   3.991   3.596
 7245TIP3   OH221691   5.960   5.495   1.961
 7245TIP3    H121692   6.045   5.497   1.917
 7245TIP3    H221693   5.916   5.419   1.925
 7246TIP3   OH221694   3.681   4.291   2.734
 7246TIP3    H121695   3.631   4.338   2.668
 7246TIP3    H221696   3.771   4.322   2.723
 7247TIP3   OH221697   3.782   6.316   2.719
 7247TIP3    H121698   3.843   6.322   2.645
 7247TIP3    H221699   3.762   6.222   2.726
 7248TIP3   OH221700   0.096   3.155   4.653
 7248TIP3    H121701   0.127   3.113   4.733
 7248TIP3    H221702   0.034   3.222   4.683
 7249TIP3   OH221703   5.356   5.520   5.160
 7249TIP3    H121704   5.396   5.566   5.086
 7249TIP3    H221705   5.414   5.538   5.233
 7250TIP3   OH221706   5.517   7.103   2.067
 7250TIP3    H121707   5.506   7.043   2.141
 7250TIP3    H221708   5.467   7.062   1.996
 7251TIP3   OH221709   6.967   0.419   0.707
 7251TIP3    H121710   7.020   0.340   0.723
 7251TIP3    H221711   6.936   0.409   0.617
 7252TIP3   OH221712   2.095   2.249   0.389
 7252TIP3    H121713   2.007   2.240   0.350
 7252TIP3    H221714   2.079   2.271   0.480
 7253TIP3   OH221715   3.348   3.020   3.017
 7253TIP3    H121716   3.295   3.087   2.974
 7253TIP3    H221717   3.392   3.067   3.089
 7254TIP3   OH221718   3.367   7.183   6.085
 7254TIP3    H121719   3.301   7.233   6.132
 7254TIP3    H221720   3.320   7.143   6.012
 7255TIP3   OH221721   3.650   0.999   6.722
 7255TIP3    H121722   3.725   0.940   6.716
 7255TIP3    H221723   3.574   0.943   6.706
 7256TIP3   OH221724   3.594   4.644   6.419
 7256TIP3    H121725   3.652   4.581   6.377
 7256TIP3    H221726   3.639   4.667   6.500
 7257TIP3   OH221727   1.392   1.749   0.070
 7257TIP3    H121728   1.403   1.672   0.125
 7257TIP3    H221729   1.473   1.799   0.081
 7258TIP3   OH221730   3.694   0.200   3.766
 7258TIP3    H121731   3.689   0.289   3.731
 7258TIP3    H221732   3.620   0.194   3.828
 7259TIP3   OH221733   0.396   0.963   1.000
 7259TIP3    H121734   0.449   1.040   0.977
 7259TIP3    H221735   0.355   0.936   0.917
 7260TIP3   OH221736   6.214   2.781   3.180
 7260TIP3    H121737   6.237   2.704   3.128
 7260TIP3    H221738   6.291   2.838   3.173
 7261TIP3   OH221739   1.921   3.838   5.433
 7261TIP3    H121740   1.869   3.885   5.368
 7261TIP3    H221741   2.005   3.822   5.390
 7262TIP3   OH221742   1.116   2.669   0.028
 7262TIP3    H121743   1.046   2.707  -0.025
 7262TIP3    H221744   1.070   2.629   0.102
 7263TIP3   OH221745   8.027   4.958   3.263
 7263TIP3    H121746   7.933   4.964   3.278
 7263TIP3    H221747   8.066   4.963   3.351
 7264TIP3   OH221748   1.143   1.951   2.454
 7264TIP3    H121749   1.050   1.929   2.448
 7264TIP3    H221750   1.186   1.891   2.393
 7265TIP3   OH221751   1.048   6.707   5.952
 7265TIP3    H121752   1.139   6.702   5.926
 7265TIP3    H221753   1.043   6.658   6.034
 7266TIP3   OH221754   4.556   3.896   0.454
 7266TIP3    H121755   4.460   3.889   0.453
 7266TIP3    H221756   4.586   3.805   0.452
 7267TIP3   OH221757   3.546   2.251   2.104
 7267TIP3    H121758   3.520   2.340   2.128
 7267TIP3    H221759   3.622   2.262   2.048
 7268TIP3   OH221760   8.110   3.129   2.652
 7268TIP3    H121761   8.019   3.155   2.637
 7268TIP3    H221762   8.115   3.040   2.616
 7269TIP3   OH221763   7.562   1.497   5.647
 7269TIP3    H121764   7.565   1.592   5.641
 7269TIP3    H221765   7.490   1.480   5.708
 7270TIP3   OH221766   7.579   3.722   5.004
 7270TIP3    H121767   7.604   3.630   4.989
 7270TIP3    H221768   7.567   3.758   4.916
 7271TIP3   OH221769   3.172   1.385   2.941
 7271TIP3    H121770   3.134   1.445   2.877
 7271TIP3    H221771   3.120   1.396   3.020
 7272TIP3   OH221772   1.537   2.319   3.963
 7272TIP3    H121773   1.461   2.263   3.947
 7272TIP3    H221774   1.501   2.407   3.964
 7273TIP3   OH221775   4.978   3.612   4.323
 7273TIP3    H121776   4.894   3.634   4.283
 7273TIP3    H221777   4.958   3.603   4.416
 7274TIP3   OH221778   3.716   6.999   5.484
 7274TIP3    H121779   3.672   6.991   5.569
 7274TIP3    H221780   3.732   6.909   5.456
 7275TIP3   OH221781   1.072   2.360   1.364
 7275TIP3    H121782   1.110   2.345   1.450
 7275TIP3    H221783   1.118   2.436   1.330
 7276TIP3   OH221784   3.354   2.172   4.831
 7276TIP3    H121785   3.410   2.162   4.754
 7276TIP3    H221786   3.321   2.084   4.849
 7277TIP3   OH221787   4.290   1.732   1.032
 7277TIP3    H121788   4.279   1.827   1.031
 7277TIP3    H221789   4.236   1.700   0.960
 7278TIP3   OH221790   6.861   0.828   0.056
 7278TIP3    H121791   6.879   0.920   0.034
 7278TIP3    H221792   6.863   0.783  -0.029
 7279TIP3   OH221793   1.691   1.090   5.771
 7279TIP3    H121794   1.729   1.003   5.753
 7279TIP3    H221795   1.663   1.122   5.686
 7280TIP3   OH221796   1.949   2.990   6.246
 7280TIP3    H121797   1.954   2.910   6.299
 7280TIP3    H221798   2.018   3.046   6.281
 7281TIP3   OH221799   3.671   7.258   3.819
 7281TIP3    H121800   3.606   7.227   3.756
 7281TIP3    H221801   3.715   7.330   3.775
 7282TIP3   OH221802   1.560   2.775   1.904
 7282TIP3    H121803   1.588   2.818   1.823
 7282TIP3    H221804   1.523   2.846   1.957
 7283TIP3   OH221805   5.901   4.912   6.433
 7283TIP3    H121806   5.884   4.825   6.396
 7283TIP3    H221807   5.974   4.945   6.381
 7284TIP3   OH221808   5.271   3.359   6.342
 7284TIP3    H121809   5.212   3.331   6.412
 7284TIP3    H221810   5.334   3.417   6.386
 7285TIP3   OH221811   4.349   3.379   4.806
 7285TIP3    H121812   4.371   3.359   4.715
 7285TIP3    H221813   4.424   3.345   4.856
 7286TIP3   OH221814   4.768   2.930   6.250
 7286TIP3    H121815   4.838   2.995   6.239
 7286TIP3    H221816   4.694   2.981   6.283
 7287TIP3   OH221817   4.586   0.770   1.944
 7287TIP3    H121818   4.495   0.770   1.972
 7287TIP3    H221819   4.633   0.730   2.017
 7288TIP3   OH221820   2.989   5.808   6.769
 7288TIP3    H121821   2.974   5.726   6.815
 7288TIP3    H221822   2.977   5.786   6.677
 7289TIP3   OH221823   6.684   5.811   2.925
 7289TIP3    H121824   6.702   5.856   2.843
 7289TIP3    H221825   6.754   5.840   2.984
 7290TIP3   OH221826   3.349   6.090   2.963
 7290TIP3    H121827   3.413   6.068   3.030
 7290TIP3    H221828   3.278   6.134   3.010
 7291TIP3   OH221829   8.050   5.506   4.369
 7291TIP3    H121830   7.969   5.478   4.327
 7291TIP3    H221831   8.114   5.513   4.298
 7292TIP3   OH221832   7.533   7.330   1.249
 7292TIP3    H121833   7.521   7.243   1.288
 7292TIP3    H221834   7.501   7.321   1.159
 7293TIP3   OH221835   5.355   3.913   0.894
 7293TIP3    H121836   5.372   3.849   0.962
 7293TIP3    H221837   5.282   3.878   0.844
 7294TIP3   OH221838   4.100   5.563   0.323
 7294TIP3    H121839   4.139   5.591   0.241
 7294TIP3    H221840   4.118   5.635   0.384
 7295TIP3   OH221841   2.000   6.646   1.999
 7295TIP3    H121842   1.958   6.716   2.049
 7295TIP3    H221843   1.983   6.567   2.049
 7296TIP3   OH221844   5.668   5.953   3.858
 7296TIP3    H121845   5.730   6.020   3.887
 7296TIP3    H221846   5.686   5.878   3.915
 7297TIP3   OH221847   1.879   3.546   5.021
 7297TIP3    H121848   1.972   3.523   5.017
 7297TIP3    H221849   1.839   3.474   5.069
 7298TIP3   OH221850   0.487   0.503   4.450
 7298TIP3    H121851   0.498   0.460   4.534
 7298TIP3    H221852   0.427   0.576   4.468
 7299TIP3   OH221853   1.493   5.099   3.935
 7299TIP3    H121854   1.399   5.077   3.938
 7299TIP3    H221855   1.500   5.161   3.862
 7300TIP3   OH221856   1.422   3.029   6.628
 7300TIP3    H121857   1.485   3.007   6.697
 7300TIP3    H221858   1.338   3.001   6.663
 7301TIP3   OH221859   1.473   2.939   6.283
 7301TIP3    H121860   1.475   2.942   6.379
 7301TIP3    H221861   1.501   3.026   6.255
 7302TIP3   OH221862   5.384   3.094   5.362
 7302TIP3    H121863   5.362   3.187   5.357
 7302TIP3    H221864   5.417   3.072   5.275
 7303TIP3   OH221865   2.384   4.530   5.482
 7303TIP3    H121866   2.415   4.606   5.434
 7303TIP3    H221867   2.421   4.455   5.435
 7304TIP3   OH221868   7.149   3.538   1.825
 7304TIP3    H121869   7.103   3.621   1.834
 7304TIP3    H221870   7.134   3.492   1.907
 7305TIP3   OH221871   2.229   6.422   1.331
 7305TIP3    H121872   2.227   6.512   1.364
 7305TIP3    H221873   2.255   6.370   1.407
 7306TIP3   OH221874   2.120   6.667   3.039
 7306TIP3    H121875   2.103   6.699   3.127
 7306TIP3    H221876   2.069   6.587   3.031
 7307TIP3   OH221877   6.193   7.066   0.747
 7307TIP3    H121878   6.237   7.013   0.681
 7307TIP3    H221879   6.250   7.142   0.759
 7308TIP3   OH221880   3.554   4.188   5.374
 7308TIP3    H121881   3.545   4.208   5.281
 7308TIP3    H221882   3.610   4.111   5.377
 7309TIP3   OH221883   3.539   2.356   6.257
 7309TIP3    H121884   3.569   2.285   6.200
 7309TIP3    H221885   3.444   2.358   6.247
 7310TIP3   OH221886   2.316   5.595   0.122
 7310TIP3    H121887   2.410   5.582   0.133
 7310TIP3    H221888   2.284   5.509   0.094
 7311TIP3   OH221889   5.385   2.240   1.730
 7311TIP3    H121890   5.426   2.244   1.643
 7311TIP3    H221891   5.398   2.149   1.758
 7312TIP3   OH221892   1.766   0.789   5.752
 7312TIP3    H121893   1.859   0.782   5.773
 7312TIP3    H221894   1.746   0.709   5.703
 7313TIP3   OH221895   0.937   3.021   1.286
 7313TIP3    H121896   0.851   3.025   1.244
 7313TIP3    H221897   0.950   3.108   1.324
 7314TIP3   OH221898   7.572   2.131   0.635
 7314TIP3    H121899   7.631   2.176   0.696
 7314TIP3    H221900   7.629   2.092   0.570
 7315TIP3   OH221901   0.745   2.545   1.563
 7315TIP3    H121902   0.835   2.543   1.594
 7315TIP3    H221903   0.697   2.594   1.629
 7316TIP3   OH221904   0.711   5.753   4.103
 7316TIP3    H121905   0.641   5.745   4.038
 7316TIP3    H221906   0.778   5.691   4.073
 7317TIP3   OH221907   3.357   6.281   6.469
 7317TIP3    H121908   3.359   6.336   6.391
 7317TIP3    H221909   3.342   6.192   6.435
 7318TIP3   OH221910   0.364   0.990   4.303
 7318TIP3    H121911   0.276   0.955   4.291
 7318TIP3    H221912   0.358   1.082   4.277
 7319TIP3   OH221913   7.980   7.777   3.447
 7319TIP3    H121914   7.974   7.771   3.542
 7319TIP3    H221915   7.967   7.688   3.416
 7320TIP3   OH221916   2.544   4.982   0.814
 7320TIP3    H121917   2.486   4.955   0.885
 7320TIP3    H221918   2.490   5.041   0.761
 7321TIP3   OH221919   5.701   2.709   0.911
 7321TIP3    H121920   5.633   2.774   0.929
 7321TIP3    H221921   5.754   2.749   0.843
 7322TIP3   OH221922   4.719   7.325   1.416
 7322TIP3    H121923   4.689   7.412   1.388
 7322TIP3    H221924   4.805   7.315   1.375
 7323TIP3   OH221925   3.765   1.886   3.879
 7323TIP3    H121926   3.763   1.955   3.946
 7323TIP3    H221927   3.680   1.892   3.836
 7324TIP3   OH221928   7.203   5.979   3.063
 7324TIP3    H121929   7.162   5.964   3.148
 7324TIP3    H221930   7.174   5.905   3.010
 7325TIP3   OH221931   6.040   1.590   4.181
 7325TIP3    H121932   6.016   1.531   4.109
 7325TIP3    H221933   5.973   1.659   4.179
 7326TIP3   OH221934   4.652   1.389   1.039
 7326TIP3    H121935   4.726   1.334   1.063
 7326TIP3    H221936   4.639   1.446   1.115
 7327TIP3   OH221937   7.831   5.412   0.346
 7327TIP3    H121938   7.882   5.482   0.305
 7327TIP3    H221939   7.748   5.412   0.299
 7328TIP3   OH221940   7.974   5.182   4.461
 7328TIP3    H121941   8.015   5.096   4.460
 7328TIP3    H221942   7.908   5.176   4.531
 7329TIP3   OH221943   4.469   3.059   0.888
 7329TIP3    H121944   4.438   3.017   0.808
 7329TIP3    H221945   4.391   3.098   0.927
 7330TIP3   OH221946   0.632   1.929   5.381
 7330TIP3    H121947   0.605   1.856   5.324
 7330TIP3    H221948   0.556   1.987   5.383
 7331TIP3   OH221949   3.690   0.616   0.695
 7331TIP3    H121950   3.693   0.682   0.625
 7331TIP3    H221951   3.630   0.550   0.662
 7332TIP3   OH221952   3.715   7.464   1.851
 7332TIP3    H121953   3.730   7.511   1.933
 7332TIP3    H221954   3.764   7.514   1.785
 7333TIP3   OH221955   6.104   3.439   3.154
 7333TIP3    H121956   6.198   3.441   3.139
 7333TIP3    H221957   6.079   3.348   3.140
 7334TIP3   OH221958   1.676   0.895   3.326
 7334TIP3    H121959   1.743   0.851   3.379
 7334TIP3    H221960   1.647   0.829   3.264
 7335TIP3   OH221961   5.436   6.289   5.753
 7335TIP3    H121962   5.435   6.347   5.677
 7335TIP3    H221963   5.360   6.233   5.742
 7336TIP3   OH221964   7.339   7.501   1.321
 7336TIP3    H121965   7.407   7.439   1.296
 7336TIP3    H221966   7.358   7.522   1.413
 7337TIP3   OH221967   0.538   5.271   0.041
 7337TIP3    H121968   0.602   5.200   0.039
 7337TIP3    H221969   0.585   5.346   0.005
 7338TIP3   OH221970   5.268   1.233   6.310
 7338TIP3    H121971   5.322   1.167   6.356
 7338TIP3    H221972   5.320   1.255   6.233
 7339TIP3   OH221973   0.279   3.914   4.905
 7339TIP3    H121974   0.219   3.988   4.916
 7339TIP3    H221975   0.227   3.837   4.929
 7340TIP3   OH221976   0.647   4.482   6.214
 7340TIP3    H121977   0.637   4.400   6.166
 7340TIP3    H221978   0.584   4.476   6.286
 7341TIP3   OH221979   0.803   6.471   0.548
 7341TIP3    H121980   0.884   6.454   0.597
 7341TIP3    H221981   0.824   6.545   0.491
 7342TIP3   OH221982   7.932   6.684   2.865
 7342TIP3    H121983   7.941   6.764   2.814
 7342TIP3    H221984   7.875   6.628   2.812
 7343TIP3   OH221985   1.220   0.661   0.911
 7343TIP3    H121986   1.134   0.634   0.941
 7343TIP3    H221987   1.219   0.757   0.915
 7344TIP3   OH221988   3.333   7.300   1.075
 7344TIP3    H121989   3.402   7.345   1.123
 7344TIP3    H221990   3.321   7.354   0.996
 7345TIP3   OH221991   3.776   1.919   6.770
 7345TIP3    H121992   3.806   1.984   6.833
 7345TIP3    H221993   3.779   1.836   6.818
 7346TIP3   OH221994   2.323   0.839   0.038
 7346TIP3    H121995   2.310   0.751   0.002
 7346TIP3    H221996   2.237   0.881   0.028
 7347TIP3   OH221997   2.536   6.165   1.418
 7347TIP3    H121998   2.621   6.142   1.379
 7347TIP3    H221999   2.472   6.116   1.365
 7348TIP3   OH222000   5.047   7.084   6.476
 7348TIP3    H122001   4.955   7.098   6.453
 7348TIP3    H222002   5.044   7.044   6.563
 7349TIP3   OH222003   3.815   5.411   6.331
 7349TIP3    H122004   3.821   5.507   6.328
 7349TIP3    H222005   3.725   5.393   6.305
 7350TIP3   OH222006   2.636   4.895   3.709
 7350TIP3    H122007   2.727   4.922   3.701
 7350TIP3    H222008   2.637   4.829   3.779
 7351TIP3   OH222009   7.775   4.326   2.291
 7351TIP3    H122010   7.845   4.381   2.326
 7351TIP3    H222011   7.700   4.385   2.284
 7352TIP3   OH222012   0.559   5.240   2.132
 7352TIP3    H122013   0.491   5.292   2.089
 7352TIP3    H222014   0.536   5.244   2.225
 7353TIP3   OH222015   4.797   0.848   4.595
 7353TIP3    H122016   4.712   0.854   4.640
 7353TIP3    H222017   4.855   0.810   4.661
 7354TIP3   OH222018   0.164   5.396   1.808
 7354TIP3    H122019   0.074   5.426   1.801
 7354TIP3    H222020   0.157   5.302   1.826
 7355TIP3   OH222021   5.083   0.302   1.547
 7355TIP3    H122022   5.177   0.282   1.552
 7355TIP3    H222023   5.078   0.397   1.558
 7356TIP3   OH222024   4.083   7.382   4.742
 7356TIP3    H122025   4.068   7.301   4.693
 7356TIP3    H222026   4.004   7.434   4.726
 7357TIP3   OH222027   4.107   1.125   0.250
 7357TIP3    H122028   4.159   1.199   0.279
 7357TIP3    H222029   4.096   1.139   0.156
 7358TIP3   OH222030   1.794   7.379   2.732
 7358TIP3    H122031   1.754   7.324   2.665
 7358TIP3    H222032   1.793   7.467   2.694
 7359TIP3   OH222033   4.890   4.981   1.620
 7359TIP3    H122034   4.871   4.962   1.528
 7359TIP3    H222035   4.985   4.992   1.624
 7360TIP3   OH222036   2.838   1.865   6.745
 7360TIP3    H122037   2.921   1.819   6.733
 7360TIP3    H222038   2.863   1.954   6.770
 7361TIP3   OH222039   4.080   4.249   1.086
 7361TIP3    H122040   4.000   4.268   1.134
 7361TIP3    H222041   4.096   4.327   1.034
 7362TIP3   OH222042   2.500   5.272   5.968
 7362TIP3    H122043   2.438   5.305   5.902
 7362TIP3    H222044   2.575   5.242   5.916
 7363TIP3   OH222045   1.774   6.470   6.637
 7363TIP3    H122046   1.679   6.465   6.630
 7363TIP3    H222047   1.805   6.382   6.619
 7364TIP3   OH222048   3.093   6.915   2.552
 7364TIP3    H122049   3.168   6.961   2.514
 7364TIP3    H222050   3.101   6.929   2.647
 7365TIP3   OH222051   7.620   0.853   2.876
 7365TIP3    H122052   7.661   0.939   2.882
 7365TIP3    H222053   7.649   0.807   2.954
 7366TIP3   OH222054   3.333   3.564   5.843
 7366TIP3    H122055   3.252   3.514   5.846
 7366TIP3    H222056   3.373   3.550   5.929
 7367TIP3   OH222057   3.565   3.376   2.402
 7367TIP3    H122058   3.488   3.399   2.453
 7367TIP3    H222059   3.617   3.321   2.461
 7368TIP3   OH222060   0.726   2.165   5.077
 7368TIP3    H122061   0.744   2.080   5.119
 7368TIP3    H222062   0.805   2.216   5.091
 7369TIP3   OH222063   0.113   5.220   0.474
 7369TIP3    H122064   0.064   5.167   0.411
 7369TIP3    H222065   0.045   5.263   0.526
 7370TIP3   OH222066   6.210   1.998   5.663
 7370TIP3    H122067   6.192   1.923   5.607
 7370TIP3    H222068   6.146   2.064   5.638
 7371TIP3   OH222069   7.640   7.683   3.131
 7371TIP3    H122070   7.595   7.643   3.205
 7371TIP3    H222071   7.651   7.775   3.156
 7372TIP3   OH222072   3.094   4.178   6.443
 7372TIP3    H122073   3.082   4.204   6.534
 7372TIP3    H222074   3.121   4.258   6.398
 7373TIP3   OH222075   7.429   6.730   3.842
 7373TIP3    H122076   7.472   6.667   3.901
 7373TIP3    H222077   7.339   6.734   3.873
 7374TIP3   OH222078   5.978   2.820   2.003
 7374TIP3    H122079   5.956   2.842   2.093
 7374TIP3    H222080   5.894   2.798   1.963
 7375TIP3   OH222081   6.873   2.805   6.268
 7375TIP3    H122082   6.956   2.847   6.294
 7375TIP3    H222083   6.810   2.835   6.334
 7376TIP3   OH222084   0.598   0.599   4.145
 7376TIP3    H122085   0.617   0.679   4.192
 7376TIP3    H222086   0.515   0.617   4.100
 7377TIP3   OH222087   2.068   2.602   2.174
 7377TIP3    H122088   2.140   2.630   2.231
 7377TIP3    H222089   1.993   2.651   2.206
 7378TIP3   OH222090   1.145   4.921   4.961
 7378TIP3    H122091   1.195   4.975   5.023
 7378TIP3    H222092   1.056   4.954   4.967
 7379TIP3   OH222093   0.930   4.853   5.312
 7379TIP3    H122094   0.937   4.890   5.224
 7379TIP3    H222095   0.983   4.774   5.309
 7380TIP3   OH222096   6.354   2.840   5.159
 7380TIP3    H122097   6.330   2.781   5.087
 7380TIP3    H222098   6.349   2.785   5.237
 7381TIP3   OH222099   3.600   4.642   1.293
 7381TIP3    H122100   3.648   4.661   1.212
 7381TIP3    H222101   3.610   4.722   1.345
 7382TIP3   OH222102   4.457   0.223   3.940
 7382TIP3    H122103   4.397   0.295   3.960
 7382TIP3    H222104   4.541   0.251   3.977
 7383TIP3   OH222105   5.442   7.634   4.666
 7383TIP3    H122106   5.373   7.688   4.627
 7383TIP3    H222107   5.403   7.546   4.672
 7384TIP3   OH222108   7.596   4.640   6.753
 7384TIP3    H122109   7.656   4.709   6.781
 7384TIP3    H222110   7.572   4.663   6.664
 7385TIP3   OH222111   6.772   0.420   5.485
 7385TIP3    H122112   6.696   0.362   5.499
 7385TIP3    H222113   6.734   0.506   5.472
 7386TIP3   OH222114   3.666   3.141   3.431
 7386TIP3    H122115   3.752   3.135   3.388
 7386TIP3    H222116   3.659   3.232   3.460
 7387TIP3   OH222117   7.258   5.292   1.940
 7387TIP3    H122118   7.272   5.376   1.985
 7387TIP3    H222119   7.292   5.227   2.001
 7388TIP3   OH222120   1.331   0.419   4.206
 7388TIP3    H122121   1.261   0.452   4.149
 7388TIP3    H222122   1.298   0.335   4.238
 7389TIP3   OH222123   3.675   0.250   1.261
 7389TIP3    H122124   3.666   0.291   1.174
 7389TIP3    H222125   3.679   0.156   1.243
 7390TIP3   OH222126   1.824   4.119   0.865
 7390TIP3    H122127   1.898   4.154   0.815
 7390TIP3    H222128   1.747   4.139   0.811
 7391TIP3   OH222129   4.949   1.418   5.383
 7391TIP3    H122130   5.043   1.429   5.374
 7391TIP3    H222131   4.936   1.391   5.474
 7392TIP3   OH222132   7.665   0.322   1.321
 7392TIP3    H122133   7.759   0.315   1.306
 7392TIP3    H222134   7.632   0.371   1.246
 7393TIP3   OH222135   5.723   6.770   5.093
 7393TIP3    H122136   5.701   6.685   5.132
 7393TIP3    H222137   5.723   6.830   5.167
 7394TIP3   OH222138   5.067   0.573   1.565
 7394TIP3    H122139   5.063   0.576   1.469
 7394TIP3    H222140   5.034   0.658   1.592
 7395TIP3   OH222141   2.573   3.498   2.404
 7395TIP3    H122142   2.539   3.451   2.479
 7395TIP3    H222143   2.597   3.585   2.438
 7396TIP3   OH222144   5.122   1.742   2.348
 7396TIP3    H122145   5.192   1.779   2.292
 7396TIP3    H222146   5.057   1.812   2.353
 7397TIP3   OH222147   7.421   7.073   6.215
 7397TIP3    H122148   7.366   7.106   6.287
 7397TIP3    H222149   7.396   7.126   6.140
 7398TIP3   OH222150   0.416   2.211   6.014
 7398TIP3    H122151   0.394   2.125   6.050
 7398TIP3    H222152   0.433   2.195   5.921
 7399TIP3   OH222153   1.036   2.085   4.408
 7399TIP3    H122154   1.096   2.158   4.398
 7399TIP3    H222155   1.012   2.061   4.318
 7400TIP3   OH222156   0.220   0.772   2.757
 7400TIP3    H122157   0.237   0.858   2.797
 7400TIP3    H222158   0.285   0.765   2.688
 7401TIP3   OH222159   5.127   2.347   5.927
 7401TIP3    H122160   5.095   2.415   5.869
 7401TIP3    H222161   5.167   2.394   6.000
 7402TIP3   OH222162   4.140   4.579   5.940
 7402TIP3    H122163   4.234   4.573   5.923
 7402TIP3    H222164   4.101   4.513   5.883
 7403TIP3   OH222165   6.416   7.097   4.108
 7403TIP3    H122166   6.327   7.074   4.135
 7403TIP3    H222167   6.411   7.189   4.082
 7404TIP3   OH222168   2.432   0.548   0.904
 7404TIP3    H122169   2.412   0.454   0.900
 7404TIP3    H222170   2.391   0.584   0.825
 7405TIP3   OH222171   1.387   4.931   5.849
 7405TIP3    H122172   1.472   4.895   5.825
 7405TIP3    H222173   1.324   4.882   5.797
 7406TIP3   OH222174   7.152   2.864   6.320
 7406TIP3    H122175   7.199   2.943   6.347
 7406TIP3    H222176   7.221   2.802   6.296
 7407TIP3   OH222177   3.036   2.908   2.496
 7407TIP3    H122178   2.987   2.982   2.533
 7407TIP3    H222179   3.011   2.833   2.551
 7408TIP3   OH222180   7.270   2.977   1.699
 7408TIP3    H122181   7.240   2.926   1.623
 7408TIP3    H222182   7.198   3.037   1.718
 7409TIP3   OH222183   3.277   0.490   2.038
 7409TIP3    H122184   3.348   0.536   1.994
 7409TIP3    H222185   3.222   0.559   2.074
 7410TIP3   OH222186   7.583   7.777   6.103
 7410TIP3    H122187   7.511   7.833   6.076
 7410TIP3    H222188   7.643   7.835   6.150
 7411TIP3   OH222189   0.816   1.601   3.996
 7411TIP3    H122190   0.871   1.558   4.061
 7411TIP3    H222191   0.727   1.588   4.028
 7412TIP3   OH222192   1.952   2.500   5.107
 7412TIP3    H122193   2.039   2.463   5.091
 7412TIP3    H222194   1.941   2.567   5.039
 7413TIP3   OH222195   1.166   5.628   0.235
 7413TIP3    H122196   1.145   5.550   0.184
 7413TIP3    H222197   1.156   5.600   0.326
 7414TIP3   OH222198   8.162   3.533   1.294
 7414TIP3    H122199   8.193   3.598   1.231
 7414TIP3    H222200   8.241   3.504   1.340
 7415TIP3   OH222201   0.194   5.202   3.112
 7415TIP3    H122202   0.270   5.185   3.167
 7415TIP3    H222203   0.226   5.259   3.043
 7416TIP3   OH222204   3.499   3.263   1.663
 7416TIP3    H122205   3.573   3.272   1.603
 7416TIP3    H222206   3.422   3.268   1.606
 7417TIP3   OH222207   6.652   3.490   2.964
 7417TIP3    H122208   6.662   3.395   2.953
 7417TIP3    H222209   6.689   3.507   3.051
 7418TIP3   OH222210   1.091   1.844   1.703
 7418TIP3    H122211   1.143   1.797   1.638
 7418TIP3    H222212   1.153   1.863   1.773
 7419TIP3   OH222213   0.549   1.651   5.557
 7419TIP3    H122214   0.511   1.732   5.592
 7419TIP3    H222215   0.624   1.680   5.505
 7420TIP3   OH222216   7.835   6.340   5.369
 7420TIP3    H122217   7.770   6.388   5.419
 7420TIP3    H222218   7.919   6.375   5.398
 7421TIP3   OH222219   0.563   2.005   0.894
 7421TIP3    H122220   0.471   2.009   0.918
 7421TIP3    H222221   0.570   2.059   0.815
 7422TIP3   OH222222   0.320   0.408   3.319
 7422TIP3    H122223   0.233   0.417   3.279
 7422TIP3    H222224   0.316   0.463   3.397
 7423TIP3   OH222225   3.947   3.055   4.793
 7423TIP3    H122226   3.976   3.028   4.706
 7423TIP3    H222227   3.964   2.979   4.849
 7424TIP3   OH222228   1.185   0.949   0.932
 7424TIP3    H122229   1.198   1.013   1.002
 7424TIP3    H222230   1.203   0.998   0.851
 7425TIP3   OH222231   6.309   6.613   2.049
 7425TIP3    H122232   6.224   6.631   2.090
 7425TIP3    H222233   6.287   6.581   1.962
 7426TIP3   OH222234   2.884   1.811  -0.002
 7426TIP3    H122235   2.847   1.805   0.086
 7426TIP3    H222236   2.928   1.727  -0.015
 7427TIP3   OH222237   6.758   7.252   1.145
 7427TIP3    H122238   6.845   7.267   1.107
 7427TIP3    H222239   6.769   7.177   1.203
 7428TIP3   OH222240   7.884   7.101   1.742
 7428TIP3    H122241   7.870   7.084   1.835
 7428TIP3    H222242   7.884   7.197   1.735
 7429TIP3   OH222243   5.382   0.896   4.140
 7429TIP3    H122244   5.361   0.990   4.145
 7429TIP3    H222245   5.439   0.888   4.064
 7430TIP3   OH222246   2.188   1.958   3.260
 7430TIP3    H122247   2.250   1.893   3.293
 7430TIP3    H222248   2.104   1.934   3.298
 7431TIP3   OH222249   5.573   4.517   0.488
 7431TIP3    H122250   5.504   4.535   0.551
 7431TIP3    H222251   5.653   4.512   0.540
 7432TIP3   OH222252   6.244   1.930   2.945
 7432TIP3    H122253   6.305   1.999   2.971
 7432TIP3    H222254   6.300   1.863   2.906
 7433TIP3   OH222255   7.650   0.570   2.046
 7433TIP3    H122256   7.615   0.489   2.085
 7433TIP3    H222257   7.745   0.562   2.056
 7434TIP3   OH222258   5.667   6.596   0.685
 7434TIP3    H122259   5.705   6.684   0.689
 7434TIP3    H222260   5.677   6.571   0.593
 7435TIP3   OH222261   6.816   2.467   1.774
 7435TIP3    H122262   6.910   2.457   1.761
 7435TIP3    H222263   6.804   2.451   1.868
 7436TIP3   OH222264   1.437   6.819   2.417
 7436TIP3    H122265   1.365   6.865   2.373
 7436TIP3    H222266   1.439   6.858   2.505
 7437TIP3   OH222267   5.466   6.232   0.184
 7437TIP3    H122268   5.381   6.213   0.144
 7437TIP3    H222269   5.507   6.295   0.125
 7438TIP3   OH222270   1.862   3.308   2.773
 7438TIP3    H122271   1.953   3.320   2.800
 7438TIP3    H222272   1.853   3.364   2.696
 7439TIP3   OH222273   5.991   6.184   5.828
 7439TIP3    H122274   5.973   6.108   5.884
 7439TIP3    H222275   5.955   6.258   5.877
 7440TIP3   OH222276   0.596   0.217   2.399
 7440TIP3    H122277   0.539   0.288   2.368
 7440TIP3    H222278   0.679   0.260   2.419
 7441TIP3   OH222279   0.544   4.291   5.375
 7441TIP3    H122280   0.589   4.206   5.370
 7441TIP3    H222281   0.613   4.354   5.395
 7442TIP3   OH222282   5.480   5.388   2.957
 7442TIP3    H122283   5.533   5.381   2.878
 7442TIP3    H222284   5.412   5.322   2.947
 7443TIP3   OH222285   0.759   3.447   0.687
 7443TIP3    H122286   0.769   3.352   0.696
 7443TIP3    H222287   0.765   3.463   0.593
 7444TIP3   OH222288   3.388   5.776   5.656
 7444TIP3    H122289   3.306   5.793   5.701
 7444TIP3    H222290   3.397   5.848   5.593
 7445TIP3   OH222291   0.703   1.504   1.437
 7445TIP3    H122292   0.788   1.492   1.395
 7445TIP3    H222293   0.651   1.429   1.408
 7446TIP3   OH222294   2.470   3.170   1.995
 7446TIP3    H122295   2.436   3.112   2.063
 7446TIP3    H222296   2.479   3.255   2.037
 7447TIP3   OH222297   0.600   5.761   0.786
 7447TIP3    H122298   0.612   5.801   0.700
 7447TIP3    H222299   0.653   5.813   0.845
 7448TIP3   OH222300   4.289   4.086   1.494
 7448TIP3    H122301   4.361   4.052   1.440
 7448TIP3    H222302   4.332   4.117   1.574
 7449TIP3   OH222303   3.401   7.188   3.194
 7449TIP3    H122304   3.394   7.121   3.125
 7449TIP3    H222305   3.355   7.150   3.269
 7450TIP3   OH222306   5.829   7.099   0.166
 7450TIP3    H122307   5.771   7.169   0.138
 7450TIP3    H222308   5.913   7.120   0.125
 7451TIP3   OH222309   1.264   0.210   1.846
 7451TIP3    H122310   1.280   0.142   1.912
 7451TIP3    H222311   1.210   0.166   1.780
 7452TIP3   OH222312   0.333   2.009   4.931
 7452TIP3    H122313   0.383   1.929   4.943
 7452TIP3    H222314   0.392   2.067   4.882
 7453TIP3   OH222315   3.813   1.034   4.073
 7453TIP3    H122316   3.734   1.060   4.120
 7453TIP3    H222317   3.884   1.084   4.115
 7454TIP3   OH222318   4.076   7.726   3.505
 7454TIP3    H122319   4.045   7.812   3.475
 7454TIP3    H222320   4.110   7.684   3.427
 7455TIP3   OH222321   7.436   7.181   0.432
 7455TIP3    H122322   7.429   7.168   0.338
 7455TIP3    H222323   7.499   7.115   0.461
 7456TIP3   OH222324   3.559   7.308   6.696
 7456TIP3    H122325   3.600   7.231   6.735
 7456TIP3    H222326   3.567   7.376   6.763
 7457TIP3   OH222327   4.701   4.116   3.659
 7457TIP3    H122328   4.653   4.190   3.624
 7457TIP3    H222329   4.702   4.131   3.754
 7458TIP3   OH222330   0.533   4.951   1.307
 7458TIP3    H122331   0.598   4.887   1.337
 7458TIP3    H222332   0.454   4.899   1.293
 7459TIP3   OH222333   0.830   1.947   2.014
 7459TIP3    H122334   0.749   1.997   2.018
 7459TIP3    H222335   0.801   1.855   2.013
 7460TIP3   OH222336   4.738   6.211   4.981
 7460TIP3    H122337   4.711   6.253   5.063
 7460TIP3    H222338   4.802   6.270   4.943
 7461TIP3   OH222339   2.505   6.994   2.223
 7461TIP3    H122340   2.430   7.005   2.165
 7461TIP3    H222341   2.472   7.019   2.309
 7462TIP3   OH222342   1.062   0.209   2.667
 7462TIP3    H122343   1.134   0.271   2.658
 7462TIP3    H222344   1.082   0.140   2.604
 7463TIP3   OH222345   7.232   6.644   0.454
 7463TIP3    H122346   7.285   6.723   0.448
 7463TIP3    H222347   7.267   6.596   0.529
 7464TIP3   OH222348   4.568   1.108   4.236
 7464TIP3    H122349   4.515   1.086   4.312
 7464TIP3    H222350   4.653   1.067   4.253
 7465TIP3   OH222351   2.216   4.827   1.396
 7465TIP3    H122352   2.309   4.843   1.381
 7465TIP3    H222353   2.200   4.740   1.361
 7466TIP3   OH222354   4.631   2.384   1.774
 7466TIP3    H122355   4.723   2.411   1.772
 7466TIP3    H222356   4.618   2.349   1.862
 7467TIP3   OH222357   7.458   4.373   0.269
 7467TIP3    H122358   7.553   4.364   0.278
 7467TIP3    H222359   7.447   4.427   0.190
 7468TIP3   OH222360   4.619   2.887   1.044
 7468TIP3    H122361   4.688   2.858   0.985
 7468TIP3    H222362   4.559   2.937   0.988
 7469TIP3   OH222363   7.041   1.863   4.162
 7469TIP3    H122364   7.041   1.825   4.250
 7469TIP3    H222365   7.078   1.951   4.174
 7470TIP3   OH222366   3.940   0.432   3.937
 7470TIP3    H122367   3.845   0.435   3.927
 7470TIP3    H222368   3.965   0.346   3.904
 7471TIP3   OH222369   5.394   3.785   4.533
 7471TIP3    H122370   5.426   3.813   4.619
 7471TIP3    H222371   5.465   3.732   4.497
 7472TIP3   OH222372   4.398   6.692   1.591
 7472TIP3    H122373   4.406   6.644   1.509
 7472TIP3    H222374   4.461   6.763   1.584
 7473TIP3   OH222375   6.492   1.434   3.331
 7473TIP3    H122376   6.510   1.346   3.298
 7473TIP3    H222377   6.414   1.424   3.385
 7474TIP3   OH222378   7.945   6.150   2.612
 7474TIP3    H122379   7.920   6.142   2.520
 7474TIP3    H222380   7.883   6.094   2.659
 7475TIP3   OH222381   7.926   6.361   1.443
 7475TIP3    H122382   7.983   6.319   1.508
 7475TIP3    H222383   7.848   6.305   1.440
 7476TIP3   OH222384   1.920   2.989   6.638
 7476TIP3    H122385   1.986   3.052   6.607
 7476TIP3    H222386   1.927   2.915   6.578
 7477TIP3   OH222387   6.182   6.914   2.831
 7477TIP3    H122388   6.178   6.997   2.784
 7477TIP3    H222389   6.250   6.926   2.897
 7478TIP3   OH222390   5.748   6.663   2.655
 7478TIP3    H122391   5.690   6.734   2.682
 7478TIP3    H222392   5.694   6.608   2.599
 7479TIP3   OH222393   0.919   5.577   4.028
 7479TIP3    H122394   0.942   5.560   3.937
 7479TIP3    H222395   0.997   5.554   4.078
 7480TIP3   OH222396   0.581   5.612   1.187
 7480TIP3    H122397   0.539   5.587   1.104
 7480TIP3    H222398   0.534   5.691   1.214
 7481TIP3   OH222399   6.841   6.864   3.782
 7481TIP3    H122400   6.861   6.849   3.874
 7481TIP3    H222401   6.871   6.785   3.738
 7482TIP3   OH222402   4.574   0.335   0.714
 7482TIP3    H122403   4.651   0.378   0.676
 7482TIP3    H222404   4.504   0.399   0.703
 7483TIP3   OH222405   4.283   2.420   3.474
 7483TIP3    H122406   4.257   2.335   3.509
 7483TIP3    H222407   4.290   2.405   3.379
 7484TIP3   OH222408   7.612   4.468   0.738
 7484TIP3    H122409   7.637   4.459   0.646
 7484TIP3    H222410   7.658   4.547   0.767
 7485TIP3   OH222411   3.984   6.801   4.535
 7485TIP3    H122412   3.889   6.789   4.539
 7485TIP3    H222413   4.019   6.712   4.534
 7486TIP3   OH222414   7.659   6.934   0.961
 7486TIP3    H122415   7.664   6.888   0.877
 7486TIP3    H222416   7.649   6.865   1.026
 7487TIP3   OH222417   4.003   4.428   1.975
 7487TIP3    H122418   3.980   4.356   2.034
 7487TIP3    H222419   3.971   4.400   1.889
 7488TIP3   OH222420   5.151   2.745   1.887
 7488TIP3    H122421   5.103   2.777   1.810
 7488TIP3    H222422   5.107   2.664   1.911
 7489TIP3   OH222423   2.844   1.928   3.246
 7489TIP3    H122424   2.838   1.862   3.177
 7489TIP3    H222425   2.756   1.965   3.252
 7490TIP3   OH222426   3.733   3.756   3.609
 7490TIP3    H122427   3.809   3.714   3.569
 7490TIP3    H222428   3.659   3.727   3.555
 7491TIP3   OH222429   2.266   4.266   5.458
 7491TIP3    H122430   2.361   4.256   5.457
 7491TIP3    H222431   2.252   4.361   5.459
 7492TIP3   OH222432   4.403   2.980   1.422
 7492TIP3    H122433   4.449   3.008   1.501
 7492TIP3    H222434   4.384   3.061   1.375
 7493TIP3   OH222435   6.240   3.858   1.111
 7493TIP3    H122436   6.328   3.843   1.147
 7493TIP3    H222437   6.256   3.908   1.030
 7494TIP3   OH222438   0.031   0.170   0.954
 7494TIP3    H122439   0.092   0.235   0.920
 7494TIP3    H222440  -0.055   0.202   0.928
 7495TIP3   OH222441   0.909   4.124   4.915
 7495TIP3    H122442   0.988   4.147   4.866
 7495TIP3    H222443   0.935   4.128   5.007
 7496TIP3   OH222444   1.685   7.254   0.143
 7496TIP3    H122445   1.695   7.209   0.059
 7496TIP3    H222446   1.734   7.336   0.132
 7497TIP3   OH222447   7.132   6.681   2.460
 7497TIP3    H122448   7.133   6.585   2.464
 7497TIP3    H222449   7.039   6.703   2.453
 7498TIP3   OH222450   3.477   6.840   0.135
 7498TIP3    H122451   3.468   6.925   0.178
 7498TIP3    H222452   3.400   6.833   0.079
 7499TIP3   OH222453   2.424   5.122   2.692
 7499TIP3    H122454   2.398   5.129   2.784
 7499TIP3    H222455   2.489   5.192   2.680
 7500TIP3   OH222456   0.904   2.503   4.153
 7500TIP3    H122457   0.868   2.431   4.205
 7500TIP3    H222458   0.985   2.468   4.116
 7501TIP3   OH222459   1.157   0.200   5.106
 7501TIP3    H122460   1.075   0.246   5.089
 7501TIP3    H222461   1.135   0.108   5.099
 7502TIP3   OH222462   1.426   2.087   4.886
 7502TIP3    H122463   1.492   2.157   4.893
 7502TIP3    H222464   1.474   2.012   4.850
 7503TIP3   OH222465   6.303   5.479   3.492
 7503TIP3    H122466   6.382   5.433   3.464
 7503TIP3    H222467   6.331   5.530   3.568
 7504TIP3   OH222468   7.225   5.013   0.127
 7504TIP3    H122469   7.221   5.047   0.038
 7504TIP3    H222470   7.313   5.035   0.158
 7505TIP3   OH222471   2.706   7.159   2.781
 7505TIP3    H122472   2.645   7.104   2.831
 7505TIP3    H222473   2.727   7.106   2.704
 7506TIP3   OH222474   3.271   2.327   3.290
 7506TIP3    H122475   3.238   2.404   3.336
 7506TIP3    H222476   3.363   2.347   3.273
 7507TIP3   OH222477   5.637   2.517   4.034
 7507TIP3    H122478   5.603   2.517   3.944
 7507TIP3    H222479   5.571   2.566   4.084
 7508TIP3   OH222480   0.819   5.061   5.759
 7508TIP3    H122481   0.761   5.062   5.836
 7508TIP3    H222482   0.769   5.015   5.692
 7509TIP3   OH222483   3.225   5.462   5.736
 7509TIP3    H122484   3.224   5.366   5.745
 7509TIP3    H222485   3.317   5.483   5.723
 7510TIP3   OH222486   0.195   6.041   6.673
 7510TIP3    H122487   0.276   5.995   6.653
 7510TIP3    H222488   0.198   6.120   6.619
 7511TIP3   OH222489   2.499   1.660   2.043
 7511TIP3    H122490   2.518   1.659   1.949
 7511TIP3    H222491   2.583   1.677   2.085
 7512TIP3   OH222492   1.537   1.810   6.341
 7512TIP3    H122493   1.504   1.781   6.256
 7512TIP3    H222494   1.582   1.734   6.377
 7513TIP3   OH222495   5.655   4.113   4.197
 7513TIP3    H122496   5.706   4.090   4.119
 7513TIP3    H222497   5.591   4.043   4.206
 7514TIP3   OH222498   1.260   3.945   2.743
 7514TIP3    H122499   1.223   4.019   2.790
 7514TIP3    H222500   1.285   3.882   2.811
 7515TIP3   OH222501   2.487   7.647   6.122
 7515TIP3    H122502   2.413   7.708   6.125
 7515TIP3    H222503   2.458   7.573   6.176
 7516TIP3   OH222504   1.761   5.782   4.271
 7516TIP3    H122505   1.761   5.872   4.303
 7516TIP3    H222506   1.669   5.762   4.253
 7517TIP3   OH222507   2.604   4.503   2.044
 7517TIP3    H122508   2.678   4.560   2.066
 7517TIP3    H222509   2.588   4.453   2.124
 7518TIP3   OH222510   1.670   3.397   3.073
 7518TIP3    H122511   1.599   3.332   3.071
 7518TIP3    H222512   1.671   3.434   2.985
 7519TIP3   OH222513   6.572   7.382   5.439
 7519TIP3    H122514   6.552   7.439   5.365
 7519TIP3    H222515   6.657   7.342   5.416
 7520TIP3   OH222516   6.360   3.911   6.028
 7520TIP3    H122517   6.366   3.994   6.075
 7520TIP3    H222518   6.278   3.872   6.058
 7521TIP3   OH222519   5.627   4.798   3.268
 7521TIP3    H122520   5.601   4.766   3.182
 7521TIP3    H222521   5.572   4.749   3.329
 7522TIP3   OH222522   7.919   4.611   4.676
 7522TIP3    H122523   7.972   4.688   4.700
 7522TIP3    H222524   7.829   4.639   4.690
 7523TIP3   OH222525   5.745   2.805   1.853
 7523TIP3    H122526   5.654   2.819   1.828
 7523TIP3    H222527   5.794   2.875   1.808
 7524TIP3   OH222528   4.071   2.011   0.451
 7524TIP3    H122529   4.115   1.962   0.520
 7524TIP3    H222530   4.140   2.067   0.414
 7525TIP3   OH222531   4.518   4.465   2.221
 7525TIP3    H122532   4.596   4.519   2.233
 7525TIP3    H222533   4.462   4.488   2.295
 7526TIP3   OH222534   1.438   1.458   4.631
 7526TIP3    H122535   1.469   1.428   4.546
 7526TIP3    H222536   1.380   1.531   4.611
 7527TIP3   OH222537   2.881   3.295   3.615
 7527TIP3    H122538   2.800   3.345   3.628
 7527TIP3    H222539   2.922   3.294   3.701
 7528TIP3   OH222540   2.656   7.309   1.147
 7528TIP3    H122541   2.564   7.311   1.174
 7528TIP3    H222542   2.665   7.381   1.085
 7529TIP3   OH222543   6.969   1.765   5.007
 7529TIP3    H122544   6.877   1.783   5.023
 7529TIP3    H222545   6.977   1.761   4.911
 7530TIP3   OH222546   6.912   3.737   0.585
 7530TIP3    H122547   6.914   3.819   0.535
 7530TIP3    H222548   6.870   3.675   0.526
 7531TIP3   OH222549   5.341   3.393   4.517
 7531TIP3    H122550   5.433   3.393   4.543
 7531TIP3    H222551   5.334   3.322   4.453
 7532TIP3   OH222552   6.309   6.812   5.711
 7532TIP3    H122553   6.376   6.804   5.779
 7532TIP3    H222554   6.244   6.872   5.748
 7533TIP3   OH222555   8.181   3.172   5.461
 7533TIP3    H122556   8.237   3.179   5.538
 7533TIP3    H222557   8.202   3.086   5.423
 7534TIP3   OH222558   0.443   6.680   4.610
 7534TIP3    H122559   0.497   6.714   4.682
 7534TIP3    H222560   0.399   6.604   4.647
 7535TIP3   OH222561   7.946   7.166   2.226
 7535TIP3    H122562   8.025   7.147   2.176
 7535TIP3    H222563   7.883   7.197   2.160
 7536TIP3   OH222564   5.544   1.930   0.779
 7536TIP3    H122565   5.587   1.889   0.854
 7536TIP3    H222566   5.540   1.860   0.713
 7537TIP3   OH222567   6.376   0.095   3.021
 7537TIP3    H122568   6.287   0.080   3.055
 7537TIP3    H222569   6.427   0.022   3.056
 7538TIP3   OH222570   3.592   6.191   6.293
 7538TIP3    H122571   3.556   6.235   6.370
 7538TIP3    H222572   3.519   6.184   6.232
 7539TIP3   OH222573   7.690   2.537   0.697
 7539TIP3    H122574   7.645   2.460   0.730
 7539TIP3    H222575   7.736   2.573   0.774
 7540TIP3   OH222576   3.423   4.310   2.136
 7540TIP3    H122577   3.457   4.221   2.148
 7540TIP3    H222578   3.502   4.364   2.127
 7541TIP3   OH222579   0.719   6.952   1.746
 7541TIP3    H122580   0.760   6.927   1.663
 7541TIP3    H222581   0.651   7.015   1.721
 7542TIP3   OH222582   4.820   2.915   0.858
 7542TIP3    H122583   4.827   3.008   0.838
 7542TIP3    H222584   4.876   2.903   0.935
 7543TIP3   OH222585   3.614   2.047   3.544
 7543TIP3    H122586   3.523   2.073   3.532
 7543TIP3    H222587   3.637   2.080   3.632
 7544TIP3   OH222588   5.111   5.542   4.737
 7544TIP3    H122589   5.019   5.569   4.735
 7544TIP3    H222590   5.156   5.616   4.777
 7545TIP3   OH222591   3.819   3.628   4.496
 7545TIP3    H122592   3.793   3.620   4.404
 7545TIP3    H222593   3.860   3.715   4.501
 7546TIP3   OH222594   5.447   0.581   2.163
 7546TIP3    H122595   5.430   0.665   2.120
 7546TIP3    H222596   5.362   0.537   2.164
 7547TIP3   OH222597   0.083   2.724   3.350
 7547TIP3    H122598   0.120   2.678   3.424
 7547TIP3    H222599  -0.011   2.705   3.355
 7548TIP3   OH222600   6.252   3.345   1.551
 7548TIP3    H122601   6.337   3.325   1.590
 7548TIP3    H222602   6.191   3.343   1.624
 7549TIP3   OH222603   0.142   3.744   6.492
 7549TIP3    H122604   0.186   3.752   6.407
 7549TIP3    H222605   0.050   3.731   6.470
 7550TIP3   OH222606   5.044   1.446   4.488
 7550TIP3    H122607   5.088   1.423   4.570
 7550TIP3    H222608   4.951   1.445   4.510
 7551TIP3   OH222609   0.637   4.806   5.324
 7551TIP3    H122610   0.702   4.784   5.258
 7551TIP3    H222611   0.553   4.799   5.279
 7552TIP3   OH222612   3.530   4.868   1.797
 7552TIP3    H122613   3.470   4.816   1.851
 7552TIP3    H222614   3.567   4.932   1.857
 7553TIP3   OH222615   0.029   0.892   0.147
 7553TIP3    H122616   0.041   0.952   0.073
 7553TIP3    H222617  -0.012   0.814   0.108
 7554TIP3   OH222618   2.541   1.271   6.184
 7554TIP3    H122619   2.595   1.323   6.125
 7554TIP3    H222620   2.602   1.236   6.249
 7555TIP3   OH222621   7.541   4.387   6.500
 7555TIP3    H122622   7.617   4.440   6.524
 7555TIP3    H222623   7.475   4.409   6.566
 7556TIP3   OH222624   2.995   5.247   4.248
 7556TIP3    H122625   3.048   5.209   4.179
 7556TIP3    H222626   3.045   5.231   4.328
 7557TIP3   OH222627   2.285   2.218   1.578
 7557TIP3    H122628   2.378   2.241   1.582
 7557TIP3    H222629   2.283   2.135   1.531
 7558TIP3   OH222630   4.979   3.472   2.242
 7558TIP3    H122631   4.962   3.566   2.247
 7558TIP3    H222632   4.928   3.435   2.314
 7559TIP3   OH222633   3.859   4.002   2.159
 7559TIP3    H122634   3.789   4.054   2.119
 7559TIP3    H222635   3.864   3.924   2.104
 7560TIP3   OH222636   4.498   3.907   2.878
 7560TIP3    H122637   4.475   3.883   2.789
 7560TIP3    H222638   4.518   4.001   2.874
 7561TIP3   OH222639   7.768   7.689   0.555
 7561TIP3    H122640   7.799   7.712   0.643
 7561TIP3    H222641   7.713   7.612   0.569
 7562TIP3   OH222642   1.080   7.098   5.790
 7562TIP3    H122643   1.132   7.043   5.732
 7562TIP3    H222644   1.079   7.184   5.747
 7563TIP3   OH222645   4.861   3.294   4.718
 7563TIP3    H122646   4.807   3.370   4.741
 7563TIP3    H222647   4.884   3.308   4.626
 7564TIP3   OH222648   2.441   0.728   1.124
 7564TIP3    H122649   2.432   0.661   1.055
 7564TIP3    H222650   2.409   0.808   1.084
 7565TIP3   OH222651   3.572   3.931   4.919
 7565TIP3    H122652   3.629   3.939   4.842
 7565TIP3    H222653   3.629   3.951   4.993
 7566TIP3   OH222654   0.366   1.627   5.872
 7566TIP3    H122655   0.276   1.612   5.902
 7566TIP3    H222656   0.360   1.619   5.776
 7567TIP3   OH222657   4.392   7.069   4.381
 7567TIP3    H122658   4.353   7.154   4.359
 7567TIP3    H222659   4.318   7.009   4.386
 7568TIP3   OH222660   3.607   0.490   5.802
 7568TIP3    H122661   3.599   0.437   5.882
 7568TIP3    H222662   3.624   0.579   5.833
 7569TIP3   OH222663   7.179   4.278   3.031
 7569TIP3    H122664   7.157   4.185   3.036
 7569TIP3    H222665   7.199   4.303   3.121
 7570TIP3   OH222666   8.084   3.571   0.097
 7570TIP3    H122667   7.993   3.547   0.079
 7570TIP3    H222668   8.083   3.666   0.105
 7571TIP3   OH222669   4.523   6.088   3.782
 7571TIP3    H122670   4.605   6.075   3.829
 7571TIP3    H222671   4.493   6.175   3.808
 7572TIP3   OH222672   8.160   5.343   0.187
 7572TIP3    H122673   8.236   5.290   0.161
 7572TIP3    H222674   8.177   5.429   0.151
 7573TIP3   OH222675   4.738   5.962   1.686
 7573TIP3    H122676   4.689   6.016   1.625
 7573TIP3    H222677   4.732   5.873   1.650
 7574TIP3   OH222678   1.332   4.340   1.599
 7574TIP3    H122679   1.327   4.406   1.529
 7574TIP3    H222680   1.410   4.289   1.578
 7575TIP3   OH222681   1.295   4.088   1.397
 7575TIP3    H122682   1.262   4.177   1.409
 7575TIP3    H222683   1.323   4.060   1.485
 7576TIP3   OH222684   4.134   5.176   4.973
 7576TIP3    H122685   4.043   5.156   4.993
 7576TIP3    H222686   4.165   5.100   4.924
 7577TIP3   OH222687   7.902   0.187   6.354
 7577TIP3    H122688   7.832   0.126   6.376
 7577TIP3    H222689   7.973   0.166   6.415
 7578TIP3   OH222690   7.242   6.465   3.756
 7578TIP3    H122691   7.198   6.393   3.712
 7578TIP3    H222692   7.330   6.431   3.776
 7579TIP3   OH222693   6.674   7.532   4.259
 7579TIP3    H122694   6.603   7.555   4.320
 7579TIP3    H222695   6.731   7.474   4.309
 7580TIP3   OH222696   2.796   0.704   1.699
 7580TIP3    H122697   2.803   0.740   1.610
 7580TIP3    H222698   2.812   0.610   1.688
 7581TIP3   OH222699   4.453   3.076   4.665
 7581TIP3    H122700   4.531   3.021   4.668
 7581TIP3    H222701   4.403   3.051   4.742
 7582TIP3   OH222702   8.264   6.407   3.578
 7582TIP3    H122703   8.258   6.391   3.673
 7582TIP3    H222704   8.177   6.384   3.545
 7583TIP3   OH222705   4.535   4.929   4.010
 7583TIP3    H122706   4.534   5.012   3.962
 7583TIP3    H222707   4.482   4.946   4.088
 7584TIP3   OH222708   5.691   3.871   5.832
 7584TIP3    H122709   5.653   3.794   5.873
 7584TIP3    H222710   5.620   3.935   5.831
 7585TIP3   OH222711   3.181   3.852   1.440
 7585TIP3    H122712   3.252   3.870   1.379
 7585TIP3    H222713   3.180   3.927   1.499
 7586TIP3   OH222714   2.876   6.766   3.682
 7586TIP3    H122715   2.856   6.764   3.776
 7586TIP3    H222716   2.948   6.828   3.674
 7587TIP3   OH222717   4.845   0.734   4.841
 7587TIP3    H122718   4.881   0.797   4.903
 7587TIP3    H222719   4.751   0.731   4.862
 7588TIP3   OH222720   5.334   1.850   3.425
 7588TIP3    H122721   5.268   1.914   3.398
 7588TIP3    H222722   5.334   1.854   3.520
 7589TIP3   OH222723   2.862   2.164   6.505
 7589TIP3    H122724   2.902   2.118   6.579
 7589TIP3    H222725   2.783   2.204   6.541
 7590TIP3   OH222726   6.486   2.962   4.437
 7590TIP3    H122727   6.538   2.928   4.365
 7590TIP3    H222728   6.501   2.901   4.509
 7591TIP3   OH222729   6.223   6.288   5.715
 7591TIP3    H122730   6.239   6.376   5.750
 7591TIP3    H222731   6.151   6.254   5.767
 7592TIP3   OH222732   0.484   2.141   0.423
 7592TIP3    H122733   0.554   2.191   0.381
 7592TIP3    H222734   0.454   2.080   0.356
 7593TIP3   OH222735   5.298   0.689   0.086
 7593TIP3    H122736   5.317   0.619   0.024
 7593TIP3    H222737   5.209   0.672   0.116
 7594TIP3   OH222738   2.900   4.714   3.525
 7594TIP3    H122739   2.847   4.772   3.470
 7594TIP3    H222740   2.837   4.651   3.560
 7595TIP3   OH222741   1.124   6.165   1.152
 7595TIP3    H122742   1.093   6.108   1.081
 7595TIP3    H222743   1.219   6.150   1.154
 7596TIP3   OH222744   2.962   7.248   2.094
 7596TIP3    H122745   2.868   7.231   2.094
 7596TIP3    H222746   2.980   7.286   2.008
 7597TIP3   OH222747   2.743   5.170   0.949
 7597TIP3    H122748   2.815   5.211   0.901
 7597TIP3    H222749   2.722   5.092   0.898
 7598TIP3   OH222750   3.731   5.907   5.267
 7598TIP3    H122751   3.666   5.959   5.314
 7598TIP3    H222752   3.692   5.820   5.260
 7599TIP3   OH222753   0.951   5.826   5.480
 7599TIP3    H122754   0.927   5.918   5.466
 7599TIP3    H222755   1.047   5.826   5.478
 7600TIP3   OH222756   4.358   3.967   1.823
 7600TIP3    H122757   4.388   3.974   1.914
 7600TIP3    H222758   4.371   4.055   1.787
 7601TIP3   OH222759   7.971   2.666   2.723
 7601TIP3    H122760   7.883   2.632   2.737
 7601TIP3    H222761   7.960   2.736   2.658
 7602TIP3   OH222762   0.687   0.334   5.697
 7602TIP3    H122763   0.684   0.424   5.665
 7602TIP3    H222764   0.689   0.343   5.792
 7603TIP3   OH222765   4.241   3.434   1.567
 7603TIP3    H122766   4.153   3.401   1.547
 7603TIP3    H222767   4.297   3.357   1.564
 7604TIP3   OH222768   6.380   5.002   3.916
 7604TIP3    H122769   6.354   4.931   3.857
 7604TIP3    H222770   6.473   4.987   3.932
 7605TIP3   OH222771   3.867   3.813   2.407
 7605TIP3    H122772   3.896   3.837   2.318
 7605TIP3    H222773   3.771   3.816   2.402
 7606TIP3   OH222774   6.893   3.630   3.388
 7606TIP3    H122775   6.923   3.541   3.371
 7606TIP3    H222776   6.896   3.639   3.484
 7607TIP3   OH222777   7.402   0.433   0.887
 7607TIP3    H122778   7.403   0.419   0.792
 7607TIP3    H222779   7.484   0.394   0.918
 7608TIP3   OH222780   6.334   5.329   1.641
 7608TIP3    H122781   6.244   5.298   1.629
 7608TIP3    H222782   6.348   5.389   1.567
 7609TIP3   OH222783   7.181   5.668   3.949
 7609TIP3    H122784   7.204   5.640   3.860
 7609TIP3    H222785   7.263   5.703   3.984
 7610TIP3   OH222786   3.937   2.094   2.866
 7610TIP3    H122787   3.856   2.043   2.866
 7610TIP3    H222788   3.932   2.146   2.946
 7611TIP3   OH222789   5.377   3.089   3.316
 7611TIP3    H122790   5.289   3.093   3.353
 7611TIP3    H222791   5.400   3.180   3.301
 7612TIP3   OH222792   5.851   6.931   1.411
 7612TIP3    H122793   5.864   6.845   1.451
 7612TIP3    H222794   5.760   6.931   1.384
 7613TIP3   OH222795   4.768   7.478   0.509
 7613TIP3    H122796   4.683   7.478   0.465
 7613TIP3    H222797   4.823   7.422   0.454
 7614TIP3   OH222798   4.304   4.992   0.181
 7614TIP3    H122799   4.307   4.900   0.210
 7614TIP3    H222800   4.247   4.991   0.104
 7615TIP3   OH222801   4.492   2.396   1.281
 7615TIP3    H122802   4.567   2.379   1.224
 7615TIP3    H222803   4.530   2.436   1.359
 7616TIP3   OH222804   2.322   1.560   5.816
 7616TIP3    H122805   2.326   1.482   5.871
 7616TIP3    H222806   2.276   1.625   5.870
 7617TIP3   OH222807   7.141   5.180   6.665
 7617TIP3    H122808   7.111   5.098   6.625
 7617TIP3    H222809   7.061   5.231   6.678
 7618TIP3   OH222810   6.822   1.308   1.364
 7618TIP3    H122811   6.783   1.358   1.292
 7618TIP3    H222812   6.822   1.217   1.332
 7619TIP3   OH222813   1.638   0.010   2.430
 7619TIP3    H122814   1.662  -0.063   2.487
 7619TIP3    H222815   1.720   0.054   2.410
 7620TIP3   OH222816   2.256   1.709   0.534
 7620TIP3    H122817   2.301   1.744   0.457
 7620TIP3    H222818   2.163   1.710   0.511
 7621TIP3   OH222819   0.939   4.982   4.488
 7621TIP3    H122820   0.962   4.919   4.557
 7621TIP3    H222821   0.945   4.932   4.407
 7622TIP3   OH222822   1.526   0.846   0.294
 7622TIP3    H122823   1.511   0.889   0.378
 7622TIP3    H222824   1.604   0.793   0.307
 7623TIP3   OH222825   4.266   5.119   3.119
 7623TIP3    H122826   4.179   5.151   3.094
 7623TIP3    H222827   4.260   5.024   3.114
 7624TIP3   OH222828   2.042   7.317   0.055
 7624TIP3    H122829   2.076   7.352  -0.027
 7624TIP3    H222830   1.960   7.364   0.070
 7625TIP3   OH222831   7.813   4.488   4.100
 7625TIP3    H122832   7.907   4.489   4.118
 7625TIP3    H222833   7.804   4.431   4.023
 7626TIP3   OH222834   1.236   4.884   4.375
 7626TIP3    H122835   1.298   4.865   4.445
 7626TIP3    H222836   1.260   4.824   4.304
 7627TIP3   OH222837   0.756   6.550   1.304
 7627TIP3    H122838   0.827   6.563   1.241
 7627TIP3    H222839   0.796   6.567   1.389
 7628TIP3   OH222840   4.567   0.991   5.500
 7628TIP3    H122841   4.472   0.980   5.500
 7628TIP3    H222842   4.601   0.904   5.479
 7629TIP3   OH222843   0.473   2.332   1.625
 7629TIP3    H122844   0.548   2.290   1.667
 7629TIP3    H222845   0.496   2.332   1.532
 7630TIP3   OH222846   4.090   5.909   0.031
 7630TIP3    H122847   3.995   5.913   0.042
 7630TIP3    H222848   4.103   5.899  -0.063
 7631TIP3   OH222849   7.325   3.995   1.332
 7631TIP3    H122850   7.339   4.068   1.272
 7631TIP3    H222851   7.327   3.917   1.277
 7632TIP3   OH222852   4.316   2.986   2.445
 7632TIP3    H122853   4.333   3.074   2.481
 7632TIP3    H222854   4.276   3.002   2.360
 7633TIP3   OH222855   3.964   2.010   1.352
 7633TIP3    H122856   3.887   1.969   1.311
 7633TIP3    H222857   3.931   2.048   1.433
 7634TIP3   OH222858   3.795   1.290   6.216
 7634TIP3    H122859   3.829   1.203   6.238
 7634TIP3    H222860   3.753   1.320   6.296
 7635TIP3   OH222861   2.009   0.729   4.642
 7635TIP3    H122862   2.038   0.651   4.690
 7635TIP3    H222863   1.954   0.694   4.572
 7636TIP3   OH222864   5.363   0.145   4.696
 7636TIP3    H122865   5.415   0.077   4.654
 7636TIP3    H222866   5.313   0.098   4.763
 7637TIP3   OH222867   0.639   6.366   0.747
 7637TIP3    H122868   0.583   6.432   0.787
 7637TIP3    H222869   0.703   6.417   0.697
 7638TIP3   OH222870   6.773   5.847   3.730
 7638TIP3    H122871   6.684   5.863   3.696
 7638TIP3    H222872   6.764   5.858   3.825
 7639TIP3   OH222873   3.915   2.325   5.853
 7639TIP3    H122874   3.928   2.234   5.826
 7639TIP3    H222875   3.876   2.319   5.941
 7640TIP3   OH222876   1.389   3.573   2.871
 7640TIP3    H122877   1.454   3.504   2.855
 7640TIP3    H222878   1.401   3.634   2.797
 7641TIP3   OH222879   4.856   0.180   0.436
 7641TIP3    H122880   4.770   0.153   0.402
 7641TIP3    H222881   4.871   0.124   0.512
 7642TIP3   OH222882   6.955   0.405   2.096
 7642TIP3    H122883   7.006   0.428   2.019
 7642TIP3    H222884   6.915   0.488   2.124
 7643TIP3   OH222885   7.816   4.017   4.000
 7643TIP3    H122886   7.789   3.934   4.038
 7643TIP3    H222887   7.738   4.048   3.953
 7644TIP3   OH222888   7.248   3.246   2.817
 7644TIP3    H122889   7.157   3.228   2.840
 7644TIP3    H222890   7.266   3.190   2.742
 7645TIP3   OH222891   7.264   3.288   0.974
 7645TIP3    H122892   7.170   3.292   0.953
 7645TIP3    H222893   7.283   3.374   1.013
 7646TIP3   OH222894   6.815   2.443   5.248
 7646TIP3    H122895   6.813   2.407   5.337
 7646TIP3    H222896   6.745   2.509   5.248
 7647TIP3   OH222897   4.003   2.773   4.895
 7647TIP3    H122898   4.028   2.780   4.803
 7647TIP3    H222899   4.024   2.683   4.918
 7648TIP3   OH222900   1.439   0.236   1.201
 7648TIP3    H122901   1.370   0.300   1.219
 7648TIP3    H222902   1.408   0.155   1.242
 7649TIP3   OH222903   2.665   0.899   0.937
 7649TIP3    H122904   2.674   0.843   1.014
 7649TIP3    H222905   2.722   0.973   0.954
 7650TIP3   OH222906   6.977   3.438   4.458
 7650TIP3    H122907   7.072   3.430   4.468
 7650TIP3    H222908   6.941   3.416   4.544
 7651TIP3   OH222909   4.452   7.684   5.787
 7651TIP3    H122910   4.418   7.597   5.808
 7651TIP3    H222911   4.458   7.728   5.872
 7652TIP3   OH222912   6.244   2.295   6.038
 7652TIP3    H122913   6.271   2.368   5.983
 7652TIP3    H222914   6.214   2.336   6.120
 7653TIP3   OH222915   4.047   3.085   6.307
 7653TIP3    H122916   4.122   3.037   6.343
 7653TIP3    H222917   4.026   3.039   6.226
 7654TIP3   OH222918   5.103   3.556   5.594
 7654TIP3    H122919   5.041   3.559   5.667
 7654TIP3    H222920   5.126   3.464   5.586
 7655TIP3   OH222921   6.361   3.258   5.255
 7655TIP3    H122922   6.400   3.320   5.316
 7655TIP3    H222923   6.268   3.280   5.255
 7656TIP3   OH222924   7.003   4.837   6.204
 7656TIP3    H122925   6.931   4.794   6.250
 7656TIP3    H222926   7.082   4.795   6.239
 7657TIP3   OH222927   0.493   0.282   0.935
 7657TIP3    H122928   0.477   0.262   1.028
 7657TIP3    H222929   0.588   0.277   0.925
 7658TIP3   OH222930   8.238   0.848   1.407
 7658TIP3    H122931   8.256   0.770   1.460
 7658TIP3    H222932   8.158   0.884   1.445
 7659TIP3   OH222933   1.224   2.739   2.372
 7659TIP3    H122934   1.140   2.773   2.340
 7659TIP3    H222935   1.284   2.813   2.363
 7660TIP3   OH222936   2.934   2.796   1.110
 7660TIP3    H122937   2.877   2.720   1.118
 7660TIP3    H222938   2.876   2.871   1.119
 7661TIP3   OH222939   5.787   4.895   5.750
 7661TIP3    H122940   5.880   4.894   5.727
 7661TIP3    H222941   5.762   4.988   5.745
 7662TIP3   OH222942   6.424   0.271   3.619
 7662TIP3    H122943   6.496   0.224   3.662
 7662TIP3    H222944   6.458   0.293   3.532
 7663TIP3   OH222945   0.902   0.124   5.627
 7663TIP3    H122946   0.946   0.154   5.548
 7663TIP3    H222947   0.860   0.203   5.662
 7664TIP3   OH222948   4.634   7.531   3.749
 7664TIP3    H122949   4.542   7.510   3.764
 7664TIP3    H222950   4.669   7.550   3.837
 7665TIP3   OH222951   3.224   2.526   0.052
 7665TIP3    H122952   3.207   2.578   0.131
 7665TIP3    H222953   3.145   2.537  -0.001
 7666TIP3   OH222954   1.678   2.923   5.643
 7666TIP3    H122955   1.647   2.833   5.657
 7666TIP3    H222956   1.606   2.978   5.673
 7667TIP3   OH222957   8.027   1.136   6.323
 7667TIP3    H122958   8.100   1.155   6.264
 7667TIP3    H222959   7.988   1.056   6.287
 7668TIP3   OH222960   2.570   5.986   0.056
 7668TIP3    H122961   2.492   5.948   0.099
 7668TIP3    H222962   2.622   6.021   0.129
 7669TIP3   OH222963   5.870   1.343   0.408
 7669TIP3    H122964   5.833   1.300   0.485
 7669TIP3    H222965   5.898   1.429   0.439
 7670TIP3   OH222966   3.930   2.272   0.459
 7670TIP3    H122967   3.984   2.334   0.410
 7670TIP3    H222968   3.970   2.186   0.442
 7671TIP3   OH222969   5.981   7.173   1.419
 7671TIP3    H122970   5.934   7.200   1.498
 7671TIP3    H222971   5.954   7.083   1.405
 7672TIP3   OH222972   3.847   2.793   3.572
 7672TIP3    H122973   3.808   2.722   3.521
 7672TIP3    H222974   3.896   2.844   3.508
 7673TIP3   OH222975   6.832   5.056   5.278
 7673TIP3    H122976   6.927   5.065   5.291
 7673TIP3    H222977   6.814   4.964   5.293
 7674TIP3   OH222978   2.458   0.409   0.562
 7674TIP3    H122979   2.538   0.462   0.560
 7674TIP3    H222980   2.387   0.473   0.571
 7675TIP3   OH222981   7.223   1.943   1.748
 7675TIP3    H122982   7.151   1.929   1.810
 7675TIP3    H222983   7.198   2.023   1.701
 7676TIP3   OH222984   5.657   5.528   6.518
 7676TIP3    H122985   5.704   5.496   6.441
 7676TIP3    H222986   5.618   5.450   6.557
 7677TIP3   OH222987   1.495   3.898   5.135
 7677TIP3    H122988   1.466   3.985   5.105
 7677TIP3    H222989   1.415   3.846   5.138
 7678TIP3   OH222990   0.007   7.069   1.794
 7678TIP3    H122991  -0.039   7.040   1.715
 7678TIP3    H222992   0.086   7.014   1.797
 7679TIP3   OH222993   1.199   3.630   0.727
 7679TIP3    H122994   1.262   3.558   0.737
 7679TIP3    H222995   1.243   3.692   0.669
 7680TIP3   OH222996   1.811   5.486   2.732
 7680TIP3    H122997   1.865   5.407   2.738
 7680TIP3    H222998   1.816   5.526   2.819
 7681TIP3   OH222999   2.341   2.945   2.797
 7681TIP3    H123000   2.389   2.890   2.859
 7681TIP3    H223001   2.298   3.011   2.852
 7682TIP3   OH223002   3.434   2.672   4.660
 7682TIP3    H123003   3.413   2.616   4.585
 7682TIP3    H223004   3.508   2.725   4.630
 7683TIP3   OH223005   5.924   7.222   2.832
 7683TIP3    H123006   5.909   7.137   2.873
 7683TIP3    H223007   5.959   7.277   2.902
 7684TIP3   OH223008   6.547   0.000   1.860
 7684TIP3    H123009   6.614   0.059   1.895
 7684TIP3    H223010   6.526   0.036   1.774
 7685TIP3   OH223011   4.728   3.947   2.150
 7685TIP3    H123012   4.663   3.999   2.197
 7685TIP3    H223013   4.805   4.003   2.145
 7686TIP3   OH223014   2.841   4.485   3.004
 7686TIP3    H123015   2.796   4.415   2.957
 7686TIP3    H223016   2.892   4.441   3.071
 7687TIP3   OH223017   4.658   7.155   3.586
 7687TIP3    H123018   4.651   7.147   3.491
 7687TIP3    H223019   4.707   7.077   3.613
 7688TIP3   OH223020   0.045   6.725   5.296
 7688TIP3    H123021  -0.045   6.701   5.272
 7688TIP3    H223022   0.093   6.723   5.214
 7689TIP3   OH223023   3.936   3.623   3.454
 7689TIP3    H123024   4.027   3.653   3.459
 7689TIP3    H223025   3.907   3.648   3.367
 7690TIP3   OH223026   2.792   7.309   5.057
 7690TIP3    H123027   2.737   7.323   4.979
 7690TIP3    H223028   2.729   7.294   5.128
 7691TIP3   OH223029   3.075   5.534   1.110
 7691TIP3    H123030   3.057   5.595   1.039
 7691TIP3    H223031   3.170   5.542   1.125
 7692TIP3   OH223032   2.684   1.945   0.476
 7692TIP3    H123033   2.615   2.009   0.494
 7692TIP3    H223034   2.747   1.993   0.422
 7693TIP3   OH223035   6.808   0.377   6.687
 7693TIP3    H123036   6.778   0.438   6.755
 7693TIP3    H223037   6.729   0.333   6.657
 7694TIP3   OH223038   1.969   7.322   5.967
 7694TIP3    H123039   1.892   7.269   5.987
 7694TIP3    H223040   2.003   7.347   6.053
 7695TIP3   OH223041   2.334   2.526   1.304
 7695TIP3    H123042   2.389   2.454   1.274
 7695TIP3    H223043   2.359   2.540   1.395
 7696TIP3   OH223044   6.313   4.909   5.653
 7696TIP3    H123045   6.341   4.884   5.742
 7696TIP3    H223046   6.302   5.004   5.658
 7697TIP3   OH223047   5.542   5.121   5.568
 7697TIP3    H123048   5.564   5.176   5.643
 7697TIP3    H223049   5.529   5.034   5.606
 7698TIP3   OH223050   3.795   4.929   1.641
 7698TIP3    H123051   3.774   5.015   1.604
 7698TIP3    H223052   3.710   4.889   1.660
 7699TIP3   OH223053   6.545   2.123   5.182
 7699TIP3    H123054   6.631   2.144   5.146
 7699TIP3    H223055   6.487   2.116   5.106
 7700TIP3   OH223056   4.013   2.951   5.481
 7700TIP3    H123057   3.920   2.965   5.464
 7700TIP3    H223058   4.032   3.002   5.559
 7701TIP3   OH223059   7.628   6.926   5.198
 7701TIP3    H123060   7.563   6.905   5.130
 7701TIP3    H223061   7.692   6.981   5.153
 7702TIP3   OH223062   0.167   7.350   4.988
 7702TIP3    H123063   0.219   7.270   4.998
 7702TIP3    H223064   0.230   7.417   4.962
 7703TIP3   OH223065   3.834   2.916   0.047
 7703TIP3    H123066   3.758   2.858   0.043
 7703TIP3    H223067   3.910   2.858   0.038
 7704TIP3   OH223068   7.144   3.346   6.160
 7704TIP3    H123069   7.154   3.258   6.124
 7704TIP3    H223070   7.104   3.333   6.245
 7705TIP3   OH223071   0.778   5.835   3.102
 7705TIP3    H123072   0.824   5.858   3.022
 7705TIP3    H223073   0.847   5.804   3.161
 7706TIP3   OH223074   1.803   6.108   2.922
 7706TIP3    H123075   1.849   6.127   2.840
 7706TIP3    H223076   1.732   6.048   2.896
 7707TIP3   OH223077   6.813   2.932   1.987
 7707TIP3    H123078   6.875   2.995   1.949
 7707TIP3    H223079   6.748   2.986   2.032
 7708TIP3   OH223080   0.385   5.579   0.956
 7708TIP3    H123081   0.441   5.614   0.887
 7708TIP3    H223082   0.323   5.649   0.975
 7709TIP3   OH223083   0.797   1.176   1.077
 7709TIP3    H123084   0.846   1.152   0.998
 7709TIP3    H223085   0.812   1.270   1.088
 7710TIP3   OH223086   0.281   1.872   4.337
 7710TIP3    H123087   0.365   1.895   4.298
 7710TIP3    H223088   0.304   1.823   4.416
 7711TIP3   OH223089   0.026   4.169   1.641
 7711TIP3    H123090   0.006   4.076   1.647
 7711TIP3    H223091   0.114   4.172   1.604
 7712TIP3   OH223092   7.172   6.800   3.969
 7712TIP3    H123093   7.220   6.830   4.046
 7712TIP3    H223094   7.082   6.826   3.985
 7713TIP3   OH223095   6.266   4.234   3.804
 7713TIP3    H123096   6.270   4.267   3.715
 7713TIP3    H223097   6.202   4.290   3.848
 7714TIP3   OH223098   0.739   7.091   5.643
 7714TIP3    H123099   0.733   7.099   5.548
 7714TIP3    H223100   0.680   7.019   5.664
 7715TIP3   OH223101   3.439   0.941   0.873
 7715TIP3    H123102   3.441   0.974   0.783
 7715TIP3    H223103   3.397   0.856   0.867
 7716TIP3   OH223104   3.146   3.250   4.760
 7716TIP3    H123105   3.120   3.335   4.795
 7716TIP3    H223106   3.239   3.260   4.738
 7717TIP3   OH223107   0.069   3.536   5.697
 7717TIP3    H123108   0.052   3.483   5.619
 7717TIP3    H223109   0.113   3.476   5.757
 7718TIP3   OH223110   7.870   2.353   1.456
 7718TIP3    H123111   7.961   2.324   1.453
 7718TIP3    H223112   7.874   2.446   1.431
 7719TIP3   OH223113   4.685   4.028   1.889
 7719TIP3    H123114   4.779   4.018   1.875
 7719TIP3    H223115   4.670   3.997   1.979
 7720TIP3   OH223116   2.387   7.025   6.244
 7720TIP3    H123117   2.355   7.041   6.333
 7720TIP3    H223118   2.353   7.099   6.193
 7721TIP3   OH223119   1.933   2.287   1.483
 7721TIP3    H123120   2.008   2.265   1.427
 7721TIP3    H223121   1.950   2.376   1.512
 7722TIP3   OH223122   5.508   4.888   0.853
 7722TIP3    H123123   5.564   4.839   0.913
 7722TIP3    H223124   5.554   4.971   0.839
 7723TIP3   OH223125   3.775   5.164   5.643
 7723TIP3    H123126   3.846   5.107   5.669
 7723TIP3    H223127   3.729   5.116   5.574
 7724TIP3   OH223128   2.473   0.813   3.402
 7724TIP3    H123129   2.500   0.721   3.401
 7724TIP3    H223130   2.377   0.809   3.395
 7725TIP3   OH223131   4.713   5.604   5.973
 7725TIP3    H123132   4.776   5.566   5.912
 7725TIP3    H223133   4.701   5.536   6.040
 7726TIP3   OH223134   6.013   1.194   3.040
 7726TIP3    H123135   6.039   1.102   3.037
 7726TIP3    H223136   5.930   1.197   2.992
 7727TIP3   OH223137   3.684   7.479   0.400
 7727TIP3    H123138   3.750   7.541   0.370
 7727TIP3    H223139   3.728   7.428   0.468
 7728TIP3   OH223140   1.888   6.377   5.122
 7728TIP3    H123141   1.805   6.385   5.169
 7728TIP3    H223142   1.927   6.465   5.127
 7729TIP3   OH223143   0.671   2.429   2.373
 7729TIP3    H123144   0.587   2.461   2.340
 7729TIP3    H223145   0.724   2.416   2.295
 7730TIP3   OH223146   0.994   0.904   6.175
 7730TIP3    H123147   1.070   0.869   6.129
 7730TIP3    H223148   0.974   0.838   6.241
 7731TIP3   OH223149   6.200   0.089   3.940
 7731TIP3    H123150   6.221   0.024   3.873
 7731TIP3    H223151   6.225   0.047   4.022
 7732TIP3   OH223152   7.420   2.277   1.342
 7732TIP3    H123153   7.389   2.191   1.313
 7732TIP3    H223154   7.506   2.258   1.380
 7733TIP3   OH223155   8.285   7.428   6.622
 7733TIP3    H123156   8.210   7.431   6.562
 7733TIP3    H223157   8.346   7.367   6.581
 7734TIP3   OH223158   4.867   5.198   1.022
 7734TIP3    H123159   4.840   5.109   1.000
 7734TIP3    H223160   4.859   5.202   1.118
 7735TIP3   OH223161   5.374   5.435   0.218
 7735TIP3    H123162   5.375   5.353   0.266
 7735TIP3    H223163   5.416   5.498   0.277
 7736TIP3   OH223164   6.103   3.203   5.027
 7736TIP3    H123165   6.080   3.236   5.113
 7736TIP3    H223166   6.033   3.233   4.970
 7737TIP3   OH223167   2.642   3.099   5.010
 7737TIP3    H123168   2.675   3.153   5.081
 7737TIP3    H223169   2.702   3.024   5.007
 7738TIP3   OH223170   4.997   7.540   3.718
 7738TIP3    H123171   5.083   7.523   3.678
 7738TIP3    H223172   4.940   7.474   3.679
 7739TIP3   OH223173   2.567   5.376   5.083
 7739TIP3    H123174   2.564   5.469   5.105
 7739TIP3    H223175   2.643   5.342   5.129
 7740TIP3   OH223176   5.022   6.185   0.027
 7740TIP3    H123177   4.983   6.150  -0.053
 7740TIP3    H223178   4.983   6.134   0.098
 7741TIP3   OH223179   0.672   5.511   1.448
 7741TIP3    H123180   0.648   5.531   1.357
 7741TIP3    H223181   0.677   5.597   1.491
 7742TIP3   OH223182   1.795   3.776   2.505
 7742TIP3    H123183   1.807   3.754   2.413
 7742TIP3    H223184   1.833   3.863   2.514
 7743TIP3   OH223185   4.701   6.652   2.285
 7743TIP3    H123186   4.649   6.724   2.320
 7743TIP3    H223187   4.646   6.575   2.294
 7744TIP3   OH223188   5.631   7.759   1.444
 7744TIP3    H123189   5.707   7.744   1.501
 7744TIP3    H223190   5.669   7.789   1.361
 7745TIP3   OH223191   7.007   4.859   2.532
 7745TIP3    H123192   6.945   4.786   2.536
 7745TIP3    H223193   7.092   4.817   2.517
 7746TIP3   OH223194   2.398   0.893   2.113
 7746TIP3    H123195   2.378   0.813   2.162
 7746TIP3    H223196   2.471   0.932   2.161
 7747TIP3   OH223197   7.422   0.894   4.911
 7747TIP3    H123198   7.509   0.897   4.872
 7747TIP3    H223199   7.395   0.803   4.904
 7748TIP3   OH223200   3.445   0.259   5.033
 7748TIP3    H123201   3.365   0.229   4.990
 7748TIP3    H223202   3.510   0.191   5.013
 7749TIP3   OH223203   7.395   2.614   0.615
 7749TIP3    H123204   7.471   2.581   0.663
 7749TIP3    H223205   7.323   2.611   0.677
 7750TIP3   OH223206   2.299   0.224   3.654
 7750TIP3    H123207   2.247   0.246   3.577
 7750TIP3    H223208   2.390   0.228   3.623
 7751TIP3   OH223209   1.169   1.401   5.248
 7751TIP3    H123210   1.137   1.427   5.334
 7751TIP3    H223211   1.106   1.438   5.186
 7752TIP3   OH223212   4.405   2.085   1.725
 7752TIP3    H123213   4.495   2.078   1.759
 7752TIP3    H223214   4.365   2.001   1.748
 7753TIP3   OH223215   2.326   7.179   1.614
 7753TIP3    H123216   2.301   7.199   1.704
 7753TIP3    H223217   2.388   7.107   1.621
 7754TIP3   OH223218   0.067   6.927   3.992
 7754TIP3    H123219   0.157   6.896   3.985
 7754TIP3    H223220   0.027   6.903   3.908
 7755TIP3   OH223221   4.311   5.719   5.819
 7755TIP3    H123222   4.276   5.787   5.877
 7755TIP3    H223223   4.315   5.760   5.733
 7756TIP3   OH223224   1.952   2.037   3.124
 7756TIP3    H123225   1.916   1.972   3.064
 7756TIP3    H223226   2.038   2.004   3.149
 7757TIP3   OH223227   1.714   7.577   2.929
 7757TIP3    H123228   1.746   7.500   2.881
 7757TIP3    H223229   1.674   7.541   3.008
 7758TIP3   OH223230   7.222   1.829   3.681
 7758TIP3    H123231   7.167   1.792   3.751
 7758TIP3    H223232   7.220   1.762   3.612
 7759TIP3   OH223233   2.456   1.195   1.862
 7759TIP3    H123234   2.385   1.254   1.887
 7759TIP3    H223235   2.510   1.188   1.941
 7760TIP3   OH223236   6.156   6.852   6.092
 7760TIP3    H123237   6.072   6.807   6.086
 7760TIP3    H223238   6.144   6.931   6.040
 7761TIP3   OH223239   6.769   4.413   4.940
 7761TIP3    H123240   6.859   4.446   4.946
 7761TIP3    H223241   6.762   4.350   5.011
 7762TIP3   OH223242   7.048   4.490   5.641
 7762TIP3    H123243   7.071   4.438   5.564
 7762TIP3    H223244   7.119   4.472   5.704
 7763TIP3   OH223245   5.658   4.775   1.729
 7763TIP3    H123246   5.667   4.691   1.773
 7763TIP3    H223247   5.563   4.791   1.727
 7764TIP3   OH223248   1.438   1.315   4.203
 7764TIP3    H123249   1.419   1.232   4.245
 7764TIP3    H223250   1.532   1.312   4.184
 7765TIP3   OH223251   0.454   1.378   1.147
 7765TIP3    H123252   0.485   1.311   1.085
 7765TIP3    H223253   0.368   1.348   1.174
 7766TIP3   OH223254   7.709   6.164   2.033
 7766TIP3    H123255   7.749   6.232   2.087
 7766TIP3    H223256   7.618   6.190   2.025
 7767TIP3   OH223257   1.164   1.128   4.233
 7767TIP3    H123258   1.149   1.193   4.164
 7767TIP3    H223259   1.197   1.051   4.187
 7768TIP3   OH223260   2.343   7.397   5.619
 7768TIP3    H123261   2.259   7.426   5.654
 7768TIP3    H223262   2.374   7.471   5.568
 7769TIP3   OH223263   8.293   4.249   4.749
 7769TIP3    H123264   8.352   4.232   4.822
 7769TIP3    H223265   8.222   4.302   4.787
 7770TIP3   OH223266   5.099   1.381   3.011
 7770TIP3    H123267   5.130   1.447   3.073
 7770TIP3    H223268   5.023   1.420   2.969
 7771TIP3   OH223269   7.211   4.715   6.629
 7771TIP3    H123270   7.127   4.702   6.672
 7771TIP3    H223271   7.256   4.631   6.635
 7772TIP3   OH223272   6.079   1.785   6.739
 7772TIP3    H123273   6.069   1.765   6.646
 7772TIP3    H223274   6.018   1.858   6.754
 7773TIP3   OH223275   5.728   2.024   4.054
 7773TIP3    H123276   5.661   2.018   4.122
 7773TIP3    H223277   5.724   2.115   4.024
 7774TIP3   OH223278   1.246   7.826   2.965
 7774TIP3    H123279   1.236   7.743   3.011
 7774TIP3    H223280   1.162   7.871   2.978
 7775TIP3   OH223281   6.808   2.487   5.716
 7775TIP3    H123282   6.774   2.450   5.634
 7775TIP3    H223283   6.861   2.416   5.754
 7776TIP3   OH223284   0.126   7.437   6.136
 7776TIP3    H123285   0.161   7.360   6.092
 7776TIP3    H223286   0.203   7.489   6.159
 7777TIP3   OH223287   4.361   1.088   2.874
 7777TIP3    H123288   4.365   1.024   2.945
 7777TIP3    H223289   4.448   1.086   2.834
 7778TIP3   OH223290   3.964   1.352   3.836
 7778TIP3    H123291   3.907   1.285   3.874
 7778TIP3    H223292   3.906   1.428   3.824
 7779TIP3   OH223293   5.195   3.410   3.594
 7779TIP3    H123294   5.286   3.415   3.622
 7779TIP3    H223295   5.148   3.375   3.670
 7780TIP3   OH223296   6.526   4.211   5.287
 7780TIP3    H123297   6.501   4.125   5.252
 7780TIP3    H223298   6.611   4.229   5.246
 7781TIP3   OH223299   0.627   0.588   5.160
 7781TIP3    H123300   0.630   0.566   5.253
 7781TIP3    H223301   0.639   0.504   5.115
 7782TIP3   OH223302   0.689   7.828   0.408
 7782TIP3    H123303   0.625   7.820   0.479
 7782TIP3    H223304   0.649   7.780   0.335
 7783TIP3   OH223305   5.664   6.289   2.758
 7783TIP3    H123306   5.651   6.325   2.670
 7783TIP3    H223307   5.750   6.320   2.785
 7784TIP3   OH223308   2.563   6.402   3.417
 7784TIP3    H123309   2.639   6.401   3.476
 7784TIP3    H223310   2.601   6.415   3.330
 7785TIP3   OH223311   0.547   5.071   3.893
 7785TIP3    H123312   0.475   5.064   3.956
 7785TIP3    H223313   0.587   5.156   3.911
 7786TIP3   OH223314   0.109   1.626   5.925
 7786TIP3    H123315   0.064   1.695   5.877
 7786TIP3    H223316   0.040   1.564   5.949
 7787TIP3   OH223317   1.242   1.260   1.461
 7787TIP3    H123318   1.322   1.221   1.426
 7787TIP3    H223319   1.206   1.193   1.519
 7788TIP3   OH223320   0.610   6.941   0.427
 7788TIP3    H123321   0.610   6.940   0.331
 7788TIP3    H223322   0.566   7.024   0.450
 7789TIP3   OH223323   1.098   1.579   2.260
 7789TIP3    H123324   1.133   1.490   2.251
 7789TIP3    H223325   1.101   1.615   2.171
 7790TIP3   OH223326   6.487   6.492   2.849
 7790TIP3    H123327   6.477   6.460   2.759
 7790TIP3    H223328   6.397   6.500   2.881
 7791TIP3   OH223329   3.966   6.193   5.073
 7791TIP3    H123330   4.052   6.235   5.087
 7791TIP3    H223331   3.904   6.252   5.116
 7792TIP3   OH223332   6.184   7.081   2.341
 7792TIP3    H123333   6.247   7.099   2.271
 7792TIP3    H223334   6.181   6.986   2.348
 7793TIP3   OH223335   2.592   3.100   5.650
 7793TIP3    H123336   2.675   3.107   5.603
 7793TIP3    H223337   2.567   3.008   5.641
 7794TIP3   OH223338   1.719   2.890   1.171
 7794TIP3    H123339   1.814   2.893   1.179
 7794TIP3    H223340   1.686   2.902   1.260
 7795TIP3   OH223341   4.556   0.161   0.949
 7795TIP3    H123342   4.510   0.216   1.012
 7795TIP3    H223343   4.537   0.201   0.864
 7796TIP3   OH223344   8.162   0.580   1.262
 7796TIP3    H123345   8.244   0.553   1.221
 7796TIP3    H223346   8.187   0.609   1.350
 7797TIP3   OH223347   6.706   2.765   1.810
 7797TIP3    H123348   6.746   2.816   1.880
 7797TIP3    H223349   6.758   2.685   1.806
 7798TIP3   OH223350   4.595   0.365   4.203
 7798TIP3    H123351   4.540   0.319   4.266
 7798TIP3    H223352   4.553   0.450   4.191
 7799TIP3   OH223353   2.244   6.923   4.417
 7799TIP3    H123354   2.164   6.974   4.417
 7799TIP3    H223355   2.215   6.832   4.421
 7800TIP3   OH223356   7.358   0.727   5.417
 7800TIP3    H123357   7.274   0.689   5.442
 7800TIP3    H223358   7.335   0.806   5.368
 7801TIP3   OH223359   2.653   1.197   3.133
 7801TIP3    H123360   2.637   1.104   3.148
 7801TIP3    H223361   2.735   1.215   3.178
 7802TIP3   OH223362   5.416   0.210   3.707
 7802TIP3    H123363   5.344   0.147   3.712
 7802TIP3    H223364   5.495   0.155   3.703
 7803TIP3   OH223365   6.271   4.417   1.136
 7803TIP3    H123366   6.200   4.389   1.079
 7803TIP3    H223367   6.299   4.338   1.182
 7804TIP3   OH223368   2.425   6.889   1.066
 7804TIP3    H123369   2.511   6.931   1.064
 7804TIP3    H223370   2.371   6.942   1.007
 7805TIP3   OH223371   6.642   0.899   3.979
 7805TIP3    H123372   6.634   0.941   3.893
 7805TIP3    H223373   6.692   0.819   3.962
 7806TIP3   OH223374   2.687   7.769   1.770
 7806TIP3    H123375   2.726   7.811   1.693
 7806TIP3    H223376   2.709   7.827   1.843
 7807TIP3   OH223377   0.947   0.447   1.245
 7807TIP3    H123378   0.975   0.528   1.289
 7807TIP3    H223379   0.995   0.448   1.162
 7808TIP3   OH223380   3.146   1.182   3.372
 7808TIP3    H123381   3.199   1.157   3.296
 7808TIP3    H223382   3.186   1.137   3.446
 7809TIP3   OH223383   2.088   0.872   3.073
 7809TIP3    H123384   2.009   0.898   3.025
 7809TIP3    H223385   2.069   0.783   3.104
 7810TIP3   OH223386   7.102   3.075   4.346
 7810TIP3    H123387   7.016   3.056   4.384
 7810TIP3    H223388   7.127   2.993   4.303
 7811TIP3   OH223389   4.438   2.838   2.785
 7811TIP3    H123390   4.508   2.864   2.846
 7811TIP3    H223391   4.482   2.823   2.702
 7812TIP3   OH223392   5.085   4.619   0.272
 7812TIP3    H123393   5.063   4.665   0.191
 7812TIP3    H223394   5.105   4.688   0.335
 7813TIP3   OH223395   8.065   7.693   5.851
 7813TIP3    H123396   8.099   7.665   5.766
 7813TIP3    H223397   8.086   7.620   5.910
 7814TIP3   OH223398   1.759   7.460   6.703
 7814TIP3    H123399   1.679   7.450   6.651
 7814TIP3    H223400   1.789   7.370   6.719
 7815TIP3   OH223401   7.456   4.190   3.270
 7815TIP3    H123402   7.507   4.262   3.307
 7815TIP3    H223403   7.493   4.112   3.309
 7816TIP3   OH223404   5.249   0.579   0.624
 7816TIP3    H123405   5.155   0.569   0.636
 7816TIP3    H223406   5.267   0.670   0.647
 7817TIP3   OH223407   8.199   6.349   2.887
 7817TIP3    H123408   8.222   6.401   2.964
 7817TIP3    H223409   8.105   6.332   2.897
 7818TIP3   OH223410   0.926   5.972   1.415
 7818TIP3    H123411   0.845   5.984   1.366
 7818TIP3    H223412   0.915   5.889   1.460
 7819TIP3   OH223413   0.670   5.580   3.025
 7819TIP3    H123414   0.723   5.647   3.068
 7819TIP3    H223415   0.588   5.624   3.004
 7820TIP3   OH223416   2.590   1.003   2.872
 7820TIP3    H123417   2.518   1.004   2.810
 7820TIP3    H223418   2.549   0.993   2.958
 7821TIP3   OH223419   2.062   5.878   1.884
 7821TIP3    H123420   2.041   5.798   1.835
 7821TIP3    H223421   2.014   5.868   1.966
 7822TIP3   OH223422   1.604   3.400   2.778
 7822TIP3    H123423   1.692   3.369   2.798
 7822TIP3    H223424   1.575   3.344   2.706
 7823TIP3   OH223425   6.000   2.699   4.697
 7823TIP3    H123426   6.080   2.721   4.744
 7823TIP3    H223427   5.955   2.637   4.755
 7824TIP3   OH223428   7.483   0.114   3.816
 7824TIP3    H123429   7.526   0.105   3.731
 7824TIP3    H223430   7.544   0.076   3.879
 7825TIP3   OH223431   4.588   2.886   3.232
 7825TIP3    H123432   4.656   2.952   3.241
 7825TIP3    H223433   4.565   2.889   3.139
 7826TIP3   OH223434   1.314   7.468   3.712
 7826TIP3    H123435   1.354   7.552   3.691
 7826TIP3    H223436   1.243   7.459   3.648
 7827TIP3   OH223437   4.921   0.827   4.148
 7827TIP3    H123438   4.962   0.741   4.136
 7827TIP3    H223439   4.979   0.888   4.103
 7828TIP3   OH223440   4.020   3.477   2.703
 7828TIP3    H123441   3.998   3.502   2.613
 7828TIP3    H223442   4.033   3.560   2.748
 7829TIP3   OH223443   1.977   1.042   2.536
 7829TIP3    H123444   1.925   1.105   2.487
 7829TIP3    H223445   2.067   1.060   2.510
 7830TIP3   OH223446   1.633   4.731   0.960
 7830TIP3    H123447   1.629   4.712   1.054
 7830TIP3    H223448   1.626   4.645   0.918
 7831TIP3   OH223449   3.843   3.627   0.624
 7831TIP3    H123450   3.882   3.714   0.611
 7831TIP3    H223451   3.869   3.577   0.547
 7832TIP3   OH223452   8.122   7.404   6.414
 7832TIP3    H123453   8.032   7.428   6.435
 7832TIP3    H223454   8.147   7.463   6.343
 7833TIP3   OH223455   6.076   1.743   5.450
 7833TIP3    H123456   6.172   1.750   5.450
 7833TIP3    H223457   6.058   1.658   5.409
 7834TIP3   OH223458   0.175   1.418   3.971
 7834TIP3    H123459   0.141   1.489   4.025
 7834TIP3    H223460   0.154   1.443   3.881
 7835TIP3   OH223461   1.121   7.824   1.050
 7835TIP3    H123462   1.209   7.813   1.087
 7835TIP3    H223463   1.062   7.807   1.124
 7836TIP3   OH223464   8.302   2.925   4.504
 7836TIP3    H123465   8.230   2.984   4.483
 7836TIP3    H223466   8.381   2.976   4.485
 7837TIP3   OH223467   1.298   5.130   2.954
 7837TIP3    H123468   1.315   5.037   2.947
 7837TIP3    H223469   1.360   5.171   2.894
 7838TIP3   OH223470   1.751   1.510   2.929
 7838TIP3    H123471   1.834   1.465   2.944
 7838TIP3    H223472   1.772   1.580   2.867
 7839TIP3   OH223473   8.161   0.719   5.553
 7839TIP3    H123474   8.110   0.669   5.617
 7839TIP3    H223475   8.233   0.756   5.604
 7840TIP3   OH223476   2.902   1.696   5.708
 7840TIP3    H123477   2.850   1.769   5.675
 7840TIP3    H223478   2.912   1.713   5.801
 7841TIP3   OH223479   5.671   6.801   3.825
 7841TIP3    H123480   5.722   6.748   3.886
 7841TIP3    H223481   5.693   6.766   3.739
 7842TIP3   OH223482   2.665   3.919   1.767
 7842TIP3    H123483   2.604   3.936   1.696
 7842TIP3    H223484   2.736   3.983   1.753
 7843TIP3   OH223485   3.034   7.450   5.833
 7843TIP3    H123486   3.000   7.361   5.838
 7843TIP3    H223487   3.110   7.443   5.775
 7844TIP3   OH223488   7.572   2.240   5.046
 7844TIP3    H123489   7.591   2.206   4.959
 7844TIP3    H223490   7.592   2.333   5.041
 7845TIP3   OH223491   6.561   0.460   4.498
 7845TIP3    H123492   6.554   0.395   4.429
 7845TIP3    H223493   6.642   0.438   4.544
 7846TIP3   OH223494   5.107   6.460   0.089
 7846TIP3    H123495   5.069   6.375   0.067
 7846TIP3    H223496   5.145   6.447   0.176
 7847TIP3   OH223497   6.839   7.698   1.043
 7847TIP3    H123498   6.931   7.677   1.025
 7847TIP3    H223499   6.843   7.766   1.111
 7848TIP3   OH223500   1.142   3.454   2.868
 7848TIP3    H123501   1.146   3.364   2.834
 7848TIP3    H223502   1.234   3.482   2.871
 7849TIP3   OH223503   4.882   3.492   5.405
 7849TIP3    H123504   4.966   3.475   5.447
 7849TIP3    H223505   4.839   3.555   5.462
 7850TIP3   OH223506   0.269   1.965   1.897
 7850TIP3    H123507   0.263   2.031   1.967
 7850TIP3    H223508   0.230   1.886   1.935
 7851TIP3   OH223509   1.722   7.219   6.035
 7851TIP3    H123510   1.751   7.129   6.022
 7851TIP3    H223511   1.634   7.211   6.072
 7852TIP3   OH223512   7.769   4.569   0.055
 7852TIP3    H123513   7.720   4.509   0.112
 7852TIP3    H223514   7.806   4.634   0.115
 7853TIP3   OH223515   1.759   7.605   2.571
 7853TIP3    H123516   1.696   7.634   2.505
 7853TIP3    H223517   1.844   7.618   2.531
 7854TIP3   OH223518   2.957   3.046   2.781
 7854TIP3    H123519   2.927   2.955   2.782
 7854TIP3    H223520   2.882   3.097   2.810
 7855TIP3   OH223521   1.553   6.626   4.639
 7855TIP3    H123522   1.537   6.541   4.679
 7855TIP3    H223523   1.646   6.626   4.616
 7856TIP3   OH223524   4.502   5.826   0.940
 7856TIP3    H123525   4.547   5.812   1.023
 7856TIP3    H223526   4.510   5.741   0.895
 7857TIP3   OH223527   1.662   6.017   4.591
 7857TIP3    H123528   1.684   5.957   4.662
 7857TIP3    H223529   1.705   6.099   4.614
 7858TIP3   OH223530   2.125   4.353   4.818
 7858TIP3    H123531   2.174   4.272   4.809
 7858TIP3    H223532   2.041   4.335   4.775
 7859TIP3   OH223533   0.402   5.124   2.779
 7859TIP3    H123534   0.478   5.178   2.800
 7859TIP3    H223535   0.334   5.188   2.757
 7860TIP3   OH223536   5.825   5.569   0.056
 7860TIP3    H123537   5.885   5.562  -0.018
 7860TIP3    H223538   5.849   5.651   0.098
 7861TIP3   OH223539   6.216   3.977   5.104
 7861TIP3    H123540   6.293   4.016   5.061
 7861TIP3    H223541   6.250   3.897   5.145
 7862TIP3   OH223542   2.931   3.431   1.382
 7862TIP3    H123543   2.844   3.467   1.366
 7862TIP3    H223544   2.950   3.452   1.474
 7863TIP3   OH223545   0.755   3.846   6.266
 7863TIP3    H123546   0.837   3.831   6.314
 7863TIP3    H223547   0.781   3.847   6.174
 7864TIP3   OH223548   4.734   6.727   1.278
 7864TIP3    H123549   4.723   6.648   1.331
 7864TIP3    H223550   4.712   6.799   1.338
 7865TIP3   OH223551   7.430   5.964   6.419
 7865TIP3    H123552   7.451   5.998   6.332
 7865TIP3    H223553   7.457   6.034   6.479
 7866TIP3   OH223554   0.803   6.612   3.377
 7866TIP3    H123555   0.749   6.642   3.450
 7866TIP3    H223556   0.759   6.533   3.345
 7867TIP3   OH223557   1.999   1.440   1.098
 7867TIP3    H123558   2.068   1.506   1.091
 7867TIP3    H223559   1.961   1.455   1.185
 7868TIP3   OH223560   3.176   1.081   2.723
 7868TIP3    H123561   3.167   1.159   2.777
 7868TIP3    H223562   3.267   1.053   2.736
 7869TIP3   OH223563   6.159   5.030   4.823
 7869TIP3    H123564   6.231   4.971   4.845
 7869TIP3    H223565   6.186   5.114   4.860
 7870TIP3   OH223566   3.163   0.645   5.833
 7870TIP3    H123567   3.208   0.669   5.752
 7870TIP3    H223568   3.157   0.727   5.883
 7871TIP3   OH223569   6.264   1.227   3.443
 7871TIP3    H123570   6.177   1.186   3.450
 7871TIP3    H223571   6.316   1.183   3.509
 7872TIP3   OH223572   6.031   0.831   1.727
 7872TIP3    H123573   6.008   0.807   1.816
 7872TIP3    H223574   6.126   0.845   1.729
 7873TIP3   OH223575   0.946   3.036   1.759
 7873TIP3    H123576   0.886   3.000   1.824
 7873TIP3    H223577   1.033   3.008   1.788
 7874TIP3   OH223578   1.729   2.443   2.356
 7874TIP3    H123579   1.737   2.368   2.296
 7874TIP3    H223580   1.634   2.455   2.365
 7875TIP3   OH223581   6.244   6.768   0.098
 7875TIP3    H123582   6.275   6.788   0.009
 7875TIP3    H223583   6.210   6.852   0.130
 7876TIP3   OH223584   1.574   1.279   0.707
 7876TIP3    H123585   1.620   1.198   0.686
 7876TIP3    H223586   1.610   1.343   0.646
 7877TIP3   OH223587   4.543   6.040   3.514
 7877TIP3    H123588   4.448   6.034   3.503
 7877TIP3    H223589   4.555   6.072   3.603
 7878TIP3   OH223590   7.896   3.246   3.441
 7878TIP3    H123591   7.935   3.220   3.524
 7878TIP3    H223592   7.806   3.214   3.446
 7879TIP3   OH223593   5.977   0.687   0.276
 7879TIP3    H123594   6.022   0.608   0.305
 7879TIP3    H223595   5.929   0.659   0.197
 7880TIP3   OH223596   7.665   7.461   3.833
 7880TIP3    H123597   7.584   7.414   3.814
 7880TIP3    H223598   7.640   7.528   3.897
 7881TIP3   OH223599   7.483   7.690   2.154
 7881TIP3    H123600   7.496   7.658   2.243
 7881TIP3    H223601   7.560   7.745   2.137
 7882TIP3   OH223602   2.997   7.076   0.981
 7882TIP3    H123603   3.071   7.102   0.927
 7882TIP3    H223604   2.961   7.159   1.013
 7883TIP3   OH223605   4.991   0.951   4.930
 7883TIP3    H123606   5.026   0.956   5.019
 7883TIP3    H223607   5.010   1.037   4.892
 7884TIP3   OH223608   7.174   2.234   2.950
 7884TIP3    H123609   7.191   2.212   3.042
 7884TIP3    H223610   7.246   2.195   2.902
 7885TIP3   OH223611   5.903   0.875   1.286
 7885TIP3    H123612   5.981   0.923   1.312
 7885TIP3    H223613   5.869   0.837   1.367
 7886TIP3   OH223614   7.251   5.666   5.600
 7886TIP3    H123615   7.217   5.614   5.673
 7886TIP3    H223616   7.321   5.719   5.639
 7887TIP3   OH223617   6.166   7.821   5.197
 7887TIP3    H123618   6.080   7.803   5.158
 7887TIP3    H223619   6.193   7.738   5.236
 7888TIP3   OH223620   0.365   4.439   3.182
 7888TIP3    H123621   0.309   4.493   3.127
 7888TIP3    H223622   0.314   4.360   3.199
 7889TIP3   OH223623   5.388   2.276   6.523
 7889TIP3    H123624   5.437   2.275   6.441
 7889TIP3    H223625   5.298   2.258   6.498
 7890TIP3   OH223626   7.913   7.583   6.303
 7890TIP3    H123627   7.925   7.562   6.211
 7890TIP3    H223628   7.895   7.677   6.304
 7891TIP3   OH223629   1.802   3.592   5.743
 7891TIP3    H123630   1.896   3.606   5.754
 7891TIP3    H223631   1.765   3.619   5.827
 7892TIP3   OH223632   5.437   1.187   2.285
 7892TIP3    H123633   5.365   1.249   2.272
 7892TIP3    H223634   5.511   1.242   2.308
 7893TIP3   OH223635   8.188   1.284   1.778
 7893TIP3    H123636   8.102   1.308   1.813
 7893TIP3    H223637   8.210   1.203   1.824
 7894TIP3   OH223638   5.381   2.526   0.146
 7894TIP3    H123639   5.453   2.465   0.132
 7894TIP3    H223640   5.329   2.520   0.066
 7895TIP3   OH223641   4.047   4.198   0.702
 7895TIP3    H123642   4.047   4.135   0.774
 7895TIP3    H223643   4.072   4.281   0.743
 7896TIP3   OH223644   6.602   5.208   2.218
 7896TIP3    H123645   6.642   5.154   2.150
 7896TIP3    H223646   6.517   5.167   2.235
 7897TIP3   OH223647   8.154   6.533   3.123
 7897TIP3    H123648   8.184   6.602   3.063
 7897TIP3    H223649   8.076   6.569   3.163
 7898TIP3   OH223650   6.765   3.445   2.421
 7898TIP3    H123651   6.704   3.465   2.493
 7898TIP3    H223652   6.792   3.355   2.437
 7899TIP3   OH223653   1.376   7.508   0.763
 7899TIP3    H123654   1.427   7.455   0.702
 7899TIP3    H223655   1.370   7.594   0.721
 7900TIP3   OH223656   6.737   0.463   2.587
 7900TIP3    H123657   6.680   0.420   2.523
 7900TIP3    H223658   6.688   0.540   2.615
 7901TIP3   OH223659   4.975   6.827   4.980
 7901TIP3    H123660   4.897   6.874   5.010
 7901TIP3    H223661   4.941   6.759   4.922
 7902TIP3   OH223662   3.864   4.173   0.293
 7902TIP3    H123663   3.903   4.197   0.209
 7902TIP3    H223664   3.886   4.080   0.304
 7903TIP3   OH223665   1.935   5.091   4.774
 7903TIP3    H123666   1.898   5.177   4.753
 7903TIP3    H223667   1.893   5.031   4.712
 7904TIP3   OH223668   4.124   1.760   1.601
 7904TIP3    H123669   4.039   1.729   1.631
 7904TIP3    H223670   4.176   1.681   1.589
 7905TIP3   OH223671   0.109   0.503   4.574
 7905TIP3    H123672   0.133   0.535   4.487
 7905TIP3    H223673   0.193   0.485   4.617
 7906TIP3   OH223674   3.909   6.031   1.401
 7906TIP3    H123675   3.817   6.011   1.418
 7906TIP3    H223676   3.923   6.118   1.439
 7907TIP3   OH223677   0.166   0.503   1.694
 7907TIP3    H123678   0.154   0.409   1.710
 7907TIP3    H223679   0.187   0.509   1.601
 7908TIP3   OH223680   3.015   4.240   2.966
 7908TIP3    H123681   3.069   4.238   3.046
 7908TIP3    H223682   3.078   4.257   2.896
 7909TIP3   OH223683   8.279   2.267   2.340
 7909TIP3    H123684   8.240   2.184   2.367
 7909TIP3    H223685   8.373   2.255   2.351
 7910TIP3   OH223686   1.675   6.100   1.599
 7910TIP3    H123687   1.675   6.018   1.549
 7910TIP3    H223688   1.761   6.102   1.641
 7911TIP3   OH223689   5.569   0.180   5.617
 7911TIP3    H123690   5.574   0.245   5.547
 7911TIP3    H223691   5.646   0.197   5.671
 7912TIP3   OH223692   3.174   3.572   1.561
 7912TIP3    H123693   3.249   3.521   1.533
 7912TIP3    H223694   3.182   3.656   1.517
 7913TIP3   OH223695   5.178   7.621   4.147
 7913TIP3    H123696   5.097   7.593   4.190
 7913TIP3    H223697   5.150   7.681   4.078
 7914TIP3   OH223698   7.397   5.924   5.716
 7914TIP3    H123699   7.486   5.958   5.715
 7914TIP3    H223700   7.379   5.905   5.808
 7915TIP3   OH223701   0.227   6.362   4.328
 7915TIP3    H123702   0.222   6.450   4.292
 7915TIP3    H223703   0.169   6.310   4.271
 7916TIP3   OH223704   1.519   0.034   3.249
 7916TIP3    H123705   1.515   0.110   3.190
 7916TIP3    H223706   1.471  -0.035   3.203
 7917TIP3   OH223707   1.316   4.083   0.123
 7917TIP3    H123708   1.280   4.151   0.066
 7917TIP3    H223709   1.370   4.029   0.065
 7918TIP3   OH223710   5.475   6.760   6.134
 7918TIP3    H123711   5.539   6.757   6.063
 7918TIP3    H223712   5.523   6.795   6.209
 7919TIP3   OH223713   6.536   5.375   3.024
 7919TIP3    H123714   6.575   5.367   3.111
 7919TIP3    H223715   6.512   5.285   3.000
 7920TIP3   OH223716   3.591   2.269   5.954
 7920TIP3    H123717   3.604   2.262   5.859
 7920TIP3    H223718   3.677   2.250   5.991
 7921TIP3   OH223719   3.676   0.685   1.411
 7921TIP3    H123720   3.771   0.674   1.400
 7921TIP3    H223721   3.645   0.600   1.441
 7922TIP3   OH223722   5.419   2.775   2.399
 7922TIP3    H123723   5.343   2.737   2.355
 7922TIP3    H223724   5.467   2.699   2.434
 7923TIP3   OH223725   2.551   0.079   2.492
 7923TIP3    H123726   2.523   0.108   2.405
 7923TIP3    H223727   2.497   0.130   2.553
 7924TIP3   OH223728   2.194   1.714   3.527
 7924TIP3    H123729   2.268   1.704   3.467
 7924TIP3    H223730   2.125   1.754   3.475
 7925TIP3   OH223731   1.048   4.331   1.059
 7925TIP3    H123732   0.963   4.291   1.041
 7925TIP3    H223733   1.048   4.347   1.153
 7926TIP3   OH223734   5.907   2.489   2.176
 7926TIP3    H123735   5.929   2.557   2.240
 7926TIP3    H223736   5.848   2.533   2.114
 7927TIP3   OH223737   5.911   6.437   5.985
 7927TIP3    H123738   5.935   6.378   6.057
 7927TIP3    H223739   5.819   6.416   5.966
 7928TIP3   OH223740   6.283   5.200   2.316
 7928TIP3    H123741   6.243   5.274   2.271
 7928TIP3    H223742   6.318   5.238   2.397
 7929TIP3   OH223743   1.176   5.969   6.139
 7929TIP3    H123744   1.100   5.914   6.121
 7929TIP3    H223745   1.140   6.053   6.166
 7930TIP3   OH223746   3.383   2.828   2.816
 7930TIP3    H123747   3.349   2.873   2.738
 7930TIP3    H223748   3.364   2.887   2.888
 7931TIP3   OH223749   3.744   6.581   2.277
 7931TIP3    H123750   3.700   6.511   2.325
 7931TIP3    H223751   3.821   6.602   2.329
 7932TIP3   OH223752   7.442   1.500   4.769
 7932TIP3    H123753   7.411   1.520   4.857
 7932TIP3    H223754   7.404   1.414   4.749
 7933TIP3   OH223755   0.785   5.877   6.742
 7933TIP3    H123756   0.736   5.918   6.813
 7933TIP3    H223757   0.772   5.783   6.756
 7934TIP3   OH223758   1.736   1.637   0.628
 7934TIP3    H123759   1.707   1.550   0.602
 7934TIP3    H223760   1.743   1.633   0.724
 7935TIP3   OH223761   3.676   0.674   4.842
 7935TIP3    H123762   3.646   0.585   4.861
 7935TIP3    H223763   3.647   0.726   4.917
 7936TIP3   OH223764   6.849   3.902   2.631
 7936TIP3    H123765   6.843   3.995   2.611
 7936TIP3    H223766   6.844   3.898   2.726
 7937TIP3   OH223767   5.915   2.397   1.532
 7937TIP3    H123768   5.838   2.414   1.479
 7937TIP3    H223769   5.916   2.468   1.597
 7938TIP3   OH223770   5.528   7.820   4.950
 7938TIP3    H123771   5.475   7.746   4.922
 7938TIP3    H223772   5.477   7.860   5.021
 7939TIP3   OH223773   7.036   0.510   6.612
 7939TIP3    H123774   6.968   0.451   6.647
 7939TIP3    H223775   7.038   0.583   6.673
 7940TIP3   OH223776   1.850   3.554   3.998
 7940TIP3    H123777   1.891   3.473   3.966
 7940TIP3    H223778   1.807   3.528   4.079
 7941TIP3   OH223779   4.476   0.285   0.235
 7941TIP3    H123780   4.513   0.210   0.283
 7941TIP3    H223781   4.427   0.333   0.301
 7942TIP3   OH223782   5.537   7.705   6.590
 7942TIP3    H123783   5.555   7.638   6.656
 7942TIP3    H223784   5.562   7.787   6.632
 7943TIP3   OH223785   8.030   4.473   3.069
 7943TIP3    H123786   8.096   4.420   3.023
 7943TIP3    H223787   8.067   4.486   3.156
 7944TIP3   OH223788   3.829   1.344   1.809
 7944TIP3    H123789   3.864   1.255   1.803
 7944TIP3    H223790   3.815   1.371   1.718
 7945TIP3   OH223791   1.427   0.276   0.944
 7945TIP3    H123792   1.419   0.269   1.039
 7945TIP3    H223793   1.482   0.202   0.919
 7946TIP3   OH223794   4.087   3.051   4.513
 7946TIP3    H123795   4.166   3.023   4.466
 7946TIP3    H223796   4.033   3.093   4.446
 7947TIP3   OH223797   5.137   3.122   3.432
 7947TIP3    H123798   5.112   3.071   3.509
 7947TIP3    H223799   5.133   3.213   3.462
 7948TIP3   OH223800   7.399   4.387   4.334
 7948TIP3    H123801   7.453   4.333   4.277
 7948TIP3    H223802   7.322   4.409   4.282
 7949TIP3   OH223803   6.085   3.605   2.608
 7949TIP3    H123804   6.123   3.693   2.609
 7949TIP3    H223805   6.147   3.551   2.656
 7950TIP3   OH223806   7.783   4.277   4.366
 7950TIP3    H123807   7.831   4.194   4.355
 7950TIP3    H223808   7.852   4.342   4.381
 7951TIP3   OH223809   3.674   3.889   1.352
 7951TIP3    H123810   3.702   3.963   1.298
 7951TIP3    H223811   3.747   3.828   1.349
 7952TIP3   OH223812   4.415   1.364   5.007
 7952TIP3    H123813   4.453   1.396   4.926
 7952TIP3    H223814   4.428   1.436   5.069
 7953TIP3   OH223815   3.185   4.432   4.060
 7953TIP3    H123816   3.238   4.493   4.008
 7953TIP3    H223817   3.174   4.355   4.004
 7954TIP3   OH223818   4.831   2.603   6.735
 7954TIP3    H123819   4.904   2.636   6.788
 7954TIP3    H223820   4.844   2.642   6.649
 7955TIP3   OH223821   7.248   6.378   6.518
 7955TIP3    H123822   7.253   6.378   6.613
 7955TIP3    H223823   7.224   6.288   6.495
 7956TIP3   OH223824   6.655   1.371   0.450
 7956TIP3    H123825   6.677   1.342   0.539
 7956TIP3    H223826   6.679   1.464   0.450
 7957TIP3   OH223827   5.407   4.848   2.182
 7957TIP3    H123828   5.405   4.865   2.276
 7957TIP3    H223829   5.480   4.901   2.150
 7958TIP3   OH223830   7.388   1.348   5.782
 7958TIP3    H123831   7.312   1.353   5.840
 7958TIP3    H223832   7.454   1.303   5.834
 7959TIP3   OH223833   4.099   7.665   0.525
 7959TIP3    H123834   4.173   7.629   0.476
 7959TIP3    H223835   4.138   7.728   0.586
 7960TIP3   OH223836   6.817   3.109   0.701
 7960TIP3    H123837   6.729   3.134   0.728
 7960TIP3    H223838   6.852   3.057   0.773
 7961TIP3   OH223839   8.210   6.152   0.020
 7961TIP3    H123840   8.184   6.183  -0.067
 7961TIP3    H223841   8.306   6.147   0.015
 7962TIP3   OH223842   1.516   6.560   0.781
 7962TIP3    H123843   1.521   6.622   0.708
 7962TIP3    H223844   1.510   6.474   0.739
 7963TIP3   OH223845   7.920   1.909   4.578
 7963TIP3    H123846   7.976   1.832   4.572
 7963TIP3    H223847   7.975   1.975   4.620
 7964TIP3   OH223848   1.159   6.567   0.334
 7964TIP3    H123849   1.122   6.609   0.411
 7964TIP3    H223850   1.192   6.483   0.366
 7965TIP3   OH223851   6.401   6.444   0.394
 7965TIP3    H123852   6.431   6.525   0.436
 7965TIP3    H223853   6.417   6.459   0.300
 7966TIP3   OH223854   4.159   5.132   3.604
 7966TIP3    H123855   4.081   5.141   3.549
 7966TIP3    H223856   4.170   5.037   3.615
 7967TIP3   OH223857   6.591   5.300   5.207
 7967TIP3    H123858   6.569   5.361   5.137
 7967TIP3    H223859   6.686   5.309   5.218
 7968TIP3   OH223860   7.911   4.839   4.065
 7968TIP3    H123861   7.832   4.842   4.120
 7968TIP3    H223862   7.982   4.818   4.125
 7969TIP3   OH223863   3.877   7.149   2.183
 7969TIP3    H123864   3.800   7.124   2.132
 7969TIP3    H223865   3.910   7.067   2.219
 7970TIP3   OH223866   7.239   7.572   4.607
 7970TIP3    H123867   7.221   7.663   4.583
 7970TIP3    H223868   7.154   7.529   4.602
 7971TIP3   OH223869   4.929   3.947   0.092
 7971TIP3    H123870   4.872   4.023   0.108
 7971TIP3    H223871   4.983   3.941   0.171
 7972TIP3   OH223872   3.440   5.939   6.612
 7972TIP3    H123873   3.416   5.847   6.624
 7972TIP3    H223874   3.378   5.972   6.548
 7973TIP3   OH223875   1.393   5.742   2.880
 7973TIP3    H123876   1.343   5.720   2.801
 7973TIP3    H223877   1.433   5.659   2.907
 7974TIP3   OH223878   1.032   0.501   4.482
 7974TIP3    H123879   1.005   0.586   4.516
 7974TIP3    H223880   0.954   0.466   4.439
 7975TIP3   OH223881   0.428   1.626   0.733
 7975TIP3    H123882   0.362   1.566   0.769
 7975TIP3    H223883   0.496   1.568   0.698
 7976TIP3   OH223884   2.038   7.614   5.124
 7976TIP3    H123885   1.966   7.594   5.064
 7976TIP3    H223886   2.009   7.694   5.169
 7977TIP3   OH223887   3.593   0.998   3.015
 7977TIP3    H123888   3.552   0.940   3.079
 7977TIP3    H223889   3.610   1.079   3.063
 7978TIP3   OH223890   8.162   6.747   5.683
 7978TIP3    H123891   8.201   6.739   5.596
 7978TIP3    H223892   8.068   6.744   5.668
 7979TIP3   OH223893   2.282   1.061   3.022
 7979TIP3    H123894   2.215   0.998   3.049
 7979TIP3    H223895   2.317   1.097   3.103
 7980TIP3   OH223896   7.398   3.447   2.698
 7980TIP3    H123897   7.357   3.516   2.647
 7980TIP3    H223898   7.324   3.401   2.739
 7981TIP3   OH223899   1.133   7.180   4.468
 7981TIP3    H123900   1.192   7.249   4.438
 7981TIP3    H223901   1.137   7.184   4.563
 7982TIP3   OH223902   7.270   6.797   1.310
 7982TIP3    H123903   7.227   6.732   1.254
 7982TIP3    H223904   7.199   6.850   1.345
 7983TIP3   OH223905   2.595   0.931   3.190
 7983TIP3    H123906   2.550   0.857   3.150
 7983TIP3    H223907   2.585   0.917   3.284
 7984TIP3   OH223908   1.169   5.589   5.792
 7984TIP3    H123909   1.172   5.513   5.850
 7984TIP3    H223910   1.088   5.634   5.815
 7985TIP3   OH223911   1.071   4.779   0.779
 7985TIP3    H123912   1.078   4.717   0.706
 7985TIP3    H223913   1.024   4.731   0.847
 7986TIP3   OH223914   0.804   0.013   4.498
 7986TIP3    H123915   0.791   0.059   4.415
 7986TIP3    H223916   0.854   0.075   4.552
 7987TIP3   OH223917   3.860   5.566   4.332
 7987TIP3    H123918   3.954   5.568   4.318
 7987TIP3    H223919   3.835   5.476   4.310
 7988TIP3   OH223920   7.264   2.961   6.624
 7988TIP3    H123921   7.203   2.988   6.555
 7988TIP3    H223922   7.341   3.016   6.611
 7989TIP3   OH223923   7.938   7.717   2.297
 7989TIP3    H123924   7.945   7.668   2.216
 7989TIP3    H223925   8.001   7.676   2.356
 7990TIP3   OH223926   6.249   0.907   5.231
 7990TIP3    H123927   6.298   0.834   5.271
 7990TIP3    H223928   6.316   0.973   5.211
 7991TIP3   OH223929   1.450   5.355   0.292
 7991TIP3    H123930   1.453   5.361   0.387
 7991TIP3    H223931   1.427   5.264   0.273
 7992TIP3   OH223932   6.337   6.623   4.809
 7992TIP3    H123933   6.413   6.576   4.775
 7992TIP3    H223934   6.339   6.608   4.903
 7993TIP3   OH223935   7.831   3.986   0.252
 7993TIP3    H123936   7.818   3.892   0.237
 7993TIP3    H223937   7.753   4.027   0.214
 7994TIP3   OH223938   6.115   1.268   6.451
 7994TIP3    H123939   6.080   1.317   6.377
 7994TIP3    H223940   6.053   1.284   6.522
 7995TIP3   OH223941   5.652   4.775   3.811
 7995TIP3    H123942   5.694   4.691   3.795
 7995TIP3    H223943   5.632   4.810   3.724
 7996TIP3   OH223944   2.056   5.542   4.790
 7996TIP3    H123945   2.046   5.542   4.695
 7996TIP3    H223946   1.968   5.522   4.823
 7997TIP3   OH223947   7.764   7.027   6.409
 7997TIP3    H123948   7.803   7.104   6.368
 7997TIP3    H223949   7.677   7.057   6.438
 7998TIP3   OH223950   2.869   1.436   5.735
 7998TIP3    H123951   2.874   1.531   5.722
 7998TIP3    H223952   2.884   1.399   5.648
 7999TIP3   OH223953   7.637   0.292   3.321
 7999TIP3    H123954   7.545   0.296   3.294
 7999TIP3    H223955   7.641   0.346   3.400
 8000TIP3   OH223956   7.550   4.608   5.736
 8000TIP3    H123957   7.544   4.698   5.704
 8000TIP3    H223958   7.511   4.611   5.823
 8001TIP3   OH223959   7.149   4.636   1.923
 8001TIP3    H123960   7.087   4.646   1.995
 8001TIP3    H223961   7.094   4.614   1.847
 8002TIP3   OH223962   2.257   2.821   6.306
 8002TIP3    H123963   2.296   2.734   6.299
 8002TIP3    H223964   2.331   2.879   6.327
 8003TIP3   OH223965   7.709   5.944   6.126
 8003TIP3    H123966   7.752   5.895   6.055
 8003TIP3    H223967   7.641   5.994   6.082
 8004TIP3   OH223968   1.039   3.559   3.917
 8004TIP3    H123969   1.063   3.483   3.864
 8004TIP3    H223970   1.009   3.625   3.854
 8005TIP3   OH223971   1.210   4.460   3.876
 8005TIP3    H123972   1.144   4.522   3.844
 8005TIP3    H223973   1.294   4.501   3.855
 8006TIP3   OH223974   5.491   1.149   5.536
 8006TIP3    H123975   5.517   1.076   5.592
 8006TIP3    H223976   5.539   1.135   5.454
 8007TIP3   OH223977   4.968   6.109   1.777
 8007TIP3    H123978   4.951   6.141   1.689
 8007TIP3    H223979   4.893   6.052   1.797
 8008TIP3   OH223980   3.928   7.738   5.672
 8008TIP3    H123981   3.858   7.674   5.678
 8008TIP3    H223982   3.961   7.746   5.762
 8009TIP3   OH223983   4.770   1.145   5.683
 8009TIP3    H123984   4.814   1.061   5.694
 8009TIP3    H223985   4.701   1.128   5.619
 8010TIP3   OH223986   4.982   7.418   6.047
 8010TIP3    H123987   5.025   7.502   6.030
 8010TIP3    H223988   5.007   7.397   6.137
 8011TIP3   OH223989   7.074   0.704   2.915
 8011TIP3    H123990   7.149   0.704   2.855
 8011TIP3    H223991   7.019   0.632   2.885
 8012TIP3   OH223992   7.993   5.722   0.508
 8012TIP3    H123993   8.080   5.704   0.473
 8012TIP3    H223994   7.966   5.640   0.549
 8013TIP3   OH223995   7.206   3.580   5.455
 8013TIP3    H123996   7.256   3.532   5.389
 8013TIP3    H223997   7.139   3.517   5.484
 8014TIP3   OH223998   2.814   0.268   3.327
 8014TIP3    H123999   2.757   0.223   3.389
 8014TIP3    H224000   2.831   0.204   3.259
 8015TIP3   OH224001   6.477   2.308   3.317
 8015TIP3    H124002   6.549   2.255   3.282
 8015TIP3    H224003   6.407   2.245   3.334
 8016TIP3   OH224004   7.347   3.795   2.951
 8016TIP3    H124005   7.386   3.879   2.976
 8016TIP3    H224006   7.358   3.790   2.856
 8017TIP3   OH224007   7.499   4.646   3.758
 8017TIP3    H124008   7.495   4.693   3.675
 8017TIP3    H224009   7.585   4.669   3.794
 8018TIP3   OH224010   5.131   6.562   2.121
 8018TIP3    H124011   5.134   6.553   2.026
 8018TIP3    H224012   5.199   6.626   2.141
 8019TIP3   OH224013   8.125   0.011   1.883
 8019TIP3    H124014   8.092   0.003   1.794
 8019TIP3    H224015   8.187   0.084   1.879
 8020TIP3   OH224016   3.187   1.716   2.956
 8020TIP3    H124017   3.170   1.742   3.047
 8020TIP3    H224018   3.168   1.794   2.904
 8021TIP3   OH224019   7.230   4.156   2.225
 8021TIP3    H124020   7.321   4.185   2.225
 8021TIP3    H224021   7.181   4.229   2.188
 8022TIP3   OH224022   4.945   3.130   2.694
 8022TIP3    H124023   4.856   3.105   2.670
 8022TIP3    H224024   4.991   3.047   2.707
 8023TIP3   OH224025   4.359   7.310   5.668
 8023TIP3    H124026   4.290   7.345   5.723
 8023TIP3    H224027   4.326   7.321   5.578
 8024TIP3   OH224028   5.593   5.081   0.344
 8024TIP3    H124029   5.656   5.036   0.287
 8024TIP3    H224030   5.613   5.174   0.333
 8025TIP3   OH224031   7.008   1.704   6.285
 8025TIP3    H124032   7.045   1.617   6.271
 8025TIP3    H224033   6.965   1.726   6.202
 8026TIP3   OH224034   3.624   5.864   6.352
 8026TIP3    H124035   3.616   5.948   6.398
 8026TIP3    H224036   3.667   5.806   6.415
 8027TIP3   OH224037   6.394   0.265   2.008
 8027TIP3    H124038   6.453   0.340   2.010
 8027TIP3    H224039   6.369   0.257   1.916
 8028TIP3   OH224040   6.900   7.162   3.785
 8028TIP3    H124041   6.814   7.202   3.773
 8028TIP3    H224042   6.882   7.067   3.787
 8029TIP3   OH224043   1.230   7.005   6.603
 8029TIP3    H124044   1.143   7.002   6.643
 8029TIP3    H224045   1.225   7.076   6.539
 8030TIP3   OH224046   5.126   6.971   2.015
 8030TIP3    H124047   5.031   6.977   2.017
 8030TIP3    H224048   5.156   7.048   2.063
 8031TIP3   OH224049   7.454   3.908   6.640
 8031TIP3    H124050   7.455   3.865   6.555
 8031TIP3    H224051   7.364   3.939   6.650
 8032TIP3   OH224052   1.934   5.910   1.304
 8032TIP3    H124053   1.985   5.890   1.383
 8032TIP3    H224054   1.845   5.925   1.336
 8033TIP3   OH224055   7.596   2.763   4.288
 8033TIP3    H124056   7.652   2.691   4.314
 8033TIP3    H224057   7.656   2.834   4.264
 8034TIP3   OH224058   8.292   7.261   4.537
 8034TIP3    H124059   8.284   7.343   4.488
 8034TIP3    H224060   8.209   7.253   4.584
 8035TIP3   OH224061   0.929   1.541   6.133
 8035TIP3    H124062   1.018   1.545   6.168
 8035TIP3    H224063   0.873   1.564   6.208
 8036TIP3   OH224064   7.544   0.741   1.374
 8036TIP3    H124065   7.589   0.677   1.429
 8036TIP3    H224066   7.507   0.690   1.302
 8037TIP3   OH224067   2.328   7.227   0.712
 8037TIP3    H124068   2.401   7.285   0.692
 8037TIP3    H224069   2.279   7.220   0.630
 8038TIP3   OH224070   4.194   3.088   0.460
 8038TIP3    H124071   4.178   3.003   0.501
 8038TIP3    H224072   4.126   3.096   0.394
 8039TIP3   OH224073   2.761   3.169   2.158
 8039TIP3    H124074   2.781   3.178   2.251
 8039TIP3    H224075   2.815   3.095   2.129
 8040TIP3   OH224076   3.837   5.049   4.056
 8040TIP3    H124077   3.908   5.070   3.995
 8040TIP3    H224078   3.780   5.126   4.052
 8041TIP3   OH224079   7.919   4.014   4.287
 8041TIP3    H124080   7.914   3.922   4.312
 8041TIP3    H224081   7.882   4.017   4.198
 8042TIP3   OH224082   6.796   6.219   2.218
 8042TIP3    H124083   6.751   6.136   2.236
 8042TIP3    H224084   6.832   6.207   2.130
 8043TIP3   OH224085   0.397   0.027   2.810
 8043TIP3    H124086   0.452   0.077   2.749
 8043TIP3    H224087   0.448  -0.053   2.827
 8044TIP3   OH224088   0.066   6.080   2.501
 8044TIP3    H124089   0.009   6.136   2.553
 8044TIP3    H224090   0.010   6.007   2.475
 8045TIP3   OH224091   8.128   7.185   0.733
 8045TIP3    H124092   8.218   7.181   0.763
 8045TIP3    H224093   8.075   7.177   0.812
 8046TIP3   OH224094   5.104   0.218   5.850
 8046TIP3    H124095   5.165   0.292   5.848
 8046TIP3    H224096   5.072   0.215   5.940
 8047TIP3   OH224097   2.929   4.366   3.249
 8047TIP3    H124098   2.924   4.411   3.333
 8047TIP3    H224099   2.879   4.285   3.262
 8048TIP3   OH224100   3.933   4.303   4.850
 8048TIP3    H124101   3.860   4.269   4.797
 8048TIP3    H224102   3.894   4.325   4.934
 8049TIP3   OH224103   5.004   5.759   0.254
 8049TIP3    H124104   5.062   5.703   0.203
 8049TIP3    H224105   5.032   5.745   0.345
 8050TIP3   OH224106   1.174   6.881   4.260
 8050TIP3    H124107   1.250   6.882   4.318
 8050TIP3    H224108   1.106   6.930   4.307
 8051TIP3   OH224109   5.577   7.106   5.258
 8051TIP3    H124110   5.642   7.069   5.199
 8051TIP3    H224111   5.596   7.199   5.261
 8052TIP3   OH224112   6.485   3.699   6.302
 8052TIP3    H124113   6.504   3.746   6.221
 8052TIP3    H224114   6.487   3.767   6.370
 8053TIP3   OH224115   0.955   4.894   6.252
 8053TIP3    H124116   0.875   4.854   6.285
 8053TIP3    H224117   0.929   4.983   6.226
 8054TIP3   OH224118   2.880   6.810   5.974
 8054TIP3    H124119   2.883   6.903   5.996
 8054TIP3    H224120   2.802   6.800   5.920
 8055TIP3   OH224121   4.253   5.176   4.403
 8055TIP3    H124122   4.252   5.260   4.449
 8055TIP3    H224123   4.195   5.120   4.454
 8056TIP3   OH224124   7.916   0.571   2.556
 8056TIP3    H124125   7.905   0.485   2.515
 8056TIP3    H224126   8.009   0.576   2.577
 8057TIP3   OH224127   4.840   1.579   5.683
 8057TIP3    H124128   4.867   1.604   5.771
 8057TIP3    H224129   4.898   1.506   5.660
 8058TIP3   OH224130   3.126   2.566   0.344
 8058TIP3    H124131   3.180   2.588   0.421
 8058TIP3    H224132   3.090   2.650   0.315
 8059TIP3   OH224133   2.080   7.247   6.543
 8059TIP3    H124134   1.986   7.240   6.556
 8059TIP3    H224135   2.117   7.240   6.631
 8060TIP3   OH224136   4.955   4.000   1.867
 8060TIP3    H124137   5.033   3.952   1.837
 8060TIP3    H224138   4.980   4.033   1.953
 8061TIP3   OH224139   3.133   1.567   1.849
 8061TIP3    H124140   3.117   1.570   1.944
 8061TIP3    H224141   3.178   1.484   1.835
 8062TIP3   OH224142   5.595   3.471   2.330
 8062TIP3    H124143   5.538   3.546   2.345
 8062TIP3    H224144   5.682   3.501   2.356
 8063TIP3   OH224145   0.943   2.629   6.215
 8063TIP3    H124146   0.955   2.548   6.266
 8063TIP3    H224147   1.024   2.678   6.227
 8064TIP3   OH224148   2.668   6.553   1.607
 8064TIP3    H124149   2.734   6.558   1.676
 8064TIP3    H224150   2.656   6.460   1.592
 8065TIP3   OH224151   2.333   3.152   6.013
 8065TIP3    H124152   2.277   3.227   5.996
 8065TIP3    H224153   2.283   3.076   5.983
 8066TIP3   OH224154   1.150   4.216   4.778
 8066TIP3    H124155   1.235   4.181   4.752
 8066TIP3    H224156   1.120   4.266   4.702
 8067TIP3   OH224157   4.736   5.500   1.137
 8067TIP3    H124158   4.685   5.559   1.192
 8067TIP3    H224159   4.727   5.414   1.179
 8068TIP3   OH224160   7.884   0.310   4.841
 8068TIP3    H124161   7.823   0.381   4.855
 8068TIP3    H224162   7.877   0.256   4.919
 8069TIP3   OH224163   0.531   1.935   3.018
 8069TIP3    H124164   0.500   1.884   3.093
 8069TIP3    H224165   0.509   1.880   2.942
 8070TIP3   OH224166   6.192   1.862   4.157
 8070TIP3    H124167   6.150   1.776   4.167
 8070TIP3    H224168   6.131   1.912   4.103
 8071TIP3   OH224169   0.669   4.425   6.627
 8071TIP3    H124170   0.606   4.376   6.680
 8071TIP3    H224171   0.621   4.500   6.594
 8072TIP3   OH224172   7.742   4.397   4.610
 8072TIP3    H124173   7.809   4.465   4.622
 8072TIP3    H224174   7.746   4.376   4.517
 8073TIP3   OH224175   0.923   1.407   0.747
 8073TIP3    H124176   0.993   1.345   0.768
 8073TIP3    H224177   0.969   1.483   0.712
 8074TIP3   OH224178   6.265   5.186   0.746
 8074TIP3    H124179   6.346   5.146   0.715
 8074TIP3    H224180   6.252   5.261   0.688
 8075TIP3   OH224181   0.670   3.107   1.012
 8075TIP3    H124182   0.745   3.158   1.041
 8075TIP3    H224183   0.601   3.127   1.076
 8076TIP3   OH224184   2.855   7.276   1.607
 8076TIP3    H124185   2.831   7.241   1.521
 8076TIP3    H224186   2.784   7.249   1.665
 8077TIP3   OH224187   6.351   5.158   5.017
 8077TIP3    H124188   6.282   5.136   5.079
 8077TIP3    H224189   6.374   5.249   5.038
 8078TIP3   OH224190   1.515   4.017   2.213
 8078TIP3    H124191   1.590   4.056   2.167
 8078TIP3    H224192   1.540   4.018   2.305
 8079TIP3   OH224193   2.541   0.389   6.659
 8079TIP3    H124194   2.582   0.419   6.577
 8079TIP3    H224195   2.597   0.424   6.728
 8080TIP3   OH224196   1.735   4.522   1.936
 8080TIP3    H124197   1.676   4.519   2.011
 8080TIP3    H224198   1.722   4.610   1.899
 8081TIP3   OH224199   4.432   4.618   0.839
 8081TIP3    H124200   4.458   4.560   0.910
 8081TIP3    H224201   4.405   4.699   0.884
 8082TIP3   OH224202   3.981   1.251   0.968
 8082TIP3    H124203   3.990   1.315   1.039
 8082TIP3    H224204   3.888   1.229   0.968
 8083TIP3   OH224205   0.808   1.793   5.808
 8083TIP3    H124206   0.867   1.718   5.808
 8083TIP3    H224207   0.864   1.868   5.829
 8084TIP3   OH224208   3.671   7.322   0.174
 8084TIP3    H124209   3.594   7.353   0.126
 8084TIP3    H224210   3.670   7.373   0.255
 8085TIP3   OH224211   7.274   7.196   3.191
 8085TIP3    H124212   7.212   7.136   3.150
 8085TIP3    H224213   7.226   7.234   3.264
 8086TIP3   OH224214   6.235   0.367   2.239
 8086TIP3    H124215   6.204   0.313   2.312
 8086TIP3    H224216   6.288   0.307   2.186
 8087TIP3   OH224217   2.002   1.266   6.310
 8087TIP3    H124218   1.997   1.353   6.350
 8087TIP3    H224219   2.095   1.255   6.288
 8088TIP3   OH224220   5.123   7.360   3.438
 8088TIP3    H124221   5.085   7.306   3.507
 8088TIP3    H224222   5.054   7.366   3.371
 8089TIP3   OH224223   7.039   5.746   4.663
 8089TIP3    H124224   6.947   5.768   4.676
 8089TIP3    H224225   7.088   5.819   4.701
 8090TIP3   OH224226   5.242   7.768   1.240
 8090TIP3    H124227   5.294   7.754   1.161
 8090TIP3    H224228   5.302   7.751   1.312
 8091TIP3   OH224229   0.361   1.481   5.623
 8091TIP3    H124230   0.397   1.393   5.612
 8091TIP3    H224231   0.426   1.539   5.582
 8092TIP3   OH224232   1.214   0.294   1.435
 8092TIP3    H124233   1.138   0.255   1.478
 8092TIP3    H224234   1.180   0.327   1.352
 8093TIP3   OH224235   5.559   3.542   0.805
 8093TIP3    H124236   5.594   3.453   0.797
 8093TIP3    H224237   5.608   3.581   0.878
 8094TIP3   OH224238   6.421   7.484   6.643
 8094TIP3    H124239   6.456   7.407   6.598
 8094TIP3    H224240   6.327   7.467   6.649
 8095TIP3   OH224241   0.585   2.758   3.571
 8095TIP3    H124242   0.575   2.667   3.598
 8095TIP3    H224243   0.675   2.780   3.594
 8096TIP3   OH224244   2.232   7.019   6.484
 8096TIP3    H124245   2.220   7.000   6.577
 8096TIP3    H224246   2.180   7.098   6.469
 8097TIP3   OH224247   2.614   5.706   3.907
 8097TIP3    H124248   2.669   5.629   3.894
 8097TIP3    H224249   2.525   5.672   3.913
 8098TIP3   OH224250   6.118   4.293   1.373
 8098TIP3    H124251   6.187   4.359   1.382
 8098TIP3    H224252   6.152   4.215   1.417
 8099TIP3   OH224253   4.447   6.531   1.815
 8099TIP3    H124254   4.407   6.588   1.750
 8099TIP3    H224255   4.541   6.543   1.803
 8100TIP3   OH224256   7.934   1.381   1.816
 8100TIP3    H124257   7.984   1.460   1.832
 8100TIP3    H224258   7.873   1.375   1.890
 8101TIP3   OH224259   0.733   7.029   4.560
 8101TIP3    H124260   0.738   7.078   4.642
 8101TIP3    H224261   0.746   7.095   4.492
 8102TIP3   OH224262   0.767   3.885   0.047
 8102TIP3    H124263   0.812   3.969   0.057
 8102TIP3    H224264   0.833   3.827   0.009
 8103TIP3   OH224265   5.710   6.281   5.694
 8103TIP3    H124266   5.766   6.259   5.769
 8103TIP3    H224267   5.621   6.271   5.726
 8104TIP3   OH224268   7.700   6.063   2.419
 8104TIP3    H124269   7.648   6.043   2.341
 8104TIP3    H224270   7.791   6.052   2.392
 8105TIP3   OH224271   1.964   0.559   3.723
 8105TIP3    H124272   1.883   0.606   3.704
 8105TIP3    H224273   2.024   0.626   3.753
 8106TIP3   OH224274   7.834   4.224   5.740
 8106TIP3    H124275   7.884   4.303   5.761
 8106TIP3    H224276   7.899   4.154   5.737
 8107TIP3   OH224277   2.837   3.779   4.325
 8107TIP3    H124278   2.841   3.769   4.420
 8107TIP3    H224279   2.775   3.712   4.296
 8108TIP3   OH224280   0.890   1.102   2.492
 8108TIP3    H124281   0.898   1.196   2.474
 8108TIP3    H224282   0.975   1.078   2.528
 8109TIP3   OH224283   5.099   7.114   0.544
 8109TIP3    H124284   5.082   7.021   0.561
 8109TIP3    H224285   5.179   7.114   0.492
 8110TIP3   OH224286   8.000   2.179   2.186
 8110TIP3    H124287   8.037   2.144   2.267
 8110TIP3    H224288   8.059   2.149   2.118
 8111TIP3   OH224289   4.672   1.884   1.957
 8111TIP3    H124290   4.762   1.860   1.977
 8111TIP3    H224291   4.679   1.971   1.916
 8112TIP3   OH224292   1.544   7.380   5.373
 8112TIP3    H124293   1.481   7.308   5.376
 8112TIP3    H224294   1.625   7.340   5.339
 8113TIP3   OH224295   7.860   6.938   4.396
 8113TIP3    H124296   7.778   6.939   4.346
 8113TIP3    H224297   7.873   6.847   4.420
 8114TIP3   OH224298   1.885   3.535   6.350
 8114TIP3    H124299   1.804   3.485   6.341
 8114TIP3    H224300   1.949   3.487   6.298
 8115TIP3   OH224301   4.793   7.543   4.884
 8115TIP3    H124302   4.739   7.545   4.806
 8115TIP3    H224303   4.765   7.620   4.935
 8116TIP3   OH224304   3.273   6.732   6.323
 8116TIP3    H124305   3.251   6.794   6.255
 8116TIP3    H224306   3.198   6.734   6.383
 8117TIP3   OH224307   3.444   6.571   5.509
 8117TIP3    H124308   3.408   6.508   5.447
 8117TIP3    H224309   3.384   6.645   5.504
 8118TIP3   OH224310   3.621   7.643   4.273
 8118TIP3    H124311   3.528   7.618   4.270
 8118TIP3    H224312   3.666   7.563   4.299
 8119TIP3   OH224313   7.918   1.010   4.579
 8119TIP3    H124314   7.919   0.919   4.547
 8119TIP3    H224315   7.840   1.014   4.634
 8120TIP3   OH224316   3.025   2.316   3.144
 8120TIP3    H124317   3.120   2.321   3.130
 8120TIP3    H224318   2.989   2.300   3.056
 8121TIP3   OH224319   4.773   4.923   5.949
 8121TIP3    H124320   4.775   4.842   6.000
 8121TIP3    H224321   4.716   4.981   6.000
 8122TIP3   OH224322   2.552   1.521   4.778
 8122TIP3    H124323   2.539   1.453   4.712
 8122TIP3    H224324   2.625   1.489   4.831
 8123TIP3   OH224325   3.631   5.141   5.390
 8123TIP3    H124326   3.551   5.148   5.443
 8123TIP3    H224327   3.639   5.225   5.345
 8124TIP3   OH224328   4.742   7.527   6.002
 8124TIP3    H124329   4.825   7.478   6.000
 8124TIP3    H224330   4.695   7.497   5.924
 8125TIP3   OH224331   4.155   4.470   2.571
 8125TIP3    H124332   4.176   4.389   2.525
 8125TIP3    H224333   4.221   4.532   2.540
 8126TIP3   OH224334   7.807   0.717   1.154
 8126TIP3    H124335   7.741   0.670   1.103
 8126TIP3    H224336   7.867   0.752   1.088
 8127TIP3   OH224337   5.162   5.592   0.097
 8127TIP3    H124338   5.214   5.667   0.067
 8127TIP3    H224339   5.227   5.531   0.133
 8128TIP3   OH224340   4.032   1.614   3.142
 8128TIP3    H124341   4.010   1.618   3.048
 8128TIP3    H224342   4.043   1.521   3.160
 8129TIP3   OH224343   3.729   6.584   1.974
 8129TIP3    H124344   3.708   6.677   1.967
 8129TIP3    H224345   3.730   6.567   2.068
 8130TIP3   OH224346   4.704   0.641   3.479
 8130TIP3    H124347   4.768   0.701   3.440
 8130TIP3    H224348   4.646   0.618   3.407
 8131TIP3   OH224349   7.115   7.456   0.653
 8131TIP3    H124350   7.048   7.399   0.614
 8131TIP3    H224351   7.166   7.487   0.578
 8132TIP3   OH224352   1.317   2.091   1.023
 8132TIP3    H124353   1.374   2.167   1.032
 8132TIP3    H224354   1.272   2.105   0.939
 8133TIP3   OH224355   0.162   4.053   3.388
 8133TIP3    H124356   0.190   4.015   3.305
 8133TIP3    H224357   0.085   4.105   3.365
 8134TIP3   OH224358   6.598   3.628   3.406
 8134TIP3    H124359   6.643   3.667   3.331
 8134TIP3    H224360   6.647   3.659   3.482
 8135TIP3   OH224361   4.695   5.861   6.639
 8135TIP3    H124362   4.779   5.834   6.675
 8135TIP3    H224363   4.640   5.783   6.646
 8136TIP3   OH224364   6.179   5.970   1.272
 8136TIP3    H124365   6.184   5.888   1.223
 8136TIP3    H224366   6.248   6.024   1.236
 8137TIP3   OH224367   0.768   6.180   2.355
 8137TIP3    H124368   0.758   6.273   2.376
 8137TIP3    H224369   0.768   6.177   2.259
 8138TIP3   OH224370   6.937   1.818   3.148
 8138TIP3    H124371   6.849   1.782   3.142
 8138TIP3    H224372   6.927   1.911   3.129
 8139TIP3   OH224373   2.661   2.860   2.534
 8139TIP3    H124374   2.673   2.791   2.599
 8139TIP3    H224375   2.715   2.833   2.460
 8140TIP3   OH224376   2.294   5.332   0.095
 8140TIP3    H124377   2.256   5.260   0.146
 8140TIP3    H224378   2.387   5.313   0.092
 8141TIP3   OH224379   0.865   2.738   4.463
 8141TIP3    H124380   0.821   2.752   4.547
 8141TIP3    H224381   0.816   2.668   4.421
 8142TIP3   OH224382   3.697   2.023   2.132
 8142TIP3    H124383   3.763   2.091   2.121
 8142TIP3    H224384   3.614   2.071   2.139
 8143TIP3   OH224385   0.470   7.271   4.730
 8143TIP3    H124386   0.440   7.207   4.795
 8143TIP3    H224387   0.390   7.312   4.698
 8144TIP3   OH224388   2.776   4.762   5.405
 8144TIP3    H124389   2.846   4.743   5.468
 8144TIP3    H224390   2.821   4.768   5.321
 8145TIP3   OH224391   2.296   3.004   0.533
 8145TIP3    H124392   2.224   3.023   0.593
 8145TIP3    H224393   2.307   3.085   0.482
 8146TIP3   OH224394   5.067   4.105   6.430
 8146TIP3    H124395   5.053   4.014   6.404
 8146TIP3    H224396   5.001   4.155   6.382
 8147TIP3   OH224397   0.876   4.081   2.754
 8147TIP3    H124398   0.903   4.003   2.803
 8147TIP3    H224399   0.847   4.143   2.821
 8148TIP3   OH224400   2.797   1.141   1.821
 8148TIP3    H124401   2.823   1.073   1.758
 8148TIP3    H224402   2.875   1.195   1.832
 8149TIP3   OH224403   5.179   5.982   4.814
 8149TIP3    H124404   5.163   5.947   4.727
 8149TIP3    H224405   5.160   5.909   4.873
 8150TIP3   OH224406   1.031   4.139   4.386
 8150TIP3    H124407   1.051   4.112   4.297
 8150TIP3    H224408   1.048   4.062   4.440
 8151TIP3   OH224409   1.261   4.571   1.409
 8151TIP3    H124410   1.253   4.666   1.416
 8151TIP3    H224411   1.296   4.556   1.321
 8152TIP3   OH224412   5.601   5.395   2.580
 8152TIP3    H124413   5.645   5.411   2.663
 8152TIP3    H224414   5.669   5.357   2.524
 8153TIP3   OH224415   4.365   1.574   1.885
 8153TIP3    H124416   4.423   1.537   1.818
 8153TIP3    H224417   4.277   1.558   1.853
 8154TIP3   OH224418   2.539   0.846   1.440
 8154TIP3    H124419   2.489   0.817   1.364
 8154TIP3    H224420   2.606   0.904   1.405
 8155TIP3   OH224421   4.679   7.460   0.231
 8155TIP3    H124422   4.623   7.395   0.190
 8155TIP3    H224423   4.752   7.410   0.268
 8156TIP3   OH224424   1.630   0.928   4.113
 8156TIP3    H124425   1.581   0.879   4.179
 8156TIP3    H224426   1.567   0.990   4.077
 8157TIP3   OH224427   0.573   7.234   6.198
 8157TIP3    H124428   0.487   7.209   6.164
 8157TIP3    H224429   0.617   7.276   6.125
 8158TIP3   OH224430   1.215   5.774   5.438
 8158TIP3    H124431   1.216   5.684   5.405
 8158TIP3    H224432   1.277   5.773   5.511
 8159TIP3   OH224433   4.773   7.287   2.888
 8159TIP3    H124434   4.845   7.232   2.855
 8159TIP3    H224435   4.811   7.375   2.892
 8160TIP3   OH224436   3.925   4.996   6.658
 8160TIP3    H124437   3.952   4.947   6.581
 8160TIP3    H224438   3.892   5.079   6.624
 8161TIP3   OH224439   8.127   1.457   2.134
 8161TIP3    H124440   8.048   1.503   2.106
 8161TIP3    H224441   8.097   1.368   2.152
 8162TIP3   OH224442   3.765   5.185   6.500
 8162TIP3    H124443   3.746   5.238   6.578
 8162TIP3    H224444   3.785   5.249   6.432
 8163TIP3   OH224445   5.869   4.211   2.214
 8163TIP3    H124446   5.936   4.168   2.161
 8163TIP3    H224447   5.793   4.152   2.207
 8164TIP3   OH224448   5.638   7.663   6.352
 8164TIP3    H124449   5.575   7.665   6.424
 8164TIP3    H224450   5.721   7.639   6.393
 8165TIP3   OH224451   0.474   4.808   0.141
 8165TIP3    H124452   0.543   4.846   0.196
 8165TIP3    H224453   0.445   4.730   0.189
 8166TIP3   OH224454   1.013   0.507   6.596
 8166TIP3    H124455   0.952   0.570   6.635
 8166TIP3    H224456   0.965   0.424   6.595
 8167TIP3   OH224457   7.644   6.999   0.556
 8167TIP3    H124458   7.667   6.924   0.611
 8167TIP3    H224459   7.728   7.035   0.529
 8168TIP3   OH224460   5.957   6.640   5.368
 8168TIP3    H124461   6.005   6.557   5.373
 8168TIP3    H224462   5.866   6.613   5.352
 8169TIP3   OH224463   1.295   3.851   5.436
 8169TIP3    H124464   1.257   3.797   5.505
 8169TIP3    H224465   1.388   3.830   5.437
 8170TIP3   OH224466   5.731   4.870   2.121
 8170TIP3    H124467   5.817   4.889   2.082
 8170TIP3    H224468   5.702   4.954   2.157
 8171TIP3   OH224469   5.223   6.120   3.384
 8171TIP3    H124470   5.290   6.182   3.357
 8171TIP3    H224471   5.218   6.057   3.312
 8172TIP3   OH224472   1.632   3.527   4.250
 8172TIP3    H124473   1.682   3.480   4.317
 8172TIP3    H224474   1.577   3.587   4.300
 8173TIP3   OH224475   6.182   6.846   5.085
 8173TIP3    H124476   6.160   6.900   5.009
 8173TIP3    H224477   6.110   6.783   5.091
 8174TIP3   OH224478   4.233   3.714   2.259
 8174TIP3    H124479   4.166   3.645   2.256
 8174TIP3    H224480   4.304   3.681   2.205
 8175TIP3   OH224481   3.093   2.240   2.591
 8175TIP3    H124482   3.050   2.161   2.558
 8175TIP3    H224483   3.162   2.257   2.527
 8176TIP3   OH224484   2.199   4.629   4.754
 8176TIP3    H124485   2.289   4.606   4.733
 8176TIP3    H224486   2.168   4.557   4.810
 8177TIP3   OH224487   2.991   2.213   3.939
 8177TIP3    H124488   2.945   2.279   3.887
 8177TIP3    H224489   3.043   2.164   3.875
 8178TIP3   OH224490   0.100   0.111   6.354
 8178TIP3    H124491   0.090   0.143   6.265
 8178TIP3    H224492   0.098   0.016   6.346
 8179TIP3   OH224493   5.660   1.008   3.626
 8179TIP3    H124494   5.667   1.036   3.717
 8179TIP3    H224495   5.743   0.966   3.606
 8180TIP3   OH224496   7.212   1.563   1.498
 8180TIP3    H124497   7.290   1.525   1.459
 8180TIP3    H224498   7.151   1.489   1.504
 8181TIP3   OH224499   1.577   2.801   4.443
 8181TIP3    H124500   1.620   2.874   4.489
 8181TIP3    H224501   1.542   2.746   4.513
 8182TIP3   OH224502   7.444   2.312   5.901
 8182TIP3    H124503   7.411   2.284   5.986
 8182TIP3    H224504   7.522   2.363   5.920
 8183TIP3   OH224505   0.691   4.064   4.729
 8183TIP3    H124506   0.625   4.019   4.782
 8183TIP3    H224507   0.732   4.127   4.788
 8184TIP3   OH224508   7.314   7.731   2.725
 8184TIP3    H124509   7.398   7.731   2.770
 8184TIP3    H224510   7.249   7.728   2.796
 8185TIP3   OH224511   4.338   4.556   3.016
 8185TIP3    H124512   4.254   4.553   2.970
 8185TIP3    H224513   4.384   4.631   2.978
 8186TIP3   OH224514   6.842   3.967   1.182
 8186TIP3    H124515   6.766   3.957   1.123
 8186TIP3    H224516   6.907   3.906   1.147
 8187TIP3   OH224517   5.131   3.189   6.607
 8187TIP3    H124518   5.087   3.110   6.575
 8187TIP3    H224519   5.160   3.166   6.695
 8188TIP3   OH224520   7.918   0.792   0.160
 8188TIP3    H124521   7.973   0.714   0.163
 8188TIP3    H224522   7.968   0.858   0.209
 8189TIP3   OH224523   2.028   0.673   5.811
 8189TIP3    H124524   2.075   0.686   5.893
 8189TIP3    H224525   2.001   0.581   5.813
 8190TIP3   OH224526   3.744   0.781   2.429
 8190TIP3    H124527   3.735   0.870   2.464
 8190TIP3    H224528   3.680   0.777   2.357
 8191TIP3   OH224529   7.018   1.468   2.968
 8191TIP3    H124530   7.036   1.380   3.000
 8191TIP3    H224531   7.085   1.523   3.008
 8192TIP3   OH224532   0.011   7.108   0.923
 8192TIP3    H124533   0.082   7.056   0.960
 8192TIP3    H224534  -0.063   7.095   0.982
 8193TIP3   OH224535   5.524   2.492   0.948
 8193TIP3    H124536   5.583   2.546   0.895
 8193TIP3    H224537   5.437   2.528   0.932
 8194TIP3   OH224538   2.897   1.523   0.495
 8194TIP3    H124539   2.849   1.507   0.576
 8194TIP3    H224540   2.964   1.455   0.493
 8195TIP3   OH224541   5.268   0.354   4.014
 8195TIP3    H124542   5.306   0.417   4.075
 8195TIP3    H224543   5.250   0.404   3.935
 8196TIP3   OH224544   1.232   0.429   5.011
 8196TIP3    H124545   1.217   0.339   5.039
 8196TIP3    H224546   1.146   0.461   4.985
 8197TIP3   OH224547   4.578   7.216   3.978
 8197TIP3    H124548   4.518   7.214   3.903
 8197TIP3    H224549   4.604   7.124   3.989
 8198TIP3   OH224550   7.344   3.836   1.112
 8198TIP3    H124551   7.376   3.758   1.068
 8198TIP3    H224552   7.322   3.897   1.041
 8199TIP3   OH224553   5.276   0.954   0.391
 8199TIP3    H124554   5.346   0.928   0.331
 8199TIP3    H224555   5.210   0.885   0.383
 8200TIP3   OH224556   5.607   1.566   1.091
 8200TIP3    H124557   5.667   1.522   1.151
 8200TIP3    H224558   5.520   1.554   1.130
 8201TIP3   OH224559   5.333   3.147   2.767
 8201TIP3    H124560   5.383   3.088   2.710
 8201TIP3    H224561   5.383   3.149   2.849
 8202TIP3   OH224562   4.279   6.713   2.810
 8202TIP3    H124563   4.287   6.681   2.900
 8202TIP3    H224564   4.338   6.788   2.805
 8203TIP3   OH224565   2.721   0.710   4.380
 8203TIP3    H124566   2.742   0.669   4.296
 8203TIP3    H224567   2.626   0.726   4.376
 8204TIP3   OH224568   0.351   5.298   5.770
 8204TIP3    H124569   0.341   5.217   5.820
 8204TIP3    H224570   0.365   5.366   5.836
 8205TIP3   OH224571   3.211   5.937   5.065
 8205TIP3    H124572   3.177   5.949   4.976
 8205TIP3    H224573   3.144   5.885   5.109
 8206TIP3   OH224574   4.794   4.545   2.206
 8206TIP3    H124575   4.805   4.633   2.171
 8206TIP3    H224576   4.842   4.545   2.289
 8207TIP3   OH224577   0.929   5.639   4.840
 8207TIP3    H124578   0.886   5.589   4.771
 8207TIP3    H224579   0.930   5.579   4.916
 8208TIP3   OH224580   5.998   5.328   5.924
 8208TIP3    H124581   5.995   5.395   5.855
 8208TIP3    H224582   5.970   5.375   6.003
 8209TIP3   OH224583   4.214   4.855   5.639
 8209TIP3    H124584   4.278   4.828   5.704
 8209TIP3    H224585   4.266   4.899   5.571
 8210TIP3   OH224586   4.248   2.914   4.308
 8210TIP3    H124587   4.325   2.956   4.347
 8210TIP3    H224588   4.280   2.829   4.278
 8211TIP3   OH224589   2.052   5.817   6.230
 8211TIP3    H124590   1.973   5.842   6.278
 8211TIP3    H224591   2.117   5.799   6.297
 8212TIP3   OH224592   0.740   5.070   0.075
 8212TIP3    H124593   0.737   5.055   0.169
 8212TIP3    H224594   0.745   4.983   0.036
 8213TIP3   OH224595   6.075   1.164   3.927
 8213TIP3    H124596   6.102   1.073   3.923
 8213TIP3    H224597   6.055   1.188   3.837
 8214TIP3   OH224598   3.040   4.643   1.851
 8214TIP3    H124599   3.108   4.576   1.850
 8214TIP3    H224600   3.086   4.725   1.835
 8215TIP3   OH224601   0.617   6.006   1.609
 8215TIP3    H124602   0.552   6.061   1.652
 8215TIP3    H224603   0.673   6.066   1.561
 8216TIP3   OH224604   7.667   7.375   2.776
 8216TIP3    H124605   7.756   7.354   2.807
 8216TIP3    H224606   7.616   7.297   2.797
 8217TIP3   OH224607   2.424   4.530   3.116
 8217TIP3    H124608   2.397   4.523   3.208
 8217TIP3    H224609   2.469   4.448   3.098
 8218TIP3   OH224610   5.749   5.624   3.656
 8218TIP3    H124611   5.770   5.544   3.609
 8218TIP3    H224612   5.716   5.684   3.589
 8219TIP3   OH224613   4.027   0.917   1.088
 8219TIP3    H124614   4.049   1.010   1.087
 8219TIP3    H224615   4.103   0.873   1.049
 8220TIP3   OH224616   3.380   4.766   4.415
 8220TIP3    H124617   3.361   4.698   4.350
 8220TIP3    H224618   3.447   4.820   4.373
 8221TIP3   OH224619   2.413   6.153   3.460
 8221TIP3    H124620   2.478   6.222   3.448
 8221TIP3    H224621   2.344   6.175   3.398
 8222TIP3   OH224622   3.427   5.564   6.476
 8222TIP3    H124623   3.491   5.547   6.546
 8222TIP3    H224624   3.342   5.563   6.521
 8223TIP3   OH224625   1.153   1.874   6.275
 8223TIP3    H124626   1.062   1.904   6.268
 8223TIP3    H224627   1.148   1.780   6.256
 8224TIP3   OH224628   5.016   0.960   5.935
 8224TIP3    H124629   5.043   0.884   5.986
 8224TIP3    H224630   5.016   1.032   5.998
 8225TIP3   OH224631   1.929   5.793   4.866
 8225TIP3    H124632   1.946   5.887   4.871
 8225TIP3    H224633   1.848   5.785   4.816
 8226TIP3   OH224634   8.216   2.807   2.948
 8226TIP3    H124635   8.143   2.856   2.984
 8226TIP3    H224636   8.176   2.744   2.888
 8227TIP3   OH224637   6.124   6.266   2.068
 8227TIP3    H124638   6.107   6.199   2.134
 8227TIP3    H224639   6.101   6.349   2.111
 8228TIP3   OH224640   8.190   7.239   2.770
 8228TIP3    H124641   8.171   7.147   2.753
 8228TIP3    H224642   8.128   7.287   2.715
 8229TIP3   OH224643   6.242   7.128   3.629
 8229TIP3    H124644   6.334   7.135   3.603
 8229TIP3    H224645   6.241   7.059   3.695
 8230TIP3   OH224646   5.017   5.185   2.094
 8230TIP3    H124647   5.080   5.113   2.100
 8230TIP3    H224648   4.979   5.191   2.182
 8231TIP3   OH224649   5.549   5.295   1.660
 8231TIP3    H124650   5.596   5.216   1.686
 8231TIP3    H224651   5.588   5.319   1.576
 8232TIP3   OH224652   4.157   1.185   0.779
 8232TIP3    H124653   4.094   1.205   0.710
 8232TIP3    H224654   4.110   1.202   0.860
 8233TIP3   OH224655   5.132   2.705   1.391
 8233TIP3    H124656   5.159   2.613   1.396
 8233TIP3    H224657   5.203   2.748   1.343
 8234TIP3   OH224658   1.923   6.148   0.389
 8234TIP3    H124659   1.918   6.195   0.472
 8234TIP3    H224660   1.983   6.075   0.406
 8235TIP3   OH224661   6.975   0.423   4.266
 8235TIP3    H124662   7.042   0.423   4.335
 8235TIP3    H224663   6.994   0.502   4.215
 8236TIP3   OH224664   3.919   7.509   3.067
 8236TIP3    H124665   3.974   7.587   3.078
 8236TIP3    H224666   3.963   7.459   2.998
 8237TIP3   OH224667   5.428   4.748   0.631
 8237TIP3    H124668   5.507   4.781   0.588
 8237TIP3    H224669   5.425   4.793   0.715
 8238TIP3   OH224670   6.584   7.182   2.476
 8238TIP3    H124671   6.581   7.143   2.563
 8238TIP3    H224672   6.571   7.109   2.416
 8239TIP3   OH224673   2.640   7.793   3.500
 8239TIP3    H124674   2.555   7.761   3.529
 8239TIP3    H224675   2.703   7.731   3.536
 8240TIP3   OH224676   5.196   4.585   1.889
 8240TIP3    H124677   5.134   4.658   1.885
 8240TIP3    H224678   5.161   4.527   1.956
 8241TIP3   OH224679   0.354   3.305   0.795
 8241TIP3    H124680   0.277   3.258   0.764
 8241TIP3    H224681   0.390   3.249   0.864
 8242TIP3   OH224682   2.643   4.601   4.622
 8242TIP3    H124683   2.643   4.668   4.554
 8242TIP3    H224684   2.673   4.522   4.577
 8243TIP3   OH224685   6.774   6.588   4.087
 8243TIP3    H124686   6.751   6.598   3.995
 8243TIP3    H224687   6.800   6.497   4.097
 8244TIP3   OH224688   1.630   7.038   1.614
 8244TIP3    H124689   1.657   7.130   1.603
 8244TIP3    H224690   1.543   7.044   1.653
 8245TIP3   OH224691   6.750   2.915   4.684
 8245TIP3    H124692   6.815   2.907   4.753
 8245TIP3    H224693   6.800   2.931   4.604
 8246TIP3   OH224694   2.815   6.619   6.233
 8246TIP3    H124695   2.720   6.626   6.246
 8246TIP3    H224696   2.836   6.685   6.168
 8247TIP3   OH224697   4.294   5.416   1.989
 8247TIP3    H124698   4.244   5.470   2.050
 8247TIP3    H224699   4.247   5.333   1.986
 8248TIP3   OH224700   5.605   5.453   2.202
 8248TIP3    H124701   5.688   5.500   2.193
 8248TIP3    H224702   5.624   5.381   2.262
 8249TIP3   OH224703   3.203   7.682   6.216
 8249TIP3    H124704   3.170   7.635   6.292
 8249TIP3    H224705   3.127   7.726   6.179
 8250TIP3   OH224706   0.151   1.743   3.579
 8250TIP3    H124707   0.237   1.701   3.583
 8250TIP3    H224708   0.130   1.747   3.486
 8251TIP3   OH224709   6.908   4.014   3.769
 8251TIP3    H124710   6.822   3.985   3.740
 8251TIP3    H224711   6.896   4.038   3.860
 8252TIP3   OH224712   0.573   0.780   4.706
 8252TIP3    H124713   0.589   0.841   4.633
 8252TIP3    H224714   0.485   0.802   4.737
 8253TIP3   OH224715   5.519   4.328   0.066
 8253TIP3    H124716   5.530   4.337   0.161
 8253TIP3    H224717   5.601   4.290   0.036
 8254TIP3   OH224718   3.949   7.767   0.960
 8254TIP3    H124719   3.970   7.694   1.019
 8254TIP3    H224720   3.857   7.753   0.937
 8255TIP3   OH224721   5.217   7.494   2.702
 8255TIP3    H124722   5.191   7.405   2.678
 8255TIP3    H224723   5.280   7.481   2.774
 8256TIP3   OH224724   5.032   2.605   5.881
 8256TIP3    H124725   5.102   2.632   5.941
 8256TIP3    H224726   4.964   2.672   5.892
 8257TIP3   OH224727   4.238   5.281   0.138
 8257TIP3    H124728   4.263   5.197   0.176
 8257TIP3    H224729   4.142   5.278   0.134
 8258TIP3   OH224730   1.247   1.948   4.020
 8258TIP3    H124731   1.189   1.876   3.994
 8258TIP3    H224732   1.188   2.018   4.048
 8259TIP3   OH224733   3.399   1.993   5.318
 8259TIP3    H124734   3.420   2.060   5.253
 8259TIP3    H224735   3.484   1.955   5.340
 8260TIP3   OH224736   5.041   5.490   0.439
 8260TIP3    H124737   5.080   5.573   0.467
 8260TIP3    H224738   5.082   5.424   0.495
 8261TIP3   OH224739   2.058   4.283   2.107
 8261TIP3    H124740   2.120   4.341   2.152
 8261TIP3    H224741   1.973   4.327   2.116
 8262TIP3   OH224742   8.024   3.754   4.331
 8262TIP3    H124743   7.975   3.725   4.408
 8262TIP3    H224744   8.115   3.728   4.349
 8263TIP3   OH224745   6.536   0.274   2.895
 8263TIP3    H124746   6.474   0.206   2.922
 8263TIP3    H224747   6.481   0.347   2.868
 8264TIP3   OH224748   6.704   1.843   2.561
 8264TIP3    H124749   6.617   1.883   2.557
 8264TIP3    H224750   6.689   1.755   2.594
 8265TIP3   OH224751   3.436   0.390   2.260
 8265TIP3    H124752   3.393   0.440   2.191
 8265TIP3    H224753   3.440   0.451   2.334
 8266TIP3   OH224754   4.892   6.403   0.378
 8266TIP3    H124755   4.977   6.390   0.336
 8266TIP3    H224756   4.836   6.335   0.339
 8267TIP3   OH224757   6.437   2.381   0.762
 8267TIP3    H124758   6.436   2.452   0.826
 8267TIP3    H224759   6.468   2.421   0.681
 8268TIP3   OH224760   4.514   7.312   2.607
 8268TIP3    H124761   4.495   7.401   2.639
 8268TIP3    H224762   4.471   7.255   2.671
 8269TIP3   OH224763   4.733   1.305   0.085
 8269TIP3    H124764   4.669   1.356   0.036
 8269TIP3    H224765   4.683   1.267   0.157
 8270TIP3   OH224766   5.550   7.655   3.776
 8270TIP3    H124767   5.554   7.656   3.871
 8270TIP3    H224768   5.536   7.563   3.753
 8271TIP3   OH224769   2.347   6.110   0.259
 8271TIP3    H124770   2.292   6.122   0.337
 8271TIP3    H224771   2.298   6.049   0.204
 8272TIP3   OH224772   1.494   4.256   6.745
 8272TIP3    H124773   1.535   4.241   6.830
 8272TIP3    H224774   1.503   4.173   6.698
 8273TIP3   OH224775   4.695   1.928   0.008
 8273TIP3    H124776   4.712   1.872   0.084
 8273TIP3    H224777   4.617   1.891  -0.032
 8274TIP3   OH224778   5.059   7.243   4.411
 8274TIP3    H124779   4.982   7.273   4.459
 8274TIP3    H224780   5.051   7.148   4.410
 8275TIP3   OH224781   2.797   3.408   4.600
 8275TIP3    H124782   2.782   3.501   4.617
 8275TIP3    H224783   2.799   3.368   4.687
 8276TIP3   OH224784   6.303   4.067   0.940
 8276TIP3    H124785   6.255   4.149   0.931
 8276TIP3    H224786   6.384   4.081   0.892
 8277TIP3   OH224787   4.483   3.007   4.385
 8277TIP3    H124788   4.545   3.079   4.374
 8277TIP3    H224789   4.492   2.982   4.477
 8278TIP3   OH224790   1.240   4.848   2.939
 8278TIP3    H124791   1.209   4.790   3.009
 8278TIP3    H224792   1.257   4.790   2.865
 8279TIP3   OH224793   2.101   5.088   1.306
 8279TIP3    H124794   2.155   5.046   1.373
 8279TIP3    H224795   2.051   5.154   1.354
 8280TIP3   OH224796   2.476   3.318   3.377
 8280TIP3    H124797   2.486   3.225   3.360
 8280TIP3    H224798   2.563   3.348   3.403
 8281TIP3   OH224799   0.022   1.159   5.394
 8281TIP3    H124800  -0.057   1.173   5.446
 8281TIP3    H224801  -0.004   1.179   5.304
 8282TIP3   OH224802   2.470   0.572   0.220
 8282TIP3    H124803   2.536   0.640   0.207
 8282TIP3    H224804   2.504   0.519   0.293
 8283TIP3   OH224805   0.265   1.749   2.698
 8283TIP3    H124806   0.193   1.808   2.723
 8283TIP3    H224807   0.258   1.742   2.603
 8284TIP3   OH224808   1.996   3.284   1.673
 8284TIP3    H124809   1.988   3.380   1.680
 8284TIP3    H224810   1.933   3.250   1.736
 8285TIP3   OH224811   5.181   0.902   6.505
 8285TIP3    H124812   5.177   0.964   6.579
 8285TIP3    H224813   5.186   0.816   6.546
 8286TIP3   OH224814   0.785   2.369   4.383
 8286TIP3    H124815   0.729   2.436   4.423
 8286TIP3    H224816   0.740   2.286   4.400
 8287TIP3   OH224817   5.707   5.380   1.411
 8287TIP3    H124818   5.720   5.429   1.329
 8287TIP3    H224819   5.777   5.314   1.410
 8288TIP3   OH224820   1.627   0.922   4.841
 8288TIP3    H124821   1.643   1.008   4.800
 8288TIP3    H224822   1.604   0.942   4.932
 8289TIP3   OH224823   3.733   3.421   4.123
 8289TIP3    H124824   3.698   3.468   4.198
 8289TIP3    H224825   3.662   3.363   4.095
 8290TIP3   OH224826   2.800   5.835   3.705
 8290TIP3    H124827   2.771   5.798   3.622
 8290TIP3    H224828   2.738   5.799   3.770
 8291TIP3   OH224829   3.518   0.841   0.102
 8291TIP3    H124830   3.454   0.814   0.167
 8291TIP3    H224831   3.480   0.814   0.018
 8292TIP3   OH224832   5.923   3.826   1.671
 8292TIP3    H124833   5.980   3.763   1.715
 8292TIP3    H224834   5.884   3.776   1.599
 8293TIP3   OH224835   1.702   0.498   4.933
 8293TIP3    H124836   1.628   0.516   4.991
 8293TIP3    H224837   1.695   0.404   4.913
 8294TIP3   OH224838   4.162   0.959   5.342
 8294TIP3    H124839   4.168   1.055   5.333
 8294TIP3    H224840   4.207   0.925   5.265
 8295TIP3   OH224841   0.824   5.603   1.057
 8295TIP3    H124842   0.878   5.681   1.073
 8295TIP3    H224843   0.745   5.617   1.108
 8296TIP3   OH224844   7.814   1.812   3.748
 8296TIP3    H124845   7.795   1.751   3.819
 8296TIP3    H224846   7.896   1.854   3.774
 8297TIP3   OH224847   5.809   5.323   3.853
 8297TIP3    H124848   5.764   5.251   3.897
 8297TIP3    H224849   5.752   5.399   3.865
 8298TIP3   OH224850   5.786   2.099   4.645
 8298TIP3    H124851   5.819   2.101   4.555
 8298TIP3    H224852   5.691   2.090   4.635
 8299TIP3   OH224853   6.484   5.071   0.604
 8299TIP3    H124854   6.506   5.000   0.663
 8299TIP3    H224855   6.569   5.104   0.573
 8300TIP3   OH224856   5.182   5.677   6.774
 8300TIP3    H124857   5.176   5.670   6.678
 8300TIP3    H224858   5.224   5.761   6.790
 8301TIP3   OH224859   4.599   1.215   0.301
 8301TIP3    H124860   4.546   1.138   0.320
 8301TIP3    H224861   4.599   1.266   0.382
 8302TIP3   OH224862   5.232   4.675   5.128
 8302TIP3    H124863   5.256   4.584   5.141
 8302TIP3    H224864   5.137   4.677   5.144
 8303TIP3   OH224865   3.695   0.554   1.660
 8303TIP3    H124866   3.675   0.483   1.599
 8303TIP3    H224867   3.790   0.551   1.670
 8304TIP3   OH224868   5.354   4.899   0.337
 8304TIP3    H124869   5.411   4.975   0.349
 8304TIP3    H224870   5.411   4.831   0.302
 8305TIP3   OH224871   6.968   3.127   2.331
 8305TIP3    H124872   7.003   3.205   2.373
 8305TIP3    H224873   6.971   3.059   2.399
 8306TIP3   OH224874   6.833   4.032   2.251
 8306TIP3    H124875   6.799   3.952   2.291
 8306TIP3    H224876   6.844   4.093   2.324
 8307TIP3   OH224877   4.845   0.258   3.782
 8307TIP3    H124878   4.816   0.303   3.702
 8307TIP3    H224879   4.791   0.295   3.852
 8308TIP3   OH224880   6.222   1.886   6.490
 8308TIP3    H124881   6.314   1.913   6.496
 8308TIP3    H224882   6.207   1.839   6.572
 8309TIP3   OH224883   7.085   3.371   3.091
 8309TIP3    H124884   7.027   3.312   3.043
 8309TIP3    H224885   7.064   3.458   3.057
 8310TIP3   OH224886   8.299   0.458   6.670
 8310TIP3    H124887   8.243   0.514   6.616
 8310TIP3    H224888   8.362   0.420   6.607
 8311TIP3   OH224889   4.029   0.868   2.354
 8311TIP3    H124890   3.998   0.956   2.332
 8311TIP3    H224891   4.029   0.865   2.449
 8312TIP3   OH224892   1.373   5.045   1.688
 8312TIP3    H124893   1.315   5.079   1.620
 8312TIP3    H224894   1.319   4.982   1.736
 8313TIP3   OH224895   3.513   1.865   4.766
 8313TIP3    H124896   3.500   1.951   4.726
 8313TIP3    H224897   3.439   1.856   4.826
 8314TIP3   OH224898   4.735   0.740   6.359
 8314TIP3    H124899   4.771   0.669   6.412
 8314TIP3    H224900   4.728   0.702   6.271
 8315TIP3   OH224901   5.839   3.868   0.467
 8315TIP3    H124902   5.886   3.788   0.442
 8315TIP3    H224903   5.787   3.843   0.543
 8316TIP3   OH224904   1.635   2.304   4.943
 8316TIP3    H124905   1.693   2.344   4.878
 8316TIP3    H224906   1.685   2.230   4.977
 8317TIP3   OH224907   7.630   5.992   4.210
 8317TIP3    H124908   7.550   6.045   4.210
 8317TIP3    H224909   7.641   5.965   4.301
 8318TIP3   OH224910   4.327   3.624   0.146
 8318TIP3    H124911   4.377   3.556   0.191
 8318TIP3    H224912   4.345   3.704   0.197
 8319TIP3   OH224913   4.693   6.259   0.279
 8319TIP3    H124914   4.615   6.238   0.332
 8319TIP3    H224915   4.713   6.178   0.233
 8320TIP3   OH224916   7.625   6.323   1.315
 8320TIP3    H124917   7.576   6.289   1.389
 8320TIP3    H224918   7.652   6.245   1.266
 8321TIP3   OH224919   2.346   0.435   2.665
 8321TIP3    H124920   2.431   0.451   2.704
 8321TIP3    H224921   2.359   0.450   2.571
 8322TIP3   OH224922   7.745   2.325   2.247
 8322TIP3    H124923   7.734   2.259   2.316
 8322TIP3    H224924   7.810   2.287   2.188
 8323TIP3   OH224925   2.615   3.056   3.935
 8323TIP3    H124926   2.628   2.961   3.927
 8323TIP3    H224927   2.660   3.080   4.016
 8324TIP3   OH224928   4.820   0.887   3.902
 8324TIP3    H124929   4.833   0.869   3.995
 8324TIP3    H224930   4.832   0.981   3.893
 8325TIP3   OH224931   7.953   3.747   1.307
 8325TIP3    H124932   7.950   3.783   1.218
 8325TIP3    H224933   8.027   3.686   1.305
 8326TIP3   OH224934   0.456   2.953   6.768
 8326TIP3    H124935   0.404   2.903   6.707
 8326TIP3    H224936   0.501   3.018   6.714
 8327TIP3   OH224937   5.295   2.343   5.655
 8327TIP3    H124938   5.292   2.289   5.734
 8327TIP3    H224939   5.208   2.337   5.617
 8328TIP3   OH224940   6.965   4.674   2.152
 8328TIP3    H124941   6.924   4.758   2.136
 8328TIP3    H224942   6.892   4.613   2.162
 8329TIP3   OH224943   3.224   3.753   3.354
 8329TIP3    H124944   3.257   3.669   3.321
 8329TIP3    H224945   3.276   3.819   3.309
 8330TIP3   OH224946   4.066   6.978   3.738
 8330TIP3    H124947   4.037   6.903   3.790
 8330TIP3    H224948   4.118   7.031   3.798
 8331TIP3   OH224949   7.145   5.877   1.705
 8331TIP3    H124950   7.060   5.882   1.661
 8331TIP3    H224951   7.200   5.826   1.645
 8332TIP3   OH224952   7.997   0.308   2.604
 8332TIP3    H124953   8.053   0.248   2.553
 8332TIP3    H224954   7.908   0.288   2.575
 8333TIP3   OH224955   3.291   6.653   2.588
 8333TIP3    H124956   3.324   6.743   2.586
 8333TIP3    H224957   3.221   6.652   2.523
 8334TIP3   OH224958   7.523   0.890   2.390
 8334TIP3    H124959   7.557   0.842   2.466
 8334TIP3    H224960   7.596   0.892   2.328
 8335TIP3   OH224961   0.195   4.611   1.093
 8335TIP3    H124962   0.125   4.642   1.151
 8335TIP3    H224963   0.179   4.517   1.084
 8336TIP3   OH224964   4.782   0.455   3.105
 8336TIP3    H124965   4.743   0.368   3.095
 8336TIP3    H224966   4.802   0.483   3.016
 8337TIP3   OH224967   6.464   6.659   0.553
 8337TIP3    H124968   6.534   6.692   0.496
 8337TIP3    H224969   6.499   6.670   0.641
 8338TIP3   OH224970   1.334   5.125   6.035
 8338TIP3    H124971   1.388   5.202   6.015
 8338TIP3    H224972   1.373   5.054   5.984
 8339TIP3   OH224973   7.670   0.434   0.639
 8339TIP3    H124974   7.603   0.501   0.628
 8339TIP3    H224975   7.622   0.358   0.673
 8340TIP3   OH224976   5.283   6.756   0.265
 8340TIP3    H124977   5.292   6.666   0.234
 8340TIP3    H224978   5.188   6.770   0.271
 8341TIP3   OH224979   8.040   2.378   3.117
 8341TIP3    H124980   8.047   2.354   3.025
 8341TIP3    H224981   7.951   2.412   3.127
 8342TIP3   OH224982   2.826   0.083   3.142
 8342TIP3    H124983   2.837   0.110   3.051
 8342TIP3    H224984   2.792  -0.006   3.137
 8343TIP3   OH224985   4.789   3.842   6.119
 8343TIP3    H124986   4.726   3.824   6.189
 8343TIP3    H224987   4.874   3.825   6.157
 8344TIP3   OH224988   1.004   4.910   1.553
 8344TIP3    H124989   0.969   4.868   1.474
 8344TIP3    H224990   0.949   4.988   1.564
 8345TIP3   OH224991   6.528   7.343   6.105
 8345TIP3    H124992   6.611   7.365   6.149
 8345TIP3    H224993   6.461   7.359   6.171
 8346TIP3   OH224994   2.689   0.569   2.059
 8346TIP3    H124995   2.608   0.562   2.008
 8346TIP3    H224996   2.728   0.651   2.030
 8347TIP3   OH224997   6.380   1.331   6.662
 8347TIP3    H124998   6.430   1.275   6.603
 8347TIP3    H224999   6.337   1.270   6.722
 8348TIP3   OH225000   3.110   2.259   4.182
 8348TIP3    H125001   3.092   2.352   4.192
 8348TIP3    H225002   3.046   2.229   4.118
 8349TIP3   OH225003   3.931   4.048   2.855
 8349TIP3    H125004   3.923   4.139   2.884
 8349TIP3    H225005   3.851   4.031   2.807
 8350TIP3   OH225006   1.815   0.323   1.392
 8350TIP3    H125007   1.805   0.251   1.455
 8350TIP3    H225008   1.807   0.281   1.307
 8351TIP3   OH225009   4.502   0.618   2.979
 8351TIP3    H125010   4.475   0.528   2.961
 8351TIP3    H225011   4.597   0.618   2.966
 8352TIP3   OH225012   3.678   4.774   4.604
 8352TIP3    H125013   3.590   4.746   4.627
 8352TIP3    H225014   3.731   4.755   4.681
 8353TIP3   OH225015   2.767   4.223   3.964
 8353TIP3    H125016   2.762   4.223   3.869
 8353TIP3    H225017   2.692   4.170   3.992
 8354TIP3   OH225018   1.528   2.622   5.702
 8354TIP3    H125019   1.601   2.623   5.763
 8354TIP3    H225020   1.483   2.539   5.719
 8355TIP3   OH225021   0.571   1.127   3.611
 8355TIP3    H125022   0.492   1.075   3.605
 8355TIP3    H225023   0.641   1.069   3.581
 8356TIP3   OH225024   3.092   5.034   2.931
 8356TIP3    H125025   3.059   4.945   2.943
 8356TIP3    H225026   3.184   5.029   2.956
 8357TIP3   OH225027   3.675   0.084   6.508
 8357TIP3    H125028   3.761   0.112   6.539
 8357TIP3    H225029   3.677   0.099   6.413
 8358TIP3   OH225030   5.326   2.402   5.038
 8358TIP3    H125031   5.307   2.308   5.034
 8358TIP3    H225032   5.241   2.444   5.049
 8359TIP3   OH225033   5.074   6.801   2.830
 8359TIP3    H125034   5.064   6.845   2.745
 8359TIP3    H225035   5.110   6.715   2.808
 8360TIP3   OH225036   7.943   6.854   6.652
 8360TIP3    H125037   8.018   6.893   6.696
 8360TIP3    H225038   7.895   6.928   6.615
 8361TIP3   OH225039   5.392   3.599   4.920
 8361TIP3    H125040   5.305   3.625   4.952
 8361TIP3    H225041   5.409   3.658   4.847
 8362TIP3   OH225042   3.749   2.231   1.919
 8362TIP3    H125043   3.729   2.265   1.831
 8362TIP3    H225044   3.844   2.222   1.921
 8363TIP3   OH225045   7.508   0.312   4.334
 8363TIP3    H125046   7.532   0.404   4.328
 8363TIP3    H225047   7.565   0.277   4.402
 8364TIP3   OH225048   0.376   6.059   0.897
 8364TIP3    H125049   0.372   6.038   0.803
 8364TIP3    H225050   0.293   6.027   0.932
 8365TIP3   OH225051   6.828   6.058   5.390
 8365TIP3    H125052   6.742   6.044   5.430
 8365TIP3    H225053   6.890   6.026   5.455
 8366TIP3   OH225054   6.371   2.317   2.150
 8366TIP3    H125055   6.338   2.336   2.238
 8366TIP3    H225056   6.330   2.234   2.126
 8367TIP3   OH225057   7.554   4.048   5.621
 8367TIP3    H125058   7.488   4.038   5.553
 8367TIP3    H225059   7.561   3.961   5.660
 8368TIP3   OH225060   7.847   2.024   1.233
 8368TIP3    H125061   7.879   1.951   1.180
 8368TIP3    H225062   7.879   2.005   1.322
 8369TIP3   OH225063   2.872   1.947   6.329
 8369TIP3    H125064   2.936   2.011   6.297
 8369TIP3    H225065   2.823   1.994   6.396
 8370TIP3   OH225066   0.927   0.165   1.930
 8370TIP3    H125067   0.976   0.207   1.859
 8370TIP3    H225068   0.874   0.099   1.886
 8371TIP3   OH225069   3.872   1.881   1.112
 8371TIP3    H125070   3.788   1.849   1.079
 8371TIP3    H225071   3.899   1.948   1.049
 8372TIP3   OH225072   0.120   0.175   1.690
 8372TIP3    H125073   0.095   0.183   1.782
 8372TIP3    H225074   0.123   0.081   1.674
 8373TIP3   OH225075   7.206   3.681   3.948
 8373TIP3    H125076   7.269   3.628   3.900
 8373TIP3    H225077   7.219   3.770   3.916
 8374TIP3   OH225078   4.860   2.357   0.214
 8374TIP3    H125079   4.891   2.294   0.149
 8374TIP3    H225080   4.859   2.308   0.296
 8375TIP3   OH225081   6.981   5.562   0.139
 8375TIP3    H125082   6.955   5.505   0.212
 8375TIP3    H225083   7.011   5.502   0.071
 8376TIP3   OH225084   2.338   0.873   0.572
 8376TIP3    H125085   2.358   0.919   0.491
 8376TIP3    H225086   2.310   0.941   0.633
 8377TIP3   OH225087   8.044   2.041   3.440
 8377TIP3    H125088   7.953   2.068   3.454
 8377TIP3    H225089   8.045   2.006   3.351
 8378TIP3   OH225090   0.196   3.745   2.923
 8378TIP3    H125091   0.121   3.690   2.944
 8378TIP3    H225092   0.270   3.701   2.964
 8379TIP3   OH225093   6.760   3.432   3.221
 8379TIP3    H125094   6.797   3.517   3.246
 8379TIP3    H225095   6.704   3.408   3.295
 8380TIP3   OH225096   5.244   5.365   5.760
 8380TIP3    H125097   5.182   5.353   5.832
 8380TIP3    H225098   5.193   5.346   5.681
 8381TIP3   OH225099   4.341   6.436   6.568
 8381TIP3    H125100   4.330   6.499   6.496
 8381TIP3    H225101   4.428   6.399   6.554
 8382TIP3   OH225102   8.273   1.184   6.491
 8382TIP3    H125103   8.259   1.213   6.401
 8382TIP3    H225104   8.319   1.256   6.533
 8383TIP3   OH225105   3.114   1.385   1.170
 8383TIP3    H125106   3.191   1.369   1.224
 8383TIP3    H225107   3.059   1.443   1.223
 8384TIP3   OH225108   1.261   6.752   3.704
 8384TIP3    H125109   1.318   6.681   3.677
 8384TIP3    H225110   1.178   6.736   3.658
 8385TIP3   OH225111   7.059   1.803   4.441
 8385TIP3    H125112   7.094   1.775   4.526
 8385TIP3    H225113   6.993   1.738   4.419
 8386TIP3   OH225114   1.657   6.649   6.469
 8386TIP3    H125115   1.680   6.741   6.455
 8386TIP3    H225116   1.720   6.618   6.534
 8387TIP3   OH225117   3.556   4.108   6.344
 8387TIP3    H125118   3.538   4.056   6.265
 8387TIP3    H225119   3.646   4.138   6.333
 8388TIP3   OH225120   1.432   0.174   4.027
 8388TIP3    H125121   1.456   0.156   3.936
 8388TIP3    H225122   1.342   0.207   4.022
 8389TIP3   OH225123   4.617   5.041   2.397
 8389TIP3    H125124   4.685   4.990   2.352
 8389TIP3    H225125   4.642   5.132   2.383
 8390TIP3   OH225126   5.444   5.505   1.184
 8390TIP3    H125127   5.473   5.418   1.157
 8390TIP3    H225128   5.379   5.530   1.118
 8391TIP3   OH225129   6.890   5.639   3.608
 8391TIP3    H125130   6.804   5.612   3.641
 8391TIP3    H225131   6.908   5.721   3.655
 8392TIP3   OH225132   7.915   6.814   5.550
 8392TIP3    H125133   7.840   6.805   5.491
 8392TIP3    H225134   7.988   6.835   5.493
 8393TIP3   OH225135   4.433   1.870   6.523
 8393TIP3    H125136   4.506   1.834   6.573
 8393TIP3    H225137   4.377   1.795   6.505
 8394TIP3   OH225138   2.040   6.477   6.516
 8394TIP3    H125139   2.011   6.538   6.447
 8394TIP3    H225140   1.989   6.503   6.593
 8395TIP3   OH225141   5.788   2.334   1.834
 8395TIP3    H125142   5.761   2.267   1.898
 8395TIP3    H225143   5.868   2.299   1.795
 8396TIP3   OH225144   6.470   3.103   6.304
 8396TIP3    H125145   6.504   3.131   6.219
 8396TIP3    H225146   6.497   3.172   6.365
 8397TIP3   OH225147   4.144   4.388   4.089
 8397TIP3    H125148   4.055   4.368   4.119
 8397TIP3    H225149   4.193   4.308   4.106
 8398TIP3   OH225150   4.609   5.882   2.757
 8398TIP3    H125151   4.644   5.968   2.735
 8398TIP3    H225152   4.686   5.826   2.767
 8399TIP3   OH225153   7.906   6.131   6.106
 8399TIP3    H125154   7.931   6.081   6.028
 8399TIP3    H225155   7.854   6.069   6.158
 8400TIP3   OH225156   5.419   7.552   3.998
 8400TIP3    H125157   5.357   7.586   4.063
 8400TIP3    H225158   5.373   7.478   3.958
 8401TIP3   OH225159   6.438   5.472   5.061
 8401TIP3    H125160   6.379   5.442   5.131
 8401TIP3    H225161   6.435   5.567   5.067
 8402TIP3   OH225162   3.707   3.440   2.706
 8402TIP3    H125163   3.785   3.468   2.753
 8402TIP3    H225164   3.661   3.521   2.683
 8403TIP3   OH225165   3.382   1.155   1.064
 8403TIP3    H125166   3.287   1.158   1.058
 8403TIP3    H225167   3.409   1.100   0.990
 8404TIP3   OH225168   4.578   1.301   4.519
 8404TIP3    H125169   4.642   1.258   4.461
 8404TIP3    H225170   4.528   1.358   4.461
 8405TIP3   OH225171   5.548   4.095   6.423
 8405TIP3    H125172   5.540   4.073   6.331
 8405TIP3    H225173   5.589   4.019   6.464
 8406TIP3   OH225174   1.618   7.427   4.815
 8406TIP3    H125175   1.611   7.348   4.869
 8406TIP3    H225176   1.649   7.495   4.875
 8407TIP3   OH225177   0.932   4.698   5.599
 8407TIP3    H125178   1.002   4.682   5.536
 8407TIP3    H225179   0.966   4.666   5.682
 8408TIP3   OH225180   6.859   1.952   2.732
 8408TIP3    H125181   6.939   1.901   2.745
 8408TIP3    H225182   6.814   1.906   2.661
 8409TIP3   OH225183   4.218   1.986   1.467
 8409TIP3    H125184   4.189   1.921   1.530
 8409TIP3    H225185   4.140   2.008   1.416
 8410TIP3   OH225186   4.898   4.132   6.186
 8410TIP3    H125187   4.805   4.142   6.206
 8410TIP3    H225188   4.900   4.071   6.112
 8411TIP3   OH225189   6.739   5.208   4.677
 8411TIP3    H125190   6.680   5.201   4.602
 8411TIP3    H225191   6.689   5.172   4.751
 8412TIP3   OH225192   4.040   5.281   6.416
 8412TIP3    H125193   4.022   5.196   6.377
 8412TIP3    H225194   3.968   5.337   6.386
 8413TIP3   OH225195   0.913   3.728   0.332
 8413TIP3    H125196   0.982   3.790   0.311
 8413TIP3    H225197   0.866   3.714   0.250
 8414TIP3   OH225198   2.334   7.169   5.235
 8414TIP3    H125199   2.368   7.238   5.179
 8414TIP3    H225200   2.298   7.105   5.174
 8415TIP3   OH225201   4.601   5.082   4.816
 8415TIP3    H125202   4.567   5.089   4.727
 8415TIP3    H225203   4.600   4.989   4.835
 8416TIP3   OH225204   0.927   4.636   4.394
 8416TIP3    H125205   0.917   4.691   4.316
 8416TIP3    H225206   1.018   4.607   4.390
 8417TIP3   OH225207   4.121   5.173   1.862
 8417TIP3    H125208   4.066   5.208   1.932
 8417TIP3    H225209   4.109   5.078   1.868
 8418TIP3   OH225210   6.911   4.001   5.330
 8418TIP3    H125211   6.996   3.958   5.342
 8418TIP3    H225212   6.848   3.930   5.342
 8419TIP3   OH225213   6.884   7.650   4.545
 8419TIP3    H125214   6.891   7.667   4.451
 8419TIP3    H225215   6.949   7.582   4.561
 8420TIP3   OH225216   5.121   2.021   0.148
 8420TIP3    H125217   5.201   1.969   0.144
 8420TIP3    H225218   5.063   1.971   0.206
 8421TIP3   OH225219   3.608   1.868   4.162
 8421TIP3    H125220   3.621   1.778   4.132
 8421TIP3    H225221   3.647   1.870   4.249
 8422TIP3   OH225222   6.967   4.345   5.846
 8422TIP3    H125223   6.894   4.284   5.835
 8422TIP3    H225224   6.976   4.389   5.761
 8423TIP3   OH225225   6.922   6.575   2.100
 8423TIP3    H125226   6.902   6.593   2.009
 8423TIP3    H225227   6.975   6.649   2.129
 8424TIP3   OH225228   3.481   2.016   3.993
 8424TIP3    H125229   3.518   1.973   4.070
 8424TIP3    H225230   3.462   1.944   3.932
 8425TIP3   OH225231   1.652   4.661   0.516
 8425TIP3    H125232   1.620   4.645   0.605
 8425TIP3    H225233   1.696   4.580   0.492
 8426TIP3   OH225234   0.560   6.235   6.053
 8426TIP3    H125235   0.549   6.170   6.122
 8426TIP3    H225236   0.539   6.319   6.095
 8427TIP3   OH225237   3.003   4.175   0.970
 8427TIP3    H125238   2.995   4.252   0.913
 8427TIP3    H225239   3.006   4.211   1.058
 8428TIP3   OH225240   5.599   5.995   5.548
 8428TIP3    H125241   5.508   5.965   5.552
 8428TIP3    H225242   5.626   6.003   5.639
 8429TIP3   OH225243   1.460   0.401   6.775
 8429TIP3    H125244   1.510   0.461   6.830
 8429TIP3    H225245   1.520   0.377   6.704
 8430TIP3   OH225246   6.788   5.530   2.962
 8430TIP3    H125247   6.752   5.619   2.963
 8430TIP3    H225248   6.716   5.475   2.995
 8431TIP3   OH225249   6.918   6.538   5.751
 8431TIP3    H125250   6.835   6.491   5.750
 8431TIP3    H225251   6.968   6.499   5.679
 8432TIP3   OH225252   0.430   4.172   2.610
 8432TIP3    H125253   0.457   4.089   2.649
 8432TIP3    H225254   0.361   4.205   2.668
 8433TIP3   OH225255   2.437   6.087   3.781
 8433TIP3    H125256   2.436   6.115   3.689
 8433TIP3    H225257   2.489   6.154   3.825
 8434TIP3   OH225258   5.176   2.195   4.241
 8434TIP3    H125259   5.141   2.107   4.231
 8434TIP3    H225260   5.105   2.245   4.280
 8435TIP3   OH225261   8.217   2.881   2.534
 8435TIP3    H125262   8.281   2.828   2.487
 8435TIP3    H225263   8.153   2.819   2.567
 8436TIP3   OH225264   7.969   0.999   3.451
 8436TIP3    H125265   7.992   0.943   3.377
 8436TIP3    H225266   7.882   1.032   3.430
 8437TIP3   OH225267   5.735   4.864   1.116
 8437TIP3    H125268   5.779   4.828   1.192
 8437TIP3    H225269   5.792   4.842   1.042
 8438TIP3   OH225270   4.577   2.143   5.249
 8438TIP3    H125271   4.584   2.055   5.287
 8438TIP3    H225272   4.554   2.128   5.158
 8439TIP3   OH225273   1.460   3.863   1.989
 8439TIP3    H125274   1.456   3.870   2.085
 8439TIP3    H225275   1.406   3.935   1.957
 8440TIP3   OH225276   0.517   0.760   6.522
 8440TIP3    H125277   0.457   0.739   6.593
 8440TIP3    H225278   0.476   0.832   6.475
 8441TIP3   OH225279   1.826   0.144   0.838
 8441TIP3    H125280   1.901   0.094   0.807
 8441TIP3    H225281   1.837   0.231   0.799
 8442TIP3   OH225282   1.583   6.736   2.059
 8442TIP3    H125283   1.637   6.765   1.985
 8442TIP3    H225284   1.519   6.806   2.071
 8443TIP3   OH225285   3.089   7.208   0.504
 8443TIP3    H125286   3.032   7.273   0.463
 8443TIP3    H225287   3.036   7.129   0.509
 8444TIP3   OH225288   0.506   7.669   2.268
 8444TIP3    H125289   0.418   7.641   2.294
 8444TIP3    H225290   0.516   7.756   2.309
 8445TIP3   OH225291   3.287   6.021   6.406
 8445TIP3    H125292   3.296   5.953   6.339
 8445TIP3    H225293   3.202   6.061   6.387
 8446TIP3   OH225294   5.175   2.232   0.565
 8446TIP3    H125295   5.160   2.144   0.532
 8446TIP3    H225296   5.254   2.225   0.618
 8447TIP3   OH225297   0.924   0.592   5.914
 8447TIP3    H125298   1.001   0.562   5.962
 8447TIP3    H225299   0.851   0.580   5.976
 8448TIP3   OH225300   5.368   6.517   0.160
 8448TIP3    H125301   5.328   6.517   0.074
 8448TIP3    H225302   5.460   6.495   0.144
 8449TIP3   OH225303   0.022   3.863   2.466
 8449TIP3    H125304   0.066   3.906   2.392
 8449TIP3    H225305   0.030   3.769   2.447
 8450TIP3   OH225306   3.943   7.390   5.792
 8450TIP3    H125307   3.902   7.328   5.853
 8450TIP3    H225308   3.882   7.397   5.719
 8451TIP3   OH225309   1.089   4.846   2.204
 8451TIP3    H125310   1.013   4.852   2.261
 8451TIP3    H225311   1.111   4.753   2.201
 8452TIP3   OH225312   7.378   3.052   5.533
 8452TIP3    H125313   7.371   3.092   5.619
 8452TIP3    H225314   7.333   3.112   5.474
 8453TIP3   OH225315   1.506   4.558   4.802
 8453TIP3    H125316   1.476   4.562   4.892
 8453TIP3    H225317   1.584   4.614   4.801
 8454TIP3   OH225318   5.158   3.318   2.658
 8454TIP3    H125319   5.240   3.272   2.676
 8454TIP3    H225320   5.090   3.252   2.671
 8455TIP3   OH225321   4.775   5.400   0.377
 8455TIP3    H125322   4.861   5.435   0.398
 8455TIP3    H225323   4.731   5.391   0.462
 8456TIP3   OH225324   5.920   2.492   2.816
 8456TIP3    H125325   5.940   2.403   2.846
 8456TIP3    H225326   5.835   2.511   2.856
 8457TIP3   OH225327   5.912   1.305   5.772
 8457TIP3    H125328   5.897   1.294   5.678
 8457TIP3    H225329   5.846   1.370   5.799
 8458TIP3   OH225330   0.619   6.857   5.776
 8458TIP3    H125331   0.700   6.884   5.819
 8458TIP3    H225332   0.566   6.821   5.847
 8459TIP3   OH225333   5.876   3.011   0.287
 8459TIP3    H125334   5.847   2.951   0.355
 8459TIP3    H225335   5.796   3.031   0.237
 8460TIP3   OH225336   0.843   1.844   5.536
 8460TIP3    H125337   0.819   1.846   5.629
 8460TIP3    H225338   0.777   1.897   5.492
 8461TIP3   OH225339   3.125   7.370   6.624
 8461TIP3    H125340   3.186   7.324   6.681
 8461TIP3    H225341   3.093   7.302   6.564
 8462TIP3   OH225342   1.934   3.545   1.605
 8462TIP3    H125343   1.918   3.618   1.665
 8462TIP3    H225344   2.014   3.568   1.559
 8463TIP3   OH225345   1.199   5.534   4.119
 8463TIP3    H125346   1.257   5.608   4.100
 8463TIP3    H225347   1.233   5.462   4.066
 8464TIP3   OH225348   4.837   6.830   6.106
 8464TIP3    H125349   4.778   6.829   6.182
 8464TIP3    H225350   4.859   6.739   6.091
 8465TIP3   OH225351   3.767   5.818   5.657
 8465TIP3    H125352   3.733   5.748   5.601
 8465TIP3    H225353   3.690   5.859   5.695
 8466TIP3   OH225354   0.444   1.358   5.882
 8466TIP3    H125355   0.533   1.339   5.852
 8466TIP3    H225356   0.429   1.449   5.857
 8467TIP3   OH225357   2.349   2.113   3.781
 8467TIP3    H125358   2.327   2.088   3.871
 8467TIP3    H225359   2.336   2.208   3.778
 8468TIP3   OH225360   3.684   6.050   1.992
 8468TIP3    H125361   3.661   5.956   1.991
 8468TIP3    H225362   3.748   6.059   1.922
 8469TIP3   OH225363   2.582   3.324   0.159
 8469TIP3    H125364   2.605   3.234   0.135
 8469TIP3    H225365   2.512   3.314   0.224
 8470TIP3   OH225366   4.147   2.880   2.688
 8470TIP3    H125367   4.203   2.802   2.699
 8470TIP3    H225368   4.163   2.909   2.599
 8471TIP3   OH225369   1.161   2.576   1.204
 8471TIP3    H125370   1.178   2.652   1.149
 8471TIP3    H225371   1.115   2.514   1.146
 8472TIP3   OH225372   3.544   3.342   0.633
 8472TIP3    H125373   3.461   3.323   0.589
 8472TIP3    H225374   3.521   3.402   0.703
 8473TIP3   OH225375   5.364   4.205   0.461
 8473TIP3    H125376   5.439   4.246   0.417
 8473TIP3    H225377   5.288   4.246   0.420
 8474TIP3   OH225378   4.575   3.237   4.903
 8474TIP3    H125379   4.628   3.163   4.932
 8474TIP3    H225380   4.577   3.232   4.807
 8475TIP3   OH225381   2.375   5.068   0.072
 8475TIP3    H125382   2.357   5.094  -0.018
 8475TIP3    H225383   2.354   4.974   0.075
 8476TIP3   OH225384   7.282   0.633   1.162
 8476TIP3    H125385   7.288   0.700   1.094
 8476TIP3    H225386   7.228   0.564   1.123
 8477TIP3   OH225387   4.931   4.799   0.093
 8477TIP3    H125388   4.969   4.849   0.166
 8477TIP3    H225389   4.837   4.812   0.102
 8478TIP3   OH225390   2.350   6.406   5.612
 8478TIP3    H125391   2.431   6.358   5.594
 8478TIP3    H225392   2.286   6.370   5.551
 8479TIP3   OH225393   5.098   2.924   3.980
 8479TIP3    H125394   5.037   2.990   3.945
 8479TIP3    H225395   5.049   2.883   4.052
 8480TIP3   OH225396   2.046   2.321   0.656
 8480TIP3    H125397   2.095   2.256   0.707
 8480TIP3    H225398   2.068   2.405   0.695
 8481TIP3   OH225399   2.886   4.952   1.729
 8481TIP3    H125400   2.866   4.985   1.817
 8481TIP3    H225401   2.858   4.861   1.730
 8482TIP3   OH225402   4.977   0.574   4.014
 8482TIP3    H125403   4.906   0.512   3.999
 8482TIP3    H225404   5.055   0.529   3.982
 8483TIP3   OH225405   6.064   2.861   1.046
 8483TIP3    H125406   6.075   2.902   0.961
 8483TIP3    H225407   6.146   2.878   1.092
 8484TIP3   OH225408   0.066   2.029   4.004
 8484TIP3    H125409   0.025   2.033   4.090
 8484TIP3    H225410   0.062   1.937   3.980
 8485TIP3   OH225411   3.807   1.317   4.728
 8485TIP3    H125412   3.868   1.363   4.786
 8485TIP3    H225413   3.863   1.279   4.660
 8486TIP3   OH225414   8.044   3.359   3.982
 8486TIP3    H125415   8.065   3.443   3.942
 8486TIP3    H225416   8.126   3.330   4.022
 8487TIP3   OH225417   5.135   0.252   2.782
 8487TIP3    H125418   5.114   0.262   2.875
 8487TIP3    H225419   5.074   0.185   2.751
 8488TIP3   OH225420   5.859   2.405   1.095
 8488TIP3    H125421   5.802   2.482   1.095
 8488TIP3    H225422   5.802   2.333   1.121
 8489TIP3   OH225423   2.510   4.757   4.921
 8489TIP3    H125424   2.486   4.798   4.838
 8489TIP3    H225425   2.437   4.778   4.980
 8490TIP3   OH225426   3.674   2.764   5.514
 8490TIP3    H125427   3.752   2.750   5.568
 8490TIP3    H225428   3.601   2.757   5.575
 8491TIP3   OH225429   6.073   0.008   5.289
 8491TIP3    H125430   6.036   0.080   5.340
 8491TIP3    H225431   6.057  -0.070   5.342
 8492TIP3   OH225432   3.124   0.137   5.429
 8492TIP3    H125433   3.092   0.053   5.396
 8492TIP3    H225434   3.162   0.180   5.352
 8493TIP3   OH225435   4.885   5.525   2.445
 8493TIP3    H125436   4.898   5.568   2.530
 8493TIP3    H225437   4.938   5.577   2.384
 8494TIP3   OH225438   0.616   5.762   5.811
 8494TIP3    H125439   0.569   5.681   5.831
 8494TIP3    H225440   0.570   5.829   5.860
 8495TIP3   OH225441   5.466   6.124   1.845
 8495TIP3    H125442   5.395   6.075   1.886
 8495TIP3    H225443   5.452   6.113   1.751
 8496TIP3   OH225444   5.833   5.760   2.904
 8496TIP3    H125445   5.906   5.781   2.847
 8496TIP3    H225446   5.873   5.724   2.983
 8497TIP3   OH225447   7.794   6.085   1.448
 8497TIP3    H125448   7.784   6.128   1.533
 8497TIP3    H225449   7.853   6.012   1.465
 8498TIP3   OH225450   1.521   0.579   5.166
 8498TIP3    H125451   1.577   0.593   5.242
 8498TIP3    H225452   1.473   0.499   5.186
 8499TIP3   OH225453   4.701   6.977   4.035
 8499TIP3    H125454   4.669   6.887   4.023
 8499TIP3    H225455   4.780   6.967   4.087
 8500TIP3   OH225456   6.390   7.295   4.637
 8500TIP3    H125457   6.387   7.331   4.548
 8500TIP3    H225458   6.451   7.222   4.631
 8501TIP3   OH225459   2.718   1.073   0.584
 8501TIP3    H125460   2.791   1.031   0.630
 8501TIP3    H225461   2.659   1.100   0.654
 8502TIP3   OH225462   0.716   7.496   1.479
 8502TIP3    H125463   0.692   7.479   1.388
 8502TIP3    H225464   0.697   7.589   1.492
 8503TIP3   OH225465   0.930   0.184   0.974
 8503TIP3    H125466   0.907   0.128   1.048
 8503TIP3    H225467   0.940   0.123   0.900
 8504TIP3   OH225468   3.060   6.151   6.331
 8504TIP3    H125469   2.996   6.095   6.286
 8504TIP3    H225470   3.040   6.239   6.300
 8505TIP3   OH225471   0.040   4.242   5.923
 8505TIP3    H125472   0.001   4.162   5.887
 8505TIP3    H225473   0.056   4.222   6.015
 8506TIP3   OH225474   7.482   0.870   1.046
 8506TIP3    H125475   7.463   0.908   1.132
 8506TIP3    H225476   7.544   0.932   1.006
 8507TIP3   OH225477   0.881   7.303   2.923
 8507TIP3    H125478   0.955   7.261   2.967
 8507TIP3    H225479   0.852   7.370   2.985
 8508TIP3   OH225480   3.591   1.538   1.199
 8508TIP3    H125481   3.670   1.558   1.250
 8508TIP3    H225482   3.530   1.608   1.220
 8509TIP3   OH225483   3.033   7.372   2.992
 8509TIP3    H125484   3.107   7.397   2.936
 8509TIP3    H225485   3.051   7.281   3.016
 8510TIP3   OH225486   6.685   5.895   5.690
 8510TIP3    H125487   6.650   5.808   5.709
 8510TIP3    H225488   6.780   5.883   5.695
 8511TIP3   OH225489   5.870   0.700   6.691
 8511TIP3    H125490   5.845   0.748   6.770
 8511TIP3    H225491   5.793   0.647   6.670
 8512TIP3   OH225492   7.868   2.274   5.078
 8512TIP3    H125493   7.945   2.284   5.133
 8512TIP3    H225494   7.868   2.181   5.053
 8513TIP3   OH225495   3.466   7.084   0.296
 8513TIP3    H125496   3.440   7.056   0.384
 8513TIP3    H225497   3.535   7.148   0.311
 8514TIP3   OH225498   3.978   0.907   1.347
 8514TIP3    H125499   3.980   0.893   1.252
 8514TIP3    H225500   4.061   0.870   1.378
 8515TIP3   OH225501   3.350   1.832   2.424
 8515TIP3    H125502   3.407   1.907   2.435
 8515TIP3    H225503   3.329   1.804   2.513
 8516TIP3   OH225504   7.863   4.357   6.588
 8516TIP3    H125505   7.800   4.357   6.660
 8516TIP3    H225506   7.854   4.271   6.548
 8517TIP3   OH225507   4.858   7.016   2.034
 8517TIP3    H125508   4.844   7.081   2.102
 8517TIP3    H225509   4.826   7.058   1.954
 8518TIP3   OH225510   4.913   7.641   6.681
 8518TIP3    H125511   4.999   7.662   6.644
 8518TIP3    H225512   4.918   7.547   6.700
 8519TIP3   OH225513   2.320   7.744   4.752
 8519TIP3    H125514   2.241   7.690   4.750
 8519TIP3    H225515   2.302   7.814   4.689
 8520TIP3   OH225516   3.044   1.298   0.869
 8520TIP3    H125517   3.071   1.293   0.961
 8520TIP3    H225518   3.025   1.391   0.855
 8521TIP3   OH225519   5.153   3.910   1.455
 8521TIP3    H125520   5.085   3.856   1.494
 8521TIP3    H225521   5.165   3.983   1.516
 8522TIP3   OH225522   2.670   5.641   1.067
 8522TIP3    H125523   2.633   5.568   1.117
 8522TIP3    H225524   2.600   5.706   1.065
 8523TIP3   OH225525   3.045   5.524   2.045
 8523TIP3    H125526   3.079   5.477   1.970
 8523TIP3    H225527   3.035   5.457   2.113
 8524TIP3   OH225528   3.095   0.566   2.871
 8524TIP3    H125529   3.186   0.542   2.888
 8524TIP3    H225530   3.090   0.660   2.893
 8525TIP3   OH225531   2.880   3.235   6.378
 8525TIP3    H125532   2.926   3.159   6.342
 8525TIP3    H225533   2.892   3.303   6.312
 8526TIP3   OH225534   0.548   1.536   1.668
 8526TIP3    H125535   0.456   1.564   1.666
 8526TIP3    H225536   0.549   1.463   1.730
 8527TIP3   OH225537   7.154   6.249   4.121
 8527TIP3    H125538   7.229   6.190   4.131
 8527TIP3    H225539   7.193   6.335   4.103
 8528TIP3   OH225540   2.062   6.584   0.582
 8528TIP3    H125541   2.074   6.584   0.487
 8528TIP3    H225542   2.142   6.624   0.617
 8529TIP3   OH225543   0.253   4.230   4.885
 8529TIP3    H125544   0.346   4.207   4.885
 8529TIP3    H225545   0.250   4.320   4.916
 8530TIP3   OH225546   5.521   1.003   0.022
 8530TIP3    H125547   5.443   1.044   0.060
 8530TIP3    H225548   5.567   1.075  -0.022
 8531TIP3   OH225549   4.493   6.244   1.850
 8531TIP3    H125550   4.482   6.333   1.817
 8531TIP3    H225551   4.431   6.192   1.799
 8532TIP3   OH225552   6.857   5.236   0.968
 8532TIP3    H125553   6.928   5.211   1.027
 8532TIP3    H225554   6.849   5.162   0.908
 8533TIP3   OH225555   2.808   7.565   5.689
 8533TIP3    H125556   2.791   7.471   5.687
 8533TIP3    H225557   2.899   7.572   5.718
 8534TIP3   OH225558   2.268   4.290   3.669
 8534TIP3    H125559   2.198   4.350   3.695
 8534TIP3    H225560   2.276   4.229   3.742
 8535TIP3   OH225561   2.901   4.999   3.693
 8535TIP3    H125562   2.899   5.050   3.613
 8535TIP3    H225563   2.924   5.062   3.762
 8536TIP3   OH225564   3.985   6.967   6.538
 8536TIP3    H125565   3.897   6.938   6.515
 8536TIP3    H225566   4.002   6.928   6.624
 8537TIP3   OH225567   4.286   2.887   5.467
 8537TIP3    H125568   4.327   2.807   5.435
 8537TIP3    H225569   4.195   2.863   5.481
 8538TIP3   OH225570   4.806   6.791   6.424
 8538TIP3    H125571   4.774   6.710   6.384
 8538TIP3    H225572   4.885   6.765   6.471
 8539TIP3   OH225573   3.034   3.613   1.188
 8539TIP3    H125574   2.996   3.543   1.242
 8539TIP3    H225575   3.018   3.693   1.239
 8540TIP3   OH225576   3.095   4.620   0.760
 8540TIP3    H125577   3.070   4.591   0.847
 8540TIP3    H225578   3.033   4.690   0.740
 8541TIP3   OH225579   1.387   0.919   1.809
 8541TIP3    H125580   1.325   0.929   1.737
 8541TIP3    H225581   1.337   0.943   1.887
 8542TIP3   OH225582   7.039   3.715   1.209
 8542TIP3    H125583   7.059   3.724   1.302
 8542TIP3    H225584   7.086   3.787   1.167
 8543TIP3   OH225585   4.055   3.562   0.380
 8543TIP3    H125586   4.014   3.492   0.330
 8543TIP3    H225587   4.035   3.642   0.330
 8544TIP3   OH225588   1.685   4.760   4.821
 8544TIP3    H125589   1.738   4.788   4.746
 8544TIP3    H225590   1.642   4.839   4.852
 8545TIP3   OH225591   4.732   4.197   2.596
 8545TIP3    H125592   4.798   4.251   2.640
 8545TIP3    H225593   4.774   4.112   2.587
 8546TIP3   OH225594   3.433   5.267   5.164
 8546TIP3    H125595   3.415   5.330   5.234
 8546TIP3    H225596   3.526   5.276   5.146
 8547TIP3   OH225597   4.554   4.187   4.800
 8547TIP3    H125598   4.625   4.191   4.864
 8547TIP3    H225599   4.530   4.094   4.796
 8548TIP3   OH225600   7.740   6.329   3.385
 8548TIP3    H125601   7.743   6.386   3.308
 8548TIP3    H225602   7.664   6.359   3.435
 8549TIP3   OH225603   1.151   0.939   3.410
 8549TIP3    H125604   1.109   1.022   3.433
 8549TIP3    H225605   1.110   0.874   3.468
 8550TIP3   OH225606   5.993   4.596   5.318
 8550TIP3    H125607   6.030   4.673   5.362
 8550TIP3    H225608   5.923   4.632   5.264
 8551TIP3   OH225609   5.349   3.727   5.998
 8551TIP3    H125610   5.268   3.779   5.997
 8551TIP3    H225611   5.386   3.741   5.911
 8552TIP3   OH225612   1.846   2.752   3.557
 8552TIP3    H125613   1.885   2.837   3.536
 8552TIP3    H225614   1.909   2.710   3.615
 8553TIP3   OH225615   6.869   7.041   6.516
 8553TIP3    H125616   6.836   7.129   6.501
 8553TIP3    H225617   6.813   7.006   6.585
 8554TIP3   OH225618   1.814   7.253   5.314
 8554TIP3    H125619   1.795   7.199   5.390
 8554TIP3    H225620   1.876   7.318   5.345
 8555TIP3   OH225621   2.917   1.527   1.275
 8555TIP3    H125622   2.854   1.480   1.329
 8555TIP3    H225623   2.941   1.603   1.328
 8556TIP3   OH225624   6.512   1.187   0.034
 8556TIP3    H125625   6.533   1.225   0.119
 8556TIP3    H225626   6.420   1.161   0.041
 8557TIP3   OH225627   1.762   6.435   4.555
 8557TIP3    H125628   1.692   6.373   4.577
 8557TIP3    H225629   1.788   6.411   4.466
 8558TIP3   OH225630   3.841   3.015   6.515
 8558TIP3    H125631   3.872   3.057   6.435
 8558TIP3    H225632   3.785   2.944   6.484
 8559TIP3   OH225633   6.664   6.361   3.487
 8559TIP3    H125634   6.620   6.281   3.517
 8559TIP3    H225635   6.688   6.407   3.568
 8560TIP3   OH225636   4.086   4.870   2.928
 8560TIP3    H125637   4.105   4.789   2.882
 8560TIP3    H225638   4.153   4.876   2.997
 8561TIP3   OH225639   3.356   5.488   1.675
 8561TIP3    H125640   3.432   5.487   1.732
 8561TIP3    H225641   3.336   5.581   1.663
 8562TIP3   OH225642   1.398   4.691   5.703
 8562TIP3    H125643   1.490   4.686   5.675
 8562TIP3    H225644   1.348   4.665   5.626
 8563TIP3   OH225645   5.294   1.163   4.130
 8563TIP3    H125646   5.331   1.208   4.206
 8563TIP3    H225647   5.326   1.213   4.055
 8564TIP3   OH225648   7.540   6.004   1.727
 8564TIP3    H125649   7.505   5.992   1.815
 8564TIP3    H225650   7.604   5.933   1.716
 8565TIP3   OH225651   1.305   2.722   3.400
 8565TIP3    H125652   1.236   2.661   3.427
 8565TIP3    H225653   1.385   2.671   3.407
 8566TIP3   OH225654   4.267   0.372   5.394
 8566TIP3    H125655   4.357   0.397   5.374
 8566TIP3    H225656   4.262   0.373   5.490
 8567TIP3   OH225657   5.114   0.054   3.176
 8567TIP3    H125658   5.114  -0.013   3.107
 8567TIP3    H225659   5.062   0.014   3.246
 8568TIP3   OH225660   8.243   7.233   5.430
 8568TIP3    H125661   8.287   7.204   5.350
 8568TIP3    H225662   8.265   7.326   5.436
 8569TIP3   OH225663   7.661   7.237   4.702
 8569TIP3    H125664   7.586   7.261   4.647
 8569TIP3    H225665   7.696   7.321   4.732
 8570TIP3   OH225666   4.149   7.457   6.663
 8570TIP3    H125667   4.127   7.444   6.571
 8570TIP3    H225668   4.178   7.548   6.668
 8571TIP3   OH225669   7.476   4.817   3.538
 8571TIP3    H125670   7.392   4.841   3.498
 8571TIP3    H225671   7.495   4.890   3.598
 8572TIP3   OH225672   5.613   5.769   1.604
 8572TIP3    H125673   5.535   5.738   1.558
 8572TIP3    H225674   5.686   5.726   1.559
 8573TIP3   OH225675   0.934   0.748   2.216
 8573TIP3    H125676   0.909   0.682   2.152
 8573TIP3    H225677   1.025   0.729   2.237
 8574TIP3   OH225678   6.957   5.240   3.896
 8574TIP3    H125679   6.922   5.227   3.808
 8574TIP3    H225680   6.962   5.152   3.934
 8575TIP3   OH225681   2.514   2.452   5.442
 8575TIP3    H125682   2.463   2.532   5.450
 8575TIP3    H225683   2.483   2.396   5.513
 8576TIP3   OH225684   1.547   3.490   3.746
 8576TIP3    H125685   1.458   3.502   3.713
 8576TIP3    H225686   1.536   3.481   3.840
 8577TIP3   OH225687   5.294   0.134   2.107
 8577TIP3    H125688   5.260   0.130   2.196
 8577TIP3    H225689   5.322   0.225   2.096
 8578TIP3   OH225690   4.773   4.049   5.619
 8578TIP3    H125691   4.735   4.136   5.632
 8578TIP3    H225692   4.702   3.988   5.640
 8579TIP3   OH225693   4.788   3.384   2.958
 8579TIP3    H125694   4.748   3.430   2.884
 8579TIP3    H225695   4.866   3.341   2.921
 8580TIP3   OH225696   6.207   7.327   4.170
 8580TIP3    H125697   6.249   7.364   4.092
 8580TIP3    H225698   6.116   7.358   4.165
 8581TIP3   OH225699   7.427   6.643   6.737
 8581TIP3    H125700   7.431   6.694   6.656
 8581TIP3    H225701   7.345   6.594   6.730
 8582TIP3   OH225702   0.479   7.217   3.979
 8582TIP3    H125703   0.467   7.262   3.896
 8582TIP3    H225704   0.524   7.280   4.035
 8583TIP3   OH225705   7.227   5.475   2.515
 8583TIP3    H125706   7.315   5.440   2.526
 8583TIP3    H225707   7.213   5.476   2.420
 8584TIP3   OH225708   2.220   3.809   3.928
 8584TIP3    H125709   2.169   3.733   3.901
 8584TIP3    H225710   2.311   3.783   3.911
 8585TIP3   OH225711   8.234   3.808   5.544
 8585TIP3    H125712   8.250   3.892   5.588
 8585TIP3    H225713   8.157   3.772   5.588
 8586TIP3   OH225714   4.581   1.706   2.915
 8586TIP3    H125715   4.664   1.752   2.903
 8586TIP3    H225716   4.533   1.722   2.833
 8587TIP3   OH225717   4.076   3.007   1.168
 8587TIP3    H125718   4.127   3.086   1.150
 8587TIP3    H225719   4.040   2.982   1.083
 8588TIP3   OH225720   7.079   2.598   0.192
 8588TIP3    H125721   7.078   2.599   0.096
 8588TIP3    H225722   7.172   2.591   0.215
 8589TIP3   OH225723   0.816   5.201   4.273
 8589TIP3    H125724   0.733   5.154   4.280
 8589TIP3    H225725   0.869   5.148   4.214
 8590TIP3   OH225726   6.265   7.799   1.471
 8590TIP3    H125727   6.333   7.740   1.439
 8590TIP3    H225728   6.229   7.754   1.548
 8591TIP3   OH225729   7.639   1.583   3.090
 8591TIP3    H125730   7.560   1.617   3.132
 8591TIP3    H225731   7.671   1.656   3.037
 8592TIP3   OH225732   7.103   2.171   4.969
 8592TIP3    H125733   7.013   2.183   4.997
 8592TIP3    H225734   7.099   2.169   4.873
 8593TIP3   OH225735   6.335   0.281   4.763
 8593TIP3    H125736   6.268   0.327   4.714
 8593TIP3    H225737   6.409   0.276   4.704
 8594TIP3   OH225738   3.499   1.823   1.578
 8594TIP3    H125739   3.517   1.896   1.636
 8594TIP3    H225740   3.426   1.777   1.619
 8595TIP3   OH225741   6.415   7.475   2.872
 8595TIP3    H125742   6.458   7.558   2.852
 8595TIP3    H225743   6.322   7.493   2.861
 8596TIP3   OH225744   6.992   1.550   1.214
 8596TIP3    H125745   6.956   1.585   1.296
 8596TIP3    H225746   6.936   1.476   1.193
 8597TIP3   OH225747   6.897   5.993   3.066
 8597TIP3    H125748   6.935   5.929   3.007
 8597TIP3    H225749   6.946   5.984   3.148
 8598TIP3   OH225750   7.304   4.880   2.512
 8598TIP3    H125751   7.292   4.970   2.543
 8598TIP3    H225752   7.252   4.876   2.432
 8599TIP3   OH225753   4.548   0.569   3.268
 8599TIP3    H125754   4.560   0.474   3.269
 8599TIP3    H225755   4.510   0.589   3.183
 8600TIP3   OH225756   7.161   2.732   0.715
 8600TIP3    H125757   7.075   2.702   0.745
 8600TIP3    H225758   7.142   2.788   0.640
 8601TIP3   OH225759   5.110   3.568   0.239
 8601TIP3    H125760   5.059   3.616   0.174
 8601TIP3    H225761   5.131   3.485   0.196
 8602TIP3   OH225762   7.270   7.016   2.966
 8602TIP3    H125763   7.358   6.992   2.996
 8602TIP3    H225764   7.227   6.933   2.948
 8603TIP3   OH225765   3.507   1.329   3.594
 8603TIP3    H125766   3.548   1.252   3.633
 8603TIP3    H225767   3.565   1.353   3.521
 8604TIP3   OH225768   5.538   2.975   1.455
 8604TIP3    H125769   5.562   3.060   1.491
 8604TIP3    H225770   5.622   2.930   1.444
 8605TIP3   OH225771   1.417   5.551   4.336
 8605TIP3    H125772   1.467   5.472   4.357
 8605TIP3    H225773   1.422   5.558   4.241
 8606TIP3   OH225774   1.896   1.535   4.694
 8606TIP3    H125775   1.852   1.481   4.629
 8606TIP3    H225776   1.826   1.569   4.749
 8607TIP3   OH225777   3.242   2.782   3.214
 8607TIP3    H125778   3.298   2.707   3.197
 8607TIP3    H225779   3.251   2.837   3.136
 8608TIP3   OH225780   1.409   0.809   4.483
 8608TIP3    H125781   1.390   0.715   4.479
 8608TIP3    H225782   1.390   0.833   4.574
 8609TIP3   OH225783   7.326   6.991   4.925
 8609TIP3    H125784   7.331   7.059   4.991
 8609TIP3    H225785   7.339   6.909   4.973
 8610TIP3   OH225786   6.341   3.400   4.946
 8610TIP3    H125787   6.325   3.313   4.984
 8610TIP3    H225788   6.408   3.385   4.880
 8611TIP3   OH225789   4.817   0.725   3.149
 8611TIP3    H125790   4.790   0.634   3.139
 8611TIP3    H225791   4.912   0.720   3.161
 8612TIP3   OH225792   6.428   2.650   0.095
 8612TIP3    H125793   6.497   2.596   0.056
 8612TIP3    H225794   6.417   2.722   0.033
 8613TIP3   OH225795   3.357   1.266   2.584
 8613TIP3    H125796   3.424   1.221   2.636
 8613TIP3    H225797   3.331   1.340   2.638
 8614TIP3   OH225798   6.826   4.450   3.627
 8614TIP3    H125799   6.793   4.460   3.538
 8614TIP3    H225800   6.758   4.399   3.672
 8615TIP3   OH225801   5.819   1.125   2.636
 8615TIP3    H125802   5.882   1.083   2.694
 8615TIP3    H225803   5.793   1.057   2.574
 8616TIP3   OH225804   2.523   0.302   4.459
 8616TIP3    H125805   2.545   0.376   4.515
 8616TIP3    H225806   2.600   0.246   4.461
 8617TIP3   OH225807   3.207   1.097   4.396
 8617TIP3    H125808   3.280   1.045   4.429
 8617TIP3    H225809   3.135   1.081   4.458
 8618TIP3   OH225810   8.229   0.197   6.778
 8618TIP3    H125811   8.232   0.291   6.759
 8618TIP3    H225812   8.320   0.168   6.771
 8619TIP3   OH225813   1.500   1.607   3.951
 8619TIP3    H125814   1.482   1.518   3.919
 8619TIP3    H225815   1.495   1.662   3.873
 8620TIP3   OH225816   4.630   5.214   0.903
 8620TIP3    H125817   4.716   5.202   0.944
 8620TIP3    H225818   4.650   5.228   0.810
 8621TIP3   OH225819   4.689   4.792   1.637
 8621TIP3    H125820   4.769   4.841   1.652
 8621TIP3    H225821   4.621   4.859   1.626
 8622TIP3   OH225822   1.284   1.041   5.804
 8622TIP3    H125823   1.224   1.114   5.789
 8622TIP3    H225824   1.340   1.039   5.726
 8623TIP3   OH225825   6.589   0.880   0.101
 8623TIP3    H125826   6.581   0.959   0.047
 8623TIP3    H225827   6.681   0.855   0.094
 8624TIP3   OH225828   3.031   5.878   5.944
 8624TIP3    H125829   3.069   5.790   5.949
 8624TIP3    H225830   2.944   5.868   5.982
 8625TIP3   OH225831   3.650   1.068   0.008
 8625TIP3    H125832   3.594   1.134  -0.033
 8625TIP3    H225833   3.590   0.999   0.037
 8626TIP3   OH225834   7.964   6.992   3.884
 8626TIP3    H125835   7.956   6.900   3.911
 8626TIP3    H225836   7.900   7.038   3.939
 8627TIP3   OH225837   3.245   4.112   1.243
 8627TIP3    H125838   3.168   4.168   1.243
 8627TIP3    H225839   3.264   4.098   1.150
 8628TIP3   OH225840   4.698   0.144   5.840
 8628TIP3    H125841   4.756   0.221   5.835
 8628TIP3    H225842   4.612   0.179   5.819
 8629TIP3   OH225843   1.385   5.637   4.763
 8629TIP3    H125844   1.355   5.697   4.832
 8629TIP3    H225845   1.346   5.552   4.786
 8630TIP3   OH225846   2.364   3.020   1.806
 8630TIP3    H125847   2.405   3.074   1.873
 8630TIP3    H225848   2.387   3.062   1.723
 8631TIP3   OH225849   7.965   1.954   4.240
 8631TIP3    H125850   7.874   1.961   4.211
 8631TIP3    H225851   7.959   1.924   4.331
 8632TIP3   OH225852   3.432   1.831   6.698
 8632TIP3    H125853   3.476   1.845   6.782
 8632TIP3    H225854   3.420   1.736   6.694
 8633TIP3   OH225855   0.889   2.998   4.731
 8633TIP3    H125856   0.880   3.092   4.746
 8633TIP3    H225857   0.939   2.967   4.807
 8634TIP3   OH225858   3.798   2.409   0.993
 8634TIP3    H125859   3.789   2.502   0.973
 8634TIP3    H225860   3.880   2.384   0.951
 8635TIP3   OH225861   7.948   6.942   3.384
 8635TIP3    H125862   7.919   6.952   3.475
 8635TIP3    H225863   8.034   6.900   3.391
 8636TIP3   OH225864   7.224   1.360   5.578
 8636TIP3    H125865   7.260   1.394   5.496
 8636TIP3    H225866   7.300   1.349   5.635
 8637TIP3   OH225867   4.448   3.264   1.563
 8637TIP3    H125868   4.498   3.197   1.609
 8637TIP3    H225869   4.487   3.347   1.591
 8638TIP3   OH225870   7.437   7.791   6.738
 8638TIP3    H125871   7.518   7.831   6.770
 8638TIP3    H225872   7.430   7.819   6.647
 8639TIP3   OH225873   0.866   3.090   5.064
 8639TIP3    H125874   0.956   3.060   5.068
 8639TIP3    H225875   0.871   3.183   5.089
 8640TIP3   OH225876   0.884   2.454   0.863
 8640TIP3    H125877   0.819   2.416   0.921
 8640TIP3    H225878   0.963   2.461   0.915
 8641TIP3   OH225879   3.231   3.331   1.010
 8641TIP3    H125880   3.207   3.418   1.043
 8641TIP3    H225881   3.320   3.342   0.978
 8642TIP3   OH225882   6.923   2.703   0.852
 8642TIP3    H125883   6.943   2.794   0.875
 8642TIP3    H225884   6.829   2.702   0.836
 8643TIP3   OH225885   5.505   3.610   0.104
 8643TIP3    H125886   5.531   3.586   0.015
 8643TIP3    H225887   5.411   3.624   0.098
 8644TIP3   OH225888   0.676   5.097   2.964
 8644TIP3    H125889   0.759   5.071   2.925
 8644TIP3    H225890   0.649   5.021   3.015
 8645TIP3   OH225891   7.636   1.304   4.103
 8645TIP3    H125892   7.662   1.291   4.012
 8645TIP3    H225893   7.661   1.395   4.122
 8646TIP3   OH225894   0.063   4.505   4.319
 8646TIP3    H125895   0.050   4.530   4.411
 8646TIP3    H225896  -0.008   4.444   4.300
 8647TIP3   OH225897   3.225   3.713   6.350
 8647TIP3    H125898   3.182   3.762   6.280
 8647TIP3    H225899   3.318   3.730   6.337
 8648TIP3   OH225900   2.110   1.737   6.642
 8648TIP3    H125901   2.114   1.687   6.723
 8648TIP3    H225902   2.201   1.759   6.623
 8649TIP3   OH225903   3.423   4.362   3.663
 8649TIP3    H125904   3.361   4.289   3.660
 8649TIP3    H225905   3.508   4.319   3.677
 8650TIP3   OH225906   4.944   7.105   0.001
 8650TIP3    H125907   4.989   7.160   0.065
 8650TIP3    H225908   4.868   7.072   0.048
 8651TIP3   OH225909   0.625   5.890   2.778
 8651TIP3    H125910   0.705   5.880   2.828
 8651TIP3    H225911   0.654   5.902   2.688
 8652TIP3   OH225912   0.543   5.795   3.365
 8652TIP3    H125913   0.460   5.800   3.413
 8652TIP3    H225914   0.546   5.704   3.333
 8653TIP3   OH225915   0.193   1.452   3.674
 8653TIP3    H125916   0.261   1.513   3.645
 8653TIP3    H225917   0.112   1.487   3.636
 8654TIP3   OH225918   7.425   2.879   3.328
 8654TIP3    H125919   7.378   2.893   3.246
 8654TIP3    H225920   7.393   2.948   3.386
 8655TIP3   OH225921   1.283   1.048   6.316
 8655TIP3    H125922   1.319   1.055   6.228
 8655TIP3    H225923   1.351   1.086   6.372
 8656TIP3   OH225924   1.716   0.194   1.635
 8656TIP3    H125925   1.657   0.141   1.690
 8656TIP3    H225926   1.734   0.272   1.687
 8657TIP3   OH225927   1.016   1.941   0.948
 8657TIP3    H125928   1.045   2.000   0.879
 8657TIP3    H225929   1.004   1.997   1.025
 8658TIP3   OH225930   5.991   3.226   2.218
 8658TIP3    H125931   5.954   3.181   2.294
 8658TIP3    H225932   5.917   3.235   2.158
 8659TIP3   OH225933   3.447   3.746   1.247
 8659TIP3    H125934   3.512   3.801   1.291
 8659TIP3    H225935   3.451   3.663   1.294
 8660TIP3   OH225936   4.696   5.453   2.825
 8660TIP3    H125937   4.776   5.416   2.788
 8660TIP3    H225938   4.626   5.409   2.777
 8661TIP3   OH225939   6.759   6.886   3.103
 8661TIP3    H125940   6.816   6.947   3.055
 8661TIP3    H225941   6.671   6.906   3.070
 8662TIP3   OH225942   2.052   7.608   0.750
 8662TIP3    H125943   1.960   7.632   0.754
 8662TIP3    H225944   2.080   7.602   0.841
 8663TIP3   OH225945   2.964   5.927   4.583
 8663TIP3    H125946   2.886   5.923   4.528
 8663TIP3    H225947   3.037   5.922   4.521
 8664TIP3   OH225948   6.039   3.513   1.907
 8664TIP3    H125949   6.091   3.458   1.849
 8664TIP3    H225950   6.076   3.601   1.898
 8665TIP3   OH225951   0.658   0.502   6.575
 8665TIP3    H125952   0.714   0.539   6.644
 8665TIP3    H225953   0.590   0.568   6.562
 8666TIP3   OH225954   2.418   7.710   0.866
 8666TIP3    H125955   2.459   7.794   0.844
 8666TIP3    H225956   2.389   7.720   0.957
 8667TIP3   OH225957   5.909   1.878   2.109
 8667TIP3    H125958   5.839   1.839   2.057
 8667TIP3    H225959   5.912   1.825   2.189
 8668TIP3   OH225960   0.850   6.628   1.552
 8668TIP3    H125961   0.882   6.655   1.638
 8668TIP3    H225962   0.928   6.596   1.506
 8669TIP3   OH225963   6.030   0.050   2.661
 8669TIP3    H125964   6.095  -0.018   2.644
 8669TIP3    H225965   5.946   0.010   2.638
 8670TIP3   OH225966   0.101   2.431   0.369
 8670TIP3    H125967   0.019   2.390   0.395
 8670TIP3    H225968   0.095   2.440   0.274
 8671TIP3   OH225969   6.128   0.451   4.222
 8671TIP3    H125970   6.067   0.517   4.188
 8671TIP3    H225971   6.154   0.401   4.144
 8672TIP3   OH225972   4.617   1.935   6.080
 8672TIP3    H125973   4.607   1.847   6.115
 8672TIP3    H225974   4.571   1.991   6.143
 8673TIP3   OH225975   0.063   6.796   1.171
 8673TIP3    H125976   0.030   6.825   1.256
 8673TIP3    H225977   0.157   6.785   1.184
 8674TIP3   OH225978   1.549   4.247   0.172
 8674TIP3    H125979   1.528   4.338   0.150
 8674TIP3    H225980   1.471   4.197   0.146
 8675TIP3   OH225981   6.740   7.258   6.441
 8675TIP3    H125982   6.758   7.325   6.375
 8675TIP3    H225983   6.682   7.196   6.396
 8676TIP3   OH225984   0.253   2.807   5.320
 8676TIP3    H125985   0.285   2.897   5.330
 8676TIP3    H225986   0.162   2.818   5.291
 8677TIP3   OH225987   2.379   3.148   3.822
 8677TIP3    H125988   2.376   3.071   3.765
 8677TIP3    H225989   2.464   3.144   3.865
 8678TIP3   OH225990   4.455   3.356   0.220
 8678TIP3    H125991   4.401   3.304   0.160
 8678TIP3    H225992   4.398   3.372   0.295
 8679TIP3   OH225993   0.316   3.640   5.096
 8679TIP3    H125994   0.371   3.626   5.020
 8679TIP3    H225995   0.226   3.637   5.062
 8680TIP3   OH225996   5.472   3.491   5.186
 8680TIP3    H125997   5.541   3.501   5.252
 8680TIP3    H225998   5.436   3.579   5.175
 8681TIP3   OH225999   3.350   0.036   3.832
 8681TIP3    H126000   3.274   0.077   3.791
 8681TIP3    H226001   3.388   0.104   3.887
 8682TIP3   OH226002   7.036   3.711   4.301
 8682TIP3    H126003   6.964   3.714   4.364
 8682TIP3    H226004   7.042   3.619   4.276
 8683TIP3   OH226005   0.879   5.222   0.676
 8683TIP3    H126006   0.831   5.302   0.658
 8683TIP3    H226007   0.971   5.249   0.675
 8684TIP3   OH226008   1.274   3.521   3.694
 8684TIP3    H126009   1.253   3.590   3.631
 8684TIP3    H226010   1.206   3.455   3.680
 8685TIP3   OH226011   1.436   7.213   6.138
 8685TIP3    H126012   1.423   7.178   6.226
 8685TIP3    H226013   1.355   7.191   6.091
 8686TIP3   OH226014   3.953   3.096   0.297
 8686TIP3    H126015   3.940   3.021   0.238
 8686TIP3    H226016   3.913   3.170   0.251
 8687TIP3   OH226017   1.527   3.825   1.640
 8687TIP3    H126018   1.560   3.738   1.620
 8687TIP3    H226019   1.549   3.839   1.732
 8688TIP3   OH226020   5.001   5.524   1.192
 8688TIP3    H126021   5.020   5.433   1.214
 8688TIP3    H226022   4.917   5.520   1.146
 8689TIP3   OH226023   3.193   2.464   2.016
 8689TIP3    H126024   3.114   2.499   2.056
 8689TIP3    H226025   3.199   2.374   2.047
 8690TIP3   OH226026   4.315   6.812   3.160
 8690TIP3    H126027   4.269   6.729   3.150
 8690TIP3    H226028   4.400   6.797   3.118
 8691TIP3   OH226029   2.128   6.612   1.778
 8691TIP3    H126030   2.072   6.631   1.853
 8691TIP3    H226031   2.072   6.564   1.717
 8692TIP3   OH226032   4.464   2.142   2.856
 8692TIP3    H126033   4.371   2.150   2.832
 8692TIP3    H226034   4.462   2.114   2.947
 8693TIP3   OH226035   6.859   5.616   6.059
 8693TIP3    H126036   6.890   5.530   6.086
 8693TIP3    H226037   6.791   5.638   6.122
 8694TIP3   OH226038   4.585   7.091   1.170
 8694TIP3    H126039   4.540   7.149   1.108
 8694TIP3    H226040   4.529   7.092   1.247
 8695TIP3   OH226041   4.436   2.379   2.020
 8695TIP3    H126042   4.428   2.305   2.081
 8695TIP3    H226043   4.374   2.359   1.950
 8696TIP3   OH226044   2.181   0.455   0.309
 8696TIP3    H126045   2.218   0.436   0.223
 8696TIP3    H226046   2.164   0.549   0.308
 8697TIP3   OH226047   2.825   2.210   2.896
 8697TIP3    H126048   2.921   2.208   2.901
 8697TIP3    H226049   2.800   2.119   2.881
 8698TIP3   OH226050   2.280   3.472   1.941
 8698TIP3    H126051   2.299   3.407   1.873
 8698TIP3    H226052   2.187   3.459   1.961
 8699TIP3   OH226053   2.360   1.223   0.557
 8699TIP3    H126054   2.422   1.181   0.616
 8699TIP3    H226055   2.339   1.307   0.600
 8700TIP3   OH226056   5.109   7.238   4.805
 8700TIP3    H126057   5.132   7.249   4.897
 8700TIP3    H226058   5.071   7.151   4.800
 8701TIP3   OH226059   5.176   0.959   5.689
 8701TIP3    H126060   5.133   1.020   5.749
 8701TIP3    H226061   5.199   0.883   5.743
 8702TIP3   OH226062   3.462   5.083   4.793
 8702TIP3    H126063   3.453   5.090   4.698
 8702TIP3    H226064   3.397   5.017   4.818
 8703TIP3   OH226065   3.826   3.163   3.846
 8703TIP3    H126066   3.777   3.091   3.808
 8703TIP3    H226067   3.828   3.230   3.778
 8704TIP3   OH226068   1.282   3.458   4.967
 8704TIP3    H126069   1.339   3.518   4.919
 8704TIP3    H226070   1.327   3.373   4.961
 8705TIP3   OH226071   1.369   0.645   4.942
 8705TIP3    H126072   1.438   0.643   5.008
 8705TIP3    H226073   1.308   0.576   4.969
 8706TIP3   OH226074   4.972   3.743   4.861
 8706TIP3    H126075   4.980   3.669   4.921
 8706TIP3    H226076   4.893   3.789   4.890
 8707TIP3   OH226077   7.038   5.098   2.818
 8707TIP3    H126078   7.042   5.161   2.745
 8707TIP3    H226079   7.069   5.148   2.893
 8708TIP3   OH226080   3.213   4.721   5.848
 8708TIP3    H126081   3.163   4.770   5.913
 8708TIP3    H226082   3.212   4.777   5.770
 8709TIP3   OH226083   7.431   4.299   2.842
 8709TIP3    H126084   7.514   4.341   2.864
 8709TIP3    H226085   7.368   4.338   2.902
 8710TIP3   OH226086   1.443   6.434   3.136
 8710TIP3    H126087   1.479   6.364   3.191
 8710TIP3    H226088   1.517   6.492   3.119
 8711TIP3   OH226089   1.824   3.964   1.910
 8711TIP3    H126090   1.788   4.041   1.867
 8711TIP3    H226091   1.823   3.985   2.003
 8712TIP3   OH226092   0.227   0.416   2.337
 8712TIP3    H126093   0.238   0.511   2.343
 8712TIP3    H226094   0.222   0.387   2.428
 8713TIP3   OH226095   6.419   6.629   5.094
 8713TIP3    H126096   6.364   6.695   5.136
 8713TIP3    H226097   6.509   6.661   5.105
 8714TIP3   OH226098   7.396   3.691   1.728
 8714TIP3    H126099   7.354   3.605   1.738
 8714TIP3    H226100   7.374   3.737   1.809
 8715TIP3   OH226101   5.154   5.781   3.028
 8715TIP3    H126102   5.145   5.816   2.939
 8715TIP3    H226103   5.233   5.728   3.026
 8716TIP3   OH226104   0.142   2.337   6.645
 8716TIP3    H126105   0.193   2.256   6.648
 8716TIP3    H226106   0.051   2.309   6.633
 8717TIP3   OH226107   0.065   4.486   1.915
 8717TIP3    H126108   0.153   4.517   1.895
 8717TIP3    H226109   0.020   4.483   1.831
 8718TIP3   OH226110   0.898   5.610   6.121
 8718TIP3    H126111   0.807   5.638   6.134
 8718TIP3    H226112   0.947   5.656   6.189
 8719TIP3   OH226113   6.465   1.704   2.519
 8719TIP3    H126114   6.391   1.727   2.463
 8719TIP3    H226115   6.541   1.704   2.460
 8720TIP3   OH226116   2.316   2.485   0.390
 8720TIP3    H126117   2.364   2.530   0.460
 8720TIP3    H226118   2.254   2.551   0.358
 8721TIP3   OH226119   5.198   3.282   5.569
 8721TIP3    H126120   5.201   3.299   5.475
 8721TIP3    H226121   5.285   3.246   5.590
 8722TIP3   OH226122   3.012   2.258   1.657
 8722TIP3    H126123   3.091   2.298   1.693
 8722TIP3    H226124   3.012   2.169   1.692
 8723TIP3   OH226125   2.198   0.698   6.620
 8723TIP3    H126126   2.196   0.602   6.631
 8723TIP3    H226127   2.172   0.732   6.705
 8724TIP3   OH226128   6.522   1.320   1.308
 8724TIP3    H126129   6.508   1.367   1.226
 8724TIP3    H226130   6.547   1.232   1.281
 8725TIP3   OH226131   8.104   3.968   3.147
 8725TIP3    H126132   8.055   4.050   3.153
 8725TIP3    H226133   8.102   3.933   3.236
 8726TIP3   OH226134   4.712   4.300   1.766
 8726TIP3    H126135   4.638   4.357   1.746
 8726TIP3    H226136   4.674   4.229   1.818
 8727TIP3   OH226137   5.507   0.497   3.244
 8727TIP3    H126138   5.484   0.408   3.217
 8727TIP3    H226139   5.491   0.550   3.166
 8728TIP3   OH226140   5.800   1.150   4.121
 8728TIP3    H126141   5.757   1.234   4.136
 8728TIP3    H226142   5.820   1.117   4.209
 8729TIP3   OH226143   3.440   1.204   2.333
 8729TIP3    H126144   3.413   1.215   2.424
 8729TIP3    H226145   3.431   1.291   2.294
 8730TIP3   OH226146   3.512   2.844   5.957
 8730TIP3    H126147   3.509   2.840   5.862
 8730TIP3    H226148   3.540   2.757   5.984
 8731TIP3   OH226149   6.045   2.528   4.948
 8731TIP3    H126150   6.006   2.491   5.027
 8731TIP3    H226151   6.082   2.452   4.903
 8732TIP3   OH226152   1.652   1.899   0.121
 8732TIP3    H126153   1.693   1.985   0.109
 8732TIP3    H226154   1.652   1.885   0.215
 8733TIP3   OH226155   6.815   2.146   5.533
 8733TIP3    H126156   6.840   2.168   5.622
 8733TIP3    H226157   6.743   2.084   5.543
 8734TIP3   OH226158   8.231   7.580   3.273
 8734TIP3    H126159   8.144   7.552   3.302
 8734TIP3    H226160   8.222   7.588   3.177
 8735TIP3   OH226161   0.765   3.335   3.915
 8735TIP3    H126162   0.845   3.295   3.881
 8735TIP3    H226163   0.794   3.386   3.990
 8736TIP3   OH226164   7.949   1.510   6.525
 8736TIP3    H126165   8.003   1.431   6.515
 8736TIP3    H226166   7.859   1.478   6.519
 8737TIP3   OH226167   4.883   0.899   1.367
 8737TIP3    H126168   4.978   0.901   1.360
 8737TIP3    H226169   4.856   0.991   1.371
 8738TIP3   OH226170   6.077   4.279   2.871
 8738TIP3    H126171   6.029   4.347   2.917
 8738TIP3    H226172   6.132   4.327   2.808
 8739TIP3   OH226173   5.744   5.276   3.348
 8739TIP3    H126174   5.805   5.349   3.333
 8739TIP3    H226175   5.786   5.224   3.416
 8740TIP3   OH226176   6.881   6.726   2.364
 8740TIP3    H126177   6.802   6.680   2.339
 8740TIP3    H226178   6.885   6.801   2.304
 8741TIP3   OH226179   3.060   2.993   3.962
 8741TIP3    H126180   3.149   3.013   3.935
 8741TIP3    H226181   3.067   2.966   4.053
 8742TIP3   OH226182   5.600   4.284   4.411
 8742TIP3    H126183   5.627   4.210   4.356
 8742TIP3    H226184   5.661   4.282   4.485
 8743TIP3   OH226185   7.271   3.627   2.521
 8743TIP3    H126186   7.257   3.580   2.439
 8743TIP3    H226187   7.210   3.700   2.518
 8744TIP3   OH226188   1.122   5.385   0.098
 8744TIP3    H126189   1.059   5.392   0.027
 8744TIP3    H226190   1.176   5.309   0.076
 8745TIP3   OH226191   2.417   2.319   2.502
 8745TIP3    H126192   2.393   2.312   2.594
 8745TIP3    H226193   2.513   2.314   2.502
 8746TIP3   OH226194   0.492   1.275   0.657
 8746TIP3    H126195   0.435   1.324   0.717
 8746TIP3    H226196   0.566   1.335   0.641
 8747TIP3   OH226197   7.899   0.017   5.131
 8747TIP3    H126198   7.989   0.041   5.155
 8747TIP3    H226199   7.847   0.094   5.153
 8748TIP3   OH226200   6.751   6.213   5.911
 8748TIP3    H126201   6.720   6.127   5.940
 8748TIP3    H226202   6.797   6.195   5.828
 8749TIP3   OH226203   0.996   0.876   4.995
 8749TIP3    H126204   0.967   0.826   4.919
 8749TIP3    H226205   0.947   0.838   5.068
 8750TIP3   OH226206   1.328   1.121   1.131
 8750TIP3    H126207   1.350   1.184   1.062
 8750TIP3    H226208   1.413   1.091   1.164
 8751TIP3   OH226209   5.480   5.502   5.460
 8751TIP3    H126210   5.478   5.598   5.449
 8751TIP3    H226211   5.389   5.475   5.455
 8752TIP3   OH226212   5.997   4.323   4.389
 8752TIP3    H126213   5.969   4.320   4.298
 8752TIP3    H226214   5.947   4.397   4.426
 8753TIP3   OH226215   0.491   7.727   2.597
 8753TIP3    H126216   0.514   7.818   2.580
 8753TIP3    H226217   0.415   7.710   2.542
 8754TIP3   OH226218   7.408   7.334   3.818
 8754TIP3    H126219   7.316   7.346   3.793
 8754TIP3    H226220   7.444   7.278   3.750
 8755TIP3   OH226221   7.894   6.222   5.694
 8755TIP3    H126222   7.830   6.268   5.748
 8755TIP3    H226223   7.964   6.286   5.680
 8756TIP3   OH226224   6.418   1.664   3.942
 8756TIP3    H126225   6.375   1.655   4.027
 8756TIP3    H226226   6.443   1.575   3.918
 8757TIP3   OH226227   4.844   5.187   1.850
 8757TIP3    H126228   4.886   5.200   1.936
 8757TIP3    H226229   4.906   5.133   1.802
 8758TIP3   OH226230   6.134   0.348   6.684
 8758TIP3    H126231   6.158   0.433   6.722
 8758TIP3    H226232   6.218   0.304   6.671
 8759TIP3   OH226233   0.518   6.529   1.468
 8759TIP3    H126234   0.586   6.538   1.400
 8759TIP3    H226235   0.442   6.496   1.421
 8760TIP3   OH226236   2.844   3.802   2.700
 8760TIP3    H126237   2.920   3.756   2.735
 8760TIP3    H226238   2.797   3.834   2.777
 8761TIP3   OH226239   1.289   7.602   5.045
 8761TIP3    H126240   1.253   7.628   5.130
 8761TIP3    H226241   1.338   7.522   5.064
 8762TIP3   OH226242   7.165   3.447   0.399
 8762TIP3    H126243   7.182   3.538   0.425
 8762TIP3    H226244   7.215   3.394   0.461
 8763TIP3   OH226245   4.602   3.456   4.018
 8763TIP3    H126246   4.567   3.499   3.940
 8763TIP3    H226247   4.629   3.369   3.987
 8764TIP3   OH226248   7.808   3.412   5.982
 8764TIP3    H126249   7.808   3.504   5.957
 8764TIP3    H226250   7.857   3.369   5.911
 8765TIP3   OH226251   3.329   4.096   1.508
 8765TIP3    H126252   3.328   4.187   1.539
 8765TIP3    H226253   3.311   4.102   1.414
 8766TIP3   OH226254   5.978   5.838   1.450
 8766TIP3    H126255   5.976   5.888   1.532
 8766TIP3    H226256   6.021   5.896   1.388
 8767TIP3   OH226257   0.894   5.903   4.754
 8767TIP3    H126258   0.914   5.815   4.784
 8767TIP3    H226259   0.807   5.922   4.789
 8768TIP3   OH226260   5.534   4.107   2.941
 8768TIP3    H126261   5.447   4.090   2.905
 8768TIP3    H226262   5.591   4.044   2.897
 8769TIP3   OH226263   0.281   5.095   4.015
 8769TIP3    H126264   0.234   5.169   4.052
 8769TIP3    H226265   0.240   5.080   3.930
 8770TIP3   OH226266   5.729   0.579   4.752
 8770TIP3    H126267   5.747   0.560   4.844
 8770TIP3    H226268   5.633   0.574   4.744
 8771TIP3   OH226269   6.608   2.651   5.851
 8771TIP3    H126270   6.670   2.721   5.831
 8771TIP3    H226271   6.661   2.571   5.850
 8772TIP3   OH226272   4.743   1.341   6.299
 8772TIP3    H126273   4.733   1.263   6.353
 8772TIP3    H226274   4.653   1.372   6.285
 8773TIP3   OH226275   0.537   7.080   3.111
 8773TIP3    H126276   0.468   7.026   3.149
 8773TIP3    H226277   0.550   7.150   3.175
 8774TIP3   OH226278   2.766   6.888   1.608
 8774TIP3    H126279   2.840   6.934   1.646
 8774TIP3    H226280   2.761   6.805   1.655
 8775TIP3   OH226281   4.995   4.089   2.131
 8775TIP3    H126282   4.923   4.142   2.165
 8775TIP3    H226283   5.064   4.097   2.197
 8776TIP3   OH226284   6.055   0.867   4.206
 8776TIP3    H126285   5.982   0.818   4.168
 8776TIP3    H226286   6.064   0.831   4.294
 8777TIP3   OH226287   4.870   4.423   3.973
 8777TIP3    H126288   4.871   4.330   3.993
 8777TIP3    H226289   4.807   4.431   3.901
 8778TIP3   OH226290   0.499   0.204   3.278
 8778TIP3    H126291   0.475   0.186   3.187
 8778TIP3    H226292   0.438   0.271   3.307
 8779TIP3   OH226293   5.222   3.118   3.760
 8779TIP3    H126294   5.156   3.061   3.720
 8779TIP3    H226295   5.304   3.071   3.747
 8780TIP3   OH226296   6.943   1.201   0.900
 8780TIP3    H126297   6.989   1.168   0.823
 8780TIP3    H226298   6.894   1.276   0.868
 8781TIP3   OH226299   2.480   0.365   1.787
 8781TIP3    H126300   2.551   0.301   1.778
 8781TIP3    H226301   2.426   0.331   1.858
 8782TIP3   OH226302   7.331   5.990   4.163
 8782TIP3    H126303   7.240   5.959   4.167
 8782TIP3    H226304   7.380   5.924   4.212
 8783TIP3   OH226305   8.272   1.490   3.526
 8783TIP3    H126306   8.224   1.566   3.557
 8783TIP3    H226307   8.297   1.512   3.436
 8784TIP3   OH226308   5.728   7.627   1.117
 8784TIP3    H126309   5.701   7.716   1.136
 8784TIP3    H226310   5.777   7.633   1.035
 8785TIP3   OH226311   6.142   1.316   1.304
 8785TIP3    H126312   6.148   1.391   1.363
 8785TIP3    H226313   6.066   1.267   1.335
 8786TIP3   OH226314   7.128   4.402   2.644
 8786TIP3    H126315   7.184   4.479   2.632
 8786TIP3    H226316   7.189   4.330   2.660
 8787TIP3   OH226317   0.502   1.158   0.174
 8787TIP3    H126318   0.465   1.161   0.262
 8787TIP3    H226319   0.441   1.209   0.120
 8788TIP3   OH226320   4.108   3.567   1.760
 8788TIP3    H126321   4.029   3.559   1.707
 8788TIP3    H226322   4.179   3.536   1.704
 8789TIP3   OH226323   4.405   4.497   0.083
 8789TIP3    H126324   4.478   4.498   0.145
 8789TIP3    H226325   4.369   4.586   0.088
 8790TIP3   OH226326   5.058   3.569   3.356
 8790TIP3    H126327   5.106   3.508   3.412
 8790TIP3    H226328   5.006   3.513   3.299
 8791TIP3   OH226329   5.302   2.876   5.567
 8791TIP3    H126330   5.340   2.951   5.522
 8791TIP3    H226331   5.310   2.898   5.660
 8792TIP3   OH226332   3.553   0.006   2.817
 8792TIP3    H126333   3.510  -0.076   2.840
 8792TIP3    H226334   3.482   0.062   2.784
 8793TIP3   OH226335   7.802   7.392   5.223
 8793TIP3    H126336   7.735   7.416   5.159
 8793TIP3    H226337   7.845   7.315   5.184
 8794TIP3   OH226338   5.141   4.034   0.269
 8794TIP3    H126339   5.168   4.125   0.284
 8794TIP3    H226340   5.212   3.982   0.306
 8795TIP3   OH226341   2.809   1.606   4.190
 8795TIP3    H126342   2.895   1.637   4.218
 8795TIP3    H226343   2.778   1.552   4.263
 8796TIP3   OH226344   1.618   7.028   5.239
 8796TIP3    H126345   1.567   6.949   5.218
 8796TIP3    H226346   1.620   7.078   5.158
 8797TIP3   OH226347   1.775   2.384   6.394
 8797TIP3    H126348   1.754   2.367   6.485
 8797TIP3    H226349   1.700   2.433   6.360
 8798TIP3   OH226350   7.347   1.288   0.956
 8798TIP3    H126351   7.297   1.206   0.958
 8798TIP3    H226352   7.296   1.347   1.010
 8799TIP3   OH226353   6.846   7.236   4.070
 8799TIP3    H126354   6.812   7.148   4.052
 8799TIP3    H226355   6.939   7.231   4.050
 8800TIP3   OH226356   7.435   2.815   4.071
 8800TIP3    H126357   7.478   2.773   3.997
 8800TIP3    H226358   7.498   2.808   4.143
 8801TIP3   OH226359   6.763   0.189   2.742
 8801TIP3    H126360   6.702   0.209   2.813
 8801TIP3    H226361   6.715   0.212   2.663
 8802TIP3   OH226362   8.273   4.285   3.036
 8802TIP3    H126363   8.337   4.348   3.005
 8802TIP3    H226364   8.222   4.261   2.959
 8803TIP3   OH226365   5.139   3.470   0.756
 8803TIP3    H126366   5.215   3.521   0.729
 8803TIP3    H226367   5.086   3.462   0.677
 8804TIP3   OH226368   2.925   4.505   6.620
 8804TIP3    H126369   2.843   4.508   6.669
 8804TIP3    H226370   2.988   4.548   6.678
 8805TIP3   OH226371   1.624   3.202   6.660
 8805TIP3    H126372   1.624   3.197   6.564
 8805TIP3    H226373   1.634   3.111   6.688
 8806TIP3   OH226374   7.759   1.353   2.034
 8806TIP3    H126375   7.670   1.387   2.032
 8806TIP3    H226376   7.749   1.258   2.039
 8807TIP3   OH226377   1.937   6.647   3.442
 8807TIP3    H126378   1.978   6.697   3.372
 8807TIP3    H226379   1.926   6.709   3.514
 8808TIP3   OH226380   4.284   0.057   3.372
 8808TIP3    H126381   4.277   0.112   3.294
 8808TIP3    H226382   4.233   0.103   3.438
 8809TIP3   OH226383   3.233   5.510   5.037
 8809TIP3    H126384   3.169   5.522   4.967
 8809TIP3    H226385   3.303   5.572   5.016
 8810TIP3   OH226386   6.276   0.354   5.474
 8810TIP3    H126387   6.362   0.314   5.458
 8810TIP3    H226388   6.233   0.296   5.536
 8811TIP3   OH226389   1.920   5.565   2.055
 8811TIP3    H126390   2.007   5.560   2.093
 8811TIP3    H226391   1.898   5.658   2.056
 8812TIP3   OH226392   0.952   0.126   6.218
 8812TIP3    H126393   0.995   0.208   6.244
 8812TIP3    H226394   1.024   0.070   6.188
 8813TIP3   OH226395   3.730   0.194   3.251
 8813TIP3    H126396   3.674   0.124   3.283
 8813TIP3    H226397   3.769   0.159   3.171
 8814TIP3   OH226398   5.402   3.355   1.807
 8814TIP3    H126399   5.308   3.370   1.813
 8814TIP3    H226400   5.423   3.303   1.884
 8815TIP3   OH226401   7.100   0.936   6.622
 8815TIP3    H126402   7.054   0.941   6.538
 8815TIP3    H226403   7.033   0.911   6.685
 8816TIP3   OH226404   4.152   4.173   4.286
 8816TIP3    H126405   4.086   4.195   4.351
 8816TIP3    H226406   4.117   4.096   4.240
 8817TIP3   OH226407   3.845   0.437   0.148
 8817TIP3    H126408   3.895   0.375   0.096
 8817TIP3    H226409   3.842   0.398   0.236
 8818TIP3   OH226410   1.276   5.112   5.463
 8818TIP3    H126411   1.304   5.044   5.401
 8818TIP3    H226412   1.183   5.094   5.478
 8819TIP3   OH226413   7.243   6.276   6.083
 8819TIP3    H126414   7.237   6.305   6.174
 8819TIP3    H226415   7.246   6.357   6.032
 8820TIP3   OH226416   3.335   1.351   6.602
 8820TIP3    H126417   3.430   1.349   6.614
 8820TIP3    H226418   3.310   1.441   6.625
 8821TIP3   OH226419   1.863   4.535   2.833
 8821TIP3    H126420   1.933   4.600   2.841
 8821TIP3    H226421   1.799   4.575   2.775
 8822TIP3   OH226422   0.866   0.370   3.864
 8822TIP3    H126423   0.911   0.321   3.933
 8822TIP3    H226424   0.874   0.316   3.786
 8823TIP3   OH226425   0.310   2.052   0.993
 8823TIP3    H126426   0.296   2.113   0.920
 8823TIP3    H226427   0.265   1.972   0.966
 8824TIP3   OH226428   4.224   2.608   2.687
 8824TIP3    H126429   4.309   2.575   2.717
 8824TIP3    H226430   4.164   2.535   2.700
 8825TIP3   OH226431   4.930   6.389   4.866
 8825TIP3    H126432   4.931   6.484   4.854
 8825TIP3    H226433   5.017   6.369   4.901
 8826TIP3   OH226434   4.166   3.870   4.692
 8826TIP3    H126435   4.082   3.826   4.703
 8826TIP3    H226436   4.190   3.898   4.780
 8827TIP3   OH226437   7.673   5.783   0.898
 8827TIP3    H126438   7.663   5.696   0.860
 8827TIP3    H226439   7.667   5.770   0.992
 8828TIP3   OH226440   1.003   0.806   1.640
 8828TIP3    H126441   0.981   0.882   1.586
 8828TIP3    H226442   0.997   0.839   1.730
 8829TIP3   OH226443   7.471   7.631   3.362
 8829TIP3    H126444   7.477   7.724   3.385
 8829TIP3    H226445   7.499   7.585   3.441
 8830TIP3   OH226446   4.681   2.825   2.312
 8830TIP3    H126447   4.672   2.731   2.297
 8830TIP3    H226448   4.630   2.866   2.242
 8831TIP3   OH226449   0.732   5.450   4.183
 8831TIP3    H126450   0.779   5.374   4.217
 8831TIP3    H226451   0.786   5.482   4.111
 8832TIP3   OH226452   3.521   6.140   4.353
 8832TIP3    H126453   3.490   6.065   4.302
 8832TIP3    H226454   3.610   6.115   4.381
 8833TIP3   OH226455   6.836   5.121   2.579
 8833TIP3    H126456   6.878   5.036   2.590
 8833TIP3    H226457   6.905   5.184   2.598
 8834TIP3   OH226458   3.655   7.198   4.875
 8834TIP3    H126459   3.683   7.179   4.965
 8834TIP3    H226460   3.737   7.210   4.827
 8835TIP3   OH226461   4.719   2.725   4.381
 8835TIP3    H126462   4.694   2.660   4.446
 8835TIP3    H226463   4.733   2.805   4.432
 8836TIP3   OH226464   3.072   6.483   0.267
 8836TIP3    H126465   2.990   6.459   0.310
 8836TIP3    H226466   3.136   6.486   0.337
 8837TIP3   OH226467   7.433   1.104   0.142
 8837TIP3    H126468   7.464   1.176   0.087
 8837TIP3    H226469   7.507   1.084   0.199
 8838TIP3   OH226470   5.663   6.552   4.873
 8838TIP3    H126471   5.622   6.580   4.955
 8838TIP3    H226472   5.636   6.461   4.862
 8839TIP3   OH226473   2.532   3.793   3.289
 8839TIP3    H126474   2.466   3.738   3.247
 8839TIP3    H226475   2.527   3.877   3.242
 8840TIP3   OH226476   5.341   7.027   5.373
 8840TIP3    H126477   5.339   6.939   5.411
 8840TIP3    H226478   5.348   7.012   5.278
 8841TIP3   OH226479   5.553   1.876   3.742
 8841TIP3    H126480   5.464   1.911   3.737
 8841TIP3    H226481   5.586   1.881   3.653
 8842TIP3   OH226482   4.573   7.228   1.634
 8842TIP3    H126483   4.556   7.138   1.604
 8842TIP3    H226484   4.625   7.267   1.564
 8843TIP3   OH226485   0.382   4.180   1.944
 8843TIP3    H126486   0.287   4.190   1.933
 8843TIP3    H226487   0.411   4.263   1.981
 8844TIP3   OH226488   6.117   4.855   6.010
 8844TIP3    H126489   6.059   4.929   6.029
 8844TIP3    H226490   6.105   4.796   6.085
 8845TIP3   OH226491   5.882   4.309   1.732
 8845TIP3    H126492   5.806   4.258   1.762
 8845TIP3    H226493   5.918   4.257   1.660
 8846TIP3   OH226494   1.119   7.025   1.385
 8846TIP3    H126495   1.054   6.978   1.334
 8846TIP3    H226496   1.154   7.091   1.325
 8847TIP3   OH226497   2.839   4.175   6.147
 8847TIP3    H126498   2.882   4.237   6.088
 8847TIP3    H226499   2.869   4.199   6.235
 8848TIP3   OH226500   4.530   3.569   3.782
 8848TIP3    H126501   4.474   3.612   3.718
 8848TIP3    H226502   4.619   3.586   3.751
 8849TIP3   OH226503   5.416   4.856   5.968
 8849TIP3    H126504   5.425   4.871   6.062
 8849TIP3    H226505   5.387   4.940   5.933
 8850TIP3   OH226506   1.770   4.771   2.168
 8850TIP3    H126507   1.744   4.790   2.078
 8850TIP3    H226508   1.807   4.683   2.164
 8851TIP3   OH226509   3.484   1.544   1.843
 8851TIP3    H126510   3.397   1.527   1.880
 8851TIP3    H226511   3.503   1.466   1.790
 8852TIP3   OH226512   2.499   6.377   6.045
 8852TIP3    H126513   2.585   6.346   6.015
 8852TIP3    H226514   2.517   6.464   6.081
 8853TIP3   OH226515   7.619   0.676   4.557
 8853TIP3    H126516   7.623   0.662   4.463
 8853TIP3    H226517   7.551   0.742   4.569
 8854TIP3   OH226518   3.935   6.426   4.767
 8854TIP3    H126519   3.880   6.484   4.715
 8854TIP3    H226520   4.018   6.422   4.719
 8855TIP3   OH226521   8.196   4.129   6.473
 8855TIP3    H126522   8.225   4.104   6.385
 8855TIP3    H226523   8.122   4.072   6.491
 8856TIP3   OH226524   1.953   2.635   4.869
 8856TIP3    H126525   2.044   2.613   4.887
 8856TIP3    H226526   1.957   2.704   4.802
 8857TIP3   OH226527   5.427   7.351   4.804
 8857TIP3    H126528   5.359   7.350   4.737
 8857TIP3    H226529   5.436   7.259   4.831
 8858TIP3   OH226530   4.272   7.448   1.609
 8858TIP3    H126531   4.227   7.459   1.692
 8858TIP3    H226532   4.334   7.521   1.605
 8859TIP3   OH226533   4.961   0.826   1.615
 8859TIP3    H126534   4.907   0.857   1.542
 8859TIP3    H226535   4.937   0.883   1.688
 8860TIP3   OH226536   6.030   3.541   6.696
 8860TIP3    H126537   6.082   3.482   6.751
 8860TIP3    H226538   5.971   3.483   6.648
 8861TIP3   OH226539   2.186   1.632   5.028
 8861TIP3    H126540   2.224   1.633   4.940
 8861TIP3    H226541   2.202   1.543   5.060
 8862TIP3   OH226542   0.322   5.052   1.043
 8862TIP3    H126543   0.230   5.080   1.040
 8862TIP3    H226544   0.372   5.132   1.026
 8863TIP3   OH226545   2.538   6.984   0.061
 8863TIP3    H126546   2.623   7.006   0.099
 8863TIP3    H226547   2.489   7.066   0.065
 8864TIP3   OH226548   2.785   3.858   2.040
 8864TIP3    H126549   2.742   3.892   1.962
 8864TIP3    H226550   2.778   3.928   2.104
 8865TIP3   OH226551   2.758   2.342   5.885
 8865TIP3    H126552   2.801   2.424   5.909
 8865TIP3    H226553   2.665   2.363   5.886
 8866TIP3   OH226554   1.483   5.387   6.335
 8866TIP3    H126555   1.565   5.428   6.362
 8866TIP3    H226556   1.442   5.451   6.276
 8867TIP3   OH226557   4.168   0.820   1.502
 8867TIP3    H126558   4.246   0.765   1.498
 8867TIP3    H226559   4.115   0.781   1.571
 8868TIP3   OH226560   3.335   2.113   2.505
 8868TIP3    H126561   3.403   2.164   2.549
 8868TIP3    H226562   3.336   2.145   2.415
 8869TIP3   OH226563   3.391   2.364   5.392
 8869TIP3    H126564   3.400   2.400   5.304
 8869TIP3    H226565   3.480   2.341   5.418
 8870TIP3   OH226566   6.622   2.456   2.124
 8870TIP3    H126567   6.646   2.366   2.103
 8870TIP3    H226568   6.527   2.459   2.114
 8871TIP3   OH226569   8.004   4.068   1.506
 8871TIP3    H126570   7.996   4.097   1.597
 8871TIP3    H226571   7.916   4.039   1.482
 8872TIP3   OH226572   7.510   1.884   1.739
 8872TIP3    H126573   7.453   1.832   1.795
 8872TIP3    H226574   7.459   1.963   1.721
 8873TIP3   OH226575   5.608   2.967   4.043
 8873TIP3    H126576   5.586   2.874   4.049
 8873TIP3    H226577   5.672   2.981   4.113
 8874TIP3   OH226578   2.434   7.313   1.378
 8874TIP3    H126579   2.483   7.384   1.418
 8874TIP3    H226580   2.395   7.266   1.451
 8875TIP3   OH226581   4.835   4.474   5.031
 8875TIP3    H126582   4.777   4.398   5.028
 8875TIP3    H226583   4.915   4.446   4.986
 8876TIP3   OH226584   7.422   7.214   2.856
 8876TIP3    H126585   7.376   7.137   2.887
 8876TIP3    H226586   7.487   7.232   2.923
 8877TIP3   OH226587   7.560   4.060   5.927
 8877TIP3    H126588   7.492   4.105   5.877
 8877TIP3    H226589   7.529   4.064   6.018
 8878TIP3   OH226590   0.513   3.327   6.228
 8878TIP3    H126591   0.584   3.387   6.206
 8878TIP3    H226592   0.434   3.369   6.191
 8879TIP3   OH226593   0.572   1.223   5.331
 8879TIP3    H126594   0.662   1.257   5.331
 8879TIP3    H226595   0.576   1.144   5.277
 8880TIP3   OH226596   7.598   3.003   2.309
 8880TIP3    H126597   7.632   2.974   2.224
 8880TIP3    H226598   7.653   3.077   2.333
 8881TIP3   OH226599   7.832   6.614   1.507
 8881TIP3    H126600   7.879   6.532   1.494
 8881TIP3    H226601   7.770   6.618   1.434
 8882TIP3   OH226602   2.229   4.498   6.685
 8882TIP3    H126603   2.170   4.565   6.650
 8882TIP3    H226604   2.315   4.522   6.651
 8883TIP3   OH226605   7.301   6.816   0.798
 8883TIP3    H126606   7.378   6.775   0.837
 8883TIP3    H226607   7.320   6.819   0.704
 8884TIP3   OH226608   4.674   1.250   2.163
 8884TIP3    H126609   4.582   1.268   2.186
 8884TIP3    H226610   4.681   1.155   2.164
 8885TIP3   OH226611   1.375   7.167   4.885
 8885TIP3    H126612   1.449   7.110   4.905
 8885TIP3    H226613   1.390   7.246   4.936
 8886TIP3   OH226614   2.831   5.896   0.615
 8886TIP3    H126615   2.779   5.898   0.696
 8886TIP3    H226616   2.827   5.804   0.587
 8887TIP3   OH226617   7.677   5.933   3.185
 8887TIP3    H126618   7.678   5.858   3.126
 8887TIP3    H226619   7.764   5.933   3.225
 8888TIP3   OH226620   7.174   1.337   2.750
 8888TIP3    H126621   7.151   1.412   2.696
 8888TIP3    H226622   7.150   1.363   2.839
 8889TIP3   OH226623   6.449   3.646   5.607
 8889TIP3    H126624   6.468   3.739   5.603
 8889TIP3    H226625   6.354   3.640   5.600
 8890TIP3   OH226626   3.423   4.226   5.087
 8890TIP3    H126627   3.442   4.308   5.040
 8890TIP3    H226628   3.410   4.162   5.017
 8891TIP3   OH226629   3.069   4.496   3.542
 8891TIP3    H126630   3.015   4.570   3.514
 8891TIP3    H226631   3.144   4.537   3.585
 8892TIP3   OH226632   4.159   7.730   2.715
 8892TIP3    H126633   4.133   7.805   2.661
 8892TIP3    H226634   4.094   7.663   2.694
 8893TIP3   OH226635   4.286   0.232   3.140
 8893TIP3    H126636   4.295   0.189   3.055
 8893TIP3    H226637   4.217   0.296   3.128
 8894TIP3   OH226638   0.306   6.128   2.375
 8894TIP3    H126639   0.227   6.125   2.429
 8894TIP3    H226640   0.362   6.192   2.419
 8895TIP3   OH226641   5.914   6.494   0.049
 8895TIP3    H126642   5.953   6.538  -0.027
 8895TIP3    H226643   5.883   6.410   0.014
 8896TIP3   OH226644   1.637   5.236   6.065
 8896TIP3    H126645   1.613   5.288   5.988
 8896TIP3    H226646   1.649   5.300   6.135
 8897TIP3   OH226647   1.731   5.153   2.159
 8897TIP3    H126648   1.810   5.099   2.151
 8897TIP3    H226649   1.759   5.230   2.208
 8898TIP3   OH226650   3.633   7.781   4.781
 8898TIP3    H126651   3.683   7.787   4.862
 8898TIP3    H226652   3.668   7.852   4.727
 8899TIP3   OH226653   0.736   4.018   4.066
 8899TIP3    H126654   0.708   4.103   4.098
 8899TIP3    H226655   0.729   4.024   3.971
 8900TIP3   OH226656   8.212   0.033   5.633
 8900TIP3    H126657   8.234   0.125   5.644
 8900TIP3    H226658   8.252  -0.011   5.708
 8901TIP3   OH226659   5.750   4.885   0.187
 8901TIP3    H126660   5.840   4.914   0.172
 8901TIP3    H226661   5.709   4.887   0.101
 8902TIP3   OH226662   6.493   7.617   2.376
 8902TIP3    H126663   6.486   7.567   2.457
 8902TIP3    H226664   6.548   7.564   2.319
 8903TIP3   OH226665   7.124   4.363   5.179
 8903TIP3    H126666   7.141   4.275   5.211
 8903TIP3    H226667   7.210   4.407   5.181
 8904TIP3   OH226668   3.133   0.158   4.492
 8904TIP3    H126669   3.104   0.071   4.517
 8904TIP3    H226670   3.192   0.144   4.418
 8905TIP3   OH226671   3.663   6.925   0.777
 8905TIP3    H126672   3.749   6.965   0.760
 8905TIP3    H226673   3.646   6.871   0.700
 8906TIP3   OH226674   4.166   5.552   2.207
 8906TIP3    H126675   4.126   5.520   2.288
 8906TIP3    H226676   4.128   5.640   2.195
 8907TIP3   OH226677   3.494   5.054   4.524
 8907TIP3    H126678   3.409   5.020   4.497
 8907TIP3    H226679   3.555   5.020   4.459
 8908TIP3   OH226680   5.154   1.778   5.944
 8908TIP3    H126681   5.206   1.843   5.898
 8908TIP3    H226682   5.133   1.818   6.028
 8909TIP3   OH226683   0.514   6.196   5.193
 8909TIP3    H126684   0.539   6.157   5.109
 8909TIP3    H226685   0.418   6.191   5.193
 8910TIP3   OH226686   2.122   3.260   2.892
 8910TIP3    H126687   2.143   3.309   2.813
 8910TIP3    H226688   2.205   3.256   2.940
 8911TIP3   OH226689   7.594   6.252   0.828
 8911TIP3    H126690   7.624   6.195   0.900
 8911TIP3    H226691   7.505   6.223   0.810
 8912TIP3   OH226692   6.672   0.500   3.037
 8912TIP3    H126693   6.625   0.426   2.997
 8912TIP3    H226694   6.603   0.562   3.061
 8913TIP3   OH226695   1.586   6.831   1.432
 8913TIP3    H126696   1.599   6.878   1.515
 8913TIP3    H226697   1.668   6.785   1.418
 8914TIP3   OH226698   5.634   6.282   4.839
 8914TIP3    H126699   5.551   6.276   4.886
 8914TIP3    H226700   5.680   6.200   4.860
 8915TIP3   OH226701   6.680   6.948   0.977
 8915TIP3    H126702   6.744   7.018   0.964
 8915TIP3    H226703   6.646   6.930   0.889
 8916TIP3   OH226704   1.243   4.685   2.701
 8916TIP3    H126705   1.336   4.674   2.681
 8916TIP3    H226706   1.210   4.742   2.632
 8917TIP3   OH226707   1.464   3.387   6.778
 8917TIP3    H126708   1.507   3.326   6.719
 8917TIP3    H226709   1.429   3.332   6.849
 8918TIP3   OH226710   8.185   1.799   4.120
 8918TIP3    H126711   8.237   1.841   4.188
 8918TIP3    H226712   8.096   1.833   4.133
 8919TIP3   OH226713   1.957   4.784   4.241
 8919TIP3    H126714   2.023   4.771   4.173
 8919TIP3    H226715   1.880   4.737   4.208
 8920TIP3   OH226716   1.437   0.502   2.141
 8920TIP3    H126717   1.465   0.540   2.059
 8920TIP3    H226718   1.508   0.521   2.203
 8921TIP3   OH226719   2.079   3.941   1.780
 8921TIP3    H126720   2.140   3.995   1.830
 8921TIP3    H226721   1.993   3.966   1.814
 8922TIP3   OH226722   6.345   7.735   4.044
 8922TIP3    H126723   6.282   7.763   3.977
 8922TIP3    H226724   6.372   7.815   4.087
 8923TIP3   OH226725   7.641   4.438   2.858
 8923TIP3    H126726   7.656   4.489   2.938
 8923TIP3    H226727   7.626   4.503   2.790
 8924TIP3   OH226728   1.082   2.583   3.467
 8924TIP3    H126729   1.050   2.627   3.546
 8924TIP3    H226730   1.010   2.591   3.404
 8925TIP3   OH226731   0.058   3.391   1.393
 8925TIP3    H126732   0.010   3.309   1.387
 8925TIP3    H226733   0.111   3.393   1.313
 8926TIP3   OH226734   4.916   4.161   4.017
 8926TIP3    H126735   4.927   4.078   3.971
 8926TIP3    H226736   4.961   4.148   4.101
 8927TIP3   OH226737   0.392   7.724   4.120
 8927TIP3    H126738   0.373   7.677   4.038
 8927TIP3    H226739   0.366   7.663   4.189
 8928TIP3   OH226740   8.169   3.155   6.243
 8928TIP3    H126741   8.218   3.148   6.325
 8928TIP3    H226742   8.119   3.073   6.238
 8929TIP3   OH226743   1.844   4.888   4.610
 8929TIP3    H126744   1.790   4.822   4.567
 8929TIP3    H226745   1.933   4.868   4.581
 8930TIP3   OH226746   6.360   7.681   3.644
 8930TIP3    H126747   6.298   7.688   3.716
 8930TIP3    H226748   6.446   7.688   3.686
 8931TIP3   OH226749   3.751   3.033   5.512
 8931TIP3    H126750   3.733   2.941   5.494
 8931TIP3    H226751   3.665   3.075   5.508
 8932TIP3   OH226752   6.382   3.833   2.921
 8932TIP3    H126753   6.476   3.837   2.902
 8932TIP3    H226754   6.352   3.923   2.913
 8933TIP3   OH226755   3.801   5.327   4.978
 8933TIP3    H126756   3.810   5.286   5.064
 8933TIP3    H226757   3.883   5.375   4.966
 8934TIP3   OH226758   2.098   2.271   1.768
 8934TIP3    H126759   2.166   2.257   1.702
 8934TIP3    H226760   2.088   2.366   1.773
 8935TIP3   OH226761   1.582   5.967   5.423
 8935TIP3    H126762   1.645   6.005   5.361
 8935TIP3    H226763   1.514   5.929   5.367
 8936TIP3   OH226764   2.913   3.794   3.765
 8936TIP3    H126765   2.866   3.732   3.711
 8936TIP3    H226766   2.992   3.816   3.715
 8937TIP3   OH226767   5.690   2.967   4.317
 8937TIP3    H126768   5.773   2.922   4.332
 8937TIP3    H226769   5.623   2.903   4.339
 8938TIP3   OH226770   2.642   0.066   0.511
 8938TIP3    H126771   2.603  -0.020   0.524
 8938TIP3    H226772   2.582   0.112   0.453
 8939TIP3   OH226773   0.667   0.759   2.933
 8939TIP3    H126774   0.729   0.818   2.890
 8939TIP3    H226775   0.704   0.745   3.020
 8940TIP3   OH226776   1.505   7.294   1.854
 8940TIP3    H126777   1.580   7.250   1.894
 8940TIP3    H226778   1.458   7.225   1.809
 8941TIP3   OH226779   1.758   7.690   1.681
 8941TIP3    H126780   1.839   7.646   1.706
 8941TIP3    H226781   1.786   7.773   1.643
 8942TIP3   OH226782   5.086   6.412   6.459
 8942TIP3    H126783   4.992   6.401   6.444
 8942TIP3    H226784   5.107   6.497   6.421
 8943TIP3   OH226785   2.829   2.595   5.978
 8943TIP3    H126786   2.750   2.633   5.941
 8943TIP3    H226787   2.826   2.618   6.071
 8944TIP3   OH226788   7.438   0.083   5.630
 8944TIP3    H126789   7.487   0.118   5.556
 8944TIP3    H226790   7.468   0.136   5.705
 8945TIP3   OH226791   6.558   3.237   6.063
 8945TIP3    H126792   6.535   3.323   6.098
 8945TIP3    H226793   6.519   3.234   5.976
 8946TIP3   OH226794   4.625   0.830   0.141
 8946TIP3    H126795   4.611   0.916   0.101
 8946TIP3    H226796   4.652   0.774   0.069
 8947TIP3   OH226797   6.147   5.037   5.154
 8947TIP3    H126798   6.084   5.072   5.217
 8947TIP3    H226799   6.225   5.020   5.207
 8948TIP3   OH226800   4.964   1.662   4.836
 8948TIP3    H126801   4.886   1.609   4.849
 8948TIP3    H226802   4.976   1.665   4.741
 8949TIP3   OH226803   5.138   4.315   5.736
 8949TIP3    H126804   5.093   4.383   5.786
 8949TIP3    H226805   5.118   4.334   5.645
 8950TIP3   OH226806   7.599   0.413   3.593
 8950TIP3    H126807   7.660   0.460   3.650
 8950TIP3    H226808   7.530   0.383   3.651
 8951TIP3   OH226809   4.493   6.367   1.414
 8951TIP3    H126810   4.398   6.378   1.418
 8951TIP3    H226811   4.514   6.367   1.321
 8952TIP3   OH226812   1.424   4.463   6.315
 8952TIP3    H126813   1.400   4.542   6.265
 8952TIP3    H226814   1.349   4.404   6.303
 8953TIP3   OH226815   2.595   2.116   1.174
 8953TIP3    H126816   2.633   2.114   1.086
 8953TIP3    H226817   2.531   2.044   1.173
 8954TIP3   OH226818   0.766   7.615   4.353
 8954TIP3    H126819   0.826   7.541   4.363
 8954TIP3    H226820   0.790   7.653   4.268
 8955TIP3   OH226821   5.470   1.488   5.178
 8955TIP3    H126822   5.565   1.493   5.165
 8955TIP3    H226823   5.456   1.521   5.267
 8956TIP3   OH226824   7.690   0.823   0.482
 8956TIP3    H126825   7.776   0.781   0.471
 8956TIP3    H226826   7.693   0.860   0.570
 8957TIP3   OH226827   7.864   4.349   1.061
 8957TIP3    H126828   7.806   4.404   1.115
 8957TIP3    H226829   7.813   4.332   0.981
 8958TIP3   OH226830   0.690   2.327   5.973
 8958TIP3    H126831   0.671   2.319   5.880
 8958TIP3    H226832   0.613   2.290   6.017
 8959TIP3   OH226833   8.282   4.645   6.262
 8959TIP3    H126834   8.240   4.731   6.264
 8959TIP3    H226835   8.253   4.603   6.343
 8960TIP3   OH226836   1.436   0.291   3.125
 8960TIP3    H126837   1.407   0.345   3.052
 8960TIP3    H226838   1.355   0.263   3.168
 8961TIP3   OH226839   0.502   0.970   3.219
 8961TIP3    H126840   0.497   1.060   3.187
 8961TIP3    H226841   0.538   0.920   3.145
 8962TIP3   OH226842   5.356   2.386   4.170
 8962TIP3    H126843   5.293   2.451   4.140
 8962TIP3    H226844   5.304   2.307   4.182
 8963TIP3   OH226845   4.127   4.602   2.856
 8963TIP3    H126846   4.032   4.598   2.867
 8963TIP3    H226847   4.143   4.560   2.772
 8964TIP3   OH226848   3.167   1.555   5.991
 8964TIP3    H126849   3.185   1.567   5.897
 8964TIP3    H226850   3.138   1.464   5.998
 8965TIP3   OH226851   4.922   4.561   6.334
 8965TIP3    H126852   4.861   4.490   6.355
 8965TIP3    H226853   5.001   4.541   6.384
 8966TIP3   OH226854   4.326   0.602   4.529
 8966TIP3    H126855   4.333   0.509   4.551
 8966TIP3    H226856   4.256   0.607   4.464
 8967TIP3   OH226857   3.668   5.600   0.704
 8967TIP3    H126858   3.709   5.674   0.748
 8967TIP3    H226859   3.717   5.589   0.623
 8968TIP3   OH226860   3.609   4.392   3.131
 8968TIP3    H126861   3.673   4.405   3.201
 8968TIP3    H226862   3.556   4.473   3.132
 8969TIP3   OH226863   1.872   0.870   1.051
 8969TIP3    H126864   1.941   0.805   1.040
 8969TIP3    H226865   1.842   0.859   1.142
 8970TIP3   OH226866   5.408   3.523   6.558
 8970TIP3    H126867   5.403   3.614   6.587
 8970TIP3    H226868   5.501   3.511   6.535
 8971TIP3   OH226869   5.286   1.569   2.165
 8971TIP3    H126870   5.344   1.636   2.203
 8971TIP3    H226871   5.217   1.556   2.230
 8972TIP3   OH226872   2.602   4.178   0.928
 8972TIP3    H126873   2.572   4.092   0.957
 8972TIP3    H226874   2.697   4.175   0.943
 8973TIP3   OH226875   7.602   3.110   4.980
 8973TIP3    H126876   7.619   3.117   5.073
 8973TIP3    H226877   7.537   3.039   4.973
 8974TIP3   OH226878   5.735   2.801   6.637
 8974TIP3    H126879   5.754   2.894   6.622
 8974TIP3    H226880   5.786   2.779   6.715
 8975TIP3   OH226881   1.689   0.257   4.621
 8975TIP3    H126882   1.611   0.257   4.677
 8975TIP3    H226883   1.696   0.168   4.589
 8976TIP3   OH226884   0.207   5.847   2.369
 8976TIP3    H126885   0.201   5.854   2.274
 8976TIP3    H226886   0.218   5.937   2.400
 8977TIP3   OH226887   2.743   1.895   0.940
 8977TIP3    H126888   2.807   1.889   1.011
 8977TIP3    H226889   2.782   1.846   0.868
 8978TIP3   OH226890   4.484   4.275   2.676
 8978TIP3    H126891   4.486   4.261   2.771
 8978TIP3    H226892   4.572   4.250   2.646
 8979TIP3   OH226893   7.781   2.142   3.481
 8979TIP3    H126894   7.805   2.226   3.442
 8979TIP3    H226895   7.714   2.164   3.546
 8980TIP3   OH226896   4.559   0.616   2.199
 8980TIP3    H126897   4.471   0.644   2.224
 8980TIP3    H226898   4.547   0.528   2.163
 8981TIP3   OH226899   5.296   1.659   0.833
 8981TIP3    H126900   5.319   1.699   0.917
 8981TIP3    H226901   5.255   1.729   0.783
 8982TIP3   OH226902   4.602   4.716   4.227
 8982TIP3    H126903   4.542   4.791   4.227
 8982TIP3    H226904   4.652   4.725   4.145
 8983TIP3   OH226905   4.976   3.666   1.977
 8983TIP3    H126906   4.912   3.650   2.047
 8983TIP3    H226907   5.046   3.716   2.020
 8984TIP3   OH226908   0.008   4.197   3.865
 8984TIP3    H126909  -0.039   4.172   3.945
 8984TIP3    H226910  -0.060   4.210   3.800
 8985TIP3   OH226911   7.044   3.332   4.860
 8985TIP3    H126912   7.084   3.323   4.947
 8985TIP3    H226913   6.972   3.269   4.860
 8986TIP3   OH226914   5.762   7.201   4.787
 8986TIP3    H126915   5.709   7.166   4.858
 8986TIP3    H226916   5.699   7.221   4.718
 8987TIP3   OH226917   2.415   5.412   6.556
 8987TIP3    H126918   2.434   5.363   6.476
 8987TIP3    H226919   2.324   5.391   6.577
 8988TIP3   OH226920   0.950   0.413   0.239
 8988TIP3    H126921   0.978   0.491   0.286
 8988TIP3    H226922   1.032   0.368   0.217
 8989TIP3   OH226923   1.688   5.075   5.491
 8989TIP3    H126924   1.681   5.164   5.528
 8989TIP3    H226925   1.780   5.052   5.501
 8990TIP3   OH226926   3.853   3.709   3.200
 8990TIP3    H126927   3.856   3.804   3.203
 8990TIP3    H226928   3.865   3.688   3.107
 8991TIP3   OH226929   7.342   5.027   5.744
 8991TIP3    H126930   7.246   5.019   5.747
 8991TIP3    H226931   7.372   4.987   5.825
 8992TIP3   OH226932   5.280   4.860   4.369
 8992TIP3    H126933   5.187   4.873   4.385
 8992TIP3    H226934   5.283   4.802   4.293
 8993TIP3   OH226935   6.124   7.580   3.509
 8993TIP3    H126936   6.202   7.603   3.559
 8993TIP3    H226937   6.072   7.660   3.506
 8994TIP3   OH226938   0.356   0.636   4.985
 8994TIP3    H126939   0.399   0.662   5.067
 8994TIP3    H226940   0.280   0.693   4.980
 8995TIP3   OH226941   0.573   3.954   2.929
 8995TIP3    H126942   0.615   3.883   2.979
 8995TIP3    H226943   0.546   4.017   2.996
 8996TIP3   OH226944   4.334   0.706   1.130
 8996TIP3    H126945   4.244   0.689   1.102
 8996TIP3    H226946   4.367   0.770   1.067
 8997TIP3   OH226947   7.966   7.220   6.641
 8997TIP3    H126948   7.972   7.310   6.609
 8997TIP3    H226949   7.985   7.165   6.565
 8998TIP3   OH226950   4.690   0.055   1.181
 8998TIP3    H126951   4.653   0.075   1.095
 8998TIP3    H226952   4.622   0.005   1.226
 8999TIP3   OH226953   2.392   1.213   3.266
 8999TIP3    H126954   2.488   1.223   3.268
 8999TIP3    H226955   2.374   1.151   3.336
 9000TIP3   OH226956   2.496   2.473   3.889
 9000TIP3    H126957   2.412   2.455   3.846
 9000TIP3    H226958   2.487   2.562   3.923
 9001TIP3   OH226959   2.065   5.661   1.703
 9001TIP3    H126960   2.072   5.744   1.655
 9001TIP3    H226961   1.974   5.658   1.733
 9002TIP3   OH226962   3.465   5.274   3.790
 9002TIP3    H126963   3.535   5.339   3.787
 9002TIP3    H226964   3.467   5.240   3.880
 9003TIP3   OH226965   6.776   1.379   2.067
 9003TIP3    H126966   6.854   1.324   2.064
 9003TIP3    H226967   6.703   1.319   2.050
 9004TIP3   OH226968   4.078   2.134   0.074
 9004TIP3    H126969   4.103   2.043   0.058
 9004TIP3    H226970   3.985   2.131   0.095
 9005TIP3   OH226971   2.156   6.224   4.673
 9005TIP3    H126972   2.173   6.317   4.658
 9005TIP3    H226973   2.122   6.192   4.589
 9006TIP3   OH226974   7.355   0.529   0.543
 9006TIP3    H126975   7.315   0.585   0.476
 9006TIP3    H226976   7.299   0.451   0.545
 9007TIP3   OH226977   7.245   2.070   0.912
 9007TIP3    H126978   7.170   2.039   0.962
 9007TIP3    H226979   7.271   1.994   0.859
 9008TIP3   OH226980   5.869   5.732   0.973
 9008TIP3    H126981   5.791   5.787   0.963
 9008TIP3    H226982   5.922   5.750   0.896
 9009TIP3   OH226983   5.121   7.778   4.876
 9009TIP3    H126984   5.127   7.685   4.897
 9009TIP3    H226985   5.117   7.821   4.962
 9010TIP3   OH226986   4.107   1.672   5.028
 9010TIP3    H126987   4.201   1.674   5.013
 9010TIP3    H226988   4.085   1.761   5.055
 9011TIP3   OH226989   8.110   5.145   1.854
 9011TIP3    H126990   8.169   5.119   1.783
 9011TIP3    H226991   8.098   5.239   1.843
 9012TIP3   OH226992   3.032   4.380   0.188
 9012TIP3    H126993   2.967   4.397   0.120
 9012TIP3    H226994   3.086   4.459   0.190
 9013TIP3   OH226995   4.881   4.723   0.475
 9013TIP3    H126996   4.972   4.722   0.445
 9013TIP3    H226997   4.887   4.735   0.570
 9014TIP3   OH226998   6.109   4.395   5.204
 9014TIP3    H126999   6.203   4.401   5.222
 9014TIP3    H227000   6.075   4.481   5.227
 9015TIP3   OH227001   3.703   4.442   6.751
 9015TIP3    H127002   3.713   4.428   6.845
 9015TIP3    H227003   3.711   4.355   6.713
 9016TIP3   OH227004   2.085   3.460   0.429
 9016TIP3    H127005   2.090   3.517   0.352
 9016TIP3    H227006   1.991   3.454   0.448
 9017TIP3   OH227007   4.432   2.160   4.552
 9017TIP3    H127008   4.451   2.171   4.645
 9017TIP3    H227009   4.501   2.103   4.519
 9018TIP3   OH227010   5.663   5.887   0.929
 9018TIP3    H127011   5.614   5.878   1.011
 9018TIP3    H227012   5.647   5.977   0.901
 9019TIP3   OH227013   6.976   1.147   4.642
 9019TIP3    H127014   7.030   1.074   4.673
 9019TIP3    H227015   6.995   1.152   4.548
 9020TIP3   OH227016   0.350   3.189   2.797
 9020TIP3    H127017   0.260   3.220   2.802
 9020TIP3    H227018   0.370   3.191   2.703
 9021TIP3   OH227019   4.662   2.893   2.939
 9021TIP3    H127020   4.708   2.810   2.933
 9021TIP3    H227021   4.731   2.959   2.936
 9022TIP3   OH227022   7.340   1.089   6.371
 9022TIP3    H127023   7.421   1.140   6.368
 9022TIP3    H227024   7.369   0.998   6.378
 9023TIP3   OH227025   2.039   1.382   5.992
 9023TIP3    H127026   2.102   1.416   6.055
 9023TIP3    H227027   2.076   1.298   5.965
 9024TIP3   OH227028   0.827   3.269   6.024
 9024TIP3    H127029   0.822   3.175   6.039
 9024TIP3    H227030   0.818   3.308   6.111
 9025TIP3   OH227031   0.927   0.434   2.292
 9025TIP3    H127032   1.002   0.449   2.234
 9025TIP3    H227033   0.867   0.381   2.240
 9026TIP3   OH227034   4.467   7.479   3.004
 9026TIP3    H127035   4.375   7.456   3.021
 9026TIP3    H227036   4.474   7.480   2.908
 9027TIP3   OH227037   8.079   5.574   2.677
 9027TIP3    H127038   8.112   5.654   2.719
 9027TIP3    H227039   8.100   5.504   2.739
 9028TIP3   OH227040   4.154   1.810   3.373
 9028TIP3    H127041   4.116   1.750   3.310
 9028TIP3    H227042   4.081   1.867   3.398
 9029TIP3   OH227043   5.543   3.788   2.700
 9029TIP3    H127044   5.625   3.796   2.748
 9029TIP3    H227045   5.497   3.716   2.743
 9030TIP3   OH227046   5.736   2.086   1.123
 9030TIP3    H127047   5.662   2.055   1.176
 9030TIP3    H227048   5.695   2.138   1.054
 9031TIP3   OH227049   8.282   4.219   3.299
 9031TIP3    H127050   8.271   4.303   3.344
 9031TIP3    H227051   8.261   4.239   3.208
 9032TIP3   OH227052   8.203   2.452   4.990
 9032TIP3    H127053   8.235   2.542   4.999
 9032TIP3    H227054   8.111   2.461   4.965
 9033TIP3   OH227055   5.127   5.887   6.338
 9033TIP3    H127056   5.147   5.920   6.250
 9033TIP3    H227057   5.072   5.955   6.377
 9034TIP3   OH227058   4.502   2.176   3.725
 9034TIP3    H127059   4.415   2.188   3.763
 9034TIP3    H227060   4.553   2.250   3.759
 9035TIP3   OH227061   6.011   7.725   1.242
 9035TIP3    H127062   5.965   7.690   1.319
 9035TIP3    H227063   6.103   7.731   1.268
 9036TIP3   OH227064   8.196   2.557   2.832
 9036TIP3    H127065   8.252   2.524   2.761
 9036TIP3    H227066   8.111   2.571   2.791
 9037TIP3   OH227067   4.441   4.055   1.258
 9037TIP3    H127068   4.530   4.051   1.222
 9037TIP3    H227069   4.392   4.108   1.195
 9038TIP3   OH227070   1.247   6.509   6.119
 9038TIP3    H127071   1.272   6.524   6.210
 9038TIP3    H227072   1.231   6.415   6.113
 9039TIP3   OH227073   6.880   7.410   1.675
 9039TIP3    H127074   6.795   7.425   1.716
 9039TIP3    H227075   6.944   7.419   1.746
 9040TIP3   OH227076   1.929   4.217   6.755
 9040TIP3    H127077   1.958   4.212   6.846
 9040TIP3    H227078   1.891   4.131   6.737
 9041TIP3   OH227079   1.850   3.967   4.088
 9041TIP3    H127080   1.837   3.937   3.998
 9041TIP3    H227081   1.845   4.063   4.082
 9042TIP3   OH227082   5.035   2.231   1.209
 9042TIP3    H127083   5.109   2.248   1.268
 9042TIP3    H227084   4.981   2.167   1.256
 9043TIP3   OH227085   1.476   1.709   6.095
 9043TIP3    H127086   1.393   1.732   6.052
 9043TIP3    H227087   1.496   1.621   6.064
 9044TIP3   OH227088   3.792   6.453   3.783
 9044TIP3    H127089   3.746   6.501   3.852
 9044TIP3    H227090   3.885   6.461   3.805
 9045TIP3   OH227091   3.237   3.581   0.386
 9045TIP3    H127092   3.229   3.494   0.426
 9045TIP3    H227093   3.275   3.564   0.300
 9046TIP3   OH227094   4.446   0.979   6.286
 9046TIP3    H127095   4.454   1.032   6.207
 9046TIP3    H227096   4.382   1.025   6.340
 9047TIP3   OH227097   3.941   0.642   3.725
 9047TIP3    H127098   3.956   0.564   3.779
 9047TIP3    H227099   3.931   0.713   3.789
 9048TIP3   OH227100   1.128   7.741   4.878
 9048TIP3    H127101   1.166   7.678   4.939
 9048TIP3    H227102   1.040   7.758   4.910
 9049TIP3   OH227103   5.846   0.253   0.265
 9049TIP3    H127104   5.888   0.171   0.240
 9049TIP3    H227105   5.753   0.238   0.249
 9050TIP3   OH227106   3.470   2.516   5.172
 9050TIP3    H127107   3.536   2.575   5.209
 9050TIP3    H227108   3.512   2.481   5.093
 9051TIP3   OH227109   6.609   0.715   6.092
 9051TIP3    H127110   6.564   0.759   6.164
 9051TIP3    H227111   6.671   0.780   6.058
 9052TIP3   OH227112   0.064   1.249   2.813
 9052TIP3    H127113   0.055   1.196   2.734
 9052TIP3    H227114   0.077   1.338   2.781
 9053TIP3   OH227115   4.744   2.771   0.609
 9053TIP3    H127116   4.799   2.818   0.672
 9053TIP3    H227117   4.805   2.737   0.543
 9054TIP3   OH227118   4.760   7.049   0.502
 9054TIP3    H127119   4.693   7.110   0.532
 9054TIP3    H227120   4.790   7.005   0.582
 9055TIP3   OH227121   2.636   4.883   2.605
 9055TIP3    H127122   2.625   4.964   2.554
 9055TIP3    H227123   2.730   4.879   2.623
 9056TIP3   OH227124   3.263   3.810   4.541
 9056TIP3    H127125   3.195   3.847   4.597
 9056TIP3    H227126   3.217   3.785   4.461
 9057TIP3   OH227127   1.942   5.486   0.047
 9057TIP3    H127128   1.947   5.457   0.139
 9057TIP3    H227129   1.913   5.576   0.052
 9058TIP3   OH227130   6.871   4.149   2.500
 9058TIP3    H127131   6.837   4.233   2.531
 9058TIP3    H227132   6.966   4.160   2.502
 9059TIP3   OH227133   4.641   5.020   0.321
 9059TIP3    H127134   4.702   5.058   0.384
 9059TIP3    H227135   4.634   5.085   0.251
 9060TIP3   OH227136   4.551   3.276   2.414
 9060TIP3    H127137   4.484   3.342   2.434
 9060TIP3    H227138   4.543   3.261   2.320
 9061TIP3   OH227139   0.024   4.226   1.042
 9061TIP3    H127140  -0.010   4.314   1.026
 9061TIP3    H227141   0.101   4.240   1.098
 9062TIP3   OH227142   4.772   0.514   0.951
 9062TIP3    H127143   4.763   0.589   1.010
 9062TIP3    H227144   4.694   0.517   0.895
 9063TIP3   OH227145   1.620   2.376   3.694
 9063TIP3    H127146   1.569   2.348   3.770
 9063TIP3    H227147   1.711   2.355   3.718
 9064TIP3   OH227148   4.672   1.599   0.435
 9064TIP3    H127149   4.745   1.629   0.489
 9064TIP3    H227150   4.635   1.526   0.483
 9065TIP3   OH227151   2.597   4.769   5.745
 9065TIP3    H127152   2.614   4.681   5.779
 9065TIP3    H227153   2.628   4.767   5.655
 9066TIP3   OH227154   6.065   1.997   5.247
 9066TIP3    H127155   6.120   1.928   5.285
 9066TIP3    H227156   5.977   1.960   5.247
 9067TIP3   OH227157   3.247   4.868   4.061
 9067TIP3    H127158   3.250   4.776   4.034
 9067TIP3    H227159   3.168   4.875   4.115
 9068TIP3   OH227160   6.987   6.369   4.917
 9068TIP3    H127161   6.924   6.312   4.961
 9068TIP3    H227162   6.960   6.458   4.941
 9069TIP3   OH227163   7.947   3.308   3.190
 9069TIP3    H127164   7.949   3.289   3.284
 9069TIP3    H227165   7.860   3.345   3.175
 9070TIP3   OH227166   5.841   1.784   4.143
 9070TIP3    H127167   5.820   1.798   4.235
 9070TIP3    H227168   5.807   1.862   4.098
 9071TIP3   OH227169   3.907   6.538   5.368
 9071TIP3    H127170   3.849   6.500   5.434
 9071TIP3    H227171   3.861   6.615   5.336
 9072TIP3   OH227172   6.297   3.413   2.487
 9072TIP3    H127173   6.239   3.428   2.412
 9072TIP3    H227174   6.238   3.409   2.562
 9073TIP3   OH227175   5.842   2.620   1.658
 9073TIP3    H127176   5.821   2.576   1.740
 9073TIP3    H227177   5.759   2.656   1.628
 9074TIP3   OH227178   3.746   0.028   3.008
 9074TIP3    H127179   3.682   0.031   2.937
 9074TIP3    H227180   3.755  -0.065   3.028
 9075TIP3   OH227181   8.221   7.665   3.017
 9075TIP3    H127182   8.301   7.664   2.964
 9075TIP3    H227183   8.152   7.687   2.955
 9076TIP3   OH227184   1.822   6.117   2.320
 9076TIP3    H127185   1.754   6.154   2.265
 9076TIP3    H227186   1.902   6.126   2.269
 9077TIP3   OH227187   7.349   1.637   6.459
 9077TIP3    H127188   7.354   1.557   6.408
 9077TIP3    H227189   7.434   1.680   6.446
 9078TIP3   OH227190   2.484   6.218   0.461
 9078TIP3    H127191   2.401   6.240   0.502
 9078TIP3    H227192   2.462   6.203   0.369
 9079TIP3   OH227193   2.940   4.461   6.104
 9079TIP3    H127194   2.953   4.516   6.181
 9079TIP3    H227195   3.000   4.388   6.117
 9080TIP3   OH227196   6.383   7.043   5.131
 9080TIP3    H127197   6.325   6.975   5.097
 9080TIP3    H227198   6.465   7.030   5.085
 9081TIP3   OH227199   8.254   1.128   3.822
 9081TIP3    H127200   8.326   1.163   3.874
 9081TIP3    H227201   8.194   1.202   3.811
 9082TIP3   OH227202   4.533   1.514   4.353
 9082TIP3    H127203   4.516   1.556   4.269
 9082TIP3    H227204   4.590   1.575   4.399
 9083TIP3   OH227205   7.352   5.704   1.863
 9083TIP3    H127206   7.359   5.630   1.923
 9083TIP3    H227207   7.370   5.781   1.917
 9084TIP3   OH227208   6.651   4.885   3.416
 9084TIP3    H127209   6.658   4.872   3.321
 9084TIP3    H227210   6.726   4.839   3.452
 9085TIP3   OH227211   4.508   0.797   4.635
 9085TIP3    H127212   4.457   0.739   4.578
 9085TIP3    H227213   4.449   0.815   4.709
 9086TIP3   OH227214   1.353   5.499   6.117
 9086TIP3    H127215   1.270   5.460   6.089
 9086TIP3    H227216   1.414   5.477   6.046
 9087TIP3   OH227217   2.474   1.248   5.568
 9087TIP3    H127218   2.567   1.237   5.549
 9087TIP3    H227219   2.429   1.188   5.508
 9088TIP3   OH227220   6.223   5.089   6.607
 9088TIP3    H127221   6.200   5.050   6.523
 9088TIP3    H227222   6.228   5.183   6.589
 9089TIP3   OH227223   6.496   0.650   5.848
 9089TIP3    H127224   6.553   0.675   5.921
 9089TIP3    H227225   6.411   0.688   5.869
 9090TIP3   OH227226   3.092   0.508   0.070
 9090TIP3    H127227   3.112   0.415   0.079
 9090TIP3    H227228   3.151   0.552   0.132
 9091TIP3   OH227229   6.010   0.320   5.919
 9091TIP3    H127230   6.074   0.273   5.973
 9091TIP3    H227231   5.927   0.309   5.965
 9092TIP3   OH227232   6.039   0.750   0.770
 9092TIP3    H127233   6.005   0.731   0.682
 9092TIP3    H227234   6.132   0.771   0.755
 9093TIP3   OH227235   7.122   3.639   0.162
 9093TIP3    H127236   7.209   3.639   0.203
 9093TIP3    H227237   7.139   3.656   0.069
 9094TIP3   OH227238   7.896   5.305   3.520
 9094TIP3    H127239   7.851   5.226   3.550
 9094TIP3    H227240   7.987   5.277   3.508
 9095TIP3   OH227241   7.173   5.554   0.963
 9095TIP3    H127242   7.172   5.511   1.048
 9095TIP3    H227243   7.082   5.548   0.932
 9096TIP3   OH227244   5.270   1.861   1.043
 9096TIP3    H127245   5.345   1.879   1.100
 9096TIP3    H227246   5.279   1.924   0.971
 9097TIP3   OH227247   6.776   1.673   2.016
 9097TIP3    H127248   6.790   1.681   1.922
 9097TIP3    H227249   6.782   1.579   2.034
 9098TIP3   OH227250   0.927   1.153   3.811
 9098TIP3    H127251   0.932   1.135   3.717
 9098TIP3    H227252   0.909   1.068   3.851
 9099TIP3   OH227253   4.938   1.900   0.323
 9099TIP3    H127254   4.866   1.855   0.279
 9099TIP3    H227255   4.925   1.880   0.416
 9100TIP3   OH227256   0.532   1.495   4.801
 9100TIP3    H127257   0.609   1.522   4.751
 9100TIP3    H227258   0.561   1.495   4.892
 9101TIP3   OH227259   2.624   5.523   1.836
 9101TIP3    H127260   2.669   5.608   1.836
 9101TIP3    H227261   2.694   5.459   1.850
 9102TIP3   OH227262   6.142   2.879   4.148
 9102TIP3    H127263   6.099   2.853   4.066
 9102TIP3    H227264   6.156   2.798   4.195
 9103TIP3   OH227265   3.257   6.452   2.807
 9103TIP3    H127266   3.348   6.449   2.838
 9103TIP3    H227267   3.259   6.516   2.736
 9104TIP3   OH227268   2.893   0.886   6.242
 9104TIP3    H127269   2.869   0.936   6.164
 9104TIP3    H227270   2.906   0.797   6.211
 9105TIP3   OH227271   7.807   6.360   1.071
 9105TIP3    H127272   7.882   6.392   1.020
 9105TIP3    H227273   7.845   6.293   1.128
 9106TIP3   OH227274   4.127   5.437   4.350
 9106TIP3    H127275   4.144   5.518   4.303
 9106TIP3    H227276   4.087   5.379   4.285
 9107TIP3   OH227277   3.703   2.153   1.394
 9107TIP3    H127278   3.702   2.145   1.299
 9107TIP3    H227279   3.611   2.144   1.420
 9108TIP3   OH227280   2.858   5.372   6.185
 9108TIP3    H127281   2.927   5.418   6.233
 9108TIP3    H227282   2.858   5.284   6.221
 9109TIP3   OH227283   6.644   4.293   6.355
 9109TIP3    H127284   6.714   4.297   6.290
 9109TIP3    H227285   6.599   4.211   6.337
 9110TIP3   OH227286   6.792   1.506   0.823
 9110TIP3    H127287   6.752   1.592   0.838
 9110TIP3    H227288   6.870   1.525   0.771
 9111TIP3   OH227289   2.807   2.621   1.441
 9111TIP3    H127290   2.899   2.646   1.443
 9111TIP3    H227291   2.805   2.534   1.481
 9112TIP3   OH227292   0.750   1.599   6.352
 9112TIP3    H127293   0.833   1.603   6.399
 9112TIP3    H227294   0.704   1.525   6.391
 9113TIP3   OH227295   5.509   5.297   5.101
 9113TIP3    H127296   5.539   5.276   5.189
 9113TIP3    H227297   5.434   5.355   5.114
 9114TIP3   OH227298   2.050   3.709   6.099
 9114TIP3    H127299   2.050   3.647   6.172
 9114TIP3    H227300   2.071   3.657   6.022
 9115TIP3   OH227301   1.285   4.064   0.396
 9115TIP3    H127302   1.323   4.133   0.452
 9115TIP3    H227303   1.330   4.074   0.312
 9116TIP3   OH227304   5.901   7.778   5.146
 9116TIP3    H127305   5.879   7.777   5.052
 9116TIP3    H227306   5.858   7.700   5.181
 9117TIP3   OH227307   4.484   1.485   6.395
 9117TIP3    H127308   4.419   1.527   6.452
 9117TIP3    H227309   4.554   1.457   6.455
 9118TIP3   OH227310   5.829   0.301   4.977
 9118TIP3    H127311   5.915   0.316   4.938
 9118TIP3    H227312   5.842   0.317   5.071
 9119TIP3   OH227313   6.294   5.103   2.701
 9119TIP3    H127314   6.318   5.074   2.613
 9119TIP3    H227315   6.377   5.101   2.750
 9120TIP3   OH227316   0.933   4.328   6.486
 9120TIP3    H127317   0.848   4.355   6.521
 9120TIP3    H227318   0.994   4.396   6.514
 9121TIP3   OH227319   6.520   0.748   3.164
 9121TIP3    H127320   6.577   0.786   3.231
 9121TIP3    H227321   6.432   0.758   3.200
 9122TIP3   OH227322   6.365   0.788   0.000
 9122TIP3    H127323   6.444   0.799   0.052
 9122TIP3    H227324   6.375   0.702  -0.041
 9123TIP3   OH227325   2.943   7.170   3.770
 9123TIP3    H127326   3.036   7.148   3.767
 9123TIP3    H227327   2.912   7.155   3.680
 9124TIP3   OH227328   4.258   7.082   3.115
 9124TIP3    H127329   4.264   6.989   3.137
 9124TIP3    H227330   4.240   7.083   3.021
 9125TIP3   OH227331   4.806   5.439   4.364
 9125TIP3    H127332   4.734   5.415   4.422
 9125TIP3    H227333   4.814   5.365   4.304
 9126TIP3   OH227334   5.205   4.474   2.578
 9126TIP3    H127335   5.214   4.564   2.610
 9126TIP3    H227336   5.276   4.465   2.514
 9127TIP3   OH227337   4.431   1.894   2.117
 9127TIP3    H127338   4.506   1.881   2.059
 9127TIP3    H227339   4.449   1.838   2.193
 9128TIP3   OH227340   8.086   5.273   5.215
 9128TIP3    H127341   8.126   5.237   5.294
 9128TIP3    H227342   8.123   5.220   5.144
 9129TIP3   OH227343   1.907   4.801   5.050
 9129TIP3    H127344   1.857   4.863   5.102
 9129TIP3    H227345   1.846   4.772   4.982
 9130TIP3   OH227346   2.975   3.569   5.756
 9130TIP3    H127347   3.013   3.483   5.778
 9130TIP3    H227348   2.888   3.549   5.723
 9131TIP3   OH227349   0.126   4.048   0.006
 9131TIP3    H127350   0.146   4.141   0.013
 9131TIP3    H227351   0.198   4.012  -0.046
 9132TIP3   OH227352   3.869   3.995   3.641
 9132TIP3    H127353   3.825   3.911   3.654
 9132TIP3    H227354   3.830   4.030   3.562
 9133TIP3   OH227355   7.436   4.158   3.974
 9133TIP3    H127356   7.487   4.149   4.054
 9133TIP3    H227357   7.444   4.250   3.950
 9134TIP3   OH227358   2.832   0.151   0.670
 9134TIP3    H127359   2.894   0.085   0.638
 9134TIP3    H227360   2.764   0.154   0.602
 9135TIP3   OH227361   0.317   1.548   4.207
 9135TIP3    H127362   0.327   1.453   4.203
 9135TIP3    H227363   0.294   1.565   4.299
 9136TIP3   OH227364   1.852   1.617   4.194
 9136TIP3    H127365   1.856   1.652   4.283
 9136TIP3    H227366   1.768   1.649   4.160
 9137TIP3   OH227367   6.510   6.100   1.993
 9137TIP3    H127368   6.438   6.126   2.052
 9137TIP3    H227369   6.552   6.182   1.969
 9138TIP3   OH227370   3.777   2.183   3.364
 9138TIP3    H127371   3.703   2.179   3.424
 9138TIP3    H227372   3.817   2.268   3.380
 9139TIP3   OH227373   1.733   3.202   0.356
 9139TIP3    H127374   1.773   3.215   0.270
 9139TIP3    H227375   1.641   3.183   0.337
 9140TIP3   OH227376   3.385   0.985   4.568
 9140TIP3    H127377   3.418   1.042   4.637
 9140TIP3    H227378   3.453   0.920   4.555
 9141TIP3   OH227379   6.925   7.063   2.496
 9141TIP3    H127380   6.867   7.062   2.420
 9141TIP3    H227381   7.000   7.009   2.469
 9142TIP3   OH227382   0.489   6.964   4.471
 9142TIP3    H127383   0.456   6.883   4.509
 9142TIP3    H227384   0.567   6.984   4.522
 9143TIP3   OH227385   7.598   4.847   5.617
 9143TIP3    H127386   7.646   4.922   5.653
 9143TIP3    H227387   7.544   4.884   5.548
 9144TIP3   OH227388   4.042   1.149   3.056
 9144TIP3    H127389   4.075   1.069   3.016
 9144TIP3    H227390   3.979   1.183   2.992
 9145TIP3   OH227391   1.510   5.044   4.205
 9145TIP3    H127392   1.507   5.060   4.110
 9145TIP3    H227393   1.435   5.092   4.239
 9146TIP3   OH227394   8.003   3.214   2.348
 9146TIP3    H127395   8.088   3.224   2.305
 9146TIP3    H227396   8.021   3.162   2.426
 9147TIP3   OH227397   3.396   1.405   1.345
 9147TIP3    H127398   3.452   1.467   1.297
 9147TIP3    H227399   3.428   1.319   1.320
 9148TIP3   OH227400   5.090   1.955   3.354
 9148TIP3    H127401   5.098   2.044   3.319
 9148TIP3    H227402   5.062   1.902   3.279
 9149TIP3   OH227403   0.280   1.582   1.725
 9149TIP3    H127404   0.204   1.592   1.667
 9149TIP3    H227405   0.249   1.614   1.810
 9150TIP3   OH227406   3.468   0.287   4.616
 9150TIP3    H127407   3.515   0.353   4.564
 9150TIP3    H227408   3.377   0.316   4.613
 9151TIP3   OH227409   4.674   2.025   0.614
 9151TIP3    H127410   4.674   2.110   0.657
 9151TIP3    H227411   4.613   1.972   0.665
 9152TIP3   OH227412   6.062   5.283   1.615
 9152TIP3    H127413   5.990   5.289   1.678
 9152TIP3    H227414   6.074   5.373   1.584
 9153TIP3   OH227415   2.789   0.718   2.474
 9153TIP3    H127416   2.753   0.798   2.514
 9153TIP3    H227417   2.811   0.663   2.549
 9154TIP3   OH227418   5.439   3.704   2.320
 9154TIP3    H127419   5.379   3.645   2.364
 9154TIP3    H227420   5.485   3.749   2.391
 9155TIP3   OH227421   1.396   0.375   1.616
 9155TIP3    H127422   1.352   0.351   1.698
 9155TIP3    H227423   1.341   0.336   1.548
 9156TIP3   OH227424   8.241   2.693   1.974
 9156TIP3    H127425   8.151   2.705   2.005
 9156TIP3    H227426   8.289   2.666   2.052
 9157TIP3   OH227427   7.496   3.496   0.909
 9157TIP3    H127428   7.402   3.485   0.922
 9157TIP3    H227429   7.536   3.459   0.988
 9158TIP3   OH227430   7.968   7.500   3.390
 9158TIP3    H127431   7.977   7.408   3.367
 9158TIP3    H227432   7.930   7.500   3.477
 9159TIP3   OH227433   7.543   5.514   2.846
 9159TIP3    H127434   7.501   5.599   2.855
 9159TIP3    H227435   7.471   5.453   2.829
 9160TIP3   OH227436   6.460   2.211   2.542
 9160TIP3    H127437   6.458   2.232   2.449
 9160TIP3    H227438   6.453   2.296   2.586
 9161TIP3   OH227439   0.904   2.039   5.876
 9161TIP3    H127440   0.891   2.044   5.971
 9161TIP3    H227441   0.968   2.107   5.856
 9162TIP3   OH227442   0.828   2.390   3.610
 9162TIP3    H127443   0.756   2.379   3.547
 9162TIP3    H227444   0.789   2.368   3.695
 9163TIP3   OH227445   1.357   1.509   1.322
 9163TIP3    H127446   1.331   1.435   1.375
 9163TIP3    H227447   1.284   1.571   1.329
 9164TIP3   OH227448   5.325   2.259   2.692
 9164TIP3    H127449   5.338   2.166   2.671
 9164TIP3    H227450   5.414   2.294   2.700
 9165TIP3   OH227451   7.883   4.853   5.334
 9165TIP3    H127452   7.947   4.888   5.272
 9165TIP3    H227453   7.808   4.913   5.328
 9166TIP3   OH227454   5.407   1.540   3.411
 9166TIP3    H127455   5.494   1.578   3.399
 9166TIP3    H227456   5.409   1.457   3.364
 9167TIP3   OH227457   1.477   2.297   5.180
 9167TIP3    H127458   1.543   2.366   5.187
 9167TIP3    H227459   1.494   2.257   5.095
 9168TIP3   OH227460   0.463   3.706   2.305
 9168TIP3    H127461   0.489   3.798   2.294
 9168TIP3    H227462   0.379   3.699   2.258
 9169TIP3   OH227463   0.015   7.682   3.607
 9169TIP3    H127464  -0.040   7.625   3.661
 9169TIP3    H227465   0.073   7.623   3.560
 9170TIP3   OH227466   0.508   7.287   2.309
 9170TIP3    H127467   0.500   7.266   2.216
 9170TIP3    H227468   0.425   7.329   2.331
 9171TIP3   OH227469   5.382   2.172   0.304
 9171TIP3    H127470   5.304   2.221   0.278
 9171TIP3    H227471   5.453   2.210   0.252
 9172TIP3   OH227472   3.099   5.443   5.270
 9172TIP3    H127473   3.123   5.440   5.178
 9172TIP3    H227474   3.150   5.515   5.307
 9173TIP3   OH227475   2.607   4.641   6.054
 9173TIP3    H127476   2.516   4.632   6.027
 9173TIP3    H227477   2.625   4.561   6.104
 9174TIP3   OH227478   3.029   1.263   1.583
 9174TIP3    H127479   3.075   1.180   1.573
 9174TIP3    H227480   2.937   1.238   1.597
 9175TIP3   OH227481   4.970   1.350   5.646
 9175TIP3    H127482   5.054   1.305   5.632
 9175TIP3    H227483   4.915   1.284   5.687
 9176TIP3   OH227484   8.107   4.898   3.519
 9176TIP3    H127485   8.067   4.822   3.560
 9176TIP3    H227486   8.201   4.887   3.535
 9177TIP3   OH227487   2.309   6.858   0.386
 9177TIP3    H127488   2.237   6.863   0.324
 9177TIP3    H227489   2.328   6.764   0.393
 9178TIP3   OH227490   4.137   1.463   0.589
 9178TIP3    H127491   4.164   1.452   0.498
 9178TIP3    H227492   4.086   1.385   0.608
 9179TIP3   OH227493   3.345   0.779   1.576
 9179TIP3    H127494   3.308   0.865   1.554
 9179TIP3    H227495   3.411   0.798   1.643
 9180TIP3   OH227496   2.303   2.303   0.840
 9180TIP3    H127497   2.259   2.305   0.925
 9180TIP3    H227498   2.344   2.217   0.837
 9181TIP3   OH227499   5.263   3.364   5.314
 9181TIP3    H127500   5.321   3.426   5.271
 9181TIP3    H227501   5.228   3.311   5.242
 9182TIP3   OH227502   5.825   6.338   4.651
 9182TIP3    H127503   5.847   6.426   4.681
 9182TIP3    H227504   5.765   6.305   4.718
 9183TIP3   OH227505   1.203   2.378   3.068
 9183TIP3    H127506   1.196   2.473   3.059
 9183TIP3    H227507   1.276   2.353   3.012
 9184TIP3   OH227508   0.822   2.841   0.027
 9184TIP3    H127509   0.730   2.864   0.020
 9184TIP3    H227510   0.831   2.758  -0.019
 9185TIP3   OH227511   3.864   4.319   6.027
 9185TIP3    H127512   3.896   4.368   5.951
 9185TIP3    H227513   3.937   4.263   6.052
 9186TIP3   OH227514   2.312   5.244   4.721
 9186TIP3    H127515   2.252   5.284   4.785
 9186TIP3    H227516   2.295   5.291   4.640
 9187TIP3   OH227517   4.644   1.684   1.772
 9187TIP3    H127518   4.634   1.735   1.853
 9187TIP3    H227519   4.694   1.607   1.799
 9188TIP3   OH227520   7.652   4.133   6.567
 9188TIP3    H127521   7.591   4.061   6.582
 9188TIP3    H227522   7.601   4.212   6.585
 9189TIP3   OH227523   8.244   0.460   4.296
 9189TIP3    H127524   8.194   0.493   4.221
 9189TIP3    H227525   8.334   0.457   4.266
 9190TIP3   OH227526   6.424   7.230   6.534
 9190TIP3    H127527   6.487   7.186   6.591
 9190TIP3    H227528   6.380   7.159   6.487
 9191TIP3   OH227529   4.586   7.558   1.317
 9191TIP3    H127530   4.628   7.601   1.392
 9191TIP3    H227531   4.597   7.619   1.245
 9192TIP3   OH227532   1.663   0.132   0.247
 9192TIP3    H127533   1.658   0.061   0.310
 9192TIP3    H227534   1.689   0.089   0.165
 9193TIP3   OH227535   5.002   6.609   2.402
 9193TIP3    H127536   5.042   6.549   2.339
 9193TIP3    H227537   4.908   6.596   2.391
 9194TIP3   OH227538   4.346   5.612   3.094
 9194TIP3    H127539   4.258   5.644   3.074
 9194TIP3    H227540   4.404   5.681   3.062
 9195TIP3   OH227541   2.265   0.386   3.381
 9195TIP3    H127542   2.290   0.448   3.313
 9195TIP3    H227543   2.291   0.300   3.347
 9196TIP3   OH227544   1.546   4.349   2.284
 9196TIP3    H127545   1.461   4.325   2.322
 9196TIP3    H227546   1.576   4.422   2.337
 9197TIP3   OH227547   5.800   0.651   5.907
 9197TIP3    H127548   5.758   0.601   5.977
 9197TIP3    H227549   5.894   0.631   5.917
 9198TIP3   OH227550   5.715   3.144   1.173
 9198TIP3    H127551   5.748   3.150   1.262
 9198TIP3    H227552   5.794   3.142   1.119
 9199TIP3   OH227553   4.530   3.374   6.378
 9199TIP3    H127554   4.603   3.343   6.432
 9199TIP3    H227555   4.516   3.305   6.313
 9200TIP3   OH227556   3.957   2.918   3.336
 9200TIP3    H127557   3.988   2.999   3.377
 9200TIP3    H227558   3.882   2.946   3.283
 9201TIP3   OH227559   0.677   1.260   5.719
 9201TIP3    H127560   0.729   1.329   5.677
 9201TIP3    H227561   0.715   1.252   5.807
 9202TIP3   OH227562   8.101   7.399   0.549
 9202TIP3    H127563   8.157   7.372   0.476
 9202TIP3    H227564   8.121   7.338   0.619
 9203TIP3   OH227565   5.582   0.472   3.513
 9203TIP3    H127566   5.510   0.428   3.558
 9203TIP3    H227567   5.556   0.472   3.421
 9204TIP3   OH227568   8.138   6.703   5.950
 9204TIP3    H127569   8.135   6.607   5.959
 9204TIP3    H227570   8.178   6.718   5.865
 9205TIP3   OH227571   7.727   2.973   3.785
 9205TIP3    H127572   7.742   2.912   3.857
 9205TIP3    H227573   7.795   2.951   3.721
 9206TIP3   OH227574   5.195   3.568   2.761
 9206TIP3    H127575   5.122   3.626   2.743
 9206TIP3    H227576   5.164   3.481   2.735
 9207TIP3   OH227577   1.298   2.936   3.715
 9207TIP3    H127578   1.247   3.006   3.754
 9207TIP3    H227579   1.371   2.981   3.671
 9208TIP3   OH227580   7.852   5.465   5.701
 9208TIP3    H127581   7.918   5.513   5.750
 9208TIP3    H227582   7.833   5.521   5.626
 9209TIP3   OH227583   7.247   6.172   5.344
 9209TIP3    H127584   7.334   6.208   5.362
 9209TIP3    H227585   7.245   6.089   5.392
 9210TIP3   OH227586   4.429   7.290   1.043
 9210TIP3    H127587   4.372   7.213   1.036
 9210TIP3    H227588   4.420   7.318   1.135
 9211TIP3   OH227589   0.270   4.998   0.227
 9211TIP3    H127590   0.303   5.063   0.288
 9211TIP3    H227591   0.348   4.955   0.192
 9212TIP3   OH227592   3.201   6.667   3.254
 9212TIP3    H127593   3.194   6.762   3.246
 9212TIP3    H227594   3.267   6.654   3.322
 9213TIP3   OH227595   7.882   7.484   6.579
 9213TIP3    H127596   7.888   7.561   6.523
 9213TIP3    H227597   7.854   7.519   6.664
 9214TIP3   OH227598   6.294   6.026   0.475
 9214TIP3    H127599   6.270   6.119   0.477
 9214TIP3    H227600   6.382   6.024   0.512
 9215TIP3   OH227601   2.197   0.785   4.259
 9215TIP3    H127602   2.201   0.846   4.186
 9215TIP3    H227603   2.105   0.786   4.287
 9216TIP3   OH227604   4.186   4.847   3.683
 9216TIP3    H127605   4.135   4.780   3.636
 9216TIP3    H227606   4.274   4.838   3.648
 9217TIP3   OH227607   8.210   1.397   3.238
 9217TIP3    H127608   8.164   1.481   3.245
 9217TIP3    H227609   8.167   1.340   3.301
 9218TIP3   OH227610   2.763   7.698   4.881
 9218TIP3    H127611   2.833   7.638   4.905
 9218TIP3    H227612   2.790   7.782   4.916
 9219TIP3   OH227613   6.224   5.372   3.070
 9219TIP3    H127614   6.270   5.404   3.148
 9219TIP3    H227615   6.285   5.310   3.031
 9220TIP3   OH227616   3.991   1.361   6.689
 9220TIP3    H127617   3.904   1.372   6.728
 9220TIP3    H227618   3.995   1.429   6.621
 9221TIP3   OH227619   4.174   1.807   3.751
 9221TIP3    H127620   4.090   1.774   3.717
 9221TIP3    H227621   4.205   1.737   3.809
 9222TIP3   OH227622   6.316   0.801   0.775
 9222TIP3    H127623   6.371   0.827   0.701
 9222TIP3    H227624   6.375   0.759   0.837
 9223TIP3   OH227625   6.042   5.542   5.746
 9223TIP3    H127626   6.020   5.510   5.658
 9223TIP3    H227627   5.985   5.618   5.758
 9224TIP3   OH227628   4.122   3.644   5.747
 9224TIP3    H127629   4.196   3.627   5.688
 9224TIP3    H227630   4.105   3.559   5.788
 9225TIP3   OH227631   6.596   0.811   2.072
 9225TIP3    H127632   6.624   0.862   1.996
 9225TIP3    H227633   6.537   0.869   2.120
 9226TIP3   OH227634   1.284   2.729   2.660
 9226TIP3    H127635   1.206   2.684   2.693
 9226TIP3    H227636   1.268   2.739   2.566
 9227TIP3   OH227637   4.238   2.495   1.640
 9227TIP3    H127638   4.184   2.566   1.606
 9227TIP3    H227639   4.323   2.508   1.599
 9228TIP3   OH227640   1.961   4.234   5.559
 9228TIP3    H127641   1.897   4.301   5.536
 9228TIP3    H227642   2.043   4.281   5.572
 9229TIP3   OH227643   2.307   4.311   1.457
 9229TIP3    H127644   2.306   4.405   1.475
 9229TIP3    H227645   2.314   4.269   1.543
 9230TIP3   OH227646   2.856   2.805   3.848
 9230TIP3    H127647   2.842   2.856   3.768
 9230TIP3    H227648   2.916   2.858   3.900
 9231TIP3   OH227649   5.504   3.984   5.374
 9231TIP3    H127650   5.581   3.938   5.407
 9231TIP3    H227651   5.539   4.061   5.329
 9232TIP3   OH227652   2.789   1.669   5.146
 9232TIP3    H127653   2.725   1.714   5.202
 9232TIP3    H227654   2.737   1.635   5.074
 9233TIP3   OH227655   1.079   2.312   3.528
 9233TIP3    H127656   0.986   2.302   3.546
 9233TIP3    H227657   1.093   2.407   3.524
 9234TIP3   OH227658   4.002   1.607   4.616
 9234TIP3    H127659   4.018   1.700   4.597
 9234TIP3    H227660   3.908   1.596   4.607
 9235TIP3   OH227661   4.983   3.495   5.145
 9235TIP3    H127662   4.978   3.432   5.073
 9235TIP3    H227663   4.927   3.457   5.213
 9236TIP3   OH227664   6.793   0.288   3.217
 9236TIP3    H127665   6.827   0.335   3.141
 9236TIP3    H227666   6.821   0.340   3.292
 9237TIP3   OH227667   2.192   3.223   1.506
 9237TIP3    H127668   2.167   3.189   1.420
 9237TIP3    H227669   2.109   3.244   1.548
 9238TIP3   OH227670   2.195   7.764   6.407
 9238TIP3    H127671   2.229   7.676   6.393
 9238TIP3    H227672   2.225   7.789   6.494
 9239TIP3   OH227673   0.660   4.641   3.175
 9239TIP3    H127674   0.674   4.547   3.161
 9239TIP3    H227675   0.736   4.683   3.134
 9240TIP3   OH227676   2.770   6.879   1.335
 9240TIP3    H127677   2.777   6.892   1.429
 9240TIP3    H227678   2.857   6.849   1.308
 9241TIP3   OH227679   4.872   3.065   3.908
 9241TIP3    H127680   4.814   3.141   3.911
 9241TIP3    H227681   4.815   2.992   3.934
 9242TIP3   OH227682   6.286   2.666   4.967
 9242TIP3    H127683   6.201   2.621   4.967
 9242TIP3    H227684   6.350   2.597   4.985
 9243TIP3   OH227685   4.414   4.581   1.950
 9243TIP3    H127686   4.402   4.676   1.943
 9243TIP3    H227687   4.425   4.566   2.044
 9244TIP3   OH227688   6.102   0.413   4.923
 9244TIP3    H127689   6.114   0.411   5.018
 9244TIP3    H227690   6.187   0.387   4.887
 9245TIP3   OH227691   8.090   0.788   3.869
 9245TIP3    H127692   8.140   0.764   3.792
 9245TIP3    H227693   8.055   0.875   3.848
 9246TIP3   OH227694   2.545   4.326   5.404
 9246TIP3    H127695   2.609   4.367   5.461
 9246TIP3    H227696   2.594   4.301   5.326
 9247TIP3   OH227697   2.077   4.508   0.065
 9247TIP3    H127698   2.035   4.426   0.089
 9247TIP3    H227699   2.026   4.540  -0.009
 9248TIP3   OH227700   2.643   3.347   4.388
 9248TIP3    H127701   2.573   3.411   4.401
 9248TIP3    H227702   2.698   3.356   4.465
 9249TIP3   OH227703   3.092   5.963   0.655
 9249TIP3    H127704   3.134   5.884   0.621
 9249TIP3    H227705   2.998   5.946   0.644
 9250TIP3   OH227706   3.322   0.326   0.407
 9250TIP3    H127707   3.400   0.302   0.357
 9250TIP3    H227708   3.278   0.243   0.425
 9251TIP3   OH227709   6.274   6.158   1.494
 9251TIP3    H127710   6.339   6.129   1.557
 9251TIP3    H227711   6.194   6.111   1.518
 9252TIP3   OH227712   0.536   2.661   0.367
 9252TIP3    H127713   0.521   2.643   0.275
 9252TIP3    H227714   0.618   2.615   0.387
 9253TIP3   OH227715   8.146   1.202   4.536
 9253TIP3    H127716   8.127   1.296   4.542
 9253TIP3    H227717   8.061   1.160   4.551
 9254TIP3   OH227718   4.819   2.192   5.001
 9254TIP3    H127719   4.747   2.140   4.966
 9254TIP3    H227720   4.886   2.128   5.025
 9255TIP3   OH227721   7.215   3.325   4.284
 9255TIP3    H127722   7.162   3.357   4.211
 9255TIP3    H227723   7.181   3.237   4.302
 9256TIP3   OH227724   7.646   0.304   0.921
 9256TIP3    H127725   7.667   0.224   0.873
 9256TIP3    H227726   7.693   0.295   1.004
 9257TIP3   OH227727   1.799   1.503   5.064
 9257TIP3    H127728   1.875   1.462   5.022
 9257TIP3    H227729   1.731   1.502   4.997
 9258TIP3   OH227730   4.944   7.076   3.172
 9258TIP3    H127731   4.944   7.163   3.211
 9258TIP3    H227732   5.025   7.073   3.121
 9259TIP3   OH227733   2.860   3.994   2.983
 9259TIP3    H127734   2.912   4.072   3.002
 9259TIP3    H227735   2.924   3.931   2.950
 9260TIP3   OH227736   4.437   1.219   6.622
 9260TIP3    H127737   4.404   1.171   6.547
 9260TIP3    H227738   4.506   1.275   6.587
 9261TIP3   OH227739   5.183   1.976   0.486
 9261TIP3    H127740   5.120   1.941   0.422
 9261TIP3    H227741   5.267   1.973   0.440
 9262TIP3   OH227742   7.047   1.532   0.706
 9262TIP3    H127743   7.140   1.516   0.719
 9262TIP3    H227744   7.043   1.604   0.643
 9263TIP3   OH227745   7.990   5.984   5.873
 9263TIP3    H127746   7.965   6.006   5.783
 9263TIP3    H227747   8.048   5.909   5.864
 9264TIP3   OH227748   3.879   0.730   0.868
 9264TIP3    H127749   3.889   0.807   0.812
 9264TIP3    H227750   3.787   0.705   0.858
 9265TIP3   OH227751   5.623   7.356   2.012
 9265TIP3    H127752   5.599   7.263   2.021
 9265TIP3    H227753   5.551   7.403   2.054
 9266TIP3   OH227754   4.749   1.406   0.775
 9266TIP3    H127755   4.828   1.351   0.782
 9266TIP3    H227756   4.719   1.415   0.865
 9267TIP3   OH227757   5.864   5.421   4.306
 9267TIP3    H127758   5.840   5.485   4.373
 9267TIP3    H227759   5.793   5.425   4.242
 9268TIP3   OH227760   0.748   1.002   3.075
 9268TIP3    H127761   0.742   1.016   2.980
 9268TIP3    H227762   0.839   0.976   3.089
 9269TIP3   OH227763   6.118   3.601   4.900
 9269TIP3    H127764   6.173   3.557   4.965
 9269TIP3    H227765   6.138   3.557   4.817
 9270TIP3   OH227766   2.550   5.980   0.646
 9270TIP3    H127767   2.590   6.057   0.607
 9270TIP3    H227768   2.536   6.004   0.738
 9271TIP3   OH227769   6.168   3.710   5.676
 9271TIP3    H127770   6.137   3.669   5.757
 9271TIP3    H227771   6.185   3.801   5.701
 9272TIP3   OH227772   7.026   0.049   6.721
 9272TIP3    H127773   7.111   0.071   6.684
 9272TIP3    H227774   7.042  -0.030   6.772
 9273TIP3   OH227775   7.267   5.748   5.054
 9273TIP3    H127776   7.315   5.743   5.137
 9273TIP3    H227777   7.336   5.759   4.988
 9274TIP3   OH227778   7.588   6.150   6.572
 9274TIP3    H127779   7.611   6.242   6.562
 9274TIP3    H227780   7.615   6.129   6.661
 9275TIP3   OH227781   0.126   2.721   2.444
 9275TIP3    H127782   0.151   2.771   2.366
 9275TIP3    H227783   0.207   2.679   2.471
 9276TIP3   OH227784   0.993   5.716   3.224
 9276TIP3    H127785   1.050   5.650   3.186
 9276TIP3    H227786   1.035   5.739   3.308
 9277TIP3   OH227787   0.669   1.096   6.282
 9277TIP3    H127788   0.760   1.125   6.290
 9277TIP3    H227789   0.648   1.111   6.190
 9278TIP3   OH227790   8.045   4.142   1.061
 9278TIP3    H127791   8.125   4.194   1.049
 9278TIP3    H227792   7.981   4.203   1.097
 9279TIP3   OH227793   2.496   5.896   6.114
 9279TIP3    H127794   2.406   5.929   6.103
 9279TIP3    H227795   2.537   5.959   6.173
 9280TIP3   OH227796   0.020   2.610   1.230
 9280TIP3    H127797   0.094   2.611   1.170
 9280TIP3    H227798   0.056   2.577   1.312
 9281TIP3   OH227799   3.533   3.024   5.003
 9281TIP3    H127800   3.597   3.048   4.936
 9281TIP3    H227801   3.527   2.929   4.997
 9282TIP3   OH227802   2.564   6.778   0.669
 9282TIP3    H127803   2.469   6.786   0.666
 9282TIP3    H227804   2.580   6.698   0.719
 9283TIP3   OH227805   3.213   5.508   6.621
 9283TIP3    H127806   3.129   5.502   6.666
 9283TIP3    H227807   3.253   5.422   6.636
 9284TIP3   OH227808   3.289   1.582   0.233
 9284TIP3    H127809   3.308   1.658   0.179
 9284TIP3    H227810   3.312   1.609   0.322
 9285TIP3   OH227811   3.219   7.633   5.050
 9285TIP3    H127812   3.175   7.701   5.102
 9285TIP3    H227813   3.282   7.681   4.997
 9286TIP3   OH227814   7.476   4.579   0.085
 9286TIP3    H127815   7.491   4.674   0.081
 9286TIP3    H227816   7.517   4.546   0.004
 9287TIP3   OH227817   1.328   6.814   1.857
 9287TIP3    H127818   1.239   6.803   1.890
 9287TIP3    H227819   1.335   6.751   1.785
 9288TIP3   OH227820   1.925   6.292   6.270
 9288TIP3    H127821   1.996   6.333   6.219
 9288TIP3    H227822   1.950   6.307   6.361
 9289TIP3   OH227823   3.367   2.337   6.575
 9289TIP3    H127824   3.290   2.348   6.520
 9289TIP3    H227825   3.368   2.244   6.597
 9290TIP3   OH227826   6.067   6.352   0.239
 9290TIP3    H127827   6.141   6.341   0.179
 9290TIP3    H227828   6.013   6.419   0.198
 9291TIP3   OH227829   2.824   4.692   2.071
 9291TIP3    H127830   2.881   4.680   1.994
 9291TIP3    H227831   2.878   4.739   2.134
 9292TIP3   OH227832   7.172   0.484   3.772
 9292TIP3    H127833   7.265   0.477   3.793
 9292TIP3    H227834   7.135   0.399   3.796
 9293TIP3   OH227835   2.102   4.855   5.250
 9293TIP3    H127836   2.078   4.764   5.269
 9293TIP3    H227837   2.044   4.881   5.179
 9294TIP3   OH227838   5.063   5.509   6.321
 9294TIP3    H127839   5.125   5.521   6.393
 9294TIP3    H227840   5.102   5.556   6.247
 9295TIP3   OH227841   7.539   7.465   0.496
 9295TIP3    H127842   7.500   7.377   0.496
 9295TIP3    H227843   7.612   7.459   0.435
 9296TIP3   OH227844   2.619   4.459   1.245
 9296TIP3    H127845   2.637   4.369   1.273
 9296TIP3    H227846   2.691   4.479   1.185
 9297TIP3   OH227847   4.312   4.503   3.525
 9297TIP3    H127848   4.388   4.558   3.502
 9297TIP3    H227849   4.346   4.413   3.521
 9298TIP3   OH227850   0.354   0.741   4.508
 9298TIP3    H127851   0.356   0.804   4.436
 9298TIP3    H227852   0.344   0.795   4.587
 9299TIP3   OH227853   2.053   4.902   3.580
 9299TIP3    H127854   2.022   4.992   3.589
 9299TIP3    H227855   2.146   4.911   3.559
 9300TIP3   OH227856   0.826   3.532   0.144
 9300TIP3    H127857   0.743   3.502   0.180
 9300TIP3    H227858   0.892   3.483   0.193
 9301TIP3   OH227859   4.316   1.847   1.799
 9301TIP3    H127860   4.343   1.764   1.838
 9301TIP3    H227861   4.249   1.823   1.735
 9302TIP3   OH227862   3.192   0.800   6.157
 9302TIP3    H127863   3.118   0.740   6.141
 9302TIP3    H227864   3.240   0.760   6.229
 9303TIP3   OH227865   5.802   2.467   0.360
 9303TIP3    H127866   5.728   2.436   0.413
 9303TIP3    H227867   5.868   2.492   0.425
 9304TIP3   OH227868   1.015   0.454   5.307
 9304TIP3    H127869   1.070   0.531   5.288
 9304TIP3    H227870   1.023   0.399   5.229
 9305TIP3   OH227871   0.978   3.571   2.646
 9305TIP3    H127872   0.980   3.479   2.619
 9305TIP3    H227873   1.044   3.576   2.715
 9306TIP3   OH227874   2.269   4.088   3.464
 9306TIP3    H127875   2.356   4.069   3.498
 9306TIP3    H227876   2.224   4.133   3.536
 9307TIP3   OH227877   7.383   1.390   6.334
 9307TIP3    H127878   7.391   1.336   6.413
 9307TIP3    H227879   7.428   1.340   6.266
 9308TIP3   OH227880   4.045   1.868   6.661
 9308TIP3    H127881   3.953   1.888   6.675
 9308TIP3    H227882   4.081   1.947   6.622
 9309TIP3   OH227883   8.211   5.397   2.885
 9309TIP3    H127884   8.297   5.374   2.850
 9309TIP3    H227885   8.192   5.329   2.948
 9310TIP3   OH227886   4.324   6.247   2.941
 9310TIP3    H127887   4.308   6.167   2.892
 9310TIP3    H227888   4.400   6.227   2.996
 9311TIP3   OH227889   3.008   4.282   1.210
 9311TIP3    H127890   3.021   4.372   1.241
 9311TIP3    H227891   2.949   4.243   1.275
 9312TIP3   OH227892   0.540   0.569   2.350
 9312TIP3    H127893   0.510   0.519   2.273
 9312TIP3    H227894   0.583   0.646   2.313
 9313TIP3   OH227895   2.698   5.710   3.487
 9313TIP3    H127896   2.780   5.706   3.437
 9313TIP3    H227897   2.643   5.772   3.438
 9314TIP3   OH227898   7.175   4.576   3.887
 9314TIP3    H127899   7.214   4.618   3.810
 9314TIP3    H227900   7.107   4.520   3.851
 9315TIP3   OH227901   6.212   1.024   6.343
 9315TIP3    H127902   6.135   0.969   6.325
 9315TIP3    H227903   6.176   1.108   6.370
 9316TIP3   OH227904   8.254   0.104   4.116
 9316TIP3    H127905   8.313   0.160   4.167
 9316TIP3    H227906   8.200   0.060   4.181
 9317TIP3   OH227907   2.646   0.390   1.525
 9317TIP3    H127908   2.675   0.331   1.455
 9317TIP3    H227909   2.726   0.424   1.564
 9318TIP3   OH227910   1.049   6.398   0.151
 9318TIP3    H127911   1.046   6.456   0.075
 9318TIP3    H227912   1.065   6.456   0.225
 9319TIP3   OH227913   1.016   2.198   0.410
 9319TIP3    H127914   1.093   2.195   0.353
 9319TIP3    H227915   0.947   2.237   0.355
 9320TIP3   OH227916   4.965   7.375   1.285
 9320TIP3    H127917   4.980   7.467   1.306
 9320TIP3    H227918   5.020   7.358   1.209
 9321TIP3   OH227919   5.024   6.402   6.762
 9321TIP3    H127920   5.022   6.424   6.669
 9321TIP3    H227921   5.082   6.468   6.801
 9322TIP3   OH227922   1.584   3.292   1.614
 9322TIP3    H127923   1.644   3.258   1.547
 9322TIP3    H227924   1.545   3.370   1.573
 9323TIP3   OH227925   4.411   4.135   6.438
 9323TIP3    H127926   4.462   4.183   6.502
 9323TIP3    H227927   4.323   4.131   6.475
 9324TIP3   OH227928   3.803   4.049   5.078
 9324TIP3    H127929   3.828   4.139   5.055
 9324TIP3    H227930   3.884   3.999   5.068
 9325TIP3   OH227931   6.103   2.124   4.351
 9325TIP3    H127932   6.183   2.093   4.309
 9325TIP3    H227933   6.089   2.063   4.424
 9326TIP3   OH227934   2.915   6.285   1.012
 9326TIP3    H127935   2.901   6.379   1.026
 9326TIP3    H227936   3.009   6.276   0.996
 9327TIP3   OH227937   3.941   5.918   4.351
 9327TIP3    H127938   3.859   5.928   4.398
 9327TIP3    H227939   3.939   5.986   4.284
 9328TIP3   OH227940   4.713   3.209   3.631
 9328TIP3    H127941   4.790   3.264   3.619
 9328TIP3    H227942   4.657   3.228   3.555
 9329TIP3   OH227943   8.189   5.365   1.355
 9329TIP3    H127944   8.107   5.318   1.338
 9329TIP3    H227945   8.253   5.297   1.373
 9330TIP3   OH227946   2.510   4.434   0.629
 9330TIP3    H127947   2.484   4.442   0.721
 9330TIP3    H227948   2.558   4.515   0.611
 9331TIP3   OH227949   4.459   2.196   4.822
 9331TIP3    H127950   4.462   2.133   4.894
 9331TIP3    H227951   4.448   2.281   4.865
 9332TIP3   OH227952   1.287   3.758   0.277
 9332TIP3    H127953   1.253   3.672   0.252
 9332TIP3    H227954   1.215   3.818   0.261
 9333TIP3   OH227955   8.211   3.318   4.776
 9333TIP3    H127956   8.236   3.410   4.768
 9333TIP3    H227957   8.118   3.317   4.756
 9334TIP3   OH227958   8.229   2.927   5.368
 9334TIP3    H127959   8.234   2.862   5.438
 9334TIP3    H227960   8.165   2.891   5.307
 9335TIP3   OH227961   1.755   3.650   4.785
 9335TIP3    H127962   1.836   3.701   4.787
 9335TIP3    H227963   1.765   3.585   4.854
 9336TIP3   OH227964   2.174   1.443   3.717
 9336TIP3    H127965   2.121   1.395   3.653
 9336TIP3    H227966   2.247   1.385   3.736
 9337TIP3   OH227967   3.587   3.979   4.457
 9337TIP3    H127968   3.504   3.938   4.434
 9337TIP3    H227969   3.566   4.072   4.465
 9338TIP3   OH227970   4.472   7.192   6.578
 9338TIP3    H127971   4.487   7.121   6.516
 9338TIP3    H227972   4.489   7.272   6.528
 9339TIP3   OH227973   3.687   0.387   6.674
 9339TIP3    H127974   3.663   0.336   6.752
 9339TIP3    H227975   3.779   0.409   6.687
 9340TIP3   OH227976   2.768   3.643   6.412
 9340TIP3    H127977   2.766   3.714   6.348
 9340TIP3    H227978   2.849   3.657   6.461
 9341TIP3   OH227979   6.941   4.664   4.289
 9341TIP3    H127980   6.989   4.681   4.208
 9341TIP3    H227981   6.897   4.747   4.310
 9342TIP3   OH227982   0.083   2.221   3.668
 9342TIP3    H127983   0.120   2.161   3.604
 9342TIP3    H227984   0.000   2.181   3.693
 9343TIP3   OH227985   3.384   6.969   3.006
 9343TIP3    H127986   3.462   6.916   3.018
 9343TIP3    H227987   3.333   6.956   3.086
 9344TIP3   OH227988   1.981   0.872   4.925
 9344TIP3    H127989   2.002   0.817   4.850
 9344TIP3    H227990   1.946   0.952   4.886
 9345TIP3   OH227991   3.572   3.971   3.729
 9345TIP3    H127992   3.489   3.960   3.776
 9345TIP3    H227993   3.574   3.899   3.666
 9346TIP3   OH227994   0.407   4.741   2.572
 9346TIP3    H127995   0.333   4.797   2.548
 9346TIP3    H227996   0.370   4.653   2.577
 9347TIP3   OH227997   4.062   2.575   0.627
 9347TIP3    H127998   4.151   2.564   0.661
 9347TIP3    H227999   4.055   2.511   0.557
 9348TIP3   OH228000   5.721   3.609   1.693
 9348TIP3    H128001   5.760   3.635   1.610
 9348TIP3    H228002   5.694   3.518   1.680
 9349TIP3   OH228003   3.730   1.491   3.380
 9349TIP3    H128004   3.684   1.418   3.337
 9349TIP3    H228005   3.734   1.559   3.313
 9350TIP3   OH228006   5.409   5.946   2.561
 9350TIP3    H128007   5.350   6.013   2.526
 9350TIP3    H228008   5.476   5.935   2.494
 9351TIP3   OH228009   7.749   6.535   3.187
 9351TIP3    H128010   7.823   6.582   3.224
 9351TIP3    H228011   7.682   6.602   3.175
 9352TIP3   OH228012   0.275   5.805   3.461
 9352TIP3    H128013   0.251   5.716   3.486
 9352TIP3    H228014   0.205   5.860   3.497
 9353TIP3   OH228015   0.971   1.620   5.448
 9353TIP3    H128016   0.934   1.700   5.485
 9353TIP3    H228017   1.063   1.622   5.474
 9354TIP3   OH228018   0.235   5.008   5.227
 9354TIP3    H128019   0.194   4.937   5.276
 9354TIP3    H228020   0.181   5.017   5.148
 9355TIP3   OH228021   2.841   3.634   4.858
 9355TIP3    H128022   2.930   3.656   4.888
 9355TIP3    H228023   2.808   3.575   4.926
 9356TIP3   OH228024   3.702   3.733   4.750
 9356TIP3    H128025   3.611   3.706   4.735
 9356TIP3    H228026   3.741   3.731   4.662
 9357TIP3   OH228027   2.089   1.179   5.233
 9357TIP3    H128028   2.019   1.195   5.169
 9357TIP3    H228029   2.119   1.266   5.258
 9358TIP3   OH228030   2.503   5.985   4.505
 9358TIP3    H128031   2.413   5.974   4.474
 9358TIP3    H228032   2.506   5.937   4.588
 9359TIP3   OH228033   1.578   7.004   4.942
 9359TIP3    H128034   1.568   6.912   4.918
 9359TIP3    H228035   1.667   7.027   4.915
 9360TIP3   OH228036   1.443   4.565   5.947
 9360TIP3    H128037   1.430   4.628   6.018
 9360TIP3    H228038   1.411   4.611   5.869
 9361TIP3   OH228039   1.738   7.664   5.456
 9361TIP3    H128040   1.695   7.644   5.539
 9361TIP3    H228041   1.681   7.728   5.413
 9362TIP3   OH228042   5.865   1.562   1.259
 9362TIP3    H128043   5.938   1.617   1.232
 9362TIP3    H228044   5.895   1.518   1.338
 9363TIP3   OH228045   8.146   1.202   0.117
 9363TIP3    H128046   8.165   1.279   0.171
 9363TIP3    H228047   8.204   1.134   0.151
 9364TIP3   OH228048   1.922   0.378   2.581
 9364TIP3    H128049   1.890   0.299   2.535
 9364TIP3    H228050   1.970   0.344   2.656
 9365TIP3   OH228051   1.705   7.733   1.279
 9365TIP3    H128052   1.643   7.787   1.327
 9365TIP3    H228053   1.709   7.651   1.329
 9366TIP3   OH228054   0.428   6.260   3.334
 9366TIP3    H128055   0.400   6.170   3.316
 9366TIP3    H228056   0.356   6.297   3.385
 9367TIP3   OH228057   3.054   0.928   0.291
 9367TIP3    H128058   2.986   0.950   0.227
 9367TIP3    H228059   3.009   0.873   0.356
 9368TIP3   OH228060   7.415   5.762   2.862
 9368TIP3    H128061   7.368   5.783   2.781
 9368TIP3    H228062   7.482   5.830   2.868
 9369TIP3   OH228063   7.570   0.154   1.832
 9369TIP3    H128064   7.595   0.109   1.912
 9369TIP3    H228065   7.649   0.152   1.778
 9370TIP3   OH228066   5.332   1.632   3.653
 9370TIP3    H128067   5.427   1.632   3.660
 9370TIP3    H228068   5.312   1.566   3.587
 9371TIP3   OH228069   3.340   7.651   3.352
 9371TIP3    H128070   3.296   7.591   3.291
 9371TIP3    H228071   3.410   7.598   3.391
 9372TIP3   OH228072   5.063   2.259   3.609
 9372TIP3    H128073   5.149   2.296   3.592
 9372TIP3    H228074   5.062   2.243   3.703
 9373TIP3   OH228075   1.546   1.979   1.651
 9373TIP3    H128076   1.593   1.983   1.735
 9373TIP3    H228077   1.591   2.042   1.595
 9374TIP3   OH228078   3.407   2.863   0.470
 9374TIP3    H128079   3.472   2.840   0.404
 9374TIP3    H228080   3.339   2.911   0.422
 9375TIP3   OH228081   2.482   6.873   6.621
 9375TIP3    H128082   2.551   6.819   6.581
 9375TIP3    H228083   2.424   6.810   6.663
 9376TIP3   OH228084   4.239   0.046   3.906
 9376TIP3    H128085   4.270  -0.042   3.930
 9376TIP3    H228086   4.305   0.105   3.943
 9377TIP3   OH228087   8.218   6.246   1.936
 9377TIP3    H128088   8.308   6.218   1.918
 9377TIP3    H228089   8.224   6.293   2.020
 9378TIP3   OH228090   0.529   1.882   3.828
 9378TIP3    H128091   0.531   1.879   3.732
 9378TIP3    H228092   0.441   1.914   3.849
 9379TIP3   OH228093   7.978   4.624   0.976
 9379TIP3    H128094   7.885   4.633   0.993
 9379TIP3    H228095   7.988   4.646   0.883
 9380TIP3   OH228096   3.368   2.980   5.477
 9380TIP3    H128097   3.323   2.956   5.396
 9380TIP3    H228098   3.297   2.999   5.539
 9381TIP3   OH228099   1.441   4.470   5.319
 9381TIP3    H128100   1.425   4.477   5.413
 9381TIP3    H228101   1.530   4.503   5.308
 9382TIP3   OH228102   0.516   3.067   4.351
 9382TIP3    H128103   0.458   3.131   4.311
 9382TIP3    H228104   0.554   3.113   4.426
 9383TIP3   OH228105   7.012   3.942   0.129
 9383TIP3    H128106   6.957   3.960   0.205
 9383TIP3    H228107   7.099   3.929   0.165
 9384TIP3   OH228108   1.218   1.575   1.845
 9384TIP3    H128109   1.297   1.625   1.867
 9384TIP3    H228110   1.153   1.602   1.910
 9385TIP3   OH228111   4.656   5.360   3.273
 9385TIP3    H128112   4.682   5.451   3.261
 9385TIP3    H228113   4.564   5.356   3.247
 9386TIP3   OH228114   6.017   2.201   1.804
 9386TIP3    H128115   6.066   2.135   1.853
 9386TIP3    H228116   6.079   2.274   1.794
 9387TIP3   OH228117   6.257   0.664   2.193
 9387TIP3    H128118   6.249   0.569   2.194
 9387TIP3    H228119   6.256   0.689   2.285
 9388TIP3   OH228120   3.390   0.475   2.984
 9388TIP3    H128121   3.367   0.475   3.077
 9388TIP3    H228122   3.444   0.396   2.973
 9389TIP3   OH228123   7.061   2.930   5.654
 9389TIP3    H128124   7.041   2.904   5.564
 9389TIP3    H228125   7.034   2.856   5.708
 9390TIP3   OH228126   1.545   0.090   3.789
 9390TIP3    H128127   1.580   0.024   3.849
 9390TIP3    H228128   1.571   0.060   3.702
 9391TIP3   OH228129   2.751   3.107   0.133
 9391TIP3    H128130   2.762   3.085   0.225
 9391TIP3    H228131   2.835   3.087   0.092
 9392TIP3   OH228132   0.821   7.512   3.092
 9392TIP3    H128133   0.798   7.516   3.185
 9392TIP3    H228134   0.767   7.579   3.050
 9393TIP3   OH228135   5.711   1.528   2.949
 9393TIP3    H128136   5.804   1.544   2.965
 9393TIP3    H228137   5.676   1.613   2.924
 9394TIP3   OH228138   1.416   0.706   6.632
 9394TIP3    H128139   1.492   0.753   6.666
 9394TIP3    H228140   1.453   0.646   6.566
 9395TIP3   OH228141   7.160   0.470   3.228
 9395TIP3    H128142   7.108   0.415   3.169
 9395TIP3    H228143   7.115   0.554   3.229
 9396TIP3   OH228144   0.555   4.705   5.746
 9396TIP3    H128145   0.630   4.745   5.790
 9396TIP3    H228146   0.586   4.621   5.715
 9397TIP3   OH228147   7.657   5.360   3.053
 9397TIP3    H128148   7.583   5.323   3.005
 9397TIP3    H228149   7.644   5.455   3.048
 9398TIP3   OH228150   2.189   4.943   0.753
 9398TIP3    H128151   2.271   4.992   0.745
 9398TIP3    H228152   2.214   4.858   0.788
 9399TIP3   OH228153   1.020   5.442   3.805
 9399TIP3    H128154   1.064   5.362   3.836
 9399TIP3    H228155   1.087   5.510   3.810
 9400TIP3   OH228156   5.647   5.708   5.664
 9400TIP3    H128157   5.674   5.714   5.572
 9400TIP3    H228158   5.597   5.789   5.679
 9401TIP3   OH228159   3.035   3.670   0.573
 9401TIP3    H128160   2.991   3.751   0.548
 9401TIP3    H228161   3.070   3.635   0.491
 9402TIP3   OH228162   1.758   0.578   5.343
 9402TIP3    H128163   1.842   0.573   5.387
 9402TIP3    H228164   1.770   0.645   5.276
 9403TIP3   OH228165   5.360   6.787   2.546
 9403TIP3    H128166   5.270   6.809   2.569
 9403TIP3    H228167   5.409   6.867   2.564
 9404TIP3   OH228168   5.305   6.644   4.999
 9404TIP3    H128169   5.337   6.716   4.944
 9404TIP3    H228170   5.329   6.669   5.088
 9405TIP3   OH228171   1.940   1.906   3.420
 9405TIP3    H128172   1.867   1.956   3.384
 9405TIP3    H228173   1.951   1.940   3.508
 9406TIP3   OH228174   3.760   3.036   0.792
 9406TIP3    H128175   3.748   3.131   0.795
 9406TIP3    H228176   3.671   3.001   0.796
 9407TIP3   OH228177   7.596   0.988   4.155
 9407TIP3    H128178   7.579   1.081   4.143
 9407TIP3    H228179   7.649   0.963   4.079
 9408TIP3   OH228180   0.414   1.320   2.819
 9408TIP3    H128181   0.494   1.307   2.767
 9408TIP3    H228182   0.351   1.356   2.757
 9409TIP3   OH228183   7.797   2.530   3.078
 9409TIP3    H128184   7.732   2.486   3.023
 9409TIP3    H228185   7.790   2.622   3.052
 9410TIP3   OH228186   4.348   4.346   1.173
 9410TIP3    H128187   4.327   4.288   1.100
 9410TIP3    H228188   4.410   4.409   1.136
 9411TIP3   OH228189   3.185   1.672   0.868
 9411TIP3    H128190   3.217   1.644   0.954
 9411TIP3    H228191   3.092   1.650   0.869
 9412TIP3   OH228192   1.916   4.393   3.168
 9412TIP3    H128193   1.981   4.353   3.110
 9412TIP3    H228194   1.960   4.399   3.252
 9413TIP3   OH228195   4.289   5.498   0.667
 9413TIP3    H128196   4.273   5.406   0.688
 9413TIP3    H228197   4.203   5.534   0.650
 9414TIP3   OH228198   6.321   0.007   0.067
 9414TIP3    H128199   6.254  -0.010   0.133
 9414TIP3    H228200   6.292   0.086   0.022
 9415TIP3   OH228201   7.936   5.868   6.582
 9415TIP3    H128202   7.850   5.887   6.546
 9415TIP3    H228203   7.998   5.889   6.511
 9416TIP3   OH228204   5.824   0.763   2.779
 9416TIP3    H128205   5.733   0.781   2.756
 9416TIP3    H228206   5.841   0.818   2.856
 9417TIP3   OH228207   7.532   0.971   3.802
 9417TIP3    H128208   7.614   0.970   3.851
 9417TIP3    H228209   7.550   0.920   3.723
 9418TIP3   OH228210   2.172   3.910   1.017
 9418TIP3    H128211   2.141   3.837   0.964
 9418TIP3    H228212   2.216   3.968   0.955
 9419TIP3   OH228213   2.048   6.465   4.567
 9419TIP3    H128214   2.044   6.533   4.633
 9419TIP3    H228215   1.958   6.432   4.560
 9420TIP3   OH228216   5.471   4.378   5.802
 9420TIP3    H128217   5.465   4.372   5.706
 9420TIP3    H228218   5.417   4.454   5.825
 9421TIP3   OH228219   2.135   5.589   0.760
 9421TIP3    H128220   2.137   5.506   0.713
 9421TIP3    H228221   2.075   5.573   0.833
 9422TIP3   OH228222   1.455   4.842   2.059
 9422TIP3    H128223   1.380   4.816   2.005
 9422TIP3    H228224   1.531   4.817   2.007
 9423TIP3   OH228225   3.270   3.218   2.435
 9423TIP3    H128226   3.316   3.291   2.476
 9423TIP3    H228227   3.179   3.245   2.432
 9424TIP3   OH228228   1.755   4.921   4.005
 9424TIP3    H128229   1.824   4.985   4.024
 9424TIP3    H228230   1.694   4.968   3.948
 9425TIP3   OH228231   6.572   5.656   5.862
 9425TIP3    H128232   6.488   5.612   5.874
 9425TIP3    H228233   6.586   5.704   5.943
 9426TIP3   OH228234   3.750   1.310   2.496
 9426TIP3    H128235   3.731   1.343   2.584
 9426TIP3    H228236   3.770   1.388   2.444
 9427TIP3   OH228237   5.923   2.934   3.922
 9427TIP3    H128238   5.936   3.025   3.949
 9427TIP3    H228239   5.877   2.894   3.995
 9428TIP3   OH228240   3.278   3.312   0.491
 9428TIP3    H128241   3.209   3.292   0.555
 9428TIP3    H228242   3.284   3.233   0.438
 9429TIP3   OH228243   1.985   0.395   5.899
 9429TIP3    H128244   2.061   0.336   5.902
 9429TIP3    H228245   1.926   0.362   5.966
 9430TIP3   OH228246   0.059   5.157   0.135
 9430TIP3    H128247   0.019   5.112   0.209
 9430TIP3    H228248   0.153   5.154   0.154
 9431TIP3   OH228249   2.770   7.079   1.926
 9431TIP3    H128250   2.724   7.139   1.867
 9431TIP3    H228251   2.851   7.059   1.880
 9432TIP3   OH228252   1.026   1.385   3.182
 9432TIP3    H128253   1.097   1.413   3.240
 9432TIP3    H228254   0.946   1.418   3.224
 9433TIP3   OH228255   1.868   7.132   3.434
 9433TIP3    H128256   1.866   7.055   3.377
 9433TIP3    H228257   1.931   7.191   3.392
 9434TIP3   OH228258   2.168   5.319   4.972
 9434TIP3    H128259   2.212   5.293   5.053
 9434TIP3    H228260   2.076   5.295   4.986
 9435TIP3   OH228261   4.037   5.273   3.390
 9435TIP3    H128262   3.959   5.294   3.442
 9435TIP3    H228263   4.008   5.281   3.300
 9436TIP3   OH228264   4.705   0.366   4.927
 9436TIP3    H128265   4.620   0.358   4.885
 9436TIP3    H228266   4.737   0.276   4.934
 9437TIP3   OH228267   1.196   0.691   5.298
 9437TIP3    H128268   1.262   0.673   5.231
 9437TIP3    H228269   1.189   0.786   5.301
 9438TIP3   OH228270   5.386   5.812   1.862
 9438TIP3    H128271   5.438   5.738   1.832
 9438TIP3    H228272   5.395   5.810   1.957
 9439TIP3   OH228273   0.726   4.549   1.263
 9439TIP3    H128274   0.660   4.526   1.198
 9439TIP3    H228275   0.693   4.512   1.345
 9440TIP3   OH228276   7.013   0.374   6.367
 9440TIP3    H128277   7.033   0.431   6.442
 9440TIP3    H228278   6.986   0.434   6.298
 9441TIP3   OH228279   0.762   3.221   2.186
 9441TIP3    H128280   0.764   3.224   2.090
 9441TIP3    H228281   0.676   3.256   2.209
 9442TIP3   OH228282   3.850   5.582   3.364
 9442TIP3    H128283   3.817   5.671   3.347
 9442TIP3    H228284   3.792   5.525   3.315
 9443TIP3   OH228285   0.120   2.174   0.024
 9443TIP3    H128286   0.169   2.092   0.030
 9443TIP3    H228287   0.115   2.192  -0.070
 9444TIP3   OH228288   0.352   3.034   1.617
 9444TIP3    H128289   0.320   3.121   1.642
 9444TIP3    H228290   0.447   3.041   1.623
 9445TIP3   OH228291   6.123   2.055   2.705
 9445TIP3    H128292   6.077   2.073   2.623
 9445TIP3    H228293   6.214   2.040   2.679
 9446TIP3   OH228294   2.933   2.934   1.401
 9446TIP3    H128295   2.858   2.883   1.369
 9446TIP3    H228296   2.915   2.949   1.494
 9447TIP3   OH228297   5.554   6.790   1.731
 9447TIP3    H128298   5.480   6.822   1.783
 9447TIP3    H228299   5.624   6.773   1.795
 9448TIP3   OH228300   4.932   3.147   6.251
 9448TIP3    H128301   4.889   3.217   6.203
 9448TIP3    H228302   5.009   3.126   6.199
 9449TIP3   OH228303   5.694   7.594   5.137
 9449TIP3    H128304   5.625   7.651   5.172
 9449TIP3    H228305   5.698   7.617   5.044
 9450TIP3   OH228306   5.091   5.574   5.135
 9450TIP3    H128307   5.178   5.591   5.172
 9450TIP3    H228308   5.096   5.484   5.103
 9451TIP3   OH228309   3.163   4.620   2.889
 9451TIP3    H128310   3.160   4.686   2.958
 9451TIP3    H228311   3.217   4.659   2.820
 9452TIP3   OH228312   2.655   0.294   4.132
 9452TIP3    H128313   2.730   0.239   4.154
 9452TIP3    H228314   2.614   0.313   4.216
 9453TIP3   OH228315   0.760   2.085   4.512
 9453TIP3    H128316   0.758   2.129   4.597
 9453TIP3    H228317   0.853   2.070   4.495
 9454TIP3   OH228318   6.591   2.479   3.521
 9454TIP3    H128319   6.555   2.425   3.450
 9454TIP3    H228320   6.596   2.567   3.484
 9455TIP3   OH228321   7.210   0.203   3.476
 9455TIP3    H128322   7.248   0.282   3.437
 9455TIP3    H228323   7.117   0.221   3.482
 9456TIP3   OH228324   2.261   3.126   2.524
 9456TIP3    H128325   2.302   3.141   2.439
 9456TIP3    H228326   2.231   3.212   2.551
 9457TIP3   OH228327   5.502   0.206   3.219
 9457TIP3    H128328   5.550   0.186   3.139
 9457TIP3    H228329   5.503   0.124   3.269
 9458TIP3   OH228330   2.222   7.350   0.263
 9458TIP3    H128331   2.185   7.328   0.177
 9458TIP3    H228332   2.211   7.445   0.271
 9459TIP3   OH228333   2.537   1.848   3.554
 9459TIP3    H128334   2.599   1.827   3.624
 9459TIP3    H228335   2.549   1.941   3.538
 9460TIP3   OH228336   4.788   3.943   6.508
 9460TIP3    H128337   4.843   4.004   6.557
 9460TIP3    H228338   4.785   3.864   6.562
 9461TIP3   OH228339   2.451   3.531   4.438
 9461TIP3    H128340   2.370   3.562   4.395
 9461TIP3    H228341   2.429   3.527   4.531
 9462TIP3   OH228342   1.475   5.259   2.163
 9462TIP3    H128343   1.431   5.217   2.237
 9462TIP3    H228344   1.568   5.240   2.176
 9463TIP3   OH228345   3.920   1.092   2.250
 9463TIP3    H128346   3.931   1.175   2.205
 9463TIP3    H228347   3.831   1.095   2.285
 9464TIP3   OH228348   5.566   0.110   0.169
 9464TIP3    H128349   5.641   0.056   0.191
 9464TIP3    H228350   5.490   0.056   0.191
 9465TIP3   OH228351   7.048   6.196   6.735
 9465TIP3    H128352   7.138   6.176   6.761
 9465TIP3    H228353   6.997   6.121   6.766
 9466TIP3   OH228354   0.118   1.567   5.108
 9466TIP3    H128355   0.213   1.558   5.104
 9466TIP3    H228356   0.103   1.655   5.142
 9467TIP3   OH228357   7.984   4.418   5.867
 9467TIP3    H128358   8.044   4.451   5.934
 9467TIP3    H228359   7.911   4.480   5.868
 9468TIP3   OH228360   7.385   2.602   4.882
 9468TIP3    H128361   7.401   2.541   4.810
 9468TIP3    H228362   7.290   2.601   4.893
 9469TIP3   OH228363   5.105   0.104   0.306
 9469TIP3    H128364   5.069   0.076   0.222
 9469TIP3    H228365   5.030   0.100   0.366
 9470TIP3   OH228366   0.424   3.665   5.761
 9470TIP3    H128367   0.339   3.686   5.799
 9470TIP3    H228368   0.478   3.640   5.836
 9471TIP3   OH228369   0.667   7.058   5.373
 9471TIP3    H128370   0.610   7.071   5.297
 9471TIP3    H228371   0.633   6.979   5.415
 9472TIP3   OH228372   2.661   6.638   0.939
 9472TIP3    H128373   2.720   6.696   0.988
 9472TIP3    H228374   2.575   6.652   0.979
 9473TIP3   OH228375   6.919   6.035   4.415
 9473TIP3    H128376   6.961   5.949   4.409
 9473TIP3    H228377   6.827   6.019   4.394
 9474TIP3   OH228378   0.943   1.839   2.283
 9474TIP3    H128379   0.913   1.878   2.201
 9474TIP3    H228380   1.000   1.767   2.256
 9475TIP3   OH228381   3.372   5.276   2.609
 9475TIP3    H128382   3.287   5.253   2.645
 9475TIP3    H228383   3.412   5.192   2.585
 9476TIP3   OH228384   6.674   2.759   6.102
 9476TIP3    H128385   6.707   2.798   6.021
 9476TIP3    H228386   6.739   2.783   6.168
 9477TIP3   OH228387   0.061   0.105   0.601
 9477TIP3    H128388   0.155   0.115   0.588
 9477TIP3    H228389   0.033   0.187   0.640
 9478TIP3   OH228390   0.583   0.554   3.730
 9478TIP3    H128391   0.596   0.467   3.768
 9478TIP3    H228392   0.587   0.614   3.804
 9479TIP3   OH228393   7.250   2.648   5.194
 9479TIP3    H128394   7.288   2.566   5.160
 9479TIP3    H228395   7.182   2.619   5.255
 9480TIP3   OH228396   4.861   4.156   3.278
 9480TIP3    H128397   4.903   4.072   3.257
 9480TIP3    H228398   4.844   4.151   3.372
 9481TIP3   OH228399   5.441   0.553   1.819
 9481TIP3    H128400   5.482   0.596   1.744
 9481TIP3    H228401   5.398   0.623   1.867
 9482TIP3   OH228402   2.284   0.428   6.345
 9482TIP3    H128403   2.209   0.416   6.287
 9482TIP3    H228404   2.343   0.356   6.323
 9483TIP3   OH228405   7.194   0.193   3.792
 9483TIP3    H128406   7.246   0.207   3.713
 9483TIP3    H228407   7.230   0.113   3.830
 9484TIP3   OH228408   5.003   0.516   1.293
 9484TIP3    H128409   4.924   0.567   1.273
 9484TIP3    H228410   4.973   0.425   1.296
 9485TIP3   OH228411   5.743   1.560   0.643
 9485TIP3    H128412   5.702   1.540   0.559
 9485TIP3    H228413   5.671   1.558   0.706
 9486TIP3   OH228414   1.010   6.302   2.981
 9486TIP3    H128415   1.084   6.308   3.042
 9486TIP3    H228416   0.936   6.273   3.035
 9487TIP3   OH228417   6.978   6.744   6.608
 9487TIP3    H128418   6.904   6.799   6.631
 9487TIP3    H228419   6.961   6.661   6.653
 9488TIP3   OH228420   6.319   2.118   3.663
 9488TIP3    H128421   6.324   2.027   3.691
 9488TIP3    H228422   6.313   2.168   3.745
 9489TIP3   OH228423   1.378   1.423   6.233
 9489TIP3    H128424   1.420   1.366   6.298
 9489TIP3    H228425   1.447   1.442   6.170
 9490TIP3   OH228426   4.126   5.693   4.519
 9490TIP3    H128427   4.178   5.671   4.596
 9490TIP3    H228428   4.042   5.724   4.555
 9491TIP3   OH228429   1.824   5.943   5.846
 9491TIP3    H128430   1.886   5.907   5.909
 9491TIP3    H228431   1.823   5.881   5.774
 9492TIP3   OH228432   5.791   6.068   1.666
 9492TIP3    H128433   5.745   6.033   1.590
 9492TIP3    H228434   5.750   6.153   1.682
 9493TIP3   OH228435   0.084   2.808   5.052
 9493TIP3    H128436   0.176   2.791   5.072
 9493TIP3    H228437   0.085   2.846   4.964
 9494TIP3   OH228438   4.403   6.302   5.940
 9494TIP3    H128439   4.416   6.265   5.853
 9494TIP3    H228440   4.363   6.231   5.990
 9495TIP3   OH228441   1.210   1.870   3.565
 9495TIP3    H128442   1.145   1.911   3.622
 9495TIP3    H228443   1.196   1.776   3.576
 9496TIP3   OH228444   4.718   0.388   2.309
 9496TIP3    H128445   4.659   0.463   2.296
 9496TIP3    H228446   4.673   0.314   2.267
 9497TIP3   OH228447   4.157   1.685   0.769
 9497TIP3    H128448   4.171   1.773   0.735
 9497TIP3    H228449   4.172   1.628   0.693
 9498TIP3   OH228450   5.378   6.398   4.687
 9498TIP3    H128451   5.389   6.304   4.702
 9498TIP3    H228452   5.387   6.408   4.592
 9499TIP3   OH228453   6.487   7.445   0.274
 9499TIP3    H128454   6.477   7.350   0.267
 9499TIP3    H228455   6.424   7.481   0.212
 9500TIP3   OH228456   4.611   0.112   1.645
 9500TIP3    H128457   4.599   0.127   1.552
 9500TIP3    H228458   4.687   0.165   1.668
 9501TIP3   OH228459   5.517   7.293   5.854
 9501TIP3    H128460   5.467   7.364   5.895
 9501TIP3    H228461   5.575   7.337   5.791
 9502TIP3   OH228462   2.291   4.541   5.732
 9502TIP3    H128463   2.354   4.529   5.660
 9502TIP3    H228464   2.215   4.583   5.690
 9503TIP3   OH228465   6.886   4.116   0.675
 9503TIP3    H128466   6.849   4.044   0.726
 9503TIP3    H228467   6.871   4.091   0.584
 9504TIP3   OH228468   5.431   3.729   1.102
 9504TIP3    H128469   5.408   3.644   1.139
 9504TIP3    H228470   5.378   3.792   1.151
 9505TIP3   OH228471   2.050   3.359   2.317
 9505TIP3    H128472   2.112   3.394   2.380
 9505TIP3    H228473   2.044   3.426   2.249
 9506TIP3   OH228474   5.644   6.852   1.269
 9506TIP3    H128475   5.641   6.849   1.173
 9506TIP3    H228476   5.553   6.836   1.296
 9507TIP3   OH228477   7.229   3.660   4.614
 9507TIP3    H128478   7.260   3.748   4.594
 9507TIP3    H228479   7.273   3.604   4.550
 9508TIP3   OH228480   7.787   3.397   3.706
 9508TIP3    H128481   7.837   3.326   3.747
 9508TIP3    H228482   7.839   3.422   3.630
 9509TIP3   OH228483   1.173   3.021   6.278
 9509TIP3    H128484   1.197   3.099   6.229
 9509TIP3    H228485   1.241   3.012   6.344
 9510TIP3   OH228486   2.721   0.621   5.383
 9510TIP3    H128487   2.650   0.563   5.408
 9510TIP3    H228488   2.786   0.564   5.342
 9511TIP3   OH228489   5.778   7.455   1.800
 9511TIP3    H128490   5.724   7.401   1.859
 9511TIP3    H228491   5.756   7.424   1.712
 9512TIP3   OH228492   4.170   0.502   5.028
 9512TIP3    H128493   4.124   0.585   5.010
 9512TIP3    H228494   4.100   0.438   5.041
 9513TIP3   OH228495   5.707   7.693   4.631
 9513TIP3    H128496   5.634   7.657   4.682
 9513TIP3    H228497   5.668   7.767   4.584
 9514TIP3   OH228498   2.558   5.707   0.669
 9514TIP3    H128499   2.493   5.707   0.739
 9514TIP3    H228500   2.567   5.799   0.645
 9515TIP3   OH228501   7.816   0.279   4.565
 9515TIP3    H128502   7.830   0.286   4.660
 9515TIP3    H228503   7.868   0.204   4.538
 9516TIP3   OH228504   4.309   0.882   4.885
 9516TIP3    H128505   4.230   0.840   4.850
 9516TIP3    H228506   4.313   0.967   4.841
 9517TIP3   OH228507   2.148   4.282   5.880
 9517TIP3    H128508   2.220   4.315   5.826
 9517TIP3    H228509   2.112   4.360   5.922
 9518TIP3   OH228510   6.164   0.879   3.298
 9518TIP3    H128511   6.070   0.862   3.291
 9518TIP3    H228512   6.203   0.794   3.316
 9519TIP3   OH228513   2.784   2.827   1.859
 9519TIP3    H128514   2.872   2.792   1.846
 9519TIP3    H228515   2.791   2.919   1.833
 9520TIP3   OH228516   7.822   6.690   4.823
 9520TIP3    H128517   7.796   6.770   4.777
 9520TIP3    H228518   7.740   6.648   4.848
 9521TIP3   OH228519   1.466   3.028   2.024
 9521TIP3    H128520   1.502   3.042   2.111
 9521TIP3    H228521   1.446   3.115   1.992
 9522TIP3   OH228522   2.162   3.688   5.332
 9522TIP3    H128523   2.203   3.637   5.401
 9522TIP3    H228524   2.235   3.721   5.280
 9523TIP3   OH228525   1.590   6.555   2.463
 9523TIP3    H128526   1.529   6.510   2.522
 9523TIP3    H228527   1.549   6.639   2.444
 9524TIP3   OH228528   1.166   4.870   1.765
 9524TIP3    H128529   1.126   4.799   1.815
 9524TIP3    H228530   1.119   4.870   1.681
 9525TIP3   OH228531   1.537   2.937   0.961
 9525TIP3    H128532   1.602   2.929   1.030
 9525TIP3    H228533   1.551   2.860   0.905
 9526TIP3   OH228534   4.335   5.477   5.425
 9526TIP3    H128535   4.297   5.516   5.346
 9526TIP3    H228536   4.429   5.475   5.408
 9527TIP3   OH228537   3.258   7.180   3.443
 9527TIP3    H128538   3.237   7.098   3.488
 9527TIP3    H228539   3.179   7.233   3.451
 9528TIP3   OH228540   6.702   2.667   3.091
 9528TIP3    H128541   6.720   2.654   3.185
 9528TIP3    H228542   6.786   2.652   3.048
 9529TIP3   OH228543   1.425   0.213   0.091
 9529TIP3    H128544   1.464   0.186   0.175
 9529TIP3    H228545   1.421   0.132   0.040
 9530TIP3   OH228546   7.159   3.288   0.169
 9530TIP3    H128547   7.067   3.315   0.161
 9530TIP3    H228548   7.188   3.329   0.250
 9531TIP3   OH228549   8.208   1.198   5.151
 9531TIP3    H128550   8.183   1.254   5.077
 9531TIP3    H228551   8.187   1.109   5.121
 9532TIP3   OH228552   1.678   7.533   1.472
 9532TIP3    H128553   1.744   7.465   1.487
 9532TIP3    H228554   1.692   7.596   1.543
 9533TIP3   OH228555   3.036   2.765   0.201
 9533TIP3    H128556   2.943   2.782   0.187
 9533TIP3    H228557   3.081   2.831   0.150
 9534TIP3   OH228558   6.185   5.310   4.759
 9534TIP3    H128559   6.271   5.335   4.793
 9534TIP3    H228560   6.202   5.285   4.668
 9535TIP3   OH228561   7.297   4.165   5.870
 9535TIP3    H128562   7.247   4.108   5.812
 9535TIP3    H228563   7.233   4.229   5.901
 9536TIP3   OH228564   2.373   0.109   6.736
 9536TIP3    H128565   2.319   0.060   6.798
 9536TIP3    H228566   2.410   0.181   6.788
 9537TIP3   OH228567   0.559   4.635   4.102
 9537TIP3    H128568   0.493   4.568   4.122
 9537TIP3    H228569   0.516   4.718   4.121
 9538TIP3   OH228570   5.921   0.606   0.536
 9538TIP3    H128571   5.830   0.579   0.534
 9538TIP3    H228572   5.931   0.663   0.460
 9539TIP3   OH228573   6.931   4.960   3.076
 9539TIP3    H128574   6.949   4.912   2.995
 9539TIP3    H228575   7.010   5.012   3.091
 9540TIP3   OH228576   7.483   2.118   5.689
 9540TIP3    H128577   7.513   2.132   5.779
 9540TIP3    H228578   7.493   2.204   5.648
 9541TIP3   OH228579   4.833   0.408   6.736
 9541TIP3    H128580   4.876   0.326   6.757
 9541TIP3    H228581   4.888   0.449   6.670
 9542TIP3   OH228582   5.137   1.753   0.188
 9542TIP3    H128583   5.048   1.778   0.216
 9542TIP3    H228584   5.142   1.659   0.209
 9543TIP3   OH228585   4.340   1.012   5.901
 9543TIP3    H128586   4.373   1.082   5.956
 9543TIP3    H228587   4.411   0.948   5.897
 9544TIP3   OH228588   5.156   6.847   0.559
 9544TIP3    H128589   5.250   6.825   0.559
 9544TIP3    H228590   5.115   6.775   0.510
 9545TIP3   OH228591   7.910   2.449   6.237
 9545TIP3    H128592   7.926   2.409   6.151
 9545TIP3    H228593   7.997   2.458   6.275
 9546TIP3   OH228594   3.105   2.545   4.183
 9546TIP3    H128595   3.063   2.581   4.261
 9546TIP3    H228596   3.184   2.598   4.172
 9547TIP3   OH228597   4.627   6.711   1.024
 9547TIP3    H128598   4.660   6.737   1.110
 9547TIP3    H228599   4.706   6.694   0.973
 9548TIP3   OH228600   2.400   3.683   6.003
 9548TIP3    H128601   2.376   3.605   6.052
 9548TIP3    H228602   2.376   3.756   6.061
 9549TIP3   OH228603   6.663   4.637   4.369
 9549TIP3    H128604   6.630   4.586   4.443
 9549TIP3    H228605   6.735   4.688   4.405
 9550TIP3   OH228606   0.101   1.881   4.729
 9550TIP3    H128607   0.086   1.968   4.766
 9550TIP3    H228608   0.193   1.880   4.706
 9551TIP3   OH228609   4.059   6.274   0.696
 9551TIP3    H128610   4.024   6.361   0.715
 9551TIP3    H228611   4.004   6.214   0.747
 9552TIP3   OH228612   7.787   0.799   6.680
 9552TIP3    H128613   7.849   0.817   6.609
 9552TIP3    H228614   7.777   0.704   6.679
 9553TIP3   OH228615   2.267   2.665   2.370
 9553TIP3    H128616   2.246   2.606   2.442
 9553TIP3    H228617   2.290   2.748   2.412
 9554TIP3   OH228618   3.505   2.186   5.161
 9554TIP3    H128619   3.600   2.183   5.148
 9554TIP3    H228620   3.470   2.208   5.074
 9555TIP3   OH228621   6.548   3.447   1.340
 9555TIP3    H128622   6.558   3.450   1.435
 9555TIP3    H228623   6.637   3.437   1.306
 9556TIP3   OH228624   7.016   0.361   5.170
 9556TIP3    H128625   7.024   0.286   5.111
 9556TIP3    H228626   7.032   0.325   5.257
 9557TIP3   OH228627   0.474   5.485   3.784
 9557TIP3    H128628   0.399   5.427   3.771
 9557TIP3    H228629   0.544   5.446   3.731
 9558TIP3   OH228630   4.503   0.228   3.546
 9558TIP3    H128631   4.506   0.238   3.451
 9558TIP3    H228632   4.564   0.294   3.580
 9559TIP3   OH228633   7.590   3.452   1.901
 9559TIP3    H128634   7.580   3.391   1.828
 9559TIP3    H228635   7.685   3.459   1.913
 9560TIP3   OH228636   0.123   5.829   2.713
 9560TIP3    H128637   0.201   5.858   2.665
 9560TIP3    H228638   0.126   5.733   2.706
 9561TIP3   OH228639   4.409   6.297   0.770
 9561TIP3    H128640   4.339   6.310   0.706
 9561TIP3    H228641   4.363   6.278   0.852
 9562TIP3   OH228642   6.823   5.439   4.789
 9562TIP3    H128643   6.810   5.345   4.777
 9562TIP3    H228644   6.824   5.474   4.700
 9563TIP3   OH228645   5.044   6.388   1.136
 9563TIP3    H128646   5.054   6.434   1.219
 9563TIP3    H228647   4.978   6.439   1.088
 9564TIP3   OH228648   4.250   7.226   2.345
 9564TIP3    H128649   4.279   7.207   2.255
 9564TIP3    H228650   4.266   7.320   2.356
 9565TIP3   OH228651   6.062   4.401   3.899
 9565TIP3    H128652   6.056   4.497   3.908
 9565TIP3    H228653   6.017   4.367   3.976
 9566TIP3   OH228654   3.925   4.983   3.258
 9566TIP3    H128655   3.881   5.068   3.264
 9566TIP3    H228656   3.886   4.942   3.180
 9567TIP3   OH228657   6.502   5.307   3.470
 9567TIP3    H128658   6.447   5.236   3.500
 9567TIP3    H228659   6.581   5.264   3.437
 9568TIP3   OH228660   1.389   1.926   3.364
 9568TIP3    H128661   1.441   1.979   3.425
 9568TIP3    H228662   1.319   1.890   3.417
 9569TIP3   OH228663   1.585   0.066   3.508
 9569TIP3    H128664   1.661   0.124   3.509
 9569TIP3    H228665   1.558   0.063   3.417
 9570TIP3   OH228666   0.932   0.297   3.614
 9570TIP3    H128667   0.950   0.362   3.546
 9570TIP3    H228668   0.850   0.256   3.586
 9571TIP3   OH228669   6.582   3.209   5.089
 9571TIP3    H128670   6.538   3.232   5.171
 9571TIP3    H228671   6.515   3.166   5.037
 9572TIP3   OH228672   4.668   5.088   3.193
 9572TIP3    H128673   4.667   5.173   3.238
 9572TIP3    H228674   4.761   5.064   3.191
 9573TIP3   OH228675   8.228   0.861   4.667
 9573TIP3    H128676   8.196   0.815   4.589
 9573TIP3    H228677   8.158   0.923   4.689
 9574TIP3   OH228678   4.125   7.757   1.701
 9574TIP3    H128679   4.211   7.778   1.664
 9574TIP3    H228680   4.130   7.788   1.792
 9575TIP3   OH228681   4.005   6.597   0.361
 9575TIP3    H128682   3.999   6.507   0.392
 9575TIP3    H228683   4.079   6.597   0.300
 9576TIP3   OH228684   6.554   4.853   0.740
 9576TIP3    H128685   6.594   4.782   0.689
 9576TIP3    H228686   6.559   4.823   0.831
 9577TIP3   OH228687   5.236   4.276   0.703
 9577TIP3    H128688   5.266   4.363   0.729
 9577TIP3    H228689   5.310   4.238   0.657
 9578TIP3   OH228690   2.760   3.457   6.609
 9578TIP3    H128691   2.742   3.390   6.543
 9578TIP3    H228692   2.720   3.537   6.574
 9579TIP3   OH228693   5.652   3.063   0.124
 9579TIP3    H128694   5.687   3.076   0.036
 9579TIP3    H228695   5.632   3.151   0.155
 9580TIP3   OH228696   5.275   1.238   1.203
 9580TIP3    H128697   5.322   1.199   1.277
 9580TIP3    H228698   5.231   1.165   1.161
 9581TIP3   OH228699   3.248   7.342   4.339
 9581TIP3    H128700   3.168   7.394   4.340
 9581TIP3    H228701   3.219   7.252   4.323
 9582TIP3   OH228702   2.957   5.196   3.520
 9582TIP3    H128703   2.963   5.281   3.476
 9582TIP3    H228704   2.990   5.212   3.608
 9583TIP3   OH228705   6.311   3.679   2.164
 9583TIP3    H128706   6.390   3.665   2.216
 9583TIP3    H228707   6.257   3.601   2.182
 9584TIP3   OH228708   3.907   3.102   1.560
 9584TIP3    H128709   3.998   3.073   1.565
 9584TIP3    H228710   3.865   3.043   1.498
 9585TIP3   OH228711   7.056   6.994   1.584
 9585TIP3    H128712   7.023   7.069   1.534
 9585TIP3    H228713   7.151   7.005   1.583
 9586TIP3   OH228714   3.719   3.645   5.227
 9586TIP3    H128715   3.650   3.589   5.190
 9586TIP3    H228716   3.785   3.584   5.259
 9587TIP3   OH228717   7.527   5.623   3.181
 9587TIP3    H128718   7.477   5.677   3.242
 9587TIP3    H228719   7.615   5.620   3.218
 9588TIP3   OH228720   1.182   4.604   4.724
 9588TIP3    H128721   1.132   4.534   4.680
 9588TIP3    H228722   1.246   4.557   4.778
 9589TIP3   OH228723   7.926   2.056   1.853
 9589TIP3    H128724   7.855   2.111   1.887
 9589TIP3    H228725   7.969   2.110   1.788
 9590TIP3   OH228726   4.091   1.729   4.186
 9590TIP3    H128727   4.121   1.674   4.113
 9590TIP3    H228728   4.003   1.696   4.205
 9591TIP3   OH228729   0.157   4.258   2.525
 9591TIP3    H128730   0.189   4.214   2.446
 9591TIP3    H228731   0.066   4.280   2.505
 9592TIP3   OH228732   1.096   5.264   4.434
 9592TIP3    H128733   1.086   5.357   4.413
 9592TIP3    H228734   1.013   5.225   4.408
 9593TIP3   OH228735   6.205   6.343   6.540
 9593TIP3    H128736   6.289   6.365   6.581
 9593TIP3    H228737   6.229   6.308   6.454
 9594TIP3   OH228738   0.363   1.855   4.601
 9594TIP3    H128739   0.391   1.931   4.550
 9594TIP3    H228740   0.442   1.826   4.646
 9595TIP3   OH228741   0.602   3.495   6.002
 9595TIP3    H128742   0.546   3.420   5.980
 9595TIP3    H228743   0.686   3.475   5.962
 9596TIP3   OH228744   2.499   3.891   3.565
 9596TIP3    H128745   2.429   3.832   3.595
 9596TIP3    H228746   2.528   3.854   3.482
 9597TIP3   OH228747   1.653   0.155   4.231
 9597TIP3    H128748   1.572   0.167   4.181
 9597TIP3    H228749   1.688   0.244   4.242
 9598TIP3   OH228750   5.791   3.220   5.153
 9598TIP3    H128751   5.849   3.294   5.135
 9598TIP3    H228752   5.768   3.186   5.067
 9599TIP3   OH228753   2.647   3.493   3.016
 9599TIP3    H128754   2.641   3.589   3.017
 9599TIP3    H228755   2.731   3.475   2.974
 9600TIP3   OH228756   0.503   4.330   6.043
 9600TIP3    H128757   0.552   4.252   6.068
 9600TIP3    H228758   0.512   4.334   5.948
 9601TIP3   OH228759   1.958   6.114   4.824
 9601TIP3    H128760   2.033   6.152   4.778
 9601TIP3    H228761   1.892   6.184   4.824
 9602TIP3   OH228762   4.360   5.757   1.223
 9602TIP3    H128763   4.315   5.792   1.300
 9602TIP3    H228764   4.446   5.730   1.255
 9603TIP3   OH228765   6.034   6.490   0.662
 9603TIP3    H128766   6.083   6.571   0.643
 9603TIP3    H228767   6.099   6.433   0.703
 9604TIP3   OH228768   2.999   4.039   1.952
 9604TIP3    H128769   3.048   3.980   1.895
 9604TIP3    H228770   2.936   3.983   1.997
 9605TIP3   OH228771   2.625   7.239   3.720
 9605TIP3    H128772   2.556   7.215   3.782
 9605TIP3    H228773   2.699   7.264   3.776
 9606TIP3   OH228774   4.007   4.940   1.318
 9606TIP3    H128775   4.069   4.979   1.379
 9606TIP3    H228776   3.979   4.859   1.360
 9607TIP3   OH228777   6.018   1.579   2.967
 9607TIP3    H128778   5.977   1.552   2.885
 9607TIP3    H228779   6.078   1.508   2.989
 9608TIP3   OH228780   8.121   0.582   5.816
 9608TIP3    H128781   8.211   0.579   5.849
 9608TIP3    H228782   8.091   0.491   5.817
 9609TIP3   OH228783   6.791   6.272   4.149
 9609TIP3    H128784   6.845   6.273   4.228
 9609TIP3    H228785   6.811   6.189   4.107
 9610TIP3   OH228786   7.436   7.084   1.343
 9610TIP3    H128787   7.512   7.026   1.338
 9610TIP3    H228788   7.381   7.057   1.270
 9611TIP3   OH228789   7.619   2.415   2.910
 9611TIP3    H128790   7.533   2.454   2.894
 9611TIP3    H228791   7.616   2.330   2.866
 9612TIP3   OH228792   7.109   2.172   6.068
 9612TIP3    H128793   7.126   2.219   5.987
 9612TIP3    H228794   7.195   2.148   6.101
 9613TIP3   OH228795   5.202   6.982   1.247
 9613TIP3    H128796   5.282   6.954   1.291
 9613TIP3    H228797   5.232   7.031   1.170
 9614TIP3   OH228798   1.773   4.397   0.557
 9614TIP3    H128799   1.774   4.325   0.495
 9614TIP3    H228800   1.823   4.366   0.632
 9615TIP3   OH228801   7.808   2.706   6.589
 9615TIP3    H128802   7.892   2.740   6.620
 9615TIP3    H228803   7.743   2.767   6.625
 9616TIP3   OH228804   6.402   6.963   0.986
 9616TIP3    H128805   6.495   6.984   0.995
 9616TIP3    H228806   6.391   6.880   1.033
 9617TIP3   OH228807   4.334   7.675   4.154
 9617TIP3    H128808   4.309   7.709   4.068
 9617TIP3    H228809   4.409   7.619   4.137
 9618TIP3   OH228810   0.754   4.572   4.826
 9618TIP3    H128811   0.806   4.614   4.757
 9618TIP3    H228812   0.719   4.493   4.785
 9619TIP3   OH228813   0.404   7.510   6.174
 9619TIP3    H128814   0.476   7.472   6.225
 9619TIP3    H228815   0.441   7.590   6.136
 9620TIP3   OH228816   7.331   5.261   5.612
 9620TIP3    H128817   7.335   5.177   5.659
 9620TIP3    H228818   7.414   5.304   5.633
 9621TIP3   OH228819   4.247   7.118   5.431
 9621TIP3    H128820   4.152   7.130   5.423
 9621TIP3    H228821   4.259   7.082   5.519
 9622TIP3   OH228822   6.194   5.250   5.506
 9622TIP3    H128823   6.262   5.280   5.565
 9622TIP3    H228824   6.134   5.201   5.562
 9623TIP3   OH228825   3.724   1.842   4.418
 9623TIP3    H128826   3.776   1.920   4.440
 9623TIP3    H228827   3.654   1.841   4.483
 9624TIP3   OH228828   2.047   6.216   1.476
 9624TIP3    H128829   2.141   6.199   1.481
 9624TIP3    H228830   2.011   6.177   1.555
 9625TIP3   OH228831   7.934   4.635   3.696
 9625TIP3    H128832   7.861   4.643   3.635
 9625TIP3    H228833   7.996   4.577   3.652
 9626TIP3   OH228834   4.150   3.540   4.931
 9626TIP3    H128835   4.213   3.475   4.899
 9626TIP3    H228836   4.083   3.545   4.863
 9627TIP3   OH228837   0.963   0.642   1.019
 9627TIP3    H128838   0.926   0.694   0.947
 9627TIP3    H228839   0.921   0.556   1.009
 9628TIP3   OH228840   3.793   0.658   6.708
 9628TIP3    H128841   3.772   0.604   6.784
 9628TIP3    H228842   3.858   0.607   6.660
 9629TIP3   OH228843   7.657   2.344   1.129
 9629TIP3    H128844   7.628   2.435   1.126
 9629TIP3    H228845   7.583   2.293   1.096
 9630TIP3   OH228846   4.238   3.484   4.058
 9630TIP3    H128847   4.312   3.515   4.007
 9630TIP3    H228848   4.161   3.504   4.005
 9631TIP3   OH228849   1.894   6.881   1.081
 9631TIP3    H128850   1.819   6.846   1.128
 9631TIP3    H228851   1.890   6.976   1.094
 9632TIP3   OH228852   1.584   6.226   3.914
 9632TIP3    H128853   1.570   6.291   3.845
 9632TIP3    H228854   1.675   6.198   3.903
 9633TIP3   OH228855   2.527   6.902   5.339
 9633TIP3    H128856   2.501   6.824   5.289
 9633TIP3    H228857   2.445   6.939   5.371
 9634TIP3   OH228858   2.213   0.447   2.120
 9634TIP3    H128859   2.233   0.360   2.084
 9634TIP3    H228860   2.184   0.498   2.045
 9635TIP3   OH228861   4.004   6.953   5.908
 9635TIP3    H128862   4.076   6.907   5.950
 9635TIP3    H228863   3.969   6.891   5.844
 9636TIP3   OH228864   3.252   2.160   5.501
 9636TIP3    H128865   3.290   2.104   5.434
 9636TIP3    H228866   3.270   2.249   5.472
 9637TIP3   OH228867   7.614   6.677   2.667
 9637TIP3    H128868   7.674   6.688   2.593
 9637TIP3    H228869   7.650   6.603   2.716
 9638TIP3   OH228870   2.338   5.833   2.332
 9638TIP3    H128871   2.275   5.807   2.400
 9638TIP3    H228872   2.324   5.927   2.322
 9639TIP3   OH228873   5.168   1.672   6.751
 9639TIP3    H128874   5.173   1.582   6.783
 9639TIP3    H228875   5.178   1.726   6.829
 9640TIP3   OH228876   7.306   7.002   4.223
 9640TIP3    H128877   7.240   7.059   4.263
 9640TIP3    H228878   7.346   7.055   4.154
 9641TIP3   OH228879   3.385   5.512   3.411
 9641TIP3    H128880   3.400   5.575   3.481
 9641TIP3    H228881   3.344   5.437   3.454
 9642TIP3   OH228882   5.908   4.353   1.170
 9642TIP3    H128883   5.962   4.364   1.092
 9642TIP3    H228884   5.970   4.348   1.243
 9643TIP3   OH228885   0.990   1.986   3.706
 9643TIP3    H128886   0.934   2.039   3.649
 9643TIP3    H228887   0.931   1.921   3.744
 9644TIP3   OH228888   2.227   6.232   1.872
 9644TIP3    H128889   2.265   6.146   1.858
 9644TIP3    H228890   2.214   6.267   1.783
 9645TIP3   OH228891   5.238   4.070   5.296
 9645TIP3    H128892   5.331   4.083   5.314
 9645TIP3    H228893   5.197   4.059   5.382
 9646TIP3   OH228894   5.845   2.828   0.704
 9646TIP3    H128895   5.918   2.842   0.643
 9646TIP3    H228896   5.775   2.791   0.650
 9647TIP3   OH228897   5.651   0.092   4.997
 9647TIP3    H128898   5.699   0.051   5.069
 9647TIP3    H228899   5.711   0.158   4.963
 9648TIP3   OH228900   6.656   5.588   0.154
 9648TIP3    H128901   6.609   5.506   0.145
 9648TIP3    H228902   6.748   5.563   0.159
 9649TIP3   OH228903   3.872   7.331   6.612
 9649TIP3    H128904   3.911   7.282   6.540
 9649TIP3    H228905   3.822   7.265   6.662
 9650TIP3   OH228906   7.429   5.085   3.650
 9650TIP3    H128907   7.462   5.103   3.738
 9650TIP3    H228908   7.339   5.055   3.663
 9651TIP3   OH228909   6.766   0.777   3.622
 9651TIP3    H128910   6.793   0.737   3.539
 9651TIP3    H228911   6.764   0.871   3.604
 9652TIP3   OH228912   2.716   1.933   2.761
 9652TIP3    H128913   2.778   1.910   2.692
 9652TIP3    H228914   2.675   1.851   2.785
 9653TIP3   OH228915   6.415   5.578   4.510
 9653TIP3    H128916   6.321   5.561   4.517
 9653TIP3    H228917   6.437   5.557   4.419
 9654TIP3   OH228918   2.679   2.662   2.703
 9654TIP3    H128919   2.632   2.647   2.786
 9654TIP3    H228920   2.715   2.576   2.680
 9655TIP3   OH228921   7.125   6.603   4.715
 9655TIP3    H128922   7.108   6.512   4.690
 9655TIP3    H228923   7.167   6.597   4.801
 9656TIP3   OH228924   7.999   1.083   2.318
 9656TIP3    H128925   8.041   1.166   2.340
 9656TIP3    H228926   7.972   1.047   2.402
 9657TIP3   OH228927   2.108   4.755   3.997
 9657TIP3    H128928   2.041   4.756   3.930
 9657TIP3    H228929   2.168   4.826   3.972
 9658TIP3   OH228930   2.192   4.774   6.131
 9658TIP3    H128931   2.099   4.764   6.111
 9658TIP3    H228932   2.234   4.780   6.045
 9659TIP3   OH228933   7.365   0.965   6.683
 9659TIP3    H128934   7.273   0.949   6.665
 9659TIP3    H228935   7.373   1.060   6.682
 9660TIP3   OH228936   7.617   0.825   3.349
 9660TIP3    H128937   7.529   0.863   3.357
 9660TIP3    H228938   7.677   0.896   3.371
 9661TIP3   OH228939   4.636   1.709   3.661
 9661TIP3    H128940   4.609   1.763   3.735
 9661TIP3    H228941   4.602   1.622   3.681
 9662TIP3   OH228942   0.370   1.519   6.461
 9662TIP3    H128943   0.340   1.436   6.425
 9662TIP3    H228944   0.404   1.567   6.385
 9663TIP3   OH228945   0.271   6.315   3.570
 9663TIP3    H128946   0.344   6.272   3.615
 9663TIP3    H228947   0.211   6.244   3.549
 9664TIP3   OH228948   4.376   4.174   4.037
 9664TIP3    H128949   4.387   4.145   4.128
 9664TIP3    H228950   4.412   4.262   4.035
 9665TIP3   OH228951   4.863   4.131   0.980
 9665TIP3    H128952   4.895   4.149   1.068
 9665TIP3    H228953   4.941   4.124   0.926
 9666TIP3   OH228954   3.218   2.554   0.839
 9666TIP3    H128955   3.134   2.541   0.884
 9666TIP3    H228956   3.273   2.482   0.870
 9667TIP3   OH228957   2.752   5.662   2.814
 9667TIP3    H128958   2.841   5.691   2.834
 9667TIP3    H228959   2.698   5.739   2.829
 9668TIP3   OH228960   1.035   3.834   2.189
 9668TIP3    H128961   1.076   3.862   2.108
 9668TIP3    H228962   0.941   3.833   2.169
 9669TIP3   OH228963   2.934   2.588   2.926
 9669TIP3    H128964   2.846   2.562   2.955
 9669TIP3    H228965   2.939   2.555   2.836
 9670TIP3   OH228966   4.254   2.854   5.780
 9670TIP3    H128967   4.247   2.792   5.707
 9670TIP3    H228968   4.200   2.816   5.849
 9671TIP3   OH228969   6.785   6.487   4.406
 9671TIP3    H128970   6.800   6.524   4.319
 9671TIP3    H228971   6.850   6.417   4.415
 9672TIP3   OH228972   5.549   5.113   2.127
 9672TIP3    H128973   5.585   5.181   2.069
 9672TIP3    H228974   5.497   5.162   2.191
 9673TIP3   OH228975   4.169   1.618   5.781
 9673TIP3    H128976   4.122   1.549   5.828
 9673TIP3    H228977   4.105   1.689   5.772
 9674TIP3   OH228978   5.324   1.379   0.980
 9674TIP3    H128979   5.284   1.464   0.997
 9674TIP3    H228980   5.301   1.326   1.056
 9675TIP3   OH228981   3.072   0.594   5.217
 9675TIP3    H128982   3.028   0.565   5.296
 9675TIP3    H228983   3.162   0.612   5.245
 9676TIP3   OH228984   3.859   5.229   4.406
 9676TIP3    H128985   3.930   5.186   4.454
 9676TIP3    H228986   3.798   5.259   4.474
 9677TIP3   OH228987   1.135   4.345   5.029
 9677TIP3    H128988   1.074   4.419   5.020
 9677TIP3    H228989   1.140   4.308   4.941
 9678TIP3   OH228990   7.136   3.993   3.068
 9678TIP3    H128991   7.230   3.985   3.050
 9678TIP3    H228992   7.116   3.918   3.124
 9679TIP3   OH228993   6.503   3.936   4.260
 9679TIP3    H128994   6.418   3.894   4.249
 9679TIP3    H228995   6.483   4.030   4.263
 9680TIP3   OH228996   4.215   1.619   3.939
 9680TIP3    H128997   4.198   1.530   3.910
 9680TIP3    H228998   4.305   1.617   3.971
 9681TIP3   OH228999   5.813   7.700   4.210
 9681TIP3    H129000   5.897   7.720   4.251
 9681TIP3    H229001   5.757   7.671   4.282
 9682TIP3   OH229002   3.702   6.869   1.937
 9682TIP3    H129003   3.682   6.903   1.850
 9682TIP3    H229004   3.690   6.944   1.996
 9683TIP3   OH229005   4.266   2.184   0.410
 9683TIP3    H129006   4.263   2.274   0.442
 9683TIP3    H229007   4.354   2.175   0.372
 9684TIP3   OH229008   7.836   2.074   2.464
 9684TIP3    H129009   7.900   2.025   2.412
 9684TIP3    H229010   7.886   2.145   2.503
 9685TIP3   OH229011   2.144   0.715   6.057
 9685TIP3    H129012   2.103   0.801   6.055
 9685TIP3    H229013   2.169   0.702   6.148
 9686TIP3   OH229014   4.955   4.686   1.785
 9686TIP3    H129015   4.939   4.661   1.694
 9686TIP3    H229016   4.908   4.621   1.837
 9687TIP3   OH229017   6.060   3.866   4.923
 9687TIP3    H129018   6.090   3.776   4.917
 9687TIP3    H229019   6.116   3.905   4.991
 9688TIP3   OH229020   1.723   0.133   6.261
 9688TIP3    H129021   1.662   0.089   6.320
 9688TIP3    H229022   1.809   0.122   6.303
 9689TIP3   OH229023   8.131   2.086   5.633
 9689TIP3    H129024   8.181   2.149   5.581
 9689TIP3    H229025   8.080   2.037   5.570
 9690TIP3   OH229026   5.519   3.039   3.007
 9690TIP3    H129027   5.553   3.116   3.051
 9690TIP3    H229028   5.488   2.983   3.078
 9691TIP3   OH229029   3.182   3.455   1.846
 9691TIP3    H129030   3.147   3.495   1.766
 9691TIP3    H229031   3.125   3.486   1.916
 9692TIP3   OH229032   0.142   4.235   0.656
 9692TIP3    H129033   0.058   4.280   0.667
 9692TIP3    H229034   0.131   4.153   0.705
 9693TIP3   OH229035   4.957   4.251   1.664
 9693TIP3    H129036   4.891   4.267   1.732
 9693TIP3    H229037   5.000   4.170   1.690
 9694TIP3   OH229038   4.492   5.160   2.964
 9694TIP3    H129039   4.419   5.150   3.025
 9694TIP3    H229040   4.567   5.122   3.009
 9695TIP3   OH229041   4.421   2.374   4.225
 9695TIP3    H129042   4.358   2.305   4.246
 9695TIP3    H229043   4.390   2.410   4.141
 9696TIP3   OH229044   7.514   5.522   5.235
 9696TIP3    H129045   7.498   5.609   5.198
 9696TIP3    H229046   7.470   5.523   5.320
 9697TIP3   OH229047   4.535   4.507   3.223
 9697TIP3    H129048   4.480   4.502   3.145
 9697TIP3    H229049   4.586   4.587   3.211
 9698TIP3   OH229050   7.950   7.472   2.828
 9698TIP3    H129051   7.988   7.557   2.806
 9698TIP3    H229052   7.937   7.476   2.923
 9699TIP3   OH229053   4.413   6.607   5.574
 9699TIP3    H129054   4.356   6.670   5.529
 9699TIP3    H229055   4.393   6.619   5.667
 9700TIP3   OH229056   6.024   3.717   0.350
 9700TIP3    H129057   6.081   3.749   0.280
 9700TIP3    H229058   5.950   3.677   0.303
 9701TIP3   OH229059   0.120   4.784   3.705
 9701TIP3    H129060   0.206   4.770   3.744
 9701TIP3    H229061   0.059   4.781   3.778
 9702TIP3   OH229062   8.288   3.960   2.810
 9702TIP3    H129063   8.233   3.903   2.755
 9702TIP3    H229064   8.236   4.040   2.820
 9703TIP3   OH229065   6.980   7.756   0.114
 9703TIP3    H129066   6.889   7.724   0.108
 9703TIP3    H229067   7.011   7.722   0.198
 9704TIP3   OH229068   6.717   0.292   5.155
 9704TIP3    H129069   6.784   0.320   5.093
 9704TIP3    H229070   6.641   0.272   5.102
 9705TIP3   OH229071   0.443   0.212   6.313
 9705TIP3    H129072   0.448   0.217   6.409
 9705TIP3    H229073   0.517   0.264   6.282
 9706TIP3   OH229074   1.891   7.371   1.506
 9706TIP3    H129075   1.864   7.343   1.593
 9706TIP3    H229076   1.986   7.381   1.512
 9707TIP3   OH229077   5.306   5.183   2.929
 9707TIP3    H129078   5.213   5.177   2.908
 9707TIP3    H229079   5.341   5.095   2.910
 9708TIP3   OH229080   5.019   2.026   5.014
 9708TIP3    H129081   5.114   2.021   5.019
 9708TIP3    H229082   4.988   1.944   5.053
 9709TIP3   OH229083   7.739   6.843   3.212
 9709TIP3    H129084   7.781   6.916   3.166
 9709TIP3    H229085   7.780   6.842   3.298
 9710TIP3   OH229086   2.954   5.229   5.949
 9710TIP3    H129087   3.021   5.278   5.997
 9710TIP3    H229088   2.881   5.223   6.011
 9711TIP3   OH229089   4.952   2.901   1.093
 9711TIP3    H129090   5.041   2.869   1.104
 9711TIP3    H229091   4.916   2.902   1.182
 9712TIP3   OH229092   7.061   5.883   4.138
 9712TIP3    H129093   7.050   5.852   4.228
 9712TIP3    H229094   7.065   5.803   4.085
 9713TIP3   OH229095   4.617   0.423   6.572
 9713TIP3    H129096   4.600   0.514   6.596
 9713TIP3    H229097   4.698   0.401   6.619
 9714TIP3   OH229098   5.986   1.960   0.293
 9714TIP3    H129099   5.953   2.046   0.266
 9714TIP3    H229100   5.950   1.946   0.380
 9715TIP3   OH229101   6.035   3.880   0.013
 9715TIP3    H129102   5.975   3.808  -0.007
 9715TIP3    H229103   6.002   3.917   0.095
 9716TIP3   OH229104   7.250   2.023   2.759
 9716TIP3    H129105   7.199   2.012   2.679
 9716TIP3    H229106   7.220   1.953   2.817
 9717TIP3   OH229107   2.137   4.100   6.158
 9717TIP3    H129108   2.072   4.163   6.189
 9717TIP3    H229109   2.111   4.082   6.067
 9718TIP3   OH229110   7.486   7.619   5.696
 9718TIP3    H129111   7.436   7.552   5.650
 9718TIP3    H229112   7.576   7.609   5.665
 9719TIP3   OH229113   5.154   5.125   6.138
 9719TIP3    H129114   5.081   5.167   6.182
 9719TIP3    H229115   5.211   5.095   6.209
 9720TIP3   OH229116   6.144   7.700   3.818
 9720TIP3    H129117   6.071   7.640   3.799
 9720TIP3    H229118   6.105   7.787   3.812
 9721TIP3   OH229119   5.315   5.042   1.846
 9721TIP3    H129120   5.279   5.001   1.925
 9721TIP3    H229121   5.408   5.018   1.846
 9722TIP3   OH229122   3.010   1.979   1.734
 9722TIP3    H129123   3.055   1.933   1.804
 9722TIP3    H229124   2.937   1.923   1.710
 9723TIP3   OH229125   4.540   3.427   0.714
 9723TIP3    H129126   4.472   3.367   0.684
 9723TIP3    H229127   4.502   3.470   0.791
 9724TIP3   OH229128   2.568   4.208   6.429
 9724TIP3    H129129   2.514   4.164   6.495
 9724TIP3    H229130   2.505   4.252   6.372
 9725TIP3   OH229131   4.612   7.506   3.384
 9725TIP3    H129132   4.550   7.569   3.421
 9725TIP3    H229133   4.584   7.421   3.418
 9726TIP3   OH229134   5.625   5.077   1.409
 9726TIP3    H129135   5.714   5.114   1.407
 9726TIP3    H229136   5.632   5.002   1.467
 9727TIP3   OH229137   6.778   1.068   4.820
 9727TIP3    H129138   6.820   1.117   4.750
 9727TIP3    H229139   6.794   0.976   4.798
 9728TIP3   OH229140   5.104   5.277   2.590
 9728TIP3    H129141   5.178   5.328   2.622
 9728TIP3    H229142   5.111   5.281   2.495
 9729TIP3   OH229143   6.330   4.249   3.114
 9729TIP3    H129144   6.324   4.201   3.032
 9729TIP3    H229145   6.259   4.216   3.168
 9730TIP3   OH229146   7.146   0.907   4.167
 9730TIP3    H129147   7.184   0.898   4.079
 9730TIP3    H229148   7.219   0.888   4.226
 9731TIP3   OH229149   2.094   6.364   3.106
 9731TIP3    H129150   2.101   6.296   3.173
 9731TIP3    H229151   2.183   6.373   3.072
 9732TIP3   OH229152   1.987   3.852   3.217
 9732TIP3    H129153   2.010   3.900   3.296
 9732TIP3    H229154   2.057   3.874   3.154
 9733TIP3   OH229155   7.776   3.269   2.214
 9733TIP3    H129156   7.804   3.233   2.130
 9733TIP3    H229157   7.848   3.249   2.274
 9734TIP3   OH229158   6.211   3.543   4.566
 9734TIP3    H129159   6.183   3.489   4.492
 9734TIP3    H229160   6.182   3.632   4.543
 9735TIP3   OH229161   6.978   5.833   0.149
 9735TIP3    H129162   6.968   5.750   0.103
 9735TIP3    H229163   6.937   5.819   0.234
 9736TIP3   OH229164   3.407   5.407   5.408
 9736TIP3    H129165   3.374   5.493   5.382
 9736TIP3    H229166   3.467   5.426   5.481
 9737TIP3   OH229167   2.137   1.131   5.945
 9737TIP3    H129168   2.076   1.061   5.924
 9737TIP3    H229169   2.200   1.131   5.872
 9738TIP3   OH229170   2.656   7.786   5.696
 9738TIP3    H129171   2.706   7.863   5.667
 9738TIP3    H229172   2.721   7.716   5.702
 9739TIP3   OH229173   5.726   1.578   5.031
 9739TIP3    H129174   5.724   1.627   5.113
 9739TIP3    H229175   5.792   1.509   5.046
 9740TIP3   OH229176   5.728   6.685   3.586
 9740TIP3    H129177   5.688   6.600   3.569
 9740TIP3    H229178   5.818   6.665   3.613
 9741TIP3   OH229179   4.431   4.867   3.600
 9741TIP3    H129180   4.492   4.929   3.640
 9741TIP3    H229181   4.415   4.901   3.513
 9742TIP3   OH229182   1.919   0.705   0.008
 9742TIP3    H129183   1.847   0.708   0.071
 9742TIP3    H229184   1.921   0.613  -0.021
 9743TIP3   OH229185   8.168   2.165   4.940
 9743TIP3    H129186   8.171   2.260   4.929
 9743TIP3    H229187   8.257   2.136   4.919
 9744TIP3   OH229188   6.938   3.178   5.731
 9744TIP3    H129189   6.989   3.102   5.702
 9744TIP3    H229190   6.862   3.180   5.672
 9745TIP3   OH229191   6.213   4.743   1.579
 9745TIP3    H129192   6.242   4.828   1.612
 9745TIP3    H229193   6.122   4.737   1.607
 9746TIP3   OH229194   1.800   1.131   1.916
 9746TIP3    H129195   1.882   1.110   1.872
 9746TIP3    H229196   1.731   1.102   1.856
 9747TIP3   OH229197   1.419   6.413   2.661
 9747TIP3    H129198   1.448   6.324   2.641
 9747TIP3    H229199   1.323   6.409   2.655
 9748TIP3   OH229200   5.609   3.364   3.626
 9748TIP3    H129201   5.577   3.275   3.615
 9748TIP3    H229202   5.638   3.390   3.538
 9749TIP3   OH229203   0.778   6.750   4.469
 9749TIP3    H129204   0.736   6.828   4.507
 9749TIP3    H229205   0.854   6.785   4.423
 9750TIP3   OH229206   3.749   0.968   6.072
 9750TIP3    H129207   3.718   0.996   6.158
 9750TIP3    H229208   3.761   0.873   6.081
 9751TIP3   OH229209   0.395   2.450   6.130
 9751TIP3    H129210   0.406   2.366   6.084
 9751TIP3    H229211   0.302   2.453   6.153
 9752TIP3   OH229212   3.212   3.245   3.738
 9752TIP3    H129213   3.184   3.268   3.649
 9752TIP3    H229214   3.131   3.242   3.789
 9753TIP3   OH229215   6.492   5.005   0.212
 9753TIP3    H129216   6.416   5.059   0.235
 9753TIP3    H229217   6.486   4.993   0.118
 9754TIP3   OH229218   6.207   7.177   2.747
 9754TIP3    H129219   6.202   7.221   2.662
 9754TIP3    H229220   6.169   7.240   2.808
 9755TIP3   OH229221   5.301   4.547   2.934
 9755TIP3    H129222   5.281   4.641   2.938
 9755TIP3    H229223   5.239   4.507   2.995
 9756TIP3   OH229224   6.295   1.413   4.176
 9756TIP3    H129225   6.388   1.394   4.168
 9756TIP3    H229226   6.253   1.327   4.178
 9757TIP3   OH229227   5.222   6.649   6.753
 9757TIP3    H129228   5.274   6.697   6.689
 9757TIP3    H229229   5.142   6.701   6.763
 9758TIP3   OH229230   3.542   7.440   1.299
 9758TIP3    H129231   3.533   7.360   1.351
 9758TIP3    H229232   3.532   7.511   1.362
 9759TIP3   OH229233   2.730   3.184   4.169
 9759TIP3    H129234   2.717   3.245   4.242
 9759TIP3    H229235   2.821   3.196   4.144
 9760TIP3   OH229236   5.132   5.530   0.824
 9760TIP3    H129237   5.186   5.509   0.747
 9760TIP3    H229238   5.049   5.486   0.808
 9761TIP3   OH229239   7.084   2.394   4.121
 9761TIP3    H129240   7.129   2.479   4.121
 9761TIP3    H229241   7.006   2.409   4.068
 9762TIP3   OH229242   2.349   0.152   3.282
 9762TIP3    H129243   2.356   0.077   3.340
 9762TIP3    H229244   2.435   0.159   3.241
 9763TIP3   OH229245   6.432   4.760   1.335
 9763TIP3    H129246   6.432   4.830   1.400
 9763TIP3    H229247   6.397   4.801   1.256
 9764TIP3   OH229248   5.495   2.863   6.543
 9764TIP3    H129249   5.576   2.813   6.547
 9764TIP3    H229250   5.476   2.885   6.634
 9765TIP3   OH229251   5.003   1.497   1.338
 9765TIP3    H129252   5.081   1.469   1.387
 9765TIP3    H229253   4.991   1.429   1.272
 9766TIP3   OH229254   4.520   0.692   3.690
 9766TIP3    H129255   4.586   0.672   3.623
 9766TIP3    H229256   4.519   0.788   3.693
 9767TIP3   OH229257   0.699   5.922   3.653
 9767TIP3    H129258   0.680   5.886   3.740
 9767TIP3    H229259   0.623   5.976   3.633
 9768TIP3   OH229260   4.856   3.048   5.859
 9768TIP3    H129261   4.875   3.100   5.938
 9768TIP3    H229262   4.883   3.103   5.786
 9769TIP3   OH229263   6.208   3.724   5.232
 9769TIP3    H129264   6.148   3.661   5.271
 9769TIP3    H229265   6.276   3.671   5.191
 9770TIP3   OH229266   7.956   5.227   1.307
 9770TIP3    H129267   7.902   5.207   1.384
 9770TIP3    H229268   7.934   5.158   1.244
 9771TIP3   OH229269   4.140   0.281   3.808
 9771TIP3    H129270   4.179   0.338   3.874
 9771TIP3    H229271   4.152   0.192   3.843
 9772TIP3   OH229272   2.426   5.781   3.091
 9772TIP3    H129273   2.513   5.820   3.088
 9772TIP3    H229274   2.404   5.761   3.000
 9773TIP3   OH229275   4.579   5.365   4.504
 9773TIP3    H129276   4.597   5.400   4.591
 9773TIP3    H229277   4.489   5.391   4.486
 9774TIP3   OH229278   1.268   4.209   3.755
 9774TIP3    H129279   1.346   4.167   3.792
 9774TIP3    H229280   1.263   4.293   3.801
 9775TIP3   OH229281   2.127   1.399   4.323
 9775TIP3    H129282   2.089   1.349   4.396
 9775TIP3    H229283   2.084   1.364   4.245
 9776TIP3   OH229284   3.954   6.064   4.098
 9776TIP3    H129285   3.876   6.014   4.073
 9776TIP3    H229286   4.004   6.072   4.016
 9777TIP3   OH229287   1.999   7.645   4.214
 9777TIP3    H129288   2.030   7.651   4.304
 9777TIP3    H229289   1.924   7.704   4.210
 9778TIP3   OH229290   4.058   4.806   4.218
 9778TIP3    H129291   3.966   4.797   4.194
 9778TIP3    H229292   4.097   4.855   4.145
 9779TIP3   OH229293   7.706   4.944   2.406
 9779TIP3    H129294   7.652   4.867   2.389
 9779TIP3    H229295   7.653   5.018   2.376
 9780TIP3   OH229296   7.019   2.021   0.486
 9780TIP3    H129297   6.951   2.088   0.489
 9780TIP3    H229298   7.101   2.070   0.495
 9781TIP3   OH229299   6.911   7.045   0.828
 9781TIP3    H129300   6.927   7.051   0.734
 9781TIP3    H229301   6.963   6.970   0.857
 9782TIP3   OH229302   5.954   6.026   1.108
 9782TIP3    H129303   6.031   6.012   1.164
 9782TIP3    H229304   5.879   6.010   1.165
 9783TIP3   OH229305   6.512   4.376   6.072
 9783TIP3    H129306   6.482   4.359   5.983
 9783TIP3    H229307   6.553   4.294   6.099
 9784TIP3   OH229308   6.364   6.718   1.119
 9784TIP3    H129309   6.421   6.652   1.081
 9784TIP3    H229310   6.379   6.711   1.213
 9785TIP3   OH229311   6.199   1.086   0.549
 9785TIP3    H129312   6.155   1.023   0.491
 9785TIP3    H229313   6.224   1.158   0.491
 9786TIP3   OH229314   5.641   4.406   1.240
 9786TIP3    H129315   5.727   4.365   1.237
 9786TIP3    H229316   5.653   4.481   1.298
 9787TIP3   OH229317   4.102   2.394   6.111
 9787TIP3    H129318   4.128   2.478   6.073
 9787TIP3    H229319   4.025   2.415   6.163
 9788TIP3   OH229320   4.168   4.120   6.539
 9788TIP3    H129321   4.140   4.074   6.618
 9788TIP3    H229322   4.105   4.191   6.529
 9789TIP3   OH229323   1.688   0.245   2.098
 9789TIP3    H129324   1.629   0.305   2.144
 9789TIP3    H229325   1.724   0.297   2.026
 9790TIP3   OH229326   6.231   5.645   2.477
 9790TIP3    H129327   6.270   5.733   2.473
 9790TIP3    H229328   6.233   5.623   2.570
 9791TIP3   OH229329   2.654   6.934   4.186
 9791TIP3    H129330   2.620   6.844   4.194
 9791TIP3    H229331   2.604   6.972   4.114
 9792TIP3   OH229332   1.910   6.489   2.892
 9792TIP3    H129333   1.870   6.442   2.965
 9792TIP3    H229334   1.917   6.424   2.822
 9793TIP3   OH229335   7.103   2.887   2.890
 9793TIP3    H129336   7.044   2.834   2.838
 9793TIP3    H229337   7.069   2.976   2.883
 9794TIP3   OH229338   7.873   0.469   0.949
 9794TIP3    H129339   7.794   0.516   0.924
 9794TIP3    H229340   7.889   0.409   0.876
 9795TIP3   OH229341   1.819   4.892   3.093
 9795TIP3    H129342   1.900   4.906   3.141
 9795TIP3    H229343   1.805   4.797   3.096
 9796TIP3   OH229344   3.854   0.422   6.031
 9796TIP3    H129345   3.781   0.390   6.084
 9796TIP3    H229346   3.896   0.343   5.998
 9797TIP3   OH229347   2.669   1.334   5.360
 9797TIP3    H129348   2.750   1.330   5.411
 9797TIP3    H229349   2.658   1.427   5.340
 9798TIP3   OH229350   7.788   5.551   1.200
 9798TIP3    H129351   7.700   5.588   1.204
 9798TIP3    H229352   7.844   5.624   1.173
 9799TIP3   OH229353   3.600   3.577   2.986
 9799TIP3    H129354   3.604   3.653   2.928
 9799TIP3    H229355   3.644   3.605   3.066
 9800TIP3   OH229356   0.872   0.746   5.202
 9800TIP3    H129357   0.781   0.719   5.190
 9800TIP3    H229358   0.880   0.761   5.297
 9801TIP3   OH229359   7.859   5.238   3.217
 9801TIP3    H129360   7.796   5.306   3.194
 9801TIP3    H229361   7.865   5.243   3.312
 9802TIP3   OH229362   7.904   6.540   5.718
 9802TIP3    H129363   7.970   6.554   5.786
 9802TIP3    H229364   7.942   6.581   5.639
 9803TIP3   OH229365   7.130   6.660   1.696
 9803TIP3    H129366   7.057   6.671   1.636
 9803TIP3    H229367   7.207   6.683   1.645
 9804TIP3   OH229368   6.802   0.648   0.584
 9804TIP3    H129369   6.786   0.604   0.500
 9804TIP3    H229370   6.894   0.676   0.579
 9805TIP3   OH229371   5.892   4.749   0.535
 9805TIP3    H129372   5.862   4.659   0.545
 9805TIP3    H229373   5.817   4.802   0.560
 9806TIP3   OH229374   4.320   3.179   3.321
 9806TIP3    H129375   4.355   3.121   3.388
 9806TIP3    H229376   4.283   3.120   3.255
 9807TIP3   OH229377   2.144   2.143   4.305
 9807TIP3    H129378   2.081   2.093   4.357
 9807TIP3    H229379   2.092   2.213   4.264
 9808TIP3   OH229380   0.227   0.555   6.370
 9808TIP3    H129381   0.236   0.475   6.422
 9808TIP3    H229382   0.236   0.625   6.434
 9809TIP3   OH229383   1.604   6.145   2.143
 9809TIP3    H129384   1.548   6.075   2.178
 9809TIP3    H229385   1.638   6.109   2.061
 9810TIP3   OH229386   7.806   4.757   6.204
 9810TIP3    H129387   7.862   4.679   6.207
 9810TIP3    H229388   7.828   4.805   6.283
 9811TIP3   OH229389   5.581   1.755   5.678
 9811TIP3    H129390   5.646   1.785   5.615
 9811TIP3    H229391   5.618   1.675   5.715
 9812TIP3   OH229392   7.596   5.162   1.197
 9812TIP3    H129393   7.595   5.148   1.102
 9812TIP3    H229394   7.550   5.087   1.233
 9813TIP3   OH229395   7.194   1.652   4.626
 9813TIP3    H129396   7.118   1.612   4.669
 9813TIP3    H229397   7.269   1.607   4.664
 9814TIP3   OH229398   0.666   1.498   0.688
 9814TIP3    H129399   0.682   1.587   0.659
 9814TIP3    H229400   0.752   1.464   0.712
 9815TIP3   OH229401   3.018   5.207   2.684
 9815TIP3    H129402   3.053   5.296   2.689
 9815TIP3    H229403   2.997   5.184   2.774
 9816TIP3   OH229404   1.366   7.511   0.105
 9816TIP3    H129405   1.302   7.536   0.172
 9816TIP3    H229406   1.396   7.424   0.132
 9817TIP3   OH229407   6.812   0.174   1.080
 9817TIP3    H129408   6.751   0.115   1.036
 9817TIP3    H229409   6.883   0.118   1.110
 9818TIP3   OH229410   2.970   7.773   4.089
 9818TIP3    H129411   2.982   7.867   4.078
 9818TIP3    H229412   2.944   7.763   4.181
 9819TIP3   OH229413   4.354   3.605   5.265
 9819TIP3    H129414   4.399   3.521   5.277
 9819TIP3    H229415   4.264   3.582   5.242
 9820TIP3   OH229416   6.300   2.626   6.363
 9820TIP3    H129417   6.379   2.598   6.317
 9820TIP3    H229418   6.299   2.721   6.355
 9821TIP3   OH229419   5.732   6.937   6.722
 9821TIP3    H129420   5.720   6.981   6.638
 9821TIP3    H229421   5.815   6.972   6.755
 9822TIP3   OH229422   0.476   3.420   5.133
 9822TIP3    H129423   0.449   3.347   5.189
 9822TIP3    H229424   0.410   3.487   5.147
 9823TIP3   OH229425   7.959   0.731   4.542
 9823TIP3    H129426   7.939   0.727   4.636
 9823TIP3    H229427   7.937   0.644   4.509
 9824TIP3   OH229428   5.176   3.740   5.380
 9824TIP3    H129429   5.096   3.788   5.360
 9824TIP3    H229430   5.146   3.658   5.420
 9825TIP3   OH229431   1.646   7.655   4.940
 9825TIP3    H129432   1.576   7.716   4.964
 9825TIP3    H229433   1.685   7.629   5.023
 9826TIP3   OH229434   0.877   2.539   3.057
 9826TIP3    H129435   0.843   2.482   3.126
 9826TIP3    H229436   0.923   2.609   3.104
 9827TIP3   OH229437   3.123   3.767   6.095
 9827TIP3    H129438   3.119   3.672   6.104
 9827TIP3    H229439   3.044   3.791   6.047
 9828TIP3   OH229440   3.933   0.407   5.390
 9828TIP3    H129441   3.953   0.495   5.357
 9828TIP3    H229442   3.857   0.421   5.447
 9829TIP3   OH229443   2.334   5.740   0.842
 9829TIP3    H129444   2.250   5.700   0.818
 9829TIP3    H229445   2.311   5.830   0.867
 9830TIP3   OH229446   1.960   0.268   2.832
 9830TIP3    H129447   1.948   0.178   2.864
 9830TIP3    H229448   2.026   0.305   2.890
 9831TIP3   OH229449   3.535   5.408   6.293
 9831TIP3    H129450   3.491   5.438   6.213
 9831TIP3    H229451   3.509   5.470   6.360
 9832TIP3   OH229452   0.508   7.275   2.606
 9832TIP3    H129453   0.518   7.244   2.516
 9832TIP3    H229454   0.429   7.330   2.604
 9833TIP3   OH229455   7.067   4.200   6.072
 9833TIP3    H129456   7.011   4.250   6.012
 9833TIP3    H229457   7.023   4.208   6.157
 9834TIP3   OH229458   6.379   5.126   3.036
 9834TIP3    H129459   6.300   5.140   3.089
 9834TIP3    H229460   6.381   5.031   3.022
 9835TIP3   OH229461   3.856   6.057   5.931
 9835TIP3    H129462   3.927   6.121   5.935
 9835TIP3    H229463   3.782   6.105   5.894
 9836TIP3   OH229464   3.329   4.652   0.646
 9836TIP3    H129465   3.261   4.650   0.713
 9836TIP3    H229466   3.397   4.709   0.682
 9837TIP3   OH229467   6.854   3.662   6.086
 9837TIP3    H129468   6.883   3.639   6.174
 9837TIP3    H229469   6.796   3.737   6.098
 9838TIP3   OH229470   5.060   1.713   2.767
 9838TIP3    H129471   5.145   1.732   2.807
 9838TIP3    H229472   5.038   1.626   2.800
 9839TIP3   OH229473   6.637   6.722   5.642
 9839TIP3    H129474   6.634   6.642   5.694
 9839TIP3    H229475   6.649   6.792   5.706
 9840TIP3   OH229476   5.647   1.083   3.896
 9840TIP3    H129477   5.582   1.150   3.917
 9840TIP3    H229478   5.710   1.087   3.968
 9841TIP3   OH229479   1.975   5.465   3.225
 9841TIP3    H129480   1.925   5.439   3.148
 9841TIP3    H229481   2.065   5.438   3.205
 9842TIP3   OH229482   5.642   6.824   0.981
 9842TIP3    H129483   5.688   6.806   0.899
 9842TIP3    H229484   5.550   6.834   0.955
 9843TIP3   OH229485   1.604   2.907   1.424
 9843TIP3    H129486   1.578   2.817   1.404
 9843TIP3    H229487   1.639   2.903   1.513
 9844TIP3   OH229488   4.146   1.044   5.688
 9844TIP3    H129489   4.151   1.135   5.658
 9844TIP3    H229490   4.214   1.038   5.755
 9845TIP3   OH229491   1.303   0.273   2.164
 9845TIP3    H129492   1.366   0.344   2.160
 9845TIP3    H229493   1.304   0.235   2.076
 9846TIP3   OH229494   6.480   0.159   4.492
 9846TIP3    H129495   6.545   0.194   4.432
 9846TIP3    H229496   6.398   0.162   4.443
 9847TIP3   OH229497   1.759   4.975   6.013
 9847TIP3    H129498   1.707   4.992   5.935
 9847TIP3    H229499   1.751   5.056   6.065
 9848TIP3   OH229500   1.797   7.167   6.538
 9848TIP3    H129501   1.757   7.087   6.571
 9848TIP3    H229502   1.726   7.214   6.494
 9849TIP3   OH229503   7.199   6.565   3.262
 9849TIP3    H129504   7.253   6.490   3.284
 9849TIP3    H229505   7.259   6.640   3.265
 9850TIP3   OH229506   7.983   3.037   4.629
 9850TIP3    H129507   7.903   3.059   4.581
 9850TIP3    H229508   8.054   3.057   4.567
 9851TIP3   OH229509   0.593   3.198   3.225
 9851TIP3    H129510   0.526   3.138   3.193
 9851TIP3    H229511   0.666   3.142   3.252
 9852TIP3   OH229512   2.863   4.885   0.082
 9852TIP3    H129513   2.913   4.872   0.001
 9852TIP3    H229514   2.923   4.934   0.139
 9853TIP3   OH229515   1.856   6.843   3.694
 9853TIP3    H129516   1.781   6.872   3.746
 9853TIP3    H229517   1.889   6.766   3.740
 9854TIP3   OH229518   4.068   3.674   3.888
 9854TIP3    H129519   4.084   3.673   3.794
 9854TIP3    H229520   3.974   3.662   3.897
 9855TIP3   OH229521   1.481   2.121   5.664
 9855TIP3    H129522   1.529   2.042   5.688
 9855TIP3    H229523   1.534   2.159   5.593
 9856TIP3   OH229524   4.119   3.825   2.495
 9856TIP3    H129525   4.163   3.827   2.410
 9856TIP3    H229526   4.026   3.814   2.473
 9857TIP3   OH229527   0.718   4.838   6.473
 9857TIP3    H129528   0.722   4.933   6.471
 9857TIP3    H229529   0.730   4.815   6.565
 9858TIP3   OH229530   6.926   0.268   3.537
 9858TIP3    H129531   6.889   0.179   3.540
 9858TIP3    H229532   6.857   0.324   3.573
 9859TIP3   OH229533   0.682   6.626   0.837
 9859TIP3    H129534   0.629   6.665   0.768
 9859TIP3    H229535   0.749   6.692   0.855
 9860TIP3   OH229536   2.305   6.259   1.522
 9860TIP3    H129537   2.381   6.217   1.482
 9860TIP3    H229538   2.342   6.324   1.582
 9861TIP3   OH229539   6.508   6.450   6.289
 9861TIP3    H129540   6.567   6.524   6.277
 9861TIP3    H229541   6.446   6.480   6.356
 9862TIP3   OH229542   6.579   6.479   0.732
 9862TIP3    H129543   6.573   6.443   0.644
 9862TIP3    H229544   6.656   6.536   0.730
 9863TIP3   OH229545   0.313   5.332   0.175
 9863TIP3    H129546   0.390   5.327   0.118
 9863TIP3    H229547   0.343   5.292   0.258
 9864TIP3   OH229548   2.511   7.552   4.865
 9864TIP3    H129549   2.443   7.613   4.893
 9864TIP3    H229550   2.591   7.604   4.866
 9865TIP3   OH229551   0.319   4.628   0.594
 9865TIP3    H129552   0.270   4.700   0.553
 9865TIP3    H229553   0.338   4.660   0.682
 9866TIP3   OH229554   7.611   7.502   4.423
 9866TIP3    H129555   7.533   7.557   4.421
 9866TIP3    H229556   7.578   7.412   4.417
 9867TIP3   OH229557   0.523   0.040   5.623
 9867TIP3    H129558   0.526   0.125   5.666
 9867TIP3    H229559   0.503   0.060   5.531
 9868TIP3   OH229560   4.385   6.567   2.246
 9868TIP3    H129561   4.398   6.484   2.291
 9868TIP3    H229562   4.442   6.562   2.169
 9869TIP3   OH229563   5.616   1.999   4.322
 9869TIP3    H129564   5.686   2.059   4.347
 9869TIP3    H229565   5.652   1.912   4.341
 9870TIP3   OH229566   4.293   5.424   6.499
 9870TIP3    H129567   4.295   5.410   6.594
 9870TIP3    H229568   4.223   5.367   6.467
 9871TIP3   OH229569   2.027   1.669   2.959
 9871TIP3    H129570   1.962   1.730   2.995
 9871TIP3    H229571   2.002   1.584   2.996
 9872TIP3   OH229572   3.902   5.323   1.981
 9872TIP3    H129573   3.890   5.306   2.074
 9872TIP3    H229574   3.901   5.419   1.974
 9873TIP3   OH229575   3.412   3.989   2.564
 9873TIP3    H129576   3.429   3.900   2.596
 9873TIP3    H229577   3.470   3.999   2.489
 9874TIP3   OH229578   1.842   1.351   1.753
 9874TIP3    H129579   1.826   1.278   1.813
 9874TIP3    H229580   1.898   1.314   1.685
 9875TIP3   OH229581   2.998   3.225   4.993
 9875TIP3    H129582   3.043   3.272   5.064
 9875TIP3    H229583   3.050   3.145   4.981
 9876TIP3   OH229584   7.652   2.575   2.475
 9876TIP3    H129585   7.651   2.580   2.570
 9876TIP3    H229586   7.738   2.539   2.453
 9877TIP3   OH229587   7.471   3.191   0.792
 9877TIP3    H129588   7.401   3.135   0.826
 9877TIP3    H229589   7.465   3.270   0.846
 9878TIP3   OH229590   0.152   6.760   5.009
 9878TIP3    H129591   0.178   6.686   4.954
 9878TIP3    H229592   0.227   6.820   5.004
 9879TIP3   OH229593   2.383   1.760   0.281
 9879TIP3    H129594   2.433   1.809   0.217
 9879TIP3    H229595   2.362   1.677   0.238
 9880TIP3   OH229596   3.986   5.312   5.226
 9880TIP3    H129597   3.976   5.406   5.242
 9880TIP3    H229598   4.071   5.304   5.181
 9881TIP3   OH229599   1.402   3.681   2.341
 9881TIP3    H129600   1.491   3.690   2.307
 9881TIP3    H229601   1.383   3.765   2.382
 9882TIP3   OH229602   4.560   0.845   5.916
 9882TIP3    H129603   4.612   0.851   5.996
 9882TIP3    H229604   4.624   0.842   5.846
 9883TIP3   OH229605   7.273   1.521   1.748
 9883TIP3    H129606   7.266   1.426   1.741
 9883TIP3    H229607   7.286   1.551   1.658
 9884TIP3   OH229608   5.044   1.565   0.712
 9884TIP3    H129609   5.137   1.560   0.733
 9884TIP3    H229610   5.031   1.500   0.643
 9885TIP3   OH229611   1.526   3.100   5.965
 9885TIP3    H129612   1.613   3.074   5.995
 9885TIP3    H229613   1.487   3.019   5.933
 9886TIP3   OH229614   1.081   3.902   4.545
 9886TIP3    H129615   1.149   3.892   4.612
 9886TIP3    H229616   0.999   3.883   4.591
 9887TIP3   OH229617   0.201   7.595   3.033
 9887TIP3    H129618   0.153   7.512   3.027
 9887TIP3    H229619   0.293   7.571   3.021
 9888TIP3   OH229620   1.360   1.355   3.930
 9888TIP3    H129621   1.391   1.365   4.020
 9888TIP3    H229622   1.271   1.320   3.940
 9889TIP3   OH229623   7.736   0.844   4.990
 9889TIP3    H129624   7.707   0.766   5.036
 9889TIP3    H229625   7.769   0.902   5.059
 9890TIP3   OH229626   2.346   1.057   5.328
 9890TIP3    H129627   2.253   1.066   5.309
 9890TIP3    H229628   2.349   1.015   5.414
 9891TIP3   OH229629   3.844   6.670   2.560
 9891TIP3    H129630   3.903   6.634   2.494
 9891TIP3    H229631   3.892   6.663   2.642
 9892TIP3   OH229632   5.326   0.356   5.049
 9892TIP3    H129633   5.301   0.264   5.039
 9892TIP3    H229634   5.403   0.366   4.993
 9893TIP3   OH229635   1.658   0.891   6.011
 9893TIP3    H129636   1.680   0.849   5.927
 9893TIP3    H229637   1.645   0.818   6.071
 9894TIP3   OH229638   5.899   3.596   4.289
 9894TIP3    H129639   5.825   3.656   4.278
 9894TIP3    H229640   5.945   3.598   4.205
 9895TIP3   OH229641   0.144   6.290   1.129
 9895TIP3    H129642   0.174   6.276   1.040
 9895TIP3    H229643   0.078   6.359   1.122
 9896TIP3   OH229644   3.616  -0.001   5.909
 9896TIP3    H129645   3.554   0.070   5.892
 9896TIP3    H229646   3.698   0.029   5.870
 9897TIP3   OH229647   3.924   4.987   3.532
 9897TIP3    H129648   3.944   4.986   3.439
 9897TIP3    H229649   3.847   5.044   3.539
 9898TIP3   OH229650   2.237   5.525   6.351
 9898TIP3    H129651   2.302   5.481   6.296
 9898TIP3    H229652   2.166   5.463   6.360
 9899TIP3   OH229653   1.393   2.687   3.727
 9899TIP3    H129654   1.421   2.647   3.645
 9899TIP3    H229655   1.366   2.776   3.704
 9900TIP3   OH229656   1.279   5.916   4.245
 9900TIP3    H129657   1.298   5.955   4.331
 9900TIP3    H229658   1.184   5.899   4.247
 9901TIP3   OH229659   3.676   4.931   3.837
 9901TIP3    H129660   3.714   5.000   3.891
 9901TIP3    H229661   3.737   4.858   3.844
 9902TIP3   OH229662   0.196   6.162   5.658
 9902TIP3    H129663   0.278   6.209   5.670
 9902TIP3    H229664   0.188   6.152   5.564
 9903TIP3   OH229665   0.683   2.231   3.826
 9903TIP3    H129666   0.720   2.143   3.815
 9903TIP3    H229667   0.668   2.239   3.920
 9904TIP3   OH229668   1.233   5.903   5.208
 9904TIP3    H129669   1.163   5.906   5.143
 9904TIP3    H229670   1.193   5.861   5.284
 9905TIP3   OH229671   1.279   2.926   0.048
 9905TIP3    H129672   1.292   3.011   0.089
 9905TIP3    H229673   1.192   2.898   0.077
 9906TIP3   OH229674   3.650   4.287   4.228
 9906TIP3    H129675   3.556   4.274   4.240
 9906TIP3    H229676   3.656   4.346   4.152
 9907TIP3   OH229677   3.983   1.019   3.321
 9907TIP3    H129678   4.002   1.082   3.251
 9907TIP3    H229679   3.910   0.967   3.287
 9908TIP3   OH229680   5.051   7.566   2.385
 9908TIP3    H129681   5.066   7.473   2.400
 9908TIP3    H229682   4.970   7.570   2.335
 9909TIP3   OH229683   1.716   6.385   1.499
 9909TIP3    H129684   1.685   6.390   1.409
 9909TIP3    H229685   1.705   6.293   1.524
 9910TIP3   OH229686   6.476   3.867   1.910
 9910TIP3    H129687   6.430   3.886   1.828
 9910TIP3    H229688   6.567   3.891   1.891
 9911TIP3   OH229689   2.866   0.617   2.713
 9911TIP3    H129690   2.938   0.564   2.747
 9911TIP3    H229691   2.835   0.668   2.788
 9912TIP3   OH229692   3.081   0.027   2.070
 9912TIP3    H129693   3.009   0.037   2.133
 9912TIP3    H229694   3.142   0.097   2.093
 9913TIP3   OH229695   3.109   3.499   6.088
 9913TIP3    H129696   3.028   3.500   6.139
 9913TIP3    H229697   3.094   3.431   6.022
 9914TIP3   OH229698   2.610   2.742   3.958
 9914TIP3    H129699   2.620   2.775   4.048
 9914TIP3    H229700   2.699   2.743   3.923
 9915TIP3   OH229701   3.837   7.560   4.763
 9915TIP3    H129702   3.800   7.618   4.830
 9915TIP3    H229703   3.840   7.615   4.684
 9916TIP3   OH229704   0.369   4.647   5.499
 9916TIP3    H129705   0.286   4.676   5.462
 9916TIP3    H229706   0.380   4.698   5.579
 9917TIP3   OH229707   0.201   5.402   1.113
 9917TIP3    H129708   0.217   5.410   1.019
 9917TIP3    H229709   0.139   5.330   1.120
 9918TIP3   OH229710   8.277   1.674   1.593
 9918TIP3    H129711   8.296   1.662   1.686
 9918TIP3    H229712   8.247   1.588   1.563
 9919TIP3   OH229713   1.638   5.390   0.546
 9919TIP3    H129714   1.684   5.392   0.630
 9919TIP3    H229715   1.704   5.412   0.481
 9920TIP3   OH229716   3.561   4.913   3.441
 9920TIP3    H129717   3.595   4.835   3.486
 9920TIP3    H229718   3.534   4.972   3.511
 9921TIP3   OH229719   7.153   6.853   2.669
 9921TIP3    H129720   7.158   6.800   2.589
 9921TIP3    H229721   7.207   6.806   2.732
 9922TIP3   OH229722   7.137   7.162   2.073
 9922TIP3    H129723   7.134   7.069   2.095
 9922TIP3    H229724   7.209   7.169   2.011
 9923TIP3   OH229725   1.942   4.398   1.359
 9923TIP3    H129726   2.012   4.447   1.316
 9923TIP3    H229727   1.906   4.342   1.290
 9924TIP3   OH229728   3.859   3.737   4.978
 9924TIP3    H129729   3.814   3.716   5.059
 9924TIP3    H229730   3.796   3.718   4.909
 9925TIP3   OH229731   3.344   0.188   6.685
 9925TIP3    H129732   3.440   0.192   6.684
 9925TIP3    H229733   3.324   0.108   6.733
 9926TIP3   OH229734   1.012   4.149   3.652
 9926TIP3    H129735   0.968   4.233   3.667
 9926TIP3    H229736   1.100   4.162   3.686
 9927TIP3   OH229737   1.726   4.882   6.764
 9927TIP3    H129738   1.699   4.966   6.727
 9927TIP3    H229739   1.799   4.904   6.822
 9928TIP3   OH229740   4.038   5.997   0.413
 9928TIP3    H129741   3.961   5.960   0.370
 9928TIP3    H229742   4.112   5.971   0.358
 9929TIP3   OH229743   2.407   4.307   0.104
 9929TIP3    H129744   2.493   4.347   0.112
 9929TIP3    H229745   2.377   4.295   0.195
 9930TIP3   OH229746   4.770   3.824   0.848
 9930TIP3    H129747   4.831   3.752   0.835
 9930TIP3    H229748   4.710   3.793   0.916
 9931TIP3   OH229749   3.838   0.899   5.238
 9931TIP3    H129750   3.789   0.825   5.201
 9931TIP3    H229751   3.856   0.956   5.163
 9932TIP3   OH229752   2.428   0.275   2.326
 9932TIP3    H129753   2.473   0.285   2.243
 9932TIP3    H229754   2.404   0.365   2.351
 9933TIP3   OH229755   0.492   0.020   3.509
 9933TIP3    H129756   0.486   0.105   3.465
 9933TIP3    H229757   0.420   0.021   3.572
 9934TIP3   OH229758   0.231   7.371   2.359
 9934TIP3    H129759   0.180   7.323   2.424
 9934TIP3    H229760   0.181   7.363   2.278
 9935TIP3   OH229761   0.873   5.293   3.484
 9935TIP3    H129762   0.946   5.233   3.500
 9935TIP3    H229763   0.821   5.290   3.565
 9936TIP3   OH229764   4.914   2.608   0.383
 9936TIP3    H129765   4.908   2.684   0.326
 9936TIP3    H229766   4.881   2.535   0.330
 9937TIP3   OH229767   2.495   4.500   5.115
 9937TIP3    H129768   2.514   4.495   5.021
 9937TIP3    H229769   2.547   4.430   5.154
 9938TIP3   OH229770   0.111   2.940   3.165
 9938TIP3    H129771   0.138   2.904   3.249
 9938TIP3    H229772   0.056   2.872   3.126
 9939TIP3   OH229773   4.842   0.943   2.071
 9939TIP3    H129774   4.771   0.950   2.135
 9939TIP3    H229775   4.813   0.997   1.998
 9940TIP3   OH229776   1.566   7.746   2.715
 9940TIP3    H129777   1.628   7.728   2.645
 9940TIP3    H229778   1.529   7.660   2.737
 9941TIP3   OH229779   3.075   1.490   3.170
 9941TIP3    H129780   2.991   1.519   3.134
 9941TIP3    H229781   3.063   1.495   3.265
 9942TIP3   OH229782   4.067   2.388   3.978
 9942TIP3    H129783   4.005   2.344   4.036
 9942TIP3    H229784   4.107   2.457   4.032
 9943TIP3   OH229785   6.262   1.973   4.756
 9943TIP3    H129786   6.255   1.915   4.680
 9943TIP3    H229787   6.171   1.998   4.775
 9944TIP3   OH229788   5.881   0.388   5.216
 9944TIP3    H129789   5.861   0.482   5.220
 9944TIP3    H229790   5.969   0.381   5.253
 9945TIP3   OH229791   2.312   1.047   3.484
 9945TIP3    H129792   2.397   1.006   3.500
 9945TIP3    H229793   2.258   0.978   3.447
 9946TIP3   OH229794   2.780   1.491   2.327
 9946TIP3    H129795   2.858   1.540   2.355
 9946TIP3    H229796   2.724   1.490   2.404
 9947TIP3   OH229797   4.648   0.916   1.704
 9947TIP3    H129798   4.637   0.862   1.783
 9947TIP3    H229799   4.658   1.005   1.737
 9948TIP3   OH229800   6.722   6.613   1.603
 9948TIP3    H129801   6.712   6.541   1.541
 9948TIP3    H229802   6.790   6.668   1.565
 9949TIP3   OH229803   7.154   4.108   4.089
 9949TIP3    H129804   7.180   4.029   4.137
 9949TIP3    H229805   7.234   4.134   4.042
 9950TIP3   OH229806   8.111   1.771   3.532
 9950TIP3    H129807   8.128   1.777   3.626
 9950TIP3    H229808   8.077   1.857   3.508
 9951TIP3   OH229809   8.293   4.888   0.916
 9951TIP3    H129810   8.322   4.976   0.894
 9951TIP3    H229811   8.224   4.900   0.981
 9952TIP3   OH229812   2.379   0.925   5.567
 9952TIP3    H129813   2.450   0.935   5.631
 9952TIP3    H229814   2.374   0.830   5.552
 9953TIP3   OH229815   2.192   4.121   1.250
 9953TIP3    H129816   2.264   4.120   1.187
 9953TIP3    H229817   2.216   4.187   1.314
 9954TIP3   OH229818   7.459   6.428   6.295
 9954TIP3    H129819   7.539   6.417   6.346
 9954TIP3    H229820   7.388   6.404   6.355
 9955TIP3   OH229821   1.278   7.029   6.298
 9955TIP3    H129822   1.299   7.116   6.332
 9955TIP3    H229823   1.233   7.046   6.215
 9956TIP3   OH229824   2.904   4.753   3.819
 9956TIP3    H129825   2.903   4.822   3.753
 9956TIP3    H229826   2.903   4.672   3.767
 9957TIP3   OH229827   6.655   2.860   0.501
 9957TIP3    H129828   6.639   2.892   0.590
 9957TIP3    H229829   6.735   2.807   0.509
 9958TIP3   OH229830   4.515   3.762   4.240
 9958TIP3    H129831   4.435   3.796   4.278
 9958TIP3    H229832   4.500   3.764   4.145
 9959TIP3   OH229833   1.445   2.313   6.202
 9959TIP3    H129834   1.374   2.310   6.138
 9959TIP3    H229835   1.405   2.352   6.280
 9960TIP3   OH229836   7.198   2.948   5.081
 9960TIP3    H129837   7.226   2.862   5.113
 9960TIP3    H229838   7.217   2.947   4.987
 9961TIP3   OH229839   2.499   0.763   4.765
 9961TIP3    H129840   2.523   0.837   4.821
 9961TIP3    H229841   2.515   0.686   4.820
 9962TIP3   OH229842   0.797   1.241   0.455
 9962TIP3    H129843   0.783   1.248   0.549
 9962TIP3    H229844   0.885   1.277   0.441
 9963TIP3   OH229845   4.940   6.981   4.164
 9963TIP3    H129846   4.941   7.066   4.121
 9963TIP3    H229847   5.013   6.984   4.226
 9964TIP3   OH229848   5.883   4.218   0.151
 9964TIP3    H129849   5.960   4.256   0.194
 9964TIP3    H229850   5.808   4.263   0.192
 9965TIP3   OH229851   5.320   7.538   5.745
 9965TIP3    H129852   5.409   7.555   5.776
 9965TIP3    H229853   5.305   7.446   5.764
 9966TIP3   OH229854   7.444   4.941   1.305
 9966TIP3    H129855   7.445   4.879   1.231
 9966TIP3    H229856   7.436   4.886   1.382
 9967TIP3   OH229857   4.793   6.516   5.901
 9967TIP3    H129858   4.832   6.434   5.871
 9967TIP3    H229859   4.867   6.575   5.912
 9968TIP3   OH229860   2.643   1.351   3.415
 9968TIP3    H129861   2.729   1.318   3.389
 9968TIP3    H229862   2.651   1.446   3.405
 9969TIP3   OH229863   2.705   2.013   1.521
 9969TIP3    H129864   2.641   1.956   1.478
 9969TIP3    H229865   2.740   1.959   1.593
 9970TIP3   OH229866   3.626   4.946   6.328
 9970TIP3    H129867   3.594   4.886   6.396
 9970TIP3    H229868   3.698   4.993   6.369
 9971TIP3   OH229869   7.252   5.587   3.656
 9971TIP3    H129870   7.338   5.557   3.628
 9971TIP3    H229871   7.191   5.544   3.596
 9972TIP3   OH229872   3.263   0.159   4.824
 9972TIP3    H129873   3.191   0.097   4.839
 9972TIP3    H229874   3.341   0.105   4.823
 9973TIP3   OH229875   1.789   6.708   0.058
 9973TIP3    H129876   1.761   6.758  -0.017
 9973TIP3    H229877   1.879   6.735   0.073
 9974TIP3   OH229878   6.802   2.612   4.554
 9974TIP3    H129879   6.801   2.517   4.552
 9974TIP3    H229880   6.837   2.638   4.469
 9975TIP3   OH229881   4.952   3.048   1.472
 9975TIP3    H129882   4.880   2.989   1.447
 9975TIP3    H229883   4.934   3.128   1.423
 9976TIP3   OH229884   6.082   4.341   0.912
 9976TIP3    H129885   6.057   4.278   0.845
 9976TIP3    H229886   6.091   4.424   0.865
 9977TIP3   OH229887   8.016   5.645   5.823
 9977TIP3    H129888   8.075   5.617   5.752
 9977TIP3    H229889   8.073   5.649   5.900
 9978TIP3   OH229890   2.260   7.251   5.951
 9978TIP3    H129891   2.170   7.255   5.920
 9978TIP3    H229892   2.257   7.291   6.039
 9979TIP3   OH229893   1.790   3.935   4.383
 9979TIP3    H129894   1.838   3.941   4.301
 9979TIP3    H229895   1.815   4.014   4.431
 9980TIP3   OH229896   7.667   0.065   1.455
 9980TIP3    H129897   7.674   0.147   1.406
 9980TIP3    H229898   7.695   0.088   1.544
 9981TIP3   OH229899   0.993   7.796   3.604
 9981TIP3    H129900   0.956   7.798   3.516
 9981TIP3    H229901   0.957   7.873   3.647
 9982TIP3   OH229902   0.777   0.945   3.565
 9982TIP3    H129903   0.787   0.886   3.640
 9982TIP3    H229904   0.773   0.887   3.489
 9983TIP3   OH229905   2.738   3.225   5.227
 9983TIP3    H129906   2.685   3.276   5.289
 9983TIP3    H229907   2.768   3.150   5.278
 9984TIP3   OH229908   6.189   5.826   5.102
 9984TIP3    H129909   6.242   5.877   5.164
 9984TIP3    H229910   6.154   5.754   5.154
 9985TIP3   OH229911   1.597   4.754   2.878
 9985TIP3    H129912   1.549   4.675   2.902
 9985TIP3    H229913   1.577   4.817   2.947
 9986TIP3   OH229914   6.047   6.395   4.185
 9986TIP3    H129915   5.964   6.349   4.181
 9986TIP3    H229916   6.041   6.451   4.263
 9987TIP3   OH229917   1.467   6.589   6.707
 9987TIP3    H129918   1.455   6.560   6.617
 9987TIP3    H229919   1.382   6.625   6.733
 9988TIP3   OH229920   2.193   1.257   1.549
 9988TIP3    H129921   2.231   1.321   1.609
 9988TIP3    H229922   2.261   1.243   1.483
 9989TIP3   OH229923   3.312   6.274   5.867
 9989TIP3    H129924   3.373   6.344   5.847
 9989TIP3    H229925   3.274   6.250   5.783
 9990TIP3   OH229926   1.136   4.584   2.160
 9990TIP3    H129927   1.108   4.524   2.229
 9990TIP3    H229928   1.208   4.539   2.116
 9991TIP3   OH229929   3.270   0.398   3.919
 9991TIP3    H129930   3.244   0.479   3.963
 9991TIP3    H229931   3.212   0.331   3.955
 9992TIP3   OH229932   2.864   3.802   0.220
 9992TIP3    H129933   2.825   3.715   0.228
 9992TIP3    H229934   2.878   3.830   0.311
 9993TIP3   OH229935   8.189   2.828   5.939
 9993TIP3    H129936   8.259   2.888   5.914
 9993TIP3    H229937   8.186   2.832   6.034
 9994TIP3   OH229938   7.457   0.723   0.715
 9994TIP3    H129939   7.428   0.661   0.648
 9994TIP3    H229940   7.383   0.731   0.774
 9995TIP3   OH229941   7.710   1.171   1.587
 9995TIP3    H129942   7.628   1.200   1.627
 9995TIP3    H229943   7.686   1.092   1.538
 9996TIP3   OH229944   6.945   1.717   6.008
 9996TIP3    H129945   6.989   1.651   5.955
 9996TIP3    H229946   6.997   1.796   5.996
 9997TIP3   OH229947   5.042   7.155   3.654
 9997TIP3    H129948   4.952   7.185   3.667
 9997TIP3    H229949   5.071   7.127   3.740
 9998TIP3   OH229950   3.288   7.431   3.184
 9998TIP3    H129951   3.305   7.422   3.090
 9998TIP3    H229952   3.305   7.344   3.220
 9999TIP3   OH229953   5.204   3.897   4.776
 9999TIP3    H129954   5.124   3.925   4.821
 9999TIP3    H229955   5.175   3.873   4.688
10000TIP3   OH229956   3.761   2.300   1.632
10000TIP3    H129957   3.707   2.261   1.563
10000TIP3    H229958   3.844   2.322   1.588
10001TIP3   OH229959   1.233   6.898   2.901
10001TIP3    H129960   1.228   6.809   2.866
10001TIP3    H229961   1.263   6.886   2.991
10002TIP3   OH229962   3.746   4.085   5.847
10002TIP3    H129963   3.830   4.038   5.840
10002TIP3    H229964   3.697   4.057   5.770
10003TIP3   OH229965   1.460   5.080   0.324
10003TIP3    H129966   1.458   4.995   0.281
10003TIP3    H229967   1.430   5.062   0.414
10004TIP3   OH229968   4.413   3.047   3.890
10004TIP3    H129969   4.329   3.055   3.843
10004TIP3    H229970   4.476   3.023   3.822
10005TIP3   OH229971   5.247   3.633   4.217
10005TIP3    H129972   5.303   3.664   4.288
10005TIP3    H229973   5.160   3.623   4.258
10006TIP3   OH229974   4.334   1.573   1.574
10006TIP3    H129975   4.357   1.494   1.623
10006TIP3    H229976   4.279   1.541   1.502
10007TIP3   OH229977   5.700   5.280   0.094
10007TIP3    H129978   5.775   5.256   0.148
10007TIP3    H229979   5.715   5.373   0.073
10008TIP3   OH229980   0.471   4.978   0.817
10008TIP3    H129981   0.468   4.964   0.912
10008TIP3    H229982   0.386   5.014   0.795
10009TIP3   OH229983   4.380   0.658   1.430
10009TIP3    H129984   4.472   0.686   1.428
10009TIP3    H229985   4.359   0.638   1.338
10010TIP3   OH229986   0.928   0.245   3.126
10010TIP3    H129987   0.940   0.150   3.132
10010TIP3    H229988   0.883   0.258   3.043
10011TIP3   OH229989   1.165   7.122   6.069
10011TIP3    H129990   1.137   7.120   5.977
10011TIP3    H229991   1.120   7.199   6.105
10012TIP3   OH229992   4.602   4.081   5.259
10012TIP3    H129993   4.621   4.175   5.259
10012TIP3    H229994   4.509   4.075   5.237
10013TIP3   OH229995   0.781   7.694   3.920
10013TIP3    H129996   0.850   7.707   3.984
10013TIP3    H229997   0.746   7.782   3.903
10014TIP3   OH229998   6.621   1.927   5.603
10014TIP3    H129999   6.691   1.876   5.643
10014TIP3    H230000   6.558   1.942   5.673
10015TIP3   OH230001   7.836   6.295   5.102
10015TIP3    H130002   7.788   6.222   5.062
10015TIP3    H230003   7.829   6.280   5.196
10016TIP3   OH230004   5.667   0.012   6.194
10016TIP3    H130005   5.610  -0.006   6.269
10016TIP3    H230006   5.619  -0.023   6.119
10017TIP3   OH230007   2.186   4.456   5.107
10017TIP3    H130008   2.167   4.396   5.036
10017TIP3    H230009   2.281   4.460   5.112
10018TIP3   OH230010   2.021   3.598   2.194
10018TIP3    H130011   1.971   3.631   2.120
10018TIP3    H230012   2.050   3.677   2.240
10019TIP3   OH230013   1.529   3.673   4.931
10019TIP3    H130014   1.553   3.721   5.010
10019TIP3    H230015   1.606   3.680   4.874
10020TIP3   OH230016   7.098   7.364   0.080
10020TIP3    H130017   7.119   7.316   0.160
10020TIP3    H230018   7.162   7.435   0.077
10021TIP3   OH230019   8.071   7.126   6.379
10021TIP3    H130020   8.086   7.079   6.297
10021TIP3    H230021   8.107   7.213   6.364
10022TIP3   OH230022   5.948   3.675   3.129
10022TIP3    H130023   6.017   3.609   3.136
10022TIP3    H230024   5.974   3.730   3.055
10023TIP3   OH230025   2.399   0.982   2.686
10023TIP3    H130026   2.307   0.994   2.710
10023TIP3    H230027   2.396   0.928   2.607
10024TIP3   OH230028   2.898   0.529   5.903
10024TIP3    H130029   2.977   0.537   5.848
10024TIP3    H230030   2.827   0.519   5.840
10025TIP3   OH230031   7.263   7.267   2.610
10025TIP3    H130032   7.189   7.217   2.646
10025TIP3    H230033   7.334   7.254   2.673
10026TIP3   OH230034   2.737   6.307   1.700
10026TIP3    H130035   2.679   6.232   1.687
10026TIP3    H230036   2.824   6.269   1.707
10027TIP3   OH230037   4.993   3.154   3.202
10027TIP3    H130038   5.042   3.151   3.120
10027TIP3    H230039   5.055   3.125   3.268
10028TIP3   OH230040   7.305   0.825   1.784
10028TIP3    H130041   7.291   0.891   1.852
10028TIP3    H230042   7.395   0.838   1.756
10029TIP3   OH230043   6.736   7.628   0.153
10029TIP3    H130044   6.722   7.612   0.059
10029TIP3    H230045   6.659   7.590   0.196
10030TIP3   OH230046   1.319   3.263   6.485
10030TIP3    H130047   1.316   3.216   6.568
10030TIP3    H230048   1.411   3.261   6.459
10031TIP3   OH230049   0.819   7.379   0.647
10031TIP3    H130050   0.784   7.303   0.694
10031TIP3    H230051   0.913   7.362   0.640
10032TIP3   OH230052   6.425   2.097   6.067
10032TIP3    H130053   6.455   2.104   6.158
10032TIP3    H230054   6.353   2.160   6.061
10033TIP3   OH230055   6.342   7.629   6.402
10033TIP3    H130056   6.276   7.684   6.444
10033TIP3    H230057   6.399   7.601   6.474
10034TIP3   OH230058   1.767   4.015   6.263
10034TIP3    H130059   1.786   3.960   6.187
10034TIP3    H230060   1.698   3.968   6.310
10035TIP3   OH230061   2.366   2.384   2.796
10035TIP3    H130062   2.413   2.323   2.854
10035TIP3    H230063   2.375   2.469   2.839
10036TIP3   OH230064   4.678   0.604   4.466
10036TIP3    H130065   4.684   0.523   4.517
10036TIP3    H230066   4.594   0.642   4.493
10037TIP3   OH230067   6.797   7.105   2.282
10037TIP3    H130068   6.841   7.181   2.243
10037TIP3    H230069   6.705   7.116   2.259
10038TIP3   OH230070   4.046   3.269   5.242
10038TIP3    H130071   4.112   3.273   5.311
10038TIP3    H230072   4.093   3.234   5.166
10039TIP3   OH230073   5.119   2.519   3.976
10039TIP3    H130074   5.117   2.615   3.968
10039TIP3    H230075   5.031   2.492   3.950
10040TIP3   OH230076   6.728   4.370   3.120
10040TIP3    H130077   6.780   4.356   3.199
10040TIP3    H230078   6.683   4.287   3.106
10041TIP3   OH230079   6.413   1.616   3.146
10041TIP3    H130080   6.448   1.569   3.071
10041TIP3    H230081   6.406   1.549   3.215
10042TIP3   OH230082   7.936   0.768   2.363
10042TIP3    H130083   7.951   0.828   2.436
10042TIP3    H230084   7.898   0.690   2.403
10043TIP3   OH230085   5.350   0.502   6.253
10043TIP3    H130086   5.351   0.597   6.242
10043TIP3    H230087   5.356   0.489   6.348
10044TIP3   OH230088   7.158   1.933   5.136
10044TIP3    H130089   7.096   1.870   5.100
10044TIP3    H230090   7.130   2.017   5.100
10045TIP3   OH230091   4.544   5.829   6.072
10045TIP3    H130092   4.469   5.793   6.024
10045TIP3    H230093   4.606   5.757   6.076
10046TIP3   OH230094   6.764   7.514   2.663
10046TIP3    H130095   6.826   7.467   2.607
10046TIP3    H230096   6.682   7.465   2.653
10047TIP3   OH230097   7.557   7.619   2.856
10047TIP3    H130098   7.595   7.623   2.944
10047TIP3    H230099   7.606   7.550   2.811
10048TIP3   OH230100   4.005   0.261   4.329
10048TIP3    H130101   4.068   0.230   4.394
10048TIP3    H230102   4.046   0.338   4.290
10049TIP3   OH230103   5.901   0.760   3.350
10049TIP3    H130104   5.812   0.779   3.321
10049TIP3    H230105   5.896   0.670   3.385
10050TIP3   OH230106   3.564   3.789   2.069
10050TIP3    H130107   3.550   3.801   1.975
10050TIP3    H230108   3.601   3.701   2.077
10051TIP3   OH230109   4.305   3.295   0.641
10051TIP3    H130110   4.242   3.259   0.705
10051TIP3    H230111   4.308   3.230   0.571
10052TIP3   OH230112   2.096   7.354   2.210
10052TIP3    H130113   2.143   7.418   2.263
10052TIP3    H230114   2.034   7.313   2.271
10053TIP3   OH230115   4.528   5.789   6.430
10053TIP3    H130116   4.517   5.731   6.505
10053TIP3    H230117   4.585   5.859   6.461
10054TIP3   OH230118   4.876   5.716   4.430
10054TIP3    H130119   4.874   5.620   4.425
10054TIP3    H230120   4.840   5.745   4.346
10055TIP3   OH230121   2.454   1.403   2.322
10055TIP3    H130122   2.498   1.444   2.248
10055TIP3    H230123   2.494   1.444   2.399
10056TIP3   OH230124   3.732   3.092   6.782
10056TIP3    H130125   3.659   3.039   6.750
10056TIP3    H230126   3.786   3.107   6.705
10057TIP3   OH230127   3.011   0.878   5.163
10057TIP3    H130128   3.053   0.805   5.208
10057TIP3    H230129   3.074   0.904   5.096
10058TIP3   OH230130   1.024   3.393   4.999
10058TIP3    H130131   0.991   3.385   5.089
10058TIP3    H230132   1.116   3.416   5.009
10059TIP3   OH230133   5.563   7.008   1.582
10059TIP3    H130134   5.529   7.060   1.655
10059TIP3    H230135   5.562   6.918   1.615
10060TIP3   OH230136   5.089   4.971   0.238
10060TIP3    H130137   5.172   4.960   0.285
10060TIP3    H230138   5.062   5.061   0.259
10061TIP3   OH230139   0.784   3.835   6.020
10061TIP3    H130140   0.773   3.912   5.964
10061TIP3    H230141   0.781   3.761   5.960
10062TIP3   OH230142   8.096   4.279   2.003
10062TIP3    H130143   8.074   4.372   2.002
10062TIP3    H230144   8.159   4.270   2.074
10063TIP3   OH230145   5.507   7.110   5.575
10063TIP3    H130146   5.458   7.067   5.504
10063TIP3    H230147   5.443   7.169   5.615
10064TIP3   OH230148   6.018   6.915   5.652
10064TIP3    H130149   5.946   6.978   5.650
10064TIP3    H230150   6.068   6.932   5.573
10065TIP3   OH230151   0.431   3.637   3.042
10065TIP3    H130152   0.448   3.594   2.959
10065TIP3    H230153   0.500   3.703   3.049
10066TIP3   OH230154   7.347   4.956   4.686
10066TIP3    H130155   7.318   4.868   4.664
10066TIP3    H230156   7.266   5.008   4.686
10067TIP3   OH230157   0.876   6.225   1.232
10067TIP3    H130158   0.961   6.180   1.241
10067TIP3    H230159   0.877   6.261   1.144
10068TIP3   OH230160   1.285   1.766   4.758
10068TIP3    H130161   1.372   1.800   4.780
10068TIP3    H230162   1.238   1.843   4.725
10069TIP3   OH230163   0.738   0.465   4.704
10069TIP3    H130164   0.758   0.558   4.715
10069TIP3    H230165   0.770   0.444   4.617
10070TIP3   OH230166   5.438   0.441   0.738
10070TIP3    H130167   5.361   0.483   0.698
10070TIP3    H230168   5.507   0.508   0.733
10071TIP3   OH230169   3.868   6.286   2.066
10071TIP3    H130170   3.915   6.366   2.088
10071TIP3    H230171   3.817   6.265   2.144
10072TIP3   OH230172   0.848   5.745   2.192
10072TIP3    H130173   0.886   5.711   2.110
10072TIP3    H230174   0.852   5.840   2.183
10073TIP3   OH230175   6.334   0.368   6.141
10073TIP3    H130176   6.335   0.359   6.045
10073TIP3    H230177   6.347   0.279   6.173
10074TIP3   OH230178   2.622   1.011   4.485
10074TIP3    H130179   2.653   0.965   4.563
10074TIP3    H230180   2.536   0.973   4.468
10075TIP3   OH230181   7.837   2.627   0.921
10075TIP3    H130182   7.771   2.620   0.990
10075TIP3    H230183   7.918   2.648   0.967
10076TIP3   OH230184   5.235   1.237   5.620
10076TIP3    H130185   5.309   1.197   5.574
10076TIP3    H230186   5.223   1.322   5.577
10077TIP3   OH230187   3.691   5.778   3.695
10077TIP3    H130188   3.775   5.734   3.710
10077TIP3    H230189   3.627   5.722   3.738
10078TIP3   OH230190   0.727   4.606   3.858
10078TIP3    H130191   0.648   4.613   3.912
10078TIP3    H230192   0.769   4.525   3.888
10079TIP3   OH230193   2.274   3.617   2.850
10079TIP3    H130194   2.238   3.559   2.783
10079TIP3    H230195   2.300   3.558   2.921
10080TIP3   OH230196   3.190   5.348   6.036
10080TIP3    H130197   3.258   5.408   6.005
10080TIP3    H230198   3.228   5.309   6.115
10081TIP3   OH230199   5.963   6.777   4.548
10081TIP3    H130200   5.953   6.872   4.545
10081TIP3    H230201   5.933   6.752   4.635
10082TIP3   OH230202   2.733   0.061   5.880
10082TIP3    H130203   2.664  -0.006   5.877
10082TIP3    H230204   2.696   0.131   5.934
10083TIP3   OH230205   5.941   0.355   3.772
10083TIP3    H130206   5.953   0.315   3.859
10083TIP3    H230207   5.977   0.291   3.711
10084TIP3   OH230208   7.808   3.469   6.388
10084TIP3    H130209   7.754   3.541   6.355
10084TIP3    H230210   7.792   3.397   6.327
10085TIP3   OH230211   5.909   6.760   6.090
10085TIP3    H130212   5.890   6.667   6.089
10085TIP3    H230213   5.846   6.797   6.151
10086TIP3   OH230214   0.100   4.209   1.908
10086TIP3    H130215   0.054   4.288   1.936
10086TIP3    H230216   0.070   4.196   1.818
10087TIP3   OH230217   6.579   6.643   3.554
10087TIP3    H130218   6.600   6.568   3.610
10087TIP3    H230219   6.512   6.610   3.494
10088TIP3   OH230220   0.921   0.158   4.727
10088TIP3    H130221   0.937   0.090   4.793
10088TIP3    H230222   0.837   0.196   4.750
10089TIP3   OH230223   1.356   6.047   2.264
10089TIP3    H130224   1.352   6.102   2.342
10089TIP3    H230225   1.266   6.045   2.231
10090TIP3   OH230226   5.455   4.861   5.676
10090TIP3    H130227   5.365   4.846   5.645
10090TIP3    H230228   5.445   4.890   5.766
10091TIP3   OH230229   3.274   3.074   2.024
10091TIP3    H130230   3.193   3.113   1.991
10091TIP3    H230231   3.265   2.980   2.006
10092TIP3   OH230232   0.578   4.854   2.997
10092TIP3    H130233   0.561   4.762   3.020
10092TIP3    H230234   0.591   4.852   2.902
10093TIP3   OH230235   8.051   1.236   2.690
10093TIP3    H130236   8.133   1.232   2.741
10093TIP3    H230237   7.983   1.246   2.757
10094TIP3   OH230238   0.549   0.966   2.661
10094TIP3    H130239   0.629   0.917   2.674
10094TIP3    H230240   0.570   1.055   2.690
10095TIP3   OH230241   3.685   0.775   4.097
10095TIP3    H130242   3.601   0.796   4.137
10095TIP3    H230243   3.733   0.858   4.097
10096TIP3   OH230244   1.810   3.509   1.373
10096TIP3    H130245   1.847   3.520   1.461
10096TIP3    H230246   1.881   3.537   1.314
10097TIP3   OH230247   6.341   7.569   5.277
10097TIP3    H130248   6.365   7.490   5.228
10097TIP3    H230249   6.424   7.612   5.295
10098TIP3   OH230250   7.217   7.347   1.725
10098TIP3    H130251   7.257   7.286   1.787
10098TIP3    H230252   7.155   7.398   1.778
10099TIP3   OH230253   3.426   0.088   3.072
10099TIP3    H130254   3.340   0.048   3.086
10099TIP3    H230255   3.446   0.131   3.156
10100TIP3   OH230256   0.663   4.314   2.526
10100TIP3    H130257   0.722   4.256   2.479
10100TIP3    H230258   0.583   4.262   2.539
10101TIP3   OH230259   2.735   1.328   1.477
10101TIP3    H130260   2.771   1.381   1.548
10101TIP3    H230261   2.678   1.265   1.522
10102TIP3   OH230262   4.023   7.266   4.186
10102TIP3    H130263   4.095   7.328   4.174
10102TIP3    H230264   4.019   7.218   4.104
10103TIP3   OH230265   5.342   6.119   1.583
10103TIP3    H130266   5.285   6.049   1.615
10103TIP3    H230267   5.283   6.194   1.572
10104TIP3   OH230268   0.232   6.541   3.757
10104TIP3    H130269   0.230   6.504   3.846
10104TIP3    H230270   0.210   6.467   3.700
10105TIP3   OH230271   4.972   5.240   6.301
10105TIP3    H130272   5.001   5.330   6.316
10105TIP3    H230273   4.878   5.241   6.321
10106TIP3   OH230274   6.862   1.770   6.516
10106TIP3    H130275   6.897   1.835   6.577
10106TIP3    H230276   6.937   1.743   6.464
10107TIP3   OH230277   3.589   7.090   2.098
10107TIP3    H130278   3.523   7.022   2.094
10107TIP3    H230279   3.544   7.169   2.068
10108TIP3   OH230280   4.543   3.217   5.204
10108TIP3    H130281   4.548   3.227   5.109
10108TIP3    H230282   4.631   3.236   5.235
10109TIP3   OH230283   6.956   2.253   3.591
10109TIP3    H130284   7.035   2.213   3.626
10109TIP3    H230285   6.923   2.190   3.527
10110TIP3   OH230286   4.796   0.386   4.616
10110TIP3    H130287   4.741   0.316   4.652
10110TIP3    H230288   4.882   0.372   4.655
10111TIP3   OH230289   3.674   4.220   3.647
10111TIP3    H130290   3.757   4.230   3.693
10111TIP3    H230291   3.639   4.137   3.677
10112TIP3   OH230292   4.563   2.550   6.744
10112TIP3    H130293   4.533   2.460   6.734
10112TIP3    H230294   4.657   2.542   6.763
10113TIP3   OH230295   7.314   0.112   5.270
10113TIP3    H130296   7.383   0.082   5.329
10113TIP3    H230297   7.348   0.193   5.232
10114TIP3   OH230298   6.597   7.116   6.723
10114TIP3    H130299   6.591   7.172   6.800
10114TIP3    H230300   6.642   7.037   6.754
10115TIP3   OH230301   6.073   5.979   2.918
10115TIP3    H130302   6.162   5.958   2.888
10115TIP3    H230303   6.059   6.070   2.892
10116TIP3   OH230304   7.286   5.449   5.416
10116TIP3    H130305   7.287   5.379   5.481
10116TIP3    H230306   7.276   5.529   5.466
10117TIP3   OH230307   0.638   4.537   0.619
10117TIP3    H130308   0.614   4.626   0.641
10117TIP3    H230309   0.554   4.494   0.598
10118TIP3   OH230310   7.920   3.315   4.689
10118TIP3    H130311   7.864   3.382   4.728
10118TIP3    H230312   7.859   3.256   4.645
10119TIP3   OH230313   4.837   6.668   2.857
10119TIP3    H130314   4.749   6.682   2.822
10119TIP3    H230315   4.884   6.749   2.838
10120TIP3   OH230316   7.806   5.391   3.777
10120TIP3    H130317   7.852   5.349   3.705
10120TIP3    H230318   7.746   5.453   3.735
10121TIP3   OH230319   1.539   1.753   3.729
10121TIP3    H130320   1.619   1.754   3.677
10121TIP3    H230321   1.511   1.845   3.732
10122TIP3   OH230322   0.308   0.257   0.459
10122TIP3    H130323   0.284   0.229   0.370
10122TIP3    H230324   0.298   0.352   0.457
10123TIP3   OH230325   2.904   6.342   3.830
10123TIP3    H130326   2.986   6.297   3.809
10123TIP3    H230327   2.870   6.296   3.906
10124TIP3   OH230328   2.153   6.950   2.282
10124TIP3    H130329   2.179   7.039   2.255
10124TIP3    H230330   2.171   6.896   2.205
10125TIP3   OH230331   7.817   3.324   1.724
10125TIP3    H130332   7.876   3.379   1.673
10125TIP3    H230333   7.806   3.245   1.670
10126TIP3   OH230334   1.607   5.745   3.135
10126TIP3    H130335   1.537   5.786   3.085
10126TIP3    H230336   1.641   5.815   3.191
10127TIP3   OH230337   3.513   4.928   5.654
10127TIP3    H130338   3.475   5.007   5.617
10127TIP3    H230339   3.491   4.931   5.746
10128TIP3   OH230340   5.199   4.422   4.225
10128TIP3    H130341   5.285   4.455   4.197
10128TIP3    H230342   5.136   4.475   4.177
10129TIP3   OH230343   8.025   4.972   5.586
10129TIP3    H130344   7.987   4.968   5.674
10129TIP3    H230345   7.952   4.954   5.527
10130TIP3   OH230346   2.137   5.973   5.810
10130TIP3    H130347   2.135   6.037   5.739
10130TIP3    H230348   2.195   5.904   5.778
10131TIP3   OH230349   0.242   5.070   6.580
10131TIP3    H130350   0.262   5.039   6.669
10131TIP3    H230351   0.224   5.163   6.591
10132TIP3   OH230352   2.240   0.230   2.516
10132TIP3    H130353   2.312   0.240   2.454
10132TIP3    H230354   2.260   0.293   2.586
10133TIP3   OH230355   1.332   6.836   4.898
10133TIP3    H130356   1.289   6.753   4.920
10133TIP3    H230357   1.338   6.836   4.803
10134TIP3   OH230358   2.921   4.796   2.896
10134TIP3    H130359   2.944   4.703   2.896
10134TIP3    H230360   2.917   4.819   2.803
10135TIP3   OH230361   6.852   1.657   1.431
10135TIP3    H130362   6.912   1.675   1.504
10135TIP3    H230363   6.767   1.689   1.462
10136TIP3   OH230364   5.989   3.105   1.168
10136TIP3    H130365   6.004   3.023   1.121
10136TIP3    H230366   6.043   3.098   1.247
10137TIP3   OH230367   6.061   3.570   5.464
10137TIP3    H130368   5.969   3.597   5.462
10137TIP3    H230369   6.094   3.604   5.548
10138TIP3   OH230370   7.298   1.307   2.141
10138TIP3    H130371   7.287   1.350   2.226
10138TIP3    H230372   7.208   1.299   2.107
10139TIP3   OH230373   0.480   2.149   2.862
10139TIP3    H130374   0.488   2.075   2.922
10139TIP3    H230375   0.463   2.224   2.919
10140TIP3   OH230376   0.925   3.005   6.145
10140TIP3    H130377   0.967   2.962   6.070
10140TIP3    H230378   0.998   3.026   6.204
10141TIP3   OH230379   1.373   7.074   1.734
10141TIP3    H130380   1.340   6.995   1.776
10141TIP3    H230381   1.298   7.106   1.682
10142TIP3   OH230382   6.413   6.084   1.716
10142TIP3    H130383   6.378   6.165   1.753
10142TIP3    H230384   6.433   6.030   1.792
10143TIP3   OH230385   7.677   3.278   6.195
10143TIP3    H130386   7.723   3.304   6.115
10143TIP3    H230387   7.585   3.301   6.178
10144TIP3   OH230388   5.045   0.769   6.176
10144TIP3    H130389   4.980   0.699   6.181
10144TIP3    H230390   5.035   0.817   6.258
10145TIP3   OH230391   5.838   6.821   0.776
10145TIP3    H130392   5.833   6.917   0.783
10145TIP3    H230393   5.913   6.804   0.719
10146TIP3   OH230394   4.214   0.430   0.119
10146TIP3    H130395   4.276   0.503   0.121
10146TIP3    H230396   4.146   0.457   0.058
10147TIP3   OH230397   1.552   5.568   2.387
10147TIP3    H130398   1.467   5.570   2.432
10147TIP3    H230399   1.530   5.556   2.295
10148TIP3   OH230400   2.168   4.828   2.325
10148TIP3    H130401   2.239   4.790   2.273
10148TIP3    H230402   2.211   4.895   2.379
10149TIP3   OH230403   3.549   0.629   3.301
10149TIP3    H130404   3.483   0.560   3.313
10149TIP3    H230405   3.633   0.583   3.306
10150TIP3   OH230406   0.396   3.038   5.266
10150TIP3    H130407   0.466   3.045   5.200
10150TIP3    H230408   0.372   3.129   5.284
10151TIP3   OH230409   1.912   2.891   3.260
10151TIP3    H130410   1.965   2.937   3.195
10151TIP3    H230411   1.944   2.924   3.344
10152TIP3   OH230412   6.047   0.673   2.953
10152TIP3    H130413   5.971   0.636   2.999
10152TIP3    H230414   6.013   0.699   2.868
10153TIP3   OH230415   4.575   7.112   5.616
10153TIP3    H130416   4.519   7.083   5.688
10153TIP3    H230417   4.533   7.191   5.582
10154TIP3   OH230418   7.900   7.131   0.561
10154TIP3    H130419   7.890   7.225   0.570
10154TIP3    H230420   7.993   7.114   0.577
10155TIP3   OH230421   3.358   0.603   1.379
10155TIP3    H130422   3.366   0.653   1.297
10155TIP3    H230423   3.350   0.670   1.447
10156TIP3   OH230424   4.473   5.571   2.548
10156TIP3    H130425   4.458   5.569   2.643
10156TIP3    H230426   4.387   5.555   2.510
10157TIP3   OH230427   6.392   0.875   0.363
10157TIP3    H130428   6.422   0.966   0.373
10157TIP3    H230429   6.436   0.844   0.284
10158TIP3   OH230430   6.852   3.798   5.662
10158TIP3    H130431   6.809   3.821   5.579
10158TIP3    H230432   6.851   3.703   5.664
10159TIP3   OH230433   0.268   2.041   3.543
10159TIP3    H130434   0.325   2.052   3.467
10159TIP3    H230435   0.194   1.990   3.509
10160TIP3   OH230436   5.450   3.374   4.216
10160TIP3    H130437   5.396   3.315   4.164
10160TIP3    H230438   5.390   3.444   4.243
10161TIP3   OH230439   8.292   6.315   5.125
10161TIP3    H130440   8.386   6.322   5.109
10161TIP3    H230441   8.257   6.400   5.097
10162TIP3   OH230442   0.834   0.714   4.456
10162TIP3    H130443   0.911   0.736   4.404
10162TIP3    H230444   0.762   0.760   4.412
10163TIP3   OH230445   1.781   2.951   3.962
10163TIP3    H130446   1.761   3.023   3.902
10163TIP3    H230447   1.811   2.880   3.905
10164TIP3   OH230448   3.760   7.529   6.372
10164TIP3    H130449   3.776   7.448   6.420
10164TIP3    H230450   3.823   7.527   6.300
10165TIP3   OH230451   2.999   3.211   4.159
10165TIP3    H130452   2.991   3.227   4.253
10165TIP3    H230453   3.093   3.221   4.141
10166TIP3   OH230454   0.396   3.595   1.541
10166TIP3    H130455   0.467   3.577   1.603
10166TIP3    H230456   0.423   3.550   1.461
10167TIP3   OH230457   1.401   7.724   3.651
10167TIP3    H130458   1.337   7.784   3.614
10167TIP3    H230459   1.453   7.778   3.711
10168TIP3   OH230460   5.434   1.819   5.034
10168TIP3    H130461   5.529   1.812   5.032
10168TIP3    H230462   5.403   1.740   4.991
10169TIP3   OH230463   6.813   4.679   2.488
10169TIP3    H130464   6.815   4.655   2.395
10169TIP3    H230465   6.724   4.711   2.503
10170TIP3   OH230466   7.661   1.954   4.636
10170TIP3    H130467   7.753   1.931   4.625
10170TIP3    H230468   7.612   1.884   4.592
10171TIP3   OH230469   1.962   1.477   3.952
10171TIP3    H130470   2.052   1.509   3.949
10171TIP3    H230471   1.927   1.513   4.034
10172TIP3   OH230472   7.831   3.506   2.052
10172TIP3    H130473   7.847   3.456   2.131
10172TIP3    H230474   7.751   3.555   2.070
10173TIP3   OH230475   0.021   7.211   2.465
10173TIP3    H130476  -0.048   7.267   2.429
10173TIP3    H230477   0.024   7.136   2.406
10174TIP3   OH230478   7.559   6.431   2.348
10174TIP3    H130479   7.475   6.476   2.357
10174TIP3    H230480   7.557   6.364   2.417
10175TIP3   OH230481   2.916   6.109   1.733
10175TIP3    H130482   2.983   6.171   1.763
10175TIP3    H230483   2.900   6.053   1.810
10176TIP3   OH230484   7.527   3.392   4.896
10176TIP3    H130485   7.609   3.397   4.846
10176TIP3    H230486   7.523   3.301   4.925
10177TIP3   OH230487   2.828   0.826   3.683
10177TIP3    H130488   2.804   0.739   3.650
10177TIP3    H230489   2.746   0.859   3.721
10178TIP3   OH230490   0.956   1.066   1.331
10178TIP3    H130491   1.024   1.116   1.287
10178TIP3    H230492   0.951   0.984   1.282
10179TIP3   OH230493   3.719   2.106   0.466
10179TIP3    H130494   3.627   2.133   0.470
10179TIP3    H230495   3.768   2.188   0.467
10180TIP3   OH230496   6.560   4.084   0.798
10180TIP3    H130497   6.586   4.018   0.863
10180TIP3    H230498   6.632   4.084   0.734
10181TIP3   OH230499   1.408   6.017   4.479
10181TIP3    H130500   1.498   6.027   4.510
10181TIP3    H230501   1.360   5.983   4.555
10182TIP3   OH230502   1.873   4.178   2.461
10182TIP3    H130503   1.948   4.162   2.404
10182TIP3    H230504   1.900   4.251   2.516
10183TIP3   OH230505   2.790   0.941   4.710
10183TIP3    H130506   2.798   0.859   4.759
10183TIP3    H230507   2.768   1.007   4.776
10184TIP3   OH230508   5.652   1.275   4.670
10184TIP3    H130509   5.597   1.213   4.719
10184TIP3    H230510   5.737   1.270   4.712
10185TIP3   OH230511   2.235   6.171   6.259
10185TIP3    H130512   2.183   6.248   6.234
10185TIP3    H230513   2.233   6.115   6.181
10186TIP3   OH230514   0.913   3.333   5.263
10186TIP3    H130515   0.843   3.385   5.303
10186TIP3    H230516   0.941   3.274   5.333
10187TIP3   OH230517   4.916   0.645   0.540
10187TIP3    H130518   4.914   0.739   0.560
10187TIP3    H230519   4.926   0.602   0.625
10188TIP3   OH230520   2.334   0.203   0.746
10188TIP3    H130521   2.414   0.235   0.705
10188TIP3    H230522   2.354   0.113   0.772
10189TIP3   OH230523   4.758   1.401   1.568
10189TIP3    H130524   4.844   1.430   1.598
10189TIP3    H230525   4.696   1.449   1.623
10190TIP3   OH230526   7.246   4.354   3.333
10190TIP3    H130527   7.311   4.296   3.293
10190TIP3    H230528   7.267   4.351   3.426
10191TIP3   OH230529   1.441   2.680   6.566
10191TIP3    H130530   1.480   2.659   6.481
10191TIP3    H230531   1.516   2.692   6.624
10192TIP3   OH230532   8.179   4.408   4.561
10192TIP3    H130533   8.231   4.337   4.597
10192TIP3    H230534   8.109   4.364   4.513
10193TIP3   OH230535   3.906   6.849   3.949
10193TIP3    H130536   3.820   6.890   3.957
10193TIP3    H230537   3.949   6.867   4.033
10194TIP3   OH230538   4.406   1.700   0.411
10194TIP3    H130539   4.383   1.785   0.449
10194TIP3    H230540   4.476   1.667   0.467
10195TIP3   OH230541   4.048   0.180   5.987
10195TIP3    H130542   4.122   0.237   5.967
10195TIP3    H230543   4.078   0.126   6.060
10196TIP3   OH230544   5.639   4.417   3.954
10196TIP3    H130545   5.671   4.494   3.907
10196TIP3    H230546   5.682   4.343   3.910
10197TIP3   OH230547   1.593   4.449   2.925
10197TIP3    H130548   1.603   4.402   2.842
10197TIP3    H230549   1.669   4.507   2.930
10198TIP3   OH230550   3.621   0.388   6.195
10198TIP3    H130551   3.567   0.426   6.264
10198TIP3    H230552   3.558   0.356   6.130
10199TIP3   OH230553   0.864   2.456   2.184
10199TIP3    H130554   0.938   2.511   2.210
10199TIP3    H230555   0.904   2.378   2.146
10200TIP3   OH230556   6.741   0.195   0.745
10200TIP3    H130557   6.814   0.133   0.753
10200TIP3    H230558   6.779   0.271   0.702
10201TIP3   OH230559   6.428   6.366   1.833
10201TIP3    H130560   6.390   6.391   1.749
10201TIP3    H230561   6.432   6.448   1.883
10202TIP3   OH230562   2.238   0.961   4.053
10202TIP3    H130563   2.295   0.963   3.976
10202TIP3    H230564   2.253   1.044   4.098
10203TIP3   OH230565   7.419   0.352   5.157
10203TIP3    H130566   7.514   0.351   5.147
10203TIP3    H230567   7.387   0.405   5.084
10204TIP3   OH230568   3.933   3.198   2.488
10204TIP3    H130569   3.853   3.184   2.538
10204TIP3    H230570   3.924   3.142   2.411
10205TIP3   OH230571   4.072   1.539   1.824
10205TIP3    H130572   4.064   1.513   1.732
10205TIP3    H230573   3.996   1.499   1.867
10206TIP3   OH230574   2.667   0.135   1.794
10206TIP3    H130575   2.757   0.165   1.807
10206TIP3    H230576   2.654   0.068   1.861
10207TIP3   OH230577   4.619   4.351   3.486
10207TIP3    H130578   4.572   4.416   3.434
10207TIP3    H230579   4.551   4.310   3.540
10208TIP3   OH230580   5.649   6.954   5.736
10208TIP3    H130581   5.582   6.890   5.712
10208TIP3    H230582   5.622   7.035   5.692
10209TIP3   OH230583   0.868   7.525   2.648
10209TIP3    H130584   0.780   7.532   2.610
10209TIP3    H230585   0.906   7.612   2.633
10210TIP3   OH230586   8.244   1.574   3.975
10210TIP3    H130587   8.224   1.652   4.026
10210TIP3    H230588   8.211   1.502   4.028
10211TIP3   OH230589   1.372   5.952   5.934
10211TIP3    H130590   1.373   6.048   5.930
10211TIP3    H230591   1.291   5.932   5.982
10212TIP3   OH230592   3.739   4.465   4.041
10212TIP3    H130593   3.677   4.507   3.982
10212TIP3    H230594   3.797   4.414   3.984
10213TIP3   OH230595   4.776   7.047   0.988
10213TIP3    H130596   4.772   7.128   0.939
10213TIP3    H230597   4.734   7.067   1.072
10214TIP3   OH230598   5.827   7.140   5.541
10214TIP3    H130599   5.734   7.117   5.547
10214TIP3    H230600   5.838   7.213   5.602
10215TIP3   OH230601   6.947   5.058   1.266
10215TIP3    H130602   6.987   5.122   1.326
10215TIP3    H230603   7.022   5.007   1.233
10216TIP3   OH230604   2.912   7.013   4.010
10216TIP3    H130605   2.817   7.019   4.017
10216TIP3    H230606   2.935   7.076   3.942
10217TIP3   OH230607   2.740   4.437   6.440
10217TIP3    H130608   2.818   4.443   6.494
10217TIP3    H230609   2.708   4.348   6.454
10218TIP3   OH230610   8.255   5.531   0.006
10218TIP3    H130611   8.284   5.496  -0.079
10218TIP3    H230612   8.227   5.620  -0.013
10219TIP3   OH230613   2.344   6.453   1.684
10219TIP3    H130614   2.288   6.513   1.734
10219TIP3    H230615   2.430   6.496   1.683
10220TIP3   OH230616   6.270   2.669   5.615
10220TIP3    H130617   6.193   2.618   5.639
10220TIP3    H230618   6.287   2.644   5.524
10221TIP3   OH230619   5.759   5.843   2.554
10221TIP3    H130620   5.680   5.790   2.562
10221TIP3    H230621   5.821   5.802   2.615
10222TIP3   OH230622   3.796   0.452   2.985
10222TIP3    H130623   3.798   0.444   3.081
10222TIP3    H230624   3.728   0.391   2.958
10223TIP3   OH230625   2.039   2.942   2.568
10223TIP3    H130626   2.116   2.999   2.575
10223TIP3    H230627   1.966   2.997   2.594
10224TIP3   OH230628   5.824   2.786   1.174
10224TIP3    H130629   5.912   2.805   1.141
10224TIP3    H230630   5.765   2.817   1.106
10225TIP3   OH230631   1.055   4.023   5.725
10225TIP3    H130632   1.067   4.002   5.817
10225TIP3    H230633   1.089   3.946   5.678
10226TIP3   OH230634   3.482   2.680   6.276
10226TIP3    H130635   3.388   2.669   6.261
10226TIP3    H230636   3.523   2.648   6.196
10227TIP3   OH230637   1.479   6.745   5.626
10227TIP3    H130638   1.480   6.840   5.616
10227TIP3    H230639   1.411   6.715   5.566
10228TIP3   OH230640   6.118   5.405   0.278
10228TIP3    H130641   6.186   5.400   0.345
10228TIP3    H230642   6.038   5.380   0.323
10229TIP3   OH230643   5.143   0.264   2.379
10229TIP3    H130644   5.085   0.338   2.359
10229TIP3    H230645   5.091   0.206   2.434
10230TIP3   OH230646   2.904   6.356   6.217
10230TIP3    H130647   2.982   6.361   6.161
10230TIP3    H230648   2.863   6.443   6.209
10231TIP3   OH230649   5.686   5.116   0.738
10231TIP3    H130650   5.688   5.211   0.726
10231TIP3    H230651   5.754   5.098   0.803
10232TIP3   OH230652   0.155   7.120   5.644
10232TIP3    H130653   0.194   7.038   5.674
10232TIP3    H230654   0.103   7.095   5.568
10233TIP3   OH230655   4.060   3.537   5.196
10233TIP3    H130656   4.037   3.558   5.106
10233TIP3    H230657   4.069   3.442   5.197
10234TIP3   OH230658   1.967   6.259   5.917
10234TIP3    H130659   1.942   6.166   5.919
10234TIP3    H230660   2.049   6.260   5.868
10235TIP3   OH230661   4.604   4.274   5.646
10235TIP3    H130662   4.581   4.295   5.736
10235TIP3    H230663   4.663   4.344   5.619
10236TIP3   OH230664   0.806   6.645   2.106
10236TIP3    H130665   0.718   6.631   2.139
10236TIP3    H230666   0.843   6.713   2.164
10237TIP3   OH230667   1.987   4.221   0.660
10237TIP3    H130668   2.036   4.295   0.623
10237TIP3    H230669   2.004   4.149   0.599
10238TIP3   OH230670   5.668   6.064   0.317
10238TIP3    H130671   5.748   6.099   0.278
10238TIP3    H230672   5.698   5.998   0.379
10239TIP3   OH230673   6.311   2.814   0.690
10239TIP3    H130674   6.281   2.799   0.779
10239TIP3    H230675   6.405   2.831   0.699
10240TIP3   OH230676   7.738   2.208   0.867
10240TIP3    H130677   7.833   2.201   0.874
10240TIP3    H230678   7.706   2.188   0.955
10241TIP3   OH230679   5.261   2.717   5.019
10241TIP3    H130680   5.289   2.807   5.003
10241TIP3    H230681   5.269   2.673   4.934
10242TIP3   OH230682   5.866   6.670   1.488
10242TIP3    H130683   5.947   6.654   1.439
10242TIP3    H230684   5.868   6.606   1.559
10243TIP3   OH230685   3.067   2.790   6.475
10243TIP3    H130686   3.075   2.844   6.554
10243TIP3    H230687   3.067   2.854   6.403
10244TIP3   OH230688   1.063   3.640   6.516
10244TIP3    H130689   0.975   3.679   6.513
10244TIP3    H230690   1.046   3.546   6.517
10245TIP3   OH230691   1.941   5.280   1.937
10245TIP3    H130692   1.894   5.339   1.996
10245TIP3    H230693   2.003   5.337   1.892
10246TIP3   OH230694   4.033   6.341   0.418
10246TIP3    H130695   4.127   6.336   0.399
10246TIP3    H230696   4.026   6.313   0.510
10247TIP3   OH230697   2.377   7.350   1.957
10247TIP3    H130698   2.421   7.434   1.969
10247TIP3    H230699   2.297   7.372   1.909
10248TIP3   OH230700   6.840   5.495   1.557
10248TIP3    H130701   6.895   5.565   1.522
10248TIP3    H230702   6.805   5.530   1.639
10249TIP3   OH230703   7.913   2.796   0.409
10249TIP3    H130704   7.842   2.786   0.346
10249TIP3    H230705   7.988   2.751   0.369
10250TIP3   OH230706   1.921   7.470   1.964
10250TIP3    H130707   1.881   7.546   2.006
10250TIP3    H230708   1.942   7.412   2.037
10251TIP3   OH230709   6.404   3.564   1.855
10251TIP3    H130710   6.459   3.500   1.901
10251TIP3    H230711   6.434   3.649   1.888
10252TIP3   OH230712   5.583   0.011   1.550
10252TIP3    H130713   5.585   0.080   1.483
10252TIP3    H230714   5.662  -0.041   1.532
10253TIP3   OH230715   1.268   6.680   5.463
10253TIP3    H130716   1.220   6.760   5.442
10253TIP3    H230717   1.223   6.644   5.540
10254TIP3   OH230718   0.450   3.354   6.610
10254TIP3    H130719   0.521   3.398   6.564
10254TIP3    H230720   0.481   3.264   6.622
10255TIP3   OH230721   4.395   6.096   4.232
10255TIP3    H130722   4.367   6.078   4.142
10255TIP3    H230723   4.451   6.174   4.224
10256TIP3   OH230724   0.001   5.577   6.633
10256TIP3    H130725   0.042   5.575   6.546
10256TIP3    H230726   0.021   5.664   6.667
10257TIP3   OH230727   2.458   4.276   5.941
10257TIP3    H130728   2.507   4.210   5.989
10257TIP3    H230729   2.506   4.286   5.859
10258TIP3   OH230730   6.506   4.065   2.477
10258TIP3    H130731   6.523   4.112   2.559
10258TIP3    H230732   6.411   4.055   2.474
10259TIP3   OH230733   7.113   6.058   2.579
10259TIP3    H130734   7.044   6.062   2.513
10259TIP3    H230735   7.074   6.094   2.658
10260TIP3   OH230736   5.497   4.508   1.574
10260TIP3    H130737   5.476   4.595   1.607
10260TIP3    H230738   5.565   4.476   1.633
10261TIP3   OH230739   3.867   5.681   4.065
10261TIP3    H130740   3.800   5.749   4.059
10261TIP3    H230741   3.867   5.656   4.158
10262TIP3   OH230742   2.744   6.404   2.660
10262TIP3    H130743   2.697   6.478   2.623
10262TIP3    H230744   2.790   6.440   2.736
10263TIP3   OH230745   1.068   5.025   5.651
10263TIP3    H130746   1.033   5.085   5.716
10263TIP3    H230747   1.045   4.938   5.684
10264TIP3   OH230748   1.193   4.140   2.971
10264TIP3    H130749   1.207   4.055   3.013
10264TIP3    H230750   1.256   4.198   3.013
10265TIP3   OH230751   6.443   3.168   1.680
10265TIP3    H130752   6.424   3.080   1.646
10265TIP3    H230753   6.538   3.172   1.684
10266TIP3   OH230754   4.796   5.377   5.188
10266TIP3    H130755   4.878   5.343   5.154
10266TIP3    H230756   4.798   5.356   5.282
10267TIP3   OH230757   6.652   7.726   3.716
10267TIP3    H130758   6.645   7.811   3.760
10267TIP3    H230759   6.734   7.730   3.668
10268TIP3   OH230760   0.274   5.086   0.643
10268TIP3    H130761   0.233   5.154   0.590
10268TIP3    H230762   0.288   5.013   0.582
10269TIP3   OH230763   3.116   6.215   0.505
10269TIP3    H130764   3.033   6.180   0.473
10269TIP3    H230765   3.153   6.143   0.558
10270TIP3   OH230766   6.795   5.935   3.387
10270TIP3    H130767   6.793   6.025   3.354
10270TIP3    H230768   6.735   5.934   3.460
10271TIP3   OH230769   6.529   2.709   4.550
10271TIP3    H130770   6.615   2.683   4.581
10271TIP3    H230771   6.500   2.636   4.494
10272TIP3   OH230772   4.424   5.635   0.357
10272TIP3    H130773   4.347   5.690   0.365
10272TIP3    H230774   4.482   5.662   0.428
10273TIP3   OH230775   4.449   6.598   0.563
10273TIP3    H130776   4.406   6.634   0.486
10273TIP3    H230777   4.543   6.601   0.542
10274TIP3   OH230778   3.721   6.998   0.100
10274TIP3    H130779   3.698   7.087   0.127
10274TIP3    H230780   3.638   6.950   0.102
10275TIP3   OH230781   1.261   6.913   4.631
10275TIP3    H130782   1.180   6.962   4.645
10275TIP3    H230783   1.320   6.975   4.590
10276TIP3   OH230784   7.942   3.284   5.775
10276TIP3    H130785   7.892   3.203   5.773
10276TIP3    H230786   8.029   3.259   5.805
10277TIP3   OH230787   7.475   3.557   3.089
10277TIP3    H130788   7.418   3.559   3.166
10277TIP3    H230789   7.438   3.620   3.029
10278TIP3   OH230790   6.728   6.675   5.971
10278TIP3    H130791   6.797   6.740   5.984
10278TIP3    H230792   6.774   6.591   5.981
10279TIP3   OH230793   3.926   7.200   6.362
10279TIP3    H130794   3.950   7.108   6.366
10279TIP3    H230795   3.830   7.200   6.353
10280TIP3   OH230796   1.432   1.669   4.997
10280TIP3    H130797   1.357   1.667   4.938
10280TIP3    H230798   1.407   1.731   5.066
10281TIP3   OH230799   0.643   5.255   5.528
10281TIP3    H130800   0.555   5.217   5.519
10281TIP3    H230801   0.702   5.179   5.523
10282TIP3   OH230802   4.979   7.098   1.342
10282TIP3    H130803   5.052   7.071   1.285
10282TIP3    H230804   4.983   7.193   1.343
10283TIP3   OH230805   5.216   4.095   1.645
10283TIP3    H130806   5.212   4.109   1.740
10283TIP3    H230807   5.293   4.039   1.633
10284TIP3   OH230808   2.271   3.738   5.089
10284TIP3    H130809   2.348   3.753   5.035
10284TIP3    H230810   2.209   3.806   5.062
10285TIP3   OH230811   0.293   6.645   4.397
10285TIP3    H130812   0.362   6.591   4.360
10285TIP3    H230813   0.336   6.695   4.466
10286TIP3   OH230814   6.013   1.955   4.548
10286TIP3    H130815   6.074   1.882   4.558
10286TIP3    H230816   5.952   1.946   4.622
10287TIP3   OH230817   6.149   5.140   5.783
10287TIP3    H130818   6.231   5.116   5.826
10287TIP3    H230819   6.114   5.211   5.835
10288TIP3   OH230820   7.051   5.351   1.748
10288TIP3    H130821   7.042   5.445   1.764
10288TIP3    H230822   7.104   5.319   1.821
10289TIP3   OH230823   6.999   5.857   1.302
10289TIP3    H130824   7.012   5.765   1.328
10289TIP3    H230825   7.010   5.907   1.383
10290TIP3   OH230826   5.517   5.181   3.178
10290TIP3    H130827   5.511   5.248   3.110
10290TIP3    H230828   5.600   5.199   3.222
10291TIP3   OH230829   4.760   4.122   5.017
10291TIP3    H130830   4.830   4.056   5.008
10291TIP3    H230831   4.701   4.084   5.082
10292TIP3   OH230832   1.244   3.196   4.651
10292TIP3    H130833   1.194   3.227   4.575
10292TIP3    H230834   1.233   3.101   4.650
10293TIP3   OH230835   4.003   6.184   6.557
10293TIP3    H130836   4.076   6.152   6.610
10293TIP3    H230837   4.040   6.194   6.469
10294TIP3   OH230838   7.507   4.681   1.208
10294TIP3    H130839   7.453   4.608   1.177
10294TIP3    H230840   7.594   4.661   1.175
10295TIP3   OH230841   0.288   1.023   5.815
10295TIP3    H130842   0.244   0.979   5.744
10295TIP3    H230843   0.246   1.109   5.820
10296TIP3   OH230844   7.546   1.221   6.207
10296TIP3    H130845   7.582   1.218   6.118
10296TIP3    H230846   7.616   1.259   6.260
10297TIP3   OH230847   3.344   7.469   3.703
10297TIP3    H130848   3.389   7.446   3.784
10297TIP3    H230849   3.253   7.447   3.718
10298TIP3   OH230850   0.306   3.064   0.145
10298TIP3    H130851   0.346   2.980   0.169
10298TIP3    H230852   0.242   3.041   0.077
10299TIP3   OH230853   3.036   4.550   1.274
10299TIP3    H130854   3.127   4.564   1.301
10299TIP3    H230855   2.990   4.627   1.306
10300TIP3   OH230856   1.174   2.504   5.520
10300TIP3    H130857   1.267   2.490   5.505
10300TIP3    H230858   1.152   2.449   5.595
10301TIP3   OH230859   2.562   2.607   6.388
10301TIP3    H130860   2.650   2.631   6.360
10301TIP3    H230861   2.507   2.626   6.312
10302TIP3   OH230862   4.798   6.677   4.840
10302TIP3    H130863   4.774   6.737   4.769
10302TIP3    H230864   4.720   6.674   4.896
10303TIP3   OH230865   2.520   6.084   1.723
10303TIP3    H130866   2.433   6.049   1.743
10303TIP3    H230867   2.531   6.071   1.629
10304TIP3   OH230868   0.753   5.460   3.709
10304TIP3    H130869   0.746   5.531   3.645
10304TIP3    H230870   0.841   5.470   3.745
10305TIP3   OH230871   1.151   3.110   3.862
10305TIP3    H130872   1.095   3.186   3.844
10305TIP3    H230873   1.089   3.040   3.883
10306TIP3   OH230874   0.466   4.189   1.577
10306TIP3    H130875   0.437   4.279   1.593
10306TIP3    H230876   0.540   4.197   1.517
10307TIP3   OH230877   4.301   0.480   1.793
10307TIP3    H130878   4.318   0.475   1.699
10307TIP3    H230879   4.375   0.433   1.833
10308TIP3   OH230880   5.041   2.721   3.505
10308TIP3    H130881   5.052   2.683   3.418
10308TIP3    H230882   4.949   2.747   3.508
10309TIP3   OH230883   4.118   6.707   6.021
10309TIP3    H130884   4.038   6.659   5.997
10309TIP3    H230885   4.110   6.721   6.115
10310TIP3   OH230886   1.892   3.275   4.737
10310TIP3    H130887   1.985   3.257   4.722
10310TIP3    H230888   1.858   3.299   4.651
10311TIP3   OH230889   1.252   0.076   5.881
10311TIP3    H130890   1.307   0.149   5.854
10311TIP3    H230891   1.172   0.117   5.916
10312TIP3   OH230892   3.126   6.857   3.744
10312TIP3    H130893   3.171   6.937   3.773
10312TIP3    H230894   3.191   6.787   3.756
10313TIP3   OH230895   1.463   4.002   6.600
10313TIP3    H130896   1.402   3.972   6.532
10313TIP3    H230897   1.470   3.927   6.660
10314TIP3   OH230898   0.267   1.636   6.712
10314TIP3    H130899   0.294   1.570   6.647
10314TIP3    H230900   0.246   1.713   6.660
10315TIP3   OH230901   3.746   3.028   4.067
10315TIP3    H130902   3.825   3.007   4.117
10315TIP3    H230903   3.777   3.080   3.993
10316TIP3   OH230904   3.204   0.264   0.035
10316TIP3    H130905   3.120   0.218   0.032
10316TIP3    H230906   3.255   0.226  -0.036
10317TIP3   OH230907   7.040   6.405   0.430
10317TIP3    H130908   7.111   6.470   0.433
10317TIP3    H230909   7.037   6.377   0.339
10318TIP3   OH230910   3.190   6.418   3.505
10318TIP3    H130911   3.114   6.472   3.485
10318TIP3    H230912   3.225   6.394   3.419
10319TIP3   OH230913   7.483   4.107   0.593
10319TIP3    H130914   7.457   4.133   0.504
10319TIP3    H230915   7.506   4.015   0.586
10320TIP3   OH230916   3.640   3.656   2.486
10320TIP3    H130917   3.733   3.635   2.474
10320TIP3    H230918   3.594   3.585   2.441
10321TIP3   OH230919   8.075   6.566   0.692
10321TIP3    H130920   8.031   6.649   0.675
10321TIP3    H230921   8.109   6.538   0.607
10322TIP3   OH230922   2.105   1.711   5.979
10322TIP3    H130923   2.129   1.632   6.028
10322TIP3    H230924   2.136   1.783   6.034
10323TIP3   OH230925   2.544   2.251   1.639
10323TIP3    H130926   2.596   2.331   1.642
10323TIP3    H230927   2.600   2.187   1.596
10324TIP3   OH230928   0.540   0.616   3.242
10324TIP3    H130929   0.461   0.570   3.271
10324TIP3    H230930   0.609   0.549   3.244
10325TIP3   OH230931   6.498   3.754   0.707
10325TIP3    H130932   6.508   3.745   0.612
10325TIP3    H230933   6.405   3.771   0.720
10326TIP3   OH230934   5.382   4.863   4.972
10326TIP3    H130935   5.334   4.789   5.009
10326TIP3    H230936   5.448   4.884   5.038
10327TIP3   OH230937   4.160   4.486   0.301
10327TIP3    H130938   4.227   4.443   0.354
10327TIP3    H230939   4.097   4.519   0.364
10328TIP3   OH230940   7.631   1.350   2.760
10328TIP3    H130941   7.559   1.404   2.728
10328TIP3    H230942   7.607   1.327   2.849
10329TIP3   OH230943   0.450   6.258   5.788
10329TIP3    H130944   0.511   6.295   5.724
10329TIP3    H230945   0.494   6.269   5.872
10330TIP3   OH230946   3.965   1.468   4.929
10330TIP3    H130947   4.012   1.420   4.997
10330TIP3    H230948   3.985   1.560   4.946
10331TIP3   OH230949   4.596   2.257   0.754
10331TIP3    H130950   4.628   2.325   0.813
10331TIP3    H230951   4.557   2.304   0.681
10332TIP3   OH230952   3.941   2.618   6.179
10332TIP3    H130953   3.874   2.564   6.221
10332TIP3    H230954   3.989   2.658   6.251
10333TIP3   OH230955   2.382   7.242   2.623
10333TIP3    H130956   2.458   7.269   2.675
10333TIP3    H230957   2.397   7.280   2.537
10334TIP3   OH230958   3.792   4.033   1.625
10334TIP3    H130959   3.872   3.992   1.592
10334TIP3    H230960   3.725   3.965   1.615
10335TIP3   OH230961   3.290   5.272   6.296
10335TIP3    H130962   3.286   5.188   6.341
10335TIP3    H230963   3.383   5.287   6.281
10336TIP3   OH230964   2.365   1.941   5.382
10336TIP3    H130965   2.345   1.983   5.299
10336TIP3    H230966   2.433   1.996   5.421
10337TIP3   OH230967   4.087   6.162   6.303
10337TIP3    H130968   4.006   6.165   6.252
10337TIP3    H230969   4.136   6.239   6.274
10338TIP3   OH230970   3.835   5.020   0.366
10338TIP3    H130971   3.744   4.998   0.346
10338TIP3    H230972   3.841   5.012   0.461
10339TIP3   OH230973   0.028   4.519   2.182
10339TIP3    H130974   0.048   4.527   2.089
10339TIP3    H230975   0.019   4.425   2.196
10340TIP3   OH230976   5.896   4.462   2.128
10340TIP3    H130977   5.888   4.367   2.143
10340TIP3    H230978   5.953   4.469   2.051
10341TIP3   OH230979   0.453   0.267   1.444
10341TIP3    H130980   0.540   0.306   1.433
10341TIP3    H230981   0.426   0.243   1.356
10342TIP3   OH230982   0.538   3.853   4.828
10342TIP3    H130983   0.444   3.871   4.824
10342TIP3    H230984   0.548   3.768   4.785
10343TIP3   OH230985   4.085   5.022   2.696
10343TIP3    H130986   4.067   4.973   2.776
10343TIP3    H230987   4.178   5.043   2.701
10344TIP3   OH230988   3.421   3.004   4.429
10344TIP3    H130989   3.483   2.971   4.494
10344TIP3    H230990   3.423   3.099   4.440
10345TIP3   OH230991   6.043   0.705   3.733
10345TIP3    H130992   5.990   0.629   3.708
10345TIP3    H230993   6.130   0.684   3.700
10346TIP3   OH230994   0.695   4.770   1.065
10346TIP3    H130995   0.638   4.847   1.076
10346TIP3    H230996   0.635   4.700   1.040
10347TIP3   OH230997   8.081   5.282   4.179
10347TIP3    H130998   8.176   5.289   4.178
10347TIP3    H230999   8.060   5.242   4.264
10348TIP3   OH231000   2.065   2.482   0.237
10348TIP3    H131001   2.101   2.396   0.259
10348TIP3    H231002   2.124   2.517   0.170
10349TIP3   OH231003   7.147   1.047   1.626
10349TIP3    H131004   7.135   1.005   1.541
10349TIP3    H231005   7.176   0.977   1.684
10350TIP3   OH231006   4.126   6.612   0.102
10350TIP3    H131007   4.189   6.608   0.030
10350TIP3    H231008   4.054   6.555   0.074
10351TIP3   OH231009   6.001   1.456   0.785
10351TIP3    H131010   5.915   1.453   0.743
10351TIP3    H231011   6.012   1.368   0.822
10352TIP3   OH231012   4.386   6.257   2.124
10352TIP3    H131013   4.291   6.266   2.135
10352TIP3    H231014   4.395   6.200   2.049
10353TIP3   OH231015   6.538   1.220   5.954
10353TIP3    H131016   6.459   1.250   5.998
10353TIP3    H231017   6.587   1.301   5.936
10354TIP3   OH231018   4.287   0.372   1.528
10354TIP3    H131019   4.192   0.361   1.519
10354TIP3    H231020   4.308   0.446   1.471
10355TIP3   OH231021   4.035   5.998   3.832
10355TIP3    H131022   4.126   6.015   3.809
10355TIP3    H231023   3.994   5.970   3.750
10356TIP3   OH231024   0.622   0.075   2.106
10356TIP3    H131025   0.693   0.030   2.151
10356TIP3    H231026   0.575   0.122   2.176
10357TIP3   OH231027   1.469   7.039   6.734
10357TIP3    H131028   1.395   7.038   6.674
10357TIP3    H231029   1.442   7.100   6.804
10358TIP3   OH231030   3.564   1.164   4.720
10358TIP3    H131031   3.639   1.224   4.728
10358TIP3    H231032   3.569   1.110   4.799
10359TIP3   OH231033   4.964   7.782   2.534
10359TIP3    H131034   5.015   7.708   2.502
10359TIP3    H231035   5.006   7.806   2.617
10360TIP3   OH231036   0.179   0.461   1.411
10360TIP3    H131037   0.177   0.456   1.316
10360TIP3    H231038   0.099   0.416   1.439
10361TIP3   OH231039   4.074   3.705   1.433
10361TIP3    H131040   4.119   3.742   1.357
10361TIP3    H231041   4.125   3.734   1.508
10362TIP3   OH231042   0.371   5.523   2.230
10362TIP3    H131043   0.433   5.591   2.203
10362TIP3    H231044   0.350   5.544   2.321
10363TIP3   OH231045   8.130   1.495   5.034
10363TIP3    H131046   8.127   1.566   4.970
10363TIP3    H231047   8.216   1.503   5.074
10364TIP3   OH231048   6.112   2.110   2.429
10364TIP3    H131049   6.038   2.138   2.376
10364TIP3    H231050   6.158   2.191   2.451
10365TIP3   OH231051   0.562   7.313   2.871
10365TIP3    H131052   0.549   7.291   2.778
10365TIP3    H231053   0.641   7.265   2.895
10366TIP3   OH231054   3.346   5.838   4.712
10366TIP3    H131055   3.283   5.776   4.746
10366TIP3    H231056   3.408   5.851   4.784
10367TIP3   OH231057   4.820   6.522   6.521
10367TIP3    H131058   4.848   6.598   6.572
10367TIP3    H231059   4.751   6.483   6.573
10368TIP3   OH231060   2.096   2.846   5.229
10368TIP3    H131061   2.090   2.941   5.219
10368TIP3    H231062   2.031   2.825   5.296
10369TIP3   OH231063   1.450   6.756   3.138
10369TIP3    H131064   1.475   6.708   3.058
10369TIP3    H231065   1.404   6.690   3.191
10370TIP3   OH231066   6.661   3.472   6.325
10370TIP3    H131067   6.738   3.526   6.339
10370TIP3    H231068   6.595   3.533   6.292
10371TIP3   OH231069   0.374   5.844   5.357
10371TIP3    H131070   0.457   5.818   5.396
10371TIP3    H231071   0.392   5.851   5.264
10372TIP3   OH231072   7.388   6.067   3.898
10372TIP3    H131073   7.334   6.003   3.853
10372TIP3    H231074   7.377   6.047   3.991
10373TIP3   OH231075   1.371   2.696   2.104
10373TIP3    H131076   1.418   2.688   2.021
10373TIP3    H231077   1.291   2.645   2.092
10374TIP3   OH231078   7.698   6.592   1.263
10374TIP3    H131079   7.780   6.571   1.218
10374TIP3    H231080   7.647   6.511   1.257
10375TIP3   OH231081   4.316   3.882   4.427
10375TIP3    H131082   4.274   3.803   4.392
10375TIP3    H231083   4.301   3.876   4.522
10376TIP3   OH231084   4.203   2.154   2.322
10376TIP3    H131085   4.221   2.204   2.402
10376TIP3    H231086   4.277   2.173   2.265
10377TIP3   OH231087   6.659   3.207   3.581
10377TIP3    H131088   6.605   3.241   3.653
10377TIP3    H231089   6.744   3.191   3.621
10378TIP3   OH231090   4.163   1.706   2.603
10378TIP3    H131091   4.116   1.768   2.547
10378TIP3    H231092   4.144   1.621   2.565
10379TIP3   OH231093   2.764   2.365   3.899
10379TIP3    H131094   2.754   2.283   3.948
10379TIP3    H231095   2.681   2.410   3.910
10380TIP3   OH231096   8.303   0.232   2.249
10380TIP3    H131097   8.225   0.254   2.300
10380TIP3    H231098   8.365   0.302   2.269
10381TIP3   OH231099   2.829   3.011   3.654
10381TIP3    H131100   2.805   3.101   3.678
10381TIP3    H231101   2.882   3.021   3.575
10382TIP3   OH231102   1.268   7.812   4.356
10382TIP3    H131103   1.195   7.865   4.325
10382TIP3    H231104   1.245   7.790   4.446
10383TIP3   OH231105   6.283   5.541   0.830
10383TIP3    H131106   6.190   5.561   0.823
10383TIP3    H231107   6.305   5.499   0.747
10384TIP3   OH231108   0.726   6.099   5.652
10384TIP3    H131109   0.782   6.069   5.723
10384TIP3    H231110   0.639   6.068   5.676
10385TIP3   OH231111   1.173   2.755   6.266
10385TIP3    H131112   1.175   2.851   6.259
10385TIP3    H231113   1.244   2.726   6.209
10386TIP3   OH231114   7.604   3.596   1.458
10386TIP3    H131115   7.635   3.512   1.425
10386TIP3    H231116   7.636   3.660   1.395
10387TIP3   OH231117   4.843   3.735   6.678
10387TIP3    H131118   4.899   3.802   6.718
10387TIP3    H231119   4.829   3.671   6.747
10388TIP3   OH231120   4.442   4.986   4.269
10388TIP3    H131121   4.394   5.063   4.237
10388TIP3    H231122   4.388   4.954   4.341
10389TIP3   OH231123   1.391   3.424   2.436
10389TIP3    H131124   1.375   3.518   2.425
10389TIP3    H231125   1.431   3.396   2.353
10390TIP3   OH231126   2.592   2.591   3.536
10390TIP3    H131127   2.599   2.572   3.442
10390TIP3    H231128   2.603   2.506   3.578
10391TIP3   OH231129   5.509   0.577   1.339
10391TIP3    H131130   5.424   0.564   1.298
10391TIP3    H231131   5.572   0.547   1.273
10392TIP3   OH231132   0.511   7.164   1.670
10392TIP3    H131133   0.469   7.238   1.627
10392TIP3    H231134   0.439   7.111   1.703
10393TIP3   OH231135   5.223   0.659   3.428
10393TIP3    H131136   5.256   0.732   3.481
10393TIP3    H231137   5.270   0.583   3.460
10394TIP3   OH231138   0.269   5.269   2.257
10394TIP3    H131139   0.286   5.363   2.263
10394TIP3    H231140   0.178   5.264   2.226
10395TIP3   OH231141   0.378   3.907   1.868
10395TIP3    H131142   0.303   3.867   1.912
10395TIP3    H231143   0.385   3.994   1.906
10396TIP3   OH231144   3.592   1.171   1.232
10396TIP3    H131145   3.520   1.162   1.170
10396TIP3    H231146   3.620   1.081   1.249
10397TIP3   OH231147   7.221   5.943   5.465
10397TIP3    H131148   7.260   5.860   5.439
10397TIP3    H231149   7.225   5.942   5.561
10398TIP3   OH231150   3.347   2.531   1.208
10398TIP3    H131151   3.256   2.554   1.187
10398TIP3    H231152   3.392   2.529   1.123
10399TIP3   OH231153   0.028   1.933   4.304
10399TIP3    H131154   0.025   1.996   4.376
10399TIP3    H231155   0.109   1.884   4.318
10400TIP3   OH231156   6.082   6.863   3.846
10400TIP3    H131157   6.170   6.901   3.845
10400TIP3    H231158   6.082   6.803   3.920
10401TIP3   OH231159   5.258   5.089   6.421
10401TIP3    H131160   5.219   5.176   6.428
10401TIP3    H231161   5.218   5.039   6.492
10402TIP3   OH231162   2.730   0.293   6.041
10402TIP3    H131163   2.790   0.246   6.099
10402TIP3    H231164   2.787   0.351   5.990
10403TIP3   OH231165   2.700   0.080   3.482
10403TIP3    H131166   2.719   0.007   3.541
10403TIP3    H231167   2.615   0.058   3.444
10404TIP3   OH231168   6.350   4.278   6.660
10404TIP3    H131169   6.399   4.348   6.617
10404TIP3    H231170   6.309   4.320   6.736
10405TIP3   OH231171   5.149   5.905   3.260
10405TIP3    H131172   5.202   5.844   3.209
10405TIP3    H231173   5.125   5.973   3.197
10406TIP3   OH231174   7.526   3.379   2.168
10406TIP3    H131175   7.548   3.422   2.086
10406TIP3    H231176   7.608   3.342   2.199
10407TIP3   OH231177   5.167   2.339   0.240
10407TIP3    H131178   5.178   2.355   0.334
10407TIP3    H231179   5.073   2.340   0.226
10408TIP3   OH231180   3.046   2.452   5.269
10408TIP3    H131181   3.123   2.463   5.213
10408TIP3    H231182   2.976   2.495   5.221
10409TIP3   OH231183   6.307   1.048   5.538
10409TIP3    H131184   6.363   0.971   5.545
10409TIP3    H231185   6.364   1.121   5.564
10410TIP3   OH231186   4.332   3.515   6.523
10410TIP3    H131187   4.366   3.604   6.536
10410TIP3    H231188   4.394   3.474   6.463
10411TIP3   OH231189   4.202   7.498   5.867
10411TIP3    H131190   4.121   7.503   5.816
10411TIP3    H231191   4.201   7.410   5.905
10412TIP3   OH231192   3.235   7.679   5.660
10412TIP3    H131193   3.288   7.711   5.588
10412TIP3    H231194   3.236   7.584   5.650
10413TIP3   OH231195   6.902   5.996   0.766
10413TIP3    H131196   6.969   6.020   0.830
10413TIP3    H231197   6.837   6.066   0.773
10414TIP3   OH231198   4.479   6.936   2.046
10414TIP3    H131199   4.429   6.855   2.053
10414TIP3    H231200   4.550   6.926   2.109
10415TIP3   OH231201   0.409   4.676   6.666
10415TIP3    H131202   0.383   4.762   6.698
10415TIP3    H231203   0.363   4.614   6.722
10416TIP3   OH231204   6.561   5.105   5.391
10416TIP3    H131205   6.642   5.113   5.442
10416TIP3    H231206   6.560   5.183   5.335
10417TIP3   OH231207   0.638   4.933   3.262
10417TIP3    H131208   0.725   4.910   3.296
10417TIP3    H231209   0.625   4.874   3.187
10418TIP3   OH231210   0.685   2.266   0.313
10418TIP3    H131211   0.687   2.352   0.273
10418TIP3    H231212   0.744   2.213   0.259
10419TIP3   OH231213   2.716   3.568   1.353
10419TIP3    H131214   2.624   3.562   1.380
10419TIP3    H231215   2.723   3.654   1.311
10420TIP3   OH231216   6.895   3.337   5.300
10420TIP3    H131217   6.989   3.318   5.304
10420TIP3    H231218   6.869   3.310   5.212
10421TIP3   OH231219   6.039   4.479   2.368
10421TIP3    H131220   5.976   4.457   2.300
10421TIP3    H231221   6.095   4.546   2.328
10422TIP3   OH231222   7.013   5.149   2.242
10422TIP3    H131223   6.964   5.207   2.301
10422TIP3    H231224   6.949   5.083   2.215
10423TIP3   OH231225   4.073   3.960   0.132
10423TIP3    H131226   4.116   3.885   0.090
10423TIP3    H231227   3.988   3.925   0.161
10424TIP3   OH231228   4.646   0.498   0.155
10424TIP3    H131229   4.575   0.439   0.182
10424TIP3    H231230   4.725   0.444   0.161
10425TIP3   OH231231   1.373   4.233   2.712
10425TIP3    H131232   1.315   4.219   2.787
10425TIP3    H231233   1.448   4.176   2.729
10426TIP3   OH231234   0.502   6.797   2.083
10426TIP3    H131235   0.447   6.753   2.148
10426TIP3    H231236   0.536   6.874   2.128
10427TIP3   OH231237   1.078   6.116   0.655
10427TIP3    H131238   1.170   6.093   0.664
10427TIP3    H231239   1.051   6.077   0.571
10428TIP3   OH231240   7.048   6.879   1.865
10428TIP3    H131241   7.082   6.807   1.811
10428TIP3    H231242   7.051   6.955   1.808
10429TIP3   OH231243   1.151   3.553   4.562
10429TIP3    H131244   1.131   3.464   4.531
10429TIP3    H231245   1.121   3.555   4.652
10430TIP3   OH231246   3.642   6.765   0.991
10430TIP3    H131247   3.702   6.789   1.062
10430TIP3    H231248   3.650   6.837   0.928
10431TIP3   OH231249   4.959   0.883   0.661
10431TIP3    H131250   5.053   0.896   0.671
10431TIP3    H231251   4.930   0.955   0.605
10432TIP3   OH231252   3.107   4.276   3.859
10432TIP3    H131253   3.153   4.202   3.821
10432TIP3    H231254   3.017   4.266   3.829
10433TIP3   OH231255   0.622   1.556   3.079
10433TIP3    H131256   0.564   1.586   3.009
10433TIP3    H231257   0.689   1.624   3.085
10434TIP3   OH231258   3.330   3.532   5.453
10434TIP3    H131259   3.389   3.580   5.511
10434TIP3    H231260   3.386   3.498   5.383
10435TIP3   OH231261   3.658   0.119   0.981
10435TIP3    H131262   3.579   0.079   1.015
10435TIP3    H231263   3.726   0.052   0.992
10436TIP3   OH231264   3.876   4.082   5.474
10436TIP3    H131265   3.845   3.993   5.493
10436TIP3    H231266   3.932   4.072   5.397
10437TIP3   OH231267   0.053   7.200   1.336
10437TIP3    H131268   0.023   7.154   1.414
10437TIP3    H231269   0.143   7.172   1.324
10438TIP3   OH231270   7.087   7.438   1.299
10438TIP3    H131271   7.071   7.419   1.206
10438TIP3    H231272   7.175   7.475   1.301
10439TIP3   OH231273   8.036   1.953   3.182
10439TIP3    H131274   7.983   1.874   3.176
10439TIP3    H231275   8.002   2.010   3.113
10440TIP3   OH231276   6.140   4.080   4.234
10440TIP3    H131277   6.196   4.045   4.164
10440TIP3    H231278   6.200   4.130   4.290
10441TIP3   OH231279   1.404   3.425   0.451
10441TIP3    H131280   1.312   3.401   0.462
10441TIP3    H231281   1.433   3.451   0.538
10442TIP3   OH231282   4.120   0.628   0.987
10442TIP3    H131283   4.081   0.563   1.045
10442TIP3    H231284   4.052   0.648   0.923
10443TIP3   OH231285   3.436   7.487   6.273
10443TIP3    H131286   3.424   7.580   6.255
10443TIP3    H231287   3.524   7.467   6.241
10444TIP3   OH231288   3.106   4.486   5.767
10444TIP3    H131289   3.192   4.451   5.744
10444TIP3    H231290   3.122   4.548   5.838
10445TIP3   OH231291   3.652   1.947   6.204
10445TIP3    H131292   3.574   1.996   6.176
10445TIP3    H231293   3.634   1.921   6.294
10446TIP3   OH231294   4.833   2.050   2.265
10446TIP3    H131295   4.739   2.040   2.279
10446TIP3    H231296   4.871   2.042   2.352
10447TIP3   OH231297   7.196   6.758   2.210
10447TIP3    H131298   7.208   6.708   2.290
10447TIP3    H231299   7.150   6.838   2.237
10448TIP3   OH231300   6.126   0.309   0.029
10448TIP3    H131301   6.081   0.331   0.111
10448TIP3    H231302   6.055   0.290  -0.033
10449TIP3   OH231303   1.234   2.433   5.114
10449TIP3    H131304   1.263   2.517   5.150
10449TIP3    H231305   1.275   2.368   5.171
10450TIP3   OH231306   2.311   7.735   4.343
10450TIP3    H131307   2.402   7.715   4.323
10450TIP3    H231308   2.302   7.828   4.324
10451TIP3   OH231309   4.072   7.603   4.255
10451TIP3    H131310   4.134   7.652   4.201
10451TIP3    H231311   3.992   7.654   4.252
10452TIP3   OH231312   5.486   3.696   1.614
10452TIP3    H131313   5.443   3.781   1.617
10452TIP3    H231314   5.547   3.698   1.688
10453TIP3   OH231315   3.924   3.747   6.106
10453TIP3    H131316   4.009   3.772   6.070
10453TIP3    H231317   3.942   3.670   6.160
10454TIP3   OH231318   2.568   4.895   4.129
10454TIP3    H131319   2.549   4.802   4.116
10454TIP3    H231320   2.529   4.938   4.054
10455TIP3   OH231321   3.792   5.931   0.057
10455TIP3    H131322   3.701   5.903   0.056
10455TIP3    H231323   3.788   6.024   0.083
10456TIP3   OH231324   7.697   3.828   5.952
10456TIP3    H131325   7.634   3.898   5.934
10456TIP3    H231326   7.716   3.790   5.867
10457TIP3   OH231327   3.583   3.951   5.638
10457TIP3    H131328   3.539   3.866   5.649
10457TIP3    H231329   3.512   4.015   5.645
10458TIP3   OH231330   4.404   6.001   4.665
10458TIP3    H131331   4.383   6.087   4.628
10458TIP3    H231332   4.429   5.948   4.589
10459TIP3   OH231333   4.137   2.674   5.610
10459TIP3    H131334   4.147   2.583   5.638
10459TIP3    H231335   4.069   2.670   5.543
10460TIP3   OH231336   8.223   1.845   5.181
10460TIP3    H131337   8.291   1.910   5.163
10460TIP3    H231338   8.235   1.823   5.273
10461TIP3   OH231339   0.459   2.713   6.054
10461TIP3    H131340   0.532   2.712   5.992
10461TIP3    H231341   0.455   2.624   6.089
10462TIP3   OH231342   4.182   0.154   2.431
10462TIP3    H131343   4.140   0.088   2.486
10462TIP3    H231344   4.179   0.117   2.343
10463TIP3   OH231345   0.763   0.835   3.824
10463TIP3    H131346   0.671   0.811   3.832
10463TIP3    H231347   0.777   0.900   3.893
10464TIP3   OH231348   5.827   4.625   0.092
10464TIP3    H131349   5.775   4.593   0.019
10464TIP3    H231350   5.781   4.703   0.123
10465TIP3   OH231351   2.289   2.060   2.861
10465TIP3    H131352   2.215   2.108   2.822
10465TIP3    H231353   2.362   2.075   2.801
10466TIP3   OH231354   3.105   2.018   3.190
10466TIP3    H131355   3.104   2.113   3.177
10466TIP3    H231356   3.013   1.997   3.208
10467TIP3   OH231357   7.331   5.639   1.269
10467TIP3    H131358   7.388   5.588   1.327
10467TIP3    H231359   7.273   5.573   1.230
10468TIP3   OH231360   6.814   4.759   5.327
10468TIP3    H131361   6.826   4.774   5.234
10468TIP3    H231362   6.823   4.664   5.338
10469TIP3   OH231363   2.374   1.965   6.299
10469TIP3    H131364   2.361   2.008   6.214
10469TIP3    H231365   2.461   1.927   6.293
10470TIP3   OH231366   2.158   5.348   3.666
10470TIP3    H131367   2.130   5.440   3.667
10470TIP3    H231368   2.247   5.350   3.632
10471TIP3   OH231369   7.736   4.804   4.727
10471TIP3    H131370   7.676   4.861   4.678
10471TIP3    H231371   7.820   4.848   4.722
10472TIP3   OH231372   2.892   1.285   3.287
10472TIP3    H131373   2.946   1.220   3.332
10472TIP3    H231374   2.953   1.338   3.238
10473TIP3   OH231375   2.151   3.235   3.476
10473TIP3    H131376   2.201   3.161   3.440
10473TIP3    H231377   2.133   3.210   3.566
10474TIP3   OH231378   7.231   5.964   1.193
10474TIP3    H131379   7.233   5.897   1.124
10474TIP3    H231380   7.147   5.951   1.236
10475TIP3   OH231381   3.312   7.279   4.627
10475TIP3    H131382   3.303   7.200   4.574
10475TIP3    H231383   3.274   7.256   4.712
10476TIP3   OH231384   3.310   5.688   1.146
10476TIP3    H131385   3.260   5.746   1.089
10476TIP3    H231386   3.396   5.731   1.155
10477TIP3   OH231387   7.898   6.533   4.147
10477TIP3    H131388   7.947   6.561   4.224
10477TIP3    H231389   7.808   6.562   4.164
10478TIP3   OH231390   7.387   1.418   1.301
10478TIP3    H131391   7.352   1.337   1.338
10478TIP3    H231392   7.470   1.431   1.348
10479TIP3   OH231393   4.709   6.585   3.904
10479TIP3    H131394   4.790   6.635   3.895
10479TIP3    H231395   4.687   6.593   3.997
10480TIP3   OH231396   6.337   5.983   6.167
10480TIP3    H131397   6.329   6.075   6.141
10480TIP3    H231398   6.325   5.984   6.262
10481TIP3   OH231399   0.903   7.096   1.116
10481TIP3    H131400   0.947   7.181   1.107
10481TIP3    H231401   0.839   7.110   1.186
10482TIP3   OH231402   2.102   0.944   0.882
10482TIP3    H131403   2.114   0.861   0.929
10482TIP3    H231404   2.058   1.000   0.945
10483TIP3   OH231405   6.875   5.333   6.090
10483TIP3    H131406   6.939   5.276   6.131
10483TIP3    H231407   6.792   5.285   6.097
10484TIP3   OH231408   3.384   6.692   3.442
10484TIP3    H131409   3.453   6.722   3.383
10484TIP3    H231410   3.426   6.627   3.498
10485TIP3   OH231411   7.609   0.698   3.626
10485TIP3    H131412   7.658   0.699   3.544
10485TIP3    H231413   7.518   0.689   3.599
10486TIP3   OH231414   7.588   2.809   6.213
10486TIP3    H131415   7.646   2.837   6.142
10486TIP3    H231416   7.647   2.777   6.281
10487TIP3   OH231417   6.368   5.444   6.204
10487TIP3    H131418   6.337   5.516   6.260
10487TIP3    H231419   6.290   5.416   6.156
10488TIP3   OH231420   0.773   6.425   3.736
10488TIP3    H131421   0.724   6.503   3.712
10488TIP3    H231422   0.775   6.372   3.656
10489TIP3   OH231423   2.830   7.411   2.788
10489TIP3    H131424   2.864   7.419   2.877
10489TIP3    H231425   2.792   7.323   2.784
10490TIP3   OH231426   2.581   5.135   1.733
10490TIP3    H131427   2.508   5.194   1.751
10490TIP3    H231428   2.656   5.173   1.778
10491TIP3   OH231429   7.235   6.159   3.413
10491TIP3    H131430   7.283   6.231   3.372
10491TIP3    H231431   7.186   6.200   3.484
10492TIP3   OH231432   1.942   2.276   2.966
10492TIP3    H131433   1.950   2.190   3.007
10492TIP3    H231434   1.848   2.291   2.958
10493TIP3   OH231435   5.597   0.740   4.508
10493TIP3    H131436   5.544   0.818   4.488
10493TIP3    H231437   5.541   0.686   4.563
10494TIP3   OH231438   0.674   3.725   3.440
10494TIP3    H131439   0.744   3.660   3.431
10494TIP3    H231440   0.695   3.793   3.376
10495TIP3   OH231441   6.179   4.084   6.169
10495TIP3    H131442   6.124   4.122   6.101
10495TIP3    H231443   6.172   4.146   6.242
10496TIP3   OH231444   8.156   5.919   0.412
10496TIP3    H131445   8.175   5.841   0.465
10496TIP3    H231446   8.234   5.974   0.422
10497TIP3   OH231447   0.276   6.314   5.024
10497TIP3    H131448   0.225   6.247   4.978
10497TIP3    H231449   0.347   6.335   4.964
10498TIP3   OH231450   7.552   6.432   1.702
10498TIP3    H131451   7.532   6.516   1.662
10498TIP3    H231452   7.520   6.367   1.640
10499TIP3   OH231453   7.773   4.195   2.861
10499TIP3    H131454   7.709   4.266   2.859
10499TIP3    H231455   7.804   4.187   2.771
10500TIP3   OH231456   5.750   0.681   6.267
10500TIP3    H131457   5.797   0.664   6.349
10500TIP3    H231458   5.731   0.594   6.232
10501TIP3   OH231459   1.252   5.781   2.608
10501TIP3    H131460   1.298   5.703   2.577
10501TIP3    H231461   1.159   5.760   2.596
10502TIP3   OH231462   0.493   1.103   1.819
10502TIP3    H131463   0.540   1.117   1.737
10502TIP3    H231464   0.432   1.177   1.824
10503TIP3   OH231465   6.075   1.232   2.786
10503TIP3    H131466   6.031   1.224   2.871
10503TIP3    H231467   6.110   1.144   2.769
10504TIP3   OH231468   5.372   6.713   2.079
10504TIP3    H131469   5.363   6.783   2.015
10504TIP3    H231470   5.403   6.758   2.158
10505TIP3   OH231471   3.739   5.672   1.551
10505TIP3    H131472   3.644   5.668   1.555
10505TIP3    H231473   3.760   5.651   1.460
10506TIP3   OH231474   6.652   1.919   2.969
10506TIP3    H131475   6.744   1.944   2.962
10506TIP3    H231476   6.650   1.854   3.039
10507TIP3   OH231477   8.241   0.399   3.566
10507TIP3    H131478   8.274   0.310   3.570
10507TIP3    H231479   8.147   0.390   3.548
10508TIP3   OH231480   8.037   0.817   1.679
10508TIP3    H131481   7.993   0.777   1.604
10508TIP3    H231482   8.050   0.908   1.654
10509TIP3   OH231483   2.184   3.843   5.726
10509TIP3    H131484   2.275   3.846   5.756
10509TIP3    H231485   2.186   3.882   5.638
10510TIP3   OH231486   5.476   1.227   3.495
10510TIP3    H131487   5.543   1.159   3.504
10510TIP3    H231488   5.490   1.285   3.570
10511TIP3   OH231489   7.485   4.403   3.878
10511TIP3    H131490   7.575   4.385   3.852
10511TIP3    H231491   7.464   4.486   3.835
10512TIP3   OH231492   4.662   1.517   1.290
10512TIP3    H131493   4.692   1.587   1.348
10512TIP3    H231494   4.669   1.438   1.343
10513TIP3   OH231495   1.508   6.740   0.569
10513TIP3    H131496   1.581   6.796   0.541
10513TIP3    H231497   1.492   6.683   0.493
10514TIP3   OH231498   0.122   3.047   4.293
10514TIP3    H131499   0.169   3.067   4.213
10514TIP3    H231500   0.029   3.047   4.268
10515TIP3   OH231501   4.651   5.010   1.404
10515TIP3    H131502   4.620   4.926   1.369
10515TIP3    H231503   4.597   5.075   1.360
10516TIP3   OH231504   5.453   2.126   5.473
10516TIP3    H131505   5.423   2.046   5.516
10516TIP3    H231506   5.503   2.172   5.540
10517TIP3   OH231507   2.325   4.917   3.005
10517TIP3    H131508   2.324   4.842   2.945
10517TIP3    H231509   2.409   4.959   2.989
10518TIP3   OH231510   5.172   5.063   1.606
10518TIP3    H131511   5.224   5.053   1.685
10518TIP3    H231512   5.214   5.135   1.558
10519TIP3   OH231513   0.487   0.479   0.182
10519TIP3    H131514   0.460   0.485   0.274
10519TIP3    H231515   0.574   0.439   0.186
10520TIP3   OH231516   8.013   1.132   2.053
10520TIP3    H131517   8.005   1.108   2.145
10520TIP3    H231518   7.927   1.115   2.015
10521TIP3   OH231519   3.438   4.696   4.671
10521TIP3    H131520   3.397   4.718   4.587
10521TIP3    H231521   3.412   4.605   4.686
10522TIP3   OH231522   0.552   3.802   0.491
10522TIP3    H131523   0.505   3.883   0.511
10522TIP3    H231524   0.641   3.817   0.525
10523TIP3   OH231525   3.210   6.784   0.558
10523TIP3    H131526   3.128   6.766   0.605
10523TIP3    H231527   3.229   6.702   0.512
10524TIP3   OH231528   7.350   2.918   4.518
10524TIP3    H131529   7.443   2.917   4.541
10524TIP3    H231530   7.348   2.950   4.428
10525TIP3   OH231531   6.125   2.152   3.153
10525TIP3    H131532   6.119   2.057   3.162
10525TIP3    H231533   6.210   2.174   3.189
10526TIP3   OH231534   3.397   2.995   3.631
10526TIP3    H131535   3.330   3.053   3.669
10526TIP3    H231536   3.480   3.037   3.654
10527TIP3   OH231537   3.608   0.425   4.840
10527TIP3    H131538   3.526   0.441   4.794
10527TIP3    H231539   3.586   0.361   4.908
10528TIP3   OH231540   0.887   2.683   3.309
10528TIP3    H131541   0.798   2.704   3.278
10528TIP3    H231542   0.936   2.765   3.298
10529TIP3   OH231543   6.728   4.230   4.282
10529TIP3    H131544   6.793   4.299   4.272
10529TIP3    H231545   6.694   4.215   4.194
10530TIP3   OH231546   2.254   7.188   4.593
10530TIP3    H131547   2.287   7.277   4.605
10530TIP3    H231548   2.324   7.142   4.547
10531TIP3   OH231549   7.734   5.178   4.294
10531TIP3    H131550   7.812   5.198   4.345
10531TIP3    H231551   7.750   5.217   4.208
10532TIP3   OH231552   7.097   2.053   1.191
10532TIP3    H131553   7.081   1.974   1.139
10532TIP3    H231554   7.167   2.030   1.251
10533TIP3   OH231555   2.012   2.025   5.876
10533TIP3    H131556   1.974   1.982   5.799
10533TIP3    H231557   2.009   1.959   5.945
10534TIP3   OH231558   2.951   0.850   4.439
10534TIP3    H131559   2.857   0.867   4.429
10534TIP3    H231560   2.987   0.935   4.466
10535TIP3   OH231561   3.627   6.759   0.548
10535TIP3    H131562   3.662   6.679   0.587
10535TIP3    H231563   3.573   6.728   0.474
10536TIP3   OH231564   5.175   7.225   2.641
10536TIP3    H131565   5.267   7.232   2.667
10536TIP3    H231566   5.177   7.207   2.547
10537TIP3   OH231567   3.698   4.269   2.065
10537TIP3    H131568   3.692   4.197   2.002
10537TIP3    H231569   3.675   4.347   2.014
10538TIP3   OH231570   1.806   5.234   1.052
10538TIP3    H131571   1.901   5.244   1.049
10538TIP3    H231572   1.786   5.171   0.983
10539TIP3   OH231573   3.028   6.445   5.751
10539TIP3    H131574   2.998   6.499   5.677
10539TIP3    H231575   3.076   6.373   5.710
10540TIP3   OH231576   6.302   5.381   5.278
10540TIP3    H131577   6.250   5.347   5.351
10540TIP3    H231578   6.393   5.365   5.304
10541TIP3   OH231579   1.130   5.017   2.008
10541TIP3    H131580   1.160   4.963   1.935
10541TIP3    H231581   1.125   4.957   2.082
10542TIP3   OH231582   2.798   2.591   6.544
10542TIP3    H131583   2.815   2.685   6.548
10542TIP3    H231584   2.706   2.582   6.569
10543TIP3   OH231585   7.114   5.962   4.929
10543TIP3    H131586   7.156   6.047   4.940
10543TIP3    H231587   7.166   5.902   4.983
10544TIP3   OH231588   4.470   5.010   3.367
10544TIP3    H131589   4.561   5.019   3.337
10544TIP3    H231590   4.417   5.039   3.293
10545TIP3   OH231591   0.735   5.118   6.524
10545TIP3    H131592   0.770   5.182   6.462
10545TIP3    H231593   0.697   5.170   6.594
10546TIP3   OH231594   5.279   2.705   6.013
10546TIP3    H131595   5.318   2.691   6.099
10546TIP3    H231596   5.332   2.652   5.953
10547TIP3   OH231597   4.102   3.929   4.130
10547TIP3    H131598   4.139   3.842   4.149
10547TIP3    H231599   4.160   3.966   4.064
10548TIP3   OH231600   5.243   1.095   4.848
10548TIP3    H131601   5.334   1.075   4.825
10548TIP3    H231602   5.208   1.013   4.880
10549TIP3   OH231603   6.013   5.744   2.670
10549TIP3    H131604   6.072   5.809   2.632
10549TIP3    H231605   6.062   5.704   2.741
10550TIP3   OH231606   0.494   2.041   4.457
10550TIP3    H131607   0.482   2.134   4.477
10550TIP3    H231608   0.589   2.028   4.465
10551TIP3   OH231609   5.118   6.379   5.525
10551TIP3    H131610   5.124   6.319   5.599
10551TIP3    H231611   5.033   6.359   5.485
10552TIP3   OH231612   4.382   4.439   5.840
10552TIP3    H131613   4.399   4.358   5.890
10552TIP3    H231614   4.458   4.494   5.857
10553TIP3   OH231615   7.362   4.331   0.776
10553TIP3    H131616   7.393   4.266   0.713
10553TIP3    H231617   7.435   4.392   0.786
10554TIP3   OH231618   1.105   5.151   3.546
10554TIP3    H131619   1.191   5.155   3.505
10554TIP3    H231620   1.122   5.132   3.638
10555TIP3   OH231621   6.491   0.956   3.675
10555TIP3    H131622   6.449   1.033   3.713
10555TIP3    H231623   6.578   0.987   3.649
10556TIP3   OH231624   3.497   0.237   3.950
10556TIP3    H131625   3.525   0.240   4.042
10556TIP3    H231626   3.413   0.281   3.949
10557TIP3   OH231627   2.568   1.439   3.036
10557TIP3    H131628   2.513   1.421   2.960
10557TIP3    H231629   2.586   1.353   3.074
10558TIP3   OH231630   6.283   3.387   1.259
10558TIP3    H131631   6.249   3.412   1.345
10558TIP3    H231632   6.377   3.407   1.264
10559TIP3   OH231633   3.528   6.472   2.925
10559TIP3    H131634   3.550   6.438   3.011
10559TIP3    H231635   3.583   6.423   2.864
10560TIP3   OH231636   1.503   1.744   5.633
10560TIP3    H131637   1.420   1.789   5.619
10560TIP3    H231638   1.558   1.810   5.675
10561TIP3   OH231639   3.472   6.480   5.782
10561TIP3    H131640   3.462   6.529   5.700
10561TIP3    H231641   3.509   6.544   5.843
10562TIP3   OH231642   3.779   2.669   4.168
10562TIP3    H131643   3.776   2.575   4.187
10562TIP3    H231644   3.714   2.681   4.099
10563TIP3   OH231645   4.827   2.681   2.832
10563TIP3    H131646   4.867   2.645   2.911
10563TIP3    H231647   4.747   2.631   2.820
10564TIP3   OH231648   6.331   0.674   3.629
10564TIP3    H131649   6.376   0.750   3.666
10564TIP3    H231650   6.399   0.626   3.582
10565TIP3   OH231651   1.195   7.491   2.255
10565TIP3    H131652   1.188   7.578   2.216
10565TIP3    H231653   1.119   7.443   2.222
10566TIP3   OH231654   4.143   5.120   1.001
10566TIP3    H131655   4.153   5.120   0.906
10566TIP3    H231656   4.224   5.159   1.034
10567TIP3   OH231657   2.657   2.958   5.355
10567TIP3    H131658   2.589   3.018   5.323
10567TIP3    H231659   2.631   2.872   5.320
10568TIP3   OH231660   1.674   7.407   5.854
10568TIP3    H131661   1.710   7.361   5.930
10568TIP3    H231662   1.654   7.338   5.791
10569TIP3   OH231663   2.133   2.659   3.403
10569TIP3    H131664   2.201   2.635   3.466
10569TIP3    H231665   2.079   2.724   3.449
10570TIP3   OH231666   4.518   3.923   3.558
10570TIP3    H131667   4.580   3.959   3.622
10570TIP3    H231668   4.540   3.967   3.476
10571TIP3   OH231669   2.693   5.222   0.522
10571TIP3    H131670   2.649   5.307   0.526
10571TIP3    H231671   2.740   5.223   0.439
10572TIP3   OH231672   7.331   6.602   1.506
10572TIP3    H131673   7.275   6.639   1.438
10572TIP3    H231674   7.413   6.651   1.499
10573TIP3   OH231675   0.132   3.651   5.417
10573TIP3    H131676   0.183   3.721   5.376
10573TIP3    H231677   0.065   3.697   5.468
10574TIP3   OH231678   6.065   5.925   5.518
10574TIP3    H131679   6.021   5.843   5.496
10574TIP3    H231680   5.999   5.992   5.503
10575TIP3   OH231681   2.424   5.585   4.608
10575TIP3    H131682   2.338   5.546   4.590
10575TIP3    H231683   2.460   5.531   4.678
10576TIP3   OH231684   1.723   1.258   2.377
10576TIP3    H131685   1.673   1.192   2.425
10576TIP3    H231686   1.760   1.211   2.302
10577TIP3   OH231687   6.474   5.644   1.662
10577TIP3    H131688   6.379   5.656   1.668
10577TIP3    H231689   6.509   5.687   1.741
10578TIP3   OH231690   4.329   5.966   6.470
10578TIP3    H131691   4.350   5.896   6.408
10578TIP3    H231692   4.236   5.981   6.459
10579TIP3   OH231693   6.693   6.251   4.688
10579TIP3    H131694   6.661   6.183   4.629
10579TIP3    H231695   6.786   6.232   4.698
10580TIP3   OH231696   4.234   1.311   1.162
10580TIP3    H131697   4.271   1.319   1.074
10580TIP3    H231698   4.221   1.401   1.191
10581TIP3   OH231699   7.053   7.641   1.589
10581TIP3    H131700   7.143   7.613   1.606
10581TIP3    H231701   7.002   7.559   1.588
10582TIP3   OH231702   7.855   5.367   6.128
10582TIP3    H131703   7.810   5.348   6.046
10582TIP3    H231704   7.941   5.399   6.101
10583TIP3   OH231705   0.007   7.038   2.253
10583TIP3    H131706  -0.033   7.088   2.182
10583TIP3    H231707  -0.052   6.964   2.267
10584TIP3   OH231708   7.696   3.540   2.726
10584TIP3    H131709   7.644   3.491   2.662
10584TIP3    H231710   7.648   3.622   2.737
10585TIP3   OH231711   0.682   7.773   6.499
10585TIP3    H131712   0.712   7.705   6.559
10585TIP3    H231713   0.753   7.838   6.500
10586TIP3   OH231714   3.156   2.745   5.312
10586TIP3    H131715   3.204   2.805   5.255
10586TIP3    H231716   3.083   2.715   5.258
10587TIP3   OH231717   4.984   3.029   0.332
10587TIP3    H131718   4.923   3.058   0.400
10587TIP3    H231719   5.037   2.962   0.373
10588TIP3   OH231720   4.374   4.355   0.431
10588TIP3    H131721   4.437   4.366   0.360
10588TIP3    H231722   4.323   4.278   0.406
10589TIP3   OH231723   1.542   2.750   5.421
10589TIP3    H131724   1.521   2.702   5.501
10589TIP3    H231725   1.492   2.831   5.428
10590TIP3   OH231726   6.924   2.033   5.326
10590TIP3    H131727   6.945   1.945   5.355
10590TIP3    H231728   6.895   2.078   5.405
10591TIP3   OH231729   5.756   7.366   4.330
10591TIP3    H131730   5.727   7.389   4.242
10591TIP3    H231731   5.848   7.343   4.320
10592TIP3   OH231732   4.761   0.413   5.876
10592TIP3    H131733   4.708   0.471   5.931
10592TIP3    H231734   4.840   0.465   5.858
10593TIP3   OH231735   8.232   5.562   4.173
10593TIP3    H131736   8.173   5.635   4.156
10593TIP3    H231737   8.270   5.541   4.088
10594TIP3   OH231738   5.632   3.763   1.369
10594TIP3    H131739   5.612   3.728   1.456
10594TIP3    H231740   5.636   3.686   1.312
10595TIP3   OH231741   2.181   6.985   4.759
10595TIP3    H131742   2.086   6.995   4.766
10595TIP3    H231743   2.208   7.052   4.696
10596TIP3   OH231744   5.793   3.528   2.527
10596TIP3    H131745   5.871   3.475   2.516
10596TIP3    H231746   5.808   3.577   2.608
10597TIP3   OH231747   7.359   6.584   2.701
10597TIP3    H131748   7.380   6.627   2.784
10597TIP3    H231749   7.428   6.612   2.642
10598TIP3   OH231750   2.865   0.271   2.893
10598TIP3    H131751   2.940   0.254   2.950
10598TIP3    H231752   2.904   0.284   2.806
10599TIP3   OH231753   5.764   3.339   1.543
10599TIP3    H131754   5.678   3.296   1.540
10599TIP3    H231755   5.792   3.329   1.633
10600TIP3   OH231756   7.830   3.149   1.487
10600TIP3    H131757   7.890   3.077   1.468
10600TIP3    H231758   7.883   3.228   1.476
10601TIP3   OH231759   2.246   1.332   2.945
10601TIP3    H131760   2.320   1.352   2.887
10601TIP3    H231761   2.252   1.237   2.960
10602TIP3   OH231762   5.707   6.003   0.595
10602TIP3    H131763   5.778   6.058   0.561
10602TIP3    H231764   5.686   6.041   0.680
10603TIP3   OH231765   0.947   2.096   3.118
10603TIP3    H131766   0.940   2.167   3.055
10603TIP3    H231767   1.010   2.128   3.183
10604TIP3   OH231768   3.109   5.260   0.973
10604TIP3    H131769   3.129   5.347   1.006
10604TIP3    H231770   3.036   5.273   0.912
10605TIP3   OH231771   1.485   3.200   3.090
10605TIP3    H131772   1.470   3.106   3.092
10605TIP3    H231773   1.400   3.238   3.068
10606TIP3   OH231774   6.608   7.115   4.593
10606TIP3    H131775   6.618   7.089   4.501
10606TIP3    H231776   6.662   7.052   4.641
10607TIP3   OH231777   5.364   4.617   5.837
10607TIP3    H131778   5.305   4.640   5.766
10607TIP3    H231779   5.362   4.692   5.896
10608TIP3   OH231780   1.289   4.858   1.424
10608TIP3    H131781   1.249   4.933   1.468
10608TIP3    H231782   1.383   4.874   1.429
10609TIP3   OH231783   7.177   4.454   4.146
10609TIP3    H131784   7.093   4.410   4.138
10609TIP3    H231785   7.199   4.479   4.056
10610TIP3   OH231786   4.483   4.614   6.038
10610TIP3    H131787   4.534   4.551   6.088
10610TIP3    H231788   4.394   4.607   6.073
10611TIP3   OH231789   1.237   2.979   1.731
10611TIP3    H131790   1.259   2.970   1.638
10611TIP3    H231791   1.290   3.053   1.761
10612TIP3   OH231792   6.304   1.235   0.319
10612TIP3    H131793   6.288   1.175   0.246
10612TIP3    H231794   6.272   1.320   0.287
10613TIP3   OH231795   4.054   0.768   5.090
10613TIP3    H131796   4.034   0.862   5.080
10613TIP3    H231797   3.989   0.737   5.153
10614TIP3   OH231798   3.831   2.331   4.834
10614TIP3    H131799   3.796   2.245   4.855
10614TIP3    H231800   3.908   2.313   4.779
10615TIP3   OH231801   2.389   4.035   6.571
10615TIP3    H131802   2.412   3.967   6.634
10615TIP3    H231803   2.299   4.060   6.594
10616TIP3   OH231804   7.020   7.730   5.760
10616TIP3    H131805   7.012   7.653   5.705
10616TIP3    H231806   6.930   7.747   5.791
10617TIP3   OH231807   3.799   2.649   1.160
10617TIP3    H131808   3.734   2.581   1.176
10617TIP3    H231809   3.786   2.673   1.068
10618TIP3   OH231810   2.768   6.105   3.596
10618TIP3    H131811   2.795   6.025   3.642
10618TIP3    H231812   2.727   6.073   3.515
10619TIP3   OH231813   7.563   0.706   5.620
10619TIP3    H131814   7.604   0.620   5.605
10619TIP3    H231815   7.498   0.713   5.550
10620TIP3   OH231816   3.073   5.936   3.451
10620TIP3    H131817   3.045   5.975   3.534
10620TIP3    H231818   3.156   5.892   3.473
10621TIP3   OH231819   4.662   3.076   2.618
10621TIP3    H131820   4.610   3.112   2.546
10621TIP3    H231821   4.625   2.989   2.633
10622TIP3   OH231822   1.013   4.451   1.491
10622TIP3    H131823   1.004   4.386   1.421
10622TIP3    H231824   1.074   4.516   1.455
10623TIP3   OH231825   0.969   2.787   0.915
10623TIP3    H131826   0.899   2.776   0.979
10623TIP3    H231827   1.048   2.801   0.968
10624TIP3   OH231828   2.761   4.032   4.788
10624TIP3    H131829   2.730   3.989   4.867
10624TIP3    H231830   2.851   4.056   4.807
10625TIP3   OH231831   3.058   6.433   6.703
10625TIP3    H131832   3.020   6.392   6.625
10625TIP3    H231833   3.060   6.527   6.682
10626TIP3   OH231834   1.646   4.419   6.565
10626TIP3    H131835   1.587   4.392   6.635
10626TIP3    H231836   1.645   4.515   6.568
10627TIP3   OH231837   5.432   0.695   3.745
10627TIP3    H131838   5.489   0.730   3.676
10627TIP3    H231839   5.466   0.735   3.826
10628TIP3   OH231840   0.725   2.237   4.745
10628TIP3    H131841   0.729   2.331   4.761
10628TIP3    H231842   0.772   2.198   4.819
10629TIP3   OH231843   1.942   5.859   5.463
10629TIP3    H131844   1.933   5.809   5.544
10629TIP3    H231845   1.922   5.796   5.394
10630TIP3   OH231846   1.772   5.442   5.877
10630TIP3    H131847   1.788   5.418   5.968
10630TIP3    H231848   1.768   5.538   5.878
10631TIP3   OH231849   6.636   3.789   1.592
10631TIP3    H131850   6.677   3.795   1.678
10631TIP3    H231851   6.609   3.697   1.586
10632TIP3   OH231852   5.533   5.044   2.739
10632TIP3    H131853   5.599   5.104   2.776
10632TIP3    H231854   5.489   5.008   2.816
10633TIP3   OH231855   2.666   3.770   2.435
10633TIP3    H131856   2.694   3.774   2.527
10633TIP3    H231857   2.733   3.821   2.389
10634TIP3   OH231858   0.770   4.050   5.861
10634TIP3    H131859   0.790   4.098   5.781
10634TIP3    H231860   0.812   4.101   5.930
10635TIP3   OH231861   7.917   1.104   0.238
10635TIP3    H131862   7.984   1.067   0.296
10635TIP3    H231863   7.965   1.164   0.182
10636TIP3   OH231864   2.229   5.973   6.087
10636TIP3    H131865   2.195   5.914   6.155
10636TIP3    H231866   2.171   5.959   6.012
10637TIP3   OH231867   4.561   7.534   6.735
10637TIP3    H131868   4.577   7.441   6.753
10637TIP3    H231869   4.520   7.535   6.649
10638TIP3   OH231870   1.421   7.662   0.504
10638TIP3    H131871   1.347   7.674   0.445
10638TIP3    H231872   1.470   7.588   0.467
10639TIP3   OH231873   6.071   6.114   2.607
10639TIP3    H131874   6.085   6.205   2.580
10639TIP3    H231875   6.017   6.120   2.686
10640TIP3   OH231876   2.553   1.123   1.564
10640TIP3    H131877   2.539   1.029   1.556
10640TIP3    H231878   2.558   1.139   1.658
10641TIP3   OH231879   4.094   4.270   3.449
10641TIP3    H131880   4.150   4.207   3.404
10641TIP3    H231881   4.054   4.321   3.379
10642TIP3   OH231882   3.554   3.356   6.355
10642TIP3    H131883   3.504   3.277   6.375
10642TIP3    H231884   3.617   3.329   6.288
10643TIP3   OH231885   2.246   3.892   1.572
10643TIP3    H131886   2.192   3.900   1.651
10643TIP3    H231887   2.222   3.807   1.535
10644TIP3   OH231888   4.653   5.198   0.615
10644TIP3    H131889   4.596   5.129   0.581
10644TIP3    H231890   4.598   5.277   0.614
10645TIP3   OH231891   0.140   6.408   0.403
10645TIP3    H131892   0.148   6.455   0.320
10645TIP3    H231893   0.215   6.350   0.406
10646TIP3   OH231894   5.402   1.104   1.408
10646TIP3    H131895   5.485   1.075   1.369
10646TIP3    H231896   5.372   1.029   1.460
10647TIP3   OH231897   7.418   0.415   3.861
10647TIP3    H131898   7.405   0.322   3.844
10647TIP3    H231899   7.486   0.418   3.928
10648TIP3   OH231900   1.161   4.483   1.825
10648TIP3    H131901   1.162   4.488   1.729
10648TIP3    H231902   1.240   4.435   1.848
10649TIP3   OH231903   5.299   7.102   6.092
10649TIP3    H131904   5.290   7.195   6.112
10649TIP3    H231905   5.393   7.089   6.077
10650TIP3   OH231906   7.427   0.314   6.396
10650TIP3    H131907   7.396   0.401   6.422
10650TIP3    H231908   7.384   0.254   6.458
10651TIP3   OH231909   6.631   2.894   4.227
10651TIP3    H131910   6.658   2.959   4.161
10651TIP3    H231911   6.635   2.810   4.181
10652TIP3   OH231912   0.137   5.287   2.794
10652TIP3    H131913   0.141   5.192   2.806
10652TIP3    H231914   0.117   5.299   2.702
10653TIP3   OH231915   4.720   6.061   1.933
10653TIP3    H131916   4.710   6.032   1.842
10653TIP3    H231917   4.632   6.087   1.960
10654TIP3   OH231918   7.001   7.634   0.347
10654TIP3    H131919   7.049   7.562   0.386
10654TIP3    H231920   6.909   7.615   0.367
10655TIP3   OH231921   2.412   4.866   6.552
10655TIP3    H131922   2.356   4.889   6.477
10655TIP3    H231923   2.431   4.949   6.594
10656TIP3   OH231924   5.687   3.283   3.135
10656TIP3    H131925   5.672   3.361   3.189
10656TIP3    H231926   5.722   3.218   3.195
10657TIP3   OH231927   3.608   2.613   3.500
10657TIP3    H131928   3.552   2.573   3.434
10657TIP3    H231929   3.634   2.540   3.557
10658TIP3   OH231930   4.263   6.577   4.058
10658TIP3    H131931   4.181   6.545   4.021
10658TIP3    H231932   4.317   6.597   3.982
10659TIP3   OH231933   1.692   3.828   1.268
10659TIP3    H131934   1.763   3.768   1.248
10659TIP3    H231935   1.732   3.915   1.266
10660TIP3   OH231936   4.462   4.786   2.943
10660TIP3    H131937   4.483   4.766   2.852
10660TIP3    H231938   4.543   4.825   2.978
10661TIP3   OH231939   0.680   3.768   3.096
10661TIP3    H131940   0.686   3.675   3.118
10661TIP3    H231941   0.710   3.814   3.175
10662TIP3   OH231942   6.735   0.414   3.644
10662TIP3    H131943   6.674   0.481   3.614
10662TIP3    H231944   6.686   0.364   3.710
10663TIP3   OH231945   7.482   5.146   0.167
10663TIP3    H131946   7.522   5.231   0.182
10663TIP3    H231947   7.532   5.108   0.094
10664TIP3   OH231948   2.871   1.311   3.794
10664TIP3    H131949   2.928   1.309   3.871
10664TIP3    H231950   2.913   1.374   3.735
10665TIP3   OH231951   7.715   7.056   0.115
10665TIP3    H131952   7.717   6.980   0.056
10665TIP3    H231953   7.803   7.092   0.111
10666TIP3   OH231954   6.874   3.376   0.060
10666TIP3    H131955   6.878   3.423   0.143
10666TIP3    H231956   6.788   3.397   0.024
10667TIP3   OH231957   6.134   4.198   2.073
10667TIP3    H131958   6.185   4.273   2.043
10667TIP3    H231959   6.199   4.130   2.092
10668TIP3   OH231960   2.388   2.860   0.843
10668TIP3    H131961   2.388   2.765   0.830
10668TIP3    H231962   2.301   2.888   0.816
10669TIP3   OH231963   6.460   3.262   2.731
10669TIP3    H131964   6.536   3.246   2.788
10669TIP3    H231965   6.404   3.185   2.744
10670TIP3   OH231966   2.048   6.852   5.356
10670TIP3    H131967   2.112   6.826   5.289
10670TIP3    H231968   1.977   6.894   5.306
10671TIP3   OH231969   2.524   7.340   5.845
10671TIP3    H131970   2.479   7.375   5.768
10671TIP3    H231971   2.453   7.307   5.901
10672TIP3   OH231972   5.193   4.091   2.325
10672TIP3    H131973   5.145   4.078   2.407
10672TIP3    H231974   5.249   4.014   2.318
10673TIP3   OH231975   5.182   7.218   5.089
10673TIP3    H131976   5.107   7.257   5.133
10673TIP3    H231977   5.257   7.269   5.119
10674TIP3   OH231978   2.263   0.125   1.693
10674TIP3    H131979   2.308   0.079   1.622
10674TIP3    H231980   2.175   0.088   1.694
10675TIP3   OH231981   3.055   4.237   6.737
10675TIP3    H131982   3.093   4.325   6.732
10675TIP3    H231983   3.130   4.178   6.733
10676TIP3   OH231984   5.427   7.509   6.001
10676TIP3    H131985   5.520   7.523   6.021
10676TIP3    H231986   5.380   7.564   6.064
10677TIP3   OH231987   6.921   6.174   2.436
10677TIP3    H131988   6.883   6.185   2.348
10677TIP3    H231989   6.883   6.246   2.487
10678TIP3   OH231990   7.986   2.981   5.764
10678TIP3    H131991   8.038   2.900   5.767
10678TIP3    H231992   7.985   3.004   5.672
10679TIP3   OH231993   2.588   2.660   5.851
10679TIP3    H131994   2.511   2.712   5.873
10679TIP3    H231995   2.562   2.570   5.869
10680TIP3   OH231996   7.806   3.383   5.122
10680TIP3    H131997   7.855   3.466   5.118
10680TIP3    H231998   7.873   3.317   5.143
10681TIP3   OH231999   5.229   7.692   0.121
10681TIP3    H132000   5.322   7.692   0.144
10681TIP3    H232001   5.227   7.670   0.028
10682TIP3   OH232002   1.810   1.683   2.686
10682TIP3    H132003   1.902   1.662   2.705
10682TIP3    H232004   1.801   1.670   2.592
10683TIP3   OH232005   7.782   1.555   2.807
10683TIP3    H132006   7.732   1.475   2.792
10683TIP3    H232007   7.801   1.553   2.901
10684TIP3   OH232008   1.684   1.773   1.332
10684TIP3    H132009   1.598   1.811   1.313
10684TIP3    H232010   1.718   1.826   1.405
10685TIP3   OH232011   4.375   0.006   6.534
10685TIP3    H132012   4.428  -0.065   6.497
10685TIP3    H232013   4.349   0.059   6.459
10686TIP3   OH232014   1.046   0.762   2.871
10686TIP3    H132015   0.973   0.707   2.901
10686TIP3    H232016   1.032   0.846   2.916
10687TIP3   OH232017   0.871   1.422   5.619
10687TIP3    H132018   0.873   1.494   5.682
10687TIP3    H232019   0.935   1.446   5.552
10688TIP3   OH232020   5.627   7.523   0.704
10688TIP3    H132021   5.635   7.498   0.796
10688TIP3    H232022   5.594   7.613   0.707
10689TIP3   OH232023   3.042   6.627   4.725
10689TIP3    H132024   2.958   6.582   4.719
10689TIP3    H232025   3.054   6.666   4.638
10690TIP3   OH232026   7.660   2.789   5.667
10690TIP3    H132027   7.593   2.790   5.599
10690TIP3    H232028   7.680   2.882   5.683
10691TIP3   OH232029   5.614   6.726   5.909
10691TIP3    H132030   5.662   6.803   5.877
10691TIP3    H232031   5.581   6.684   5.829
10692TIP3   OH232032   8.087   7.238   5.890
10692TIP3    H132033   8.134   7.268   5.812
10692TIP3    H232034   8.132   7.157   5.915
10693TIP3   OH232035   7.682   1.905   3.381
10693TIP3    H132036   7.718   1.993   3.394
10693TIP3    H232037   7.594   1.910   3.418
10694TIP3   OH232038   4.534   1.115   5.089
10694TIP3    H132039   4.502   1.182   5.029
10694TIP3    H232040   4.538   1.159   5.174
10695TIP3   OH232041   5.410   7.049   4.897
10695TIP3    H132042   5.342   7.015   4.839
10695TIP3    H232043   5.385   7.017   4.984
10696TIP3   OH232044   1.478   7.176   4.587
10696TIP3    H132045   1.417   7.241   4.552
10696TIP3    H232046   1.450   7.164   4.678
10697TIP3   OH232047   6.073   5.652   6.270
10697TIP3    H132048   5.998   5.698   6.233
10697TIP3    H232049   6.042   5.619   6.354
10698TIP3   OH232050   1.439   5.346   6.636
10698TIP3    H132051   1.427   5.401   6.559
10698TIP3    H232052   1.374   5.377   6.699
10699TIP3   OH232053   5.189   3.144   5.081
10699TIP3    H132054   5.123   3.200   5.041
10699TIP3    H232055   5.244   3.115   5.007
10700TIP3   OH232056   4.240   1.072   6.443
10700TIP3    H132057   4.176   1.073   6.514
10700TIP3    H232058   4.189   1.055   6.364
10701TIP3   OH232059   4.525   5.191   3.878
10701TIP3    H132060   4.507   5.232   3.793
10701TIP3    H232061   4.565   5.260   3.930
10702TIP3   OH232062   2.059   6.072   1.089
10702TIP3    H132063   2.002   6.143   1.061
10702TIP3    H232064   2.010   6.027   1.158
10703TIP3   OH232065   5.895   0.498   3.417
10703TIP3    H132066   5.840   0.478   3.494
10703TIP3    H232067   5.971   0.441   3.428
10704TIP3   OH232068   2.995   1.036   2.549
10704TIP3    H132069   2.923   1.040   2.612
10704TIP3    H232070   3.073   1.055   2.600
10705TIP3   OH232071   7.852   0.935   1.323
10705TIP3    H132072   7.917   1.001   1.297
10705TIP3    H232073   7.844   0.878   1.246
10706TIP3   OH232074   6.226   6.588   6.210
10706TIP3    H132075   6.207   6.677   6.179
10706TIP3    H232076   6.267   6.545   6.135
10707TIP3   OH232077   2.057   6.393   0.355
10707TIP3    H132078   1.994   6.323   0.338
10707TIP3    H232079   2.010   6.473   0.332
10708TIP3   OH232080   6.050   4.053   3.704
10708TIP3    H132081   6.122   4.092   3.754
10708TIP3    H232082   6.033   4.116   3.633
10709TIP3   OH232083   3.780   4.999   0.636
10709TIP3    H132084   3.814   5.077   0.680
10709TIP3    H232085   3.815   4.925   0.686
10710TIP3   OH232086   0.989   6.532   3.834
10710TIP3    H132087   0.897   6.514   3.815
10710TIP3    H232088   1.037   6.464   3.787
10711TIP3   OH232089   3.590   3.373   3.544
10711TIP3    H132090   3.553   3.462   3.536
10711TIP3    H232091   3.551   3.338   3.624
10712TIP3   OH232092   6.677   0.587   1.299
10712TIP3    H132093   6.626   0.662   1.269
10712TIP3    H232094   6.768   0.613   1.284
10713TIP3   OH232095   8.112   2.665   4.637
10713TIP3    H132096   8.145   2.744   4.680
10713TIP3    H232097   8.183   2.638   4.579
10714TIP3   OH232098   2.728   7.747   4.616
10714TIP3    H132099   2.705   7.678   4.554
10714TIP3    H232100   2.710   7.709   4.702
10715TIP3   OH232101   7.496   4.207   3.587
10715TIP3    H132102   7.435   4.277   3.612
10715TIP3    H232103   7.572   4.253   3.553
10716TIP3   OH232104   2.160   6.276   0.824
10716TIP3    H132105   2.119   6.326   0.895
10716TIP3    H232106   2.254   6.283   0.840
10717TIP3   OH232107   4.183   3.202   5.019
10717TIP3    H132108   4.215   3.271   4.962
10717TIP3    H232109   4.230   3.123   4.992
10718TIP3   OH232110   8.103   6.737   4.813
10718TIP3    H132111   8.009   6.736   4.830
10718TIP3    H232112   8.115   6.802   4.744
10719TIP3   OH232113   1.534   4.850   3.402
10719TIP3    H132114   1.620   4.887   3.423
10719TIP3    H232115   1.472   4.915   3.435
10720TIP3   OH232116   6.992   4.793   1.460
10720TIP3    H132117   6.943   4.865   1.500
10720TIP3    H232118   7.052   4.835   1.399
10721TIP3   OH232119   6.341   3.595   6.745
10721TIP3    H132120   6.305   3.579   6.658
10721TIP3    H232121   6.324   3.514   6.794
10722TIP3   OH232122   7.580   0.991   1.416
10722TIP3    H132123   7.547   0.902   1.402
10722TIP3    H232124   7.652   1.000   1.353
10723TIP3   OH232125   2.388   1.578   4.497
10723TIP3    H132126   2.379   1.565   4.591
10723TIP3    H232127   2.304   1.616   4.470
10724TIP3   OH232128   2.031   0.676   5.341
10724TIP3    H132129   2.047   0.732   5.264
10724TIP3    H232130   2.081   0.718   5.411
10725TIP3   OH232131   5.833   1.360   3.701
10725TIP3    H132132   5.846   1.454   3.712
10725TIP3    H232133   5.831   1.326   3.790
10726TIP3   OH232134   8.202   3.993   5.800
10726TIP3    H132135   8.249   4.024   5.722
10726TIP3    H232136   8.115   3.971   5.769
10727TIP3   OH232137   3.990   2.966   6.049
10727TIP3    H132138   4.038   2.891   6.015
10727TIP3    H232139   3.924   2.985   5.982
10728TIP3   OH232140   1.930   0.700   6.427
10728TIP3    H132141   1.948   0.752   6.504
10728TIP3    H232142   2.005   0.713   6.370
10729TIP3   OH232143   1.267   2.183   2.558
10729TIP3    H132144   1.205   2.111   2.544
10729TIP3    H232145   1.348   2.140   2.584
10730TIP3   OH232146   3.398   4.627   6.024
10730TIP3    H132147   3.393   4.534   6.005
10730TIP3    H232148   3.345   4.669   5.956
10731TIP3   OH232149   6.325   4.330   4.928
10731TIP3    H132150   6.365   4.247   4.954
10731TIP3    H232151   6.387   4.396   4.958
10732TIP3   OH232152   0.738   1.347   3.742
10732TIP3    H132153   0.693   1.270   3.707
10732TIP3    H232154   0.762   1.323   3.831
10733TIP3   OH232155   7.608   5.122   2.712
10733TIP3    H132156   7.642   5.032   2.717
10733TIP3    H232157   7.681   5.176   2.742
10734TIP3   OH232158   5.649   1.100   1.229
10734TIP3    H132159   5.600   1.140   1.157
10734TIP3    H232160   5.662   1.009   1.202
10735TIP3   OH232161   3.523   6.923   4.317
10735TIP3    H132162   3.600   6.877   4.284
10735TIP3    H232163   3.450   6.864   4.297
10736TIP3   OH232164   5.110   0.251   3.687
10736TIP3    H132165   5.152   0.336   3.706
10736TIP3    H232166   5.025   0.257   3.730
10737TIP3   OH232167   4.370   5.781   5.563
10737TIP3    H132168   4.321   5.752   5.486
10737TIP3    H232169   4.444   5.830   5.529
10738TIP3   OH232170   5.497   2.467   2.284
10738TIP3    H132171   5.418   2.517   2.260
10738TIP3    H232172   5.513   2.411   2.209
10739TIP3   OH232173   4.002   6.471   2.441
10739TIP3    H132174   4.094   6.458   2.465
10739TIP3    H232175   3.965   6.383   2.440
10740TIP3   OH232176   5.636   5.613   4.992
10740TIP3    H132177   5.611   5.590   4.903
10740TIP3    H232178   5.682   5.536   5.025
10741TIP3   OH232179   4.685   1.088   2.812
10741TIP3    H132180   4.751   1.152   2.783
10741TIP3    H232181   4.724   1.047   2.889
10742TIP3   OH232182   1.774   4.740   0.155
10742TIP3    H132183   1.808   4.806   0.096
10742TIP3    H232184   1.694   4.778   0.191
10743TIP3   OH232185   7.546   0.305   5.776
10743TIP3    H132186   7.638   0.283   5.789
10743TIP3    H232187   7.545   0.360   5.698
10744TIP3   OH232188   0.129   0.319   4.789
10744TIP3    H132189   0.189   0.249   4.768
10744TIP3    H232190   0.163   0.357   4.871
10745TIP3   OH232191   8.113   4.863   6.293
10745TIP3    H132192   8.030   4.898   6.262
10745TIP3    H232193   8.159   4.940   6.328
10746TIP3   OH232194   3.001   5.244   0.048
10746TIP3    H132195   3.048   5.173   0.004
10746TIP3    H232196   3.070   5.297   0.088
10747TIP3   OH232197   8.299   4.557   3.863
10747TIP3    H132198   8.253   4.544   3.780
10747TIP3    H232199   8.343   4.473   3.879
10748TIP3   OH232200   2.719   7.287   0.687
10748TIP3    H132201   2.672   7.306   0.606
10748TIP3    H232202   2.731   7.192   0.687
10749TIP3   OH232203   5.184   2.812   2.275
10749TIP3    H132204   5.116   2.747   2.291
10749TIP3    H232205   5.139   2.883   2.228
10750TIP3   OH232206   1.711   2.710   3.783
10750TIP3    H132207   1.771   2.733   3.712
10750TIP3    H232208   1.657   2.640   3.747
10751TIP3   OH232209   2.385   5.640   3.690
10751TIP3    H132210   2.313   5.693   3.658
10751TIP3    H232211   2.457   5.658   3.630
10752TIP3   OH232212   3.062   7.809   0.840
10752TIP3    H132213   3.062   7.890   0.891
10752TIP3    H232214   3.132   7.756   0.879
10753TIP3   OH232215   0.625   7.782   1.968
10753TIP3    H132216   0.557   7.768   2.033
10753TIP3    H232217   0.704   7.744   2.007
10754TIP3   OH232218   1.811   1.863   2.959
10754TIP3    H132219   1.791   1.909   2.878
10754TIP3    H232220   1.731   1.815   2.980
10755TIP3   OH232221   1.188   1.697   0.356
10755TIP3    H132222   1.249   1.769   0.365
10755TIP3    H232223   1.103   1.739   0.342
10756TIP3   OH232224   5.982   2.893   5.509
10756TIP3    H132225   5.934   2.968   5.472
10756TIP3    H232226   6.073   2.908   5.484
10757TIP3   OH232227   2.846   1.059   2.777
10757TIP3    H132228   2.761   1.052   2.819
10757TIP3    H232229   2.907   1.076   2.849
10758TIP3   OH232230   2.094   1.777   4.117
10758TIP3    H132231   2.027   1.717   4.149
10758TIP3    H232232   2.055   1.864   4.127
10759TIP3   OH232233   8.284   4.128   6.188
10759TIP3    H132234   8.196   4.151   6.159
10759TIP3    H232235   8.302   4.043   6.149
10760TIP3   OH232236   5.406   1.492   3.087
10760TIP3    H132237   5.478   1.462   3.143
10760TIP3    H232238   5.444   1.498   2.999
10761TIP3   OH232239   5.473   6.618   6.394
10761TIP3    H132240   5.457   6.528   6.366
10761TIP3    H232241   5.567   6.631   6.385
10762TIP3   OH232242   3.413   5.759   5.199
10762TIP3    H132243   3.369   5.843   5.185
10762TIP3    H232244   3.435   5.728   5.111
10763TIP3   OH232245   0.369   7.574   2.032
10763TIP3    H132246   0.344   7.664   2.053
10763TIP3    H232247   0.440   7.554   2.093
10764TIP3   OH232248   3.053   7.822   5.201
10764TIP3    H132249   3.145   7.832   5.225
10764TIP3    H232250   3.018   7.762   5.267
10765TIP3   OH232251   4.484   1.462   4.751
10765TIP3    H132252   4.388   1.456   4.751
10765TIP3    H232253   4.511   1.410   4.676
10766TIP3   OH232254   4.188   6.566   5.227
10766TIP3    H132255   4.118   6.584   5.164
10766TIP3    H232256   4.189   6.470   5.234
10767TIP3   OH232257   4.577   7.815   2.859
10767TIP3    H132258   4.661   7.860   2.859
10767TIP3    H232259   4.550   7.812   2.951
10768TIP3   OH232260   1.178   1.627   6.169
10768TIP3    H132261   1.243   1.558   6.183
10768TIP3    H232262   1.199   1.664   6.083
10769TIP3   OH232263   4.379   1.431   0.982
10769TIP3    H132264   4.470   1.417   1.010
10769TIP3    H232265   4.360   1.521   1.008
10770TIP3   OH232266   5.723   2.067   0.361
10770TIP3    H132267   5.770   2.127   0.302
10770TIP3    H232268   5.738   2.103   0.448
10771TIP3   OH232269   1.323   5.755   6.270
10771TIP3    H132270   1.375   5.823   6.228
10771TIP3    H232271   1.332   5.679   6.213
10772TIP3   OH232272   7.258   7.782   0.021
10772TIP3    H132273   7.163   7.771   0.032
10772TIP3    H232274   7.275   7.756  -0.069
10773TIP3   OH232275   3.623   1.079   0.649
10773TIP3    H132276   3.699   1.037   0.689
10773TIP3    H232277   3.564   1.007   0.628
10774TIP3   OH232278   5.949   4.533   1.478
10774TIP3    H132279   5.923   4.537   1.571
10774TIP3    H232280   5.998   4.452   1.470
10775TIP3   OH232281   2.024   1.504   5.746
10775TIP3    H132282   2.060   1.469   5.827
10775TIP3    H232283   2.064   1.451   5.677
10776TIP3   OH232284   4.478   1.342   2.664
10776TIP3    H132285   4.522   1.278   2.608
10776TIP3    H232286   4.398   1.365   2.617
10777TIP3   OH232287   7.521   1.681   1.398
10777TIP3    H132288   7.605   1.723   1.412
10777TIP3    H232289   7.457   1.740   1.437
10778TIP3   OH232290   7.874   0.485   1.648
10778TIP3    H132291   7.779   0.477   1.655
10778TIP3    H232292   7.887   0.551   1.579
10779TIP3   OH232293   1.024   1.122   0.621
10779TIP3    H132294   1.039   1.053   0.556
10779TIP3    H232295   1.061   1.201   0.582
10780TIP3   OH232296   7.871   1.573   0.984
10780TIP3    H132297   7.776   1.576   0.990
10780TIP3    H232298   7.897   1.498   1.038
10781TIP3   OH232299   4.802   0.993   3.034
10781TIP3    H132300   4.808   0.910   3.080
10781TIP3    H232301   4.877   1.044   3.066
10782TIP3   OH232302   6.697   6.784   5.158
10782TIP3    H132303   6.726   6.695   5.142
10782TIP3    H232304   6.721   6.802   5.249
10783TIP3   OH232305   6.321   0.077   4.183
10783TIP3    H132306   6.341   0.002   4.240
10783TIP3    H232307   6.297   0.147   4.244
10784TIP3   OH232308   3.867   0.316   0.408
10784TIP3    H132309   3.954   0.347   0.430
10784TIP3    H232310   3.862   0.229   0.446
10785TIP3   OH232311   8.283   1.310   4.137
10785TIP3    H132312   8.363   1.320   4.085
10785TIP3    H232313   8.311   1.260   4.214
10786TIP3   OH232314   6.805   6.301   0.515
10786TIP3    H132315   6.865   6.365   0.477
10786TIP3    H232316   6.845   6.216   0.496
10787TIP3   OH232317   7.114   6.362   4.626
10787TIP3    H132318   7.070   6.351   4.541
10787TIP3    H232319   7.078   6.292   4.681
10788TIP3   OH232320   6.289   5.657   4.847
10788TIP3    H132321   6.206   5.669   4.892
10788TIP3    H232322   6.354   5.702   4.901
10789TIP3   OH232323   2.827   1.505   6.414
10789TIP3    H132324   2.772   1.442   6.461
10789TIP3    H232325   2.786   1.514   6.328
10790TIP3   OH232326   3.401   3.920   3.188
10790TIP3    H132327   3.484   3.893   3.148
10790TIP3    H232328   3.357   3.971   3.120
10791TIP3   OH232329   0.876   1.646   1.642
10791TIP3    H132330   0.939   1.576   1.662
10791TIP3    H232331   0.922   1.727   1.664
10792TIP3   OH232332   6.053   0.430   0.299
10792TIP3    H132333   6.090   0.408   0.385
10792TIP3    H232334   5.975   0.374   0.293
10793TIP3   OH232335   3.411   1.296   4.943
10793TIP3    H132336   3.384   1.313   5.033
10793TIP3    H232337   3.341   1.241   4.907
10794TIP3   OH232338   7.132   0.194   0.690
10794TIP3    H132339   7.075   0.117   0.699
10794TIP3    H232340   7.221   0.158   0.691
10795TIP3   OH232341   8.227   1.911   6.525
10795TIP3    H132342   8.248   1.909   6.431
10795TIP3    H232343   8.132   1.923   6.528
10796TIP3   OH232344   1.141   4.530   6.153
10796TIP3    H132345   1.222   4.580   6.139
10796TIP3    H232346   1.086   4.588   6.206
10797TIP3   OH232347   0.410   7.276   2.038
10797TIP3    H132348   0.379   7.217   2.106
10797TIP3    H232349   0.352   7.261   1.964
10798TIP3   OH232350   6.260   1.100   0.053
10798TIP3    H132351   6.211   1.157  -0.006
10798TIP3    H232352   6.208   1.020   0.059
10799TIP3   OH232353   3.490   3.640   3.549
10799TIP3    H132354   3.457   3.720   3.507
10799TIP3    H232355   3.414   3.605   3.596
10800TIP3   OH232356   7.753   7.801   0.283
10800TIP3    H132357   7.749   7.756   0.367
10800TIP3    H232358   7.827   7.861   0.290
10801TIP3   OH232359   6.157   0.367   3.983
10801TIP3    H132360   6.215   0.396   3.912
10801TIP3    H232361   6.163   0.272   3.982
10802TIP3   OH232362   2.367   0.774   5.178
10802TIP3    H132363   2.421   0.808   5.106
10802TIP3    H232364   2.277   0.791   5.150
10803TIP3   OH232365   3.429   2.692   2.425
10803TIP3    H132366   3.508   2.745   2.438
10803TIP3    H232367   3.430   2.629   2.498
10804TIP3   OH232368   3.391   3.545   4.010
10804TIP3    H132369   3.323   3.611   4.028
10804TIP3    H232370   3.441   3.539   4.092
10805TIP3   OH232371   4.214   1.230   5.345
10805TIP3    H132372   4.198   1.224   5.439
10805TIP3    H232373   4.295   1.279   5.337
10806TIP3   OH232374   0.246   1.474   2.677
10806TIP3    H132375   0.182   1.509   2.615
10806TIP3    H232376   0.293   1.550   2.709
10807TIP3   OH232377   5.400   3.064   5.889
10807TIP3    H132378   5.334   2.995   5.895
10807TIP3    H232379   5.374   3.129   5.955
10808TIP3   OH232380   4.591   4.827   6.230
10808TIP3    H132381   4.609   4.740   6.196
10808TIP3    H232382   4.505   4.849   6.194
10809TIP3   OH232383   1.418   3.595   4.542
10809TIP3    H132384   1.329   3.583   4.510
10809TIP3    H232385   1.450   3.673   4.497
10810TIP3   OH232386   7.875   4.503   1.418
10810TIP3    H132387   7.784   4.535   1.419
10810TIP3    H232388   7.884   4.455   1.500
10811TIP3   OH232389   3.898   0.125   5.504
10811TIP3    H132390   3.826   0.174   5.465
10811TIP3    H232391   3.961   0.191   5.533
10812TIP3   OH232392   1.666   7.244   1.356
10812TIP3    H132393   1.576   7.268   1.379
10812TIP3    H232394   1.720   7.299   1.414
10813TIP3   OH232395   3.290   1.567   0.578
10813TIP3    H132396   3.312   1.499   0.642
10813TIP3    H232397   3.373   1.609   0.557
10814TIP3   OH232398   0.021   3.302   2.876
10814TIP3    H132399   0.059   3.250   2.947
10814TIP3    H232400  -0.073   3.303   2.895
10815TIP3   OH232401   6.833   2.216   4.181
10815TIP3    H132402   6.854   2.274   4.108
10815TIP3    H232403   6.833   2.128   4.144
10816TIP3   OH232404   0.305   7.443   5.721
10816TIP3    H132405   0.354   7.490   5.789
10816TIP3    H232406   0.364   7.373   5.692
10817TIP3   OH232407   1.583   2.704   0.826
10817TIP3    H132408   1.491   2.679   0.828
10817TIP3    H232409   1.612   2.681   0.738
10818TIP3   OH232410   5.240   7.727   1.633
10818TIP3    H132411   5.207   7.638   1.621
10818TIP3    H232412   5.310   7.736   1.569
10819TIP3   OH232413   0.952   7.707   4.139
10819TIP3    H132414   0.975   7.794   4.172
10819TIP3    H232415   1.036   7.663   4.125
10820TIP3   OH232416   2.062   3.594   5.844
10820TIP3    H132417   2.125   3.541   5.794
10820TIP3    H232418   2.079   3.684   5.815
10821TIP3   OH232419   4.444   2.815   6.288
10821TIP3    H132420   4.470   2.798   6.379
10821TIP3    H232421   4.473   2.738   6.240
10822TIP3   OH232422   7.029   7.478   6.210
10822TIP3    H132423   7.113   7.468   6.255
10822TIP3    H232424   7.052   7.502   6.120
10823TIP3   OH232425   1.702   6.558   0.271
10823TIP3    H132426   1.612   6.591   0.277
10823TIP3    H232427   1.741   6.607   0.200
10824TIP3   OH232428   7.909   0.494   4.421
10824TIP3    H132429   7.865   0.423   4.467
10824TIP3    H232430   7.891   0.478   4.329
10825TIP3   OH232431   2.659   6.602   5.611
10825TIP3    H132432   2.714   6.679   5.626
10825TIP3    H232433   2.687   6.539   5.677
10826TIP3   OH232434   0.958   6.644   1.148
10826TIP3    H132435   1.003   6.723   1.117
10826TIP3    H232436   1.019   6.573   1.129
10827TIP3   OH232437   6.701   4.550   6.419
10827TIP3    H132438   6.666   4.463   6.403
10827TIP3    H232439   6.694   4.595   6.335
10828TIP3   OH232440   4.328   0.424   6.659
10828TIP3    H132441   4.352   0.502   6.710
10828TIP3    H232442   4.405   0.368   6.663
10829TIP3   OH232443   2.419   0.550   1.349
10829TIP3    H132444   2.335   0.511   1.324
10829TIP3    H232445   2.441   0.608   1.277
10830TIP3   OH232446   1.164   2.100   5.310
10830TIP3    H132447   1.237   2.058   5.264
10830TIP3    H232448   1.090   2.040   5.297
10831TIP3   OH232449   3.931   4.322   2.987
10831TIP3    H132450   3.917   4.414   2.963
10831TIP3    H232451   3.932   4.322   3.083
10832TIP3   OH232452   3.114   6.888   1.998
10832TIP3    H132453   3.132   6.960   2.058
10832TIP3    H232454   3.063   6.825   2.049
10833TIP3   OH232455   2.289   1.554   4.764
10833TIP3    H132456   2.383   1.562   4.783
10833TIP3    H232457   2.272   1.460   4.766
10834TIP3   OH232458   6.603   6.478   1.357
10834TIP3    H132459   6.670   6.501   1.293
10834TIP3    H232460   6.600   6.382   1.355
10835TIP3   OH232461   6.911   4.367   6.251
10835TIP3    H132462   6.923   4.434   6.317
10835TIP3    H232463   6.900   4.416   6.169
10836TIP3   OH232464   3.981   5.811   2.158
10836TIP3    H132465   4.008   5.787   2.069
10836TIP3    H232466   4.010   5.902   2.167
10837TIP3   OH232467   6.254   5.161   0.274
10837TIP3    H132468   6.315   5.220   0.230
10837TIP3    H232469   6.173   5.212   0.283
10838TIP3   OH232470   1.609   1.330   2.095
10838TIP3    H132471   1.644   1.247   2.065
10838TIP3    H232472   1.657   1.350   2.175
10839TIP3   OH232473   6.164   6.822   4.352
10839TIP3    H132474   6.197   6.900   4.397
10839TIP3    H232475   6.111   6.778   4.418
10840TIP3   OH232476   6.168   0.800   6.637
10840TIP3    H132477   6.177   0.724   6.694
10840TIP3    H232478   6.077   0.798   6.607
10841TIP3   OH232479   3.719   2.270   5.552
10841TIP3    H132480   3.767   2.352   5.539
10841TIP3    H232481   3.639   2.297   5.596
10842TIP3   OH232482   6.036   3.197   2.991
10842TIP3    H132483   6.009   3.198   2.899
10842TIP3    H232484   5.968   3.146   3.036
10843TIP3   OH232485   6.689   3.264   1.036
10843TIP3    H132486   6.683   3.240   1.129
10843TIP3    H232487   6.691   3.180   0.990
10844TIP3   OH232488   4.061   4.532   3.885
10844TIP3    H132489   4.130   4.492   3.937
10844TIP3    H232490   4.000   4.461   3.866
10845TIP3   OH232491   6.175   6.264   0.461
10845TIP3    H132492   6.240   6.334   0.471
10845TIP3    H232493   6.130   6.285   0.379
10846TIP3   OH232494   0.437   1.720   2.894
10846TIP3    H132495   0.387   1.750   2.817
10846TIP3    H232496   0.375   1.666   2.943
10847TIP3   OH232497   7.758   3.901   1.467
10847TIP3    H132498   7.839   3.850   1.461
10847TIP3    H232499   7.705   3.870   1.393
10848TIP3   OH232500   8.217   5.853   0.736
10848TIP3    H132501   8.285   5.794   0.768
10848TIP3    H232502   8.150   5.795   0.700
10849TIP3   OH232503   7.479   6.702   3.559
10849TIP3    H132504   7.456   6.776   3.503
10849TIP3    H232505   7.486   6.739   3.647
10850TIP3   OH232506   2.358   6.579   3.259
10850TIP3    H132507   2.402   6.663   3.264
10850TIP3    H232508   2.300   6.578   3.335
10851TIP3   OH232509   6.176   5.352   2.639
10851TIP3    H132510   6.088   5.316   2.629
10851TIP3    H232511   6.227   5.279   2.675
10852TIP3   OH232512   1.469   7.281   2.564
10852TIP3    H132513   1.504   7.203   2.607
10852TIP3    H232514   1.375   7.264   2.558
10853TIP3   OH232515   1.016   6.510   5.467
10853TIP3    H132516   1.098   6.479   5.505
10853TIP3    H232517   0.951   6.496   5.535
10854TIP3   OH232518   0.727   0.770   3.366
10854TIP3    H132519   0.646   0.748   3.319
10854TIP3    H232520   0.797   0.747   3.305
10855TIP3   OH232521   5.661   6.283   1.747
10855TIP3    H132522   5.625   6.371   1.757
10855TIP3    H232523   5.605   6.228   1.802
10856TIP3   OH232524   0.109   3.811   3.881
10856TIP3    H132525   0.023   3.848   3.904
10856TIP3    H232526   0.172   3.878   3.906
10857TIP3   OH232527   1.600   1.319   3.411
10857TIP3    H132528   1.595   1.364   3.495
10857TIP3    H232529   1.664   1.369   3.360
10858TIP3   OH232530   7.641   7.531   1.061
10858TIP3    H132531   7.578   7.603   1.053
10858TIP3    H232532   7.631   7.500   1.151
10859TIP3   OH232533   3.366   5.586   3.153
10859TIP3    H132534   3.404   5.671   3.174
10859TIP3    H232535   3.368   5.537   3.235
10860TIP3   OH232536   4.965   6.544   0.611
10860TIP3    H132537   4.950   6.506   0.525
10860TIP3    H232538   5.059   6.537   0.625
10861TIP3   OH232539   3.692   7.766   6.557
10861TIP3    H132540   3.671   7.721   6.476
10861TIP3    H232541   3.775   7.728   6.585
10862TIP3   OH232542   0.867   0.533   1.573
10862TIP3    H132543   0.874   0.628   1.568
10862TIP3    H232544   0.781   0.514   1.536
10863TIP3   OH232545   4.764   3.171   5.577
10863TIP3    H132546   4.817   3.200   5.651
10863TIP3    H232547   4.678   3.211   5.592
10864TIP3   OH232548   5.554   1.533   4.831
10864TIP3    H132549   5.601   1.550   4.912
10864TIP3    H232550   5.573   1.442   4.810
10865TIP3   OH232551   1.157   6.362   3.478
10865TIP3    H132552   1.068   6.364   3.444
10865TIP3    H232553   1.148   6.332   3.569
10866TIP3   OH232554   0.037   0.634   6.138
10866TIP3    H132555   0.090   0.634   6.217
10866TIP3    H232556  -0.030   0.567   6.154
10867TIP3   OH232557   0.483   4.399   2.095
10867TIP3    H132558   0.440   4.372   2.176
10867TIP3    H232559   0.576   4.403   2.118
10868TIP3   OH232560   5.823   4.500   0.618
10868TIP3    H132561   5.784   4.455   0.693
10868TIP3    H232562   5.861   4.430   0.565
10869TIP3   OH232563   1.060   1.628   3.619
10869TIP3    H132564   0.979   1.673   3.592
10869TIP3    H232565   1.030   1.562   3.682
10870TIP3   OH232566   0.272   1.682   1.985
10870TIP3    H132567   0.340   1.667   2.051
10870TIP3    H232568   0.196   1.633   2.018
10871TIP3   OH232569   3.042   3.011   6.259
10871TIP3    H132570   3.011   2.980   6.175
10871TIP3    H232571   3.138   3.007   6.253
10872TIP3   OH232572   3.361   5.636   0.146
10872TIP3    H132573   3.403   5.720   0.128
10872TIP3    H232574   3.421   5.593   0.207
10873TIP3   OH232575   5.376   6.865   0.847
10873TIP3    H132576   5.284   6.891   0.852
10873TIP3    H232577   5.421   6.942   0.812
10874TIP3   OH232578   3.379   2.360   3.624
10874TIP3    H132579   3.344   2.277   3.589
10874TIP3    H232580   3.318   2.426   3.591
10875TIP3   OH232581   1.681   2.212   5.440
10875TIP3    H132582   1.680   2.280   5.374
10875TIP3    H232583   1.735   2.143   5.403
10876TIP3   OH232584   4.808   4.530   3.349
10876TIP3    H132585   4.787   4.469   3.278
10876TIP3    H232586   4.841   4.474   3.420
10877TIP3   OH232587   2.818   5.321   4.788
10877TIP3    H132588   2.726   5.293   4.780
10877TIP3    H232589   2.865   5.243   4.815
10878TIP3   OH232590   3.418   5.482   5.971
10878TIP3    H132591   3.512   5.497   5.967
10878TIP3    H232592   3.379   5.569   5.978
10879TIP3   OH232593   5.194   1.947   1.580
10879TIP3    H132594   5.188   1.894   1.660
10879TIP3    H232595   5.138   1.902   1.517
10880TIP3   OH232596   2.166   5.627   2.170
10880TIP3    H132597   2.208   5.656   2.251
10880TIP3    H232598   2.237   5.623   2.106
10881TIP3   OH232599   6.944   4.610   1.195
10881TIP3    H132600   6.964   4.679   1.258
10881TIP3    H232601   6.983   4.639   1.113
10882TIP3   OH232602   0.950   1.794   0.412
10882TIP3    H132603   0.937   1.734   0.486
10882TIP3    H232604   0.904   1.874   0.438
10883TIP3   OH232605   3.028   1.147   2.985
10883TIP3    H132606   3.085   1.224   2.973
10883TIP3    H232607   3.048   1.116   3.073
10884TIP3   OH232608   2.885   6.079   0.410
10884TIP3    H132609   2.865   6.015   0.478
10884TIP3    H232610   2.927   6.028   0.341
10885TIP3   OH232611   1.122   5.037   0.257
10885TIP3    H132612   1.128   5.121   0.303
10885TIP3    H232613   1.136   5.059   0.165
10886TIP3   OH232614   1.661   4.950   5.745
10886TIP3    H132615   1.666   4.998   5.662
10886TIP3    H232616   1.738   4.893   5.745
10887TIP3   OH232617   0.917   1.063   0.871
10887TIP3    H132618   0.931   1.075   0.777
10887TIP3    H232619   1.004   1.043   0.906
10888TIP3   OH232620   7.741   6.340   0.600
10888TIP3    H132621   7.658   6.366   0.560
10888TIP3    H232622   7.807   6.391   0.552
10889TIP3   OH232623   2.148   5.535   5.970
10889TIP3    H132624   2.141   5.519   5.876
10889TIP3    H232625   2.235   5.572   5.982
10890TIP3   OH232626   6.603   0.503   0.707
10890TIP3    H132627   6.674   0.554   0.670
10890TIP3    H232628   6.638   0.468   0.789
10891TIP3   OH232629   5.387   0.300   1.281
10891TIP3    H132630   5.362   0.331   1.194
10891TIP3    H232631   5.482   0.289   1.277
10892TIP3   OH232632   3.371   2.664   4.193
10892TIP3    H132633   3.421   2.609   4.133
10892TIP3    H232634   3.395   2.754   4.169
10893TIP3   OH232635   6.940   7.779   2.957
10893TIP3    H132636   6.939   7.777   2.861
10893TIP3    H232637   6.848   7.783   2.982
10894TIP3   OH232638   6.394   1.482   5.670
10894TIP3    H132639   6.353   1.543   5.732
10894TIP3    H232640   6.481   1.519   5.654
10895TIP3   OH232641   0.535   7.278   6.757
10895TIP3    H132642   0.570   7.243   6.675
10895TIP3    H232643   0.536   7.204   6.818
10896TIP3   OH232644   5.151   3.810   1.776
10896TIP3    H132645   5.088   3.740   1.763
10896TIP3    H232646   5.236   3.767   1.767
10897TIP3   OH232647   4.397   2.670   1.475
10897TIP3    H132648   4.430   2.755   1.446
10897TIP3    H232649   4.475   2.613   1.477
10898TIP3   OH232650   2.954   0.260   6.695
10898TIP3    H132651   3.018   0.275   6.764
10898TIP3    H232652   3.005   0.258   6.614
10899TIP3   OH232653   1.145   1.996   0.558
10899TIP3    H132654   1.198   1.956   0.490
10899TIP3    H232655   1.075   2.041   0.511
10900TIP3   OH232656   4.742   4.727   2.770
10900TIP3    H132657   4.831   4.692   2.776
10900TIP3    H232658   4.686   4.654   2.796
10901TIP3   OH232659   0.693   7.526   3.340
10901TIP3    H132660   0.609   7.571   3.354
10901TIP3    H232661   0.705   7.474   3.420
10902TIP3   OH232662   1.806   6.703   1.322
10902TIP3    H132663   1.812   6.656   1.239
10902TIP3    H232664   1.893   6.740   1.336
10903TIP3   OH232665   1.456   7.366   2.874
10903TIP3    H132666   1.531   7.326   2.919
10903TIP3    H232667   1.419   7.295   2.822
10904TIP3   OH232668   0.115   5.399   5.632
10904TIP3    H132669   0.114   5.470   5.568
10904TIP3    H232670   0.206   5.392   5.659
10905TIP3   OH232671   0.886   1.913   4.186
10905TIP3    H132672   0.884   1.894   4.092
10905TIP3    H232673   0.917   1.831   4.226
10906TIP3   OH232674   4.909   7.073   6.047
10906TIP3    H132675   4.905   6.981   6.073
10906TIP3    H232676   4.973   7.112   6.106
10907TIP3   OH232677   7.313   4.289   4.578
10907TIP3    H132678   7.338   4.325   4.493
10907TIP3    H232679   7.227   4.329   4.597
10908TIP3   OH232680   7.915   6.263   3.828
10908TIP3    H132681   7.971   6.219   3.764
10908TIP3    H232682   7.827   6.232   3.808
10909TIP3   OH232683   8.111   7.734   6.614
10909TIP3    H132684   8.180   7.797   6.632
10909TIP3    H232685   8.040   7.758   6.674
10910TIP3   OH232686   0.352   1.257   1.494
10910TIP3    H132687   0.439   1.282   1.463
10910TIP3    H232688   0.359   1.163   1.511
10911TIP3   OH232689   4.005   0.352   1.472
10911TIP3    H132690   3.998   0.275   1.416
10911TIP3    H232691   3.949   0.333   1.547
10912TIP3   OH232692   7.280   7.036   1.071
10912TIP3    H132693   7.331   7.109   1.038
10912TIP3    H232694   7.311   6.960   1.022
10913TIP3   OH232695   5.897   5.261   6.412
10913TIP3    H132696   5.911   5.273   6.506
10913TIP3    H232697   5.809   5.297   6.396
10914TIP3   OH232698   6.249   0.629   5.459
10914TIP3    H132699   6.157   0.647   5.438
10914TIP3    H232700   6.252   0.535   5.476
10915TIP3   OH232701   2.051   3.939   5.061
10915TIP3    H132702   1.967   3.897   5.077
10915TIP3    H232703   2.060   4.003   5.132
10916TIP3   OH232704   7.150   2.783   2.327
10916TIP3    H132705   7.161   2.695   2.363
10916TIP3    H232706   7.114   2.834   2.399
10917TIP3   OH232707   0.228   6.213   6.077
10917TIP3    H132708   0.179   6.289   6.107
10917TIP3    H232709   0.284   6.190   6.151
10918TIP3   OH232710   0.098   2.625   4.714
10918TIP3    H132711   0.111   2.663   4.627
10918TIP3    H232712   0.056   2.695   4.764
10919TIP3   OH232713   3.798   1.099   4.466
10919TIP3    H132714   3.876   1.151   4.445
10919TIP3    H232715   3.832   1.009   4.473
10920TIP3   OH232716   4.077   5.155   4.601
10920TIP3    H132717   4.122   5.199   4.674
10920TIP3    H232718   4.003   5.110   4.642
10921TIP3   OH232719   2.239   3.727   2.541
10921TIP3    H132720   2.232   3.637   2.573
10921TIP3    H232721   2.294   3.720   2.463
10922TIP3   OH232722   1.871   3.503   2.612
10922TIP3    H132723   1.965   3.486   2.606
10922TIP3    H232724   1.861   3.595   2.587
10923TIP3   OH232725   0.921   5.182   1.886
10923TIP3    H132726   0.871   5.133   1.820
10923TIP3    H232727   0.981   5.118   1.924
10924TIP3   OH232728   1.395   2.840   5.847
10924TIP3    H132729   1.303   2.865   5.839
10924TIP3    H232730   1.412   2.786   5.771
10925TIP3   OH232731   7.736   7.243   3.347
10925TIP3    H132732   7.717   7.209   3.434
10925TIP3    H232733   7.830   7.228   3.335
10926TIP3   OH232734   7.474   5.341   2.571
10926TIP3    H132735   7.526   5.279   2.623
10926TIP3    H232736   7.538   5.401   2.534
10927TIP3   OH232737   3.914   0.868   6.543
10927TIP3    H132738   4.002   0.831   6.552
10927TIP3    H232739   3.857   0.793   6.527
10928TIP3   OH232740   5.118   3.354   1.687
10928TIP3    H132741   5.125   3.373   1.781
10928TIP3    H232742   5.165   3.426   1.645
10929TIP3   OH232743   7.469   1.361   1.633
10929TIP3    H132744   7.445   1.314   1.714
10929TIP3    H232745   7.419   1.317   1.565
10930TIP3   OH232746   0.963   7.507   5.109
10930TIP3    H132747   0.940   7.599   5.123
10930TIP3    H232748   0.886   7.458   5.139
10931TIP3   OH232749   0.252   5.993   4.303
10931TIP3    H132750   0.246   6.081   4.266
10931TIP3    H232751   0.228   5.934   4.231
10932TIP3   OH232752   7.364   1.589   4.376
10932TIP3    H132753   7.459   1.599   4.377
10932TIP3    H232754   7.331   1.667   4.421
10933TIP3   OH232755   7.934   7.770   0.775
10933TIP3    H132756   8.029   7.780   0.766
10933TIP3    H232757   7.922   7.744   0.867
10934TIP3   OH232758   6.433   5.836   2.426
10934TIP3    H132759   6.460   5.838   2.335
10934TIP3    H232760   6.371   5.908   2.435
10935TIP3   OH232761   5.303   2.005   3.667
10935TIP3    H132762   5.274   2.069   3.602
10935TIP3    H232763   5.284   2.045   3.751
10936TIP3   OH232764   6.000   7.267   6.401
10936TIP3    H132765   6.077   7.269   6.344
10936TIP3    H232766   5.946   7.341   6.371
10937TIP3   OH232767   2.929   1.531   3.657
10937TIP3    H132768   2.994   1.499   3.595
10937TIP3    H232769   2.899   1.614   3.619
10938TIP3   OH232770   2.461   1.358   1.127
10938TIP3    H132771   2.538   1.349   1.071
10938TIP3    H232772   2.397   1.404   1.072
10939TIP3   OH232773   7.248   0.054   1.282
10939TIP3    H132774   7.253   0.147   1.262
10939TIP3    H232775   7.335   0.020   1.259
10940TIP3   OH232776   7.450   6.929   2.244
10940TIP3    H132777   7.438   6.973   2.328
10940TIP3    H232778   7.378   6.867   2.240
10941TIP3   OH232779   2.235   4.522   4.037
10941TIP3    H132780   2.176   4.596   4.025
10941TIP3    H232781   2.303   4.554   4.096
10942TIP3   OH232782   7.601   5.499   4.114
10942TIP3    H132783   7.513   5.477   4.144
10942TIP3    H232784   7.589   5.529   4.024
10943TIP3   OH232785   0.695   3.215   1.886
10943TIP3    H132786   0.653   3.260   1.813
10943TIP3    H232787   0.640   3.139   1.903
10944TIP3   OH232788   7.133   3.394   3.735
10944TIP3    H132789   7.219   3.434   3.752
10944TIP3    H232790   7.112   3.421   3.646
10945TIP3   OH232791   3.874   4.768   4.828
10945TIP3    H132792   3.896   4.849   4.873
10945TIP3    H232793   3.843   4.709   4.897
10946TIP3   OH232794   0.426   0.017   1.898
10946TIP3    H132795   0.428   0.072   1.820
10946TIP3    H232796   0.492   0.055   1.956
10947TIP3   OH232797   0.795   4.729   1.738
10947TIP3    H132798   0.812   4.641   1.707
10947TIP3    H232799   0.878   4.756   1.779
10948TIP3   OH232800   5.081   5.246   1.327
10948TIP3    H132801   5.130   5.285   1.399
10948TIP3    H232802   5.141   5.181   1.289
10949TIP3   OH232803   2.317   6.157   3.080
10949TIP3    H132804   2.297   6.138   2.989
10949TIP3    H232805   2.245   6.118   3.129
10950TIP3   OH232806   1.517   5.109   0.017
10950TIP3    H132807   1.601   5.098  -0.027
10950TIP3    H232808   1.533   5.079   0.107
10951TIP3   OH232809   3.829   7.700   4.525
10951TIP3    H132810   3.745   7.680   4.483
10951TIP3    H232811   3.858   7.780   4.482
10952TIP3   OH232812   6.800   6.669   1.871
10952TIP3    H132813   6.787   6.716   1.788
10952TIP3    H232814   6.728   6.699   1.927
10953TIP3   OH232815   1.236   2.021   5.843
10953TIP3    H132816   1.168   2.080   5.811
10953TIP3    H232817   1.261   2.057   5.928
10954TIP3   OH232818   6.378   6.014   4.206
10954TIP3    H132819   6.351   5.988   4.118
10954TIP3    H232820   6.369   6.110   4.207
10955TIP3   OH232821   5.738   4.325   4.636
10955TIP3    H132822   5.783   4.255   4.683
10955TIP3    H232823   5.683   4.367   4.702
10956TIP3   OH232824   7.155   7.120   0.616
10956TIP3    H132825   7.237   7.169   0.606
10956TIP3    H232826   7.162   7.080   0.703
10957TIP3   OH232827   2.692   6.110   1.017
10957TIP3    H132828   2.614   6.159   1.041
10957TIP3    H232829   2.764   6.173   1.023
10958TIP3   OH232830   6.511   2.558   6.214
10958TIP3    H132831   6.549   2.638   6.178
10958TIP3    H232832   6.512   2.496   6.141
10959TIP3   OH232833   6.504   2.064   1.506
10959TIP3    H132834   6.514   2.155   1.481
10959TIP3    H232835   6.422   2.037   1.463
10960TIP3   OH232836   6.665   7.454   3.321
10960TIP3    H132837   6.593   7.393   3.305
10960TIP3    H232838   6.738   7.419   3.270
10961TIP3   OH232839   7.685   6.149   4.877
10961TIP3    H132840   7.735   6.157   4.797
10961TIP3    H232841   7.599   6.118   4.849
10962TIP3   OH232842   8.042   7.304   3.937
10962TIP3    H132843   8.020   7.212   3.921
10962TIP3    H232844   8.092   7.303   4.018
10963TIP3   OH232845   0.625   5.098   1.088
10963TIP3    H132846   0.585   5.057   1.164
10963TIP3    H232847   0.566   5.169   1.064
10964TIP3   OH232848   2.757   7.298   5.659
10964TIP3    H132849   2.684   7.284   5.719
10964TIP3    H232850   2.742   7.237   5.587
10965TIP3   OH232851   5.087   7.242   0.192
10965TIP3    H132852   5.074   7.337   0.192
10965TIP3    H232853   5.170   7.230   0.145
10966TIP3   OH232854   6.685   3.678   3.663
10966TIP3    H132855   6.777   3.706   3.655
10966TIP3    H232856   6.688   3.601   3.719
10967TIP3   OH232857   0.215   2.539   1.058
10967TIP3    H132858   0.238   2.455   1.097
10967TIP3    H232859   0.260   2.540   0.973
10968TIP3   OH232860   1.588   4.379   5.812
10968TIP3    H132861   1.534   4.443   5.858
10968TIP3    H232862   1.671   4.425   5.796
10969TIP3   OH232863   7.258   2.961   0.476
10969TIP3    H132864   7.202   3.036   0.457
10969TIP3    H232865   7.228   2.893   0.416
10970TIP3   OH232866   2.394   6.429   3.028
10970TIP3    H132867   2.369   6.488   3.099
10970TIP3    H232868   2.383   6.341   3.065
10971TIP3   OH232869   0.834   0.626   6.729
10971TIP3    H132870   0.819   0.595   6.818
10971TIP3    H232871   0.858   0.718   6.740
10972TIP3   OH232872   5.362   7.141   3.511
10972TIP3    H132873   5.316   7.223   3.497
10972TIP3    H232874   5.330   7.083   3.441
10973TIP3   OH232875   1.266   0.248   5.648
10973TIP3    H132876   1.221   0.265   5.731
10973TIP3    H232877   1.259   0.330   5.600
10974TIP3   OH232878   0.308   1.727   1.174
10974TIP3    H132879   0.325   1.775   1.255
10974TIP3    H232880   0.395   1.712   1.136
10975TIP3   OH232881   4.458   5.127   5.103
10975TIP3    H132882   4.403   5.051   5.083
10975TIP3    H232883   4.547   5.097   5.088
10976TIP3   OH232884   0.333   7.623   1.497
10976TIP3    H132885   0.281   7.589   1.424
10976TIP3    H232886   0.270   7.667   1.554
10977TIP3   OH232887   2.296   4.071   4.607
10977TIP3    H132888   2.385   4.105   4.597
10977TIP3    H232889   2.276   4.030   4.523
10978TIP3   OH232890   4.114   6.985   2.172
10978TIP3    H132891   4.135   6.966   2.081
10978TIP3    H232892   4.177   7.052   2.198
10979TIP3   OH232893   7.583   6.699   1.604
10979TIP3    H132894   7.625   6.742   1.678
10979TIP3    H232895   7.651   6.645   1.565
10980TIP3   OH232896   4.116   3.652   0.950
10980TIP3    H132897   4.043   3.658   0.889
10980TIP3    H232898   4.150   3.563   0.938
10981TIP3   OH232899   3.183   1.717   1.624
10981TIP3    H132900   3.162   1.700   1.716
10981TIP3    H232901   3.183   1.631   1.583
10982TIP3   OH232902   5.871   6.324   2.348
10982TIP3    H132903   5.857   6.231   2.369
10982TIP3    H232904   5.805   6.344   2.282
10983TIP3   OH232905   5.632   1.715   4.642
10983TIP3    H132906   5.602   1.636   4.687
10983TIP3    H232907   5.660   1.774   4.712
10984TIP3   OH232908   2.608   6.406   6.550
10984TIP3    H132909   2.546   6.449   6.609
10984TIP3    H232910   2.552   6.366   6.483
10985TIP3   OH232911   0.360   6.918   1.002
10985TIP3    H132912   0.357   6.867   1.083
10985TIP3    H232913   0.320   6.861   0.936
10986TIP3   OH232914   4.329   3.466   0.436
10986TIP3    H132915   4.240   3.491   0.410
10986TIP3    H232916   4.317   3.412   0.514
10987TIP3   OH232917   4.342   2.771   0.913
10987TIP3    H132918   4.359   2.795   1.004
10987TIP3    H232919   4.421   2.725   0.885
10988TIP3   OH232920   4.229   0.874   0.009
10988TIP3    H132921   4.303   0.933  -0.003
10988TIP3    H232922   4.153   0.931   0.016
10989TIP3   OH232923   3.300   1.132   0.644
10989TIP3    H132924   3.270   1.067   0.708
10989TIP3    H232925   3.334   1.204   0.696
10990TIP3   OH232926   3.410   3.800   0.540
10990TIP3    H132927   3.357   3.786   0.619
10990TIP3    H232928   3.361   3.756   0.470
10991TIP3   OH232929   3.027   1.315   6.605
10991TIP3    H132930   2.974   1.373   6.551
10991TIP3    H232931   2.982   1.312   6.689
10992TIP3   OH232932   4.260   0.621   2.025
10992TIP3    H132933   4.286   0.570   1.948
10992TIP3    H232934   4.171   0.592   2.045
10993TIP3   OH232935   2.029   6.190   2.044
10993TIP3    H132936   2.105   6.202   1.988
10993TIP3    H232937   2.023   6.271   2.095
10994TIP3   OH232938   5.341   3.158   6.178
10994TIP3    H132939   5.258   3.132   6.138
10994TIP3    H232940   5.316   3.214   6.251
10995TIP3   OH232941   3.643   7.330   3.271
10995TIP3    H132942   3.581   7.372   3.330
10995TIP3    H232943   3.589   7.280   3.210
10996TIP3   OH232944   7.546   7.273   2.523
10996TIP3    H132945   7.547   7.308   2.612
10996TIP3    H232946   7.615   7.320   2.477
10997TIP3   OH232947   4.131   2.709   4.062
10997TIP3    H132948   4.076   2.683   4.136
10997TIP3    H232949   4.072   2.759   4.005
10998TIP3   OH232950   3.659   0.500   3.720
10998TIP3    H132951   3.570   0.469   3.701
10998TIP3    H232952   3.675   0.566   3.653
10999TIP3   OH232953   5.197   6.415   4.911
10999TIP3    H132954   5.227   6.413   4.820
10999TIP3    H232955   5.255   6.478   4.954
11000TIP3   OH232956   2.340   5.977   2.603
11000TIP3    H132957   2.323   5.898   2.552
11000TIP3    H232958   2.348   6.047   2.538
11001TIP3   OH232959   1.195   6.250   6.096
11001TIP3    H132960   1.177   6.247   6.002
11001TIP3    H232961   1.113   6.223   6.137
11002TIP3   OH232962   4.903   7.464   0.782
11002TIP3    H132963   4.860   7.441   0.700
11002TIP3    H232964   4.838   7.447   0.849
11003TIP3   OH232965   7.955   2.020   5.011
11003TIP3    H132966   8.015   1.946   5.023
11003TIP3    H232967   8.009   2.088   4.972
11004TIP3   OH232968   6.451   4.585   4.573
11004TIP3    H132969   6.386   4.524   4.609
11004TIP3    H232970   6.535   4.552   4.605
11005TIP3   OH232971   4.852   1.290   4.316
11005TIP3    H132972   4.889   1.378   4.318
11005TIP3    H232973   4.896   1.244   4.387
11006TIP3   OH232974   6.729   5.723   3.965
11006TIP3    H132975   6.719   5.632   3.936
11006TIP3    H232976   6.725   5.718   4.060
11007TIP3   OH232977   7.919   6.727   3.916
11007TIP3    H132978   7.890   6.667   3.985
11007TIP3    H232979   7.908   6.677   3.835
11008TIP3   OH232980   5.147   4.273   1.375
11008TIP3    H132981   5.134   4.242   1.285
11008TIP3    H232982   5.236   4.306   1.376
11009TIP3   OH232983   3.449   1.752   5.837
11009TIP3    H132984   3.498   1.682   5.795
11009TIP3    H232985   3.438   1.818   5.768
11010TIP3   OH232986   1.801   4.203   4.494
11010TIP3    H132987   1.730   4.262   4.519
11010TIP3    H232988   1.863   4.206   4.567
11011TIP3   OH232989   1.675   6.513   2.214
11011TIP3    H132990   1.642   6.524   2.303
11011TIP3    H232991   1.638   6.586   2.165
11012TIP3   OH232992   6.997   1.010   4.401
11012TIP3    H132993   6.913   1.010   4.356
11012TIP3    H232994   7.062   1.009   4.331
11013TIP3   OH232995   3.690   1.315   3.985
11013TIP3    H132996   3.631   1.334   3.912
11013TIP3    H232997   3.652   1.238   4.027
11014TIP3   OH232998   2.213   4.171   2.737
11014TIP3    H132999   2.306   4.178   2.715
11014TIP3    H233000   2.175   4.253   2.706
11015TIP3   OH233001   3.695   2.535   1.778
11015TIP3    H133002   3.781   2.523   1.819
11015TIP3    H233003   3.682   2.454   1.727
11016TIP3   OH233004   8.159   5.532   0.731
11016TIP3    H133005   8.141   5.483   0.651
11016TIP3    H233006   8.077   5.529   0.780
11017TIP3   OH233007   3.439   0.873   0.562
11017TIP3    H133008   3.510   0.825   0.520
11017TIP3    H233009   3.359   0.837   0.524
11018TIP3   OH233010   5.371   1.934   5.684
11018TIP3    H133011   5.453   1.886   5.690
11018TIP3    H233012   5.305   1.867   5.664
11019TIP3   OH233013   2.500   2.950   6.392
11019TIP3    H133014   2.466   2.913   6.473
11019TIP3    H233015   2.470   3.041   6.392
11020TIP3   OH233016   0.957   2.939   3.947
11020TIP3    H133017   0.912   2.927   3.864
11020TIP3    H233018   0.952   2.853   3.990
11021TIP3   OH233019   6.465   4.704   5.315
11021TIP3    H133020   6.522   4.629   5.299
11021TIP3    H233021   6.415   4.680   5.393
11022TIP3   OH233022   5.185   0.540   2.698
11022TIP3    H133023   5.141   0.595   2.633
11022TIP3    H233024   5.162   0.578   2.782
11023TIP3   OH233025   5.835   1.264   0.940
11023TIP3    H133026   5.887   1.315   1.002
11023TIP3    H233027   5.837   1.174   0.975
11024TIP3   OH233028   3.155   7.447   5.379
11024TIP3    H133029   3.078   7.502   5.365
11024TIP3    H233030   3.176   7.411   5.293
11025TIP3   OH233031   4.114   5.827   3.061
11025TIP3    H133032   4.052   5.883   3.107
11025TIP3    H233033   4.090   5.835   2.968
11026TIP3   OH233034   1.755   4.944   2.416
11026TIP3    H133035   1.672   4.931   2.462
11026TIP3    H233036   1.740   4.909   2.328
11027TIP3   OH233037   0.942   4.169   6.269
11027TIP3    H133038   0.954   4.079   6.300
11027TIP3    H233039   0.927   4.220   6.349
11028TIP3   OH233040   3.863   1.048   6.336
11028TIP3    H133041   3.934   1.018   6.279
11028TIP3    H233042   3.887   1.016   6.423
11029TIP3   OH233043   6.241   7.096   3.264
11029TIP3    H133044   6.294   7.149   3.323
11029TIP3    H233045   6.279   7.009   3.270
11030TIP3   OH233046   5.322   0.411   1.003
11030TIP3    H133047   5.240   0.365   0.982
11030TIP3    H233048   5.369   0.414   0.920
11031TIP3   OH233049   8.256   6.999   0.487
11031TIP3    H133050   8.256   7.074   0.427
11031TIP3    H233051   8.215   6.929   0.437
11032TIP3   OH233052   8.305   5.229   6.144
11032TIP3    H133053   8.290   5.180   6.225
11032TIP3    H233054   8.259   5.178   6.077
11033TIP3   OH233055   1.111   0.870   2.563
11033TIP3    H133056   1.072   0.787   2.590
11033TIP3    H233057   1.133   0.914   2.646
11034TIP3   OH233058   7.746   2.988   2.633
11034TIP3    H133059   7.744   3.066   2.688
11034TIP3    H233060   7.656   2.956   2.631
11035TIP3   OH233061   7.310   1.857   0.744
11035TIP3    H133062   7.288   1.916   0.671
11035TIP3    H233063   7.382   1.804   0.711
11036TIP3   OH233064   4.206   4.174   0.254
11036TIP3    H133065   4.270   4.222   0.200
11036TIP3    H233066   4.167   4.110   0.194
11037TIP3   OH233067   4.089   7.700   2.979
11037TIP3    H133068   4.132   7.696   2.893
11037TIP3    H233069   4.161   7.697   3.042
11038TIP3   OH233070   6.771   1.866   6.214
11038TIP3    H133071   6.776   1.772   6.231
11038TIP3    H233072   6.805   1.877   6.125
11039TIP3   OH233073   5.438   3.957   1.664
11039TIP3    H133074   5.499   3.988   1.730
11039TIP3    H233075   5.479   3.979   1.581
11040TIP3   OH233076   5.988   1.702   2.315
11040TIP3    H133077   6.070   1.697   2.266
11040TIP3    H233078   6.013   1.736   2.401
11041TIP3   OH233079   7.543   6.983   5.654
11041TIP3    H133080   7.632   6.957   5.676
11041TIP3    H233081   7.526   7.059   5.709
11042TIP3   OH233082   2.047   5.366   5.295
11042TIP3    H133083   1.987   5.322   5.234
11042TIP3    H233084   2.134   5.348   5.260
11043TIP3   OH233085   5.287   2.086   5.041
11043TIP3    H133086   5.377   2.063   5.018
11043TIP3    H233087   5.257   2.140   4.968
11044TIP3   OH233088   3.341   0.208   1.876
11044TIP3    H133089   3.331   0.270   1.948
11044TIP3    H233090   3.365   0.126   1.918
11045TIP3   OH233091   4.866   1.136   1.654
11045TIP3    H133092   4.958   1.120   1.631
11045TIP3    H233093   4.832   1.188   1.582
11046TIP3   OH233094   4.570   3.026   1.632
11046TIP3    H133095   4.523   2.971   1.695
11046TIP3    H233096   4.640   3.066   1.683
11047TIP3   OH233097   4.158   6.419   6.768
11047TIP3    H133098   4.139   6.510   6.792
11047TIP3    H233099   4.199   6.426   6.681
11048TIP3   OH233100   3.195   0.907   4.949
11048TIP3    H133101   3.284   0.896   4.983
11048TIP3    H233102   3.192   0.853   4.870
11049TIP3   OH233103   1.273   1.298   0.498
11049TIP3    H133104   1.354   1.345   0.517
11049TIP3    H233105   1.302   1.215   0.459
11050TIP3   OH233106   8.127   5.218   3.100
11050TIP3    H133107   8.152   5.126   3.106
11050TIP3    H233108   8.038   5.222   3.136
11051TIP3   OH233109   6.082   2.478   1.286
11051TIP3    H133110   6.045   2.433   1.363
11051TIP3    H233111   6.017   2.465   1.217
11052TIP3   OH233112   3.503   4.671   2.199
11052TIP3    H133113   3.476   4.651   2.110
11052TIP3    H233114   3.523   4.586   2.238
11053TIP3   OH233115   6.814   3.264   4.295
11053TIP3    H133116   6.875   3.328   4.332
11053TIP3    H233117   6.747   3.251   4.363
11054TIP3   OH233118   6.865   7.677   6.460
11054TIP3    H133119   6.800   7.661   6.527
11054TIP3    H233120   6.833   7.629   6.383
11055TIP3   OH233121   4.703   3.661   1.090
11055TIP3    H133122   4.640   3.613   1.144
11055TIP3    H233123   4.778   3.603   1.084
11056TIP3   OH233124   2.894   1.377   2.683
11056TIP3    H133125   2.801   1.382   2.661
11056TIP3    H233126   2.914   1.283   2.681
11057TIP3   OH233127   6.729   3.351   5.563
11057TIP3    H133128   6.633   3.356   5.557
11057TIP3    H233129   6.756   3.315   5.478
11058TIP3   OH233130   5.030   4.829   3.257
11058TIP3    H133131   4.971   4.839   3.332
11058TIP3    H233132   5.051   4.919   3.231
11059TIP3   OH233133   7.486   4.319   5.728
11059TIP3    H133134   7.469   4.411   5.750
11059TIP3    H233135   7.414   4.271   5.769
11060TIP3   OH233136   5.472   0.296   1.891
11060TIP3    H133137   5.538   0.282   1.823
11060TIP3    H233138   5.443   0.386   1.879
11061TIP3   OH233139   1.213   0.021   5.504
11061TIP3    H133140   1.233   0.095   5.561
11061TIP3    H233141   1.198  -0.052   5.565
11062TIP3   OH233142   2.999   6.749   6.415
11062TIP3    H133143   2.954   6.696   6.349
11062TIP3    H233144   2.937   6.818   6.437
11063TIP3   OH233145   6.977   2.319   6.719
11063TIP3    H133146   6.884   2.302   6.705
11063TIP3    H233147   7.017   2.312   6.632
11064TIP3   OH233148   3.734   6.746   5.300
11064TIP3    H133149   3.772   6.803   5.234
11064TIP3    H233150   3.642   6.738   5.274
11065TIP3   OH233151   6.040   4.457   1.896
11065TIP3    H133152   5.988   4.393   1.847
11065TIP3    H233153   6.082   4.510   1.829
11066TIP3   OH233154   7.438   6.256   5.855
11066TIP3    H133155   7.432   6.212   5.940
11066TIP3    H233156   7.523   6.230   5.821
11067TIP3   OH233157   3.252   2.305   6.048
11067TIP3    H133158   3.317   2.250   6.003
11067TIP3    H233159   3.187   2.324   5.981
11068TIP3   OH233160   0.629   6.599   2.967
11068TIP3    H133161   0.569   6.530   2.994
11068TIP3    H233162   0.577   6.680   2.974
11069TIP3   OH233163   5.461   6.899   2.260
11069TIP3    H133164   5.483   6.947   2.340
11069TIP3    H233165   5.366   6.895   2.260
11070TIP3   OH233166   3.435   7.740   3.721
11070TIP3    H133167   3.376   7.666   3.706
11070TIP3    H233168   3.518   7.712   3.681
11071TIP3   OH233169   5.708   2.559   6.211
11071TIP3    H133170   5.631   2.523   6.168
11071TIP3    H233171   5.674   2.605   6.288
11072TIP3   OH233172   4.256   2.798   3.628
11072TIP3    H133173   4.330   2.747   3.662
11072TIP3    H233174   4.193   2.732   3.598
11073TIP3   OH233175   7.197   0.137   4.363
11073TIP3    H133176   7.254   0.203   4.323
11073TIP3    H233177   7.221   0.056   4.320
11074TIP3   OH233178   7.049   4.362   4.544
11074TIP3    H133179   7.006   4.308   4.610
11074TIP3    H233180   7.062   4.303   4.469
11075TIP3   OH233181   1.661   7.203   3.015
11075TIP3    H133182   1.642   7.110   3.002
11075TIP3    H233183   1.755   7.210   3.000
11076TIP3   OH233184   6.773   1.632   0.462
11076TIP3    H133185   6.728   1.715   0.480
11076TIP3    H233186   6.866   1.653   0.468
11077TIP3   OH233187   6.843   4.778   0.231
11077TIP3    H133188   6.750   4.781   0.257
11077TIP3    H233189   6.844   4.722   0.153
11078TIP3   OH233190   8.129   5.337   0.483
11078TIP3    H133191   8.063   5.269   0.497
11078TIP3    H233192   8.139   5.342   0.388
11079TIP3   OH233193   7.523   4.740   2.407
11079TIP3    H133194   7.442   4.781   2.437
11079TIP3    H233195   7.526   4.657   2.454
11080TIP3   OH233196   0.103   3.817   4.666
11080TIP3    H133197   0.077   3.804   4.757
11080TIP3    H233198   0.062   3.901   4.642
11081TIP3   OH233199   0.879   1.426   6.628
11081TIP3    H133200   0.873   1.357   6.693
11081TIP3    H233201   0.790   1.461   6.622
11082TIP3   OH233202   0.211   0.031   2.617
11082TIP3    H133203   0.141   0.009   2.678
11082TIP3    H233204   0.292   0.013   2.665
11083TIP3   OH233205   4.844   1.877   4.125
11083TIP3    H133206   4.887   1.887   4.040
11083TIP3    H233207   4.916   1.876   4.188
11084TIP3   OH233208   3.436   2.152   1.455
11084TIP3    H133209   3.403   2.130   1.369
11084TIP3    H233210   3.384   2.227   1.483
11085TIP3   OH233211   5.451   4.214   2.533
11085TIP3    H133212   5.381   4.214   2.468
11085TIP3    H233213   5.445   4.128   2.575
11086TIP3   OH233214   0.307   5.024   4.743
11086TIP3    H133215   0.261   5.049   4.663
11086TIP3    H233216   0.400   5.035   4.722
11087TIP3   OH233217   0.195   2.291   3.004
11087TIP3    H133218   0.138   2.227   2.961
11087TIP3    H233219   0.143   2.371   3.009
11088TIP3   OH233220   1.209   0.864   6.512
11088TIP3    H133221   1.238   0.903   6.430
11088TIP3    H233222   1.290   0.837   6.556
11089TIP3   OH233223   2.607   3.759   3.966
11089TIP3    H133224   2.611   3.773   4.060
11089TIP3    H233225   2.576   3.668   3.957
11090TIP3   OH233226   4.604   0.665   0.387
11090TIP3    H133227   4.610   0.633   0.297
11090TIP3    H233228   4.667   0.612   0.435
11091TIP3   OH233229   7.523   6.173   0.380
11091TIP3    H133230   7.551   6.130   0.461
11091TIP3    H233231   7.535   6.267   0.397
11092TIP3   OH233232   3.824   4.050   3.948
11092TIP3    H133233   3.833   3.968   3.901
11092TIP3    H233234   3.843   4.028   4.039
11093TIP3   OH233235   0.708   1.948   6.744
11093TIP3    H133236   0.721   2.041   6.726
11093TIP3    H233237   0.668   1.913   6.664
11094TIP3   OH233238   4.352   7.647   5.224
11094TIP3    H133239   4.361   7.558   5.258
11094TIP3    H233240   4.281   7.641   5.159
11095TIP3   OH233241   3.352   4.095   4.849
11095TIP3    H133242   3.419   4.032   4.874
11095TIP3    H233243   3.372   4.116   4.758
11096TIP3   OH233244   6.137   2.214   5.443
11096TIP3    H133245   6.062   2.270   5.462
11096TIP3    H233246   6.099   2.135   5.405
11097TIP3   OH233247   3.041   1.983   2.416
11097TIP3    H133248   3.125   1.942   2.436
11097TIP3    H233249   3.046   2.004   2.323
11098TIP3   OH233250   0.110   3.987   5.203
11098TIP3    H133251   0.171   3.933   5.253
11098TIP3    H233252   0.130   4.077   5.230
11099TIP3   OH233253   4.188   2.173   2.807
11099TIP3    H133254   4.189   2.246   2.870
11099TIP3    H233255   4.096   2.147   2.803
11100TIP3   OH233256   6.742   0.669   3.861
11100TIP3    H133257   6.754   0.712   3.776
11100TIP3    H233258   6.760   0.576   3.843
11101TIP3   OH233259   0.855   5.112   3.819
11101TIP3    H133260   0.950   5.113   3.827
11101TIP3    H233261   0.837   5.068   3.736
11102TIP3   OH233262   5.101   6.203   2.229
11102TIP3    H133263   5.031   6.260   2.259
11102TIP3    H233264   5.056   6.133   2.180
11103TIP3   OH233265   2.820   7.764   2.310
11103TIP3    H133266   2.765   7.777   2.388
11103TIP3    H233267   2.807   7.672   2.287
11104TIP3   OH233268   4.225   4.177   5.290
11104TIP3    H133269   4.284   4.182   5.365
11104TIP3    H233270   4.185   4.264   5.285
11105TIP3   OH233271   7.848   1.969   2.730
11105TIP3    H133272   7.943   1.975   2.724
11105TIP3    H233273   7.819   1.956   2.639
11106TIP3   OH233274   5.702   2.390   2.455
11106TIP3    H133275   5.749   2.470   2.477
11106TIP3    H233276   5.630   2.420   2.398
11107TIP3   OH233277   5.865   4.527   4.880
11107TIP3    H133278   5.935   4.466   4.904
11107TIP3    H233279   5.784   4.477   4.893
11108TIP3   OH233280   5.390   1.419   4.600
11108TIP3    H133281   5.380   1.326   4.582
11108TIP3    H233282   5.479   1.427   4.635
11109TIP3   OH233283   1.858   0.771   2.520
11109TIP3    H133284   1.851   0.851   2.468
11109TIP3    H233285   1.929   0.789   2.582
11110TIP3   OH233286   7.011   4.566   6.410
11110TIP3    H133287   6.961   4.647   6.421
11110TIP3    H233288   7.084   4.591   6.354
11111TIP3   OH233289   4.792   1.468   3.301
11111TIP3    H133290   4.762   1.380   3.322
11111TIP3    H233291   4.752   1.487   3.216
11112TIP3   OH233292   5.313   5.323   3.478
11112TIP3    H133293   5.397   5.367   3.494
11112TIP3    H233294   5.329   5.232   3.504
11113TIP3   OH233295   4.881   1.638   3.517
11113TIP3    H133296   4.802   1.692   3.521
11113TIP3    H233297   4.865   1.577   3.446
11114TIP3   OH233298   5.125   2.760   0.124
11114TIP3    H133299   5.159   2.792   0.040
11114TIP3    H233300   5.030   2.753   0.111
11115TIP3   OH233301   0.714   0.234   3.428
11115TIP3    H133302   0.636   0.216   3.377
11115TIP3    H233303   0.708   0.328   3.448
11116TIP3   OH233304   4.714   6.411   2.915
11116TIP3    H133305   4.747   6.496   2.943
11116TIP3    H233306   4.693   6.422   2.822
11117TIP3   OH233307   4.700   3.427   2.684
11117TIP3    H133308   4.738   3.340   2.681
11117TIP3    H233309   4.611   3.415   2.651
11118TIP3   OH233310   6.909   2.382   4.831
11118TIP3    H133311   6.846   2.334   4.777
11118TIP3    H233312   6.961   2.433   4.768
11119TIP3   OH233313   4.403   1.354   1.698
11119TIP3    H133314   4.400   1.305   1.780
11119TIP3    H233315   4.424   1.288   1.632
11120TIP3   OH233316   5.852   4.215   6.510
11120TIP3    H133317   5.932   4.260   6.540
11120TIP3    H233318   5.849   4.232   6.416
11121TIP3   OH233319   4.337   0.904   5.155
11121TIP3    H133320   4.290   0.904   5.072
11121TIP3    H233321   4.423   0.941   5.135
11122TIP3   OH233322   0.799   7.161   1.378
11122TIP3    H133323   0.839   7.238   1.418
11122TIP3    H233324   0.805   7.093   1.445
11123TIP3   OH233325   7.898   2.782   3.915
11123TIP3    H133326   7.904   2.751   4.005
11123TIP3    H233327   7.869   2.704   3.866
11124TIP3   OH233328   1.234   4.579   1.068
11124TIP3    H133329   1.181   4.499   1.072
11124TIP3    H233330   1.195   4.637   1.133
11125TIP3   OH233331   2.604   2.682   0.609
11125TIP3    H133332   2.518   2.718   0.584
11125TIP3    H233333   2.584   2.616   0.674
11126TIP3   OH233334   0.258   5.165   3.488
11126TIP3    H133335   0.314   5.210   3.552
11126TIP3    H233336   0.308   5.087   3.463
11127TIP3   OH233337   7.315   4.742   2.887
11127TIP3    H133338   7.223   4.769   2.882
11127TIP3    H233339   7.321   4.693   2.968
11128TIP3   OH233340   5.148   4.469   4.504
11128TIP3    H133341   5.242   4.462   4.516
11128TIP3    H233342   5.135   4.473   4.410
11129TIP3   OH233343   6.618   3.521   0.122
11129TIP3    H133344   6.635   3.606   0.161
11129TIP3    H233345   6.638   3.533   0.029
11130TIP3   OH233346   1.531   5.185   1.065
11130TIP3    H133347   1.510   5.105   1.017
11130TIP3    H233348   1.619   5.170   1.100
11131TIP3   OH233349   1.900   7.832   0.347
11131TIP3    H133350   1.841   7.768   0.306
11131TIP3    H233351   1.986   7.791   0.344
11132TIP3   OH233352   7.968   2.477   0.687
11132TIP3    H133353   7.979   2.570   0.668
11132TIP3    H233354   7.879   2.457   0.655
11133TIP3   OH233355   3.035   4.829   6.043
11133TIP3    H133356   3.015   4.745   6.086
11133TIP3    H233357   2.949   4.871   6.032
11134TIP3   OH233358   2.759   3.179   2.946
11134TIP3    H133359   2.804   3.179   3.031
11134TIP3    H233360   2.723   3.267   2.938
11135TIP3   OH233361   2.505   1.157   2.480
11135TIP3    H133362   2.442   1.187   2.546
11135TIP3    H233363   2.560   1.233   2.463
11136TIP3   OH233364   5.091   5.549   1.563
11136TIP3    H133365   5.175   5.543   1.608
11136TIP3    H233366   5.111   5.595   1.481
11137TIP3   OH233367   7.888   2.507   4.101
11137TIP3    H133368   7.903   2.428   4.049
11137TIP3    H233369   7.974   2.549   4.106
11138TIP3   OH233370   1.675   2.078   2.807
11138TIP3    H133371   1.580   2.081   2.796
11138TIP3    H233372   1.710   2.097   2.720
11139TIP3   OH233373   5.653   6.344   6.014
11139TIP3    H133374   5.679   6.300   6.095
11139TIP3    H233375   5.561   6.367   6.027
11140TIP3   OH233376   5.165   0.027   5.639
11140TIP3    H133377   5.122   0.078   5.708
11140TIP3    H233378   5.246  -0.005   5.679
11141TIP3   OH233379   0.124   5.493   0.269
11141TIP3    H133380   0.074   5.511   0.189
11141TIP3    H233381   0.191   5.429   0.242
11142TIP3   OH233382   7.237   1.938   4.660
11142TIP3    H133383   7.275   1.968   4.743
11142TIP3    H233384   7.264   1.846   4.653
11143TIP3   OH233385   6.668   0.961   5.070
11143TIP3    H133386   6.603   1.025   5.099
11143TIP3    H233387   6.694   0.991   4.983
11144TIP3   OH233388   2.684   6.184   2.496
11144TIP3    H133389   2.661   6.227   2.414
11144TIP3    H233390   2.722   6.254   2.550
11145TIP3   OH233391   1.654   6.939   6.058
11145TIP3    H133392   1.633   6.933   6.151
11145TIP3    H233393   1.577   6.904   6.013
11146TIP3   OH233394   8.262   5.246   5.437
11146TIP3    H133395   8.267   5.167   5.492
11146TIP3    H233396   8.303   5.314   5.490
11147TIP3   OH233397   2.436   6.741   5.962
11147TIP3    H133398   2.435   6.835   5.947
11147TIP3    H233399   2.371   6.706   5.901
11148TIP3   OH233400   7.927   4.698   3.323
11148TIP3    H133401   8.005   4.644   3.309
11148TIP3    H233402   7.957   4.788   3.314
11149TIP3   OH233403   7.460   7.317   5.520
11149TIP3    H133404   7.383   7.311   5.576
11149TIP3    H233405   7.469   7.229   5.482
11150TIP3   OH233406   7.009   3.134   0.432
11150TIP3    H133407   6.928   3.115   0.479
11150TIP3    H233408   6.995   3.098   0.344
11151TIP3   OH233409   2.940   2.531   3.424
11151TIP3    H133410   2.914   2.441   3.403
11151TIP3    H233411   2.921   2.541   3.517
11152TIP3   OH233412   1.836   4.498   2.253
11152TIP3    H133413   1.759   4.548   2.226
11152TIP3    H233414   1.801   4.425   2.303
11153TIP3   OH233415   0.263   4.567   1.392
11153TIP3    H133416   0.219   4.501   1.337
11153TIP3    H233417   0.198   4.636   1.402
11154TIP3   OH233418   6.075   3.159   0.164
11154TIP3    H133419   6.087   3.126   0.075
11154TIP3    H233420   6.011   3.100   0.203
11155TIP3   OH233421   6.428   7.314   4.907
11155TIP3    H133422   6.430   7.223   4.935
11155TIP3    H233423   6.415   7.310   4.812
11156TIP3   OH233424   6.640   2.360   2.421
11156TIP3    H133425   6.683   2.416   2.356
11156TIP3    H233426   6.657   2.403   2.505
11157TIP3   OH233427   2.188   5.232   0.341
11157TIP3    H133428   2.163   5.188   0.422
11157TIP3    H233429   2.105   5.246   0.295
11158TIP3   OH233430   4.831   5.305   5.918
11158TIP3    H133431   4.740   5.306   5.888
11158TIP3    H233432   4.825   5.276   6.009
11159TIP3   OH233433   4.372   1.754   4.872
11159TIP3    H133434   4.295   1.808   4.854
11159TIP3    H233435   4.418   1.749   4.788
11160TIP3   OH233436   6.960   2.266   4.442
11160TIP3    H133437   6.933   2.226   4.360
11160TIP3    H233438   7.039   2.315   4.421
11161TIP3   OH233439   0.620   2.927   0.624
11161TIP3    H133440   0.543   2.899   0.673
11161TIP3    H233441   0.587   2.951   0.538
11162TIP3   OH233442   8.063   2.460   5.562
11162TIP3    H133443   8.048   2.533   5.622
11162TIP3    H233444   8.027   2.490   5.479
11163TIP3   OH233445   3.265   0.454   1.050
11163TIP3    H133446   3.244   0.541   1.016
11163TIP3    H233447   3.359   0.446   1.038
11164TIP3   OH233448   6.241   5.465   1.903
11164TIP3    H133449   6.289   5.385   1.880
11164TIP3    H233450   6.305   5.519   1.948
11165TIP3   OH233451   4.961   3.035   4.655
11165TIP3    H133452   4.920   3.112   4.695
11165TIP3    H233453   4.892   2.968   4.657
11166TIP3   OH233454   5.550   0.163   4.060
11166TIP3    H133455   5.618   0.176   3.993
11166TIP3    H233456   5.469   0.193   4.017
11167TIP3   OH233457   6.096   2.285   0.004
11167TIP3    H133458   6.129   2.233   0.078
11167TIP3    H233459   6.103   2.376   0.034
11168TIP3   OH233460   6.676   7.028   3.971
11168TIP3    H133461   6.640   6.976   3.899
11168TIP3    H233462   6.602   7.077   4.005
11169TIP3   OH233463   1.825   3.809   1.540
11169TIP3    H133464   1.854   3.901   1.539
11169TIP3    H233465   1.751   3.806   1.480
11170TIP3   OH233466   5.945   0.938   4.706
11170TIP3    H133467   6.011   0.873   4.682
11170TIP3    H233468   5.982   1.021   4.676
11171TIP3   OH233469   8.021   4.918   1.405
11171TIP3    H133470   8.048   4.830   1.380
11171TIP3    H233471   7.925   4.916   1.400
11172TIP3   OH233472   2.229   4.940   6.345
11172TIP3    H133473   2.228   4.896   6.260
11172TIP3    H233474   2.149   4.993   6.345
11173TIP3   OH233475   4.590   6.834   4.353
11173TIP3    H133476   4.538   6.914   4.349
11173TIP3    H233477   4.552   6.784   4.425
11174TIP3   OH233478   1.936   0.382   3.966
11174TIP3    H133479   1.972   0.453   3.912
11174TIP3    H233480   1.930   0.307   3.906
11175TIP3   OH233481   3.647   1.855   6.508
11175TIP3    H133482   3.568   1.815   6.544
11175TIP3    H233483   3.685   1.904   6.581
11176TIP3   OH233484   4.472   2.149   2.163
11176TIP3    H133485   4.475   2.057   2.136
11176TIP3    H233486   4.498   2.147   2.255
11177TIP3   OH233487   6.209   4.216   0.321
11177TIP3    H133488   6.249   4.276   0.384
11177TIP3    H233489   6.206   4.132   0.366
11178TIP3   OH233490   5.327   6.393   1.723
11178TIP3    H133491   5.377   6.312   1.732
11178TIP3    H233492   5.389   6.456   1.686
11179TIP3   OH233493   7.091   5.811   4.401
11179TIP3    H133494   7.139   5.731   4.379
11179TIP3    H233495   7.045   5.790   4.482
11180TIP3   OH233496   1.033   4.878   5.880
11180TIP3    H133497   1.015   4.971   5.888
11180TIP3    H233498   1.098   4.860   5.948
11181TIP3   OH233499   4.682   5.257   0.166
11181TIP3    H133500   4.705   5.303   0.247
11181TIP3    H233501   4.598   5.294   0.140
11182TIP3   OH233502   4.093   0.683   4.384
11182TIP3    H133503   4.090   0.631   4.304
11182TIP3    H233504   4.100   0.773   4.353
11183TIP3   OH233505   5.203   3.820   3.990
11183TIP3    H133506   5.179   3.787   4.076
11183TIP3    H233507   5.256   3.898   4.008
11184TIP3   OH233508   7.497   5.829   5.207
11184TIP3    H133509   7.516   5.920   5.227
11184TIP3    H233510   7.507   5.822   5.112
11185TIP3   OH233511   3.636   5.775   1.975
11185TIP3    H133512   3.655   5.725   1.896
11185TIP3    H233513   3.553   5.739   2.007
11186TIP3   OH233514   4.620   1.255   3.267
11186TIP3    H133515   4.650   1.207   3.344
11186TIP3    H233516   4.616   1.188   3.198
11187TIP3   OH233517   4.774   0.280   5.217
11187TIP3    H133518   4.817   0.267   5.301
11187TIP3    H233519   4.841   0.319   5.161
11188TIP3   OH233520   6.595   3.411   3.787
11188TIP3    H133521   6.533   3.446   3.723
11188TIP3    H233522   6.539   3.375   3.856
11189TIP3   OH233523   3.387   3.715   5.015
11189TIP3    H133524   3.302   3.759   5.023
11189TIP3    H233525   3.445   3.783   4.983
11190TIP3   OH233526   2.619   0.195   2.145
11190TIP3    H133527   2.624   0.106   2.111
11190TIP3    H233528   2.692   0.240   2.104
11191TIP3   OH233529   7.956   1.812   1.086
11191TIP3    H133530   7.922   1.729   1.052
11191TIP3    H233531   8.050   1.796   1.097
11192TIP3   OH233532   5.566   2.469   3.412
11192TIP3    H133533   5.659   2.474   3.436
11192TIP3    H233534   5.539   2.381   3.439
11193TIP3   OH233535   3.015   5.734   5.118
11193TIP3    H133536   2.921   5.723   5.103
11193TIP3    H233537   3.051   5.645   5.111
11194TIP3   OH233538   2.127   1.892   0.069
11194TIP3    H133539   2.155   1.895   0.161
11194TIP3    H233540   2.176   1.819   0.032
11195TIP3   OH233541   1.749   0.290   5.194
11195TIP3    H133542   1.779   0.333   5.275
11195TIP3    H233543   1.664   0.253   5.217
11196TIP3   OH233544   2.664   2.937   0.748
11196TIP3    H133545   2.636   2.916   0.659
11196TIP3    H233546   2.754   2.968   0.738
11197TIP3   OH233547   3.884   7.592   1.686
11197TIP3    H133548   3.967   7.638   1.697
11197TIP3    H233549   3.834   7.646   1.625
11198TIP3   OH233550   3.484   2.724   1.880
11198TIP3    H133551   3.535   2.648   1.853
11198TIP3    H233552   3.427   2.743   1.806
11199TIP3   OH233553   3.968   2.708   0.851
11199TIP3    H133554   3.993   2.668   0.768
11199TIP3    H233555   4.009   2.653   0.918
11200TIP3   OH233556   4.644   1.780   6.701
11200TIP3    H133557   4.595   1.810   6.778
11200TIP3    H233558   4.642   1.684   6.707
11201TIP3   OH233559   3.142   6.219   1.274
11201TIP3    H133560   3.053   6.254   1.282
11201TIP3    H233561   3.167   6.238   1.184
11202TIP3   OH233562   3.997   6.716   0.797
11202TIP3    H133563   4.085   6.752   0.789
11202TIP3    H233564   3.939   6.792   0.790
11203TIP3   OH233565   6.153   3.305   5.542
11203TIP3    H133566   6.069   3.347   5.562
11203TIP3    H233567   6.134   3.249   5.466
11204TIP3   OH233568   4.149   7.743   1.975
11204TIP3    H133569   4.183   7.659   1.943
11204TIP3    H233570   4.107   7.721   2.058
11205TIP3   OH233571   1.880   2.184   0.971
11205TIP3    H133572   1.949   2.250   0.959
11205TIP3    H233573   1.839   2.207   1.054
11206TIP3   OH233574   8.257   2.878   1.790
11206TIP3    H133575   8.268   2.804   1.849
11206TIP3    H233576   8.346   2.899   1.760
11207TIP3   OH233577   2.681   6.373   1.982
11207TIP3    H133578   2.691   6.356   1.889
11207TIP3    H233579   2.762   6.417   2.008
11208TIP3   OH233580   3.644   4.952   6.030
11208TIP3    H133581   3.708   5.008   5.985
11208TIP3    H233582   3.655   4.974   6.122
11209TIP3   OH233583   6.091   1.804   3.124
11209TIP3    H133584   6.135   1.864   3.064
11209TIP3    H233585   6.050   1.739   3.066
11210TIP3   OH233586   1.633   5.855   2.261
11210TIP3    H133587   1.669   5.932   2.306
11210TIP3    H233588   1.547   5.843   2.300
11211TIP3   OH233589   6.780   1.282   0.659
11211TIP3    H133590   6.754   1.347   0.724
11211TIP3    H233591   6.714   1.213   0.666
11212TIP3   OH233592   8.246   4.438   1.638
11212TIP3    H133593   8.275   4.457   1.549
11212TIP3    H233594   8.255   4.343   1.647
11213TIP3   OH233595   2.613   4.266   1.862
11213TIP3    H133596   2.581   4.220   1.940
11213TIP3    H233597   2.616   4.358   1.889
11214TIP3   OH233598   2.319   2.116   1.924
11214TIP3    H133599   2.364   2.199   1.909
11214TIP3    H233600   2.235   2.141   1.963
11215TIP3   OH233601   4.583   7.248   4.263
11215TIP3    H133602   4.546   7.173   4.309
11215TIP3    H233603   4.592   7.218   4.172
11216TIP3   OH233604   1.408   4.125   5.029
11216TIP3    H133605   1.327   4.161   5.066
11216TIP3    H233606   1.407   4.152   4.937
11217TIP3   OH233607   2.578   4.121   5.719
11217TIP3    H133608   2.638   4.084   5.783
11217TIP3    H233609   2.505   4.059   5.717
11218TIP3   OH233610   7.078   5.937   3.299
11218TIP3    H133611   7.010   5.903   3.357
11218TIP3    H233612   7.140   5.981   3.358
11219TIP3   OH233613   6.095   1.224   2.507
11219TIP3    H133614   6.078   1.242   2.599
11219TIP3    H233615   6.149   1.145   2.507
11220TIP3   OH233616   1.295   6.392   0.897
11220TIP3    H133617   1.360   6.462   0.894
11220TIP3    H233618   1.347   6.312   0.910
11221TIP3   OH233619   7.201   6.470   0.986
11221TIP3    H133620   7.119   6.438   0.947
11221TIP3    H233621   7.241   6.392   1.024
11222TIP3   OH233622   6.146   2.415   0.389
11222TIP3    H133623   6.230   2.395   0.432
11222TIP3    H233624   6.089   2.343   0.414
11223TIP3   OH233625   5.348   4.322   2.084
11223TIP3    H133626   5.349   4.332   2.179
11223TIP3    H233627   5.257   4.341   2.059
11224TIP3   OH233628   1.958   0.136   1.967
11224TIP3    H133629   1.986   0.198   2.034
11224TIP3    H233630   1.866   0.118   1.989
11225TIP3   OH233631   0.183   6.002   1.706
11225TIP3    H133632   0.091   6.013   1.732
11225TIP3    H233633   0.188   5.913   1.674
11226TIP3   OH233634   7.440   5.760   4.259
11226TIP3    H133635   7.491   5.741   4.338
11226TIP3    H233636   7.363   5.704   4.267
11227TIP3   OH233637   2.366   0.501   5.702
11227TIP3    H133638   2.392   0.415   5.668
11227TIP3    H233639   2.365   0.558   5.625
11228TIP3   OH233640   0.551   3.167   0.300
11228TIP3    H133641   0.503   3.209   0.371
11228TIP3    H233642   0.515   3.078   0.296
11229TIP3   OH233643   0.267   4.275   5.229
11229TIP3    H133644   0.349   4.269   5.278
11229TIP3    H233645   0.292   4.262   5.137
11230TIP3   OH233646   2.830   4.239   2.192
11230TIP3    H133647   2.921   4.228   2.164
11230TIP3    H233648   2.832   4.314   2.251
11231TIP3   OH233649   2.601   0.939   5.271
11231TIP3    H133650   2.518   0.983   5.288
11231TIP3    H233651   2.589   0.851   5.308
11232TIP3   OH233652   5.458   2.617   1.940
11232TIP3    H133653   5.391   2.586   2.001
11232TIP3    H233654   5.410   2.672   1.878
11233TIP3   OH233655   5.003   7.507   0.161
11233TIP3    H133656   4.922   7.525   0.210
11233TIP3    H233657   5.055   7.587   0.172
11234TIP3   OH233658   4.317   3.790   4.023
11234TIP3    H133659   4.356   3.833   3.946
11234TIP3    H233660   4.248   3.735   3.987
11235TIP3   OH233661   1.243   3.093   0.396
11235TIP3    H133662   1.182   3.021   0.417
11235TIP3    H233663   1.232   3.155   0.468
11236TIP3   OH233664   4.157   5.060   0.490
11236TIP3    H133665   4.122   5.121   0.425
11236TIP3    H233666   4.119   4.975   0.467
11237TIP3   OH233667   6.333   1.444   2.726
11237TIP3    H133668   6.344   1.524   2.778
11237TIP3    H233669   6.422   1.417   2.705
11238TIP3   OH233670   2.366   7.662   2.518
11238TIP3    H133671   2.372   7.652   2.423
11238TIP3    H233672   2.415   7.588   2.553
11239TIP3   OH233673   0.174   6.668   5.932
11239TIP3    H133674   0.155   6.581   5.895
11239TIP3    H233675   0.128   6.669   6.015
11240TIP3   OH233676   2.049   4.350   3.914
11240TIP3    H133677   2.102   4.423   3.946
11240TIP3    H233678   1.968   4.390   3.884
11241TIP3   OH233679   0.738   6.875   5.064
11241TIP3    H133680   0.710   6.961   5.033
11241TIP3    H233681   0.783   6.893   5.147
11242TIP3   OH233682   0.940   0.776   5.736
11242TIP3    H133683   0.923   0.701   5.792
11242TIP3    H233684   1.021   0.755   5.690
11243TIP3   OH233685   0.798   1.788   3.164
11243TIP3    H133686   0.853   1.845   3.218
11243TIP3    H233687   0.715   1.782   3.211
11244TIP3   OH233688   3.192   3.844   0.225
11244TIP3    H133689   3.194   3.910   0.295
11244TIP3    H233690   3.112   3.795   0.242
11245TIP3   OH233691   4.783   2.345   1.148
11245TIP3    H133692   4.818   2.433   1.161
11245TIP3    H233693   4.860   2.288   1.147
11246TIP3   OH233694   8.175   6.429   1.269
11246TIP3    H133695   8.211   6.496   1.325
11246TIP3    H233696   8.104   6.389   1.321
11247TIP3   OH233697   6.793   1.324   2.476
11247TIP3    H133698   6.829   1.246   2.436
11247TIP3    H233699   6.796   1.307   2.570
11248TIP3   OH233700   3.980   0.682   5.372
11248TIP3    H133701   4.074   0.692   5.357
11248TIP3    H233702   3.948   0.772   5.380
11249TIP3   OH233703   6.969   2.253   1.325
11249TIP3    H133704   6.971   2.227   1.417
11249TIP3    H233705   7.042   2.205   1.285
11250TIP3   OH233706   5.626   5.822   4.610
11250TIP3    H133707   5.606   5.900   4.557
11250TIP3    H233708   5.684   5.770   4.554
11251TIP3   OH233709   4.390   1.590   2.153
11251TIP3    H133710   4.392   1.595   2.057
11251TIP3    H233711   4.303   1.555   2.174
11252TIP3   OH233712   4.009   3.336   6.408
11252TIP3    H133713   4.031   3.345   6.501
11252TIP3    H233714   4.052   3.255   6.381
11253TIP3   OH233715   6.098   4.651   2.140
11253TIP3    H133716   6.012   4.629   2.175
11253TIP3    H233717   6.109   4.592   2.065
11254TIP3   OH233718   4.256   1.046   1.256
11254TIP3    H133719   4.190   1.114   1.270
11254TIP3    H233720   4.283   1.057   1.165
11255TIP3   OH233721   2.546   6.643   6.203
11255TIP3    H133722   2.476   6.591   6.244
11255TIP3    H233723   2.510   6.667   6.117
11256TIP3   OH233724   5.575   6.976   2.520
11256TIP3    H133725   5.640   7.046   2.519
11256TIP3    H233726   5.590   6.930   2.603
11257TIP3   OH233727   0.823   0.072   0.063
11257TIP3    H133728   0.878   0.047   0.137
11257TIP3    H233729   0.770   0.145   0.095
11258TIP3   OH233730   1.245   1.231   0.126
11258TIP3    H133731   1.238   1.319   0.088
11258TIP3    H233732   1.311   1.187   0.072
11259TIP3   OH233733   5.059   1.848   3.096
11259TIP3    H133734   5.109   1.776   3.132
11259TIP3    H233735   5.029   1.816   3.011
11260TIP3   OH233736   8.295   5.325   2.248
11260TIP3    H133737   8.295   5.421   2.249
11260TIP3    H233738   8.219   5.302   2.195
11261TIP3   OH233739   7.208   1.121   6.130
11261TIP3    H133740   7.272   1.063   6.089
11261TIP3    H233741   7.228   1.116   6.224
11262TIP3   OH233742   7.134   1.194   0.239
11262TIP3    H133743   7.188   1.226   0.311
11262TIP3    H233744   7.196   1.164   0.173
11263TIP3   OH233745   1.590   0.668   6.121
11263TIP3    H133746   1.592   0.593   6.062
11263TIP3    H233747   1.538   0.639   6.195
11264TIP3   OH233748   8.244   5.640   0.458
11264TIP3    H133749   8.257   5.619   0.550
11264TIP3    H233750   8.331   5.635   0.419
11265TIP3   OH233751   6.735   1.532   6.552
11265TIP3    H133752   6.752   1.625   6.570
11265TIP3    H233753   6.705   1.531   6.461
11266TIP3   OH233754   5.882   1.084   0.036
11266TIP3    H133755   5.959   1.043   0.075
11266TIP3    H233756   5.818   1.089   0.107
11267TIP3   OH233757   5.699   0.428   0.555
11267TIP3    H133758   5.621   0.478   0.530
11267TIP3    H233759   5.685   0.342   0.516
11268TIP3   OH233760   6.965   6.450   1.414
11268TIP3    H133761   6.938   6.382   1.475
11268TIP3    H233762   6.896   6.451   1.347
11269TIP3   OH233763   8.206   1.434   1.472
11269TIP3    H133764   8.269   1.362   1.469
11269TIP3    H233765   8.126   1.393   1.506
11270TIP3   OH233766   3.917   5.613   3.647
11270TIP3    H133767   3.967   5.535   3.671
11270TIP3    H233768   3.925   5.620   3.552
11271TIP3   OH233769   4.024   0.258   2.030
11271TIP3    H133770   4.045   0.346   2.061
11271TIP3    H233771   3.939   0.239   2.069
11272TIP3   OH233772   1.011   2.771   2.142
11272TIP3    H133773   1.050   2.852   2.109
11272TIP3    H233774   1.076   2.704   2.123
11273TIP3   OH233775   5.817   2.150   3.107
11273TIP3    H133776   5.890   2.189   3.058
11273TIP3    H233777   5.741   2.202   3.081
11274TIP3   OH233778   0.060   4.676   4.114
11274TIP3    H133779   0.080   4.631   4.032
11274TIP3    H233780   0.064   4.607   4.181
11275TIP3   OH233781   7.053   5.615   3.389
11275TIP3    H133782   6.998   5.584   3.317
11275TIP3    H233783   6.992   5.632   3.461
11276TIP3   OH233784   4.065   2.334   1.243
11276TIP3    H133785   4.028   2.318   1.330
11276TIP3    H233786   4.017   2.410   1.210
11277TIP3   OH233787   7.537   6.746   4.688
11277TIP3    H133788   7.574   6.833   4.673
11277TIP3    H233789   7.453   6.748   4.643
11278TIP3   OH233790   0.361   0.785   3.401
11278TIP3    H133791   0.271   0.804   3.375
11278TIP3    H233792   0.414   0.836   3.340
11279TIP3   OH233793   1.021   7.424   4.312
11279TIP3    H133794   1.089   7.483   4.280
11279TIP3    H233795   0.969   7.403   4.234
11280TIP3   OH233796   7.888   2.705   5.145
11280TIP3    H133797   7.831   2.730   5.073
11280TIP3    H233798   7.974   2.741   5.121
11281TIP3   OH233799   2.047   5.404   0.585
11281TIP3    H133800   2.026   5.380   0.495
11281TIP3    H233801   2.048   5.321   0.632
11282TIP3   OH233802   0.988   5.112   2.573
11282TIP3    H133803   0.941   5.149   2.648
11282TIP3    H233804   0.918   5.083   2.514
11283TIP3   OH233805   6.578   4.146   5.574
11283TIP3    H133806   6.484   4.135   5.557
11283TIP3    H233807   6.610   4.198   5.500
11284TIP3   OH233808   1.943   2.331   4.470
11284TIP3    H133809   1.865   2.371   4.510
11284TIP3    H233810   1.940   2.239   4.498
11285TIP3   OH233811   4.144   0.212   6.701
11285TIP3    H133812   4.215   0.275   6.692
11285TIP3    H233813   4.184   0.138   6.747
11286TIP3   OH233814   2.934   6.999   4.306
11286TIP3    H133815   2.876   6.942   4.357
11286TIP3    H233816   2.878   7.034   4.236
11287TIP3   OH233817   7.692   6.766   0.715
11287TIP3    H133818   7.657   6.682   0.745
11287TIP3    H233819   7.787   6.754   0.713
11288TIP3   OH233820   5.056   7.597   5.233
11288TIP3    H133821   5.128   7.600   5.297
11288TIP3    H233822   5.061   7.681   5.188
11289TIP3   OH233823   0.115   1.422   5.492
11289TIP3    H133824   0.201   1.460   5.511
11289TIP3    H233825   0.134   1.343   5.441
11290TIP3   OH233826   6.247   7.722   3.028
11290TIP3    H133827   6.209   7.724   3.116
11290TIP3    H233828   6.341   7.730   3.042
11291TIP3   OH233829   2.418   4.982   4.755
11291TIP3    H133830   2.414   5.071   4.720
11291TIP3    H233831   2.336   4.970   4.802
11292TIP3   OH233832   2.349   3.346   1.700
11292TIP3    H133833   2.416   3.280   1.680
11292TIP3    H233834   2.276   3.324   1.642
11293TIP3   OH233835   6.948   3.686   3.660
11293TIP3    H133836   6.952   3.681   3.755
11293TIP3    H233837   6.983   3.772   3.639
11294TIP3   OH233838   4.255   1.811   2.890
11294TIP3    H133839   4.303   1.875   2.837
11294TIP3    H233840   4.293   1.727   2.866
11295TIP3   OH233841   4.157   2.292   4.928
11295TIP3    H133842   4.136   2.251   4.844
11295TIP3    H233843   4.155   2.386   4.909
11296TIP3   OH233844   0.361   2.799   0.681
11296TIP3    H133845   0.302   2.807   0.756
11296TIP3    H233846   0.338   2.715   0.642
11297TIP3   OH233847   6.396   1.852   4.934
11297TIP3    H133848   6.435   1.773   4.897
11297TIP3    H233849   6.338   1.885   4.864
11298TIP3   OH233850   7.409   6.652   5.462
11298TIP3    H133851   7.431   6.594   5.535
11298TIP3    H233852   7.354   6.719   5.501
11299TIP3   OH233853   5.231   6.816   1.601
11299TIP3    H133854   5.148   6.776   1.628
11299TIP3    H233855   5.232   6.901   1.645
11300TIP3   OH233856   5.208   1.441   4.256
11300TIP3    H133857   5.152   1.434   4.334
11300TIP3    H233858   5.296   1.452   4.292
11301TIP3   OH233859   5.208   7.617   3.243
11301TIP3    H133860   5.245   7.695   3.284
11301TIP3    H233861   5.243   7.544   3.293
11302TIP3   OH233862   6.552   7.342   1.754
11302TIP3    H133863   6.580   7.434   1.757
11302TIP3    H233864   6.495   7.331   1.829
11303TIP3   OH233865   0.481   0.275   6.575
11303TIP3    H133866   0.518   0.218   6.642
11303TIP3    H233867   0.517   0.361   6.594
11304TIP3   OH233868   1.011   3.264   1.599
11304TIP3    H133869   0.992   3.177   1.634
11304TIP3    H233870   0.937   3.318   1.627
11305TIP3   OH233871   7.679   6.990   1.546
11305TIP3    H133872   7.656   6.897   1.543
11305TIP3    H233873   7.672   7.013   1.639
11306TIP3   OH233874   0.106   0.534   5.866
11306TIP3    H133875   0.132   0.581   5.946
11306TIP3    H233876   0.177   0.552   5.804
11307TIP3   OH233877   6.150   4.161   4.565
11307TIP3    H133878   6.098   4.138   4.642
11307TIP3    H233879   6.086   4.192   4.502
11308TIP3   OH233880   6.886   2.105   3.366
11308TIP3    H133881   6.870   2.179   3.308
11308TIP3    H233882   6.801   2.061   3.373
11309TIP3   OH233883   3.570   2.017   1.829
11309TIP3    H133884   3.485   2.054   1.805
11309TIP3    H233885   3.608   2.081   1.889
11310TIP3   OH233886   1.867   5.532   4.285
11310TIP3    H133887   1.817   5.608   4.256
11310TIP3    H233888   1.836   5.460   4.229
11311TIP3   OH233889   7.315   7.305   6.047
11311TIP3    H133890   7.310   7.400   6.032
11311TIP3    H233891   7.270   7.267   5.972
11312TIP3   OH233892   3.794   3.129   5.200
11312TIP3    H133893   3.882   3.140   5.236
11312TIP3    H233894   3.788   3.196   5.132
11313TIP3   OH233895   2.089   3.119   3.724
11313TIP3    H133896   2.075   3.044   3.782
11313TIP3    H233897   2.169   3.161   3.758
11314TIP3   OH233898   7.854   5.284   0.768
11314TIP3    H133899   7.850   5.287   0.863
11314TIP3    H233900   7.783   5.223   0.743
11315TIP3   OH233901   8.210   0.922   2.839
11315TIP3    H133902   8.266   0.861   2.790
11315TIP3    H233903   8.223   0.897   2.931
11316TIP3   OH233904   3.161   1.327   2.336
11316TIP3    H133905   3.079   1.280   2.350
11316TIP3    H233906   3.216   1.305   2.411
11317TIP3   OH233907   0.442   1.632   6.210
11317TIP3    H133908   0.385   1.708   6.198
11317TIP3    H233909   0.505   1.637   6.138
11318TIP3   OH233910   0.782   3.471   0.430
11318TIP3    H133911   0.829   3.546   0.393
11318TIP3    H233912   0.696   3.474   0.388
11319TIP3   OH233913   6.899   4.250   5.505
11319TIP3    H133914   6.856   4.215   5.583
11319TIP3    H233915   6.903   4.176   5.444
11320TIP3   OH233916   0.912   1.162   6.197
11320TIP3    H133917   0.978   1.211   6.246
11320TIP3    H233918   0.952   1.077   6.180
11321TIP3   OH233919   4.309   3.235   0.018
11321TIP3    H133920   4.350   3.170  -0.038
11321TIP3    H233921   4.299   3.312  -0.038
11322TIP3   OH233922   3.182   6.911   6.121
11322TIP3    H133923   3.175   6.956   6.037
11322TIP3    H233924   3.132   6.966   6.182
11323TIP3   OH233925   0.677   4.500   4.464
11323TIP3    H133926   0.759   4.543   4.489
11323TIP3    H233927   0.690   4.409   4.489
11324TIP3   OH233928   4.627   4.752   2.329
11324TIP3    H133929   4.658   4.718   2.413
11324TIP3    H233930   4.532   4.738   2.331
11325TIP3   OH233931   4.422   7.754   1.588
11325TIP3    H133932   4.513   7.742   1.563
11325TIP3    H233933   4.417   7.846   1.615
11326TIP3   OH233934   1.369   2.360   0.714
11326TIP3    H133935   1.437   2.324   0.771
11326TIP3    H233936   1.391   2.328   0.626
11327TIP3   OH233937   4.010   3.465   1.994
11327TIP3    H133938   3.955   3.391   1.968
11327TIP3    H233939   4.049   3.496   1.912
11328TIP3   OH233940   3.609   3.376   0.355
11328TIP3    H133941   3.694   3.378   0.312
11328TIP3    H233942   3.626   3.340   0.442
11329TIP3   OH233943   3.704   6.131   2.251
11329TIP3    H133944   3.713   6.101   2.161
11329TIP3    H233945   3.620   6.177   2.253
11330TIP3   OH233946   0.708   5.478   0.843
11330TIP3    H133947   0.753   5.508   0.922
11330TIP3    H233948   0.779   5.464   0.780
11331TIP3   OH233949   7.848   7.008   1.995
11331TIP3    H133950   7.875   6.993   2.086
11331TIP3    H233951   7.753   7.018   1.999
11332TIP3   OH233952   8.222   0.587   1.529
11332TIP3    H133953   8.205   0.615   1.619
11332TIP3    H233954   8.251   0.496   1.537
11333TIP3   OH233955   6.496   6.912   2.544
11333TIP3    H133956   6.510   6.952   2.630
11333TIP3    H233957   6.401   6.902   2.537
11334TIP3   OH233958   4.643   0.764   1.448
11334TIP3    H133959   4.632   0.819   1.525
11334TIP3    H233960   4.727   0.789   1.411
11335TIP3   OH233961   2.286   2.401   2.280
11335TIP3    H133962   2.290   2.493   2.303
11335TIP3    H233963   2.320   2.355   2.357
11336TIP3   OH233964   1.208   2.759   3.010
11336TIP3    H133965   1.265   2.835   3.022
11336TIP3    H233966   1.168   2.773   2.924
11337TIP3   OH233967   4.524   1.827   5.644
11337TIP3    H133968   4.562   1.901   5.597
11337TIP3    H233969   4.430   1.832   5.626
11338TIP3   OH233970   2.236   5.655   6.607
11338TIP3    H133971   2.251   5.676   6.515
11338TIP3    H233972   2.299   5.585   6.625
11339TIP3   OH233973   7.266   5.750   0.158
11339TIP3    H133974   7.176   5.782   0.158
11339TIP3    H233975   7.271   5.693   0.235
11340TIP3   OH233976   0.433   2.502   2.250
11340TIP3    H133977   0.360   2.481   2.192
11340TIP3    H233978   0.451   2.595   2.234
11341TIP3   OH233979   5.074   2.937   4.394
11341TIP3    H133980   5.052   2.957   4.485
11341TIP3    H233981   4.990   2.913   4.355
11342TIP3   OH233982   7.683   6.070   3.563
11342TIP3    H133983   7.600   6.025   3.543
11342TIP3    H233984   7.719   6.093   3.477
11343TIP3   OH233985   0.993   6.624   3.175
11343TIP3    H133986   0.924   6.624   3.242
11343TIP3    H233987   1.038   6.540   3.188
11344TIP3   OH233988   2.119   1.929   6.178
11344TIP3    H133989   2.191   1.913   6.238
11344TIP3    H233990   2.122   2.023   6.161
11345TIP3   OH233991   6.872   2.438   3.965
11345TIP3    H133992   6.820   2.383   3.906
11345TIP3    H233993   6.816   2.512   3.984
11346TIP3   OH233994   7.604   6.071   5.282
11346TIP3    H133995   7.680   6.014   5.290
11346TIP3    H233996   7.604   6.122   5.363
11347TIP3   OH233997   2.183   2.996   4.506
11347TIP3    H133998   2.157   3.073   4.556
11347TIP3    H233999   2.274   3.012   4.481
11348TIP3   OH234000   4.284   5.916   0.247
11348TIP3    H134001   4.245   5.910   0.160
11348TIP3    H234002   4.378   5.923   0.230
11349TIP3   OH234003   5.182   1.350   3.805
11349TIP3    H134004   5.140   1.366   3.721
11349TIP3    H234005   5.151   1.421   3.861
11350TIP3   OH234006   6.976   4.194   1.074
11350TIP3    H134007   6.930   4.186   0.990
11350TIP3    H234008   6.974   4.105   1.110
11351TIP3   OH234009   3.208   7.058   4.262
11351TIP3    H134010   3.255   6.988   4.216
11351TIP3    H234011   3.119   7.025   4.273
11352TIP3   OH234012   7.712   1.944   5.100
11352TIP3    H134013   7.800   1.964   5.069
11352TIP3    H234014   7.680   2.026   5.137
11353TIP3   OH234015   2.604   6.052   6.292
11353TIP3    H134016   2.572   6.141   6.309
11353TIP3    H234017   2.605   6.010   6.377
11354TIP3   OH234018   4.668   1.541   2.705
11354TIP3    H134019   4.589   1.586   2.677
11354TIP3    H234020   4.639   1.452   2.728
11355TIP3   OH234021   3.551   6.735   2.566
11355TIP3    H134022   3.497   6.658   2.584
11355TIP3    H234023   3.638   6.699   2.546
11356TIP3   OH234024   0.877   1.443   2.036
11356TIP3    H134025   0.822   1.417   2.110
11356TIP3    H234026   0.846   1.389   1.963
11357TIP3   OH234027   7.759   5.193   3.985
11357TIP3    H134028   7.743   5.110   3.940
11357TIP3    H234029   7.784   5.253   3.915
11358TIP3   OH234030   2.516   3.294   5.877
11358TIP3    H134031   2.472   3.227   5.929
11358TIP3    H234032   2.507   3.264   5.786
11359TIP3   OH234033   1.576   1.373   6.672
11359TIP3    H134034   1.541   1.372   6.761
11359TIP3    H234035   1.653   1.430   6.677
11360TIP3   OH234036   6.631   5.730   2.595
11360TIP3    H134037   6.574   5.733   2.672
11360TIP3    H234038   6.581   5.776   2.527
11361TIP3   OH234039   2.102   7.827   2.308
11361TIP3    H134040   2.045   7.765   2.352
11361TIP3    H234041   2.174   7.842   2.369
11362TIP3   OH234042   3.586   3.604   4.300
11362TIP3    H134043   3.534   3.642   4.371
11362TIP3    H234044   3.644   3.675   4.273
11363TIP3   OH234045   7.533   0.322   2.123
11363TIP3    H134046   7.570   0.249   2.073
11363TIP3    H234047   7.464   0.282   2.175
11364TIP3   OH234048   1.398   4.605   5.066
11364TIP3    H134049   1.390   4.535   5.130
11364TIP3    H234050   1.460   4.666   5.104
11365TIP3   OH234051   1.874   1.337   3.262
11365TIP3    H134052   1.904   1.390   3.187
11365TIP3    H234053   1.818   1.271   3.223
11366TIP3   OH234054   8.222   4.608   5.194
11366TIP3    H134055   8.228   4.601   5.290
11366TIP3    H234056   8.130   4.593   5.175
11367TIP3   OH234057   0.829   5.046   0.862
11367TIP3    H134058   0.851   5.129   0.820
11367TIP3    H234059   0.767   5.069   0.932
11368TIP3   OH234060   4.759   1.269   3.563
11368TIP3    H134061   4.688   1.332   3.571
11368TIP3    H234062   4.761   1.225   3.648
11369TIP3   OH234063   4.321   4.123   1.002
11369TIP3    H134064   4.369   4.107   0.920
11369TIP3    H234065   4.234   4.151   0.974
11370TIP3   OH234066   1.419   2.766   4.969
11370TIP3    H134067   1.505   2.767   4.927
11370TIP3    H234068   1.373   2.692   4.930
11371TIP3   OH234069   3.147   4.919   3.404
11371TIP3    H134070   3.166   4.906   3.497
11371TIP3    H234071   3.052   4.929   3.400
11372TIP3   OH234072   5.961   5.122   5.353
11372TIP3    H134073   5.974   5.130   5.448
11372TIP3    H234074   5.933   5.209   5.325
11373TIP3   OH234075   3.225   0.433   6.277
11373TIP3    H134076   3.226   0.338   6.266
11373TIP3    H234077   3.264   0.467   6.197
11374TIP3   OH234078   7.896   5.826   1.510
11374TIP3    H134079   7.989   5.836   1.488
11374TIP3    H234080   7.880   5.732   1.504
11375TIP3   OH234081   3.264   2.078   6.338
11375TIP3    H134082   3.263   2.173   6.345
11375TIP3    H234083   3.178   2.055   6.304
11376TIP3   OH234084   0.340   0.646   6.689
11376TIP3    H134085   0.359   0.654   6.782
11376TIP3    H234086   0.250   0.612   6.686
11377TIP3   OH234087   1.684   2.162   1.478
11377TIP3    H134088   1.638   2.230   1.429
11377TIP3    H234089   1.764   2.204   1.509
11378TIP3   OH234090   6.241   5.776   1.892
11378TIP3    H134091   6.250   5.791   1.798
11378TIP3    H234092   6.147   5.788   1.909
11379TIP3   OH234093   4.622   6.102   0.795
11379TIP3    H134094   4.547   6.045   0.775
11379TIP3    H234095   4.595   6.188   0.762
11380TIP3   OH234096   6.560   5.746   1.199
11380TIP3    H134097   6.604   5.777   1.119
11380TIP3    H234098   6.471   5.726   1.171
11381TIP3   OH234099   3.652   7.148   6.302
11381TIP3    H134100   3.580   7.162   6.363
11381TIP3    H234101   3.640   7.057   6.272
11382TIP3   OH234102   2.120   4.367   6.351
11382TIP3    H134103   2.120   4.455   6.390
11382TIP3    H234104   2.211   4.353   6.326
11383TIP3   OH234105   3.949   7.106   5.422
11383TIP3    H134106   3.874   7.072   5.473
11383TIP3    H234107   3.964   7.040   5.355
11384TIP3   OH234108   1.556   6.335   6.478
11384TIP3    H134109   1.529   6.269   6.542
11384TIP3    H234110   1.593   6.285   6.406
11385TIP3   OH234111   0.827   6.863   3.244
11385TIP3    H134112   0.889   6.847   3.172
11385TIP3    H234113   0.804   6.775   3.275
11386TIP3   OH234114   5.654   4.890   0.568
11386TIP3    H134115   5.651   4.963   0.630
11386TIP3    H234116   5.625   4.929   0.485
11387TIP3   OH234117   1.921   2.168   1.966
11387TIP3    H134118   1.956   2.204   2.047
11387TIP3    H234119   1.991   2.182   1.902
11388TIP3   OH234120   5.110   3.127   6.029
11388TIP3    H134121   5.111   3.074   5.950
11388TIP3    H234122   5.115   3.217   5.998
11389TIP3   OH234123   1.030   7.210   1.859
11389TIP3    H134124   1.060   7.300   1.873
11389TIP3    H234125   1.043   7.195   1.765
11390TIP3   OH234126   1.732   2.086   3.276
11390TIP3    H134127   1.658   2.120   3.227
11390TIP3    H234128   1.805   2.088   3.215
11391TIP3   OH234129   7.574   1.835   4.381
11391TIP3    H134130   7.510   1.906   4.374
11391TIP3    H234131   7.616   1.832   4.295
11392TIP3   OH234132   0.321   7.214   0.288
11392TIP3    H134133   0.328   7.159   0.210
11392TIP3    H234134   0.229   7.239   0.292
11393TIP3   OH234135   2.379   5.399   3.846
11393TIP3    H134136   2.426   5.326   3.805
11393TIP3    H234137   2.407   5.476   3.796
11394TIP3   OH234138   3.561   1.626   2.777
11394TIP3    H134139   3.565   1.678   2.858
11394TIP3    H234140   3.542   1.537   2.807
11395TIP3   OH234141   2.266   1.180   6.210
11395TIP3    H134142   2.237   1.156   6.121
11395TIP3    H234143   2.327   1.253   6.196
11396TIP3   OH234144   3.880   2.558   3.888
11396TIP3    H134145   3.842   2.530   3.971
11396TIP3    H234146   3.950   2.495   3.872
11397TIP3   OH234147   2.280   0.564   2.934
11397TIP3    H134148   2.188   0.591   2.931
11397TIP3    H234149   2.303   0.543   2.844
11398TIP3   OH234150   7.683   1.252   5.750
11398TIP3    H134151   7.681   1.343   5.721
11398TIP3    H234152   7.696   1.201   5.670
11399TIP3   OH234153   4.116   2.817   0.244
11399TIP3    H134154   4.210   2.814   0.229
11399TIP3    H234155   4.107   2.821   0.339
11400TIP3   OH234156   5.007   2.282   2.900
11400TIP3    H134157   5.073   2.315   2.840
11400TIP3    H234158   4.925   2.320   2.870
11401TIP3   OH234159   4.876   7.471   2.159
11401TIP3    H134160   4.897   7.548   2.105
11401TIP3    H234161   4.782   7.460   2.148
11402TIP3   OH234162   7.591   3.066   5.266
11402TIP3    H134163   7.516   3.046   5.322
11402TIP3    H234164   7.621   2.981   5.235
11403TIP3   OH234165   6.443   3.904   5.314
11403TIP3    H134166   6.389   3.957   5.372
11403TIP3    H234167   6.387   3.829   5.290
11404TIP3   OH234168   3.968   1.585   6.549
11404TIP3    H134169   4.000   1.672   6.574
11404TIP3    H234170   3.925   1.599   6.465
11405TIP3   OH234171   3.836   3.269   5.971
11405TIP3    H134172   3.921   3.307   5.948
11405TIP3    H234173   3.845   3.176   5.952
11406TIP3   OH234174   8.186   0.204   3.009
11406TIP3    H134175   8.165   0.121   2.966
11406TIP3    H234176   8.102   0.248   3.018
11407TIP3   OH234177   3.252   0.195   1.120
11407TIP3    H134178   3.256   0.283   1.083
11407TIP3    H234179   3.186   0.150   1.068
11408TIP3   OH234180   4.816   5.237   1.294
11408TIP3    H134181   4.911   5.234   1.299
11408TIP3    H234182   4.786   5.184   1.367
11409TIP3   OH234183   4.083   3.900   5.243
11409TIP3    H134184   4.125   3.974   5.287
11409TIP3    H234185   4.087   3.829   5.307
11410TIP3   OH234186   6.260   6.309   0.041
11410TIP3    H134187   6.329   6.243   0.044
11410TIP3    H234188   6.190   6.269  -0.011
11411TIP3   OH234189   3.192   7.056   0.794
11411TIP3    H134190   3.283   7.081   0.810
11411TIP3    H234191   3.194   6.960   0.788
11412TIP3   OH234192   6.968   5.322   5.820
11412TIP3    H134193   6.956   5.310   5.914
11412TIP3    H234194   6.909   5.393   5.796
11413TIP3   OH234195   4.730   0.513   1.768
11413TIP3    H134196   4.676   0.441   1.800
11413TIP3    H234197   4.677   0.591   1.781
11414TIP3   OH234198   6.492   3.723   1.181
11414TIP3    H134199   6.498   3.630   1.158
11414TIP3    H234200   6.473   3.723   1.275
11415TIP3   OH234201   4.077   1.485   5.459
11415TIP3    H134202   4.036   1.571   5.472
11415TIP3    H234203   4.004   1.423   5.461
11416TIP3   OH234204   0.849   3.534   4.100
11416TIP3    H134205   0.808   3.619   4.117
11416TIP3    H234206   0.905   3.550   4.024
11417TIP3   OH234207   1.470   6.117   3.088
11417TIP3    H134208   1.425   6.189   3.044
11417TIP3    H234209   1.418   6.039   3.067
11418TIP3   OH234210   3.991   5.613   6.591
11418TIP3    H134211   4.024   5.606   6.680
11418TIP3    H234212   4.022   5.534   6.548
11419TIP3   OH234213   2.060   2.942   3.505
11419TIP3    H134214   2.132   2.960   3.444
11419TIP3    H234215   2.086   2.985   3.586
11420TIP3   OH234216   7.854   4.733   0.296
11420TIP3    H134217   7.867   4.689   0.380
11420TIP3    H234218   7.942   4.740   0.259
11421TIP3   OH234219   4.625   0.974   2.235
11421TIP3    H134220   4.535   0.942   2.247
11421TIP3    H234221   4.673   0.936   2.308
11422TIP3   OH234222   5.887   3.093   2.445
11422TIP3    H134223   5.816   3.038   2.478
11422TIP3    H234224   5.916   3.144   2.520
11423TIP3   OH234225   7.122   3.054   3.286
11423TIP3    H134226   7.172   3.061   3.205
11423TIP3    H234227   7.086   2.965   3.285
11424TIP3   OH234228   7.099   5.076   5.831
11424TIP3    H134229   7.152   5.121   5.897
11424TIP3    H234230   7.079   5.144   5.767
11425TIP3   OH234231   7.197   2.602   2.898
11425TIP3    H134232   7.171   2.690   2.869
11425TIP3    H234233   7.253   2.569   2.828
11426TIP3   OH234234   6.935   1.502   5.496
11426TIP3    H134235   6.996   1.453   5.442
11426TIP3    H234236   6.854   1.450   5.494
11427TIP3   OH234237   1.847   0.841   1.313
11427TIP3    H134238   1.812   0.914   1.364
11427TIP3    H234239   1.894   0.788   1.377
11428TIP3   OH234240   1.990   0.120   1.678
11428TIP3    H134241   1.901   0.118   1.644
11428TIP3    H234242   1.980   0.120   1.773
11429TIP3   OH234243   4.266   6.771   2.028
11429TIP3    H134244   4.277   6.700   2.092
11429TIP3    H234245   4.255   6.727   1.944
11430TIP3   OH234246   7.500   4.668   5.029
11430TIP3    H134247   7.526   4.644   4.940
11430TIP3    H234248   7.563   4.735   5.056
11431TIP3   OH234249   1.622   4.368   2.646
11431TIP3    H134250   1.647   4.416   2.567
11431TIP3    H234251   1.531   4.343   2.631
11432TIP3   OH234252   3.628   6.945   3.474
11432TIP3    H134253   3.708   6.997   3.466
11432TIP3    H234254   3.619   6.903   3.389
11433TIP3   OH234255   6.933   1.102   6.128
11433TIP3    H134256   7.028   1.114   6.130
11433TIP3    H234257   6.897   1.179   6.172
11434TIP3   OH234258   4.578   3.851   5.616
11434TIP3    H134259   4.563   3.847   5.521
11434TIP3    H234260   4.578   3.759   5.644
11435TIP3   OH234261   0.441   1.949   0.191
11435TIP3    H134262   0.368   1.902   0.153
11435TIP3    H234263   0.460   1.903   0.273
11436TIP3   OH234264   5.477   3.976   6.127
11436TIP3    H134265   5.414   3.918   6.083
11436TIP3    H234266   5.459   4.062   6.091
11437TIP3   OH234267   4.803   3.687   3.756
11437TIP3    H134268   4.889   3.646   3.761
11437TIP3    H234269   4.816   3.775   3.790
11438TIP3   OH234270   5.232   5.305   3.219
11438TIP3    H134271   5.290   5.295   3.295
11438TIP3    H234272   5.282   5.271   3.145
11439TIP3   OH234273   7.947   2.475   4.870
11439TIP3    H134274   7.897   2.417   4.928
11439TIP3    H234275   7.884   2.540   4.840
11440TIP3   OH234276   5.781   3.590   1.975
11440TIP3    H134277   5.733   3.577   1.893
11440TIP3    H234278   5.872   3.570   1.953
11441TIP3   OH234279   6.010   7.549   5.514
11441TIP3    H134280   6.023   7.487   5.443
11441TIP3    H234281   6.097   7.582   5.535
11442TIP3   OH234282   0.182   2.046   5.927
11442TIP3    H134283   0.101   2.070   5.972
11442TIP3    H234284   0.175   2.087   5.841
11443TIP3   OH234285   1.465   6.636   2.855
11443TIP3    H134286   1.371   6.653   2.861
11443TIP3    H234287   1.472   6.554   2.806
11444TIP3   OH234288   4.199   0.310   0.748
11444TIP3    H134289   4.190   0.222   0.712
11444TIP3    H234290   4.127   0.360   0.709
11445TIP3   OH234291   4.719   6.519   1.772
11445TIP3    H134292   4.732   6.610   1.798
11445TIP3    H234293   4.767   6.467   1.836
11446TIP3   OH234294   6.336   4.969   5.345
11446TIP3    H134295   6.398   5.041   5.346
11446TIP3    H234296   6.390   4.890   5.349
11447TIP3   OH234297   5.335   4.772   3.423
11447TIP3    H134298   5.245   4.743   3.407
11447TIP3    H234299   5.371   4.706   3.482
11448TIP3   OH234300   0.413   7.592   6.550
11448TIP3    H134301   0.365   7.675   6.546
11448TIP3    H234302   0.364   7.540   6.614
11449TIP3   OH234303   0.889   4.999   5.053
11449TIP3    H134304   0.846   5.072   5.096
11449TIP3    H234305   0.845   4.992   4.968
11450TIP3   OH234306   4.783   4.008   3.014
11450TIP3    H134307   4.781   3.913   3.026
11450TIP3    H234308   4.699   4.039   3.050
11451TIP3   OH234309   5.944   2.625   4.422
11451TIP3    H134310   5.938   2.650   4.515
11451TIP3    H234311   5.984   2.539   4.423
11452TIP3   OH234312   4.129   2.827   2.245
11452TIP3    H134313   4.153   2.916   2.220
11452TIP3    H234314   4.034   2.832   2.259
11453TIP3   OH234315   5.951   1.612   0.386
11453TIP3    H134316   5.905   1.674   0.444
11453TIP3    H234317   6.030   1.658   0.360
11454TIP3   OH234318   2.570   7.502   4.063
11454TIP3    H134319   2.634   7.512   3.992
11454TIP3    H234320   2.486   7.519   4.022
11455TIP3   OH234321   2.866   6.309   5.010
11455TIP3    H134322   2.822   6.331   5.091
11455TIP3    H234323   2.938   6.372   5.004
11456TIP3   OH234324   5.949   7.063   3.703
11456TIP3    H134325   5.857   7.045   3.685
11456TIP3    H234326   5.979   6.987   3.752
11457TIP3   OH234327   6.519   4.022   4.700
11457TIP3    H134328   6.440   3.984   4.664
11457TIP3    H234329   6.537   4.098   4.645
11458TIP3   OH234330   8.136   3.832   0.115
11458TIP3    H134331   8.147   3.890   0.040
11458TIP3    H234332   8.192   3.869   0.183
11459TIP3   OH234333   7.045   7.008   5.039
11459TIP3    H134334   6.983   7.034   5.108
11459TIP3    H234335   7.129   7.042   5.068
11460TIP3   OH234336   4.315   4.497   4.271
11460TIP3    H134337   4.269   4.512   4.354
11460TIP3    H234338   4.246   4.496   4.205
11461TIP3   OH234339   5.553   2.586   6.434
11461TIP3    H134340   5.520   2.620   6.517
11461TIP3    H234341   5.510   2.501   6.424
11462TIP3   OH234342   1.801   1.498   2.461
11462TIP3    H134343   1.891   1.478   2.438
11462TIP3    H234344   1.753   1.416   2.447
11463TIP3   OH234345   7.359   5.932   2.068
11463TIP3    H134346   7.291   5.889   2.119
11463TIP3    H234347   7.337   6.025   2.071
11464TIP3   OH234348   0.315   0.630   4.054
11464TIP3    H134349   0.318   0.548   4.004
11464TIP3    H234350   0.232   0.670   4.030
11465TIP3   OH234351   7.216   1.510   6.655
11465TIP3    H134352   7.268   1.507   6.735
11465TIP3    H234353   7.265   1.568   6.597
11466TIP3   OH234354   3.479   3.902   3.454
11466TIP3    H134355   3.464   3.989   3.492
11466TIP3    H234356   3.446   3.909   3.364
11467TIP3   OH234357   1.588   1.803   4.471
11467TIP3    H134358   1.498   1.799   4.437
11467TIP3    H234359   1.627   1.879   4.427
11468TIP3   OH234360   8.111   4.098   4.028
11468TIP3    H134361   8.138   4.006   4.025
11468TIP3    H234362   8.022   4.098   3.991
11469TIP3   OH234363   6.370   4.762   6.465
11469TIP3    H134364   6.461   4.780   6.441
11469TIP3    H234365   6.359   4.669   6.447
11470TIP3   OH234366   3.238   2.789   2.029
11470TIP3    H134367   3.322   2.760   1.993
11470TIP3    H234368   3.244   2.769   2.123
11471TIP3   OH234369   2.627   7.255   1.773
11471TIP3    H134370   2.580   7.181   1.734
11471TIP3    H234371   2.565   7.328   1.769
11472TIP3   OH234372   6.933   1.055   0.353
11472TIP3    H134373   6.987   1.101   0.289
11472TIP3    H234374   6.853   1.108   0.359
11473TIP3   OH234375   3.225   7.400   5.638
11473TIP3    H134376   3.298   7.338   5.635
11473TIP3    H234377   3.189   7.399   5.549
11474TIP3   OH234378   5.826   0.248   2.150
11474TIP3    H134379   5.867   0.302   2.218
11474TIP3    H234380   5.736   0.280   2.144
11475TIP3   OH234381   1.662   0.832   0.887
11475TIP3    H134382   1.624   0.761   0.937
11475TIP3    H234383   1.734   0.866   0.942
11476TIP3   OH234384   5.661   7.280   2.451
11476TIP3    H134385   5.716   7.337   2.505
11476TIP3    H234386   5.719   7.209   2.425
11477TIP3   OH234387   1.838   4.107   5.316
11477TIP3    H134388   1.763   4.167   5.321
11477TIP3    H234389   1.902   4.143   5.378
11478TIP3   OH234390   6.233   2.763   1.862
11478TIP3    H134391   6.266   2.692   1.918
11478TIP3    H234392   6.138   2.764   1.879
11479TIP3   OH234393   6.924   0.036   4.782
11479TIP3    H134394   6.836   0.047   4.748
11479TIP3    H234395   6.979   0.028   4.704
11480TIP3   OH234396   8.235   7.744   0.762
11480TIP3    H134397   8.298   7.678   0.734
11480TIP3    H234398   8.253   7.819   0.705
11481TIP3   OH234399   6.611   1.046   0.654
11481TIP3    H134400   6.651   0.963   0.682
11481TIP3    H234401   6.563   1.024   0.574
11482TIP3   OH234402   7.443   1.978   0.304
11482TIP3    H134403   7.457   2.045   0.237
11482TIP3    H234404   7.485   1.899   0.269
11483TIP3   OH234405   2.355   0.520   6.000
11483TIP3    H134406   2.360   0.539   5.906
11483TIP3    H234407   2.277   0.567   6.030
11484TIP3   OH234408   6.991   5.803   1.927
11484TIP3    H134409   6.921   5.862   1.954
11484TIP3    H234410   7.052   5.860   1.879
11485TIP3   OH234411   4.843   2.305   2.070
11485TIP3    H134412   4.848   2.221   2.115
11485TIP3    H234413   4.807   2.365   2.134
11486TIP3   OH234414   2.387   2.613   6.179
11486TIP3    H134415   2.373   2.634   6.086
11486TIP3    H234416   2.354   2.524   6.189
11487TIP3   OH234417   5.556   6.050   4.091
11487TIP3    H134418   5.574   5.992   4.017
11487TIP3    H234419   5.496   6.116   4.055
11488TIP3   OH234420   2.575   3.664   5.164
11488TIP3    H134421   2.648   3.602   5.167
11488TIP3    H234422   2.572   3.694   5.074
11489TIP3   OH234423   2.382   0.301   4.016
11489TIP3    H134424   2.356   0.230   3.957
11489TIP3    H234425   2.477   0.298   4.016
11490TIP3   OH234426   6.713   2.326   4.587
11490TIP3    H134427   6.784   2.297   4.531
11490TIP3    H234428   6.651   2.254   4.588
11491TIP3   OH234429   1.404   3.588   1.959
11491TIP3    H134430   1.395   3.564   2.051
11491TIP3    H234431   1.437   3.678   1.961
11492TIP3   OH234432   3.955   0.566   2.465
11492TIP3    H134433   3.878   0.509   2.471
11492TIP3    H234434   3.919   0.650   2.437
11493TIP3   OH234435   7.307   4.117   4.841
11493TIP3    H134436   7.259   4.034   4.845
11493TIP3    H234437   7.302   4.151   4.931
11494TIP3   OH234438   3.699   4.976   2.618
11494TIP3    H134439   3.766   5.037   2.648
11494TIP3    H234440   3.739   4.889   2.631
11495TIP3   OH234441   2.931   6.131   5.820
11495TIP3    H134442   2.969   6.061   5.874
11495TIP3    H234443   3.008   6.177   5.785
11496TIP3   OH234444   2.469   4.951   5.400
11496TIP3    H134445   2.456   4.881   5.336
11496TIP3    H234446   2.536   5.007   5.360
11497TIP3   OH234447   6.009   1.297   3.319
11497TIP3    H134448   6.069   1.369   3.298
11497TIP3    H234449   6.024   1.232   3.250
11498TIP3   OH234450   5.852   7.796   3.169
11498TIP3    H134451   5.861   7.872   3.112
11498TIP3    H234452   5.765   7.807   3.209
11499TIP3   OH234453   2.870   5.262   5.146
11499TIP3    H134454   2.882   5.345   5.100
11499TIP3    H234455   2.941   5.260   5.211
11500TIP3   OH234456   4.635   4.805   4.789
11500TIP3    H134457   4.554   4.791   4.740
11500TIP3    H234458   4.661   4.718   4.818
11501TIP3   OH234459   1.741   1.634   0.297
11501TIP3    H134460   1.678   1.627   0.225
11501TIP3    H234461   1.824   1.605   0.259
11502TIP3   OH234462   2.457   5.858   3.425
11502TIP3    H134463   2.388   5.813   3.376
11502TIP3    H234464   2.440   5.951   3.412
11503TIP3   OH234465   4.476   5.256   3.609
11503TIP3    H134466   4.451   5.339   3.568
11503TIP3    H234467   4.421   5.190   3.567
11504TIP3   OH234468   4.036   5.471   4.951
11504TIP3    H134469   4.000   5.559   4.939
11504TIP3    H234470   4.058   5.441   4.863
11505TIP3   OH234471   6.764   0.985   1.583
11505TIP3    H134472   6.784   0.895   1.559
11505TIP3    H234473   6.684   1.006   1.535
11506TIP3   OH234474   1.696   5.598   1.445
11506TIP3    H134475   1.692   5.682   1.399
11506TIP3    H234476   1.635   5.542   1.397
11507TIP3   OH234477   4.415   2.679   4.726
11507TIP3    H134478   4.360   2.675   4.647
11507TIP3    H234479   4.492   2.729   4.699
11508TIP3   OH234480   2.356   4.898   3.531
11508TIP3    H134481   2.323   4.868   3.446
11508TIP3    H234482   2.438   4.943   3.511
11509TIP3   OH234483   5.405   2.786   1.322
11509TIP3    H134484   5.434   2.863   1.371
11509TIP3    H234485   5.474   2.721   1.336
11510TIP3   OH234486   3.614   7.085   1.144
11510TIP3    H134487   3.690   7.134   1.112
11510TIP3    H234488   3.597   7.123   1.231
11511TIP3   OH234489   4.274   5.950   6.016
11511TIP3    H134490   4.243   6.022   5.961
11511TIP3    H234491   4.312   5.993   6.092
11512TIP3   OH234492   6.887   7.544   3.853
11512TIP3    H134493   6.918   7.575   3.768
11512TIP3    H234494   6.792   7.537   3.843
11513TIP3   OH234495   2.763   4.202   3.694
11513TIP3    H134496   2.713   4.121   3.706
11513TIP3    H234497   2.732   4.237   3.611
11514TIP3   OH234498   7.987   4.267   4.727
11514TIP3    H134499   7.979   4.344   4.783
11514TIP3    H234500   7.900   4.255   4.689
11515TIP3   OH234501   3.138   0.835   2.395
11515TIP3    H134502   3.119   0.910   2.451
11515TIP3    H234503   3.092   0.854   2.313
11516TIP3   OH234504   5.363   5.821   0.387
11516TIP3    H134505   5.422   5.758   0.429
11516TIP3    H234506   5.372   5.803   0.294
11517TIP3   OH234507   4.459   6.185   0.468
11517TIP3    H134508   4.387   6.158   0.525
11517TIP3    H234509   4.498   6.102   0.439
11518TIP3   OH234510   6.966   5.078   3.602
11518TIP3    H134511   7.016   5.028   3.667
11518TIP3    H234512   7.032   5.117   3.546
11519TIP3   OH234513   7.943   2.504   2.462
11519TIP3    H134514   7.983   2.591   2.469
11519TIP3    H234515   7.946   2.484   2.369
11520TIP3   OH234516   3.358   4.404   0.523
11520TIP3    H134517   3.323   4.481   0.569
11520TIP3    H234518   3.441   4.386   0.567
11521TIP3   OH234519   0.417   7.049   6.025
11521TIP3    H134520   0.420   6.954   6.037
11521TIP3    H234521   0.488   7.067   5.963
11522TIP3   OH234522   2.690   6.005   1.921
11522TIP3    H134523   2.656   6.049   1.998
11522TIP3    H234524   2.632   6.033   1.850
11523TIP3   OH234525   6.554   5.950   0.632
11523TIP3    H134526   6.585   5.981   0.546
11523TIP3    H234527   6.526   5.860   0.616
11524TIP3   OH234528   5.384   4.003   4.106
11524TIP3    H134529   5.379   3.980   4.199
11524TIP3    H234530   5.416   4.093   4.106
11525TIP3   OH234531   5.799   7.814   4.876
11525TIP3    H134532   5.707   7.824   4.901
11525TIP3    H234533   5.796   7.782   4.786
11526TIP3   OH234534   5.199   2.498   2.702
11526TIP3    H134535   5.261   2.542   2.760
11526TIP3    H234536   5.219   2.405   2.712
11527TIP3   OH234537   0.297   4.837   1.217
11527TIP3    H134538   0.277   4.753   1.175
11527TIP3    H234539   0.285   4.902   1.148
11528TIP3   OH234540   1.604   1.075   3.516
11528TIP3    H134541   1.590   1.160   3.473
11528TIP3    H234542   1.611   1.013   3.443
11529TIP3   OH234543   6.371   2.200   6.338
11529TIP3    H134544   6.321   2.129   6.377
11529TIP3    H234545   6.305   2.257   6.299
11530TIP3   OH234546   2.592   7.294   4.857
11530TIP3    H134547   2.567   7.385   4.875
11530TIP3    H234548   2.573   7.281   4.764
11531TIP3   OH234549   4.564   4.526   0.291
11531TIP3    H134550   4.634   4.473   0.253
11531TIP3    H234551   4.582   4.529   0.384
11532TIP3   OH234552   6.959   6.721   1.492
11532TIP3    H134553   6.969   6.630   1.465
11532TIP3    H234554   6.987   6.773   1.417
11533TIP3   OH234555   1.308   1.403   2.945
11533TIP3    H134556   1.306   1.465   3.017
11533TIP3    H234557   1.300   1.457   2.866
11534TIP3   OH234558   4.605   4.563   5.401
11534TIP3    H134559   4.523   4.571   5.450
11534TIP3    H234560   4.650   4.647   5.416
11535TIP3   OH234561   5.578   4.673   1.006
11535TIP3    H134562   5.623   4.743   1.053
11535TIP3    H234563   5.489   4.674   1.040
11536TIP3   OH234564   0.944   5.239   2.824
11536TIP3    H134565   0.880   5.310   2.815
11536TIP3    H234566   1.005   5.272   2.890
11537TIP3   OH234567   1.892   0.682   1.964
11537TIP3    H134568   1.916   0.756   2.020
11537TIP3    H234569   1.848   0.722   1.889
11538TIP3   OH234570   5.919   1.849   1.523
11538TIP3    H134571   5.867   1.881   1.597
11538TIP3    H234572   5.960   1.769   1.556
11539TIP3   OH234573   5.885   1.048   1.610
11539TIP3    H134574   5.933   0.969   1.637
11539TIP3    H234575   5.816   1.058   1.676
11540TIP3   OH234576   7.437   5.339   1.727
11540TIP3    H134577   7.395   5.299   1.803
11540TIP3    H234578   7.531   5.334   1.746
11541TIP3   OH234579   6.174   4.709   1.094
11541TIP3    H134580   6.202   4.620   1.116
11541TIP3    H234581   6.255   4.760   1.094
11542TIP3   OH234582   2.585   3.331   1.173
11542TIP3    H134583   2.646   3.391   1.129
11542TIP3    H234584   2.620   3.323   1.262
11543TIP3   OH234585   6.966   1.508   4.694
11543TIP3    H134586   6.933   1.543   4.611
11543TIP3    H234587   6.892   1.461   4.732
11544TIP3   OH234588   0.398   5.422   5.496
11544TIP3    H134589   0.398   5.365   5.573
11544TIP3    H234590   0.352   5.501   5.524
11545TIP3   OH234591   6.527   7.710   2.786
11545TIP3    H134592   6.589   7.697   2.714
11545TIP3    H234593   6.580   7.747   2.857
11546TIP3   OH234594   2.922   1.315   5.490
11546TIP3    H134595   2.945   1.225   5.511
11546TIP3    H234596   2.991   1.344   5.431
11547TIP3   OH234597   1.081   7.011   4.002
11547TIP3    H134598   1.001   7.044   3.963
11547TIP3    H234599   1.136   7.088   4.014
11548TIP3   OH234600   7.256   3.286   3.463
11548TIP3    H134601   7.185   3.279   3.400
11548TIP3    H234602   7.283   3.196   3.479
11549TIP3   OH234603   1.713   5.719   6.148
11549TIP3    H134604   1.765   5.734   6.069
11549TIP3    H234605   1.639   5.780   6.140
11550TIP3   OH234606   6.708   3.128   1.721
11550TIP3    H134607   6.793   3.097   1.754
11550TIP3    H234608   6.664   3.049   1.690
11551TIP3   OH234609   8.220   2.410   1.040
11551TIP3    H134610   8.238   2.480   0.977
11551TIP3    H234611   8.264   2.438   1.120
11552TIP3   OH234612   5.510   6.381   0.736
11552TIP3    H134613   5.573   6.452   0.726
11552TIP3    H234614   5.549   6.322   0.801
11553TIP3   OH234615   5.748   3.522   3.396
11553TIP3    H134616   5.840   3.510   3.420
11553TIP3    H234617   5.751   3.583   3.322
11554TIP3   OH234618   3.645   5.388   3.287
11554TIP3    H134619   3.574   5.425   3.338
11554TIP3    H234620   3.605   5.363   3.204
11555TIP3   OH234621   2.840   2.482   4.156
11555TIP3    H134622   2.817   2.421   4.086
11555TIP3    H234623   2.928   2.512   4.134
11556TIP3   OH234624   5.607   3.408   4.635
11556TIP3    H134625   5.645   3.495   4.619
11556TIP3    H234626   5.657   3.350   4.579
11557TIP3   OH234627   4.514   0.168   6.722
11557TIP3    H134628   4.471   0.124   6.648
11557TIP3    H234629   4.602   0.186   6.690
11558TIP3   OH234630   0.018   3.561   2.048
11558TIP3    H134631  -0.022   3.623   1.987
11558TIP3    H234632  -0.039   3.562   2.125
11559TIP3   OH234633   4.081   2.871   5.215
11559TIP3    H134634   4.150   2.937   5.217
11559TIP3    H234635   4.040   2.875   5.301
11560TIP3   OH234636   2.401   7.502   2.854
11560TIP3    H134637   2.363   7.589   2.866
11560TIP3    H234638   2.495   7.516   2.854
11561TIP3   OH234639   6.927   4.904   3.349
11561TIP3    H134640   6.905   4.931   3.260
11561TIP3    H234641   7.014   4.938   3.364
11562TIP3   OH234642   5.179   0.484   2.177
11562TIP3    H134643   5.106   0.440   2.134
11562TIP3    H234644   5.139   0.534   2.248
11563TIP3   OH234645   6.964   5.820   5.656
11563TIP3    H134646   7.012   5.836   5.737
11563TIP3    H234647   7.023   5.763   5.605
11564TIP3   OH234648   2.403   4.890   1.068
11564TIP3    H134649   2.314   4.921   1.050
11564TIP3    H234650   2.391   4.813   1.123
11565TIP3   OH234651   1.816   1.591   6.192
11565TIP3    H134652   1.868   1.522   6.151
11565TIP3    H234653   1.727   1.577   6.161
11566TIP3   OH234654   4.983   4.366   0.731
11566TIP3    H134655   4.942   4.369   0.645
11566TIP3    H234656   5.071   4.331   0.714
11567TIP3   OH234657   5.278   2.339   3.825
11567TIP3    H134658   5.346   2.320   3.889
11567TIP3    H234659   5.222   2.403   3.867
11568TIP3   OH234660   0.188   2.769   4.313
11568TIP3    H134661   0.252   2.781   4.383
11568TIP3    H234662   0.158   2.858   4.293
11569TIP3   OH234663   6.841   6.663   3.231
11569TIP3    H134664   6.777   6.595   3.252
11569TIP3    H234665   6.792   6.728   3.181
11570TIP3   OH234666   3.189   3.719   4.059
11570TIP3    H134667   3.144   3.713   4.143
11570TIP3    H234668   3.148   3.792   4.014
11571TIP3   OH234669   5.693   1.232   4.996
11571TIP3    H134670   5.606   1.261   4.969
11571TIP3    H234671   5.723   1.300   5.056
11572TIP3   OH234672   0.246   2.452   2.081
11572TIP3    H134673   0.185   2.482   2.148
11572TIP3    H234674   0.210   2.368   2.051
11573TIP3   OH234675   1.073   5.155   5.943
11573TIP3    H134676   1.044   5.211   5.872
11573TIP3    H234677   1.158   5.191   5.969
11574TIP3   OH234678   1.614   1.132   5.074
11574TIP3    H134679   1.539   1.188   5.096
11574TIP3    H234680   1.625   1.076   5.151
11575TIP3   OH234681   5.902   3.355   4.446
11575TIP3    H134682   5.883   3.413   4.373
11575TIP3    H234683   5.903   3.267   4.407
11576TIP3   OH234684   4.057   6.645   6.598
11576TIP3    H134685   4.088   6.710   6.660
11576TIP3    H234686   4.006   6.583   6.651
11577TIP3   OH234687   3.381   4.585   4.206
11577TIP3    H134688   3.465   4.574   4.161
11577TIP3    H234689   3.326   4.514   4.171
11578TIP3   OH234690   0.415   0.340   5.225
11578TIP3    H134691   0.447   0.254   5.254
11578TIP3    H234692   0.492   0.397   5.232
11579TIP3   OH234693   5.243   4.736   2.678
11579TIP3    H134694   5.334   4.751   2.705
11579TIP3    H234695   5.203   4.823   2.684
11580TIP3   OH234696   2.066   0.371   6.204
11580TIP3    H134697   2.001   0.401   6.141
11580TIP3    H234698   2.112   0.300   6.160
11581TIP3   OH234699   1.531   3.218   1.278
11581TIP3    H134700   1.458   3.177   1.231
11581TIP3    H234701   1.568   3.281   1.216
11582TIP3   OH234702   6.415   5.365   1.023
11582TIP3    H134703   6.329   5.404   1.037
11582TIP3    H234704   6.422   5.356   0.928
11583TIP3   OH234705   3.776   4.711   2.024
11583TIP3    H134706   3.797   4.804   2.036
11583TIP3    H234707   3.858   4.670   1.998
11584TIP3   OH234708   0.041   5.834   6.774
11584TIP3    H134709   0.064   5.907   6.717
11584TIP3    H234710  -0.054   5.829   6.771
11585TIP3   OH234711   4.352   4.084   2.082
11585TIP3    H134712   4.273   4.039   2.114
11585TIP3    H234713   4.321   4.169   2.051
11586TIP3   OH234714   5.978   7.080   5.320
11586TIP3    H134715   6.026   7.162   5.326
11586TIP3    H234716   5.912   7.085   5.389
11587TIP3   OH234717   5.555   4.896   3.592
11587TIP3    H134718   5.496   4.855   3.528
11587TIP3    H234719   5.533   4.989   3.589
11588TIP3   OH234720   7.195   2.286   1.106
11588TIP3    H134721   7.167   2.309   1.017
11588TIP3    H234722   7.154   2.201   1.122
11589TIP3   OH234723   5.770   6.017   3.534
11589TIP3    H134724   5.689   6.032   3.486
11589TIP3    H234725   5.748   5.946   3.595
11590TIP3   OH234726   8.184   1.649   0.924
11590TIP3    H134727   8.268   1.633   0.966
11590TIP3    H234728   8.192   1.737   0.886
11591TIP3   OH234729   4.427   3.325   4.557
11591TIP3    H134730   4.512   3.366   4.565
11591TIP3    H234731   4.442   3.233   4.580
11592TIP3   OH234732   3.211   7.038   6.469
11592TIP3    H134733   3.133   7.024   6.522
11592TIP3    H234734   3.177   7.060   6.382
11593TIP3   OH234735   7.646   0.843   1.938
11593TIP3    H134736   7.634   0.855   1.843
11593TIP3    H234737   7.645   0.748   1.950
11594TIP3   OH234738   2.700   0.771   5.949
11594TIP3    H134739   2.714   0.684   5.909
11594TIP3    H234740   2.638   0.755   6.019
11595TIP3   OH234741   0.517   5.057   2.433
11595TIP3    H134742   0.534   4.963   2.428
11595TIP3    H234743   0.422   5.063   2.446
11596TIP3   OH234744   2.649   2.199   2.368
11596TIP3    H134745   2.672   2.236   2.453
11596TIP3    H234746   2.677   2.107   2.373
11597TIP3   OH234747   2.730   3.247   0.606
11597TIP3    H134748   2.761   3.164   0.572
11597TIP3    H234749   2.635   3.239   0.608
11598TIP3   OH234750   0.399   7.370   3.714
11598TIP3    H134751   0.410   7.294   3.656
11598TIP3    H234752   0.461   7.435   3.681
11599TIP3   OH234753   7.583   6.563   4.909
11599TIP3    H134754   7.538   6.483   4.937
11599TIP3    H234755   7.537   6.589   4.829
11600TIP3   OH234756   2.193   7.706   1.423
11600TIP3    H134757   2.253   7.683   1.495
11600TIP3    H234758   2.223   7.791   1.394
11601TIP3   OH234759   6.080   1.441   2.169
11601TIP3    H134760   6.145   1.505   2.199
11601TIP3    H234761   6.130   1.359   2.161
11602TIP3   OH234762   1.103   3.703   4.357
11602TIP3    H134763   1.100   3.626   4.413
11602TIP3    H234764   1.106   3.777   4.417
11603TIP3   OH234765   4.363   5.264   4.176
11603TIP3    H134766   4.350   5.359   4.177
11603TIP3    H234767   4.345   5.237   4.266
11604TIP3   OH234768   2.935   0.175   1.426
11604TIP3    H134769   2.978   0.247   1.380
11604TIP3    H234770   2.843   0.185   1.404
11605TIP3   OH234771   6.027   2.228   2.912
11605TIP3    H134772   6.074   2.222   2.995
11605TIP3    H234773   6.070   2.163   2.856
11606TIP3   OH234774   7.482   3.753   4.757
11606TIP3    H134775   7.482   3.805   4.677
11606TIP3    H234776   7.404   3.697   4.749
11607TIP3   OH234777   7.621   0.444   5.489
11607TIP3    H134778   7.589   0.429   5.400
11607TIP3    H234779   7.702   0.393   5.494
11608TIP3   OH234780   7.220   7.303   5.679
11608TIP3    H134781   7.178   7.246   5.744
11608TIP3    H234782   7.169   7.289   5.599
11609TIP3   OH234783   7.121   6.606   1.198
11609TIP3    H134784   7.148   6.544   1.131
11609TIP3    H234785   7.031   6.582   1.219
11610TIP3   OH234786   6.484   0.947   1.329
11610TIP3    H134787   6.540   0.916   1.258
11610TIP3    H234788   6.413   0.994   1.284
11611TIP3   OH234789   1.047   6.366   0.724
11611TIP3    H134790   1.139   6.381   0.746
11611TIP3    H234791   1.045   6.277   0.689
11612TIP3   OH234792   7.343   7.331   4.414
11612TIP3    H134793   7.290   7.359   4.340
11612TIP3    H234794   7.294   7.358   4.491
11613TIP3   OH234795   3.693   1.547   4.956
11613TIP3    H134796   3.642   1.474   4.991
11613TIP3    H234797   3.783   1.527   4.979
11614TIP3   OH234798   7.624   1.008   5.539
11614TIP3    H134799   7.719   0.995   5.550
11614TIP3    H234800   7.588   0.920   5.537
11615TIP3   OH234801   6.654   6.052   1.578
11615TIP3    H134802   6.671   5.966   1.538
11615TIP3    H234803   6.575   6.039   1.630
11616TIP3   OH234804   4.500   2.174   3.404
11616TIP3    H134805   4.485   2.114   3.331
11616TIP3    H234806   4.517   2.259   3.362
11617TIP3   OH234807   7.573   7.522   6.269
11617TIP3    H134808   7.577   7.518   6.173
11617TIP3    H234809   7.628   7.449   6.298
11618TIP3   OH234810   5.631   1.268   6.636
11618TIP3    H134811   5.681   1.347   6.617
11618TIP3    H234812   5.612   1.273   6.729
11619TIP3   OH234813   2.231   6.314   5.014
11619TIP3    H134814   2.197   6.333   5.101
11619TIP3    H234815   2.195   6.382   4.958
11620TIP3   OH234816   7.206   0.276   5.732
11620TIP3    H134817   7.262   0.335   5.683
11620TIP3    H234818   7.117   0.308   5.717
11621TIP3   OH234819   4.228   1.970   3.133
11621TIP3    H134820   4.226   1.916   3.054
11621TIP3    H234821   4.177   1.922   3.197
11622TIP3   OH234822   5.919   5.064   0.889
11622TIP3    H134823   5.951   5.032   0.805
11622TIP3    H234824   5.991   5.118   0.923
11623TIP3   OH234825   3.273   5.972   0.089
11623TIP3    H134826   3.339   5.909   0.060
11623TIP3    H234827   3.230   5.929   0.163
11624TIP3   OH234828   2.114   7.794   0.979
11624TIP3    H134829   2.090   7.842   1.057
11624TIP3    H234830   2.129   7.704   1.009
11625TIP3   OH234831   3.840   3.896   4.522
11625TIP3    H134832   3.870   3.985   4.540
11625TIP3    H234833   3.754   3.908   4.481
11626TIP3   OH234834   1.115   2.692   0.631
11626TIP3    H134835   1.050   2.736   0.685
11626TIP3    H234836   1.065   2.648   0.563
11627TIP3   OH234837   5.619   5.319   6.672
11627TIP3    H134838   5.619   5.227   6.699
11627TIP3    H234839   5.711   5.344   6.674
11628TIP3   OH234840   7.897   7.691   5.009
11628TIP3    H134841   7.827   7.755   5.027
11628TIP3    H234842   7.876   7.657   4.923
11629TIP3   OH234843   5.711   1.030   1.852
11629TIP3    H134844   5.647   1.083   1.899
11629TIP3    H234845   5.755   0.978   1.920
11630TIP3   OH234846   2.044   0.068   0.713
11630TIP3    H134847   2.132   0.100   0.694
11630TIP3    H234848   2.002   0.062   0.627
11631TIP3   OH234849   3.538   2.103   4.598
11631TIP3    H134850   3.486   2.129   4.521
11631TIP3    H234851   3.626   2.133   4.578
11632TIP3   OH234852   4.915   4.869   2.467
11632TIP3    H134853   4.887   4.901   2.553
11632TIP3    H234854   4.895   4.775   2.469
11633TIP3   OH234855   8.095   7.471   1.063
11633TIP3    H134856   8.178   7.459   1.017
11633TIP3    H234857   8.080   7.387   1.108
11634TIP3   OH234858   6.627   1.622   1.714
11634TIP3    H134859   6.722   1.615   1.716
11634TIP3    H234860   6.597   1.535   1.688
11635TIP3   OH234861   0.217   6.120   3.838
11635TIP3    H134862   0.155   6.193   3.834
11635TIP3    H234863   0.303   6.159   3.823
11636TIP3   OH234864   4.272   7.215   6.782
11636TIP3    H134865   4.327   7.184   6.711
11636TIP3    H234866   4.226   7.290   6.746
11637TIP3   OH234867   7.973   7.433   6.063
11637TIP3    H134868   8.035   7.505   6.064
11637TIP3    H234869   8.016   7.363   6.014
11638TIP3   OH234870   4.214   2.960   3.198
11638TIP3    H134871   4.252   2.874   3.180
11638TIP3    H234872   4.130   2.941   3.239
11639TIP3   OH234873   2.690   2.340   3.593
11639TIP3    H134874   2.750   2.349   3.666
11639TIP3    H234875   2.746   2.316   3.519
11640TIP3   OH234876   0.061   1.029   1.685
11640TIP3    H134877   0.134   1.057   1.741
11640TIP3    H234878   0.059   0.934   1.694
11641TIP3   OH234879   0.260   2.772   0.193
11641TIP3    H134880   0.166   2.757   0.198
11641TIP3    H234881   0.296   2.689   0.160
11642TIP3   OH234882   1.396   5.102   6.310
11642TIP3    H134883   1.375   5.107   6.217
11642TIP3    H234884   1.418   5.192   6.335
11643TIP3   OH234885   1.211   4.650   3.153
11643TIP3    H134886   1.198   4.604   3.237
11643TIP3    H234887   1.135   4.624   3.100
11644TIP3   OH234888   1.027   4.515   2.714
11644TIP3    H134889   1.073   4.460   2.650
11644TIP3    H234890   1.079   4.595   2.718
11645TIP3   OH234891   6.676   3.089   5.670
11645TIP3    H134892   6.613   3.050   5.609
11645TIP3    H234893   6.653   3.182   5.672
11646TIP3   OH234894   3.588   1.252   6.652
11646TIP3    H134895   3.636   1.300   6.719
11646TIP3    H234896   3.624   1.163   6.656
11647TIP3   OH234897   0.035   5.918   5.229
11647TIP3    H134898  -0.030   5.988   5.230
11647TIP3    H234899   0.056   5.906   5.136
11648TIP3   OH234900   8.230   6.556   4.962
11648TIP3    H134901   8.154   6.497   4.953
11648TIP3    H234902   8.223   6.615   4.887
11649TIP3   OH234903   1.780   2.241   6.002
11649TIP3    H134904   1.807   2.330   6.026
11649TIP3    H234905   1.827   2.222   5.922
11650TIP3   OH234906   4.778   5.864   0.735
11650TIP3    H134907   4.777   5.794   0.801
11650TIP3    H234908   4.728   5.935   0.774
11651TIP3   OH234909   3.869   2.732   5.726
11651TIP3    H134910   3.833   2.735   5.815
11651TIP3    H234911   3.942   2.794   5.727
11652TIP3   OH234912   6.130   0.825   0.461
11652TIP3    H134913   6.219   0.826   0.427
11652TIP3    H234914   6.075   0.839   0.384
11653TIP3   OH234915   2.887   0.252   1.126
11653TIP3    H134916   2.824   0.252   1.054
11653TIP3    H234917   2.887   0.162   1.158
11654TIP3   OH234918   7.982   4.000   0.480
11654TIP3    H134919   7.939   4.037   0.402
11654TIP3    H234920   8.009   3.912   0.453
11655TIP3   OH234921   2.844   7.665   3.286
11655TIP3    H134922   2.826   7.670   3.380
11655TIP3    H234923   2.935   7.696   3.278
11656TIP3   OH234924   1.780   6.081   4.328
11656TIP3    H134925   1.738   6.074   4.414
11656TIP3    H234926   1.758   6.170   4.298
11657TIP3   OH234927   6.765   1.064   3.657
11657TIP3    H134928   6.771   1.129   3.587
11657TIP3    H234929   6.740   1.114   3.734
11658TIP3   OH234930   7.476   7.176   4.050
11658TIP3    H134931   7.457   7.156   3.958
11658TIP3    H234932   7.444   7.265   4.062
11659TIP3   OH234933   6.738   2.834   4.989
11659TIP3    H134934   6.668   2.842   4.923
11659TIP3    H234935   6.750   2.739   4.999
11660TIP3   OH234936   3.468   5.942   0.408
11660TIP3    H134937   3.454   6.027   0.367
11660TIP3    H234938   3.381   5.901   0.406
11661TIP3   OH234939   7.771   2.284   1.895
11661TIP3    H134940   7.735   2.323   1.815
11661TIP3    H234941   7.695   2.272   1.952
11662TIP3   OH234942   3.603   7.405   4.463
11662TIP3    H134943   3.607   7.347   4.387
11662TIP3    H234944   3.695   7.421   4.486
11663TIP3   OH234945   2.110   4.891   1.079
11663TIP3    H134946   2.092   4.941   1.159
11663TIP3    H234947   2.031   4.903   1.025
11664TIP3   OH234948   3.786   5.294   3.529
11664TIP3    H134949   3.717   5.328   3.587
11664TIP3    H234950   3.756   5.317   3.441
11665TIP3   OH234951   2.622   1.463   3.833
11665TIP3    H134952   2.584   1.477   3.920
11665TIP3    H234953   2.693   1.401   3.848
11666TIP3   OH234954   3.225   4.388   1.892
11666TIP3    H134955   3.174   4.376   1.973
11666TIP3    H234956   3.259   4.301   1.872
11667TIP3   OH234957   7.509   3.802   5.701
11667TIP3    H134958   7.462   3.754   5.770
11667TIP3    H234959   7.476   3.764   5.619
11668TIP3   OH234960   2.887   0.042   3.758
11668TIP3    H134961   2.826  -0.029   3.736
11668TIP3    H234962   2.832   0.119   3.770
11669TIP3   OH234963   6.688   0.160   6.243
11669TIP3    H134964   6.754   0.105   6.286
11669TIP3    H234965   6.684   0.239   6.296
11670TIP3   OH234966   3.090   5.200   1.262
11670TIP3    H134967   3.062   5.205   1.353
11670TIP3    H234968   3.035   5.264   1.216
11671TIP3   OH234969   3.412   5.974   1.145
11671TIP3    H134970   3.502   5.952   1.121
11671TIP3    H234971   3.405   6.068   1.127
11672TIP3   OH234972   4.799   1.860   2.864
11672TIP3    H134973   4.745   1.898   2.795
11672TIP3    H234974   4.881   1.837   2.820
11673TIP3   OH234975   4.600   6.772   5.228
11673TIP3    H134976   4.558   6.737   5.150
11673TIP3    H234977   4.642   6.853   5.198
11674TIP3   OH234978   3.757   2.495   6.729
11674TIP3    H134979   3.751   2.563   6.795
11674TIP3    H234980   3.710   2.531   6.653
11675TIP3   OH234981   0.270   3.928   1.131
11675TIP3    H134982   0.280   3.985   1.207
11675TIP3    H234983   0.317   3.848   1.154
11676TIP3   OH234984   3.392   5.489   0.761
11676TIP3    H134985   3.484   5.490   0.733
11676TIP3    H234986   3.393   5.534   0.846
11677TIP3   OH234987   2.872   4.146   5.437
11677TIP3    H134988   2.935   4.125   5.506
11677TIP3    H234989   2.893   4.236   5.412
11678TIP3   OH234990   1.551   1.733   2.763
11678TIP3    H134991   1.634   1.712   2.720
11678TIP3    H234992   1.542   1.828   2.751
11679TIP3   OH234993   2.569   2.259   6.569
11679TIP3    H134994   2.558   2.354   6.575
11679TIP3    H234995   2.563   2.240   6.476
11680TIP3   OH234996   4.299   5.405   3.467
11680TIP3    H134997   4.230   5.339   3.461
11680TIP3    H234998   4.338   5.406   3.379
11681TIP3   OH234999   3.815   4.250   2.460
11681TIP3    H135000   3.895   4.198   2.454
11681TIP3    H235001   3.824   4.298   2.543
11682TIP3   OH235002   0.073   1.638   0.388
11682TIP3    H135003   0.008   1.685   0.440
11682TIP3    H235004   0.052   1.546   0.400
11683TIP3   OH235005   7.466   0.337   2.546
11683TIP3    H135006   7.405   0.348   2.473
11683TIP3    H235007   7.445   0.409   2.606
11684TIP3   OH235008   4.072   6.218   4.590
11684TIP3    H135009   4.165   6.225   4.570
11684TIP3    H235010   4.036   6.162   4.521
11685TIP3   OH235011   0.602   0.408   2.899
11685TIP3    H135012   0.594   0.502   2.919
11685TIP3    H235013   0.686   0.401   2.852
11686TIP3   OH235014   2.135   6.066   5.438
11686TIP3    H135015   2.215   6.020   5.467
11686TIP3    H235016   2.072   5.996   5.424
11687TIP3   OH235017   8.163   7.136   2.035
11687TIP3    H135018   8.188   7.090   1.955
11687TIP3    H235019   8.172   7.229   2.012
11688TIP3   OH235020   1.149   3.586   2.224
11688TIP3    H135021   1.237   3.602   2.258
11688TIP3    H235022   1.110   3.673   2.214
11689TIP3   OH235023   8.128   0.898   5.346
11689TIP3    H135024   8.127   0.827   5.410
11689TIP3    H235025   8.167   0.972   5.393
11690TIP3   OH235026   5.284   0.737   4.993
11690TIP3    H135027   5.302   0.791   4.915
11690TIP3    H235028   5.228   0.792   5.047
11691TIP3   OH235029   0.776   5.476   4.714
11691TIP3    H135030   0.773   5.419   4.637
11691TIP3    H235031   0.692   5.463   4.757
11692TIP3   OH235032   5.287   5.433   3.878
11692TIP3    H135033   5.304   5.525   3.897
11692TIP3    H235034   5.229   5.434   3.802
11693TIP3   OH235035   4.982   3.588   1.263
11693TIP3    H135036   4.996   3.512   1.320
11693TIP3    H235037   4.949   3.550   1.181
11694TIP3   OH235038   1.799   2.658   0.994
11694TIP3    H135039   1.806   2.727   1.060
11694TIP3    H235040   1.708   2.660   0.966
11695TIP3   OH235041   2.684   1.553   0.694
11695TIP3    H135042   2.641   1.539   0.610
11695TIP3    H235043   2.736   1.633   0.682
11696TIP3   OH235044   2.824   4.512   1.038
11696TIP3    H135045   2.863   4.455   0.972
11696TIP3    H235046   2.880   4.590   1.038
11697TIP3   OH235047   2.551   4.198   1.320
11697TIP3    H135048   2.479   4.227   1.376
11697TIP3    H235049   2.509   4.175   1.237
11698TIP3   OH235050   3.597   5.734   4.615
11698TIP3    H135051   3.505   5.742   4.639
11698TIP3    H235052   3.623   5.647   4.645
11699TIP3   OH235053   7.316   7.144   1.859
11699TIP3    H135054   7.395   7.103   1.896
11699TIP3    H235055   7.284   7.081   1.795
11700TIP3   OH235056   1.281   7.048   2.327
11700TIP3    H135057   1.240   7.052   2.241
11700TIP3    H235058   1.268   7.136   2.364
11701TIP3   OH235059   1.967   4.270   0.210
11701TIP3    H135060   2.040   4.212   0.234
11701TIP3    H235061   1.894   4.241   0.265
11702TIP3   OH235062   7.286   1.836   1.493
11702TIP3    H135063   7.259   1.875   1.576
11702TIP3    H235064   7.244   1.750   1.491
11703TIP3   OH235065   4.288   1.317   4.107
11703TIP3    H135066   4.382   1.333   4.112
11703TIP3    H235067   4.264   1.337   4.017
11704TIP3   OH235068   1.471   7.405   6.636
11704TIP3    H135069   1.429   7.348   6.700
11704TIP3    H235070   1.442   7.493   6.659
11705TIP3   OH235071   4.498   1.769   3.401
11705TIP3    H135072   4.535   1.740   3.484
11705TIP3    H235073   4.425   1.709   3.385
11706TIP3   OH235074   2.048   1.509   2.286
11706TIP3    H135075   2.089   1.591   2.312
11706TIP3    H235076   2.051   1.510   2.190
11707TIP3   OH235077   4.877   2.494   5.388
11707TIP3    H135078   4.802   2.540   5.425
11707TIP3    H235079   4.855   2.401   5.398
11708TIP3   OH235080   7.711   5.745   0.104
11708TIP3    H135081   7.707   5.839   0.121
11708TIP3    H235082   7.699   5.737   0.009
11709TIP3   OH235083   2.709   5.924   5.249
11709TIP3    H135084   2.616   5.925   5.272
11709TIP3    H235085   2.710   5.911   5.155
11710TIP3   OH235086   7.473   7.820   4.768
11710TIP3    H135087   7.415   7.784   4.835
11710TIP3    H235088   7.476   7.914   4.787
11711TIP3   OH235089   5.643   2.796   5.849
11711TIP3    H135090   5.693   2.766   5.773
11711TIP3    H235091   5.695   2.768   5.924
11712TIP3   OH235092   7.552   3.970   3.385
11712TIP3    H135093   7.478   3.910   3.381
11712TIP3    H235094   7.609   3.943   3.313
11713TIP3   OH235095   5.109   0.740   0.347
11713TIP3    H135096   5.032   0.721   0.401
11713TIP3    H235097   5.157   0.657   0.344
11714TIP3   OH235098   6.077   2.901   3.402
11714TIP3    H135099   6.105   2.870   3.316
11714TIP3    H235100   6.145   2.871   3.462
11715TIP3   OH235101   0.943   7.386   3.360
11715TIP3    H135102   0.933   7.297   3.326
11715TIP3    H235103   0.855   7.423   3.357
11716TIP3   OH235104   6.180   4.666   6.645
11716TIP3    H135105   6.221   4.717   6.575
11716TIP3    H235106   6.098   4.712   6.663
11717TIP3   OH235107   2.518   4.392   3.611
11717TIP3    H135108   2.435   4.365   3.572
11717TIP3    H235109   2.498   4.401   3.705
11718TIP3   OH235110   2.753   7.022   3.211
11718TIP3    H135111   2.674   7.077   3.206
11718TIP3    H235112   2.741   6.957   3.141
11719TIP3   OH235113   5.884   7.588   3.000
11719TIP3    H135114   5.816   7.590   2.932
11719TIP3    H235115   5.854   7.652   3.065
11720TIP3   OH235116   3.948   3.614   6.675
11720TIP3    H135117   3.863   3.601   6.634
11720TIP3    H235118   4.004   3.546   6.639
11721TIP3   OH235119   5.717   6.757   3.015
11721TIP3    H135120   5.698   6.666   2.992
11721TIP3    H235121   5.702   6.761   3.110
11722TIP3   OH235122   2.492   1.885   4.584
11722TIP3    H135123   2.561   1.819   4.585
11722TIP3    H235124   2.450   1.874   4.499
11723TIP3   OH235125   6.360   0.976   5.984
11723TIP3    H135126   6.320   1.063   5.977
11723TIP3    H235127   6.434   0.989   6.043
11724TIP3   OH235128   0.949   4.599   0.256
11724TIP3    H135129   0.959   4.694   0.263
11724TIP3    H235130   1.032   4.569   0.218
11725TIP3   OH235131   1.082   3.939   0.229
11725TIP3    H135132   1.029   3.976   0.158
11725TIP3    H235133   1.155   4.001   0.239
11726TIP3   OH235134   3.712   7.555   2.322
11726TIP3    H135135   3.666   7.629   2.361
11726TIP3    H235136   3.737   7.585   2.235
11727TIP3   OH235137   3.193   4.888   1.862
11727TIP3    H135138   3.169   4.943   1.937
11727TIP3    H235139   3.160   4.937   1.786
11728TIP3   OH235140   3.532   7.422   4.761
11728TIP3    H135141   3.576   7.492   4.809
11728TIP3    H235142   3.572   7.341   4.794
11729TIP3   OH235143   4.390   1.389   0.711
11729TIP3    H135144   4.385   1.396   0.806
11729TIP3    H235145   4.305   1.420   0.680
11730TIP3   OH235146   5.249   1.940   4.760
11730TIP3    H135147   5.251   1.848   4.787
11730TIP3    H235148   5.341   1.965   4.756
11731TIP3   OH235149   2.942   7.166   4.744
11731TIP3    H135150   2.852   7.163   4.776
11731TIP3    H235151   2.967   7.075   4.734
11732TIP3   OH235152   7.351   3.591   1.379
11732TIP3    H135153   7.428   3.607   1.432
11732TIP3    H235154   7.284   3.649   1.416
11733TIP3   OH235155   7.909   5.488   5.225
11733TIP3    H135156   7.989   5.437   5.234
11733TIP3    H235157   7.843   5.424   5.197
11734TIP3   OH235158   6.763   0.898   2.837
11734TIP3    H135159   6.815   0.933   2.909
11734TIP3    H235160   6.803   0.934   2.758
11735TIP3   OH235161   7.568   5.438   5.966
11735TIP3    H135162   7.560   5.360   6.021
11735TIP3    H235163   7.518   5.416   5.886
11736TIP3   OH235164   6.767   4.570   3.373
11736TIP3    H135165   6.801   4.595   3.287
11736TIP3    H235166   6.769   4.651   3.424
11737TIP3   OH235167   0.906   2.765   1.192
11737TIP3    H135168   0.917   2.846   1.243
11737TIP3    H235169   0.904   2.696   1.257
11738TIP3   OH235170   4.879   4.483   1.934
11738TIP3    H135171   4.856   4.474   2.027
11738TIP3    H235172   4.820   4.423   1.889
11739TIP3   OH235173   0.025   2.422   0.077
11739TIP3    H135174   0.053   2.331   0.091
11739TIP3    H235175   0.090   2.458   0.017
11740TIP3   OH235176   7.462   3.758   0.669
11740TIP3    H135177   7.534   3.804   0.713
11740TIP3    H235178   7.505   3.684   0.626
11741TIP3   OH235179   3.819   3.971   1.073
11741TIP3    H135180   3.791   4.046   1.126
11741TIP3    H235181   3.738   3.935   1.037
11742TIP3   OH235182   1.404   5.985   1.967
11742TIP3    H135183   1.366   6.066   1.934
11742TIP3    H235184   1.395   5.990   2.062
11743TIP3   OH235185   5.954   7.614   4.722
11743TIP3    H135186   5.941   7.601   4.816
11743TIP3    H235187   5.866   7.613   4.686
11744TIP3   OH235188   5.084   5.823   6.030
11744TIP3    H135189   5.001   5.838   6.074
11744TIP3    H235190   5.102   5.730   6.041
11745TIP3   OH235191   5.101   5.470   4.460
11745TIP3    H135192   5.133   5.516   4.382
11745TIP3    H235193   5.009   5.453   4.441
11746TIP3   OH235194   0.445   5.160   3.217
11746TIP3    H135195   0.487   5.237   3.255
11746TIP3    H235196   0.504   5.087   3.239
11747TIP3   OH235197   7.186   7.100   4.454
11747TIP3    H135198   7.221   7.059   4.533
11747TIP3    H235199   7.235   7.181   4.445
11748TIP3   OH235200   5.970   1.280   4.682
11748TIP3    H135201   6.048   1.252   4.731
11748TIP3    H235202   6.003   1.297   4.593
11749TIP3   OH235203   2.698   3.672   4.621
11749TIP3    H135204   2.740   3.706   4.700
11749TIP3    H235205   2.608   3.704   4.626
11750TIP3   OH235206   6.695   0.768   5.421
11750TIP3    H135207   6.628   0.742   5.485
11750TIP3    H235208   6.739   0.843   5.461
11751TIP3   OH235209   2.183   6.888   5.593
11751TIP3    H135210   2.132   6.835   5.532
11751TIP3    H235211   2.155   6.978   5.576
11752TIP3   OH235212   6.880   5.960   6.248
11752TIP3    H135213   6.938   6.018   6.199
11752TIP3    H235214   6.792   5.980   6.216
11753TIP3   OH235215   0.339   7.148   4.931
11753TIP3    H135216   0.282   7.114   4.862
11753TIP3    H235217   0.334   7.083   5.000
11754TIP3   OH235218   4.790   4.428   0.174
11754TIP3    H135219   4.857   4.457   0.112
11754TIP3    H235220   4.793   4.332   0.170
11755TIP3   OH235221   4.931   6.054   5.338
11755TIP3    H135222   5.018   6.095   5.346
11755TIP3    H235223   4.872   6.128   5.321
11756TIP3   OH235224   2.865   1.844   5.971
11756TIP3    H135225   2.797   1.911   5.981
11756TIP3    H235226   2.947   1.894   5.971
11757TIP3   OH235227   4.801   7.532   2.986
11757TIP3    H135228   4.755   7.582   3.053
11757TIP3    H235229   4.794   7.585   2.906
11758TIP3   OH235230   6.861   7.357   4.338
11758TIP3    H135231   6.862   7.317   4.250
11758TIP3    H235232   6.832   7.286   4.396
11759TIP3   OH235233   6.358   6.432   2.331
11759TIP3    H135234   6.272   6.464   2.302
11759TIP3    H235235   6.418   6.460   2.262
11760TIP3   OH235236   8.054   1.705   4.404
11760TIP3    H135237   8.057   1.632   4.342
11760TIP3    H235238   8.146   1.718   4.429
11761TIP3   OH235239   7.480   7.363   2.138
11761TIP3    H135240   7.409   7.348   2.201
11761TIP3    H235241   7.442   7.423   2.074
11762TIP3   OH235242   5.042   7.071   5.307
11762TIP3    H135243   5.125   7.051   5.351
11762TIP3    H235244   4.983   7.098   5.377
11763TIP3   OH235245   2.371   2.678   3.258
11763TIP3    H135246   2.293   2.707   3.306
11763TIP3    H235247   2.366   2.583   3.259
11764TIP3   OH235248   5.878   0.260   1.863
11764TIP3    H135249   5.833   0.227   1.941
11764TIP3    H235250   5.949   0.313   1.897
11765TIP3   OH235251   8.166   4.388   6.393
11765TIP3    H135252   8.104   4.318   6.376
11765TIP3    H235253   8.251   4.344   6.395
11766TIP3   OH235254   5.274   1.286   1.726
11766TIP3    H135255   5.234   1.321   1.805
11766TIP3    H235256   5.358   1.332   1.719
11767TIP3   OH235257   0.408   6.024   1.871
11767TIP3    H135258   0.331   6.015   1.814
11767TIP3    H235259   0.402   6.112   1.906
11768TIP3   OH235260   7.017   4.583   0.515
11768TIP3    H135261   7.086   4.595   0.451
11768TIP3    H235262   7.053   4.520   0.577
11769TIP3   OH235263   1.906   2.671   4.396
11769TIP3    H135264   1.907   2.763   4.370
11769TIP3    H235265   1.982   2.662   4.454
11770TIP3   OH235266   6.292   4.380   4.659
11770TIP3    H135267   6.237   4.312   4.620
11770TIP3    H235268   6.285   4.365   4.753
11771TIP3   OH235269   3.362   4.372   5.741
11771TIP3    H135270   3.347   4.288   5.698
11771TIP3    H235271   3.451   4.397   5.714
11772TIP3   OH235272   1.321   6.810   1.366
11772TIP3    H135273   1.290   6.900   1.367
11772TIP3    H235274   1.416   6.817   1.375
11773TIP3   OH235275   3.553   0.432   1.454
11773TIP3    H135276   3.589   0.363   1.397
11773TIP3    H235277   3.486   0.474   1.401
11774TIP3   OH235278   6.703   1.590   2.667
11774TIP3    H135279   6.674   1.510   2.622
11774TIP3    H235280   6.710   1.564   2.759
11775TIP3   OH235281   6.793   6.514   5.146
11775TIP3    H135282   6.846   6.436   5.164
11775TIP3    H235283   6.813   6.535   5.055
11776TIP3   OH235284   5.381   0.860   4.408
11776TIP3    H135285   5.415   0.877   4.320
11776TIP3    H235286   5.298   0.815   4.394
11777TIP3   OH235287   2.724   7.008   0.753
11777TIP3    H135288   2.647   6.956   0.730
11777TIP3    H235289   2.725   7.009   0.849
11778TIP3   OH235290   3.643   1.636   4.696
11778TIP3    H135291   3.694   1.607   4.772
11778TIP3    H235292   3.587   1.705   4.730
11779TIP3   OH235293   2.449   6.611   5.362
11779TIP3    H135294   2.492   6.618   5.447
11779TIP3    H235295   2.362   6.577   5.382
11780TIP3   OH235296   1.293   0.258   0.475
11780TIP3    H135297   1.379   0.237   0.511
11780TIP3    H235298   1.256   0.320   0.537
11781TIP3   OH235299   1.290   4.293   2.388
11781TIP3    H135300   1.286   4.286   2.484
11781TIP3    H235301   1.199   4.302   2.361
11782TIP3   OH235302   2.419   7.152   6.653
11782TIP3    H135303   2.433   7.069   6.608
11782TIP3    H235304   2.406   7.127   6.745
11783TIP3   OH235305   0.913   6.343   2.745
11783TIP3    H135306   0.953   6.336   2.832
11783TIP3    H235307   0.870   6.429   2.746
11784TIP3   OH235308   2.595   7.479   2.554
11784TIP3    H135309   2.600   7.426   2.475
11784TIP3    H235310   2.673   7.456   2.604
11785TIP3   OH235311   7.745   5.730   5.038
11785TIP3    H135312   7.755   5.794   5.108
11785TIP3    H235313   7.721   5.649   5.083
11786TIP3   OH235314   1.878   4.918   0.930
11786TIP3    H135315   1.788   4.888   0.922
11786TIP3    H235316   1.913   4.914   0.840
11787TIP3   OH235317   4.154   5.768   3.950
11787TIP3    H135318   4.179   5.837   3.888
11787TIP3    H235319   4.061   5.784   3.968
11788TIP3   OH235320   6.097   5.556   5.257
11788TIP3    H135321   6.145   5.481   5.291
11788TIP3    H235322   6.058   5.524   5.175
11789TIP3   OH235323   5.962   6.138   6.750
11789TIP3    H135324   5.966   6.232   6.737
11789TIP3    H235325   5.873   6.122   6.783
11790TIP3   OH235326   5.667   5.083   1.764
11790TIP3    H135327   5.699   4.998   1.733
11790TIP3    H235328   5.692   5.086   1.856
11791TIP3   OH235329   5.841   3.906   2.519
11791TIP3    H135330   5.900   3.859   2.459
11791TIP3    H235331   5.900   3.959   2.573
11792TIP3   OH235332   2.965   2.990   0.794
11792TIP3    H135333   3.001   2.921   0.850
11792TIP3    H235334   2.972   3.070   0.846
11793TIP3   OH235335   0.949   5.502   6.555
11793TIP3    H135336   0.945   5.495   6.650
11793TIP3    H235337   1.042   5.518   6.537
11794TIP3   OH235338   5.409   2.577   6.708
11794TIP3    H135339   5.370   2.628   6.779
11794TIP3    H235340   5.335   2.544   6.658
11795TIP3   OH235341   6.052   0.413   1.041
11795TIP3    H135342   6.075   0.342   0.981
11795TIP3    H235343   6.054   0.372   1.128
11796TIP3   OH235344   3.348   0.527   6.615
11796TIP3    H135345   3.349   0.434   6.639
11796TIP3    H235346   3.379   0.573   6.693
11797TIP3   OH235347   2.168   5.914   6.681
11797TIP3    H135348   2.220   5.838   6.656
11797TIP3    H235349   2.084   5.903   6.636
11798TIP3   OH235350   1.265   1.750   5.934
11798TIP3    H135351   1.230   1.832   5.898
11798TIP3    H235352   1.253   1.686   5.863
11799TIP3   OH235353   2.662   7.003   1.059
11799TIP3    H135354   2.719   6.951   1.115
11799TIP3    H235355   2.685   7.094   1.080
11800TIP3   OH235356   0.766   7.188   4.328
11800TIP3    H135357   0.826   7.247   4.282
11800TIP3    H235358   0.702   7.247   4.369
11801TIP3   OH235359   7.288   0.933   0.645
11801TIP3    H135360   7.308   0.963   0.556
11801TIP3    H235361   7.367   0.887   0.672
11802TIP3   OH235362   3.069   1.258   3.974
11802TIP3    H135363   3.041   1.176   4.013
11802TIP3    H235364   3.136   1.233   3.910
11803TIP3   OH235365   3.138   3.973   2.687
11803TIP3    H135366   3.103   4.056   2.655
11803TIP3    H235367   3.223   3.965   2.644
11804TIP3   OH235368   2.162   7.355   1.802
11804TIP3    H135369   2.085   7.349   1.857
11804TIP3    H235370   2.135   7.410   1.729
11805TIP3   OH235371   0.303   6.695   6.727
11805TIP3    H135372   0.230   6.690   6.665
11805TIP3    H235373   0.270   6.751   6.798
11806TIP3   OH235374   7.402   0.379   2.951
11806TIP3    H135375   7.323   0.359   2.902
11806TIP3    H235376   7.466   0.404   2.884
11807TIP3   OH235377   3.673   6.418   5.535
11807TIP3    H135378   3.650   6.327   5.554
11807TIP3    H235379   3.589   6.465   5.537
11808TIP3   OH235380   0.681   1.850   6.215
11808TIP3    H135381   0.677   1.764   6.255
11808TIP3    H235382   0.629   1.842   6.135
11809TIP3   OH235383   2.111   1.070   0.456
11809TIP3    H135384   2.059   1.127   0.513
11809TIP3    H235385   2.202   1.091   0.478
11810TIP3   OH235386   5.987   2.488   3.836
11810TIP3    H135387   5.895   2.475   3.813
11810TIP3    H235388   6.018   2.402   3.864
11811TIP3   OH235389   0.401   0.798   2.525
11811TIP3    H135390   0.461   0.866   2.557
11811TIP3    H235391   0.455   0.744   2.467
11812TIP3   OH235392   1.343   6.113   4.033
11812TIP3    H135393   1.370   6.037   4.086
11812TIP3    H235394   1.425   6.158   4.012
11813TIP3   OH235395   5.337   5.701   3.668
11813TIP3    H135396   5.387   5.781   3.652
11813TIP3    H235397   5.370   5.669   3.752
11814TIP3   OH235398   1.114   5.381   5.043
11814TIP3    H135399   1.108   5.372   5.138
11814TIP3    H235400   1.023   5.377   5.013
11815TIP3   OH235401   5.155   3.411   1.939
11815TIP3    H135402   5.177   3.373   2.023
11815TIP3    H235403   5.113   3.494   1.961
11816TIP3   OH235404   4.824   2.207   0.448
11816TIP3    H135405   4.875   2.251   0.516
11816TIP3    H235406   4.791   2.128   0.489
11817TIP3   OH235407   6.475   6.089   4.561
11817TIP3    H135408   6.400   6.148   4.557
11817TIP3    H235409   6.441   6.011   4.605
11818TIP3   OH235410   5.590   7.581   4.379
11818TIP3    H135411   5.621   7.599   4.468
11818TIP3    H235412   5.611   7.489   4.365
11819TIP3   OH235413   7.200   7.725   2.992
11819TIP3    H135414   7.201   7.647   3.047
11819TIP3    H235415   7.108   7.750   2.987
11820TIP3   OH235416   1.665   2.632   4.045
11820TIP3    H135417   1.679   2.709   3.990
11820TIP3    H235418   1.753   2.599   4.064
11821TIP3   OH235419   2.901   6.041   3.119
11821TIP3    H135420   2.903   6.120   3.065
11821TIP3    H235421   2.992   6.013   3.123
11822TIP3   OH235422   6.412   7.154   1.606
11822TIP3    H135423   6.451   7.222   1.662
11822TIP3    H235424   6.359   7.101   1.667
11823TIP3   OH235425   0.800   2.085   3.557
11823TIP3    H135426   0.735   2.019   3.534
11823TIP3    H235427   0.759   2.168   3.533
11824TIP3   OH235428   3.974   4.925   5.051
11824TIP3    H135429   3.924   4.918   5.132
11824TIP3    H235430   4.047   4.864   5.062
11825TIP3   OH235431   8.087   6.111   4.919
11825TIP3    H135432   8.057   6.167   4.848
11825TIP3    H235433   8.055   6.024   4.897
11826TIP3   OH235434   1.709   2.511   3.079
11826TIP3    H135435   1.635   2.570   3.096
11826TIP3    H235436   1.695   2.480   2.990
11827TIP3   OH235437   1.226   6.709   2.590
11827TIP3    H135438   1.208   6.803   2.599
11827TIP3    H235439   1.282   6.702   2.513
11828TIP3   OH235440   4.541   7.685   0.344
11828TIP3    H135441   4.626   7.712   0.380
11828TIP3    H235442   4.556   7.595   0.314
11829TIP3   OH235443   7.299   5.555   0.631
11829TIP3    H135444   7.292   5.479   0.689
11829TIP3    H235445   7.267   5.628   0.683
11830TIP3   OH235446   1.825   3.888   6.027
11830TIP3    H135447   1.858   3.954   5.966
11830TIP3    H235448   1.904   3.843   6.057
11831TIP3   OH235449   1.430   2.435   5.452
11831TIP3    H135450   1.500   2.411   5.512
11831TIP3    H235451   1.439   2.374   5.379
11832TIP3   OH235452   7.225   4.639   2.623
11832TIP3    H135453   7.214   4.700   2.551
11832TIP3    H235454   7.253   4.694   2.697
11833TIP3   OH235455   2.619   4.014   5.435
11833TIP3    H135456   2.702   4.057   5.416
11833TIP3    H235457   2.588   4.056   5.515
11834TIP3   OH235458   3.957   4.265   0.049
11834TIP3    H135459   3.944   4.224  -0.037
11834TIP3    H235460   4.052   4.263   0.061
11835TIP3   OH235461   7.352   3.157   4.847
11835TIP3    H135462   7.408   3.209   4.791
11835TIP3    H235463   7.305   3.099   4.787
11836TIP3   OH235464   6.801   7.294   5.700
11836TIP3    H135465   6.819   7.234   5.772
11836TIP3    H235466   6.714   7.330   5.720
11837TIP3   OH235467   6.941   1.938   0.227
11837TIP3    H135468   6.847   1.922   0.219
11837TIP3    H235469   6.954   1.953   0.321
11838TIP3   OH235470   2.852   6.855   6.768
11838TIP3    H135471   2.790   6.921   6.735
11838TIP3    H235472   2.805   6.811   6.839
11839TIP3   OH235473   7.393   3.257   2.393
11839TIP3    H135474   7.360   3.178   2.350
11839TIP3    H235475   7.402   3.321   2.322
11840TIP3   OH235476   2.241   6.691   0.787
11840TIP3    H135477   2.248   6.779   0.748
11840TIP3    H235478   2.199   6.706   0.871
11841TIP3   OH235479   4.492   6.258   3.336
11841TIP3    H135480   4.492   6.224   3.246
11841TIP3    H235481   4.492   6.181   3.392
11842TIP3   OH235482   3.534   5.992   5.769
11842TIP3    H135483   3.566   6.057   5.832
11842TIP3    H235484   3.438   5.998   5.776
11843TIP3   OH235485   0.026   2.161   0.860
11843TIP3    H135486   0.096   2.224   0.879
11843TIP3    H235487   0.049   2.125   0.774
11844TIP3   OH235488   2.284   4.668   0.686
11844TIP3    H135489   2.197   4.634   0.708
11844TIP3    H235490   2.269   4.726   0.611
11845TIP3   OH235491   3.529   0.037   5.553
11845TIP3    H135492   3.546   0.071   5.641
11845TIP3    H235493   3.452  -0.019   5.563
11846TIP3   OH235494   1.591   7.730   2.374
11846TIP3    H135495   1.532   7.775   2.434
11846TIP3    H235496   1.555   7.641   2.369
11847TIP3   OH235497   4.376   5.371   3.211
11847TIP3    H135498   4.328   5.443   3.169
11847TIP3    H235499   4.331   5.292   3.182
11848TIP3   OH235500   5.430   7.773   0.739
11848TIP3    H135501   5.363   7.836   0.712
11848TIP3    H235502   5.512   7.808   0.704
11849TIP3   OH235503   1.269   4.251   4.446
11849TIP3    H135504   1.325   4.291   4.380
11849TIP3    H235505   1.185   4.238   4.401
11850TIP3   OH235506   1.617   6.315   3.284
11850TIP3    H135507   1.682   6.299   3.215
11850TIP3    H235508   1.661   6.290   3.365
11851TIP3   OH235509   3.470   2.456   0.407
11851TIP3    H135510   3.445   2.420   0.322
11851TIP3    H235511   3.528   2.529   0.386
11852TIP3   OH235512   8.078   7.342   2.379
11852TIP3    H135513   8.020   7.297   2.317
11852TIP3    H235514   8.029   7.341   2.461
11853TIP3   OH235515   0.397   4.428   1.666
11853TIP3    H135516   0.350   4.479   1.732
11853TIP3    H235517   0.360   4.456   1.583
11854TIP3   OH235518   6.563   3.977   3.987
11854TIP3    H135519   6.580   3.888   3.958
11854TIP3    H235520   6.578   3.975   4.082
11855TIP3   OH235521   8.160   5.822   2.724
11855TIP3    H135522   8.169   5.843   2.631
11855TIP3    H235523   8.249   5.824   2.758
11856TIP3   OH235524   8.211   3.841   4.058
11856TIP3    H135525   8.158   3.808   4.130
11856TIP3    H235526   8.287   3.883   4.100
11857TIP3   OH235527   8.271   7.345   1.885
11857TIP3    H135528   8.273   7.269   1.828
11857TIP3    H235529   8.294   7.419   1.828
11858TIP3   OH235530   4.065   5.142   2.171
11858TIP3    H135531   4.130   5.072   2.168
11858TIP3    H235532   4.092   5.196   2.246
11859TIP3   OH235533   1.830   7.472   0.098
11859TIP3    H135534   1.778   7.547   0.128
11859TIP3    H235535   1.885   7.507   0.028
11860TIP3   OH235536   1.957   0.322   2.178
11860TIP3    H135537   2.032   0.373   2.150
11860TIP3    H235538   1.893   0.387   2.207
11861TIP3   OH235539   6.082   4.653   4.369
11861TIP3    H135540   6.026   4.633   4.444
11861TIP3    H235541   6.072   4.747   4.356
11862TIP3   OH235542   4.037   2.542   4.646
11862TIP3    H135543   4.092   2.547   4.724
11862TIP3    H235544   4.088   2.487   4.585
11863TIP3   OH235545   7.706   2.595   2.749
11863TIP3    H135546   7.682   2.521   2.804
11863TIP3    H235547   7.670   2.671   2.793
11864TIP3   OH235548   0.192   5.861   2.075
11864TIP3    H135549   0.122   5.806   2.040
11864TIP3    H235550   0.263   5.852   2.012
11865TIP3   OH235551   3.769   7.288   0.568
11865TIP3    H135552   3.862   7.304   0.556
11865TIP3    H235553   3.758   7.194   0.558
11866TIP3   OH235554   5.282   5.341   1.881
11866TIP3    H135555   5.257   5.393   1.805
11866TIP3    H235556   5.300   5.254   1.845
11867TIP3   OH235557   3.029   6.776   4.126
11867TIP3    H135558   3.006   6.726   4.048
11867TIP3    H235559   2.972   6.853   4.122
11868TIP3   OH235560   1.479   0.214   4.812
11868TIP3    H135561   1.438   0.175   4.735
11868TIP3    H235562   1.449   0.305   4.812
11869TIP3   OH235563   7.110   4.936   6.522
11869TIP3    H135564   7.158   4.978   6.450
11869TIP3    H235565   7.170   4.869   6.555
11870TIP3   OH235566   6.254   6.619   0.773
11870TIP3    H135567   6.286   6.585   0.857
11870TIP3    H235568   6.321   6.594   0.710
11871TIP3   OH235569   7.847   0.653   4.030
11871TIP3    H135570   7.913   0.624   4.093
11871TIP3    H235571   7.880   0.737   3.998
11872TIP3   OH235572   0.412   6.649   0.091
11872TIP3    H135573   0.450   6.580   0.145
11872TIP3    H235574   0.456   6.641   0.007
11873TIP3   OH235575   3.522   7.118   1.434
11873TIP3    H135576   3.445   7.085   1.480
11873TIP3    H235577   3.592   7.115   1.499
11874TIP3   OH235578   4.152   7.261   3.313
11874TIP3    H135579   4.200   7.228   3.237
11874TIP3    H235580   4.142   7.185   3.370
11875TIP3   OH235581   2.265   6.988   0.827
11875TIP3    H135582   2.170   6.994   0.819
11875TIP3    H235583   2.297   7.071   0.790
11876TIP3   OH235584   1.735   0.732   3.720
11876TIP3    H135585   1.771   0.791   3.786
11876TIP3    H235586   1.640   0.738   3.732
11877TIP3   OH235587   1.287   7.308   0.534
11877TIP3    H135588   1.221   7.372   0.561
11877TIP3    H235589   1.237   7.227   0.521
11878TIP3   OH235590   2.392   1.824   4.065
11878TIP3    H135591   2.404   1.918   4.075
11878TIP3    H235592   2.300   1.814   4.040
11879TIP3   OH235593   7.123   1.604   5.216
11879TIP3    H135594   7.092   1.516   5.197
11879TIP3    H235595   7.082   1.659   5.149
11880TIP3   OH235596   5.244   7.280   5.456
11880TIP3    H135597   5.292   7.198   5.444
11880TIP3    H235598   5.212   7.276   5.546
11881TIP3   OH235599   4.071   6.895   0.126
11881TIP3    H135600   4.006   6.940   0.072
11881TIP3    H235601   4.045   6.803   0.123
11882TIP3   OH235602   4.964   0.100   4.591
11882TIP3    H135603   4.987   0.179   4.640
11882TIP3    H235604   4.973   0.126   4.499
11883TIP3   OH235605   6.010   6.211   4.476
11883TIP3    H135606   5.963   6.222   4.559
11883TIP3    H235607   5.955   6.152   4.425
11884TIP3   OH235608   2.663   2.806   1.307
11884TIP3    H135609   2.582   2.826   1.354
11884TIP3    H235610   2.698   2.729   1.352
11885TIP3   OH235611   4.986   3.246   5.736
11885TIP3    H135612   4.995   3.308   5.808
11885TIP3    H235613   5.064   3.262   5.681
11886TIP3   OH235614   1.062   0.033   1.481
11886TIP3    H135615   1.015  -0.031   1.427
11886TIP3    H235616   1.018   0.116   1.463
11887TIP3   OH235617   7.314   5.462   0.036
11887TIP3    H135618   7.220   5.443   0.036
11887TIP3    H235619   7.331   5.497   0.123
11888TIP3   OH235620   5.467   0.787   5.498
11888TIP3    H135621   5.541   0.810   5.554
11888TIP3    H235622   5.501   0.718   5.441
11889TIP3   OH235623   6.806   2.937   3.985
11889TIP3    H135624   6.827   3.030   3.997
11889TIP3    H235625   6.870   2.906   3.921
11890TIP3   OH235626   2.706   7.677   0.030
11890TIP3    H135627   2.706   7.582   0.044
11890TIP3    H235628   2.792   7.705   0.059
11891TIP3   OH235629   1.035   4.227   2.546
11891TIP3    H135630   1.057   4.149   2.495
11891TIP3    H235631   0.998   4.192   2.628
11892TIP3   OH235632   0.990   4.530   2.992
11892TIP3    H135633   1.006   4.518   2.899
11892TIP3    H235634   0.967   4.443   3.024
11893TIP3   OH235635   2.929   0.374   5.334
11893TIP3    H135636   2.936   0.313   5.407
11893TIP3    H235637   3.001   0.352   5.275
11894TIP3   OH235638   6.371   2.279   5.740
11894TIP3    H135639   6.317   2.201   5.750
11894TIP3    H235640   6.397   2.278   5.648
11895TIP3   OH235641   0.558   7.796   0.758
11895TIP3    H135642   0.643   7.756   0.738
11895TIP3    H235643   0.495   7.725   0.745
11896TIP3   OH235644   1.136   1.939   2.783
11896TIP3    H135645   1.112   1.869   2.843
11896TIP3    H235646   1.057   1.953   2.730
11897TIP3   OH235647   1.563   0.681   3.183
11897TIP3    H135648   1.485   0.682   3.127
11897TIP3    H235649   1.616   0.609   3.148
11898TIP3   OH235650   4.575   0.580   6.044
11898TIP3    H135651   4.533   0.662   6.016
11898TIP3    H235652   4.507   0.536   6.097
11899TIP3   OH235653   0.803   5.253   1.333
11899TIP3    H135654   0.790   5.185   1.399
11899TIP3    H235655   0.754   5.328   1.367
11900TIP3   OH235656   2.350   0.456   4.922
11900TIP3    H135657   2.396   0.531   4.960
11900TIP3    H235658   2.317   0.407   4.997
11901TIP3   OH235659   4.475   4.234   5.974
11901TIP3    H135660   4.530   4.169   5.931
11901TIP3    H235661   4.534   4.279   6.035
11902TIP3   OH235662   1.120   5.945   3.934
11902TIP3    H135663   1.088   5.995   4.009
11902TIP3    H235664   1.214   5.959   3.935
11903TIP3   OH235665   5.861   3.649   1.458
11903TIP3    H135666   5.823   3.687   1.379
11903TIP3    H235667   5.917   3.578   1.426
11904TIP3   OH235668   0.242   4.171   3.731
11904TIP3    H135669   0.306   4.100   3.737
11904TIP3    H235670   0.169   4.142   3.786
11905TIP3   OH235671   7.448   7.248   0.990
11905TIP3    H135672   7.386   7.297   0.937
11905TIP3    H235673   7.525   7.239   0.935
11906TIP3   OH235674   7.442   0.795   0.229
11906TIP3    H135675   7.537   0.796   0.238
11906TIP3    H235676   7.425   0.732   0.159
11907TIP3   OH235677   8.096   6.958   5.412
11907TIP3    H135678   8.061   6.937   5.326
11907TIP3    H235679   8.106   7.053   5.411
11908TIP3   OH235680   6.867   3.323   3.773
11908TIP3    H135681   6.952   3.362   3.792
11908TIP3    H235682   6.810   3.397   3.754
11909TIP3   OH235683   5.612   2.793   3.526
11909TIP3    H135684   5.638   2.705   3.555
11909TIP3    H235685   5.674   2.851   3.571
11910TIP3   OH235686   4.379   7.482   3.823
11910TIP3    H135687   4.297   7.437   3.843
11910TIP3    H235688   4.355   7.548   3.758
11911TIP3   OH235689   7.184   1.454   4.234
11911TIP3    H135690   7.200   1.442   4.140
11911TIP3    H235691   7.259   1.506   4.264
11912TIP3   OH235692   2.635   6.258   2.973
11912TIP3    H135693   2.576   6.209   3.029
11912TIP3    H235694   2.590   6.263   2.889
11913TIP3   OH235695   6.125   1.838   5.881
11913TIP3    H135696   6.037   1.800   5.887
11913TIP3    H235697   6.121   1.895   5.805
11914TIP3   OH235698   7.195   0.006   2.394
11914TIP3    H135699   7.236   0.046   2.470
11914TIP3    H235700   7.140   0.075   2.357
11915TIP3   OH235701   7.619   6.004   0.150
11915TIP3    H135702   7.660   6.067   0.210
11915TIP3    H235703   7.586   6.058   0.078
11916TIP3   OH235704   5.707   1.839   0.196
11916TIP3    H135705   5.689   1.898   0.269
11916TIP3    H235706   5.646   1.866   0.128
11917TIP3   OH235707   6.256   1.966   1.418
11917TIP3    H135708   6.214   1.923   1.493
11917TIP3    H235709   6.221   2.055   1.419
11918TIP3   OH235710   4.017   1.312   5.140
11918TIP3    H135711   4.070   1.294   5.218
11918TIP3    H235712   3.930   1.331   5.174
11919TIP3   OH235713   1.977   7.323   2.473
11919TIP3    H135714   1.903   7.264   2.468
11919TIP3    H235715   2.024   7.296   2.552
11920TIP3   OH235716   7.836   0.989   6.200
11920TIP3    H135717   7.798   1.060   6.150
11920TIP3    H235718   7.767   0.924   6.207
11921TIP3   OH235719   6.962   2.856   6.670
11921TIP3    H135720   7.039   2.824   6.624
11921TIP3    H235721   6.939   2.787   6.732
11922TIP3   OH235722   4.520   3.484   1.659
11922TIP3    H135723   4.516   3.551   1.590
11922TIP3    H235724   4.567   3.527   1.731
11923TIP3   OH235725   1.473   0.553   0.930
11923TIP3    H135726   1.468   0.460   0.949
11923TIP3    H235727   1.382   0.582   0.926
11924TIP3   OH235728   0.393   5.395   1.996
11924TIP3    H135729   0.322   5.391   1.933
11924TIP3    H235730   0.364   5.459   2.061
11925TIP3   OH235731   7.974   0.579   3.378
11925TIP3    H135732   8.015   0.665   3.364
11925TIP3    H235733   7.964   0.543   3.291
11926TIP3   OH235734   7.219   1.514   1.082
11926TIP3    H135735   7.285   1.497   1.150
11926TIP3    H235736   7.137   1.520   1.130
11927TIP3   OH235737   0.034   2.315   3.359
11927TIP3    H135738  -0.003   2.362   3.434
11927TIP3    H235739  -0.009   2.354   3.283
11928TIP3   OH235740   4.390   7.768   4.926
11928TIP3    H135741   4.313   7.801   4.880
11928TIP3    H235742   4.460   7.829   4.902
11929TIP3   OH235743   1.439   7.815   1.379
11929TIP3    H135744   1.400   7.740   1.334
11929TIP3    H235745   1.387   7.890   1.351
11930TIP3   OH235746   4.748   0.918   6.095
11930TIP3    H135747   4.801   0.870   6.031
11930TIP3    H235748   4.768   1.010   6.079
11931TIP3   OH235749   3.203   4.018   0.423
11931TIP3    H135750   3.238   4.092   0.374
11931TIP3    H235751   3.220   4.039   0.515
11932TIP3   OH235752   1.103   6.898   1.107
11932TIP3    H135753   1.035   6.964   1.122
11932TIP3    H235754   1.184   6.949   1.101
11933TIP3   OH235755   7.991   4.362   0.558
11933TIP3    H135756   8.053   4.372   0.631
11933TIP3    H235757   7.922   4.306   0.593
11934TIP3   OH235758   7.691   5.954   3.867
11934TIP3    H135759   7.654   5.990   3.947
11934TIP3    H235760   7.659   6.012   3.798
11935TIP3   OH235761   1.472   0.722   3.721
11935TIP3    H135762   1.432   0.655   3.666
11935TIP3    H235763   1.425   0.803   3.697
11936TIP3   OH235764   7.346   2.252   3.456
11936TIP3    H135765   7.428   2.211   3.484
11936TIP3    H235766   7.286   2.236   3.529
11937TIP3   OH235767   7.924   2.101   6.363
11937TIP3    H135768   8.003   2.153   6.348
11937TIP3    H235769   7.928   2.078   6.456
11938TIP3   OH235770   7.329   3.250   3.116
11938TIP3    H135771   7.250   3.303   3.112
11938TIP3    H235772   7.380   3.276   3.039
11939TIP3   OH235773   6.732   4.551   1.804
11939TIP3    H135774   6.674   4.538   1.729
11939TIP3    H235775   6.811   4.590   1.766
11940TIP3   OH235776   1.704   1.652   2.250
11940TIP3    H135777   1.747   1.614   2.173
11940TIP3    H235778   1.752   1.615   2.325
11941TIP3   OH235779   1.637   3.461   1.139
11941TIP3    H135780   1.570   3.508   1.089
11941TIP3    H235781   1.645   3.511   1.220
11942TIP3   OH235782   7.896   1.546   6.112
11942TIP3    H135783   7.942   1.584   6.037
11942TIP3    H235784   7.841   1.617   6.144
11943TIP3   OH235785   1.953   6.774   6.658
11943TIP3    H135786   1.877   6.833   6.656
11943TIP3    H235787   1.939   6.719   6.735
11944TIP3   OH235788   0.118   4.014   4.126
11944TIP3    H135789   0.091   4.093   4.172
11944TIP3    H235790   0.213   4.024   4.116
11945TIP3   OH235791   7.080   2.522   1.205
11945TIP3    H135792   7.023   2.525   1.282
11945TIP3    H235793   7.119   2.434   1.208
11946TIP3   OH235794   2.454   2.886   4.267
11946TIP3    H135795   2.543   2.851   4.258
11946TIP3    H235796   2.466   2.971   4.310
11947TIP3   OH235797   1.619   7.264   2.221
11947TIP3    H135798   1.599   7.222   2.305
11947TIP3    H235799   1.552   7.332   2.213
11948TIP3   OH235800   4.826   6.653   0.819
11948TIP3    H135801   4.840   6.613   0.734
11948TIP3    H235802   4.908   6.639   0.866
11949TIP3   OH235803   7.612   3.022   3.009
11949TIP3    H135804   7.618   3.045   3.102
11949TIP3    H235805   7.583   3.103   2.967
11950TIP3   OH235806   0.178   4.002   2.096
11950TIP3    H135807   0.126   4.009   2.016
11950TIP3    H235808   0.201   3.909   2.102
11951TIP3   OH235809   6.756   6.307   1.014
11951TIP3    H135810   6.717   6.312   0.926
11951TIP3    H235811   6.765   6.213   1.031
11952TIP3   OH235812   3.777   3.378   4.564
11952TIP3    H135813   3.789   3.323   4.487
11952TIP3    H235814   3.815   3.463   4.539
11953TIP3   OH235815   5.951   6.388   1.354
11953TIP3    H135816   6.045   6.399   1.343
11953TIP3    H235817   5.942   6.336   1.434
11954TIP3   OH235818   1.995   5.878   3.227
11954TIP3    H135819   1.903   5.903   3.219
11954TIP3    H235820   2.015   5.834   3.144
11955TIP3   OH235821   5.641   2.093   5.093
11955TIP3    H135822   5.639   2.159   5.163
11955TIP3    H235823   5.610   2.140   5.015
11956TIP3   OH235824   6.421   5.386   2.457
11956TIP3    H135825   6.490   5.447   2.431
11956TIP3    H235826   6.349   5.442   2.487
11957TIP3   OH235827   7.399   2.399   2.469
11957TIP3    H135828   7.401   2.455   2.391
11957TIP3    H235829   7.460   2.328   2.449
11958TIP3   OH235830   3.389   4.025   5.937
11958TIP3    H135831   3.402   4.030   6.032
11958TIP3    H235832   3.477   4.037   5.901
11959TIP3   OH235833   8.081   6.003   1.122
11959TIP3    H135834   8.101   6.039   1.036
11959TIP3    H235835   8.036   5.921   1.105
11960TIP3   OH235836   7.427   7.025   2.496
11960TIP3    H135837   7.450   6.994   2.583
11960TIP3    H235838   7.482   7.102   2.483
11961TIP3   OH235839   3.653   2.148   6.562
11961TIP3    H135840   3.581   2.198   6.524
11961TIP3    H235841   3.645   2.162   6.657
11962TIP3   OH235842   0.407   2.235   1.921
11962TIP3    H135843   0.475   2.292   1.885
11962TIP3    H235844   0.435   2.147   1.898
11963TIP3   OH235845   4.346   6.459   3.248
11963TIP3    H135846   4.266   6.434   3.293
11963TIP3    H235847   4.412   6.399   3.282
11964TIP3   OH235848   6.259   5.016   1.685
11964TIP3    H135849   6.200   5.088   1.667
11964TIP3    H235850   6.252   5.003   1.780
11965TIP3   OH235851   2.839   7.742   0.390
11965TIP3    H135852   2.902   7.741   0.462
11965TIP3    H235853   2.800   7.654   0.392
11966TIP3   OH235854   5.102   1.031   1.144
11966TIP3    H135855   5.066   0.970   1.081
11966TIP3    H235856   5.124   0.977   1.220
11967TIP3   OH235857   7.806   3.792   6.587
11967TIP3    H135858   7.889   3.828   6.618
11967TIP3    H235859   7.812   3.698   6.605
11968TIP3   OH235860   7.056   6.240   3.623
11968TIP3    H135861   7.001   6.248   3.701
11968TIP3    H235862   7.036   6.318   3.572
11969TIP3   OH235863   6.111   7.721   3.258
11969TIP3    H135864   6.024   7.743   3.223
11969TIP3    H235865   6.126   7.787   3.325
11970TIP3   OH235866   5.256   5.642   1.022
11970TIP3    H135867   5.216   5.615   0.940
11970TIP3    H235868   5.195   5.612   1.090
11971TIP3   OH235869   3.962   5.514   5.836
11971TIP3    H135870   4.034   5.509   5.772
11971TIP3    H235871   3.967   5.604   5.870
11972TIP3   OH235872   3.406   2.495   2.208
11972TIP3    H135873   3.397   2.568   2.269
11972TIP3    H235874   3.322   2.491   2.163
11973TIP3   OH235875   0.350   7.716   5.285
11973TIP3    H135876   0.426   7.759   5.246
11973TIP3    H235877   0.322   7.652   5.219
11974TIP3   OH235878   4.320   4.061   5.060
11974TIP3    H135879   4.254   3.994   5.042
11974TIP3    H235880   4.286   4.110   5.135
11975TIP3   OH235881   0.601   2.721   1.788
11975TIP3    H135882   0.695   2.710   1.801
11975TIP3    H235883   0.561   2.650   1.838
11976TIP3   OH235884   6.016   4.026   5.906
11976TIP3    H135885   5.941   4.082   5.922
11976TIP3    H235886   6.006   3.953   5.967
11977TIP3   OH235887   3.167   4.979   4.498
11977TIP3    H135888   3.104   4.984   4.569
11977TIP3    H235889   3.197   4.888   4.499
11978TIP3   OH235890   5.154   3.942   5.980
11978TIP3    H135891   5.163   4.036   5.998
11978TIP3    H235892   5.114   3.938   5.893
11979TIP3   OH235893   4.385   6.997   0.635
11979TIP3    H135894   4.452   7.065   0.641
11979TIP3    H235895   4.399   6.957   0.549
11980TIP3   OH235896   6.125   6.535   5.812
11980TIP3    H135897   6.047   6.528   5.868
11980TIP3    H235898   6.100   6.598   5.745
11981TIP3   OH235899   6.384   5.389   5.670
11981TIP3    H135900   6.376   5.466   5.612
11981TIP3    H235901   6.350   5.419   5.754
11982TIP3   OH235902   7.533   3.067   6.601
11982TIP3    H135903   7.508   3.156   6.579
11982TIP3    H235904   7.608   3.048   6.544
11983TIP3   OH235905   4.517   2.123   1.421
11983TIP3    H135906   4.497   2.190   1.355
11983TIP3    H235907   4.435   2.113   1.469
11984TIP3   OH235908   5.733   1.351   5.257
11984TIP3    H135909   5.824   1.355   5.287
11984TIP3    H235910   5.682   1.348   5.338
11985TIP3   OH235911   1.786   6.392   6.065
11985TIP3    H135912   1.840   6.375   6.142
11985TIP3    H235913   1.821   6.334   5.998
11986TIP3   OH235914   2.806   4.520   3.732
11986TIP3    H135915   2.801   4.477   3.647
11986TIP3    H235916   2.737   4.479   3.784
11987TIP3   OH235917   1.343   4.567   6.617
11987TIP3    H135918   1.325   4.473   6.609
11987TIP3    H235919   1.368   4.594   6.529
11988TIP3   OH235920   6.574   1.120   6.219
11988TIP3    H135921   6.570   1.144   6.127
11988TIP3    H235922   6.652   1.164   6.252
11989TIP3   OH235923   7.982   4.960   3.834
11989TIP3    H135924   7.996   4.866   3.821
11989TIP3    H235925   7.944   4.966   3.922
11990TIP3   OH235926   5.759   6.263   4.117
11990TIP3    H135927   5.728   6.194   4.176
11990TIP3    H235928   5.679   6.297   4.076
11991TIP3   OH235929   6.058   7.251   0.023
11991TIP3    H135930   6.056   7.326   0.082
11991TIP3    H235931   5.997   7.275  -0.048
11992TIP3   OH235932   3.864   6.355   4.393
11992TIP3    H135933   3.879   6.409   4.470
11992TIP3    H235934   3.786   6.304   4.414
11993TIP3   OH235935   1.114   6.908   5.368
11993TIP3    H135936   1.021   6.887   5.370
11993TIP3    H235937   1.131   6.934   5.277
11994TIP3   OH235938   6.701   5.704   4.260
11994TIP3    H135939   6.697   5.797   4.284
11994TIP3    H235940   6.612   5.671   4.274
11995TIP3   OH235941   1.627   3.172   5.408
11995TIP3    H135942   1.555   3.233   5.389
11995TIP3    H235943   1.655   3.141   5.322
11996TIP3   OH235944   6.350   5.869   2.802
11996TIP3    H135945   6.381   5.901   2.886
11996TIP3    H235946   6.345   5.774   2.812
11997TIP3   OH235947   5.701   6.613   1.867
11997TIP3    H135948   5.633   6.545   1.876
11997TIP3    H235949   5.701   6.659   1.950
11998TIP3   OH235950   6.844   1.285   6.284
11998TIP3    H135951   6.827   1.375   6.256
11998TIP3    H235952   6.901   1.294   6.360
11999TIP3   OH235953   5.462   0.813   2.016
11999TIP3    H135954   5.408   0.870   1.962
11999TIP3    H235955   5.551   0.845   2.003
12000TIP3   OH235956   0.007   0.021   0.341
12000TIP3    H135957   0.020   0.057   0.429
12000TIP3    H235958  -0.021  -0.069   0.356
12001TIP3   OH235959   5.558   6.265   1.179
12001TIP3    H135960   5.575   6.285   1.271
12001TIP3    H235961   5.582   6.346   1.132
12002TIP3   OH235962   3.767   3.698   0.899
12002TIP3    H135963   3.750   3.669   0.810
12002TIP3    H235964   3.686   3.740   0.927
12003TIP3   OH235965   7.709   3.725   5.252
12003TIP3    H135966   7.665   3.724   5.167
12003TIP3    H235967   7.798   3.695   5.234
12004TIP3   OH235968   1.170   4.329   3.282
12004TIP3    H135969   1.092   4.373   3.316
12004TIP3    H235970   1.140   4.286   3.201
12005TIP3   OH235971   7.930   2.849   2.524
12005TIP3    H135972   7.912   2.857   2.430
12005TIP3    H235973   7.861   2.900   2.566
12006TIP3   OH235974   2.753   0.337   3.823
12006TIP3    H135975   2.746   0.431   3.809
12006TIP3    H235976   2.755   0.326   3.918
12007TIP3   OH235977   6.182   2.273   4.830
12007TIP3    H135978   6.137   2.224   4.898
12007TIP3    H235979   6.112   2.308   4.775
12008TIP3   OH235980   7.302   5.303   5.989
12008TIP3    H135981   7.229   5.327   6.046
12008TIP3    H235982   7.372   5.277   6.048
12009TIP3   OH235983   3.027   5.694   3.066
12009TIP3    H135984   3.117   5.663   3.071
12009TIP3    H235985   3.019   5.734   2.980
12010TIP3   OH235986   5.075   0.623   4.714
12010TIP3    H135987   5.113   0.570   4.784
12010TIP3    H235988   4.989   0.649   4.747
12011TIP3   OH235989   4.946   0.516   5.340
12011TIP3    H135990   4.891   0.476   5.408
12011TIP3    H235991   4.889   0.523   5.264
12012TIP3   OH235992   7.654   2.178   1.463
12012TIP3    H135993   7.657   2.083   1.451
12012TIP3    H235994   7.737   2.209   1.427
12013TIP3   OH235995   3.745   5.916   2.429
12013TIP3    H135996   3.753   5.992   2.371
12013TIP3    H235997   3.656   5.921   2.462
12014TIP3   OH235998   3.252   4.536   5.216
12014TIP3    H135999   3.229   4.614   5.266
12014TIP3    H236000   3.337   4.557   5.178
12015TIP3   OH236001   5.515   7.754   2.700
12015TIP3    H136002   5.447   7.801   2.749
12015TIP3    H236003   5.476   7.738   2.614
12016TIP3   OH236004   6.869   0.654   3.137
12016TIP3    H136005   6.890   0.717   3.068
12016TIP3    H236006   6.809   0.592   3.095
12017TIP3   OH236007   5.484   1.522   4.312
12017TIP3    H136008   5.541   1.572   4.254
12017TIP3    H236009   5.534   1.515   4.394
12018TIP3   OH236010   4.082   7.023   4.706
12018TIP3    H136011   4.063   6.936   4.670
12018TIP3    H236012   4.175   7.036   4.688
12019TIP3   OH236013   4.968   0.377   2.046
12019TIP3    H136014   4.981   0.317   1.973
12019TIP3    H236015   4.892   0.343   2.093
12020TIP3   OH236016   7.989   0.027   6.147
12020TIP3    H136017   8.055  -0.031   6.185
12020TIP3    H236018   7.966   0.088   6.217
12021TIP3   OH236019   3.134   1.465   3.458
12021TIP3    H136020   3.220   1.484   3.420
12021TIP3    H236021   3.114   1.376   3.429
12022TIP3   OH236022   4.867   1.099   0.520
12022TIP3    H136023   4.810   1.038   0.473
12022TIP3    H236024   4.878   1.173   0.461
12023TIP3   OH236025   7.716   4.345   5.202
12023TIP3    H136026   7.666   4.381   5.129
12023TIP3    H236027   7.807   4.368   5.183
12024TIP3   OH236028   1.977   0.754   1.526
12024TIP3    H136029   1.996   0.663   1.505
12024TIP3    H236030   2.058   0.788   1.564
12025TIP3   OH236031   3.947   2.279   0.754
12025TIP3    H136032   3.993   2.361   0.772
12025TIP3    H236033   3.983   2.250   0.670
12026TIP3   OH236034   4.726   1.571   5.330
12026TIP3    H136035   4.669   1.562   5.406
12026TIP3    H236036   4.801   1.515   5.350
12027TIP3   OH236037   2.421   7.029   5.918
12027TIP3    H136038   2.494   7.067   5.869
12027TIP3    H236039   2.382   7.103   5.964
12028TIP3   OH236040   6.351   7.560   0.044
12028TIP3    H136041   6.360   7.471   0.010
12028TIP3    H236042   6.397   7.615  -0.020
12029TIP3   OH236043   2.987   7.434   1.877
12029TIP3    H136044   3.004   7.525   1.903
12029TIP3    H236045   2.925   7.441   1.805
12030TIP3   OH236046   0.844   6.494   5.818
12030TIP3    H136047   0.926   6.541   5.806
12030TIP3    H236048   0.811   6.522   5.903
12031TIP3   OH236049   0.221   5.784   6.296
12031TIP3    H136050   0.225   5.751   6.206
12031TIP3    H236051   0.170   5.865   6.289
12032TIP3   OH236052   3.799   3.214   6.241
12032TIP3    H136053   3.818   3.247   6.154
12032TIP3    H236054   3.854   3.266   6.299
12033TIP3   OH236055   5.415   3.869   5.723
12033TIP3    H136056   5.427   3.805   5.652
12033TIP3    H236057   5.380   3.947   5.680
12034TIP3   OH236058   1.292   2.683   1.804
12034TIP3    H136059   1.362   2.644   1.751
12034TIP3    H236060   1.271   2.765   1.759
12035TIP3   OH236061   0.270   2.801   5.643
12035TIP3    H136062   0.247   2.729   5.585
12035TIP3    H236063   0.339   2.849   5.596
12036TIP3   OH236064   0.767   0.028   4.917
12036TIP3    H136065   0.756   0.017   5.011
12036TIP3    H236066   0.790  -0.060   4.885
12037TIP3   OH236067   1.009   6.027   0.917
12037TIP3    H136068   1.021   6.072   0.834
12037TIP3    H236069   0.925   5.981   0.908
12038TIP3   OH236070   5.634   0.566   6.621
12038TIP3    H136071   5.594   0.537   6.703
12038TIP3    H236072   5.585   0.520   6.553
12039TIP3   OH236073   1.792   3.653   6.753
12039TIP3    H136074   1.741   3.632   6.674
12039TIP3    H236075   1.730   3.697   6.811
12040TIP3   OH236076   4.174   2.085   6.329
12040TIP3    H136077   4.092   2.106   6.373
12040TIP3    H236078   4.150   2.073   6.237
12041TIP3   OH236079   4.523   7.227   0.543
12041TIP3    H136080   4.462   7.210   0.472
12041TIP3    H236081   4.518   7.322   0.557
12042TIP3   OH236082   5.106   7.320   6.271
12042TIP3    H136083   5.089   7.246   6.329
12042TIP3    H236084   5.184   7.361   6.307
12043TIP3   OH236085   7.108   0.688   1.689
12043TIP3    H136086   7.182   0.728   1.735
12043TIP3    H236087   7.137   0.680   1.598
12044TIP3   OH236088   4.678   3.937   4.520
12044TIP3    H136089   4.767   3.968   4.502
12044TIP3    H236090   4.622   3.998   4.473
12045TIP3   OH236091   2.304   5.981   1.899
12045TIP3    H136092   2.361   5.919   1.946
12045TIP3    H236093   2.220   5.937   1.893
12046TIP3   OH236094   6.855   5.093   6.738
12046TIP3    H136095   6.776   5.040   6.730
12046TIP3    H236096   6.851   5.153   6.663
12047TIP3   OH236097   0.788   0.926   0.459
12047TIP3    H136098   0.722   0.990   0.430
12047TIP3    H236099   0.872   0.970   0.444
12048TIP3   OH236100   0.636   2.672   5.082
12048TIP3    H136101   0.608   2.582   5.062
12048TIP3    H236102   0.730   2.665   5.096
12049TIP3   OH236103   2.399   3.227   6.402
12049TIP3    H136104   2.474   3.284   6.387
12049TIP3    H236105   2.345   3.276   6.465
12050TIP3   OH236106   0.899   3.346   2.533
12050TIP3    H136107   0.927   3.286   2.464
12050TIP3    H236108   0.813   3.377   2.504
12051TIP3   OH236109   6.300   0.141   6.519
12051TIP3    H136110   6.368   0.074   6.529
12051TIP3    H236111   6.258   0.121   6.436
12052TIP3   OH236112   3.814   0.192   5.157
12052TIP3    H136113   3.755   0.139   5.103
12052TIP3    H236114   3.766   0.206   5.238
12053TIP3   OH236115   4.875   5.443   3.099
12053TIP3    H136116   4.859   5.451   3.193
12053TIP3    H236117   4.796   5.401   3.065
12054TIP3   OH236118   6.709   6.890   4.687
12054TIP3    H136119   6.798   6.902   4.719
12054TIP3    H236120   6.710   6.805   4.643
12055TIP3   OH236121   6.398   6.690   5.475
12055TIP3    H136122   6.341   6.735   5.537
12055TIP3    H236123   6.487   6.716   5.501
12056TIP3   OH236124   7.265   2.486   3.135
12056TIP3    H136125   7.199   2.420   3.154
12056TIP3    H236126   7.242   2.520   3.049
12057TIP3   OH236127   1.039   7.699   2.150
12057TIP3    H136128   0.944   7.701   2.139
12057TIP3    H236129   1.073   7.733   2.067
12058TIP3   OH236130   0.820   3.503   1.562
12058TIP3    H136131   0.893   3.521   1.502
12058TIP3    H236132   0.849   3.538   1.646
12059TIP3   OH236133   6.260   3.666   0.521
12059TIP3    H136134   6.170   3.686   0.545
12059TIP3    H236135   6.265   3.571   0.524
12060TIP3   OH236136   2.564   0.631   5.001
12060TIP3    H136137   2.632   0.699   5.001
12060TIP3    H236138   2.612   0.549   4.988
12061TIP3   OH236139   2.910   6.276   2.219
12061TIP3    H136140   2.912   6.322   2.303
12061TIP3    H236141   2.880   6.188   2.240
12062TIP3   OH236142   0.141   7.515   3.429
12062TIP3    H136143   0.149   7.422   3.411
12062TIP3    H236144   0.070   7.545   3.373
12063TIP3   OH236145   3.910   4.361   3.264
12063TIP3    H136146   3.850   4.315   3.323
12063TIP3    H236147   3.900   4.453   3.288
12064TIP3   OH236148   8.195   0.929   5.072
12064TIP3    H136149   8.176   0.917   5.165
12064TIP3    H236150   8.280   0.887   5.059
12065TIP3   OH236151   4.830   2.789   5.922
12065TIP3    H136152   4.817   2.882   5.902
12065TIP3    H236153   4.741   2.752   5.920
12066TIP3   OH236154   8.196   3.192   1.874
12066TIP3    H136155   8.240   3.271   1.843
12066TIP3    H236156   8.213   3.127   1.806
12067TIP3   OH236157   6.222   6.068   6.681
12067TIP3    H136158   6.127   6.084   6.682
12067TIP3    H236159   6.260   6.149   6.715
12068TIP3   OH236160   0.476   2.939   5.517
12068TIP3    H136161   0.533   2.868   5.489
12068TIP3    H236162   0.433   2.968   5.436
12069TIP3   OH236163   6.591   4.072   6.562
12069TIP3    H136164   6.518   4.133   6.556
12069TIP3    H236165   6.553   3.991   6.596
12070TIP3   OH236166   7.926   3.006   0.788
12070TIP3    H136167   7.894   2.993   0.699
12070TIP3    H236168   7.924   3.101   0.800
12071TIP3   OH236169   6.594   3.769   6.030
12071TIP3    H136170   6.581   3.681   5.996
12071TIP3    H236171   6.531   3.823   5.981
12072TIP3   OH236172   5.513   4.718   6.569
12072TIP3    H136173   5.591   4.694   6.619
12072TIP3    H236174   5.533   4.805   6.534
12073TIP3   OH236175   8.234   0.144   6.061
12073TIP3    H136176   8.235   0.086   5.984
12073TIP3    H236177   8.153   0.122   6.107
12074TIP3   OH236178   2.852   0.845   2.109
12074TIP3    H136179   2.773   0.872   2.062
12074TIP3    H236180   2.860   0.908   2.181
12075TIP3   OH236181   3.334   6.689   4.757
12075TIP3    H136182   3.239   6.683   4.764
12075TIP3    H236183   3.352   6.783   4.765
12076TIP3   OH236184   7.591   2.630   1.107
12076TIP3    H136185   7.550   2.694   1.049
12076TIP3    H236186   7.521   2.604   1.166
12077TIP3   OH236187   7.098   4.384   2.148
12077TIP3    H136188   7.049   4.416   2.224
12077TIP3    H236189   7.037   4.394   2.075
12078TIP3   OH236190   4.654   0.652   5.701
12078TIP3    H136191   4.696   0.732   5.732
12078TIP3    H236192   4.726   0.592   5.683
12079TIP3   OH236193   0.113   0.870   4.264
12079TIP3    H136194   0.061   0.896   4.188
12079TIP3    H236195   0.053   0.822   4.320
12080TIP3   OH236196   1.782   5.061   3.758
12080TIP3    H136197   1.857   5.083   3.702
12080TIP3    H236198   1.760   5.144   3.801
12081TIP3   OH236199   3.456   5.093   0.596
12081TIP3    H136200   3.485   5.003   0.614
12081TIP3    H236201   3.454   5.135   0.681
12082TIP3   OH236202   4.258   4.127   3.284
12082TIP3    H136203   4.245   4.062   3.216
12082TIP3    H236204   4.338   4.174   3.258
12083TIP3   OH236205   3.692   1.076   2.369
12083TIP3    H136206   3.605   1.102   2.339
12083TIP3    H236207   3.712   1.136   2.440
12084TIP3   OH236208   2.378   0.887   4.549
12084TIP3    H136209   2.373   0.801   4.507
12084TIP3    H236210   2.402   0.868   4.639
12085TIP3   OH236211   2.167   5.682   0.469
12085TIP3    H136212   2.253   5.678   0.427
12085TIP3    H236213   2.184   5.658   0.560
12086TIP3   OH236214   3.964   2.352   6.617
12086TIP3    H136215   4.042   2.398   6.649
12086TIP3    H236216   3.891   2.390   6.665
12087TIP3   OH236217   5.690   0.115   3.046
12087TIP3    H136218   5.759   0.148   3.104
12087TIP3    H236219   5.711   0.023   3.034
12088TIP3   OH236220   6.349   2.861   2.844
12088TIP3    H136221   6.402   2.838   2.920
12088TIP3    H236222   6.407   2.845   2.769
12089TIP3   OH236223   2.511   7.406   6.584
12089TIP3    H136224   2.496   7.312   6.580
12089TIP3    H236225   2.598   7.415   6.622
12090TIP3   OH236226   3.250   6.976   5.165
12090TIP3    H136227   3.165   6.967   5.121
12090TIP3    H236228   3.244   7.059   5.212
12091TIP3   OH236229   4.741   3.969   4.175
12091TIP3    H136230   4.804   3.914   4.130
12091TIP3    H236231   4.681   3.908   4.218
12092TIP3   OH236232   4.383   7.017   5.876
12092TIP3    H136233   4.300   7.063   5.859
12092TIP3    H236234   4.447   7.087   5.889
12093TIP3   OH236235   0.353   3.834   0.209
12093TIP3    H136236   0.415   3.795   0.147
12093TIP3    H236237   0.394   3.918   0.233
12094TIP3   OH236238   8.129   1.912   2.685
12094TIP3    H136239   8.180   1.891   2.606
12094TIP3    H236240   8.088   1.829   2.709
12095TIP3   OH236241   5.372   2.141   5.863
12095TIP3    H136242   5.298   2.114   5.917
12095TIP3    H236243   5.383   2.071   5.799
12096TIP3   OH236244   5.335   1.339   6.560
12096TIP3    H136245   5.418   1.294   6.549
12096TIP3    H236246   5.310   1.365   6.471
12097TIP3   OH236247   4.342   5.443   4.533
12097TIP3    H136248   4.265   5.458   4.478
12097TIP3    H236249   4.330   5.501   4.608
12098TIP3   OH236250   0.849   1.104   2.121
12098TIP3    H136251   0.812   1.069   2.201
12098TIP3    H236252   0.798   1.063   2.051
12099TIP3   OH236253   0.678   5.592   0.361
12099TIP3    H136254   0.645   5.528   0.424
12099TIP3    H236255   0.726   5.655   0.414
12100TIP3   OH236256   4.729   6.411   0.911
12100TIP3    H136257   4.747   6.502   0.887
12100TIP3    H236258   4.754   6.360   0.834
12101TIP3   OH236259   3.610   7.631   3.992
12101TIP3    H136260   3.559   7.551   3.978
12101TIP3    H236261   3.637   7.626   4.084
12102TIP3   OH236262   0.113   3.214   1.020
12102TIP3    H136263   0.037   3.163   1.049
12102TIP3    H236264   0.080   3.265   0.946
12103TIP3   OH236265   3.877   6.482   0.758
12103TIP3    H136266   3.803   6.482   0.698
12103TIP3    H236267   3.917   6.569   0.747
12104TIP3   OH236268   2.956   4.430   5.404
12104TIP3    H136269   2.992   4.471   5.482
12104TIP3    H236270   3.025   4.439   5.338
12105TIP3   OH236271   8.193   3.790   0.823
12105TIP3    H136272   8.281   3.768   0.851
12105TIP3    H236273   8.171   3.724   0.757
12106TIP3   OH236274   6.593   7.045   6.346
12106TIP3    H136275   6.639   6.967   6.313
12106TIP3    H236276   6.509   7.011   6.377
12107TIP3   OH236277   6.774   4.584   3.927
12107TIP3    H136278   6.737   4.512   3.877
12107TIP3    H236279   6.704   4.609   3.989
12108TIP3   OH236280   8.196   7.557   2.263
12108TIP3    H136281   8.256   7.526   2.196
12108TIP3    H236282   8.155   7.478   2.298
12109TIP3   OH236283   7.351   2.676   6.319
12109TIP3    H136284   7.442   2.695   6.297
12109TIP3    H236285   7.333   2.593   6.275
12110TIP3   OH236286   5.655   2.667   0.519
12110TIP3    H136287   5.606   2.713   0.450
12110TIP3    H236288   5.600   2.592   0.541
12111TIP3   OH236289   4.379   4.487   3.782
12111TIP3    H136290   4.377   4.551   3.853
12111TIP3    H236291   4.338   4.531   3.708
12112TIP3   OH236292   1.399   4.878   3.675
12112TIP3    H136293   1.324   4.838   3.632
12112TIP3    H236294   1.389   4.972   3.660
12113TIP3   OH236295   7.105   6.680   5.321
12113TIP3    H136296   7.154   6.723   5.391
12113TIP3    H236297   7.164   6.679   5.246
12114TIP3   OH236298   4.815   6.228   3.673
12114TIP3    H136299   4.725   6.259   3.659
12114TIP3    H236300   4.816   6.194   3.762
12115TIP3   OH236301   5.849   7.212   0.981
12115TIP3    H136302   5.859   7.149   0.910
12115TIP3    H236303   5.922   7.193   1.040
12116TIP3   OH236304   6.036   6.022   1.655
12116TIP3    H136305   5.942   6.036   1.660
12116TIP3    H236306   6.073   6.088   1.713
12117TIP3   OH236307   7.944   7.750   3.727
12117TIP3    H136308   7.885   7.821   3.750
12117TIP3    H236309   8.010   7.750   3.797
12118TIP3   OH236310   5.913   6.122   0.217
12118TIP3    H136311   5.938   6.211   0.193
12118TIP3    H236312   5.995   6.073   0.218
12119TIP3   OH236313   6.412   6.939   0.273
12119TIP3    H136314   6.469   6.938   0.196
12119TIP3    H236315   6.333   6.983   0.244
12120TIP3   OH236316   5.397   6.008   6.111
12120TIP3    H136317   5.381   5.946   6.040
12120TIP3    H236318   5.371   6.093   6.075
12121TIP3   OH236319   5.169   6.156   6.698
12121TIP3    H136320   5.262   6.142   6.716
12121TIP3    H236321   5.144   6.230   6.752
12122TIP3   OH236322   2.026   2.146   5.146
12122TIP3    H136323   2.026   2.241   5.138
12122TIP3    H236324   2.118   2.122   5.155
12123TIP3   OH236325   5.065   0.885   1.882
12123TIP3    H136326   5.152   0.925   1.878
12123TIP3    H236327   5.072   0.808   1.827
12124TIP3   OH236328   0.259   2.080   5.381
12124TIP3    H136329   0.222   2.065   5.468
12124TIP3    H236330   0.307   2.162   5.389
12125TIP3   OH236331   2.259   3.947   5.476
12125TIP3    H136332   2.339   3.927   5.427
12125TIP3    H236333   2.222   4.022   5.429
12126TIP3   OH236334   5.572   2.278   0.129
12126TIP3    H136335   5.590   2.236   0.045
12126TIP3    H236336   5.635   2.349   0.134
12127TIP3   OH236337   0.711   4.033   0.838
12127TIP3    H136338   0.665   4.079   0.768
12127TIP3    H236339   0.657   3.956   0.855
12128TIP3   OH236340   2.508   5.406   4.807
12128TIP3    H136341   2.450   5.330   4.808
12128TIP3    H236342   2.555   5.400   4.891
12129TIP3   OH236343   4.822   5.141   3.914
12129TIP3    H136344   4.870   5.186   3.845
12129TIP3    H236345   4.824   5.049   3.888
12130TIP3   OH236346   6.902   6.443   1.750
12130TIP3    H136347   6.846   6.519   1.736
12130TIP3    H236348   6.976   6.477   1.800
12131TIP3   OH236349   3.094   7.565   6.446
12131TIP3    H136350   3.083   7.495   6.511
12131TIP3    H236351   3.020   7.623   6.461
12132TIP3   OH236352   5.045   0.026   5.249
12132TIP3    H136353   4.965   0.011   5.299
12132TIP3    H236354   5.080   0.108   5.283
12133TIP3   OH236355   0.827   0.174   4.280
12133TIP3    H136356   0.897   0.208   4.224
12133TIP3    H236357   0.746   0.207   4.239
12134TIP3   OH236358   0.520   4.456   5.136
12134TIP3    H136359   0.562   4.454   5.222
12134TIP3    H236360   0.522   4.549   5.111
12135TIP3   OH236361   8.159   0.376   6.179
12135TIP3    H136362   8.185   0.309   6.116
12135TIP3    H236363   8.084   0.419   6.138
12136TIP3   OH236364   6.919   6.823   4.040
12136TIP3    H136365   6.902   6.900   4.094
12136TIP3    H236366   6.878   6.751   4.088
12137TIP3   OH236367   0.197   6.806   2.832
12137TIP3    H136368   0.156   6.860   2.899
12137TIP3    H236369   0.182   6.854   2.750
12138TIP3   OH236370   3.194   5.335   0.681
12138TIP3    H136371   3.225   5.245   0.692
12138TIP3    H236372   3.261   5.389   0.724
12139TIP3   OH236373   7.543   7.104   6.529
12139TIP3    H136374   7.610   7.120   6.596
12139TIP3    H236375   7.461   7.129   6.572
12140TIP3   OH236376   7.224   0.627   6.208
12140TIP3    H136377   7.218   0.594   6.118
12140TIP3    H236378   7.307   0.675   6.210
12141TIP3   OH236379   1.844   2.680   2.311
12141TIP3    H136380   1.794   2.600   2.329
12141TIP3    H236381   1.793   2.750   2.353
12142TIP3   OH236382   7.867   4.371   1.697
12142TIP3    H136383   7.906   4.285   1.682
12142TIP3    H236384   7.821   4.363   1.780
12143TIP3   OH236385   1.906   0.812   0.728
12143TIP3    H136386   1.844   0.811   0.801
12143TIP3    H236387   1.982   0.861   0.761
12144TIP3   OH236388   6.622   1.883   6.778
12144TIP3    H136389   6.565   1.811   6.752
12144TIP3    H236390   6.697   1.840   6.820
12145TIP3   OH236391   3.887   3.392   1.169
12145TIP3    H136392   3.877   3.487   1.166
12145TIP3    H236393   3.949   3.372   1.100
12146TIP3   OH236394   3.049   0.517   3.190
12146TIP3    H136395   3.058   0.612   3.193
12146TIP3    H236396   2.954   0.502   3.184
12147TIP3   OH236397   2.204   5.602   4.013
12147TIP3    H136398   2.191   5.559   4.097
12147TIP3    H236399   2.236   5.532   3.955
12148TIP3   OH236400   4.998   4.106   2.837
12148TIP3    H136401   5.066   4.121   2.903
12148TIP3    H236402   4.917   4.097   2.887
12149TIP3   OH236403   0.534   6.148   0.649
12149TIP3    H136404   0.580   6.218   0.694
12149TIP3    H236405   0.498   6.189   0.570
12150TIP3   OH236406   3.499   4.214   4.611
12150TIP3    H136407   3.460   4.300   4.627
12150TIP3    H236408   3.434   4.167   4.560
12151TIP3   OH236409   4.821   1.648   2.195
12151TIP3    H136410   4.876   1.713   2.152
12151TIP3    H236411   4.827   1.669   2.288
12152TIP3   OH236412   8.292   2.514   2.245
12152TIP3    H136413   8.227   2.584   2.242
12152TIP3    H236414   8.248   2.442   2.290
12153TIP3   OH236415   4.329   1.563   0.155
12153TIP3    H136416   4.357   1.605   0.237
12153TIP3    H236417   4.386   1.602   0.088
12154TIP3   OH236418   2.827   0.920   0.095
12154TIP3    H136419   2.866   0.851   0.042
12154TIP3    H236420   2.733   0.903   0.090
12155TIP3   OH236421   1.148   0.239   3.804
12155TIP3    H136422   1.081   0.277   3.746
12155TIP3    H236423   1.228   0.239   3.751
12156TIP3   OH236424   0.471   7.157   0.562
12156TIP3    H136425   0.384   7.140   0.598
12156TIP3    H236426   0.454   7.208   0.483
12157TIP3   OH236427   1.235   3.489   5.360
12157TIP3    H136428   1.143   3.495   5.336
12157TIP3    H236429   1.235   3.444   5.445
12158TIP3   OH236430   8.238   7.157   0.022
12158TIP3    H136431   8.267   7.187   0.108
12158TIP3    H236432   8.276   7.069   0.013
12159TIP3   OH236433   0.026   6.672   3.533
12159TIP3    H136434  -0.009   6.583   3.541
12159TIP3    H236435   0.090   6.678   3.603
12160TIP3   OH236436   6.421   2.256   5.460
12160TIP3    H136437   6.329   2.228   5.457
12160TIP3    H236438   6.460   2.217   5.382
12161TIP3   OH236439   6.893   1.615   1.769
12161TIP3    H136440   6.931   1.537   1.730
12161TIP3    H236441   6.963   1.651   1.824
12162TIP3   OH236442   6.441   2.968   5.561
12162TIP3    H136443   6.404   2.926   5.638
12162TIP3    H236444   6.383   2.944   5.490
12163TIP3   OH236445   5.810   0.708   3.914
12163TIP3    H136446   5.804   0.646   3.841
12163TIP3    H236447   5.862   0.780   3.881
12164TIP3   OH236448   7.218   1.262   4.441
12164TIP3    H136449   7.172   1.303   4.368
12164TIP3    H236450   7.296   1.223   4.402
12165TIP3   OH236451   1.034   6.865   1.966
12165TIP3    H136452   0.958   6.860   2.024
12165TIP3    H236453   1.004   6.829   1.883
12166TIP3   OH236454   1.705   4.805   1.900
12166TIP3    H136455   1.700   4.900   1.896
12166TIP3    H236456   1.737   4.778   1.814
12167TIP3   OH236457   4.501   1.287   1.340
12167TIP3    H136458   4.422   1.335   1.316
12167TIP3    H236459   4.476   1.195   1.335
12168TIP3   OH236460   7.781   5.462   4.319
12168TIP3    H136461   7.711   5.457   4.253
12168TIP3    H236462   7.735   5.469   4.402
12169TIP3   OH236463   1.619   4.095   2.771
12169TIP3    H136464   1.597   4.039   2.845
12169TIP3    H236465   1.682   4.157   2.806
12170TIP3   OH236466   3.781   2.361   5.238
12170TIP3    H136467   3.784   2.368   5.143
12170TIP3    H236468   3.766   2.450   5.269
12171TIP3   OH236469   3.971   2.638   5.349
12171TIP3    H136470   4.024   2.675   5.278
12171TIP3    H236471   3.881   2.658   5.324
12172TIP3   OH236472   1.011   4.273   2.124
12172TIP3    H136473   1.104   4.272   2.104
12172TIP3    H236474   0.971   4.229   2.049
12173TIP3   OH236475   5.314   4.403   3.182
12173TIP3    H136476   5.342   4.391   3.273
12173TIP3    H236477   5.250   4.474   3.185
12174TIP3   OH236478   2.790   0.531   3.243
12174TIP3    H136479   2.744   0.588   3.305
12174TIP3    H236480   2.812   0.453   3.294
12175TIP3   OH236481   7.628   4.658   1.501
12175TIP3    H136482   7.620   4.691   1.590
12175TIP3    H236483   7.541   4.671   1.463
12176TIP3   OH236484   0.232   2.218   0.519
12176TIP3    H136485   0.319   2.214   0.480
12176TIP3    H236486   0.184   2.279   0.464
12177TIP3   OH236487   7.722   1.899   1.490
12177TIP3    H136488   7.812   1.898   1.522
12177TIP3    H236489   7.669   1.880   1.567
12178TIP3   OH236490   6.641   3.448   0.581
12178TIP3    H136491   6.734   3.433   0.566
12178TIP3    H236492   6.622   3.529   0.533
12179TIP3   OH236493   5.337   0.242   2.571
12179TIP3    H136494   5.341   0.149   2.592
12179TIP3    H236495   5.298   0.246   2.484
12180TIP3   OH236496   0.920   4.970   0.606
12180TIP3    H136497   0.915   5.065   0.607
12180TIP3    H236498   0.933   4.945   0.698
12181TIP3   OH236499   7.093   5.561   4.979
12181TIP3    H136500   7.128   5.648   4.997
12181TIP3    H236501   7.103   5.513   5.061
12182TIP3   OH236502   2.134   7.123   3.830
12182TIP3    H136503   2.048   7.143   3.793
12182TIP3    H236504   2.146   7.188   3.899
12183TIP3   OH236505   1.759   0.393   4.258
12183TIP3    H136506   1.735   0.432   4.342
12183TIP3    H236507   1.742   0.461   4.194
12184TIP3   OH236508   5.226   6.476   0.681
12184TIP3    H136509   5.249   6.554   0.731
12184TIP3    H236510   5.302   6.418   0.691
12185TIP3   OH236511   2.187   6.799   6.334
12185TIP3    H136512   2.094   6.818   6.342
12185TIP3    H236513   2.229   6.860   6.395
12186TIP3   OH236514   2.464   4.536   3.886
12186TIP3    H136515   2.416   4.599   3.832
12186TIP3    H236516   2.408   4.524   3.963
12187TIP3   OH236517   7.853   5.116   5.043
12187TIP3    H136518   7.796   5.188   5.068
12187TIP3    H236519   7.921   5.114   5.110
12188TIP3   OH236520   4.917   4.887   3.488
12188TIP3    H136521   4.996   4.941   3.497
12188TIP3    H236522   4.846   4.950   3.479
12189TIP3   OH236523   3.221   5.522   0.452
12189TIP3    H136524   3.245   5.471   0.529
12189TIP3    H236525   3.272   5.483   0.381
12190TIP3   OH236526   6.821   2.115   2.428
12190TIP3    H136527   6.756   2.046   2.416
12190TIP3    H236528   6.778   2.195   2.398
12191TIP3   OH236529   5.336   2.616   4.786
12191TIP3    H136530   5.338   2.679   4.714
12191TIP3    H236531   5.364   2.534   4.746
12192TIP3   OH236532   3.912   6.139   4.790
12192TIP3    H136533   3.936   6.221   4.748
12192TIP3    H236534   3.915   6.158   4.883
12193TIP3   OH236535   4.853   5.510   1.682
12193TIP3    H136536   4.794   5.457   1.629
12193TIP3    H236537   4.937   5.504   1.636
12194TIP3   OH236538   1.469   1.416   5.336
12194TIP3    H136539   1.453   1.373   5.252
12194TIP3    H236540   1.382   1.425   5.375
12195TIP3   OH236541   0.188   5.755   0.328
12195TIP3    H136542   0.182   5.680   0.270
12195TIP3    H236543   0.172   5.831   0.271
12196TIP3   OH236544   6.570   1.152   4.460
12196TIP3    H136545   6.629   1.204   4.406
12196TIP3    H236546   6.545   1.078   4.405
12197TIP3   OH236547   7.414   2.353   1.835
12197TIP3    H136548   7.366   2.283   1.879
12197TIP3    H236549   7.451   2.405   1.906
12198TIP3   OH236550   4.810   4.611   2.524
12198TIP3    H136551   4.721   4.577   2.536
12198TIP3    H236552   4.832   4.650   2.609
12199TIP3   OH236553   1.252   1.594   5.464
12199TIP3    H136554   1.249   1.645   5.383
12199TIP3    H236555   1.276   1.658   5.531
12200TIP3   OH236556   3.979   7.015   0.797
12200TIP3    H136557   4.038   7.009   0.872
12200TIP3    H236558   4.035   7.039   0.724
12201TIP3   OH236559   7.512   1.470   2.070
12201TIP3    H136560   7.491   1.553   2.027
12201TIP3    H236561   7.435   1.414   2.055
12202TIP3   OH236562   2.509   2.342   4.137
12202TIP3    H136563   2.589   2.291   4.125
12202TIP3    H236564   2.515   2.412   4.072
12203TIP3   OH236565   3.437   1.937   5.643
12203TIP3    H136566   3.407   1.988   5.568
12203TIP3    H236567   3.526   1.967   5.659
12204TIP3   OH236568   6.612   1.801   1.478
12204TIP3    H136569   6.569   1.883   1.502
12204TIP3    H236570   6.582   1.738   1.543
12205TIP3   OH236571   5.702   2.738   1.409
12205TIP3    H136572   5.745   2.758   1.326
12205TIP3    H236573   5.738   2.653   1.435
12206TIP3   OH236574   4.300   7.555   0.378
12206TIP3    H136575   4.364   7.624   0.361
12206TIP3    H236576   4.248   7.550   0.298
12207TIP3   OH236577   0.846   5.957   6.083
12207TIP3    H136578   0.793   6.007   6.146
12207TIP3    H236579   0.792   5.881   6.062
12208TIP3   OH236580   3.225   3.928   5.138
12208TIP3    H136581   3.235   4.023   5.135
12208TIP3    H236582   3.299   3.898   5.191
12209TIP3   OH236583   2.540   7.014   1.658
12209TIP3    H136584   2.491   6.953   1.712
12209TIP3    H236585   2.619   6.966   1.633
12210TIP3   OH236586   5.733   5.459   2.831
12210TIP3    H136587   5.785   5.411   2.895
12210TIP3    H236588   5.763   5.549   2.837
12211TIP3   OH236589   5.169   4.815   2.989
12211TIP3    H136590   5.133   4.903   2.976
12211TIP3    H236591   5.111   4.774   3.052
12212TIP3   OH236592   3.355   6.122   6.118
12212TIP3    H136593   3.340   6.143   6.026
12212TIP3    H236594   3.359   6.026   6.120
12213TIP3   OH236595   1.569   1.332   1.578
12213TIP3    H136596   1.483   1.332   1.620
12213TIP3    H236597   1.622   1.273   1.632
12214TIP3   OH236598   7.805   2.841   3.094
12214TIP3    H136599   7.740   2.903   3.059
12214TIP3    H236600   7.887   2.890   3.091
12215TIP3   OH236601   3.039   4.513   4.268
12215TIP3    H136602   3.077   4.449   4.329
12215TIP3    H236603   3.082   4.495   4.184
12216TIP3   OH236604   2.100   6.981   2.791
12216TIP3    H136605   2.103   6.923   2.867
12216TIP3    H236606   2.059   6.929   2.723
12217TIP3   OH236607   6.243   5.733   6.067
12217TIP3    H136608   6.191   5.716   6.146
12217TIP3    H236609   6.311   5.794   6.095
12218TIP3   OH236610   6.798   6.899   2.722
12218TIP3    H136611   6.779   6.822   2.669
12218TIP3    H236612   6.855   6.953   2.667
12219TIP3   OH236613   6.487   4.211   2.243
12219TIP3    H136614   6.430   4.161   2.185
12219TIP3    H236615   6.492   4.159   2.323
12220TIP3   OH236616   4.678   3.686   2.014
12220TIP3    H136617   4.744   3.747   2.048
12220TIP3    H236618   4.648   3.725   1.933
12221TIP3   OH236619   3.301   5.893   2.183
12221TIP3    H136620   3.382   5.844   2.188
12221TIP3    H236621   3.294   5.936   2.268
12222TIP3   OH236622   0.978   1.587   5.856
12222TIP3    H136623   0.952   1.559   5.944
12222TIP3    H236624   1.056   1.535   5.837
12223TIP3   OH236625   6.978   1.555   2.606
12223TIP3    H136626   6.948   1.501   2.533
12223TIP3    H236627   6.897   1.586   2.648
12224TIP3   OH236628   0.696   3.942   3.294
12224TIP3    H136629   0.626   4.005   3.309
12224TIP3    H236630   0.777   3.993   3.303
12225TIP3   OH236631   1.488   6.979   2.663
12225TIP3    H136632   1.576   6.993   2.697
12225TIP3    H236633   1.437   6.947   2.737
12226TIP3   OH236634   2.414   1.906   1.033
12226TIP3    H136635   2.327   1.939   1.013
12226TIP3    H236636   2.436   1.850   0.958
12227TIP3   OH236637   4.589   6.350   6.563
12227TIP3    H136638   4.588   6.348   6.467
12227TIP3    H236639   4.611   6.261   6.589
12228TIP3   OH236640   7.404   6.833   6.515
12228TIP3    H136641   7.401   6.798   6.426
12228TIP3    H236642   7.460   6.910   6.509
12229TIP3   OH236643   6.586   1.577   4.265
12229TIP3    H136644   6.595   1.667   4.234
12229TIP3    H236645   6.507   1.578   4.320
12230TIP3   OH236646   1.863   6.710   0.734
12230TIP3    H136647   1.924   6.702   0.660
12230TIP3    H236648   1.865   6.804   0.755
12231TIP3   OH236649   1.168   6.273   4.293
12231TIP3    H136650   1.089   6.294   4.343
12231TIP3    H236651   1.192   6.185   4.322
12232TIP3   OH236652   2.424   4.223   1.686
12232TIP3    H136653   2.368   4.273   1.745
12232TIP3    H236654   2.513   4.236   1.720
12233TIP3   OH236655   7.578   2.428   0.017
12233TIP3    H136656   7.543   2.517   0.023
12233TIP3    H236657   7.512   2.380  -0.032
12234TIP3   OH236658   6.530   6.149   3.567
12234TIP3    H136659   6.440   6.175   3.549
12234TIP3    H236660   6.530   6.054   3.554
12235TIP3   OH236661   3.810   5.323   3.931
12235TIP3    H136662   3.880   5.281   3.881
12235TIP3    H236663   3.855   5.369   4.002
12236TIP3   OH236664   5.683   0.510   2.072
12236TIP3    H136665   5.595   0.520   2.109
12236TIP3    H236666   5.677   0.550   1.985
12237TIP3   OH236667   7.894   6.623   2.128
12237TIP3    H136668   7.854   6.537   2.144
12237TIP3    H236669   7.838   6.685   2.174
12238TIP3   OH236670   8.292   1.646   2.346
12238TIP3    H136671   8.243   1.630   2.266
12238TIP3    H236672   8.317   1.558   2.377
12239TIP3   OH236673   4.754   4.653   1.094
12239TIP3    H136674   4.752   4.749   1.101
12239TIP3    H236675   4.837   4.634   1.050
12240TIP3   OH236676   0.155   1.057   4.688
12240TIP3    H136677   0.093   1.004   4.638
12240TIP3    H236678   0.120   1.146   4.684
12241TIP3   OH236679   0.065   4.891   3.434
12241TIP3    H136680   0.147   4.913   3.389
12241TIP3    H236681   0.092   4.851   3.517
12242TIP3   OH236682   1.422   7.248   0.206
12242TIP3    H136683   1.440   7.253   0.300
12242TIP3    H236684   1.505   7.219   0.167
12243TIP3   OH236685   1.909   4.267   6.163
12243TIP3    H136686   1.958   4.349   6.165
12243TIP3    H236687   1.887   4.254   6.071
12244TIP3   OH236688   0.092   3.730   4.955
12244TIP3    H136689   0.057   3.641   4.950
12244TIP3    H236690   0.026   3.779   5.004
12245TIP3   OH236691   4.434   0.417   4.777
12245TIP3    H136692   4.451   0.498   4.823
12245TIP3    H236693   4.338   0.412   4.772
12246TIP3   OH236694   1.275   0.780   1.224
12246TIP3    H136695   1.313   0.864   1.198
12246TIP3    H236696   1.181   0.792   1.213
12247TIP3   OH236697   5.777   6.253   3.311
12247TIP3    H136698   5.814   6.333   3.273
12247TIP3    H236699   5.818   6.245   3.396
12248TIP3   OH236700   7.381   7.632   4.338
12248TIP3    H136701   7.300   7.635   4.390
12248TIP3    H236702   7.377   7.712   4.285
12249TIP3   OH236703   5.252   4.566   4.812
12249TIP3    H136704   5.161   4.538   4.820
12249TIP3    H236705   5.247   4.655   4.778
12250TIP3   OH236706   5.900   2.394   6.283
12250TIP3    H136707   5.898   2.318   6.224
12250TIP3    H236708   5.836   2.454   6.246
12251TIP3   OH236709   7.350   2.769   0.948
12251TIP3    H136710   7.329   2.855   0.983
12251TIP3    H236711   7.329   2.775   0.854
12252TIP3   OH236712   5.368   7.500   6.466
12252TIP3    H136713   5.378   7.501   6.561
12252TIP3    H236714   5.451   7.467   6.433
12253TIP3   OH236715   7.205   2.723   4.381
12253TIP3    H136716   7.195   2.757   4.293
12253TIP3    H236717   7.289   2.758   4.411
12254TIP3   OH236718   2.271   2.505   5.755
12254TIP3    H136719   2.286   2.543   5.668
12254TIP3    H236720   2.214   2.430   5.739
12255TIP3   OH236721   1.695   7.272   5.060
12255TIP3    H136722   1.742   7.281   5.143
12255TIP3    H236723   1.742   7.204   5.012
12256TIP3   OH236724   5.561   0.835   3.961
12256TIP3    H136725   5.638   0.780   3.976
12256TIP3    H236726   5.597   0.921   3.940
12257TIP3   OH236727   1.076   6.202   1.668
12257TIP3    H136728   0.981   6.219   1.669
12257TIP3    H236729   1.102   6.224   1.579
12258TIP3   OH236730   8.198   2.419   3.597
12258TIP3    H136731   8.212   2.513   3.610
12258TIP3    H236732   8.275   2.378   3.637
12259TIP3   OH236733   8.270   0.148   3.584
12259TIP3    H136734   8.194   0.110   3.628
12259TIP3    H236735   8.258   0.124   3.492
12260TIP3   OH236736   5.923   6.204   2.841
12260TIP3    H136737   5.942   6.294   2.868
12260TIP3    H236738   5.851   6.177   2.899
12261TIP3   OH236739   2.492   2.514   0.825
12261TIP3    H136740   2.564   2.467   0.866
12261TIP3    H236741   2.425   2.447   0.810
12262TIP3   OH236742   6.218   6.325   2.799
12262TIP3    H136743   6.285   6.301   2.735
12262TIP3    H236744   6.175   6.401   2.760
12263TIP3   OH236745   3.703   3.199   1.238
12263TIP3    H136746   3.749   3.273   1.200
12263TIP3    H236747   3.675   3.146   1.162
12264TIP3   OH236748   4.094   6.564   4.544
12264TIP3    H136749   4.156   6.579   4.615
12264TIP3    H236750   4.147   6.576   4.464
12265TIP3   OH236751   1.226   6.411   5.620
12265TIP3    H136752   1.233   6.428   5.714
12265TIP3    H236753   1.295   6.348   5.601
12266TIP3   OH236754   1.304   5.432   3.510
12266TIP3    H136755   1.216   5.458   3.483
12266TIP3    H236756   1.356   5.440   3.430
12267TIP3   OH236757   0.786   3.637   4.789
12267TIP3    H136758   0.854   3.654   4.853
12267TIP3    H236759   0.802   3.700   4.719
12268TIP3   OH236760   5.105   4.572   3.972
12268TIP3    H136761   5.032   4.512   3.983
12268TIP3    H236762   5.179   4.516   3.946
12269TIP3   OH236763   7.564   0.915   1.678
12269TIP3    H136764   7.583   0.927   1.585
12269TIP3    H236765   7.564   1.004   1.714
12270TIP3   OH236766   6.026   3.384   3.434
12270TIP3    H136767   6.060   3.418   3.351
12270TIP3    H236768   6.076   3.304   3.449
12271TIP3   OH236769   2.205   5.468   5.709
12271TIP3    H136770   2.293   5.503   5.695
12271TIP3    H236771   2.220   5.378   5.738
12272TIP3   OH236772   0.824   2.594   1.909
12272TIP3    H136773   0.827   2.620   2.002
12272TIP3    H236774   0.913   2.567   1.889
12273TIP3   OH236775   3.123   5.052   5.572
12273TIP3    H136776   3.163   5.069   5.658
12273TIP3    H236777   3.045   5.000   5.591
12274TIP3   OH236778   7.014   2.853   1.617
12274TIP3    H136779   6.969   2.874   1.535
12274TIP3    H236780   7.085   2.794   1.591
12275TIP3   OH236781   8.085   6.034   2.078
12275TIP3    H136782   8.141   6.107   2.102
12275TIP3    H236783   8.050   6.058   1.992
12276TIP3   OH236784   4.117   3.406   2.226
12276TIP3    H136785   4.084   3.317   2.234
12276TIP3    H236786   4.106   3.429   2.134
12277TIP3   OH236787   0.648   5.462   5.120
12277TIP3    H136788   0.572   5.509   5.084
12277TIP3    H236789   0.707   5.451   5.046
12278TIP3   OH236790   6.108   6.557   1.093
12278TIP3    H136791   6.125   6.475   1.046
12278TIP3    H236792   6.194   6.584   1.126
12279TIP3   OH236793   6.556   7.377   5.777
12279TIP3    H136794   6.473   7.350   5.736
12279TIP3    H236795   6.529   7.422   5.857
12280TIP3   OH236796   1.246   2.546   4.861
12280TIP3    H136797   1.197   2.518   4.938
12280TIP3    H236798   1.296   2.468   4.835
12281TIP3   OH236799   4.574   2.447   0.561
12281TIP3    H136800   4.600   2.398   0.484
12281TIP3    H236801   4.525   2.522   0.527
12282TIP3   OH236802   0.905   1.233   4.722
12282TIP3    H136803   0.901   1.147   4.681
12282TIP3    H236804   0.875   1.219   4.812
12283TIP3   OH236805   7.581   3.353   6.528
12283TIP3    H136806   7.647   3.384   6.467
12283TIP3    H236807   7.511   3.418   6.523
12284TIP3   OH236808   3.855   2.178   4.006
12284TIP3    H136809   3.913   2.143   3.938
12284TIP3    H236810   3.871   2.122   4.082
12285TIP3   OH236811   2.093   7.224   3.309
12285TIP3    H136812   2.179   7.204   3.344
12285TIP3    H236813   2.081   7.162   3.237
12286TIP3   OH236814   1.578   1.222   5.500
12286TIP3    H136815   1.555   1.251   5.588
12286TIP3    H236816   1.561   1.298   5.444
12287TIP3   OH236817   0.471   0.530   1.710
12287TIP3    H136818   0.514   0.547   1.627
12287TIP3    H236819   0.378   0.529   1.689
12288TIP3   OH236820   2.536   1.167   0.129
12288TIP3    H136821   2.586   1.248   0.129
12288TIP3    H236822   2.528   1.144   0.036
12289TIP3   OH236823   7.676   2.184   2.794
12289TIP3    H136824   7.647   2.102   2.754
12289TIP3    H236825   7.751   2.211   2.741
12290TIP3   OH236826   5.059   3.952   0.520
12290TIP3    H136827   4.975   3.984   0.551
12290TIP3    H236828   5.080   4.008   0.445
12291TIP3   OH236829   6.512   6.171   4.930
12291TIP3    H136830   6.421   6.160   4.905
12291TIP3    H236831   6.555   6.205   4.852
12292TIP3   OH236832   3.916   7.484   6.123
12292TIP3    H136833   3.845   7.423   6.103
12292TIP3    H236834   3.995   7.440   6.094
12293TIP3   OH236835   7.547   4.690   2.749
12293TIP3    H136836   7.467   4.723   2.789
12293TIP3    H236837   7.595   4.768   2.724
12294TIP3   OH236838   7.372   4.122   0.320
12294TIP3    H136839   7.432   4.188   0.286
12294TIP3    H236840   7.285   4.151   0.292
12295TIP3   OH236841   1.171   6.153   5.848
12295TIP3    H136842   1.226   6.132   5.772
12295TIP3    H236843   1.093   6.099   5.836
12296TIP3   OH236844   6.568   7.242   2.948
12296TIP3    H136845   6.529   7.328   2.930
12296TIP3    H236846   6.660   7.261   2.965
12297TIP3   OH236847   3.245   0.663   4.004
12297TIP3    H136848   3.327   0.679   3.957
12297TIP3    H236849   3.217   0.750   4.033
12298TIP3   OH236850   2.509   7.335   3.476
12298TIP3    H136851   2.435   7.350   3.535
12298TIP3    H236852   2.575   7.293   3.530
12299TIP3   OH236853   3.876   2.927   2.697
12299TIP3    H136854   3.968   2.904   2.686
12299TIP3    H236855   3.877   3.014   2.737
12300TIP3   OH236856   1.465   7.499   2.376
12300TIP3    H136857   1.394   7.465   2.322
12300TIP3    H236858   1.484   7.428   2.438
12301TIP3   OH236859   0.900   4.372   0.742
12301TIP3    H136860   0.851   4.411   0.670
12301TIP3    H236861   0.887   4.432   0.816
12302TIP3   OH236862   4.597   7.125   2.434
12302TIP3    H136863   4.556   7.198   2.480
12302TIP3    H236864   4.673   7.103   2.487
12303TIP3   OH236865   7.065   4.365   1.253
12303TIP3    H136866   7.018   4.448   1.247
12303TIP3    H236867   7.021   4.307   1.191
12304TIP3   OH236868   6.283   4.492   0.067
12304TIP3    H136869   6.359   4.514   0.120
12304TIP3    H236870   6.293   4.399   0.048
12305TIP3   OH236871   5.450   6.055   3.141
12305TIP3    H136872   5.477   6.104   3.063
12305TIP3    H236873   5.477   5.965   3.124
12306TIP3   OH236874   7.774   7.655   4.206
12306TIP3    H136875   7.749   7.743   4.234
12306TIP3    H236876   7.719   7.596   4.256
12307TIP3   OH236877   7.187   4.938   4.364
12307TIP3    H136878   7.196   4.851   4.325
12307TIP3    H236879   7.157   4.922   4.453
12308TIP3   OH236880   2.862   3.832   4.072
12308TIP3    H136881   2.789   3.815   4.013
12308TIP3    H236882   2.824   3.828   4.160
12309TIP3   OH236883   2.536   7.262   2.362
12309TIP3    H136884   2.533   7.288   2.269
12309TIP3    H236885   2.601   7.192   2.365
12310TIP3   OH236886   3.090   5.315   2.279
12310TIP3    H136887   3.181   5.345   2.274
12310TIP3    H236888   3.096   5.224   2.306
12311TIP3   OH236889   2.897   7.108   5.996
12311TIP3    H136890   2.910   7.128   5.903
12311TIP3    H236891   2.828   7.167   6.024
12312TIP3   OH236892   0.525   6.397   4.890
12312TIP3    H136893   0.595   6.433   4.944
12312TIP3    H236894   0.552   6.414   4.800
12313TIP3   OH236895   6.757   2.051   6.419
12313TIP3    H136896   6.745   2.112   6.346
12313TIP3    H236897   6.769   1.966   6.376
12314TIP3   OH236898   5.485   3.159   0.387
12314TIP3    H136899   5.404   3.208   0.401
12314TIP3    H236900   5.523   3.198   0.309
12315TIP3   OH236901   2.491   3.878   5.858
12315TIP3    H136902   2.457   3.803   5.907
12315TIP3    H236903   2.565   3.910   5.909
12316TIP3   OH236904   2.857   2.413   4.620
12316TIP3    H136905   2.821   2.326   4.599
12316TIP3    H236906   2.939   2.394   4.666
12317TIP3   OH236907   7.549   7.602   4.025
12317TIP3    H136908   7.632   7.641   4.051
12317TIP3    H236909   7.486   7.674   4.035
12318TIP3   OH236910   5.756   6.889   6.301
12318TIP3    H136911   5.722   6.969   6.340
12318TIP3    H236912   5.818   6.856   6.366
12319TIP3   OH236913   8.071   3.566   2.632
12319TIP3    H136914   8.122   3.488   2.612
12319TIP3    H236915   8.041   3.553   2.722
12320TIP3   OH236916   3.344   0.994   3.913
12320TIP3    H136917   3.264   0.945   3.931
12320TIP3    H236918   3.316   1.069   3.861
12321TIP3   OH236919   1.506   0.105   5.237
12321TIP3    H136920   1.481   0.088   5.146
12321TIP3    H236921   1.480   0.027   5.285
12322TIP3   OH236922   6.257   0.143   5.638
12322TIP3    H136923   6.342   0.149   5.681
12322TIP3    H236924   6.268   0.073   5.573
12323TIP3   OH236925   6.515   7.068   3.694
12323TIP3    H136926   6.558   7.154   3.687
12323TIP3    H236927   6.544   7.021   3.616
12324TIP3   OH236928   4.528   1.735   4.634
12324TIP3    H136929   4.607   1.755   4.584
12324TIP3    H236930   4.533   1.641   4.652
12325TIP3   OH236931   2.800   6.498   4.754
12325TIP3    H136932   2.782   6.534   4.841
12325TIP3    H236933   2.777   6.405   4.761
12326TIP3   OH236934   3.567   2.530   6.502
12326TIP3    H136935   3.517   2.456   6.537
12326TIP3    H236936   3.555   2.524   6.407
12327TIP3   OH236937   4.745   4.129   0.181
12327TIP3    H136938   4.714   4.126   0.272
12327TIP3    H236939   4.667   4.145   0.129
12328TIP3   OH236940   6.376   4.364   5.620
12328TIP3    H136941   6.462   4.403   5.635
12328TIP3    H236942   6.315   4.424   5.663
12329TIP3   OH236943   7.477   1.213   4.312
12329TIP3    H136944   7.553   1.252   4.269
12329TIP3    H236945   7.511   1.180   4.395
12330TIP3   OH236946   4.554   2.911   4.104
12330TIP3    H136947   4.498   2.915   4.026
12330TIP3    H236948   4.514   2.972   4.165
12331TIP3   OH236949   4.278   3.779   1.577
12331TIP3    H136950   4.340   3.771   1.505
12331TIP3    H236951   4.313   3.849   1.631
12332TIP3   OH236952   7.989   5.563   2.040
12332TIP3    H136953   7.964   5.471   2.052
12332TIP3    H236954   7.924   5.613   2.089
12333TIP3   OH236955   8.152   2.360   1.389
12333TIP3    H136956   8.211   2.285   1.395
12333TIP3    H236957   8.197   2.430   1.437
12334TIP3   OH236958   4.502   7.119   5.305
12334TIP3    H136959   4.432   7.111   5.370
12334TIP3    H236960   4.583   7.108   5.355
12335TIP3   OH236961   2.037   1.743   3.799
12335TIP3    H136962   1.961   1.789   3.765
12335TIP3    H236963   2.050   1.778   3.887
12336TIP3   OH236964   8.115   6.234   4.014
12336TIP3    H136965   8.091   6.142   4.013
12336TIP3    H236966   8.033   6.280   3.994
12337TIP3   OH236967   4.735   3.858   5.341
12337TIP3    H136968   4.701   3.946   5.324
12337TIP3    H236969   4.768   3.862   5.430
12338TIP3   OH236970   1.611   0.512   1.716
12338TIP3    H136971   1.635   0.591   1.668
12338TIP3    H236972   1.550   0.466   1.659
12339TIP3   OH236973   4.577   4.262   2.045
12339TIP3    H136974   4.507   4.199   2.062
12339TIP3    H236975   4.556   4.337   2.101
12340TIP3   OH236976   4.998   3.552   6.145
12340TIP3    H136977   5.042   3.558   6.230
12340TIP3    H236978   4.921   3.607   6.155
12341TIP3   OH236979   5.861   1.023   4.354
12341TIP3    H136980   5.796   0.958   4.381
12341TIP3    H236981   5.933   0.971   4.318
12342TIP3   OH236982   7.204   5.840   0.959
12342TIP3    H136983   7.217   5.745   0.966
12342TIP3    H236984   7.257   5.866   0.884
12343TIP3   OH236985   4.745   2.719   1.966
12343TIP3    H136986   4.760   2.647   2.027
12343TIP3    H236987   4.653   2.709   1.941
12344TIP3   OH236988   7.149   4.899   1.955
12344TIP3    H136989   7.152   4.809   1.923
12344TIP3    H236990   7.181   4.951   1.881
12345TIP3   OH236991   4.273   2.638   6.517
12345TIP3    H136992   4.335   2.688   6.569
12345TIP3    H236993   4.229   2.581   6.580
12346TIP3   OH236994   6.840   2.199   6.144
12346TIP3    H136995   6.933   2.178   6.142
12346TIP3    H236996   6.837   2.294   6.146
12347TIP3   OH236997   6.305   3.360   0.488
12347TIP3    H136998   6.306   3.265   0.475
12347TIP3    H236999   6.393   3.388   0.464
12348TIP3   OH237000   7.008   2.751   4.644
12348TIP3    H137001   7.070   2.749   4.571
12348TIP3    H237002   6.942   2.686   4.622
12349TIP3   OH237003   0.666   0.508   3.483
12349TIP3    H137004   0.655   0.524   3.576
12349TIP3    H237005   0.673   0.595   3.444
12350TIP3   OH237006   6.424   5.146   5.850
12350TIP3    H137007   6.452   5.222   5.799
12350TIP3    H237008   6.506   5.101   5.872
12351TIP3   OH237009   8.248   6.364   2.192
12351TIP3    H137010   8.217   6.448   2.160
12351TIP3    H237011   8.288   6.383   2.277
12352TIP3   OH237012   5.064   0.335   3.045
12352TIP3    H137013   5.110   0.317   3.127
12352TIP3    H237014   4.973   0.309   3.063
12353TIP3   OH237015   6.008   6.664   3.660
12353TIP3    H137016   6.041   6.746   3.695
12353TIP3    H237017   6.053   6.596   3.711
12354TIP3   OH237018   4.412   0.501   5.154
12354TIP3    H137019   4.468   0.558   5.101
12354TIP3    H237020   4.334   0.488   5.101
12355TIP3   OH237021   0.239   2.164   4.281
12355TIP3    H137022   0.311   2.132   4.226
12355TIP3    H237023   0.213   2.088   4.334
12356TIP3   OH237024   1.271   5.131   4.283
12356TIP3    H137025   1.216   5.194   4.330
12356TIP3    H237026   1.234   5.046   4.305
12357TIP3   OH237027   7.808   5.996   0.823
12357TIP3    H137028   7.896   6.002   0.859
12357TIP3    H237029   7.775   5.912   0.855
12358TIP3   OH237030   6.896   1.220   2.707
12358TIP3    H137031   6.984   1.203   2.740
12358TIP3    H237032   6.878   1.148   2.647
12359TIP3   OH237033   1.603   7.227   4.278
12359TIP3    H137034   1.593   7.276   4.359
12359TIP3    H237035   1.567   7.284   4.210
12360TIP3   OH237036   1.225   5.143   5.160
12360TIP3    H137037   1.165   5.187   5.220
12360TIP3    H237038   1.221   5.194   5.080
12361TIP3   OH237039   0.800   0.316   2.550
12361TIP3    H137040   0.839   0.373   2.485
12361TIP3    H237041   0.874   0.277   2.596
12362TIP3   OH237042   0.691   6.996   3.449
12362TIP3    H137043   0.729   6.942   3.380
12362TIP3    H237044   0.606   7.023   3.415
12363TIP3   OH237045   4.518   4.408   4.074
12363TIP3    H137046   4.536   4.479   4.013
12363TIP3    H237047   4.485   4.452   4.153
12364TIP3   OH237048   5.982   6.692   6.430
12364TIP3    H137049   6.058   6.700   6.373
12364TIP3    H237050   6.017   6.688   6.519
12365TIP3   OH237051   8.242   6.815   2.643
12365TIP3    H137052   8.271   6.733   2.683
12365TIP3    H237053   8.317   6.845   2.593
12366TIP3   OH237054   8.283   4.058   4.556
12366TIP3    H137055   8.309   4.118   4.625
12366TIP3    H237056   8.226   4.110   4.499
12367TIP3   OH237057   4.915   4.809   2.022
12367TIP3    H137058   4.925   4.779   1.932
12367TIP3    H237059   4.828   4.849   2.025
12368TIP3   OH237060   6.454   7.023   1.379
12368TIP3    H137061   6.422   7.066   1.459
12368TIP3    H237062   6.374   7.005   1.328
12369TIP3   OH237063   6.732   3.877   0.726
12369TIP3    H137064   6.801   3.820   0.693
12369TIP3    H237065   6.655   3.820   0.734
12370TIP3   OH237066   5.896   6.338   3.882
12370TIP3    H137067   5.918   6.253   3.845
12370TIP3    H237068   5.876   6.320   3.974
12371TIP3   OH237069   0.210   6.838   0.157
12371TIP3    H137070   0.281   6.775   0.149
12371TIP3    H237071   0.252   6.924   0.151
12372TIP3   OH237072   2.001   5.639   2.483
12372TIP3    H137073   1.924   5.628   2.538
12372TIP3    H237074   2.045   5.554   2.486
12373TIP3   OH237075   2.858   3.085   1.161
12373TIP3    H137076   2.936   3.125   1.123
12373TIP3    H237077   2.883   3.064   1.251
12374TIP3   OH237078   1.740   3.789   3.884
12374TIP3    H137079   1.772   3.758   3.799
12374TIP3    H237080   1.781   3.731   3.948
12375TIP3   OH237081   5.539   0.812   2.820
12375TIP3    H137082   5.533   0.892   2.873
12375TIP3    H237083   5.465   0.819   2.759
12376TIP3   OH237084   7.614   5.918   2.129
12376TIP3    H137085   7.656   5.987   2.079
12376TIP3    H237086   7.521   5.925   2.107
12377TIP3   OH237087   2.539   1.207   5.139
12377TIP3    H137088   2.472   1.143   5.163
12377TIP3    H237089   2.570   1.242   5.222
12378TIP3   OH237090   1.638   5.909   0.005
12378TIP3    H137091   1.667   5.932   0.094
12378TIP3    H237092   1.713   5.864  -0.034
12379TIP3   OH237093   3.028   2.420   6.653
12379TIP3    H137094   3.040   2.351   6.588
12379TIP3    H237095   2.988   2.492   6.605
12380TIP3   OH237096   6.873   0.556   4.541
12380TIP3    H137097   6.915   0.513   4.467
12380TIP3    H237098   6.924   0.636   4.556
12381TIP3   OH237099   2.382   2.038   0.693
12381TIP3    H137100   2.410   1.953   0.727
12381TIP3    H237101   2.287   2.030   0.685
12382TIP3   OH237102   5.460   3.567   2.826
12382TIP3    H137103   5.500   3.495   2.777
12382TIP3    H237104   5.367   3.564   2.803
12383TIP3   OH237105   8.173   7.570   1.520
12383TIP3    H137106   8.194   7.657   1.485
12383TIP3    H237107   8.257   7.536   1.551
12384TIP3   OH237108   0.338   3.483   5.546
12384TIP3    H137109   0.409   3.522   5.597
12384TIP3    H237110   0.272   3.553   5.541
12385TIP3   OH237111   1.992   3.509   3.461
12385TIP3    H137112   1.935   3.492   3.386
12385TIP3    H237113   2.009   3.422   3.497
12386TIP3   OH237114   7.444   6.262   1.963
12386TIP3    H137115   7.443   6.302   1.877
12386TIP3    H237116   7.357   6.223   1.972
12387TIP3   OH237117   7.733   1.440   5.418
12387TIP3    H137118   7.667   1.441   5.487
12387TIP3    H237119   7.687   1.470   5.340
12388TIP3   OH237120   1.805   3.172   5.141
12388TIP3    H137121   1.745   3.097   5.141
12388TIP3    H237122   1.767   3.233   5.078
12389TIP3   OH237123   7.804   7.190   3.651
12389TIP3    H137124   7.739   7.179   3.720
12389TIP3    H237125   7.847   7.273   3.672
12390TIP3   OH237126   3.994   0.399   3.501
12390TIP3    H137127   4.084   0.419   3.525
12390TIP3    H237128   3.950   0.385   3.585
12391TIP3   OH237129   1.423   0.564   5.782
12391TIP3    H137130   1.383   0.574   5.695
12391TIP3    H237131   1.395   0.642   5.830
12392TIP3   OH237132   7.153   1.644   3.148
12392TIP3    H137133   7.240   1.669   3.178
12392TIP3    H237134   7.095   1.713   3.181
12393TIP3   OH237135   0.284   6.433   1.353
12393TIP3    H137136   0.242   6.402   1.432
12393TIP3    H237137   0.269   6.364   1.288
12394TIP3   OH237138   4.257   6.589   4.318
12394TIP3    H137139   4.277   6.498   4.338
12394TIP3    H237140   4.271   6.596   4.223
12395TIP3   OH237141   2.835   1.797   0.688
12395TIP3    H137142   2.914   1.774   0.637
12395TIP3    H237143   2.781   1.846   0.626
12396TIP3   OH237144   4.595   7.439   2.148
12396TIP3    H137145   4.578   7.418   2.056
12396TIP3    H237146   4.510   7.467   2.182
12397TIP3   OH237147   1.020   3.615   3.032
12397TIP3    H137148   0.976   3.536   3.064
12397TIP3    H237149   1.068   3.585   2.954
12398TIP3   OH237150   1.905   2.012   3.783
12398TIP3    H137151   1.889   2.094   3.736
12398TIP3    H237152   1.826   1.998   3.834
12399TIP3   OH237153   3.141   2.324   2.293
12399TIP3    H137154   3.048   2.304   2.279
12399TIP3    H237155   3.187   2.259   2.240
12400TIP3   OH237156   0.999   0.403   6.256
12400TIP3    H137157   0.996   0.498   6.242
12400TIP3    H237158   0.909   0.380   6.281
12401TIP3   OH237159   3.702   4.563   0.529
12401TIP3    H137160   3.638   4.562   0.457
12401TIP3    H237161   3.778   4.608   0.491
12402TIP3   OH237162   2.402   2.873   1.321
12402TIP3    H137163   2.322   2.858   1.372
12402TIP3    H237164   2.398   2.809   1.250
12403TIP3   OH237165   7.381   5.164   5.355
12403TIP3    H137166   7.344   5.218   5.285
12403TIP3    H237167   7.349   5.204   5.436
12404TIP3   OH237168   3.135   0.280   2.143
12404TIP3    H137169   3.197   0.343   2.109
12404TIP3    H237170   3.149   0.280   2.238
12405TIP3   OH237171   4.576   4.740   0.545
12405TIP3    H137172   4.597   4.648   0.564
12405TIP3    H237173   4.658   4.778   0.516
12406TIP3   OH237174   0.268   0.760   0.279
12406TIP3    H137175   0.199   0.817   0.245
12406TIP3    H237176   0.291   0.703   0.206
12407TIP3   OH237177   8.120   4.943   5.157
12407TIP3    H137178   8.148   4.877   5.093
12407TIP3    H237179   8.170   4.922   5.236
12408TIP3   OH237180   6.260   3.126   3.938
12408TIP3    H137181   6.334   3.073   3.907
12408TIP3    H237182   6.255   3.108   4.031
12409TIP3   OH237183   2.772   4.125   3.270
12409TIP3    H137184   2.691   4.075   3.260
12409TIP3    H237185   2.841   4.060   3.267
12410TIP3   OH237186   7.535   0.386   0.228
12410TIP3    H137187   7.507   0.408   0.317
12410TIP3    H237188   7.604   0.448   0.208
12411TIP3   OH237189   7.188   6.624   6.417
12411TIP3    H137190   7.205   6.537   6.451
12411TIP3    H237191   7.139   6.669   6.486
12412TIP3   OH237192   6.929   7.361   2.530
12412TIP3    H137193   6.921   7.267   2.543
12412TIP3    H237194   6.958   7.371   2.439
12413TIP3   OH237195   8.036   4.670   1.256
12413TIP3    H137196   7.988   4.595   1.292
12413TIP3    H237197   7.996   4.686   1.171
12414TIP3   OH237198   5.446   5.300   0.796
12414TIP3    H137199   5.420   5.249   0.719
12414TIP3    H237200   5.469   5.386   0.762
12415TIP3   OH237201   1.062   3.735   4.837
12415TIP3    H137202   1.073   3.755   4.930
12415TIP3    H237203   0.980   3.780   4.813
12416TIP3   OH237204   0.236   3.271   1.642
12416TIP3    H137205   0.268   3.290   1.554
12416TIP3    H237206   0.150   3.314   1.646
12417TIP3   OH237207   2.153   7.149   5.516
12417TIP3    H137208   2.151   7.178   5.425
12417TIP3    H237209   2.185   7.225   5.565
12418TIP3   OH237210   4.526   3.746   6.536
12418TIP3    H137211   4.595   3.684   6.514
12418TIP3    H237212   4.528   3.810   6.465
12419TIP3   OH237213   2.425   5.408   6.193
12419TIP3    H137214   2.456   5.352   6.264
12419TIP3    H237215   2.431   5.354   6.114
12420TIP3   OH237216   4.171   0.116   2.802
12420TIP3    H137217   4.136   0.065   2.875
12420TIP3    H237218   4.226   0.054   2.754
12421TIP3   OH237219   0.551   4.250   4.967
12421TIP3    H137220   0.522   4.173   5.016
12421TIP3    H237221   0.595   4.305   5.031
12422TIP3   OH237222   6.295   7.782   2.296
12422TIP3    H137223   6.345   7.705   2.324
12422TIP3    H237224   6.204   7.760   2.316
12423TIP3   OH237225   2.151   2.459   2.588
12423TIP3    H137226   2.090   2.533   2.589
12423TIP3    H237227   2.225   2.487   2.642
12424TIP3   OH237228   1.666   3.177   3.838
12424TIP3    H137229   1.577   3.143   3.828
12424TIP3    H237230   1.655   3.272   3.846
12425TIP3   OH237231   3.035   5.190   5.346
12425TIP3    H137232   3.064   5.281   5.353
12425TIP3    H237233   3.060   5.150   5.430
12426TIP3   OH237234   6.762   2.302   3.090
12426TIP3    H137235   6.789   2.271   3.004
12426TIP3    H237236   6.675   2.339   3.077
12427TIP3   OH237237   4.121   7.066   3.480
12427TIP3    H137238   4.185   6.996   3.477
12427TIP3    H237239   4.075   7.052   3.563
12428TIP3   OH237240   3.215   2.778   3.541
12428TIP3    H137241   3.214   2.739   3.628
12428TIP3    H237242   3.288   2.839   3.542
12429TIP3   OH237243   3.774   7.752   2.663
12429TIP3    H137244   3.801   7.823   2.721
12429TIP3    H237245   3.721   7.794   2.595
12430TIP3   OH237246   0.210   7.005   0.615
12430TIP3    H137247   0.127   6.981   0.573
12430TIP3    H237248   0.271   6.936   0.589
12431TIP3   OH237249   1.162   0.814   5.603
12431TIP3    H137250   1.211   0.879   5.554
12431TIP3    H237251   1.199   0.817   5.691
12432TIP3   OH237252   3.123   0.251   5.173
12432TIP3    H137253   3.194   0.196   5.141
12432TIP3    H237254   3.049   0.231   5.115
12433TIP3   OH237255   1.858   6.200   6.643
12433TIP3    H137256   1.813   6.123   6.676
12433TIP3    H237257   1.919   6.166   6.577
12434TIP3   OH237258   6.405   3.094   0.209
12434TIP3    H137259   6.320   3.109   0.167
12434TIP3    H237260   6.442   3.182   0.220
12435TIP3   OH237261   4.659   3.273   1.362
12435TIP3    H137262   4.590   3.237   1.418
12435TIP3    H237263   4.729   3.297   1.422
12436TIP3   OH237264   6.647   6.719   6.242
12436TIP3    H137265   6.660   6.685   6.154
12436TIP3    H237266   6.735   6.724   6.279
12437TIP3   OH237267   1.781   2.114   4.719
12437TIP3    H137268   1.778   2.206   4.745
12437TIP3    H237269   1.772   2.065   4.800
12438TIP3   OH237270   4.568   5.936   0.351
12438TIP3    H137271   4.644   5.957   0.297
12438TIP3    H237272   4.589   5.853   0.392
12439TIP3   OH237273   6.756   4.477   0.827
12439TIP3    H137274   6.820   4.436   0.769
12439TIP3    H237275   6.807   4.541   0.878
12440TIP3   OH237276   6.799   5.994   2.727
12440TIP3    H137277   6.823   6.054   2.797
12440TIP3    H237278   6.765   6.050   2.657
12441TIP3   OH237279   5.973   6.341   4.991
12441TIP3    H137280   6.028   6.290   5.051
12441TIP3    H237281   5.942   6.277   4.927
12442TIP3   OH237282   6.522   7.676   2.025
12442TIP3    H137283   6.535   7.761   2.068
12442TIP3    H237284   6.470   7.625   2.087
12443TIP3   OH237285   2.676   3.077   4.590
12443TIP3    H137286   2.747   3.030   4.546
12443TIP3    H237287   2.716   3.109   4.671
12444TIP3   OH237288   3.990   1.496   2.466
12444TIP3    H137289   3.972   1.580   2.508
12444TIP3    H237290   3.964   1.508   2.375
12445TIP3   OH237291   3.384   6.830   2.078
12445TIP3    H137292   3.323   6.903   2.088
12445TIP3    H237293   3.426   6.821   2.163
12446TIP3   OH237294   5.566   3.946   5.062
12446TIP3    H137295   5.642   3.968   5.117
12446TIP3    H237296   5.529   3.867   5.103
12447TIP3   OH237297   6.878   3.459   2.132
12447TIP3    H137298   6.886   3.467   2.227
12447TIP3    H237299   6.819   3.530   2.107
12448TIP3   OH237300   7.967   3.299   6.729
12448TIP3    H137301   8.012   3.275   6.647
12448TIP3    H237302   7.892   3.241   6.732
12449TIP3   OH237303   7.246   2.324   0.415
12449TIP3    H137304   7.223   2.338   0.507
12449TIP3    H237305   7.330   2.279   0.418
12450TIP3   OH237306   1.620   5.318   5.210
12450TIP3    H137307   1.540   5.341   5.258
12450TIP3    H237308   1.593   5.318   5.118
12451TIP3   OH237309   0.338   1.899   6.093
12451TIP3    H137310   0.265   1.943   6.048
12451TIP3    H237311   0.400   1.878   6.023
12452TIP3   OH237312   2.905   5.729   6.516
12452TIP3    H137313   2.968   5.707   6.447
12452TIP3    H237314   2.824   5.685   6.490
12453TIP3   OH237315   0.667   5.045   5.987
12453TIP3    H137316   0.724   5.077   6.057
12453TIP3    H237317   0.579   5.067   6.016
12454TIP3   OH237318   3.105   1.618   2.474
12454TIP3    H137319   3.170   1.582   2.535
12454TIP3    H237320   3.109   1.559   2.398
12455TIP3   OH237321   3.270   2.990   5.206
12455TIP3    H137322   3.231   2.991   5.119
12455TIP3    H237323   3.364   2.983   5.191
12456TIP3   OH237324   7.902   3.073   0.502
12456TIP3    H137325   7.902   2.996   0.445
12456TIP3    H237326   7.811   3.081   0.532
12457TIP3   OH237327   3.388   5.182   0.912
12457TIP3    H137328   3.438   5.263   0.905
12457TIP3    H237329   3.360   5.180   1.003
12458TIP3   OH237330   7.308   2.090   2.355
12458TIP3    H137331   7.403   2.100   2.365
12458TIP3    H237332   7.284   2.159   2.292
12459TIP3   OH237333   5.519   1.612   6.441
12459TIP3    H137334   5.427   1.593   6.457
12459TIP3    H237335   5.519   1.686   6.381
12460TIP3   OH237336   3.384   4.227   4.163
12460TIP3    H137337   3.444   4.199   4.093
12460TIP3    H237338   3.328   4.150   4.178
12461TIP3   OH237339   2.797   6.852   4.884
12461TIP3    H137340   2.710   6.877   4.916
12461TIP3    H237341   2.803   6.758   4.903
12462TIP3   OH237342   6.901   0.893   1.906
12462TIP3    H137343   6.922   0.971   1.957
12462TIP3    H237344   6.974   0.883   1.845
12463TIP3   OH237345   3.925   2.101   6.458
12463TIP3    H137346   3.847   2.058   6.493
12463TIP3    H237347   3.940   2.174   6.517
12464TIP3   OH237348   1.878   6.252   1.263
12464TIP3    H137349   1.924   6.247   1.347
12464TIP3    H237350   1.927   6.318   1.213
12465TIP3   OH237351   6.917   0.798   2.324
12465TIP3    H137352   6.840   0.741   2.318
12465TIP3    H237353   6.992   0.738   2.321
12466TIP3   OH237354   5.990   3.313   5.948
12466TIP3    H137355   5.904   3.273   5.963
12466TIP3    H237356   6.048   3.238   5.932
12467TIP3   OH237357   6.518   2.724   6.769
12467TIP3    H137358   6.457   2.691   6.703
12467TIP3    H237359   6.603   2.725   6.725
12468TIP3   OH237360   1.449   2.401   4.738
12468TIP3    H137361   1.511   2.363   4.801
12468TIP3    H237362   1.416   2.327   4.689
12469TIP3   OH237363   6.801   7.334   5.331
12469TIP3    H137364   6.883   7.359   5.372
12469TIP3    H237365   6.824   7.316   5.240
12470TIP3   OH237366   4.973   1.280   5.995
12470TIP3    H137367   4.994   1.242   6.081
12470TIP3    H237368   5.047   1.256   5.940
12471TIP3   OH237369   6.750   7.471   6.226
12471TIP3    H137370   6.844   7.452   6.233
12471TIP3    H237371   6.746   7.556   6.184
12472TIP3   OH237372   6.480   1.011   2.235
12472TIP3    H137373   6.456   1.099   2.266
12472TIP3    H237374   6.504   0.963   2.315
12473TIP3   OH237375   4.387   2.336   6.174
12473TIP3    H137376   4.384   2.337   6.270
12473TIP3    H237377   4.308   2.383   6.147
12474TIP3   OH237378   5.157   0.643   6.606
12474TIP3    H137379   5.120   0.637   6.694
12474TIP3    H237380   5.226   0.578   6.605
12475TIP3   OH237381   3.911   1.497   1.139
12475TIP3    H137382   3.919   1.566   1.205
12475TIP3    H237383   3.876   1.543   1.062
12476TIP3   OH237384   3.218   5.180   5.798
12476TIP3    H137385   3.267   5.103   5.828
12476TIP3    H237386   3.185   5.221   5.878
12477TIP3   OH237387   2.356   0.830   2.462
12477TIP3    H137388   2.430   0.773   2.441
12477TIP3    H237389   2.279   0.781   2.434
12478TIP3   OH237390   1.264   2.794   1.026
12478TIP3    H137391   1.339   2.852   1.027
12478TIP3    H237392   1.284   2.731   0.956
12479TIP3   OH237393   8.140   5.186   3.921
12479TIP3    H137394   8.103   5.220   4.002
12479TIP3    H237395   8.071   5.129   3.885
12480TIP3   OH237396   0.582   6.812   4.815
12480TIP3    H137397   0.665   6.827   4.860
12480TIP3    H237398   0.515   6.842   4.877
12481TIP3   OH237399   3.916   6.370   5.990
12481TIP3    H137400   3.864   6.447   6.014
12481TIP3    H237401   3.992   6.405   5.943
12482TIP3   OH237402   3.689   0.991   5.564
12482TIP3    H137403   3.679   1.012   5.657
12482TIP3    H237404   3.781   0.967   5.555
12483TIP3   OH237405   6.070   5.941   5.969
12483TIP3    H137406   6.141   6.005   5.959
12483TIP3    H237407   6.115   5.856   5.972
12484TIP3   OH237408   5.406   3.361   3.297
12484TIP3    H137409   5.379   3.431   3.237
12484TIP3    H237410   5.475   3.401   3.351
12485TIP3   OH237411   5.552   7.769   5.884
12485TIP3    H137412   5.601   7.849   5.867
12485TIP3    H237413   5.604   7.724   5.952
12486TIP3   OH237414   1.603   7.276   6.375
12486TIP3    H137415   1.645   7.282   6.289
12486TIP3    H237416   1.514   7.310   6.360
12487TIP3   OH237417   7.658   6.251   3.988
12487TIP3    H137418   7.619   6.247   4.075
12487TIP3    H237419   7.748   6.222   4.000
12488TIP3   OH237420   6.167   7.360   6.661
12488TIP3    H137421   6.168   7.295   6.591
12488TIP3    H237422   6.127   7.314   6.736
12489TIP3   OH237423   5.870   1.110   2.230
12489TIP3    H137424   5.838   1.038   2.284
12489TIP3    H237425   5.844   1.189   2.276
12490TIP3   OH237426   5.001   5.795   5.571
12490TIP3    H137427   4.970   5.858   5.505
12490TIP3    H237428   5.027   5.718   5.520
12491TIP3   OH237429   1.235   4.987   0.830
12491TIP3    H137430   1.168   4.919   0.825
12491TIP3    H237431   1.186   5.067   0.853
12492TIP3   OH237432   7.339   4.951   0.886
12492TIP3    H137433   7.258   4.991   0.853
12492TIP3    H237434   7.373   4.901   0.812
12493TIP3   OH237435   7.086   6.240   0.655
12493TIP3    H137436   7.039   6.292   0.720
12493TIP3    H237437   7.052   6.271   0.571
12494TIP3   OH237438   7.704   6.519   4.562
12494TIP3    H137439   7.641   6.567   4.615
12494TIP3    H237440   7.652   6.475   4.495
12495TIP3   OH237441   5.570   7.547   5.671
12495TIP3    H137442   5.543   7.606   5.601
12495TIP3    H237443   5.660   7.573   5.690
12496TIP3   OH237444   1.367   4.001   4.453
12496TIP3    H137445   1.364   4.097   4.454
12496TIP3    H237446   1.312   3.975   4.526
12497TIP3   OH237447   3.393   4.496   6.509
12497TIP3    H137448   3.379   4.404   6.484
12497TIP3    H237449   3.460   4.527   6.449
12498TIP3   OH237450   7.937   1.016   2.588
12498TIP3    H137451   7.862   1.034   2.646
12498TIP3    H237452   8.001   1.082   2.610
12499TIP3   OH237453   0.455   5.760   0.375
12499TIP3    H137454   0.494   5.673   0.365
12499TIP3    H237455   0.363   5.747   0.353
12500TIP3   OH237456   0.685   5.530   0.113
12500TIP3    H137457   0.622   5.582   0.063
12500TIP3    H237458   0.656   5.538   0.204
12501TIP3   OH237459   0.017   4.713   3.244
12501TIP3    H137460  -0.007   4.633   3.291
12501TIP3    H237461   0.020   4.781   3.311
12502TIP3   OH237462   3.190   0.558   0.421
12502TIP3    H137463   3.247   0.482   0.429
12502TIP3    H237464   3.126   0.548   0.492
12503TIP3   OH237465   5.147   4.942   2.073
12503TIP3    H137466   5.180   4.903   2.153
12503TIP3    H237467   5.076   4.885   2.045
12504TIP3   OH237468   0.114   7.405   1.624
12504TIP3    H137469   0.169   7.385   1.549
12504TIP3    H237470   0.174   7.445   1.688
12505TIP3   OH237471   0.312   5.076   5.912
12505TIP3    H137472   0.298   5.011   5.980
12505TIP3    H237473   0.380   5.038   5.856
12506TIP3   OH237474   7.773   7.576   2.558
12506TIP3    H137475   7.728   7.565   2.474
12506TIP3    H237476   7.781   7.488   2.593
12507TIP3   OH237477   3.735   3.306   1.512
12507TIP3    H137478   3.738   3.282   1.419
12507TIP3    H237479   3.794   3.244   1.555
12508TIP3   OH237480   0.731   7.670   4.764
12508TIP3    H137481   0.733   7.699   4.856
12508TIP3    H237482   0.822   7.648   4.744
12509TIP3   OH237483   1.911   2.966   5.825
12509TIP3    H137484   1.901   3.059   5.807
12509TIP3    H237485   1.840   2.925   5.775
12510TIP3   OH237486   5.379   4.355   3.445
12510TIP3    H137487   5.409   4.428   3.499
12510TIP3    H237488   5.416   4.277   3.488
12511TIP3   OH237489   1.886   2.282   3.715
12511TIP3    H137490   1.945   2.323   3.778
12511TIP3    H237491   1.920   2.307   3.630
12512TIP3   OH237492   1.628   1.697   3.353
12512TIP3    H137493   1.579   1.650   3.286
12512TIP3    H237494   1.581   1.780   3.364
12513TIP3   OH237495   4.841   5.740   5.108
12513TIP3    H137496   4.914   5.678   5.114
12513TIP3    H237497   4.810   5.748   5.199
12514TIP3   OH237498   5.811   4.966   3.420
12514TIP3    H137499   5.750   4.934   3.353
12514TIP3    H237500   5.755   4.987   3.495
12515TIP3   OH237501   4.152   3.829   4.985
12515TIP3    H137502   4.112   3.850   5.069
12515TIP3    H237503   4.133   3.736   4.971
12516TIP3   OH237504   0.685   6.941   3.935
12516TIP3    H137505   0.701   6.932   4.029
12516TIP3    H237506   0.735   7.018   3.909
12517TIP3   OH237507   1.807   4.894   1.210
12517TIP3    H137508   1.835   4.879   1.119
12517TIP3    H237509   1.836   4.984   1.229
12518TIP3   OH237510   2.431   1.614   6.236
12518TIP3    H137511   2.469   1.574   6.158
12518TIP3    H237512   2.469   1.702   6.238
12519TIP3   OH237513   5.418   2.178   4.426
12519TIP3    H137514   5.355   2.182   4.354
12519TIP3    H237515   5.479   2.109   4.400
12520TIP3   OH237516   4.749   6.900   0.741
12520TIP3    H137517   4.764   6.813   0.779
12520TIP3    H237518   4.756   6.960   0.815
12521TIP3   OH237519   7.562   3.389   4.125
12521TIP3    H137520   7.516   3.472   4.138
12521TIP3    H237521   7.512   3.346   4.055
12522TIP3   OH237522   7.493   4.015   6.187
12522TIP3    H137523   7.543   3.950   6.237
12522TIP3    H237524   7.452   4.070   6.253
12523TIP3   OH237525   5.733   1.245   2.989
12523TIP3    H137526   5.650   1.198   2.978
12523TIP3    H237527   5.708   1.337   2.996
12524TIP3   OH237528   1.652   6.424   5.262
12524TIP3    H137529   1.684   6.432   5.353
12524TIP3    H237530   1.573   6.477   5.260
12525TIP3   OH237531   6.767   3.788   1.830
12525TIP3    H137532   6.829   3.716   1.815
12525TIP3    H237533   6.812   3.846   1.892
12526TIP3   OH237534   7.245   2.433   3.855
12526TIP3    H137535   7.180   2.399   3.918
12526TIP3    H237536   7.238   2.528   3.862
12527TIP3   OH237537   3.314   0.027   5.164
12527TIP3    H137538   3.404  -0.007   5.156
12527TIP3    H237539   3.322   0.102   5.222
12528TIP3   OH237540   4.472   2.520   2.604
12528TIP3    H137541   4.423   2.483   2.531
12528TIP3    H237542   4.478   2.613   2.585
12529TIP3   OH237543   7.495   2.687   3.109
12529TIP3    H137544   7.407   2.651   3.119
12529TIP3    H237545   7.502   2.752   3.180
12530TIP3   OH237546   0.153   2.417   6.291
12530TIP3    H137547   0.161   2.325   6.313
12530TIP3    H237548   0.061   2.428   6.266
12531TIP3   OH237549   6.365   2.554   6.606
12531TIP3    H137550   6.365   2.576   6.513
12531TIP3    H237551   6.315   2.473   6.611
12532TIP3   OH237552   0.220   4.283   2.803
12532TIP3    H137553   0.151   4.347   2.818
12532TIP3    H237554   0.185   4.226   2.733
12533TIP3   OH237555   6.735   7.170   0.063
12533TIP3    H137556   6.659   7.181   0.006
12533TIP3    H237557   6.804   7.222   0.022
12534TIP3   OH237558   7.010   0.986   3.887
12534TIP3    H137559   7.036   0.912   3.833
12534TIP3    H237560   6.962   1.044   3.828
12535TIP3   OH237561   7.786   2.881   6.029
12535TIP3    H137562   7.844   2.813   5.995
12535TIP3    H237563   7.760   2.931   5.951
12536TIP3   OH237564   3.421   1.415   5.622
12536TIP3    H137565   3.438   1.485   5.560
12536TIP3    H237566   3.483   1.430   5.694
12537TIP3   OH237567   5.192   0.589   5.276
12537TIP3    H137568   5.097   0.586   5.280
12537TIP3    H237569   5.212   0.641   5.199
12538TIP3   OH237570   1.113   4.038   5.310
12538TIP3    H137571   1.157   4.118   5.282
12538TIP3    H237572   1.175   3.996   5.370
12539TIP3   OH237573   8.254   0.631   0.856
12539TIP3    H137574   8.338   0.616   0.812
12539TIP3    H237575   8.205   0.686   0.795
12540TIP3   OH237576   0.183   2.596   1.841
12540TIP3    H137577   0.209   2.523   1.898
12540TIP3    H237578   0.097   2.621   1.874
12541TIP3   OH237579   8.078   4.080   5.369
12541TIP3    H137580   8.168   4.104   5.349
12541TIP3    H237581   8.033   4.163   5.385
12542TIP3   OH237582   1.329   2.926   5.190
12542TIP3    H137583   1.235   2.928   5.210
12542TIP3    H237584   1.337   2.865   5.117
12543TIP3   OH237585   1.859   5.970   3.627
12543TIP3    H137586   1.841   5.878   3.609
12543TIP3    H237587   1.851   5.977   3.722
12544TIP3   OH237588   0.249   6.806   3.791
12544TIP3    H137589   0.331   6.855   3.789
12544TIP3    H237590   0.273   6.716   3.770
12545TIP3   OH237591   5.648   6.850   5.349
12545TIP3    H137592   5.676   6.823   5.437
12545TIP3    H237593   5.624   6.942   5.359
12546TIP3   OH237594   7.400   5.974   3.504
12546TIP3    H137595   7.337   6.040   3.475
12546TIP3    H237596   7.359   5.933   3.580
12547TIP3   OH237597   0.374   7.014   4.129
12547TIP3    H137598   0.336   7.066   4.200
12547TIP3    H237599   0.411   7.079   4.069
12548TIP3   OH237600   3.924   3.326   0.519
12548TIP3    H137601   3.985   3.253   0.514
12548TIP3    H237602   3.892   3.337   0.430
12549TIP3   OH237603   5.246   4.081   1.941
12549TIP3    H137604   5.265   4.006   1.997
12549TIP3    H237605   5.289   4.155   1.984
12550TIP3   OH237606   3.525   3.422   5.318
12550TIP3    H137607   3.524   3.333   5.282
12550TIP3    H237608   3.616   3.436   5.344
12551TIP3   OH237609   6.564   4.376   3.696
12551TIP3    H137610   6.502   4.326   3.643
12551TIP3    H237611   6.510   4.437   3.746
12552TIP3   OH237612   3.948   3.232   4.334
12552TIP3    H137613   3.909   3.280   4.261
12552TIP3    H237614   4.039   3.218   4.307
12553TIP3   OH237615   7.103   7.328   3.731
12553TIP3    H137616   7.033   7.268   3.757
12553TIP3    H237617   7.057   7.409   3.707
12554TIP3   OH237618   4.475   1.156   6.072
12554TIP3    H137619   4.465   1.243   6.033
12554TIP3    H237620   4.558   1.124   6.038
12555TIP3   OH237621   6.194   4.286   2.499
12555TIP3    H137622   6.261   4.318   2.559
12555TIP3    H237623   6.175   4.361   2.443
12556TIP3   OH237624   0.697   3.781   1.457
12556TIP3    H137625   0.681   3.687   1.458
12556TIP3    H237626   0.649   3.814   1.533
12557TIP3   OH237627   0.687   2.237   6.707
12557TIP3    H137628   0.599   2.242   6.743
12557TIP3    H237629   0.715   2.329   6.699
12558TIP3   OH237630   4.440   5.617   2.174
12558TIP3    H137631   4.441   5.705   2.136
12558TIP3    H237632   4.349   5.590   2.171
12559TIP3   OH237633   0.713   0.884   1.421
12559TIP3    H137634   0.805   0.881   1.397
12559TIP3    H237635   0.669   0.921   1.345
12560TIP3   OH237636   0.944   6.021   3.662
12560TIP3    H137637   0.855   5.990   3.642
12560TIP3    H237638   0.955   6.002   3.755
12561TIP3   OH237639   6.599   5.326   6.292
12561TIP3    H137640   6.521   5.361   6.249
12561TIP3    H237641   6.587   5.231   6.290
12562TIP3   OH237642   6.299   0.616   3.020
12562TIP3    H137643   6.280   0.595   3.111
12562TIP3    H237644   6.214   0.641   2.983
12563TIP3   OH237645   0.557   0.598   0.939
12563TIP3    H137646   0.607   0.517   0.928
12563TIP3    H237647   0.613   0.665   0.900
12564TIP3   OH237648   4.224   7.126   3.892
12564TIP3    H137649   4.206   7.218   3.873
12564TIP3    H237650   4.310   7.110   3.854
12565TIP3   OH237651   8.288   6.765   6.190
12565TIP3    H137652   8.262   6.836   6.248
12565TIP3    H237653   8.213   6.752   6.132
12566TIP3   OH237654   3.555   0.491   6.446
12566TIP3    H137655   3.466   0.490   6.481
12566TIP3    H237656   3.608   0.453   6.516
12567TIP3   OH237657   0.289   5.113   1.372
12567TIP3    H137658   0.363   5.053   1.384
12567TIP3    H237659   0.330   5.197   1.350
12568TIP3   OH237660   8.018   2.779   4.282
12568TIP3    H137661   7.927   2.802   4.261
12568TIP3    H237662   8.014   2.747   4.372
12569TIP3   OH237663   5.469   4.916   6.270
12569TIP3    H137664   5.551   4.966   6.275
12569TIP3    H237665   5.407   4.965   6.323
12570TIP3   OH237666   5.908   2.220   0.227
12570TIP3    H137667   5.881   2.304   0.263
12570TIP3    H237668   5.926   2.238   0.135
12571TIP3   OH237669   6.897   4.173   4.678
12571TIP3    H137670   6.915   4.091   4.632
12571TIP3    H237671   6.909   4.152   4.771
12572TIP3   OH237672   2.899   2.374   1.247
12572TIP3    H137673   2.950   2.326   1.182
12572TIP3    H237674   2.880   2.310   1.315
12573TIP3   OH237675   3.152   0.249   2.440
12573TIP3    H137676   3.192   0.294   2.515
12573TIP3    H237677   3.059   0.271   2.446
12574TIP3   OH237678   3.380   0.266   5.330
12574TIP3    H137679   3.446   0.280   5.262
12574TIP3    H237680   3.351   0.355   5.353
12575TIP3   OH237681   7.581   6.139   1.101
12575TIP3    H137682   7.676   6.152   1.105
12575TIP3    H237683   7.568   6.050   1.133
12576TIP3   OH237684   5.249   4.866   1.437
12576TIP3    H137685   5.301   4.931   1.389
12576TIP3    H237686   5.181   4.917   1.480
12577TIP3   OH237687   0.911   1.682   0.977
12577TIP3    H137688   0.821   1.689   0.943
12577TIP3    H237689   0.951   1.766   0.956
12578TIP3   OH237690   3.675   2.583   2.121
12578TIP3    H137691   3.585   2.581   2.155
12578TIP3    H237692   3.665   2.593   2.027
12579TIP3   OH237693   7.245   3.905   4.248
12579TIP3    H137694   7.186   3.833   4.268
12579TIP3    H237695   7.294   3.919   4.329
12580TIP3   OH237696   5.305   3.743   3.741
12580TIP3    H137697   5.397   3.764   3.756
12580TIP3    H237698   5.263   3.753   3.826
12581TIP3   OH237699   7.233   1.253   1.796
12581TIP3    H137700   7.223   1.192   1.723
12581TIP3    H237701   7.160   1.233   1.855
12582TIP3   OH237702   6.992   5.406   3.127
12582TIP3    H137703   6.929   5.468   3.093
12582TIP3    H237704   6.952   5.320   3.112
12583TIP3   OH237705   6.801   6.655   5.407
12583TIP3    H137706   6.772   6.567   5.429
12583TIP3    H237707   6.884   6.643   5.360
12584TIP3   OH237708   8.224   6.146   1.303
12584TIP3    H137709   8.263   6.224   1.264
12584TIP3    H237710   8.173   6.106   1.233
12585TIP3   OH237711   4.575   1.714   1.105
12585TIP3    H137712   4.597   1.634   1.154
12585TIP3    H237713   4.479   1.715   1.104
12586TIP3   OH237714   4.670   5.413   6.154
12586TIP3    H137715   4.723   5.340   6.188
12586TIP3    H237716   4.588   5.407   6.202
12587TIP3   OH237717   0.775   3.999   2.484
12587TIP3    H137718   0.804   4.022   2.572
12587TIP3    H237719   0.847   3.949   2.447
12588TIP3   OH237720   3.733   1.414   4.282
12588TIP3    H137721   3.670   1.369   4.338
12588TIP3    H237722   3.739   1.359   4.204
12589TIP3   OH237723   4.651   1.127   4.795
12589TIP3    H137724   4.693   1.137   4.709
12589TIP3    H237725   4.724   1.133   4.858
12590TIP3   OH237726   0.420   4.139   0.302
12590TIP3    H137727   0.500   4.189   0.320
12590TIP3    H237728   0.390   4.111   0.389
12591TIP3   OH237729   0.180   3.685   1.666
12591TIP3    H137730   0.109   3.711   1.607
12591TIP3    H237731   0.255   3.669   1.608
12592TIP3   OH237732   0.603   7.731   4.522
12592TIP3    H137733   0.647   7.686   4.450
12592TIP3    H237734   0.661   7.719   4.597
12593TIP3   OH237735   0.828   7.216   4.724
12593TIP3    H137736   0.908   7.218   4.672
12593TIP3    H237737   0.832   7.296   4.776
12594TIP3   OH237738   3.011   0.402   3.717
12594TIP3    H137739   3.003   0.486   3.762
12594TIP3    H237740   2.925   0.362   3.725
12595TIP3   OH237741   1.713   1.384   0.463
12595TIP3    H137742   1.657   1.385   0.386
12595TIP3    H237743   1.802   1.386   0.428
12596TIP3   OH237744   3.229   2.863   1.172
12596TIP3    H137745   3.148   2.815   1.161
12596TIP3    H237746   3.269   2.826   1.251
12597TIP3   OH237747   7.733   6.720   5.363
12597TIP3    H137748   7.765   6.672   5.287
12597TIP3    H237749   7.677   6.789   5.327
12598TIP3   OH237750   5.477   4.244   6.031
12598TIP3    H137751   5.484   4.273   5.940
12598TIP3    H237752   5.427   4.312   6.074
12599TIP3   OH237753   4.386   6.795   4.533
12599TIP3    H137754   4.349   6.711   4.561
12599TIP3    H237755   4.417   6.836   4.613
12600TIP3   OH237756   3.984   6.784   3.510
12600TIP3    H137757   3.889   6.774   3.522
12600TIP3    H237758   4.018   6.800   3.598
12601TIP3   OH237759   7.401   0.623   4.900
12601TIP3    H137760   7.443   0.546   4.861
12601TIP3    H237761   7.341   0.587   4.965
12602TIP3   OH237762   6.898   4.059   4.035
12602TIP3    H137763   6.872   3.994   4.101
12602TIP3    H237764   6.984   4.089   4.065
12603TIP3   OH237765   5.298   0.813   4.717
12603TIP3    H137766   5.311   0.863   4.636
12603TIP3    H237767   5.211   0.774   4.706
12604TIP3   OH237768   2.832   1.124   0.304
12604TIP3    H137769   2.794   1.079   0.228
12604TIP3    H237770   2.783   1.090   0.379
12605TIP3   OH237771   7.331   4.446   6.664
12605TIP3    H137772   7.256   4.386   6.664
12605TIP3    H237773   7.357   4.451   6.756
12606TIP3   OH237774   8.038   2.236   2.875
12606TIP3    H137775   8.001   2.147   2.878
12606TIP3    H237776   8.129   2.223   2.847
12607TIP3   OH237777   2.562   4.315   2.248
12607TIP3    H137778   2.641   4.263   2.240
12607TIP3    H237779   2.558   4.338   2.341
12608TIP3   OH237780   0.427   5.634   4.998
12608TIP3    H137781   0.448   5.638   4.905
12608TIP3    H237782   0.411   5.725   5.023
12609TIP3   OH237783   3.239   5.272   3.598
12609TIP3    H137784   3.301   5.278   3.671
12609TIP3    H237785   3.263   5.190   3.554
12610TIP3   OH237786   7.357   1.221   3.640
12610TIP3    H137787   7.418   1.182   3.703
12610TIP3    H237788   7.411   1.280   3.588
12611TIP3   OH237789   4.154   3.833   2.795
12611TIP3    H137790   4.125   3.922   2.815
12611TIP3    H237791   4.212   3.844   2.718
12612TIP3   OH237792   8.167   1.946   1.871
12612TIP3    H137793   8.071   1.944   1.874
12612TIP3    H237794   8.192   1.864   1.829
12613TIP3   OH237795   3.365   5.064   6.488
12613TIP3    H137796   3.368   5.037   6.397
12613TIP3    H237797   3.411   4.995   6.535
12614TIP3   OH237798   0.816   6.360   1.668
12614TIP3    H137799   0.768   6.389   1.746
12614TIP3    H237800   0.795   6.425   1.601
12615TIP3   OH237801   2.182   4.236   4.147
12615TIP3    H137802   2.193   4.311   4.088
12615TIP3    H237803   2.088   4.217   4.144
12616TIP3   OH237804   5.117   7.756   3.915
12616TIP3    H137805   5.208   7.767   3.885
12616TIP3    H237806   5.084   7.683   3.863
12617TIP3   OH237807   6.164   3.306   0.789
12617TIP3    H137808   6.101   3.317   0.718
12617TIP3    H237809   6.237   3.363   0.765
12618TIP3   OH237810   6.271   3.133   2.839
12618TIP3    H137811   6.319   3.062   2.881
12618TIP3    H237812   6.198   3.151   2.897
12619TIP3   OH237813   5.673   4.316   0.322
12619TIP3    H137814   5.647   4.398   0.365
12619TIP3    H237815   5.691   4.256   0.394
12620TIP3   OH237816   4.837   0.280   1.659
12620TIP3    H137817   4.836   0.367   1.698
12620TIP3    H237818   4.920   0.277   1.611
12621TIP3   OH237819   6.331   5.345   6.588
12621TIP3    H137820   6.383   5.389   6.520
12621TIP3    H237821   6.308   5.415   6.649
12622TIP3   OH237822   2.967   2.030   5.096
12622TIP3    H137823   3.025   1.992   5.162
12622TIP3    H237824   2.929   2.107   5.138
12623TIP3   OH237825   5.661   2.348   5.230
12623TIP3    H137826   5.583   2.400   5.216
12623TIP3    H237827   5.720   2.404   5.280
12624TIP3   OH237828   1.280   7.426   1.000
12624TIP3    H137829   1.374   7.416   1.015
12624TIP3    H237830   1.274   7.459   0.910
12625TIP3   OH237831   2.485   6.197   4.688
12625TIP3    H137832   2.499   6.155   4.603
12625TIP3    H237833   2.393   6.180   4.709
12626TIP3   OH237834   8.205   3.875   5.043
12626TIP3    H137835   8.267   3.932   5.089
12626TIP3    H237836   8.135   3.934   5.015
12627TIP3   OH237837   0.150   7.097   4.747
12627TIP3    H137838   0.121   7.034   4.681
12627TIP3    H237839   0.125   7.182   4.711
12628TIP3   OH237840   5.110   0.850   5.205
12628TIP3    H137841   5.017   0.868   5.220
12628TIP3    H237842   5.154   0.886   5.282
12629TIP3   OH237843   3.167   3.752   3.633
12629TIP3    H137844   3.192   3.670   3.677
12629TIP3    H237845   3.180   3.735   3.540
12630TIP3   OH237846   6.761   7.025   1.951
12630TIP3    H137847   6.759   7.018   1.856
12630TIP3    H237848   6.724   6.943   1.982
12631TIP3   OH237849   0.614   2.196   4.153
12631TIP3    H137850   0.548   2.130   4.129
12631TIP3    H237851   0.676   2.149   4.209
12632TIP3   OH237852   0.980   6.392   2.053
12632TIP3    H137853   1.011   6.413   1.965
12632TIP3    H237854   0.932   6.469   2.081
12633TIP3   OH237855   2.328   4.727   2.115
12633TIP3    H137856   2.268   4.746   2.042
12633TIP3    H237857   2.398   4.791   2.105
12634TIP3   OH237858   5.792   3.554   0.296
12634TIP3    H137859   5.835   3.472   0.318
12634TIP3    H237860   5.763   3.543   0.205
12635TIP3   OH237861   0.339   4.296   3.463
12635TIP3    H137862   0.298   4.225   3.512
12635TIP3    H237863   0.286   4.373   3.485
12636TIP3   OH237864   4.698   0.413   5.547
12636TIP3    H137865   4.757   0.353   5.592
12636TIP3    H237866   4.619   0.414   5.600
12637TIP3   OH237867   5.444   4.588   3.625
12637TIP3    H137868   5.539   4.578   3.632
12637TIP3    H237869   5.414   4.590   3.715
12638TIP3   OH237870   1.846   2.922   2.019
12638TIP3    H137871   1.772   2.870   1.986
12638TIP3    H237872   1.909   2.921   1.946
12639TIP3   OH237873   2.656   2.572   3.000
12639TIP3    H137874   2.598   2.496   3.003
12639TIP3    H237875   2.658   2.604   3.090
12640TIP3   OH237876   6.367   0.042   1.304
12640TIP3    H137877   6.294  -0.011   1.337
12640TIP3    H237878   6.326   0.104   1.244
12641TIP3   OH237879   8.168   3.585   0.624
12641TIP3    H137880   8.202   3.501   0.592
12641TIP3    H237881   8.149   3.635   0.544
12642TIP3   OH237882   0.068   3.303   6.072
12642TIP3    H137883  -0.007   3.252   6.041
12642TIP3    H237884   0.140   3.241   6.076
12643TIP3   OH237885   1.309   4.820   3.943
12643TIP3    H137886   1.254   4.897   3.931
12643TIP3    H237887   1.375   4.827   3.874
12644TIP3   OH237888   0.374   1.590   5.167
12644TIP3    H137889   0.357   1.662   5.229
12644TIP3    H237890   0.424   1.631   5.097
12645TIP3   OH237891   7.593   5.297   1.443
12645TIP3    H137892   7.679   5.278   1.480
12645TIP3    H237893   7.597   5.264   1.353
12646TIP3   OH237894   0.783   5.863   5.011
12646TIP3    H137895   0.759   5.871   5.103
12646TIP3    H237896   0.828   5.779   5.005
12647TIP3   OH237897   2.932   2.999   3.405
12647TIP3    H137898   3.025   2.996   3.384
12647TIP3    H237899   2.891   2.938   3.344
12648TIP3   OH237900   5.185   3.836   2.903
12648TIP3    H137901   5.174   3.820   2.996
12648TIP3    H237902   5.108   3.797   2.863
12649TIP3   OH237903   7.094   5.072   0.784
12649TIP3    H137904   7.078   5.163   0.756
12649TIP3    H237905   7.008   5.032   0.786
12650TIP3   OH237906   3.845   3.895   0.629
12650TIP3    H137907   3.829   3.989   0.637
12650TIP3    H237908   3.905   3.875   0.700
12651TIP3   OH237909   5.400   2.339   4.672
12651TIP3    H137910   5.398   2.306   4.582
12651TIP3    H237911   5.319   2.307   4.711
12652TIP3   OH237912   5.688   5.515   5.874
12652TIP3    H137913   5.628   5.468   5.816
12652TIP3    H237914   5.728   5.582   5.819
12653TIP3   OH237915   0.604   2.987   3.862
12653TIP3    H137916   0.612   3.045   3.938
12653TIP3    H237917   0.549   2.915   3.892
12654TIP3   OH237918   4.405   5.208   5.372
12654TIP3    H137919   4.361   5.293   5.368
12654TIP3    H237920   4.433   5.192   5.283
12655TIP3   OH237921   4.859   3.310   2.412
12655TIP3    H137922   4.894   3.222   2.397
12655TIP3    H237923   4.767   3.296   2.433
12656TIP3   OH237924   3.081   4.948   6.549
12656TIP3    H137925   3.111   4.862   6.519
12656TIP3    H237926   3.161   4.995   6.572
12657TIP3   OH237927   0.758   5.964   3.377
12657TIP3    H137928   0.680   5.912   3.393
12657TIP3    H237929   0.779   5.947   3.285
12658TIP3   OH237930   2.889   6.822   0.929
12658TIP3    H137931   2.919   6.912   0.941
12658TIP3    H237932   2.870   6.814   0.836
12659TIP3   OH237933   1.078   7.359   2.699
12659TIP3    H137934   1.036   7.441   2.671
12659TIP3    H237935   1.009   7.311   2.745
12660TIP3   OH237936   8.261   2.277   5.497
12660TIP3    H137937   8.291   2.307   5.411
12660TIP3    H237938   8.192   2.337   5.521
12661TIP3   OH237939   6.438   1.967   5.803
12661TIP3    H137940   6.351   1.972   5.763
12661TIP3    H237941   6.427   2.005   5.891
12662TIP3   OH237942   5.626   7.430   0.958
12662TIP3    H137943   5.712   7.397   0.986
12662TIP3    H237944   5.617   7.514   1.003
12663TIP3   OH237945   0.831   6.013   3.987
12663TIP3    H137946   0.895   5.981   4.050
12663TIP3    H237947   0.751   5.965   4.007
12664TIP3   OH237948   4.589   1.569   5.566
12664TIP3    H137949   4.555   1.658   5.575
12664TIP3    H237950   4.673   1.571   5.613
12665TIP3   OH237951   5.047   5.663   2.802
12665TIP3    H137952   5.103   5.691   2.730
12665TIP3    H237953   5.063   5.569   2.809
12666TIP3   OH237954   8.045   1.257   3.401
12666TIP3    H137955   8.035   1.178   3.454
12666TIP3    H237956   7.977   1.316   3.432
12667TIP3   OH237957   4.681   5.122   2.051
12667TIP3    H137958   4.672   5.212   2.083
12667TIP3    H237959   4.712   5.131   1.962
12668TIP3   OH237960   2.308   6.412   2.340
12668TIP3    H137961   2.328   6.503   2.359
12668TIP3    H237962   2.334   6.400   2.249
12669TIP3   OH237963   3.125   1.060   6.132
12669TIP3    H137964   3.049   1.066   6.074
12669TIP3    H237965   3.138   0.966   6.146
12670TIP3   OH237966   6.083   6.423   3.392
12670TIP3    H137967   6.020   6.367   3.437
12670TIP3    H237968   6.037   6.454   3.314
12671TIP3   OH237969   7.992   4.866   4.784
12671TIP3    H137970   8.055   4.838   4.851
12671TIP3    H237971   7.967   4.955   4.811
12672TIP3   OH237972   7.249   5.807   2.270
12672TIP3    H137973   7.176   5.746   2.264
12672TIP3    H237974   7.317   5.758   2.317
12673TIP3   OH237975   0.633   4.164   0.610
12673TIP3    H137976   0.673   4.151   0.524
12673TIP3    H237977   0.541   4.180   0.591
12674TIP3   OH237978   6.268   2.234   0.601
12674TIP3    H137979   6.329   2.291   0.649
12674TIP3    H237980   6.203   2.208   0.667
12675TIP3   OH237981   2.726   1.002   1.342
12675TIP3    H137982   2.815   0.968   1.334
12675TIP3    H237983   2.731   1.090   1.306
12676TIP3   OH237984   3.199   5.041   0.769
12676TIP3    H137985   3.276   5.073   0.817
12676TIP3    H237986   3.126   5.057   0.828
12677TIP3   OH237987   4.464   2.385   5.028
12677TIP3    H137988   4.403   2.425   5.089
12677TIP3    H237989   4.538   2.446   5.024
12678TIP3   OH237990   0.007   4.556   0.708
12678TIP3    H137991  -0.046   4.479   0.730
12678TIP3    H237992   0.087   4.545   0.759
12679TIP3   OH237993   7.097   3.452   6.472
12679TIP3    H137994   7.117   3.474   6.563
12679TIP3    H237995   7.181   3.425   6.434
12680TIP3   OH237996   5.946   3.339   0.983
12680TIP3    H137997   6.023   3.366   0.933
12680TIP3    H237998   5.976   3.264   1.035
12681TIP3   OH237999   4.097   5.387   6.055
12681TIP3    H138000   4.126   5.440   6.129
12681TIP3    H238001   4.032   5.441   6.010
12682TIP3   OH238002   7.225   4.401   5.447
12682TIP3    H138003   7.299   4.453   5.478
12682TIP3    H238004   7.179   4.459   5.386
12683TIP3   OH238005   7.415   2.773   5.484
12683TIP3    H138006   7.348   2.707   5.504
12683TIP3    H238007   7.371   2.857   5.500
12684TIP3   OH238008   4.010   7.703   2.210
12684TIP3    H138009   4.020   7.759   2.287
12684TIP3    H238010   4.025   7.615   2.242
12685TIP3   OH238011   1.083   2.268   1.640
12685TIP3    H138012   1.050   2.219   1.716
12685TIP3    H238013   1.175   2.284   1.661
12686TIP3   OH238014   1.702   3.037   2.824
12686TIP3    H138015   1.614   3.041   2.787
12686TIP3    H238016   1.759   3.070   2.754
12687TIP3   OH238017   4.712   0.432   3.974
12687TIP3    H138018   4.678   0.510   3.931
12687TIP3    H238019   4.664   0.428   4.057
12688TIP3   OH238020   0.548   0.218   2.678
12688TIP3    H138021   0.541   0.313   2.691
12688TIP3    H238022   0.586   0.208   2.591
12689TIP3   OH238023   2.624   0.925   4.968
12689TIP3    H138024   2.667   1.003   4.934
12689TIP3    H238025   2.624   0.935   5.063
12690TIP3   OH238026   4.415   7.368   5.247
12690TIP3    H138027   4.323   7.364   5.222
12690TIP3    H238028   4.443   7.276   5.250
12691TIP3   OH238029   2.563   7.785   0.258
12691TIP3    H138030   2.556   7.710   0.318
12691TIP3    H238031   2.501   7.849   0.292
12692TIP3   OH238032   6.364   2.520   5.872
12692TIP3    H138033   6.444   2.572   5.866
12692TIP3    H238034   6.376   2.450   5.808
12693TIP3   OH238035   2.088   6.238   0.050
12693TIP3    H138036   2.118   6.304   0.112
12693TIP3    H238037   2.089   6.282  -0.035
12694TIP3   OH238038   6.254   3.657   1.635
12694TIP3    H138039   6.183   3.696   1.686
12694TIP3    H238040   6.295   3.595   1.696
12695TIP3   OH238041   6.558   6.872   0.750
12695TIP3    H138042   6.466   6.892   0.768
12695TIP3    H238043   6.572   6.901   0.660
12696TIP3   OH238044   7.156   5.385   2.252
12696TIP3    H138045   7.068   5.417   2.271
12696TIP3    H238046   7.144   5.292   2.233
12697TIP3   OH238047   2.280   6.590   0.367
12697TIP3    H138048   2.362   6.546   0.345
12697TIP3    H238049   2.212   6.527   0.343
12698TIP3   OH238050   2.123   5.586   3.441
12698TIP3    H138051   2.086   5.518   3.385
12698TIP3    H238052   2.170   5.644   3.382
12699TIP3   OH238053   3.797   7.740   4.970
12699TIP3    H138054   3.857   7.675   5.007
12699TIP3    H238055   3.840   7.824   4.987
12700TIP3   OH238056   5.382   5.113   5.335
12700TIP3    H138057   5.415   5.034   5.294
12700TIP3    H238058   5.412   5.108   5.426
12701TIP3   OH238059   5.370   1.661   1.308
12701TIP3    H138060   5.306   1.653   1.238
12701TIP3    H238061   5.348   1.744   1.351
12702TIP3   OH238062   1.046   1.622   4.804
12702TIP3    H138063   1.126   1.673   4.790
12702TIP3    H238064   1.059   1.543   4.751
12703TIP3   OH238065   0.081   2.065   6.731
12703TIP3    H138066   0.071   1.999   6.662
12703TIP3    H238067   0.000   2.115   6.730
12704TIP3   OH238068   2.744   3.788   6.720
12704TIP3    H138069   2.829   3.816   6.687
12704TIP3    H238070   2.684   3.799   6.646
12705TIP3   OH238071   3.531   4.862   6.596
12705TIP3    H138072   3.502   4.773   6.578
12705TIP3    H238073   3.574   4.857   6.681
12706TIP3   OH238074   7.748   4.343   6.235
12706TIP3    H138075   7.659   4.369   6.258
12706TIP3    H238076   7.799   4.424   6.241
12707TIP3   OH238077   7.003   2.540   1.489
12707TIP3    H138078   7.085   2.587   1.475
12707TIP3    H238079   7.025   2.472   1.553
12708TIP3   OH238080   6.347   1.927   0.689
12708TIP3    H138081   6.261   1.888   0.701
12708TIP3    H238082   6.328   2.017   0.662
12709TIP3   OH238083   4.076   4.142   6.087
12709TIP3    H138084   4.151   4.186   6.128
12709TIP3    H238085   4.108   4.116   6.000
12710TIP3   OH238086   3.015   3.683   6.522
12710TIP3    H138087   3.085   3.722   6.471
12710TIP3    H238088   3.055   3.606   6.563
12711TIP3   OH238089   3.170   5.709   4.054
12711TIP3    H138090   3.080   5.689   4.078
12711TIP3    H238091   3.177   5.804   4.061
12712TIP3   OH238092   6.351   4.769   5.912
12712TIP3    H138093   6.265   4.800   5.938
12712TIP3    H238094   6.340   4.676   5.897
12713TIP3   OH238095   0.337   0.674   1.339
12713TIP3    H138096   0.288   0.734   1.283
12713TIP3    H238097   0.277   0.601   1.354
12714TIP3   OH238098   6.131   6.752   3.384
12714TIP3    H138099   6.045   6.743   3.427
12714TIP3    H238100   6.189   6.694   3.434
12715TIP3   OH238101   6.571   6.031   5.463
12715TIP3    H138102   6.588   5.962   5.527
12715TIP3    H238103   6.515   6.093   5.509
12716TIP3   OH238104   5.948   2.315   4.686
12716TIP3    H138105   5.894   2.237   4.681
12716TIP3    H238106   5.888   2.387   4.669
12717TIP3   OH238107   5.429   0.774   6.049
12717TIP3    H138108   5.497   0.712   6.077
12717TIP3    H238109   5.386   0.800   6.130
12718TIP3   OH238110   6.188   1.704   0.298
12718TIP3    H138111   6.212   1.701   0.205
12718TIP3    H238112   6.252   1.647   0.341
12719TIP3   OH238113   4.693   1.722   1.491
12719TIP3    H138114   4.611   1.749   1.449
12719TIP3    H238115   4.672   1.719   1.584
12720TIP3   OH238116   5.706   4.258   3.702
12720TIP3    H138117   5.775   4.200   3.669
12720TIP3    H238118   5.628   4.233   3.654
12721TIP3   OH238119   1.423   6.750   6.129
12721TIP3    H138120   1.403   6.657   6.128
12721TIP3    H238121   1.401   6.781   6.042
12722TIP3   OH238122   4.098   0.610   5.621
12722TIP3    H138123   4.185   0.648   5.622
12722TIP3    H238124   4.072   0.611   5.529
12723TIP3   OH238125   6.517   3.956   0.028
12723TIP3    H138126   6.580   3.978  -0.041
12723TIP3    H238127   6.491   4.040   0.065
12724TIP3   OH238128   8.052   3.419   5.531
12724TIP3    H138129   8.001   3.407   5.611
12724TIP3    H238130   8.100   3.336   5.521
12725TIP3   OH238131   8.157   1.561   6.259
12725TIP3    H138132   8.092   1.562   6.329
12725TIP3    H238133   8.107   1.561   6.178
12726TIP3   OH238134   3.829   1.275   1.281
12726TIP3    H138135   3.739   1.256   1.255
12726TIP3    H238136   3.860   1.339   1.217
12727TIP3   OH238137   1.557   4.806   5.150
12727TIP3    H138138   1.501   4.869   5.104
12727TIP3    H238139   1.531   4.812   5.241
12728TIP3   OH238140   2.280   7.248   2.941
12728TIP3    H138141   2.301   7.340   2.925
12728TIP3    H238142   2.225   7.223   2.867
12729TIP3   OH238143   6.862   0.596   0.884
12729TIP3    H138144   6.826   0.514   0.917
12729TIP3    H238145   6.935   0.570   0.827
12730TIP3   OH238146   1.664   2.926   6.745
12730TIP3    H138147   1.750   2.919   6.705
12730TIP3    H238148   1.637   2.836   6.760
12731TIP3   OH238149   3.983   6.550   3.951
12731TIP3    H138150   3.931   6.515   4.024
12731TIP3    H238151   3.956   6.642   3.945
12732TIP3   OH238152   0.179   0.988   5.511
12732TIP3    H138153   0.149   1.049   5.443
12732TIP3    H238154   0.107   0.985   5.574
12733TIP3   OH238155   2.033   5.151   3.312
12733TIP3    H138156   2.085   5.204   3.251
12733TIP3    H238157   2.091   5.079   3.338
12734TIP3   OH238158   5.821   2.704   5.646
12734TIP3    H138159   5.769   2.646   5.590
12734TIP3    H238160   5.867   2.762   5.584
12735TIP3   OH238161   5.340   2.252   3.259
12735TIP3    H138162   5.258   2.300   3.247
12735TIP3    H238163   5.349   2.243   3.353
12736TIP3   OH238164   0.285   7.781   4.834
12736TIP3    H138165   0.228   7.705   4.846
12736TIP3    H238166   0.294   7.789   4.739
12737TIP3   OH238167   7.751   1.800   0.494
12737TIP3    H138168   7.751   1.887   0.455
12737TIP3    H238169   7.736   1.741   0.420
12738TIP3   OH238170   2.162   4.549   3.708
12738TIP3    H138171   2.228   4.611   3.739
12738TIP3    H238172   2.081   4.575   3.753
12739TIP3   OH238173   6.522   7.062   2.217
12739TIP3    H138174   6.445   7.062   2.160
12739TIP3    H238175   6.530   6.971   2.246
12740TIP3   OH238176   4.838   2.765   0.146
12740TIP3    H138177   4.775   2.726   0.086
12740TIP3    H238178   4.840   2.857   0.122
12741TIP3   OH238179   4.345   5.031   2.348
12741TIP3    H138180   4.345   5.098   2.280
12741TIP3    H238181   4.437   5.023   2.373
12742TIP3   OH238182   6.529   1.904   5.320
12742TIP3    H138183   6.512   1.977   5.261
12742TIP3    H238184   6.578   1.943   5.393
12743TIP3   OH238185   1.843   6.018   3.922
12743TIP3    H138186   1.784   5.943   3.929
12743TIP3    H238187   1.919   5.993   3.974
12744TIP3   OH238188   6.864   5.368   2.378
12744TIP3    H138189   6.852   5.423   2.456
12744TIP3    H238190   6.776   5.347   2.349
12745TIP3   OH238191   8.149   7.528   5.639
12745TIP3    H138192   8.202   7.482   5.704
12745TIP3    H238193   8.199   7.522   5.558
12746TIP3   OH238194   5.668   4.144   1.772
12746TIP3    H138195   5.624   4.173   1.852
12746TIP3    H238196   5.694   4.054   1.790
12747TIP3   OH238197   0.902   6.210   3.401
12747TIP3    H138198   0.881   6.118   3.416
12747TIP3    H238199   0.975   6.209   3.339
12748TIP3   OH238200   5.596   5.740   0.554
12748TIP3    H138201   5.667   5.726   0.491
12748TIP3    H238202   5.616   5.825   0.594
12749TIP3   OH238203   2.207   7.676   3.338
12749TIP3    H138204   2.209   7.606   3.273
12749TIP3    H238205   2.114   7.691   3.355
12750TIP3   OH238206   6.465   2.857   2.418
12750TIP3    H138207   6.559   2.870   2.417
12750TIP3    H238208   6.436   2.888   2.332
12751TIP3   OH238209   3.386   4.792   6.264
12751TIP3    H138210   3.375   4.737   6.186
12751TIP3    H238211   3.481   4.800   6.274
12752TIP3   OH238212   1.396   4.328   3.066
12752TIP3    H138213   1.389   4.400   3.129
12752TIP3    H238214   1.455   4.362   2.998
12753TIP3   OH238215   7.031   5.144   6.209
12753TIP3    H138216   7.127   5.145   6.206
12753TIP3    H238217   7.008   5.054   6.231
12754TIP3   OH238218   5.221   5.067   4.949
12754TIP3    H138219   5.167   5.045   4.873
12754TIP3    H238220   5.270   4.987   4.968
12755TIP3   OH238221   4.683   7.740   4.698
12755TIP3    H138222   4.777   7.753   4.684
12755TIP3    H238223   4.652   7.824   4.734
12756TIP3   OH238224   4.829   6.333   5.484
12756TIP3    H138225   4.810   6.421   5.518
12756TIP3    H238226   4.793   6.274   5.551
12757TIP3   OH238227   3.779   6.348   6.458
12757TIP3    H138228   3.820   6.301   6.531
12757TIP3    H238229   3.800   6.295   6.381
12758TIP3   OH238230   7.313   1.474   3.919
12758TIP3    H138231   7.384   1.537   3.912
12758TIP3    H238232   7.257   1.493   3.843
12759TIP3   OH238233   7.023   0.963   2.996
12759TIP3    H138234   7.050   0.904   2.925
12759TIP3    H238235   7.077   0.937   3.071
12760TIP3   OH238236   2.401   4.613   1.132
12760TIP3    H138237   2.468   4.662   1.085
12760TIP3    H238238   2.450   4.556   1.191
12761TIP3   OH238239   8.234   4.162   0.441
12761TIP3    H138240   8.295   4.096   0.474
12761TIP3    H238241   8.148   4.122   0.452
12762TIP3   OH238242   1.608   4.249   5.188
12762TIP3    H138243   1.571   4.255   5.276
12762TIP3    H238244   1.534   4.228   5.131
12763TIP3   OH238245   7.315   2.553   4.153
12763TIP3    H138246   7.395   2.502   4.141
12763TIP3    H238247   7.344   2.643   4.162
12764TIP3   OH238248   3.477   5.076   3.620
12764TIP3    H138249   3.468   5.017   3.695
12764TIP3    H238250   3.489   5.163   3.658
12765TIP3   OH238251   4.166   2.870   1.866
12765TIP3    H138252   4.160   2.914   1.951
12765TIP3    H238253   4.093   2.808   1.867
12766TIP3   OH238254   5.958   1.718   0.070
12766TIP3    H138255   5.889   1.780   0.092
12766TIP3    H238256   6.016   1.718   0.146
12767TIP3   OH238257   5.723   6.565   4.372
12767TIP3    H138258   5.703   6.620   4.448
12767TIP3    H238259   5.803   6.519   4.396
12768TIP3   OH238260   1.415   0.621   6.309
12768TIP3    H138261   1.332   0.586   6.341
12768TIP3    H238262   1.480   0.586   6.370
12769TIP3   OH238263   6.728   4.318   2.157
12769TIP3    H138264   6.639   4.296   2.184
12769TIP3    H238265   6.784   4.257   2.204
12770TIP3   OH238266   8.249   5.957   3.779
12770TIP3    H138267   8.191   5.888   3.813
12770TIP3    H238268   8.300   5.985   3.855
12771TIP3   OH238269   6.504   6.428   4.413
12771TIP3    H138270   6.490   6.392   4.501
12771TIP3    H238271   6.600   6.433   4.404
12772TIP3   OH238272   1.935   5.293   0.301
12772TIP3    H138273   1.880   5.221   0.271
12772TIP3    H238274   1.872   5.363   0.322
12773TIP3   OH238275   1.105   4.143   6.761
12773TIP3    H138276   1.158   4.211   6.718
12773TIP3    H238277   1.019   4.184   6.772
12774TIP3   OH238278   4.804   1.414   4.640
12774TIP3    H138279   4.833   1.381   4.726
12774TIP3    H238280   4.753   1.341   4.603
12775TIP3   OH238281   5.346   5.722   4.835
12775TIP3    H138282   5.394   5.770   4.902
12775TIP3    H238283   5.405   5.652   4.808
12776TIP3   OH238284   0.030   7.341   5.736
12776TIP3    H138285   0.062   7.252   5.722
12776TIP3    H238286   0.110   7.394   5.745
12777TIP3   OH238287   3.309   7.194   5.318
12777TIP3    H138288   3.316   7.271   5.261
12777TIP3    H238289   3.349   7.222   5.400
12778TIP3   OH238290   4.258   3.259   3.640
12778TIP3    H138291   4.224   3.320   3.706
12778TIP3    H238292   4.238   3.172   3.675
12779TIP3   OH238293   1.477   6.793   4.403
12779TIP3    H138294   1.444   6.711   4.439
12779TIP3    H238295   1.570   6.779   4.391
12780TIP3   OH238296   1.842   6.524   2.601
12780TIP3    H138297   1.750   6.550   2.597
12780TIP3    H238298   1.842   6.432   2.575
12781TIP3   OH238299   3.349   3.576   2.790
12781TIP3    H138300   3.433   3.618   2.808
12781TIP3    H238301   3.314   3.554   2.877
12782TIP3   OH238302   7.075   3.778   1.894
12782TIP3    H138303   7.088   3.836   1.969
12782TIP3    H238304   7.092   3.833   1.817
12783TIP3   OH238305   4.880   6.388   2.230
12783TIP3    H138306   4.934   6.411   2.154
12783TIP3    H238307   4.790   6.396   2.198
12784TIP3   OH238308   2.968   3.246   4.442
12784TIP3    H138309   2.912   3.309   4.486
12784TIP3    H238310   3.028   3.215   4.510
12785TIP3   OH238311   0.542   0.579   0.457
12785TIP3    H138312   0.526   0.673   0.460
12785TIP3    H238313   0.632   0.571   0.426
12786TIP3   OH238314   1.298   0.921   1.549
12786TIP3    H138315   1.374   0.977   1.534
12786TIP3    H238316   1.321   0.837   1.509
12787TIP3   OH238317   0.371   3.035   3.149
12787TIP3    H138318   0.340   3.058   3.237
12787TIP3    H238319   0.305   2.973   3.117
12788TIP3   OH238320   6.165   3.420   4.322
12788TIP3    H138321   6.143   3.337   4.280
12788TIP3    H238322   6.096   3.480   4.292
12789TIP3   OH238323   7.933   6.116   1.871
12789TIP3    H138324   7.860   6.105   1.932
12789TIP3    H238325   7.895   6.164   1.797
12790TIP3   OH238326   4.606   5.405   6.556
12790TIP3    H138327   4.543   5.411   6.484
12790TIP3    H238328   4.685   5.448   6.524
12791TIP3   OH238329   4.589   0.309   1.885
12791TIP3    H138330   4.598   0.215   1.867
12791TIP3    H238331   4.528   0.313   1.959
12792TIP3   OH238332   6.826   5.562   1.840
12792TIP3    H138333   6.844   5.530   1.929
12792TIP3    H238334   6.866   5.649   1.837
12793TIP3   OH238335   6.190   0.746   4.719
12793TIP3    H138336   6.237   0.822   4.685
12793TIP3    H238337   6.258   0.688   4.752
12794TIP3   OH238338   6.845   6.062   1.145
12794TIP3    H138339   6.870   6.012   1.224
12794TIP3    H238340   6.925   6.064   1.092
12795TIP3   OH238341   5.940   0.906   3.575
12795TIP3    H138342   5.999   0.850   3.626
12795TIP3    H238343   5.941   0.867   3.488
12796TIP3   OH238344   7.691   3.608   0.587
12796TIP3    H138345   7.735   3.653   0.659
12796TIP3    H238346   7.673   3.520   0.622
12797TIP3   OH238347   4.192   4.644   0.728
12797TIP3    H138348   4.196   4.678   0.639
12797TIP3    H238349   4.284   4.640   0.756
12798TIP3   OH238350   4.114   1.113   3.602
12798TIP3    H138351   4.148   1.087   3.688
12798TIP3    H238352   4.076   1.200   3.617
12799TIP3   OH238353   0.971   3.607   1.773
12799TIP3    H138354   1.032   3.657   1.827
12799TIP3    H238355   0.951   3.529   1.825
12800TIP3   OH238356   6.607   4.206   1.353
12800TIP3    H138357   6.615   4.301   1.355
12800TIP3    H238358   6.697   4.174   1.367
12801TIP3   OH238359   5.850   7.536   6.483
12801TIP3    H138360   5.895   7.618   6.462
12801TIP3    H238361   5.880   7.513   6.571
12802TIP3   OH238362   5.500   1.409   1.707
12802TIP3    H138363   5.523   1.494   1.671
12802TIP3    H238364   5.536   1.409   1.796
12803TIP3   OH238365   4.098   6.430   1.776
12803TIP3    H138366   4.095   6.506   1.834
12803TIP3    H238367   4.166   6.374   1.813
12804TIP3   OH238368   2.053   5.851   4.574
12804TIP3    H138369   2.133   5.821   4.531
12804TIP3    H238370   2.037   5.938   4.537
12805TIP3   OH238371   4.778   2.823   3.492
12805TIP3    H138372   4.687   2.799   3.509
12805TIP3    H238373   4.773   2.890   3.424
12806TIP3   OH238374   4.357   4.989   6.067
12806TIP3    H138375   4.349   5.074   6.111
12806TIP3    H238376   4.277   4.942   6.090
12807TIP3   OH238377   7.795   7.536   4.786
12807TIP3    H138378   7.850   7.575   4.717
12807TIP3    H238379   7.707   7.565   4.765
12808TIP3   OH238380   6.575   2.291   4.298
12808TIP3    H138381   6.569   2.203   4.336
12808TIP3    H238382   6.662   2.293   4.258
12809TIP3   OH238383   3.693   4.003   2.685
12809TIP3    H138384   3.672   4.092   2.712
12809TIP3    H238385   3.699   4.008   2.589
12810TIP3   OH238386   0.400   0.284   4.654
12810TIP3    H138387   0.406   0.373   4.688
12810TIP3    H238388   0.425   0.228   4.727
12811TIP3   OH238389   6.630   5.723   6.169
12811TIP3    H138390   6.584   5.662   6.226
12811TIP3    H238391   6.638   5.804   6.220
12812TIP3   OH238392   1.763   0.257   3.511
12812TIP3    H138393   1.857   0.250   3.493
12812TIP3    H238394   1.743   0.350   3.500
12813TIP3   OH238395   6.279   1.452   5.175
12813TIP3    H138396   6.249   1.534   5.215
12813TIP3    H238397   6.374   1.465   5.164
12814TIP3   OH238398   7.941   4.986   2.296
12814TIP3    H138399   7.980   4.899   2.293
12814TIP3    H238400   7.865   4.976   2.353
12815TIP3   OH238401   7.615   2.909   4.636
12815TIP3    H138402   7.687   2.868   4.587
12815TIP3    H238403   7.654   2.932   4.720
12816TIP3   OH238404   3.843   7.386   5.519
12816TIP3    H138405   3.935   7.413   5.517
12816TIP3    H238406   3.844   7.297   5.483
12817TIP3   OH238407   1.300   0.448   2.936
12817TIP3    H138408   1.315   0.539   2.910
12817TIP3    H238409   1.306   0.399   2.854
12818TIP3   OH238410   1.741   1.227   6.006
12818TIP3    H138411   1.802   1.280   5.955
12818TIP3    H238412   1.706   1.163   5.943
12819TIP3   OH238413   6.526   7.324   0.961
12819TIP3    H138414   6.472   7.342   1.038
12819TIP3    H238415   6.613   7.304   0.997
12820TIP3   OH238416   3.943   0.601   1.387
12820TIP3    H138417   3.960   0.512   1.419
12820TIP3    H238418   3.972   0.657   1.459
12821TIP3   OH238419   1.390   5.728   4.086
12821TIP3    H138420   1.444   5.760   4.013
12821TIP3    H238421   1.372   5.806   4.138
12822TIP3   OH238422   4.557   2.751   6.546
12822TIP3    H138423   4.575   2.698   6.624
12822TIP3    H238424   4.572   2.841   6.575
12823TIP3   OH238425   2.431   3.361   2.945
12823TIP3    H138426   2.497   3.404   3.000
12823TIP3    H238427   2.468   3.366   2.856
12824TIP3   OH238428   5.603   2.844   6.267
12824TIP3    H138429   5.568   2.771   6.317
12824TIP3    H238430   5.620   2.808   6.180
12825TIP3   OH238431   4.779   4.454   4.229
12825TIP3    H138432   4.826   4.445   4.146
12825TIP3    H238433   4.773   4.364   4.262
12826TIP3   OH238434   0.294   2.040   3.820
12826TIP3    H138435   0.209   2.020   3.858
12826TIP3    H238436   0.275   2.091   3.742
12827TIP3   OH238437   6.632   4.793   1.604
12827TIP3    H138438   6.575   4.865   1.576
12827TIP3    H238439   6.720   4.825   1.588
12828TIP3   OH238440   3.157   1.481   1.495
12828TIP3    H138441   3.226   1.455   1.434
12828TIP3    H238442   3.112   1.399   1.517
12829TIP3   OH238443   5.460   2.317   2.065
12829TIP3    H138444   5.472   2.366   1.984
12829TIP3    H238445   5.417   2.236   2.038
12830TIP3   OH238446   3.674   5.281   0.394
12830TIP3    H138447   3.747   5.221   0.387
12830TIP3    H238448   3.603   5.230   0.434
12831TIP3   OH238449   0.537   3.754   5.539
12831TIP3    H138450   0.479   3.728   5.611
12831TIP3    H238451   0.553   3.847   5.554
12832TIP3   OH238452   0.300   4.498   4.993
12832TIP3    H138453   0.338   4.541   4.916
12832TIP3    H238454   0.375   4.479   5.049
12833TIP3   OH238455   3.659   2.731   0.937
12833TIP3    H138456   3.689   2.761   0.851
12833TIP3    H238457   3.567   2.759   0.941
12834TIP3   OH238458   6.331   7.291   5.508
12834TIP3    H138459   6.412   7.329   5.475
12834TIP3    H238460   6.333   7.200   5.480
12835TIP3   OH238461   2.170   3.318   5.466
12835TIP3    H138462   2.223   3.398   5.456
12835TIP3    H238463   2.080   3.350   5.469
12836TIP3   OH238464   3.542   1.143   3.823
12836TIP3    H138465   3.483   1.095   3.881
12836TIP3    H238466   3.617   1.085   3.812
12837TIP3   OH238467   0.004   3.753   1.166
12837TIP3    H138468  -0.002   3.706   1.083
12837TIP3    H238469   0.069   3.822   1.149
12838TIP3   OH238470   4.022   3.893   0.833
12838TIP3    H138471   3.957   3.891   0.904
12838TIP3    H238472   4.081   3.821   0.853
12839TIP3   OH238473   4.013   2.988   4.166
12839TIP3    H138474   4.051   3.067   4.127
12839TIP3    H238475   4.078   2.961   4.231
12840TIP3   OH238476   3.670   7.007   3.988
12840TIP3    H138477   3.601   6.946   3.961
12840TIP3    H238478   3.668   7.076   3.922
12841TIP3   OH238479   4.766   7.310   6.295
12841TIP3    H138480   4.858   7.317   6.269
12841TIP3    H238481   4.756   7.218   6.321
12842TIP3   OH238482   2.890   0.510   1.229
12842TIP3    H138483   2.801   0.475   1.222
12842TIP3    H238484   2.947   0.437   1.203
12843TIP3   OH238485   0.775   6.880   0.733
12843TIP3    H138486   0.815   6.839   0.656
12843TIP3    H238487   0.703   6.932   0.698
12844TIP3   OH238488   7.049   5.287   2.596
12844TIP3    H138489   7.116   5.355   2.606
12844TIP3    H238490   7.002   5.312   2.516
12845TIP3   OH238491   7.311   0.167   1.705
12845TIP3    H138492   7.401   0.153   1.734
12845TIP3    H238493   7.272   0.224   1.771
12846TIP3   OH238494   4.568   7.425   6.451
12846TIP3    H138495   4.516   7.462   6.380
12846TIP3    H238496   4.651   7.401   6.410
12847TIP3   OH238497   7.781   2.620   3.673
12847TIP3    H138498   7.712   2.620   3.607
12847TIP3    H238499   7.861   2.635   3.624
12848TIP3   OH238500   2.143   2.447   4.930
12848TIP3    H138501   2.140   2.375   4.867
12848TIP3    H238502   2.235   2.451   4.957
12849TIP3   OH238503   2.956   6.002   1.474
12849TIP3    H138504   3.049   6.022   1.469
12849TIP3    H238505   2.929   6.034   1.561
12850TIP3   OH238506   3.772   7.380   4.207
12850TIP3    H138507   3.707   7.324   4.165
12850TIP3    H238508   3.851   7.327   4.213
12851TIP3   OH238509   4.842   7.662   5.409
12851TIP3    H138510   4.786   7.597   5.368
12851TIP3    H238511   4.929   7.645   5.373
12852TIP3   OH238512   1.244   6.733   2.167
12852TIP3    H138513   1.194   6.807   2.132
12852TIP3    H238514   1.188   6.696   2.235
12853TIP3   OH238515   1.716   1.053   0.621
12853TIP3    H138516   1.807   1.040   0.645
12853TIP3    H238517   1.720   1.097   0.536
12854TIP3   OH238518   1.852   0.935   4.267
12854TIP3    H138519   1.775   0.921   4.212
12854TIP3    H238520   1.883   0.846   4.287
12855TIP3   OH238521   8.157   0.224   5.438
12855TIP3    H138522   8.105   0.213   5.517
12855TIP3    H238523   8.121   0.303   5.397
12856TIP3   OH238524   2.730   5.545   3.068
12856TIP3    H138525   2.789   5.600   3.120
12856TIP3    H238526   2.734   5.580   2.980
12857TIP3   OH238527   0.892   6.712   6.610
12857TIP3    H138528   0.971   6.677   6.569
12857TIP3    H238529   0.824   6.649   6.589
12858TIP3   OH238530   1.888   5.558   3.984
12858TIP3    H138531   1.971   5.583   3.944
12858TIP3    H238532   1.902   5.569   4.078
12859TIP3   OH238533   2.697   5.183   2.569
12859TIP3    H138534   2.716   5.275   2.557
12859TIP3    H238535   2.721   5.165   2.660
12860TIP3   OH238536   1.242   5.151   4.634
12860TIP3    H138537   1.211   5.198   4.557
12860TIP3    H238538   1.200   5.066   4.629
12861TIP3   OH238539   2.001   6.263   2.705
12861TIP3    H138540   2.045   6.183   2.732
12861TIP3    H238541   1.934   6.235   2.643
12862TIP3   OH238542   7.279   7.540   0.450
12862TIP3    H138543   7.364   7.519   0.488
12862TIP3    H238544   7.299   7.589   0.370
12863TIP3   OH238545   4.701   1.078   6.427
12863TIP3    H138546   4.651   1.038   6.355
12863TIP3    H238547   4.792   1.053   6.410
12864TIP3   OH238548   4.282   1.326   0.308
12864TIP3    H138549   4.376   1.324   0.327
12864TIP3    H238550   4.274   1.387   0.235
12865TIP3   OH238551   6.376   3.057   5.011
12865TIP3    H138552   6.379   2.984   5.073
12865TIP3    H238553   6.293   3.101   5.030
12866TIP3   OH238554   4.139   3.963   2.185
12866TIP3    H138555   4.048   3.991   2.175
12866TIP3    H238556   4.137   3.870   2.160
12867TIP3   OH238557   2.083   2.207   2.200
12867TIP3    H138558   2.154   2.270   2.215
12867TIP3    H238559   2.046   2.192   2.287
12868TIP3   OH238560   3.399   4.946   3.846
12868TIP3    H138561   3.493   4.925   3.853
12868TIP3    H238562   3.368   4.948   3.936
12869TIP3   OH238563   1.943   5.515   0.950
12869TIP3    H138564   1.896   5.524   1.033
12869TIP3    H238565   1.874   5.505   0.885
12870TIP3   OH238566   3.818   5.709   3.009
12870TIP3    H138567   3.856   5.634   3.055
12870TIP3    H238568   3.817   5.779   3.074
12871TIP3   OH238569   7.120   3.920   1.664
12871TIP3    H138570   7.210   3.943   1.638
12871TIP3    H238571   7.069   3.997   1.641
12872TIP3   OH238572   5.305   2.999   1.845
12872TIP3    H138573   5.233   2.945   1.877
12872TIP3    H238574   5.265   3.056   1.780
12873TIP3   OH238575   2.911   3.932   5.237
12873TIP3    H138576   2.993   3.924   5.189
12873TIP3    H238577   2.929   3.998   5.305
12874TIP3   OH238578   6.577   4.210   4.495
12874TIP3    H138579   6.594   4.284   4.553
12874TIP3    H238580   6.651   4.208   4.435
12875TIP3   OH238581   3.138   0.293   5.814
12875TIP3    H138582   3.159   0.210   5.770
12875TIP3    H238583   3.170   0.281   5.903
12876TIP3   OH238584   3.887   3.311   5.645
12876TIP3    H138585   3.884   3.221   5.611
12876TIP3    H238586   3.961   3.311   5.707
12877TIP3   OH238587   2.930   6.500   2.047
12877TIP3    H138588   2.908   6.433   2.113
12877TIP3    H238589   3.024   6.514   2.058
12878TIP3   OH238590   0.198   0.869   5.034
12878TIP3    H138591   0.196   0.963   5.052
12878TIP3    H238592   0.184   0.828   5.119
12879TIP3   OH238593   2.594   1.964   1.927
12879TIP3    H138594   2.583   1.932   2.016
12879TIP3    H238595   2.508   1.997   1.902
12880TIP3   OH238596   7.591   0.726   5.270
12880TIP3    H138597   7.563   0.816   5.255
12880TIP3    H238598   7.525   0.689   5.329
12881TIP3   OH238599   0.641   7.390   1.725
12881TIP3    H138600   0.612   7.300   1.716
12881TIP3    H238601   0.636   7.426   1.636
12882TIP3   OH238602   6.075   4.622   3.142
12882TIP3    H138603   6.166   4.650   3.132
12882TIP3    H238604   6.031   4.696   3.184
12883TIP3   OH238605   6.137   6.816   1.400
12883TIP3    H138606   6.210   6.757   1.378
12883TIP3    H238607   6.167   6.902   1.371
12884TIP3   OH238608   7.515   6.291   5.080
12884TIP3    H138609   7.549   6.234   5.149
12884TIP3    H238610   7.562   6.264   5.001
12885TIP3   OH238611   5.181   2.913   5.861
12885TIP3    H138612   5.100   2.898   5.812
12885TIP3    H238613   5.187   2.839   5.921
12886TIP3   OH238614   0.279   5.793   1.100
12886TIP3    H138615   0.218   5.730   1.137
12886TIP3    H238616   0.312   5.842   1.176
12887TIP3   OH238617   0.320   1.298   6.270
12887TIP3    H138618   0.347   1.377   6.224
12887TIP3    H238619   0.365   1.227   6.224
12888TIP3   OH238620   5.525   0.575   2.974
12888TIP3    H138621   5.601   0.602   3.025
12888TIP3    H238622   5.522   0.637   2.901
12889TIP3   OH238623   8.280   3.273   4.112
12889TIP3    H138624   8.359   3.319   4.085
12889TIP3    H238625   8.289   3.185   4.073
12890TIP3   OH238626   2.693   7.288   3.085
12890TIP3    H138627   2.602   7.268   3.109
12890TIP3    H238628   2.705   7.244   3.001
12891TIP3   OH238629   3.779   3.034   5.864
12891TIP3    H138630   3.753   3.074   5.781
12891TIP3    H238631   3.713   2.966   5.879
12892TIP3   OH238632   3.548   0.264   4.228
12892TIP3    H138633   3.568   0.333   4.293
12892TIP3    H238634   3.470   0.220   4.262
12893TIP3   OH238635   0.276   4.406   5.595
12893TIP3    H138636   0.185   4.428   5.616
12893TIP3    H238637   0.303   4.472   5.531
12894TIP3   OH238638   3.947   1.694   3.643
12894TIP3    H138639   3.903   1.654   3.718
12894TIP3    H238640   3.967   1.621   3.585
12895TIP3   OH238641   3.153   1.860   3.843
12895TIP3    H138642   3.090   1.815   3.900
12895TIP3    H238643   3.170   1.799   3.772
12896TIP3   OH238644   7.084   4.886   4.887
12896TIP3    H138645   7.079   4.830   4.810
12896TIP3    H238646   7.072   4.975   4.854
12897TIP3   OH238647   6.632   0.553   0.392
12897TIP3    H138648   6.605   0.595   0.309
12897TIP3    H238649   6.557   0.499   0.416
12898TIP3   OH238650   1.366   0.085   4.604
12898TIP3    H138651   1.332  -0.004   4.594
12898TIP3    H238652   1.294   0.141   4.575
12899TIP3   OH238653   1.247   3.491   0.142
12899TIP3    H138654   1.239   3.500   0.047
12899TIP3    H238655   1.340   3.505   0.160
12900TIP3   OH238656   0.671   7.781   1.037
12900TIP3    H138657   0.632   7.834   0.967
12900TIP3    H238658   0.606   7.713   1.054
12901TIP3   OH238659   6.495   3.064   4.735
12901TIP3    H138660   6.485   3.045   4.829
12901TIP3    H238661   6.563   3.004   4.705
12902TIP3   OH238662   1.876   5.674   5.699
12902TIP3    H138663   1.799   5.701   5.649
12902TIP3    H238664   1.900   5.589   5.662
12903TIP3   OH238665   8.098   4.408   3.667
12903TIP3    H138666   8.027   4.348   3.689
12903TIP3    H238667   8.115   4.392   3.574
12904TIP3   OH238668   4.497   2.837   5.087
12904TIP3    H138669   4.538   2.769   5.141
12904TIP3    H238670   4.564   2.863   5.025
12905TIP3   OH238671   6.351   3.549   2.923
12905TIP3    H138672   6.314   3.637   2.931
12905TIP3    H238673   6.444   3.563   2.905
12906TIP3   OH238674   2.611   5.656   6.599
12906TIP3    H138675   2.546   5.601   6.557
12906TIP3    H238676   2.562   5.701   6.669
12907TIP3   OH238677   0.224   6.579   4.787
12907TIP3    H138678   0.210   6.517   4.859
12907TIP3    H238679   0.222   6.524   4.708
12908TIP3   OH238680   7.922   4.553   2.793
12908TIP3    H138681   7.952   4.497   2.864
12908TIP3    H238682   7.942   4.642   2.822
12909TIP3   OH238683   7.631   4.569   2.239
12909TIP3    H138684   7.595   4.628   2.305
12909TIP3    H238685   7.554   4.530   2.198
12910TIP3   OH238686   0.037   6.899   3.069
12910TIP3    H138687   0.039   6.980   3.120
12910TIP3    H238688  -0.056   6.879   3.059
12911TIP3   OH238689   6.257   4.453   3.290
12911TIP3    H138690   6.278   4.384   3.227
12911TIP3    H238691   6.183   4.499   3.251
12912TIP3   OH238692   5.954   4.777   1.318
12912TIP3    H138693   6.007   4.755   1.242
12912TIP3    H238694   5.967   4.704   1.378
12913TIP3   OH238695   3.338   0.536   6.027
12913TIP3    H138696   3.400   0.601   5.994
12913TIP3    H238697   3.255   0.560   5.986
12914TIP3   OH238698   3.479   6.217   4.879
12914TIP3    H138699   3.393   6.249   4.852
12914TIP3    H238700   3.532   6.296   4.890
12915TIP3   OH238701   6.014   3.778   2.872
12915TIP3    H138702   5.978   3.721   2.803
12915TIP3    H238703   6.081   3.829   2.827
12916TIP3   OH238704   2.473   1.835   6.040
12916TIP3    H138705   2.462   1.930   6.031
12916TIP3    H238706   2.543   1.814   5.978
12917TIP3   OH238707   6.083   4.990   3.026
12917TIP3    H138708   6.043   5.077   3.030
12917TIP3    H238709   6.077   4.965   2.934
12918TIP3   OH238710   5.342   1.808   4.490
12918TIP3    H138711   5.371   1.896   4.513
12918TIP3    H238712   5.373   1.753   4.562
12919TIP3   OH238713   0.621   7.657   6.046
12919TIP3    H138714   0.659   7.573   6.020
12919TIP3    H238715   0.628   7.658   6.142
12920TIP3   OH238716   2.366   2.986   6.647
12920TIP3    H138717   2.295   3.043   6.678
12920TIP3    H238718   2.440   3.007   6.704
12921TIP3   OH238719   3.552   0.475   5.214
12921TIP3    H138720   3.510   0.439   5.136
12921TIP3    H238721   3.482   0.518   5.262
12922TIP3   OH238722   4.007   5.809   2.427
12922TIP3    H138723   4.001   5.812   2.331
12922TIP3    H238724   3.922   5.839   2.457
12923TIP3   OH238725   2.343   7.819   1.974
12923TIP3    H138726   2.283   7.888   1.945
12923TIP3    H238727   2.415   7.867   2.015
12924TIP3   OH238728   6.300   1.297   6.052
12924TIP3    H138729   6.225   1.260   6.007
12924TIP3    H238730   6.272   1.385   6.077
12925TIP3   OH238731   0.377   0.661   0.004
12925TIP3    H138732   0.438   0.608   0.054
12925TIP3    H238733   0.414   0.749   0.005
12926TIP3   OH238734   2.966   1.343   4.698
12926TIP3    H138735   3.022   1.363   4.773
12926TIP3    H238736   2.991   1.409   4.632
12927TIP3   OH238737   7.946   2.270   2.606
12927TIP3    H138738   7.995   2.283   2.687
12927TIP3    H238739   7.952   2.355   2.561
12928TIP3   OH238740   4.223   3.200   5.453
12928TIP3    H138741   4.259   3.121   5.412
12928TIP3    H238742   4.182   3.167   5.533
12929TIP3   OH238743   4.376   3.611   3.438
12929TIP3    H138744   4.433   3.669   3.488
12929TIP3    H238745   4.430   3.534   3.419
12930TIP3   OH238746   6.974   7.016   4.232
12930TIP3    H138747   6.926   7.028   4.315
12930TIP3    H238748   7.019   7.100   4.219
12931TIP3   OH238749   6.951   5.530   0.618
12931TIP3    H138750   6.903   5.511   0.699
12931TIP3    H238751   7.025   5.584   0.646
12932TIP3   OH238752   6.475   3.551   4.620
12932TIP3    H138753   6.379   3.553   4.616
12932TIP3    H238754   6.503   3.605   4.546
12933TIP3   OH238755   5.010   0.080   2.539
12933TIP3    H138756   5.064   0.003   2.555
12933TIP3    H238757   4.945   0.079   2.609
12934TIP3   OH238758   0.101   4.351   0.097
12934TIP3    H138759   0.102   4.391   0.185
12934TIP3    H238760   0.194   4.341   0.075
12935TIP3   OH238761   1.910   0.894   0.411
12935TIP3    H138762   1.946   0.808   0.430
12935TIP3    H238763   1.980   0.955   0.433
12936TIP3   OH238764   1.606   7.727   4.564
12936TIP3    H138765   1.555   7.649   4.586
12936TIP3    H238766   1.593   7.786   4.637
12937TIP3   OH238767   3.016   2.684   1.860
12937TIP3    H138768   2.941   2.665   1.917
12937TIP3    H238769   3.088   2.702   1.920
12938TIP3   OH238770   1.109   4.582   3.616
12938TIP3    H138771   1.176   4.612   3.554
12938TIP3    H238772   1.070   4.663   3.649
12939TIP3   OH238773   7.554   3.413   1.157
12939TIP3    H138774   7.472   3.393   1.203
12939TIP3    H238775   7.621   3.365   1.206
12940TIP3   OH238776   8.189   0.574   4.808
12940TIP3    H138777   8.216   0.666   4.800
12940TIP3    H238778   8.116   0.577   4.871
12941TIP3   OH238779   4.445   4.459   5.012
12941TIP3    H138780   4.350   4.446   5.007
12941TIP3    H238781   4.479   4.409   4.937
12942TIP3   OH238782   7.249   5.208   1.008
12942TIP3    H138783   7.295   5.270   1.065
12942TIP3    H238784   7.286   5.123   1.030
12943TIP3   OH238785   7.755   3.546   4.754
12943TIP3    H138786   7.710   3.557   4.670
12943TIP3    H238787   7.800   3.630   4.768
12944TIP3   OH238788   4.974   0.245   6.088
12944TIP3    H138789   4.887   0.278   6.068
12944TIP3    H238790   4.992   0.276   6.177
12945TIP3   OH238791   6.416   1.507   0.891
12945TIP3    H138792   6.431   1.600   0.875
12945TIP3    H238793   6.327   1.502   0.925
12946TIP3   OH238794   2.046   3.669   3.687
12946TIP3    H138795   1.956   3.648   3.708
12946TIP3    H238796   2.066   3.616   3.610
12947TIP3   OH238797   0.469   5.723   2.951
12947TIP3    H138798   0.503   5.757   2.868
12947TIP3    H238799   0.412   5.792   2.984
12948TIP3   OH238800   0.980   3.885   3.907
12948TIP3    H138801   0.934   3.842   3.835
12948TIP3    H238802   0.932   3.966   3.921
12949TIP3   OH238803   0.561   5.461   0.593
12949TIP3    H138804   0.520   5.375   0.609
12949TIP3    H238805   0.585   5.492   0.680
12950TIP3   OH238806   1.242   0.238   3.504
12950TIP3    H138807   1.253   0.245   3.409
12950TIP3    H238808   1.214   0.326   3.532
12951TIP3   OH238809   1.859   3.259   5.745
12951TIP3    H138810   1.856   3.297   5.833
12951TIP3    H238811   1.787   3.302   5.698
12952TIP3   OH238812   4.706   2.359   3.213
12952TIP3    H138813   4.714   2.264   3.199
12952TIP3    H238814   4.736   2.372   3.303
12953TIP3   OH238815   5.256   5.621   5.621
12953TIP3    H138816   5.231   5.538   5.661
12953TIP3    H238817   5.186   5.640   5.559
12954TIP3   OH238818   1.017   7.326   0.999
12954TIP3    H138819   1.025   7.258   0.931
12954TIP3    H238820   1.099   7.374   0.994
12955TIP3   OH238821   5.348   3.853   2.037
12955TIP3    H138822   5.355   3.795   1.962
12955TIP3    H238823   5.433   3.845   2.082
12956TIP3   OH238824   2.073   1.185   3.629
12956TIP3    H138825   2.102   1.145   3.711
12956TIP3    H238826   2.146   1.171   3.569
12957TIP3   OH238827   2.416   2.377   4.927
12957TIP3    H138828   2.473   2.323   4.981
12957TIP3    H238829   2.445   2.361   4.837
12958TIP3   OH238830   1.592   0.068   0.946
12958TIP3    H138831   1.604   0.002   1.014
12958TIP3    H238832   1.678   0.075   0.905
12959TIP3   OH238833   6.412   3.297   5.839
12959TIP3    H138834   6.428   3.273   5.748
12959TIP3    H238835   6.401   3.392   5.837
12960TIP3   OH238836   4.795   4.643   4.482
12960TIP3    H138837   4.851   4.600   4.547
12960TIP3    H238838   4.754   4.715   4.530
12961TIP3   OH238839   1.260   3.801   3.852
12961TIP3    H138840   1.170   3.828   3.870
12961TIP3    H238841   1.256   3.705   3.847
12962TIP3   OH238842   7.224   4.085   5.252
12962TIP3    H138843   7.269   4.068   5.334
12962TIP3    H238844   7.174   4.005   5.234
12963TIP3   OH238845   3.948   0.086   1.503
12963TIP3    H138846   3.886   0.020   1.473
12963TIP3    H238847   4.000   0.041   1.570
12964TIP3   OH238848   1.482   4.824   0.233
12964TIP3    H138849   1.437   4.796   0.313
12964TIP3    H238850   1.424   4.796   0.162
12965TIP3   OH238851   4.780   1.976   6.397
12965TIP3    H138852   4.687   1.965   6.374
12965TIP3    H238853   4.821   2.006   6.316
12966TIP3   OH238854   3.315   4.598   3.571
12966TIP3    H138855   3.370   4.520   3.578
12966TIP3    H238856   3.360   4.654   3.508
12967TIP3   OH238857   3.943   4.602   5.247
12967TIP3    H138858   3.990   4.663   5.304
12967TIP3    H238859   3.852   4.607   5.276
12968TIP3   OH238860   2.786   3.781   6.182
12968TIP3    H138861   2.869   3.828   6.193
12968TIP3    H238862   2.726   3.847   6.146
12969TIP3   OH238863   0.964   1.897   5.241
12969TIP3    H138864   0.919   1.871   5.160
12969TIP3    H238865   0.905   1.869   5.311
12970TIP3   OH238866   5.305   7.191   0.393
12970TIP3    H138867   5.240   7.240   0.342
12970TIP3    H238868   5.337   7.255   0.457
12971TIP3   OH238869   7.728   4.700   3.526
12971TIP3    H138870   7.763   4.683   3.438
12971TIP3    H238871   7.644   4.742   3.510
12972TIP3   OH238872   4.562   2.674   0.801
12972TIP3    H138873   4.620   2.601   0.823
12972TIP3    H238874   4.614   2.730   0.744
12973TIP3   OH238875   4.097   3.031   0.023
12973TIP3    H138876   4.139   3.113   0.048
12973TIP3    H238877   4.097   2.979   0.103
12974TIP3   OH238878   8.117   1.103   5.569
12974TIP3    H138879   8.068   1.185   5.562
12974TIP3    H238880   8.155   1.105   5.656
12975TIP3   OH238881   5.532   5.888   2.146
12975TIP3    H138882   5.552   5.981   2.134
12975TIP3    H238883   5.613   5.843   2.123
12976TIP3   OH238884   8.287   2.819   6.241
12976TIP3    H138885   8.290   2.887   6.309
12976TIP3    H238886   8.363   2.763   6.260
12977TIP3   OH238887   8.002   3.110   4.143
12977TIP3    H138888   8.046   3.063   4.072
12977TIP3    H238889   7.969   3.189   4.102
12978TIP3   OH238890   1.425   5.389   5.867
12978TIP3    H138891   1.373   5.336   5.807
12978TIP3    H238892   1.494   5.428   5.813
12979TIP3   OH238893   7.405   4.614   5.449
12979TIP3    H138894   7.401   4.709   5.438
12979TIP3    H238895   7.473   4.601   5.515
12980TIP3   OH238896   5.827   0.492   0.799
12980TIP3    H138897   5.893   0.556   0.769
12980TIP3    H238898   5.798   0.449   0.719
12981TIP3   OH238899   5.145   2.494   0.497
12981TIP3    H138900   5.131   2.401   0.519
12981TIP3    H238901   5.058   2.525   0.471
12982TIP3   OH238902   6.370   2.942   3.736
12982TIP3    H138903   6.373   3.000   3.660
12982TIP3    H238904   6.278   2.919   3.744
12983TIP3   OH238905   8.035   7.149   0.985
12983TIP3    H138906   8.006   7.186   1.069
12983TIP3    H238907   8.014   7.056   0.991
12984TIP3   OH238908   5.585   3.841   4.264
12984TIP3    H138909   5.647   3.826   4.335
12984TIP3    H238910   5.583   3.758   4.216
12985TIP3   OH238911   7.425   4.043   2.626
12985TIP3    H138912   7.420   4.075   2.716
12985TIP3    H238913   7.449   4.120   2.575
12986TIP3   OH238914   3.748   6.114   1.686
12986TIP3    H138915   3.728   6.048   1.619
12986TIP3    H238916   3.818   6.166   1.648
12987TIP3   OH238917   3.542   7.385   2.098
12987TIP3    H138918   3.575   7.434   2.022
12987TIP3    H238919   3.538   7.450   2.168
12988TIP3   OH238920   4.651   3.131   0.211
12988TIP3    H138921   4.726   3.100   0.159
12988TIP3    H238922   4.607   3.194   0.154
12989TIP3   OH238923   1.130   7.129   4.752
12989TIP3    H138924   1.067   7.184   4.798
12989TIP3    H238925   1.209   7.133   4.806
12990TIP3   OH238926   0.808   0.608   2.021
12990TIP3    H138927   0.860   0.605   1.941
12990TIP3    H238928   0.801   0.517   2.049
12991TIP3   OH238929   2.940   2.772   2.718
12991TIP3    H138930   2.851   2.740   2.734
12991TIP3    H238931   2.995   2.720   2.777
12992TIP3   OH238932   4.889   7.190   3.914
12992TIP3    H138933   4.894   7.239   3.997
12992TIP3    H238934   4.795   7.178   3.900
12993TIP3   OH238935   4.914   6.177   1.497
12993TIP3    H138936   4.953   6.207   1.415
12993TIP3    H238937   4.844   6.118   1.470
12994TIP3   OH238938   3.443   6.648   4.483
12994TIP3    H138939   3.427   6.664   4.576
12994TIP3    H238940   3.392   6.716   4.438
12995TIP3   OH238941   2.448   3.120   4.445
12995TIP3    H138942   2.534   3.099   4.481
12995TIP3    H238943   2.455   3.212   4.419
12996TIP3   OH238944   7.874   0.161   3.643
12996TIP3    H138945   7.900   0.242   3.599
12996TIP3    H238946   7.955   0.125   3.678
12997TIP3   OH238947   8.030   2.419   1.834
12997TIP3    H138948   8.072   2.438   1.918
12997TIP3    H238949   7.938   2.405   1.856
12998TIP3   OH238950   7.723   3.882   6.329
12998TIP3    H138951   7.749   3.847   6.414
12998TIP3    H238952   7.787   3.950   6.309
12999TIP3   OH238953   2.172   6.464   2.613
12999TIP3    H138954   2.132   6.394   2.665
12999TIP3    H238955   2.192   6.423   2.529
13000TIP3   OH238956   6.141   1.180   2.183
13000TIP3    H138957   6.161   1.139   2.267
13000TIP3    H238958   6.046   1.178   2.177
13001TIP3   OH238959   5.362   1.332   2.585
13001TIP3    H138960   5.317   1.334   2.501
13001TIP3    H238961   5.360   1.241   2.612
13002TIP3   OH238962   0.877   1.995   4.815
13002TIP3    H138963   0.857   1.945   4.895
13002TIP3    H238964   0.968   2.022   4.825
13003TIP3   OH238965   7.358   1.152   2.671
13003TIP3    H138966   7.298   1.224   2.691
13003TIP3    H238967   7.377   1.161   2.578
13004TIP3   OH238968   4.487   7.741   1.999
13004TIP3    H138969   4.400   7.774   2.020
13004TIP3    H238970   4.544   7.784   2.063
13005TIP3   OH238971   5.514   3.089   5.109
13005TIP3    H138972   5.497   3.157   5.044
13005TIP3    H238973   5.507   3.007   5.061
13006TIP3   OH238974   3.291   2.277   3.969
13006TIP3    H138975   3.214   2.260   4.023
13006TIP3    H238976   3.277   2.224   3.891
13007TIP3   OH238977   5.165   2.540   1.648
13007TIP3    H138978   5.150   2.634   1.647
13007TIP3    H238979   5.251   2.528   1.608
13008TIP3   OH238980   4.121   0.289   1.206
13008TIP3    H138981   4.193   0.292   1.143
13008TIP3    H238982   4.043   0.310   1.155
13009TIP3   OH238983   4.696   7.708   1.510
13009TIP3    H138984   4.760   7.775   1.488
13009TIP3    H238985   4.739   7.656   1.579
13010TIP3   OH238986   2.255   2.161   6.523
13010TIP3    H138987   2.313   2.086   6.512
13010TIP3    H238988   2.276   2.219   6.450
13011TIP3   OH238989   2.097   3.602   0.187
13011TIP3    H138990   2.138   3.666   0.128
13011TIP3    H238991   2.071   3.530   0.129
13012TIP3   OH238992   2.326   2.383   2.011
13012TIP3    H138993   2.421   2.390   2.024
13012TIP3    H238994   2.290   2.385   2.099
13013TIP3   OH238995   0.960   2.141   1.868
13013TIP3    H138996   1.016   2.156   1.945
13013TIP3    H238997   0.930   2.051   1.877
13014TIP3   OH238998   5.042   1.825   6.200
13014TIP3    H138999   5.008   1.741   6.230
13014TIP3    H239000   4.980   1.890   6.234
13015TIP3   OH239001   2.958   7.140   5.732
13015TIP3    H139002   2.923   7.215   5.683
13015TIP3    H239003   2.971   7.073   5.665
13016TIP3   OH239004   4.616   1.983   2.706
13016TIP3    H139005   4.569   2.057   2.743
13016TIP3    H239006   4.587   1.979   2.615
13017TIP3   OH239007   5.705   3.894   2.902
13017TIP3    H139008   5.762   3.969   2.919
13017TIP3    H239009   5.763   3.825   2.873
13018TIP3   OH239010   3.353   2.993   3.934
13018TIP3    H139011   3.413   2.936   3.886
13018TIP3    H239012   3.385   2.990   4.024
13019TIP3   OH239013   3.342   1.197   6.021
13019TIP3    H139014   3.271   1.146   6.059
13019TIP3    H239015   3.301   1.278   5.992
13020TIP3   OH239016   4.301   4.735   6.240
13020TIP3    H139017   4.311   4.655   6.292
13020TIP3    H239018   4.207   4.740   6.222
13021TIP3   OH239019   7.123   7.410   6.659
13021TIP3    H139020   7.034   7.427   6.628
13021TIP3    H239021   7.139   7.478   6.725
13022TIP3   OH239022   5.805   3.134   3.369
13022TIP3    H139023   5.880   3.122   3.427
13022TIP3    H239024   5.728   3.121   3.425
13023TIP3   OH239025   0.462   7.014   6.488
13023TIP3    H139026   0.456   7.108   6.471
13023TIP3    H239027   0.541   6.986   6.441
13024TIP3   OH239028   0.972   2.506   0.251
13024TIP3    H139029   0.938   2.539   0.334
13024TIP3    H239030   0.895   2.503   0.194
13025TIP3   OH239031   5.220   3.364   2.189
13025TIP3    H139032   5.251   3.326   2.271
13025TIP3    H239033   5.138   3.407   2.211
13026TIP3   OH239034   7.390   5.363   4.234
13026TIP3    H139035   7.393   5.310   4.154
13026TIP3    H239036   7.397   5.299   4.305
13027TIP3   OH239037   3.559   7.572   5.188
13027TIP3    H139038   3.485   7.514   5.168
13027TIP3    H239039   3.574   7.559   5.282
13028TIP3   OH239040   6.301   3.479   0.034
13028TIP3    H139041   6.289   3.409   0.098
13028TIP3    H239042   6.264   3.445  -0.047
13029TIP3   OH239043   2.242   4.113   3.876
13029TIP3    H139044   2.197   4.029   3.866
13029TIP3    H239045   2.171   4.177   3.891
13030TIP3   OH239046   5.378   0.959   0.926
13030TIP3    H139047   5.327   0.932   1.002
13030TIP3    H239048   5.442   1.020   0.961
13031TIP3   OH239049   3.505   6.260   3.786
13031TIP3    H139050   3.553   6.316   3.725
13031TIP3    H239051   3.559   6.182   3.794
13032TIP3   OH239052   0.090   5.012   2.858
13032TIP3    H139053   0.021   4.988   2.920
13032TIP3    H239054   0.155   4.943   2.866
13033TIP3   OH239055   1.904   0.995   6.286
13033TIP3    H139056   1.947   0.955   6.361
13033TIP3    H239057   1.919   1.089   6.297
13034TIP3   OH239058   4.685   2.285   6.189
13034TIP3    H139059   4.642   2.297   6.274
13034TIP3    H239060   4.615   2.293   6.125
13035TIP3   OH239061   6.265   3.181   2.236
13035TIP3    H139062   6.174   3.199   2.210
13035TIP3    H239063   6.258   3.148   2.326
13036TIP3   OH239064   4.364   2.593   0.292
13036TIP3    H139065   4.422   2.521   0.265
13036TIP3    H239066   4.419   2.648   0.348
13037TIP3   OH239067   6.163   6.290   0.980
13037TIP3    H139068   6.082   6.242   0.960
13037TIP3    H239069   6.233   6.234   0.948
13038TIP3   OH239070   4.512   0.980   1.317
13038TIP3    H139071   4.418   0.976   1.302
13038TIP3    H239072   4.535   0.893   1.349
13039TIP3   OH239073   6.771   2.226   2.772
13039TIP3    H139074   6.819   2.144   2.756
13039TIP3    H239075   6.695   2.220   2.714
13040TIP3   OH239076   7.562   3.165   0.185
13040TIP3    H139077   7.566   3.235   0.249
13040TIP3    H239078   7.472   3.134   0.189
13041TIP3   OH239079   2.610   6.330   2.259
13041TIP3    H139080   2.657   6.355   2.179
13041TIP3    H239081   2.555   6.406   2.279
13042TIP3   OH239082   7.531   7.553   4.741
13042TIP3    H139083   7.518   7.647   4.742
13042TIP3    H239084   7.466   7.520   4.678
13043TIP3   OH239085   2.309   2.673   3.619
13043TIP3    H139086   2.311   2.740   3.687
13043TIP3    H239087   2.401   2.656   3.599
13044TIP3   OH239088   7.172   6.932   6.670
13044TIP3    H139089   7.248   6.891   6.629
13044TIP3    H239090   7.104   6.865   6.668
13045TIP3   OH239091   1.281   0.651   2.752
13045TIP3    H139092   1.213   0.700   2.798
13045TIP3    H239093   1.235   0.578   2.711
13046TIP3   OH239094   1.557   1.469   6.034
13046TIP3    H139095   1.598   1.382   6.041
13046TIP3    H239096   1.607   1.513   5.965
13047TIP3   OH239097   5.774   0.506   5.547
13047TIP3    H139098   5.853   0.548   5.513
13047TIP3    H239099   5.759   0.433   5.487
13048TIP3   OH239100   1.760   1.059   4.508
13048TIP3    H139101   1.735   0.999   4.577
13048TIP3    H239102   1.841   1.023   4.473
13049TIP3   OH239103   3.853   4.373   5.113
13049TIP3    H139104   3.768   4.398   5.148
13049TIP3    H239105   3.917   4.411   5.173
13050TIP3   OH239106   8.208   5.996   1.774
13050TIP3    H139107   8.157   6.051   1.833
13050TIP3    H239108   8.156   5.917   1.762
13051TIP3   OH239109   8.258   6.695   4.563
13051TIP3    H139110   8.273   6.777   4.517
13051TIP3    H239111   8.281   6.714   4.654
13052TIP3   OH239112   7.269   1.270   4.720
13052TIP3    H139113   7.175   1.291   4.723
13052TIP3    H239114   7.286   1.251   4.628
13053TIP3   OH239115   6.790   7.717   1.616
13053TIP3    H139116   6.731   7.763   1.556
13053TIP3    H239117   6.832   7.650   1.561
13054TIP3   OH239118   2.198   1.496   6.188
13054TIP3    H139119   2.287   1.526   6.206
13054TIP3    H239120   2.154   1.500   6.273
13055TIP3   OH239121   1.500   4.931   2.533
13055TIP3    H139122   1.477   4.999   2.596
13055TIP3    H239123   1.444   4.948   2.457
13056TIP3   OH239124   3.817   2.099   0.904
13056TIP3    H139125   3.868   2.174   0.875
13056TIP3    H239126   3.783   2.061   0.823
13057TIP3   OH239127   0.964   7.012   2.887
13057TIP3    H139128   1.026   7.059   2.942
13057TIP3    H239129   1.017   6.954   2.833
13058TIP3   OH239130   1.583   4.209   5.477
13058TIP3    H139131   1.507   4.261   5.501
13058TIP3    H239132   1.566   4.123   5.516
13059TIP3   OH239133   4.676   3.435   4.528
13059TIP3    H139134   4.755   3.384   4.511
13059TIP3    H239135   4.657   3.477   4.444
13060TIP3   OH239136   6.090   1.951   6.231
13060TIP3    H139137   6.093   1.928   6.324
13060TIP3    H239138   6.156   1.896   6.191
13061TIP3   OH239139   8.225   3.335   0.227
13061TIP3    H139140   8.257   3.297   0.145
13061TIP3    H239141   8.176   3.413   0.201
13062TIP3   OH239142   2.856   2.491   0.309
13062TIP3    H139143   2.839   2.409   0.262
13062TIP3    H239144   2.950   2.504   0.303
13063TIP3   OH239145   4.908   7.562   4.239
13063TIP3    H139146   4.886   7.588   4.149
13063TIP3    H239147   4.854   7.620   4.294
13064TIP3   OH239148   1.554   0.978   1.198
13064TIP3    H139149   1.646   1.002   1.205
13064TIP3    H239150   1.556   0.887   1.165
13065TIP3   OH239151   3.211   2.368   6.326
13065TIP3    H139152   3.136   2.426   6.338
13065TIP3    H239153   3.208   2.346   6.233
13066TIP3   OH239154   1.525   5.495   5.613
13066TIP3    H139155   1.601   5.443   5.585
13066TIP3    H239156   1.540   5.582   5.574
13067TIP3   OH239157   4.257   1.432   2.525
13067TIP3    H139158   4.286   1.366   2.462
13067TIP3    H239159   4.162   1.435   2.514
13068TIP3   OH239160   2.090   7.593   4.752
13068TIP3    H139161   2.011   7.642   4.728
13068TIP3    H239162   2.070   7.559   4.840
13069TIP3   OH239163   0.823   4.826   2.615
13069TIP3    H139164   0.776   4.743   2.603
13069TIP3    H239165   0.755   4.889   2.638
13070TIP3   OH239166   3.845   1.914   2.553
13070TIP3    H139167   3.808   1.998   2.528
13070TIP3    H239168   3.930   1.910   2.508
13071TIP3   OH239169   5.791   2.174   2.796
13071TIP3    H139170   5.784   2.079   2.807
13071TIP3    H239171   5.874   2.197   2.836
13072TIP3   OH239172   0.173   2.957   2.066
13072TIP3    H139173   0.203   2.907   1.990
13072TIP3    H239174   0.150   3.043   2.031
13073TIP3   OH239175   5.887   7.151   3.993
13073TIP3    H139176   5.849   7.091   4.057
13073TIP3    H239177   5.813   7.179   3.939
13074TIP3   OH239178   0.449   3.360   4.616
13074TIP3    H139179   0.530   3.331   4.573
13074TIP3    H239180   0.380   3.308   4.575
13075TIP3   OH239181   8.247   0.723   0.446
13075TIP3    H139182   8.210   0.778   0.515
13075TIP3    H239183   8.172   0.699   0.391
13076TIP3   OH239184   4.733   5.004   4.333
13076TIP3    H139185   4.745   5.097   4.318
13076TIP3    H239186   4.638   4.992   4.335
13077TIP3   OH239187   6.259   5.103   6.158
13077TIP3    H139188   6.203   5.062   6.092
13077TIP3    H239189   6.217   5.187   6.175
13078TIP3   OH239190   4.765   5.226   4.180
13078TIP3    H139191   4.730   5.296   4.127
13078TIP3    H239192   4.776   5.153   4.120
13079TIP3   OH239193   1.901   1.685   3.252
13079TIP3    H139194   1.806   1.687   3.251
13079TIP3    H239195   1.926   1.761   3.305
13080TIP3   OH239196   0.228   0.364   5.043
13080TIP3    H139197   0.271   0.316   5.114
13080TIP3    H239198   0.277   0.447   5.038
13081TIP3   OH239199   4.078   6.241   4.266
13081TIP3    H139200   4.012   6.296   4.308
13081TIP3    H239201   4.028   6.180   4.213
13082TIP3   OH239202   0.187   2.331   3.966
13082TIP3    H139203   0.123   2.287   3.909
13082TIP3    H239204   0.221   2.261   4.021
13083TIP3   OH239205   6.036   2.833   6.435
13083TIP3    H139206   6.095   2.819   6.361
13083TIP3    H239207   6.093   2.864   6.505
13084TIP3   OH239208   2.690   4.166   2.511
13084TIP3    H139209   2.754   4.097   2.490
13084TIP3    H239210   2.744   4.242   2.533
13085TIP3   OH239211   8.062   3.641   3.881
13085TIP3    H139212   8.112   3.690   3.947
13085TIP3    H239213   8.127   3.589   3.835
13086TIP3   OH239214   1.542   5.525   2.895
13086TIP3    H139215   1.629   5.522   2.934
13086TIP3    H239216   1.551   5.477   2.813
13087TIP3   OH239217   1.911   6.825   4.027
13087TIP3    H139218   1.865   6.907   4.045
13087TIP3    H239219   1.926   6.786   4.114
13088TIP3   OH239220   5.125   3.045   0.813
13088TIP3    H139221   5.175   3.053   0.895
13088TIP3    H239222   5.042   3.089   0.831
13089TIP3   OH239223   0.102   6.025   6.353
13089TIP3    H139224   0.181   6.073   6.378
13089TIP3    H239225   0.040   6.042   6.424
13090TIP3   OH239226   2.422   4.250   4.261
13090TIP3    H139227   2.469   4.190   4.202
13090TIP3    H239228   2.331   4.243   4.233
13091TIP3   OH239229   5.767   0.671   0.086
13091TIP3    H139230   5.695   0.615   0.059
13091TIP3    H239231   5.724   0.744   0.131
13092TIP3   OH239232   2.492   1.767   2.514
13092TIP3    H139233   2.555   1.695   2.508
13092TIP3    H239234   2.476   1.778   2.608
13093TIP3   OH239235   3.190   5.703   2.610
13093TIP3    H139236   3.127   5.725   2.541
13093TIP3    H239237   3.203   5.784   2.658
13094TIP3   OH239238   7.845   1.869   0.223
13094TIP3    H139239   7.766   1.831   0.185
13094TIP3    H239240   7.817   1.953   0.260
13095TIP3   OH239241   7.494   7.636   0.771
13095TIP3    H139242   7.532   7.587   0.698
13095TIP3    H239243   7.535   7.723   0.765
13096TIP3   OH239244   6.230   0.815   1.201
13096TIP3    H139245   6.185   0.869   1.266
13096TIP3    H239246   6.159   0.775   1.150
13097TIP3   OH239247   8.255   3.619   4.365
13097TIP3    H139248   8.313   3.651   4.296
13097TIP3    H239249   8.309   3.618   4.444
13098TIP3   OH239250   5.358   4.004   2.714
13098TIP3    H139251   5.270   3.974   2.739
13098TIP3    H239252   5.413   3.927   2.724
13099TIP3   OH239253   0.795   1.107   4.946
13099TIP3    H139254   0.833   1.023   4.970
13099TIP3    H239255   0.706   1.104   4.980
13100TIP3   OH239256   7.114   0.755   5.250
13100TIP3    H139257   7.071   0.840   5.260
13100TIP3    H239258   7.095   0.709   5.331
13101TIP3   OH239259   7.519   0.463   1.141
13101TIP3    H139260   7.583   0.493   1.076
13101TIP3    H239261   7.435   0.492   1.106
13102TIP3   OH239262   0.635   6.231   3.512
13102TIP3    H139263   0.724   6.233   3.477
13102TIP3    H239264   0.579   6.248   3.437
13103TIP3   OH239265   4.661   1.949   3.570
13103TIP3    H139266   4.669   1.862   3.608
13103TIP3    H239267   4.751   1.974   3.550
13104TIP3   OH239268   2.912   4.302   5.868
13104TIP3    H139269   2.823   4.335   5.851
13104TIP3    H239270   2.969   4.374   5.842
13105TIP3   OH239271   2.801   1.505   1.971
13105TIP3    H139272   2.814   1.591   2.011
13105TIP3    H239273   2.850   1.445   2.027
13106TIP3   OH239274   4.139   2.367   3.006
13106TIP3    H139275   4.130   2.461   3.019
13106TIP3    H239276   4.056   2.330   3.035
13107TIP3   OH239277   3.686   1.655   1.427
13107TIP3    H139278   3.737   1.670   1.506
13107TIP3    H239279   3.606   1.707   1.440
13108TIP3   OH239280   5.170   4.506   6.427
13108TIP3    H139281   5.210   4.420   6.420
13108TIP3    H239282   5.235   4.566   6.391
13109TIP3   OH239283   1.392   5.299   0.593
13109TIP3    H139284   1.335   5.361   0.638
13109TIP3    H239285   1.475   5.345   0.583
13110TIP3   OH239286   3.356   5.790   6.222
13110TIP3    H139287   3.383   5.790   6.131
13110TIP3    H239288   3.437   5.783   6.272
13111TIP3   OH239289   6.504   1.212   5.649
13111TIP3    H139290   6.471   1.293   5.686
13111TIP3    H239291   6.515   1.153   5.724
13112TIP3   OH239292   4.912   7.321   6.726
13112TIP3    H139293   5.001   7.355   6.729
13112TIP3    H239294   4.922   7.229   6.699
13113TIP3   OH239295   1.168   7.257   0.065
13113TIP3    H139296   1.208   7.283  -0.018
13113TIP3    H239297   1.232   7.283   0.131
13114TIP3   OH239298   5.342   0.911   2.274
13114TIP3    H139299   5.377   0.996   2.299
13114TIP3    H239300   5.391   0.887   2.195
13115TIP3   OH239301   5.591   6.209   2.375
13115TIP3    H139302   5.499   6.200   2.398
13115TIP3    H239303   5.595   6.192   2.281
13116TIP3   OH239304   3.916   4.302   3.871
13116TIP3    H139305   3.870   4.220   3.890
13116TIP3    H239306   3.993   4.276   3.821
13117TIP3   OH239307   6.440   0.275   1.725
13117TIP3    H139308   6.494   0.214   1.676
13117TIP3    H239309   6.395   0.327   1.658
13118TIP3   OH239310   2.827   1.076   5.209
13118TIP3    H139311   2.870   0.997   5.176
13118TIP3    H239312   2.737   1.048   5.226
13119TIP3   OH239313   3.552   1.500   0.940
13119TIP3    H139314   3.556   1.486   1.035
13119TIP3    H239315   3.570   1.594   0.930
13120TIP3   OH239316   6.122   3.015   0.852
13120TIP3    H139317   6.179   3.091   0.848
13120TIP3    H239318   6.079   3.012   0.766
13121TIP3   OH239319   5.454   4.259   4.060
13121TIP3    H139320   5.518   4.320   4.024
13121TIP3    H239321   5.431   4.296   4.146
13122TIP3   OH239322   2.930   3.583   3.164
13122TIP3    H139323   2.924   3.619   3.253
13122TIP3    H239324   2.867   3.634   3.113
13123TIP3   OH239325   4.381   5.754   4.915
13123TIP3    H139326   4.358   5.840   4.879
13123TIP3    H239327   4.408   5.773   5.005
13124TIP3   OH239328   2.025   7.588   2.469
13124TIP3    H139329   2.092   7.577   2.537
13124TIP3    H239330   1.989   7.501   2.456
13125TIP3   OH239331   7.274   4.055   3.597
13125TIP3    H139332   7.266   3.991   3.527
13125TIP3    H239333   7.352   4.106   3.573
13126TIP3   OH239334   7.707   6.950   4.645
13126TIP3    H139335   7.752   6.958   4.561
13126TIP3    H239336   7.692   7.040   4.673
13127TIP3   OH239337   4.735   1.613   4.051
13127TIP3    H139338   4.794   1.585   3.981
13127TIP3    H239339   4.778   1.690   4.088
13128TIP3   OH239340   0.195   4.631   3.072
13128TIP3    H139341   0.247   4.691   3.019
13128TIP3    H239342   0.145   4.688   3.131
13129TIP3   OH239343   2.144   1.691   4.397
13129TIP3    H139344   2.106   1.607   4.374
13129TIP3    H239345   2.100   1.717   4.478
13130TIP3   OH239346   0.527   2.406   6.378
13130TIP3    H139347   0.483   2.440   6.300
13130TIP3    H239348   0.476   2.442   6.451
13131TIP3   OH239349   2.955   7.448   0.436
13131TIP3    H139350   2.919   7.487   0.516
13131TIP3    H239351   3.045   7.483   0.431
13132TIP3   OH239352   5.888   7.033   4.522
13132TIP3    H139353   5.884   7.086   4.602
13132TIP3    H239354   5.941   7.086   4.462
13133TIP3   OH239355   3.338   6.649   1.624
13133TIP3    H139356   3.271   6.667   1.557
13133TIP3    H239357   3.313   6.703   1.698
13134TIP3   OH239358   3.683   1.222   0.901
13134TIP3    H139359   3.683   1.137   0.944
13134TIP3    H239360   3.593   1.233   0.869
13135TIP3   OH239361   4.933   1.942   1.368
13135TIP3    H139362   4.956   1.934   1.276
13135TIP3    H239363   4.951   1.856   1.406
13136TIP3   OH239364   6.940   7.154   4.503
13136TIP3    H139365   6.940   7.132   4.596
13136TIP3    H239366   7.027   7.129   4.473
13137TIP3   OH239367   7.171   2.274   5.817
13137TIP3    H139368   7.136   2.272   5.728
13137TIP3    H239369   7.262   2.299   5.807
13138TIP3   OH239370   5.599   5.490   4.146
13138TIP3    H139371   5.610   5.402   4.181
13138TIP3    H239372   5.594   5.478   4.051
13139TIP3   OH239373   3.794   1.632   6.346
13139TIP3    H139374   3.731   1.692   6.386
13139TIP3    H239375   3.749   1.548   6.341
13140TIP3   OH239376   1.142   3.318   0.878
13140TIP3    H139377   1.096   3.248   0.831
13140TIP3    H239378   1.228   3.280   0.898
13141TIP3   OH239379   3.224   2.680   0.576
13141TIP3    H139380   3.252   2.667   0.667
13141TIP3    H239381   3.288   2.741   0.540
13142TIP3   OH239382   7.268   4.331   1.456
13142TIP3    H139383   7.293   4.248   1.496
13142TIP3    H239384   7.226   4.306   1.374
13143TIP3   OH239385   2.738   5.780   1.779
13143TIP3    H139386   2.738   5.864   1.826
13143TIP3    H239387   2.830   5.764   1.759
13144TIP3   OH239388   6.515   2.443   3.003
13144TIP3    H139389   6.430   2.459   3.045
13144TIP3    H239390   6.561   2.527   3.009
13145TIP3   OH239391   3.359   5.251   1.990
13145TIP3    H139392   3.429   5.212   1.937
13145TIP3    H239393   3.405   5.305   2.054
13146TIP3   OH239394   0.804   1.765   3.592
13146TIP3    H139395   0.718   1.725   3.602
13146TIP3    H239396   0.802   1.842   3.648
13147TIP3   OH239397   6.617   6.190   1.309
13147TIP3    H139398   6.683   6.182   1.241
13147TIP3    H239399   6.658   6.151   1.387
13148TIP3   OH239400   3.246   2.943   6.645
13148TIP3    H139401   3.179   2.910   6.704
13148TIP3    H239402   3.298   2.865   6.622
13149TIP3   OH239403   8.172   7.519   4.809
13149TIP3    H139404   8.112   7.572   4.756
13149TIP3    H239405   8.188   7.571   4.887
13150TIP3   OH239406   6.081   7.398   4.552
13150TIP3    H139407   6.073   7.351   4.635
13150TIP3    H239408   6.045   7.484   4.570
13151TIP3   OH239409   3.668   1.812   5.113
13151TIP3    H139410   3.702   1.884   5.060
13151TIP3    H239411   3.666   1.737   5.053
13152TIP3   OH239412   5.541   6.274   3.744
13152TIP3    H139413   5.455   6.256   3.707
13152TIP3    H239414   5.524   6.302   3.833
13153TIP3   OH239415   6.321   7.006   3.855
13153TIP3    H139416   6.406   7.034   3.823
13153TIP3    H239417   6.325   7.019   3.950
13154TIP3   OH239418   1.829   2.294   0.305
13154TIP3    H139419   1.841   2.378   0.261
13154TIP3    H239420   1.746   2.261   0.272
13155TIP3   OH239421   4.490   5.218   1.345
13155TIP3    H139422   4.489   5.290   1.408
13155TIP3    H239423   4.444   5.252   1.268
13156TIP3   OH239424   1.426   2.599   4.540
13156TIP3    H139425   1.338   2.627   4.566
13156TIP3    H239426   1.456   2.544   4.612
13157TIP3   OH239427   6.002   2.188   6.123
13157TIP3    H139428   6.056   2.119   6.163
13157TIP3    H239429   6.065   2.246   6.080
13158TIP3   OH239430   3.644   5.398   5.672
13158TIP3    H139431   3.572   5.382   5.733
13158TIP3    H239432   3.695   5.317   5.674
13159TIP3   OH239433   0.042   5.497   3.952
13159TIP3    H139434  -0.009   5.470   3.876
13159TIP3    H239435   0.124   5.530   3.916
13160TIP3   OH239436   7.259   0.786   0.923
13160TIP3    H139437   7.336   0.825   0.964
13160TIP3    H239438   7.206   0.860   0.895
13161TIP3   OH239439   0.257   1.779   4.028
13161TIP3    H139440   0.213   1.747   3.949
13161TIP3    H239441   0.230   1.717   4.097
13162TIP3   OH239442   3.119   1.946   6.648
13162TIP3    H139443   3.206   1.983   6.660
13162TIP3    H239444   3.128   1.885   6.576
13163TIP3   OH239445   6.753   2.004   5.958
13163TIP3    H139446   6.779   2.073   5.897
13163TIP3    H239447   6.737   2.050   6.040
13164TIP3   OH239448   3.001   3.235   0.310
13164TIP3    H139449   3.063   3.242   0.237
13164TIP3    H239450   2.950   3.316   0.306
13165TIP3   OH239451   3.477   1.785   3.807
13165TIP3    H139452   3.407   1.727   3.778
13165TIP3    H239453   3.541   1.727   3.850
13166TIP3   OH239454   7.904   0.431   6.233
13166TIP3    H139455   7.915   0.505   6.292
13166TIP3    H239456   7.901   0.354   6.290
13167TIP3   OH239457   2.152   4.046   0.173
13167TIP3    H139458   2.224   4.063   0.233
13167TIP3    H239459   2.084   4.007   0.227
13168TIP3   OH239460   5.801   2.987   6.404
13168TIP3    H139461   5.737   2.950   6.343
13168TIP3    H239462   5.873   2.925   6.405
13169TIP3   OH239463   0.708   4.592   2.659
13169TIP3    H139464   0.705   4.515   2.603
13169TIP3    H239465   0.617   4.609   2.683
13170TIP3   OH239466   7.832   2.977   5.471
13170TIP3    H139467   7.849   3.069   5.447
13170TIP3    H239468   7.762   2.950   5.412
13171TIP3   OH239469   0.199   5.470   1.535
13171TIP3    H139470   0.199   5.451   1.629
13171TIP3    H239471   0.288   5.451   1.506
13172TIP3   OH239472   1.621   3.140   0.774
13172TIP3    H139473   1.643   3.177   0.860
13172TIP3    H239474   1.540   3.091   0.789
13173TIP3   OH239475   6.087   2.644   2.397
13173TIP3    H139476   6.144   2.648   2.320
13173TIP3    H239477   6.091   2.732   2.434
13174TIP3   OH239478   2.600   1.591   5.368
13174TIP3    H139479   2.504   1.597   5.371
13174TIP3    H239480   2.630   1.681   5.382
13175TIP3   OH239481   7.698   2.141   6.205
13175TIP3    H139482   7.770   2.143   6.268
13175TIP3    H239483   7.729   2.083   6.135
13176TIP3   OH239484   8.056   1.542   0.472
13176TIP3    H139485   7.986   1.484   0.501
13176TIP3    H239486   8.069   1.603   0.544
13177TIP3   OH239487   3.929   2.459   2.173
13177TIP3    H139488   3.921   2.364   2.160
13177TIP3    H239489   3.842   2.493   2.155
13178TIP3   OH239490   1.840   3.826   0.699
13178TIP3    H139491   1.873   3.904   0.744
13178TIP3    H239492   1.745   3.829   0.712
13179TIP3   OH239493   1.967   4.951   2.182
13179TIP3    H139494   2.042   4.917   2.231
13179TIP3    H239495   1.895   4.892   2.205
13180TIP3   OH239496   7.168   7.221   0.302
13180TIP3    H139497   7.222   7.164   0.358
13180TIP3    H239498   7.120   7.276   0.364
13181TIP3   OH239499   6.924   7.059   5.799
13181TIP3    H139500   6.932   6.992   5.731
13181TIP3    H239501   6.840   7.042   5.841
13182TIP3   OH239502   0.761   5.825   5.288
13182TIP3    H139503   0.688   5.775   5.325
13182TIP3    H239504   0.831   5.816   5.353
13183TIP3   OH239505   5.628   1.643   1.568
13183TIP3    H139506   5.640   1.701   1.493
13183TIP3    H239507   5.658   1.558   1.536
13184TIP3   OH239508   0.742   0.798   0.829
13184TIP3    H139509   0.796   0.871   0.859
13184TIP3    H239510   0.664   0.839   0.792
13185TIP3   OH239511   2.745   7.321   4.164
13185TIP3    H139512   2.729   7.315   4.258
13185TIP3    H239513   2.657   7.326   4.126
13186TIP3   OH239514   5.731   4.829   2.850
13186TIP3    H139515   5.738   4.855   2.758
13186TIP3    H239516   5.709   4.736   2.847
13187TIP3   OH239517   2.683   1.397   5.000
13187TIP3    H139518   2.772   1.410   5.032
13187TIP3    H239519   2.640   1.345   5.068
13188TIP3   OH239520   7.602   0.468   4.082
13188TIP3    H139521   7.673   0.432   4.135
13188TIP3    H239522   7.646   0.529   4.023
13189TIP3   OH239523   6.836   3.299   5.048
13189TIP3    H139524   6.748   3.265   5.065
13189TIP3    H239525   6.820   3.387   5.012
13190TIP3   OH239526   7.177   6.531   4.033
13190TIP3    H139527   7.161   6.625   4.038
13190TIP3    H239528   7.193   6.513   3.940
13191TIP3   OH239529   0.862   2.305   0.615
13191TIP3    H139530   0.946   2.278   0.578
13191TIP3    H239531   0.885   2.362   0.688
13192TIP3   OH239532   0.517   6.251   4.143
13192TIP3    H139533   0.542   6.177   4.198
13192TIP3    H239534   0.585   6.255   4.076
13193TIP3   OH239535   1.647   3.720   2.240
13193TIP3    H139536   1.684   3.643   2.197
13193TIP3    H239537   1.663   3.792   2.178
13194TIP3   OH239538   0.765   1.226   5.969
13194TIP3    H139539   0.798   1.137   5.955
13194TIP3    H239540   0.819   1.260   6.041
13195TIP3   OH239541   4.464   0.331   2.912
13195TIP3    H139542   4.509   0.344   2.829
13195TIP3    H239543   4.493   0.244   2.941
13196TIP3   OH239544   5.208   6.056   1.903
13196TIP3    H139545   5.137   6.098   1.855
13196TIP3    H239546   5.185   5.963   1.901
13197TIP3   OH239547   0.537   3.347   1.707
13197TIP3    H139548   0.442   3.337   1.693
13197TIP3    H239549   0.545   3.429   1.756
13198TIP3   OH239550   5.733   1.409   4.174
13198TIP3    H139551   5.710   1.422   4.266
13198TIP3    H239552   5.714   1.492   4.131
13199TIP3   OH239553   5.119   2.928   2.751
13199TIP3    H139554   5.099   2.839   2.724
13199TIP3    H239555   5.207   2.923   2.788
13200TIP3   OH239556   5.119   1.732   4.339
13200TIP3    H139557   5.108   1.646   4.300
13200TIP3    H239558   5.200   1.725   4.390
13201TIP3   OH239559   4.821   4.925   4.595
13201TIP3    H139560   4.798   4.981   4.520
13201TIP3    H239561   4.744   4.930   4.652
13202TIP3   OH239562   2.886   2.715   4.743
13202TIP3    H139563   2.821   2.644   4.745
13202TIP3    H239564   2.963   2.678   4.787
13203TIP3   OH239565   1.234   4.826   0.393
13203TIP3    H139566   1.211   4.910   0.352
13203TIP3    H239567   1.188   4.828   0.477
13204TIP3   OH239568   0.449   2.370   3.023
13204TIP3    H139569   0.465   2.409   2.937
13204TIP3    H239570   0.359   2.336   3.017
13205TIP3   OH239571   0.418   1.235   3.995
13205TIP3    H139572   0.373   1.304   3.947
13205TIP3    H239573   0.377   1.235   4.081
13206TIP3   OH239574   1.853   1.925   1.811
13206TIP3    H139575   1.863   1.835   1.841
13206TIP3    H239576   1.872   1.979   1.888
13207TIP3   OH239577   0.024   2.045   0.584
13207TIP3    H139578   0.106   2.092   0.570
13207TIP3    H239579   0.002   2.008   0.498
13208TIP3   OH239580   5.291   6.055   0.036
13208TIP3    H139581   5.198   6.061   0.057
13208TIP3    H239582   5.300   6.101  -0.048
13209TIP3   OH239583   2.171   2.216   3.416
13209TIP3    H139584   2.163   2.172   3.501
13209TIP3    H239585   2.216   2.152   3.360
13210TIP3   OH239586   2.580   0.990   2.270
13210TIP3    H139587   2.531   1.053   2.323
13210TIP3    H239588   2.669   0.994   2.303
13211TIP3   OH239589   5.239   7.544   5.443
13211TIP3    H139590   5.203   7.455   5.432
13211TIP3    H239591   5.272   7.545   5.533
13212TIP3   OH239592   0.855   7.603   6.655
13212TIP3    H139593   0.909   7.671   6.695
13212TIP3    H239594   0.840   7.540   6.725
13213TIP3   OH239595   0.399   4.827   4.917
13213TIP3    H139596   0.472   4.873   4.957
13213TIP3    H239597   0.343   4.896   4.882
13214TIP3   OH239598   5.913   2.249   2.298
13214TIP3    H139599   5.866   2.188   2.241
13214TIP3    H239600   5.933   2.324   2.241
13215TIP3   OH239601   0.106   6.048   5.890
13215TIP3    H139602   0.157   6.105   5.947
13215TIP3    H239603   0.122   6.082   5.802
13216TIP3   OH239604   0.577   1.682   0.225
13216TIP3    H139605   0.498   1.679   0.171
13216TIP3    H239606   0.566   1.611   0.288
13217TIP3   OH239607   2.336   6.118   6.590
13217TIP3    H139608   2.420   6.074   6.578
13217TIP3    H239609   2.275   6.047   6.610
13218TIP3   OH239610   2.202   0.221   2.994
13218TIP3    H139611   2.191   0.151   2.929
13218TIP3    H239612   2.296   0.223   3.011
13219TIP3   OH239613   7.028   0.140   2.835
13219TIP3    H139614   6.942   0.173   2.810
13219TIP3    H239615   7.028   0.049   2.806
13220TIP3   OH239616   7.370   2.657   6.592
13220TIP3    H139617   7.291   2.651   6.645
13220TIP3    H239618   7.338   2.663   6.502
13221TIP3   OH239619   8.114   3.093   4.396
13221TIP3    H139620   8.176   3.165   4.407
13221TIP3    H239621   8.075   3.107   4.310
13222TIP3   OH239622   7.939   1.308   1.561
13222TIP3    H139623   7.857   1.265   1.538
13222TIP3    H239624   7.929   1.333   1.653
13223TIP3   OH239625   1.592   2.682   0.537
13223TIP3    H139626   1.539   2.630   0.477
13223TIP3    H239627   1.681   2.650   0.524
13224TIP3   OH239628   2.725   0.954   4.061
13224TIP3    H139629   2.677   1.020   4.111
13224TIP3    H239630   2.679   0.948   3.978
13225TIP3   OH239631   2.491   4.938   1.357
13225TIP3    H139632   2.511   4.939   1.263
13225TIP3    H239633   2.557   4.881   1.395
13226TIP3   OH239634   3.575   0.631   0.962
13226TIP3    H139635   3.626   0.623   1.042
13226TIP3    H239636   3.589   0.548   0.916
13227TIP3   OH239637   6.035   1.604   4.777
13227TIP3    H139638   6.030   1.668   4.848
13227TIP3    H239639   6.000   1.523   4.814
13228TIP3   OH239640   7.568   4.503   2.526
13228TIP3    H139641   7.566   4.565   2.599
13228TIP3    H239642   7.661   4.483   2.513
13229TIP3   OH239643   1.931   1.233   1.479
13229TIP3    H139644   1.915   1.320   1.442
13229TIP3    H239645   2.025   1.230   1.494
13230TIP3   OH239646   0.817   3.834   4.605
13230TIP3    H139647   0.787   3.923   4.623
13230TIP3    H239648   0.806   3.824   4.510
13231TIP3   OH239649   7.681   5.561   3.593
13231TIP3    H139650   7.746   5.571   3.524
13231TIP3    H239651   7.623   5.492   3.562
13232TIP3   OH239652   1.135   6.143   4.706
13232TIP3    H139653   1.131   6.078   4.635
13232TIP3    H239654   1.184   6.215   4.668
13233TIP3   OH239655   6.936   6.086   0.016
13233TIP3    H139656   6.961   6.085  -0.076
13233TIP3    H239657   6.944   5.995   0.045
13234TIP3   OH239658   6.019   6.529   4.418
13234TIP3    H139659   6.031   6.601   4.478
13234TIP3    H239660   6.030   6.450   4.471
13235TIP3   OH239661   6.825   1.824   3.770
13235TIP3    H139662   6.830   1.888   3.841
13235TIP3    H239663   6.894   1.761   3.790
13236TIP3   OH239664   2.039   5.617   3.753
13236TIP3    H139665   2.105   5.683   3.733
13236TIP3    H239666   1.990   5.607   3.671
13237TIP3   OH239667   0.717   7.338   2.023
13237TIP3    H139668   0.761   7.265   1.978
13237TIP3    H239669   0.626   7.332   1.994
13238TIP3   OH239670   3.518   3.211   4.103
13238TIP3    H139671   3.580   3.140   4.087
13238TIP3    H239672   3.498   3.204   4.197
13239TIP3   OH239673   0.181   0.689   3.792
13239TIP3    H139674   0.206   0.612   3.740
13239TIP3    H239675   0.118   0.735   3.737
13240TIP3   OH239676   0.330   1.423   3.240
13240TIP3    H139677   0.271   1.357   3.277
13240TIP3    H239678   0.417   1.400   3.274
13241TIP3   OH239679   8.093   0.937   6.590
13241TIP3    H139680   8.011   0.906   6.553
13241TIP3    H239681   8.120   1.010   6.534
13242TIP3   OH239682   5.634   5.530   3.875
13242TIP3    H139683   5.678   5.584   3.809
13242TIP3    H239684   5.541   5.547   3.861
13243TIP3   OH239685   2.804   3.443   0.287
13243TIP3    H139686   2.747   3.366   0.298
13243TIP3    H239687   2.781   3.500   0.360
13244TIP3   OH239688   2.998   4.396   4.651
13244TIP3    H139689   2.966   4.391   4.741
13244TIP3    H239690   2.929   4.352   4.600
13245TIP3   OH239691   6.460   5.610   2.913
13245TIP3    H139692   6.540   5.662   2.925
13245TIP3    H239693   6.490   5.523   2.891
13246TIP3   OH239694   3.465   4.673   5.077
13246TIP3    H139695   3.545   4.725   5.092
13246TIP3    H239696   3.408   4.731   5.026
13247TIP3   OH239697   6.159   6.234   1.802
13247TIP3    H139698   6.214   6.310   1.783
13247TIP3    H239699   6.134   6.246   1.894
13248TIP3   OH239700   6.497   6.426   2.581
13248TIP3    H139701   6.557   6.500   2.570
13248TIP3    H239702   6.446   6.425   2.500
13249TIP3   OH239703   1.059   6.280   3.740
13249TIP3    H139704   1.041   6.196   3.697
13249TIP3    H239705   1.053   6.261   3.834
13250TIP3   OH239706   7.495   0.950   5.220
13250TIP3    H139707   7.519   1.041   5.234
13250TIP3    H239708   7.484   0.942   5.125
13251TIP3   OH239709   3.320   2.155   1.751
13251TIP3    H139710   3.295   2.246   1.770
13251TIP3    H239711   3.316   2.149   1.656
13252TIP3   OH239712   8.202   4.682   4.570
13252TIP3    H139713   8.190   4.595   4.609
13252TIP3    H239714   8.293   4.705   4.591
13253TIP3   OH239715   2.269   2.378   3.683
13253TIP3    H139716   2.278   2.468   3.654
13253TIP3    H239717   2.224   2.333   3.612
13254TIP3   OH239718   7.206   3.064   1.356
13254TIP3    H139719   7.264   3.139   1.348
13254TIP3    H239720   7.265   2.988   1.364
13255TIP3   OH239721   7.612   4.992   4.594
13255TIP3    H139722   7.569   4.932   4.533
13255TIP3    H239723   7.555   4.991   4.671
13256TIP3   OH239724   3.194   1.556   5.722
13256TIP3    H139725   3.269   1.507   5.688
13256TIP3    H239726   3.136   1.565   5.646
13257TIP3   OH239727   1.511   1.120   2.737
13257TIP3    H139728   1.505   1.158   2.825
13257TIP3    H239729   1.512   1.196   2.678
13258TIP3   OH239730   4.643   0.363   2.696
13258TIP3    H139731   4.696   0.285   2.680
13258TIP3    H239732   4.630   0.402   2.610
13259TIP3   OH239733   2.816   3.428   2.533
13259TIP3    H139734   2.830   3.495   2.600
13259TIP3    H239735   2.729   3.446   2.498
13260TIP3   OH239736   6.023   4.959   0.148
13260TIP3    H139737   6.041   4.992   0.060
13260TIP3    H239738   6.107   4.964   0.194
13261TIP3   OH239739   3.649   5.817   4.359
13261TIP3    H139740   3.720   5.755   4.340
13261TIP3    H239741   3.661   5.841   4.450
13262TIP3   OH239742   2.288   7.530   6.697
13262TIP3    H139743   2.243   7.452   6.730
13262TIP3    H239744   2.369   7.496   6.659
13263TIP3   OH239745   6.848   2.899   1.374
13263TIP3    H139746   6.918   2.892   1.310
13263TIP3    H239747   6.792   2.823   1.357
13264TIP3   OH239748   0.219   2.746   2.835
13264TIP3    H139749   0.156   2.714   2.900
13264TIP3    H239750   0.190   2.835   2.816
13265TIP3   OH239751   6.334   5.822   6.751
13265TIP3    H139752   6.412   5.836   6.805
13265TIP3    H239753   6.295   5.909   6.743
13266TIP3   OH239754   3.898   6.224   2.410
13266TIP3    H139755   3.950   6.143   2.406
13266TIP3    H239756   3.844   6.221   2.332
13267TIP3   OH239757   4.563   2.568   6.118
13267TIP3    H139758   4.547   2.481   6.081
13267TIP3    H239759   4.631   2.554   6.184
13268TIP3   OH239760   1.244   2.459   6.340
13268TIP3    H139761   1.152   2.433   6.338
13268TIP3    H239762   1.242   2.552   6.361
13269TIP3   OH239763   7.772   7.140   4.005
13269TIP3    H139764   7.684   7.109   4.023
13269TIP3    H239765   7.782   7.218   4.060
13270TIP3   OH239766   8.078   1.453   4.251
13270TIP3    H139767   8.015   1.396   4.294
13270TIP3    H239768   8.151   1.395   4.227
13271TIP3   OH239769   6.022   4.114   5.257
13271TIP3    H139770   6.049   4.202   5.283
13271TIP3    H239771   6.090   4.086   5.195
13272TIP3   OH239772   6.794   1.940   2.024
13272TIP3    H139773   6.783   1.847   2.040
13272TIP3    H239774   6.726   1.982   2.077
13273TIP3   OH239775   4.682   5.757   4.903
13273TIP3    H139776   4.617   5.689   4.917
13273TIP3    H239777   4.729   5.763   4.986
13274TIP3   OH239778   6.075   2.394   4.124
13274TIP3    H139779   6.061   2.395   4.218
13274TIP3    H239780   6.170   2.392   4.114
13275TIP3   OH239781   3.854   6.241   3.552
13275TIP3    H139782   3.826   6.301   3.622
13275TIP3    H239783   3.834   6.287   3.471
13276TIP3   OH239784   4.166   4.313   1.431
13276TIP3    H139785   4.194   4.222   1.442
13276TIP3    H239786   4.233   4.351   1.373
13277TIP3   OH239787   0.623   2.639   1.181
13277TIP3    H139788   0.641   2.690   1.102
13277TIP3    H239789   0.700   2.584   1.193
13278TIP3   OH239790   0.188   3.264   6.359
13278TIP3    H139791   0.129   3.329   6.397
13278TIP3    H239792   0.195   3.289   6.267
13279TIP3   OH239793   7.875   1.747   6.635
13279TIP3    H139794   7.904   1.660   6.607
13279TIP3    H239795   7.849   1.735   6.727
13280TIP3   OH239796   4.663   0.903   4.972
13280TIP3    H139797   4.688   0.868   5.058
13280TIP3    H239798   4.626   0.989   4.990
13281TIP3   OH239799   7.992   3.199   3.757
13281TIP3    H139800   8.065   3.138   3.755
13281TIP3    H239801   7.997   3.240   3.844
13282TIP3   OH239802   0.080   1.219   1.478
13282TIP3    H139803   0.065   1.159   1.551
13282TIP3    H239804   0.172   1.241   1.484
13283TIP3   OH239805   6.583   1.631   5.575
13283TIP3    H139806   6.590   1.612   5.482
13283TIP3    H239807   6.666   1.671   5.598
13284TIP3   OH239808   1.924   6.112   5.112
13284TIP3    H139809   1.915   6.081   5.022
13284TIP3    H239810   1.918   6.207   5.105
13285TIP3   OH239811   1.653   5.980   3.250
13285TIP3    H139812   1.643   6.022   3.335
13285TIP3    H239813   1.598   6.032   3.191
13286TIP3   OH239814   5.120   6.523   1.849
13286TIP3    H139815   5.194   6.488   1.799
13286TIP3    H239816   5.071   6.575   1.786
13287TIP3   OH239817   5.283   2.045   3.046
13287TIP3    H139818   5.288   2.116   3.110
13287TIP3    H239819   5.201   2.000   3.067
13288TIP3   OH239820   0.665   0.401   4.965
13288TIP3    H139821   0.622   0.319   4.940
13288TIP3    H239822   0.685   0.444   4.882
13289TIP3   OH239823   4.891   4.349   3.535
13289TIP3    H139824   4.897   4.399   3.617
13289TIP3    H239825   4.797   4.349   3.515
13290TIP3   OH239826   5.617   6.462   0.082
13290TIP3    H139827   5.675   6.524   0.127
13290TIP3    H239828   5.672   6.425   0.012
13291TIP3   OH239829   4.744   3.019   4.950
13291TIP3    H139830   4.734   2.967   4.870
13291TIP3    H239831   4.821   2.981   4.993
13292TIP3   OH239832   2.152   7.386   1.507
13292TIP3    H139833   2.213   7.318   1.535
13292TIP3    H239834   2.198   7.432   1.436
13293TIP3   OH239835   0.687   4.492   0.037
13293TIP3    H139836   0.782   4.494   0.045
13293TIP3    H239837   0.655   4.482   0.126
13294TIP3   OH239838   6.726   5.770   5.227
13294TIP3    H139839   6.748   5.742   5.138
13294TIP3    H239840   6.671   5.847   5.215
13295TIP3   OH239841   3.760   2.961   3.155
13295TIP3    H139842   3.689   2.928   3.211
13295TIP3    H239843   3.719   2.977   3.070
13296TIP3   OH239844   3.513   3.153   5.254
13296TIP3    H139845   3.517   3.134   5.160
13296TIP3    H239846   3.605   3.156   5.282
13297TIP3   OH239847   6.342   1.795   5.488
13297TIP3    H139848   6.397   1.734   5.537
13297TIP3    H239849   6.404   1.849   5.439
13298TIP3   OH239850   7.779   2.260   4.412
13298TIP3    H139851   7.873   2.278   4.410
13298TIP3    H239852   7.771   2.180   4.464
13299TIP3   OH239853   5.926   0.293   6.500
13299TIP3    H139854   5.953   0.286   6.592
13299TIP3    H239855   5.830   0.284   6.503
13300TIP3   OH239856   1.805   5.401   6.465
13300TIP3    H139857   1.805   5.309   6.491
13300TIP3    H239858   1.775   5.448   6.542
13301TIP3   OH239859   7.794   6.226   4.662
13301TIP3    H139860   7.785   6.314   4.626
13301TIP3    H239861   7.885   6.222   4.691
13302TIP3   OH239862   3.207   7.223   4.034
13302TIP3    H139863   3.148   7.295   4.055
13302TIP3    H239864   3.216   7.174   4.116
13303TIP3   OH239865   7.566   3.608   0.319
13303TIP3    H139866   7.604   3.525   0.290
13303TIP3    H239867   7.607   3.623   0.405
13304TIP3   OH239868   7.845   6.129   1.196
13304TIP3    H139869   7.926   6.081   1.181
13304TIP3    H239870   7.830   6.122   1.290
13305TIP3   OH239871   1.168   6.147   0.220
13305TIP3    H139872   1.121   6.215   0.171
13305TIP3    H239873   1.114   6.133   0.298
13306TIP3   OH239874   5.384   2.710   3.075
13306TIP3    H139875   5.446   2.759   3.021
13306TIP3    H239876   5.315   2.683   3.013
13307TIP3   OH239877   7.912   0.671   0.503
13307TIP3    H139878   7.875   0.584   0.516
13307TIP3    H239879   7.980   0.658   0.436
13308TIP3   OH239880   1.006   6.179   6.254
13308TIP3    H139881   0.934   6.127   6.290
13308TIP3    H239882   1.022   6.245   6.321
13309TIP3   OH239883   2.888   1.958   4.452
13309TIP3    H139884   2.906   1.976   4.359
13309TIP3    H239885   2.793   1.952   4.457
13310TIP3   OH239886   0.685   6.183   4.712
13310TIP3    H139887   0.672   6.126   4.637
13310TIP3    H239888   0.644   6.266   4.687
13311TIP3   OH239889   4.222   1.043   1.853
13311TIP3    H139890   4.142   0.994   1.874
13311TIP3    H239891   4.221   1.049   1.757
13312TIP3   OH239892   0.479   6.253   3.750
13312TIP3    H139893   0.536   6.251   3.827
13312TIP3    H239894   0.537   6.280   3.679
13313TIP3   OH239895   3.873   2.798   1.987
13313TIP3    H139896   3.794   2.849   1.968
13313TIP3    H239897   3.896   2.758   1.903
13314TIP3   OH239898   5.174   3.448   4.735
13314TIP3    H139899   5.248   3.479   4.787
13314TIP3    H239900   5.213   3.416   4.654
13315TIP3   OH239901   2.275   2.584   5.478
13315TIP3    H139902   2.189   2.559   5.443
13315TIP3    H239903   2.266   2.678   5.495
13316TIP3   OH239904   2.327   3.550   5.499
13316TIP3    H139905   2.390   3.613   5.466
13316TIP3    H239906   2.347   3.542   5.593
13317TIP3   OH239907   5.156   6.295   1.433
13317TIP3    H139908   5.079   6.278   1.488
13317TIP3    H239909   5.151   6.389   1.412
13318TIP3   OH239910   5.468   4.729   4.572
13318TIP3    H139911   5.414   4.765   4.501
13318TIP3    H239912   5.557   4.758   4.552
13319TIP3   OH239913   6.764   2.642   6.684
13319TIP3    H139914   6.763   2.547   6.682
13319TIP3    H239915   6.751   2.669   6.593
13320TIP3   OH239916   3.805   2.184   6.145
13320TIP3    H139917   3.750   2.108   6.163
13320TIP3    H239918   3.881   2.173   6.202
13321TIP3   OH239919   0.302   3.165   6.017
13321TIP3    H139920   0.365   3.128   5.956
13321TIP3    H239921   0.275   3.091   6.072
13322TIP3   OH239922   2.898   7.739   4.350
13322TIP3    H139923   2.916   7.752   4.443
13322TIP3    H239924   2.814   7.783   4.336
13323TIP3   OH239925   4.025   4.981   5.779
13323TIP3    H139926   4.084   4.951   5.710
13323TIP3    H239927   3.965   4.907   5.792
13324TIP3   OH239928   2.083   5.894   1.558
13324TIP3    H139929   2.176   5.903   1.538
13324TIP3    H239930   2.063   5.969   1.614
13325TIP3   OH239931   8.075   5.746   3.880
13325TIP3    H139932   8.048   5.808   3.948
13325TIP3    H239933   8.046   5.661   3.913
13326TIP3   OH239934   8.088   2.565   0.079
13326TIP3    H139935   8.168   2.512   0.081
13326TIP3    H239936   8.018   2.502   0.098
13327TIP3   OH239937   4.589   4.516   2.859
13327TIP3    H139938   4.510   4.471   2.889
13327TIP3    H239939   4.661   4.468   2.900
13328TIP3   OH239940   2.654   7.097   6.238
13328TIP3    H139941   2.576   7.041   6.229
13328TIP3    H239942   2.648   7.158   6.164
13329TIP3   OH239943   5.097   5.029   5.520
13329TIP3    H139944   5.086   5.116   5.559
13329TIP3    H239945   5.097   5.044   5.426
13330TIP3   OH239946   3.061   1.067   5.747
13330TIP3    H139947   3.023   1.041   5.663
13330TIP3    H239948   3.155   1.070   5.731
13331TIP3   OH239949   3.862   3.376   3.565
13331TIP3    H139950   3.768   3.389   3.583
13331TIP3    H239951   3.892   3.460   3.531
13332TIP3   OH239952   0.982   4.594   0.548
13332TIP3    H139953   0.902   4.642   0.528
13332TIP3    H239954   1.009   4.555   0.465
13333TIP3   OH239955   0.541   1.655   4.064
13333TIP3    H139956   0.463   1.630   4.114
13333TIP3    H239957   0.511   1.726   4.007
13334TIP3   OH239958   5.450   1.873   6.742
13334TIP3    H139959   5.399   1.943   6.783
13334TIP3    H239960   5.453   1.897   6.649
13335TIP3   OH239961   5.621   6.453   3.547
13335TIP3    H139962   5.560   6.425   3.479
13335TIP3    H239963   5.615   6.385   3.614
13336TIP3   OH239964   4.363   2.908   0.190
13336TIP3    H139965   4.390   2.955   0.112
13336TIP3    H239966   4.441   2.906   0.245
13337TIP3   OH239967   6.429   4.482   2.236
13337TIP3    H139968   6.462   4.394   2.254
13337TIP3    H239969   6.377   4.472   2.156
13338TIP3   OH239970   2.079   0.739   2.669
13338TIP3    H139971   2.167   0.724   2.636
13338TIP3    H239972   2.082   0.826   2.708
13339TIP3   OH239973   2.668   0.850   6.732
13339TIP3    H139974   2.647   0.795   6.807
13339TIP3    H239975   2.586   0.856   6.683
13340TIP3   OH239976   0.839   6.599   2.796
13340TIP3    H139977   0.886   6.664   2.850
13340TIP3    H239978   0.753   6.591   2.837
13341TIP3   OH239979   6.377   2.529   1.482
13341TIP3    H139980   6.463   2.509   1.519
13341TIP3    H239981   6.379   2.491   1.394
13342TIP3   OH239982   0.171   3.098   6.635
13342TIP3    H139983   0.234   3.026   6.637
13342TIP3    H239984   0.173   3.130   6.545
13343TIP3   OH239985   2.367   1.722   3.273
13343TIP3    H139986   2.433   1.735   3.204
13343TIP3    H239987   2.314   1.648   3.241
13344TIP3   OH239988   8.113   3.491   5.267
13344TIP3    H139989   8.100   3.484   5.362
13344TIP3    H239990   8.068   3.572   5.242
13345TIP3   OH239991   2.047   0.779   3.868
13345TIP3    H139992   1.981   0.845   3.887
13345TIP3    H239993   2.038   0.715   3.938
13346TIP3   OH239994   3.943   0.423   1.015
13346TIP3    H139995   3.949   0.423   0.920
13346TIP3    H239996   3.861   0.468   1.034
13347TIP3   OH239997   4.466   1.053   4.493
13347TIP3    H139998   4.453   1.146   4.512
13347TIP3    H239999   4.485   1.015   4.579
13348TIP3   OH240000   3.014   4.126   5.677
13348TIP3    H140001   3.004   4.173   5.760
13348TIP3    H240002   3.081   4.059   5.696
13349TIP3   OH240003   2.884   0.896   3.127
13349TIP3    H140004   2.916   0.851   3.204
13349TIP3    H240005   2.817   0.956   3.161
13350TIP3   OH240006   2.490   3.351   5.291
13350TIP3    H140007   2.439   3.334   5.211
13350TIP3    H240008   2.451   3.429   5.329
13351TIP3   OH240009   5.061   6.399   6.025
13351TIP3    H140010   5.019   6.393   6.111
13351TIP3    H240011   5.053   6.492   6.001
13352TIP3   OH240012   3.394   4.153   5.594
13352TIP3    H140013   3.437   4.159   5.509
13352TIP3    H240014   3.323   4.091   5.581
13353TIP3   OH240015   2.658   4.674   0.590
13353TIP3    H140016   2.639   4.687   0.498
13353TIP3    H240017   2.601   4.737   0.635
13354TIP3   OH240018   1.844   2.987   0.923
13354TIP3    H140019   1.754   2.997   0.953
13354TIP3    H240020   1.895   2.979   1.003
13355TIP3   OH240021   5.403   7.618   1.424
13355TIP3    H140022   5.417   7.556   1.352
13355TIP3    H240023   5.484   7.667   1.430
13356TIP3   OH240024   5.568   5.351   0.407
13356TIP3    H140025   5.616   5.365   0.489
13356TIP3    H240026   5.609   5.412   0.345
13357TIP3   OH240027   3.941   3.892   5.771
13357TIP3    H140028   3.897   3.872   5.688
13357TIP3    H240029   4.000   3.817   5.785
13358TIP3   OH240030   7.742   5.837   1.787
13358TIP3    H140031   7.778   5.824   1.699
13358TIP3    H240032   7.711   5.751   1.813
13359TIP3   OH240033   7.855   5.606   5.465
13359TIP3    H140034   7.874   5.566   5.380
13359TIP3    H240035   7.801   5.682   5.445
13360TIP3   OH240036   1.154   7.449   6.618
13360TIP3    H140037   1.072   7.400   6.617
13360TIP3    H240038   1.138   7.523   6.558
13361TIP3   OH240039   7.309   0.406   5.394
13361TIP3    H140040   7.225   0.363   5.410
13361TIP3    H240041   7.344   0.360   5.317
13362TIP3   OH240042   4.483   1.669   4.096
13362TIP3    H140043   4.566   1.672   4.048
13362TIP3    H240044   4.458   1.761   4.107
13363TIP3   OH240045   5.070   2.634   4.530
13363TIP3    H140046   5.119   2.691   4.472
13363TIP3    H240047   5.043   2.690   4.603
13364TIP3   OH240048   6.443   6.734   5.951
13364TIP3    H140049   6.436   6.824   5.983
13364TIP3    H240050   6.535   6.711   5.963
13365TIP3   OH240051   3.428   6.915   4.963
13365TIP3    H140052   3.360   6.943   5.025
13365TIP3    H240053   3.486   6.859   5.013
13366TIP3   OH240054   5.532   2.042   2.910
13366TIP3    H140055   5.583   2.120   2.930
13366TIP3    H240056   5.452   2.052   2.963
13367TIP3   OH240057   2.460   4.538   4.189
13367TIP3    H140058   2.447   4.443   4.196
13367TIP3    H240059   2.555   4.549   4.183
13368TIP3   OH240060   4.586   4.859   2.054
13368TIP3    H140061   4.587   4.954   2.045
13368TIP3    H240062   4.640   4.842   2.131
13369TIP3   OH240063   8.253   5.044   6.450
13369TIP3    H140064   8.205   5.094   6.516
13369TIP3    H240065   8.343   5.043   6.481
13370TIP3   OH240066   7.621   1.263   1.122
13370TIP3    H140067   7.632   1.315   1.202
13370TIP3    H240068   7.530   1.276   1.097
13371TIP3   OH240069   7.740   2.054   0.383
13371TIP3    H140070   7.798   2.130   0.386
13371TIP3    H240071   7.676   2.075   0.316
13372TIP3   OH240072   3.736   6.849   6.579
13372TIP3    H140073   3.684   6.815   6.652
13372TIP3    H240074   3.686   6.828   6.501
13373TIP3   OH240075   2.618   3.836   1.331
13373TIP3    H140076   2.551   3.896   1.364
13373TIP3    H240077   2.701   3.881   1.348
13374TIP3   OH240078   2.540   0.549   3.400
13374TIP3    H140079   2.480   0.551   3.326
13374TIP3    H240080   2.515   0.471   3.450
13375TIP3   OH240081   7.584   2.677   3.444
13375TIP3    H140082   7.514   2.615   3.423
13375TIP3    H240083   7.553   2.761   3.411
13376TIP3   OH240084   0.919   2.797   5.347
13376TIP3    H140085   0.986   2.788   5.278
13376TIP3    H240086   0.951   2.867   5.403
13377TIP3   OH240087   3.400   0.469   0.066
13377TIP3    H140088   3.327   0.425   0.110
13377TIP3    H240089   3.418   0.546   0.120
13378TIP3   OH240090   4.660   3.532   4.286
13378TIP3    H140091   4.602   3.607   4.295
13378TIP3    H240092   4.644   3.499   4.198
13379TIP3   OH240093   3.219   6.959   3.236
13379TIP3    H140094   3.213   6.943   3.330
13379TIP3    H240095   3.150   7.021   3.217
13380TIP3   OH240096   2.612   4.691   0.315
13380TIP3    H140097   2.608   4.767   0.257
13380TIP3    H240098   2.596   4.616   0.258
13381TIP3   OH240099   2.792   0.998   3.434
13381TIP3    H140100   2.844   0.933   3.482
13381TIP3    H240101   2.743   1.044   3.502
13382TIP3   OH240102   4.169   6.007   4.415
13382TIP3    H140103   4.203   5.951   4.486
13382TIP3    H240104   4.098   5.956   4.377
13383TIP3   OH240105   1.890   0.119   2.362
13383TIP3    H140106   1.896   0.177   2.286
13383TIP3    H240107   1.978   0.085   2.373
13384TIP3   OH240108   1.844   3.178   2.160
13384TIP3    H140109   1.910   3.175   2.229
13384TIP3    H240110   1.838   3.087   2.129
13385TIP3   OH240111   0.597   3.830   0.992
13385TIP3    H140112   0.681   3.786   1.005
13385TIP3    H240113   0.540   3.795   1.060
13386TIP3   OH240114   7.919   2.321   1.162
13386TIP3    H140115   7.825   2.334   1.153
13386TIP3    H240116   7.930   2.286   1.250
13387TIP3   OH240117   4.166   7.756   5.507
13387TIP3    H140118   4.114   7.761   5.588
13387TIP3    H240119   4.136   7.830   5.455
13388TIP3   OH240120   6.392   0.931   4.034
13388TIP3    H140121   6.483   0.902   4.035
13388TIP3    H240122   6.342   0.850   4.023
13389TIP3   OH240123   7.092   7.495   4.344
13389TIP3    H140124   7.080   7.553   4.269
13389TIP3    H240125   7.010   7.447   4.350
13390TIP3   OH240126   6.365   2.155   4.982
13390TIP3    H140127   6.321   2.206   4.914
13390TIP3    H240128   6.380   2.069   4.943
13391TIP3   OH240129   6.060   6.032   2.208
13391TIP3    H140130   5.981   6.024   2.262
13391TIP3    H240131   6.048   5.968   2.138
13392TIP3   OH240132   1.541   3.411   4.013
13392TIP3    H140133   1.473   3.364   4.061
13392TIP3    H240134   1.566   3.483   4.071
13393TIP3   OH240135   6.909   2.617   3.686
13393TIP3    H140136   6.948   2.547   3.634
13393TIP3    H240137   6.823   2.584   3.711
13394TIP3   OH240138   2.827   7.038   2.553
13394TIP3    H140139   2.919   7.017   2.537
13394TIP3    H240140   2.780   6.996   2.481
13395TIP3   OH240141   6.905   2.204   5.816
13395TIP3    H140142   6.904   2.266   5.889
13395TIP3    H240143   6.998   2.188   5.799
13396TIP3   OH240144   5.705   2.481   6.754
13396TIP3    H140145   5.627   2.504   6.703
13396TIP3    H240146   5.695   2.529   6.836
13397TIP3   OH240147   3.632   6.521   6.698
13397TIP3    H140148   3.686   6.447   6.725
13397TIP3    H240149   3.544   6.486   6.690
13398TIP3   OH240150   4.427   4.928   0.733
13398TIP3    H140151   4.406   4.993   0.666
13398TIP3    H240152   4.486   4.866   0.689
13399TIP3   OH240153   6.534   6.861   2.936
13399TIP3    H140154   6.603   6.795   2.928
13399TIP3    H240155   6.565   6.934   2.883
13400TIP3   OH240156   6.678   6.934   5.406
13400TIP3    H140157   6.683   6.853   5.457
13400TIP3    H240158   6.591   6.970   5.427
13401TIP3   OH240159   6.979   4.418   2.391
13401TIP3    H140160   6.895   4.422   2.436
13401TIP3    H240161   7.043   4.443   2.457
13402TIP3   OH240162   5.336   3.480   1.202
13402TIP3    H140163   5.404   3.423   1.168
13402TIP3    H240164   5.254   3.445   1.167
13403TIP3   OH240165   8.273   7.801   0.024
13403TIP3    H140166   8.234   7.766  -0.056
13403TIP3    H240167   8.202   7.798   0.088
13404TIP3   OH240168   1.044   0.652   1.386
13404TIP3    H140169   1.133   0.676   1.414
13404TIP3    H240170   1.006   0.610   1.463
13405TIP3   OH240171   7.738   0.637   6.368
13405TIP3    H140172   7.705   0.660   6.281
13405TIP3    H240173   7.679   0.569   6.398
13406TIP3   OH240174   8.276   1.191   1.069
13406TIP3    H140175   8.349   1.229   1.118
13406TIP3    H240176   8.238   1.265   1.022
13407TIP3   OH240177   7.309   3.311   4.000
13407TIP3    H140178   7.257   3.234   4.026
13407TIP3    H240179   7.337   3.291   3.910
13408TIP3   OH240180   7.623   1.017   6.648
13408TIP3    H140181   7.535   0.980   6.638
13408TIP3    H240182   7.682   0.945   6.623
13409TIP3   OH240183   6.189   4.653   0.466
13409TIP3    H140184   6.206   4.746   0.482
13409TIP3    H240185   6.100   4.651   0.431
13410TIP3   OH240186   2.256   4.014   4.350
13410TIP3    H140187   2.231   4.079   4.284
13410TIP3    H240188   2.244   3.929   4.306
13411TIP3   OH240189   0.340   7.720   4.555
13411TIP3    H140190   0.318   7.649   4.495
13411TIP3    H240191   0.435   7.716   4.564
13412TIP3   OH240192   3.792   3.318   0.761
13412TIP3    H140193   3.704   3.332   0.725
13412TIP3    H240194   3.846   3.296   0.685
13413TIP3   OH240195   8.188   6.797   2.262
13413TIP3    H140196   8.194   6.753   2.177
13413TIP3    H240197   8.151   6.730   2.321
13414TIP3   OH240198   6.515   1.604   4.874
13414TIP3    H140199   6.536   1.594   4.781
13414TIP3    H240200   6.483   1.518   4.900
13415TIP3   OH240201   2.517   7.014   0.477
13415TIP3    H140202   2.562   6.954   0.537
13415TIP3    H240203   2.441   6.964   0.447
13416TIP3   OH240204   1.680   1.941   5.739
13416TIP3    H140205   1.741   1.870   5.756
13416TIP3    H240206   1.707   2.011   5.799
13417TIP3   OH240207   8.235   7.762   6.361
13417TIP3    H140208   8.297   7.806   6.420
13417TIP3    H240209   8.152   7.762   6.409
13418TIP3   OH240210   2.211   4.314   2.432
13418TIP3    H140211   2.190   4.368   2.509
13418TIP3    H240212   2.215   4.376   2.360
13419TIP3   OH240213   5.225   4.785   5.382
13419TIP3    H140214   5.200   4.875   5.364
13419TIP3    H240215   5.286   4.762   5.312
13420TIP3   OH240216   0.662   1.499   5.061
13420TIP3    H140217   0.675   1.524   5.153
13420TIP3    H240218   0.650   1.404   5.063
13421TIP3   OH240219   6.717   4.870   6.764
13421TIP3    H140220   6.681   4.805   6.825
13421TIP3    H240221   6.650   4.881   6.697
13422TIP3   OH240222   0.671   2.747   5.434
13422TIP3    H140223   0.635   2.698   5.360
13422TIP3    H240224   0.765   2.749   5.418
13423TIP3   OH240225   7.298   4.843   5.116
13423TIP3    H140226   7.316   4.763   5.066
13423TIP3    H240227   7.223   4.883   5.071
13424TIP3   OH240228   0.735   4.336   2.217
13424TIP3    H140229   0.826   4.315   2.194
13424TIP3    H240230   0.742   4.416   2.269
13425TIP3   OH240231   4.015   4.008   1.472
13425TIP3    H140232   4.036   3.956   1.395
13425TIP3    H240233   4.099   4.038   1.505
13426TIP3   OH240234   6.896   1.981   1.488
13426TIP3    H140235   6.954   2.029   1.547
13426TIP3    H240236   6.826   1.949   1.545
13427TIP3   OH240237   2.997   0.621   4.575
13427TIP3    H140238   2.954   0.681   4.514
13427TIP3    H240239   3.006   0.540   4.526
13428TIP3   OH240240   4.416   2.693   4.261
13428TIP3    H140241   4.413   2.619   4.200
13428TIP3    H240242   4.506   2.725   4.257
13429TIP3   OH240243   6.645   3.093   2.481
13429TIP3    H140244   6.682   3.069   2.396
13429TIP3    H240245   6.705   3.055   2.545
13430TIP3   OH240246   1.403   5.757   0.127
13430TIP3    H140247   1.315   5.735   0.157
13430TIP3    H240248   1.447   5.673   0.115
13431TIP3   OH240249   7.752   3.929   3.188
13431TIP3    H140250   7.795   4.013   3.176
13431TIP3    H240251   7.730   3.900   3.100
13432TIP3   OH240252   0.782   3.642   2.450
13432TIP3    H140253   0.876   3.655   2.435
13432TIP3    H240254   0.763   3.698   2.526
13433TIP3   OH240255   2.222   1.686   2.103
13433TIP3    H140256   2.314   1.661   2.093
13433TIP3    H240257   2.224   1.774   2.139
13434TIP3   OH240258   8.061   2.362   4.434
13434TIP3    H140259   8.085   2.388   4.523
13434TIP3    H240260   8.126   2.404   4.378
13435TIP3   OH240261   0.308   5.168   6.310
13435TIP3    H140262   0.376   5.223   6.272
13435TIP3    H240263   0.299   5.200   6.400
13436TIP3   OH240264   4.433   4.225   2.954
13436TIP3    H140265   4.338   4.226   2.941
13436TIP3    H240266   4.443   4.217   3.049
13437TIP3   OH240267   1.253   1.870   5.620
13437TIP3    H140268   1.218   1.915   5.543
13437TIP3    H240269   1.247   1.934   5.691
13438TIP3   OH240270   3.578   4.106   0.254
13438TIP3    H140271   3.541   4.018   0.259
13438TIP3    H240272   3.667   4.097   0.287
13439TIP3   OH240273   5.492   2.213   1.489
13439TIP3    H140274   5.583   2.222   1.460
13439TIP3    H240275   5.440   2.229   1.411
13440TIP3   OH240276   6.432   2.220   0.972
13440TIP3    H140277   6.347   2.176   0.976
13440TIP3    H240278   6.436   2.256   0.883
13441TIP3   OH240279   6.312   0.387   2.569
13441TIP3    H140280   6.375   0.413   2.502
13441TIP3    H240281   6.339   0.435   2.647
13442TIP3   OH240282   0.132   5.057   4.977
13442TIP3    H140283   0.039   5.052   4.953
13442TIP3    H240284   0.178   5.024   4.899
13443TIP3   OH240285   3.252   1.616   6.603
13443TIP3    H140286   3.170   1.638   6.558
13443TIP3    H240287   3.317   1.611   6.534
13444TIP3   OH240288   3.338   6.623   3.775
13444TIP3    H140289   3.373   6.574   3.700
13444TIP3    H240290   3.255   6.579   3.795
13445TIP3   OH240291   1.195   3.394   1.746
13445TIP3    H140292   1.113   3.366   1.705
13445TIP3    H240293   1.226   3.467   1.693
13446TIP3   OH240294   2.299   6.062   1.255
13446TIP3    H140295   2.268   5.979   1.293
13446TIP3    H240296   2.226   6.092   1.201
13447TIP3   OH240297   2.076   5.919   0.371
13447TIP3    H140298   2.080   5.829   0.404
13447TIP3    H240299   2.165   5.952   0.383
13448TIP3   OH240300   3.339   3.456   2.535
13448TIP3    H140301   3.290   3.518   2.481
13448TIP3    H240302   3.361   3.505   2.614
13449TIP3   OH240303   4.438   3.032   5.638
13449TIP3    H140304   4.411   3.008   5.549
13449TIP3    H240305   4.371   2.994   5.694
13450TIP3   OH240306   6.915   7.169   3.263
13450TIP3    H140307   6.973   7.096   3.241
13450TIP3    H240308   6.875   7.144   3.346
13451TIP3   OH240309   8.221   5.076   0.346
13451TIP3    H140310   8.138   5.117   0.326
13451TIP3    H240311   8.197   4.990   0.381
13452TIP3   OH240312   1.855   2.590   0.460
13452TIP3    H140313   1.934   2.566   0.411
13452TIP3    H240314   1.882   2.586   0.552
13453TIP3   OH240315   5.955   1.411   4.962
13453TIP3    H140316   5.948   1.318   4.942
13453TIP3    H240317   6.047   1.424   4.985
13454TIP3   OH240318   0.124   3.946   0.550
13454TIP3    H140319   0.165   3.860   0.545
13454TIP3    H240320   0.118   3.964   0.644
13455TIP3   OH240321   1.800   3.085   0.581
13455TIP3    H140322   1.741   3.109   0.653
13455TIP3    H240323   1.761   3.125   0.503
13456TIP3   OH240324   5.143   4.793   0.498
13456TIP3    H140325   5.224   4.813   0.452
13456TIP3    H240326   5.170   4.780   0.589
13457TIP3   OH240327   2.945   5.547   4.623
13457TIP3    H140328   2.907   5.464   4.654
13457TIP3    H240329   2.947   5.538   4.528
13458TIP3   OH240330   4.598   1.815   5.260
13458TIP3    H140331   4.564   1.765   5.186
13458TIP3    H240332   4.650   1.752   5.310
13459TIP3   OH240333   4.182   0.450   6.106
13459TIP3    H140334   4.150   0.525   6.156
13459TIP3    H240335   4.196   0.484   6.018
13460TIP3   OH240336   6.843   2.045   6.699
13460TIP3    H140337   6.752   2.038   6.730
13460TIP3    H240338   6.836   2.039   6.604
13461TIP3   OH240339   3.597   7.041   6.033
13461TIP3    H140340   3.566   7.010   5.947
13461TIP3    H240341   3.521   7.086   6.070
13462TIP3   OH240342   0.138   5.837   5.722
13462TIP3    H140343   0.098   5.895   5.788
13462TIP3    H240344   0.086   5.852   5.643
13463TIP3   OH240345   8.152   6.188   6.523
13463TIP3    H140346   8.170   6.280   6.503
13463TIP3    H240347   8.121   6.189   6.614
13464TIP3   OH240348   6.715   2.022   1.003
13464TIP3    H140349   6.741   1.965   1.075
13464TIP3    H240350   6.637   2.067   1.034
13465TIP3   OH240351   0.570   5.748   3.864
13465TIP3    H140352   0.484   5.787   3.882
13465TIP3    H240353   0.549   5.660   3.831
13466TIP3   OH240354   4.680   4.510   5.818
13466TIP3    H140355   4.717   4.585   5.772
13466TIP3    H240356   4.751   4.478   5.874
13467TIP3   OH240357   4.102   5.470   3.955
13467TIP3    H140358   4.080   5.463   3.863
13467TIP3    H240359   4.115   5.564   3.970
13468TIP3   OH240360   3.469   7.173   3.653
13468TIP3    H140361   3.412   7.245   3.626
13468TIP3    H240362   3.501   7.136   3.570
13469TIP3   OH240363   4.444   6.917   2.844
13469TIP3    H140364   4.525   6.927   2.894
13469TIP3    H240365   4.413   7.007   2.831
13470TIP3   OH240366   0.702   7.380   3.572
13470TIP3    H140367   0.753   7.304   3.598
13470TIP3    H240368   0.700   7.436   3.650
13471TIP3   OH240369   7.556   5.702   6.538
13471TIP3    H140370   7.628   5.738   6.487
13471TIP3    H240371   7.497   5.777   6.551
13472TIP3   OH240372   6.410   5.798   4.019
13472TIP3    H140373   6.497   5.761   4.027
13472TIP3    H240374   6.352   5.734   4.060
13473TIP3   OH240375   3.243   7.673   0.320
13473TIP3    H140376   3.295   7.743   0.358
13473TIP3    H240377   3.303   7.598   0.316
13474TIP3   OH240378   6.968   0.291   1.739
13474TIP3    H140379   7.022   0.243   1.677
13474TIP3    H240380   7.030   0.345   1.789
13475TIP3   OH240381   1.457   3.126   3.591
13475TIP3    H140382   1.541   3.153   3.552
13475TIP3    H240383   1.427   3.203   3.638
13476TIP3   OH240384   4.544   6.551   6.031
13476TIP3    H140385   4.497   6.473   6.001
13476TIP3    H240386   4.629   6.546   5.986
13477TIP3   OH240387   7.883   7.777   6.061
13477TIP3    H140388   7.943   7.779   5.986
13477TIP3    H240389   7.818   7.711   6.038
13478TIP3   OH240390   7.373   1.718   2.840
13478TIP3    H140391   7.406   1.772   2.911
13478TIP3    H240392   7.451   1.691   2.792
13479TIP3   OH240393   0.049   3.720   3.276
13479TIP3    H140394   0.074   3.757   3.361
13479TIP3    H240395   0.071   3.789   3.213
13480TIP3   OH240396   6.278   6.091   0.773
13480TIP3    H140397   6.274   6.081   0.678
13480TIP3    H240398   6.188   6.077   0.802
13481TIP3   OH240399   4.849   3.414   3.545
13481TIP3    H140400   4.780   3.470   3.509
13481TIP3    H240401   4.925   3.472   3.552
13482TIP3   OH240402   2.501   5.856   4.791
13482TIP3    H140403   2.590   5.832   4.768
13482TIP3    H240404   2.453   5.773   4.792
13483TIP3   OH240405   4.675   6.372   0.653
13483TIP3    H140406   4.717   6.454   0.628
13483TIP3    H240407   4.585   6.396   0.673
13484TIP3   OH240408   4.528   6.382   1.129
13484TIP3    H140409   4.581   6.428   1.063
13484TIP3    H240410   4.454   6.347   1.079
13485TIP3   OH240411   3.649   0.836   1.749
13485TIP3    H140412   3.627   0.775   1.679
13485TIP3    H240413   3.713   0.789   1.802
13486TIP3   OH240414   3.100   2.602   1.176
13486TIP3    H140415   3.030   2.653   1.136
13486TIP3    H240416   3.054   2.527   1.215
13487TIP3   OH240417   7.344   6.678   2.964
13487TIP3    H140418   7.388   6.686   3.048
13487TIP3    H240419   7.251   6.687   2.984
13488TIP3   OH240420   5.158   5.288   5.343
13488TIP3    H140421   5.233   5.230   5.329
13488TIP3    H240422   5.100   5.271   5.269
13489TIP3   OH240423   1.976   6.641   4.256
13489TIP3    H140424   2.042   6.645   4.325
13489TIP3    H240425   2.008   6.573   4.197
13490TIP3   OH240426   4.256   0.682   5.356
13490TIP3    H140427   4.273   0.610   5.296
13490TIP3    H240428   4.252   0.760   5.300
13491TIP3   OH240429   0.957   3.351   3.162
13491TIP3    H140430   0.957   3.262   3.127
13491TIP3    H240431   0.865   3.377   3.162
13492TIP3   OH240432   5.808   5.206   1.139
13492TIP3    H140433   5.812   5.130   1.080
13492TIP3    H240434   5.737   5.260   1.103
13493TIP3   OH240435   1.148   1.389   4.668
13493TIP3    H140436   1.095   1.314   4.693
13493TIP3    H240437   1.200   1.358   4.594
13494TIP3   OH240438   4.361   1.091   0.625
13494TIP3    H140439   4.282   1.112   0.675
13494TIP3    H240440   4.395   1.176   0.598
13495TIP3   OH240441   3.524   6.070   5.368
13495TIP3    H140442   3.505   6.116   5.287
13495TIP3    H240443   3.438   6.048   5.404
13496TIP3   OH240444   6.841   4.790   3.614
13496TIP3    H140445   6.879   4.734   3.682
13496TIP3    H240446   6.912   4.850   3.590
13497TIP3   OH240447   2.789   2.570   1.089
13497TIP3    H140448   2.707   2.529   1.060
13497TIP3    H240449   2.819   2.513   1.160
13498TIP3   OH240450   3.150   1.007   0.850
13498TIP3    H140451   3.129   1.096   0.877
13498TIP3    H240452   3.119   0.953   0.923
13499TIP3   OH240453   4.347   1.948   0.097
13499TIP3    H140454   4.343   1.973   0.189
13499TIP3    H240455   4.262   1.908   0.080
13500TIP3   OH240456   0.807   4.923   4.790
13500TIP3    H140457   0.902   4.911   4.781
13500TIP3    H240458   0.771   4.889   4.708
13501TIP3   OH240459   5.632   6.464   3.088
13501TIP3    H140460   5.540   6.488   3.101
13501TIP3    H240461   5.629   6.385   3.035
13502TIP3   OH240462   4.321   3.182   1.253
13502TIP3    H140463   4.344   3.185   1.160
13502TIP3    H240464   4.278   3.266   1.270
13503TIP3   OH240465   6.860   4.961   4.623
13503TIP3    H140466   6.833   5.052   4.638
13503TIP3    H240467   6.865   4.954   4.527
13504TIP3   OH240468   1.280   5.522   0.730
13504TIP3    H140469   1.288   5.477   0.814
13504TIP3    H240470   1.288   5.615   0.752
13505TIP3   OH240471   3.215   4.281   5.218
13505TIP3    H140472   3.304   4.247   5.204
13505TIP3    H240473   3.227   4.375   5.229
13506TIP3   OH240474   2.627   4.675   0.909
13506TIP3    H140475   2.694   4.619   0.948
13506TIP3    H240476   2.666   4.762   0.910
13507TIP3   OH240477   5.686   2.469   1.424
13507TIP3    H140478   5.596   2.463   1.456
13507TIP3    H240479   5.678   2.463   1.329
13508TIP3   OH240480   0.538   3.967   2.354
13508TIP3    H140481   0.633   3.976   2.358
13508TIP3    H240482   0.511   3.961   2.446
13509TIP3   OH240483   2.702   4.500   5.519
13509TIP3    H140484   2.777   4.492   5.460
13509TIP3    H240485   2.659   4.582   5.492
13510TIP3   OH240486   8.079   1.296   3.734
13510TIP3    H140487   8.016   1.346   3.786
13510TIP3    H240488   8.093   1.348   3.655
13511TIP3   OH240489   8.038   4.819   6.653
13511TIP3    H140490   8.041   4.754   6.724
13511TIP3    H240491   8.122   4.807   6.608
13512TIP3   OH240492   0.668   6.914   0.157
13512TIP3    H140493   0.642   6.845   0.096
13512TIP3    H240494   0.764   6.913   0.154
13513TIP3   OH240495   4.649   7.020   2.971
13513TIP3    H140496   4.690   7.106   2.965
13513TIP3    H240497   4.672   6.989   3.059
13514TIP3   OH240498   2.346   4.282   6.214
13514TIP3    H140499   2.275   4.221   6.193
13514TIP3    H240500   2.391   4.296   6.130
13515TIP3   OH240501   2.994   3.240   3.869
13515TIP3    H140502   3.019   3.149   3.887
13515TIP3    H240503   2.917   3.255   3.924
13516TIP3   OH240504   3.196   7.819   4.668
13516TIP3    H140505   3.103   7.828   4.651
13516TIP3    H240506   3.207   7.845   4.759
13517TIP3   OH240507   7.723   6.325   5.872
13517TIP3    H140508   7.798   6.380   5.895
13517TIP3    H240509   7.647   6.379   5.890
13518TIP3   OH240510   4.845   1.774   0.598
13518TIP3    H140511   4.852   1.831   0.674
13518TIP3    H240512   4.912   1.707   0.611
13519TIP3   OH240513   1.641   1.887   0.408
13519TIP3    H140514   1.688   1.805   0.397
13519TIP3    H240515   1.599   1.880   0.494
13520TIP3   OH240516   0.633   4.134   6.156
13520TIP3    H140517   0.563   4.070   6.173
13520TIP3    H240518   0.703   4.108   6.216
13521TIP3   OH240519   2.740   6.223   4.767
13521TIP3    H140520   2.646   6.203   4.759
13521TIP3    H240521   2.760   6.210   4.859
13522TIP3   OH240522   4.967   2.467   6.318
13522TIP3    H140523   4.926   2.539   6.367
13522TIP3    H240524   4.893   2.410   6.295
13523TIP3   OH240525   1.923   4.291   5.121
13523TIP3    H140526   1.842   4.342   5.117
13523TIP3    H240527   1.900   4.214   5.173
13524TIP3   OH240528   3.627   5.022   3.201
13524TIP3    H140529   3.599   4.980   3.282
13524TIP3    H240530   3.675   4.954   3.153
13525TIP3   OH240531   4.888   2.558   3.067
13525TIP3    H140532   4.870   2.594   3.154
13525TIP3    H240533   4.850   2.470   3.069
13526TIP3   OH240534   7.074   5.662   2.139
13526TIP3    H140535   6.984   5.640   2.162
13526TIP3    H240536   7.070   5.683   2.046
13527TIP3   OH240537   2.395   5.691   2.827
13527TIP3    H140538   2.374   5.614   2.880
13527TIP3    H240539   2.342   5.680   2.748
13528TIP3   OH240540   1.927   7.206   1.221
13528TIP3    H140541   1.834   7.206   1.243
13528TIP3    H240542   1.970   7.181   1.303
13529TIP3   OH240543   3.750   1.494   0.466
13529TIP3    H140544   3.760   1.522   0.557
13529TIP3    H240545   3.693   1.417   0.470
13530TIP3   OH240546   2.622   3.454   3.629
13530TIP3    H140547   2.618   3.526   3.566
13530TIP3    H240548   2.575   3.487   3.706
13531TIP3   OH240549   2.025   5.953   2.149
13531TIP3    H140550   1.938   5.918   2.132
13531TIP3    H240551   2.028   6.036   2.101
13532TIP3   OH240552   0.037   1.776   6.279
13532TIP3    H140553   0.069   1.758   6.191
13532TIP3    H240554  -0.036   1.716   6.291
13533TIP3   OH240555   2.357   6.345   2.084
13533TIP3    H140556   2.282   6.335   2.024
13533TIP3    H240557   2.424   6.287   2.048
13534TIP3   OH240558   6.874   2.971   4.442
13534TIP3    H140559   6.879   2.883   4.404
13534TIP3    H240560   6.789   3.005   4.411
13535TIP3   OH240561   5.873   7.564   3.718
13535TIP3    H140562   5.895   7.478   3.751
13535TIP3    H240563   5.856   7.550   3.625
13536TIP3   OH240564   6.421   0.031   2.447
13536TIP3    H140565   6.431   0.041   2.352
13536TIP3    H240566   6.327   0.045   2.463
13537TIP3   OH240567   1.166   7.000   0.134
13537TIP3    H140568   1.175   7.095   0.122
13537TIP3    H240569   1.161   6.965   0.045
13538TIP3   OH240570   4.950   3.636   4.593
13538TIP3    H140571   4.912   3.681   4.668
13538TIP3    H240572   5.022   3.584   4.630
13539TIP3   OH240573   5.104   2.711   6.277
13539TIP3    H140574   5.065   2.753   6.200
13539TIP3    H240575   5.185   2.759   6.293
13540TIP3   OH240576   3.235   1.220   3.748
13540TIP3    H140577   3.326   1.199   3.727
13540TIP3    H240578   3.184   1.183   3.676
13541TIP3   OH240579   6.317   6.440   1.591
13541TIP3    H140580   6.266   6.371   1.549
13541TIP3    H240581   6.367   6.479   1.519
13542TIP3   OH240582   0.531   5.438   2.704
13542TIP3    H140583   0.449   5.444   2.752
13542TIP3    H240584   0.530   5.513   2.645
13543TIP3   OH240585   7.613   2.805   5.315
13543TIP3    H140586   7.645   2.719   5.289
13543TIP3    H240587   7.541   2.787   5.375
13544TIP3   OH240588   4.926   4.005   4.458
13544TIP3    H140589   4.976   3.924   4.463
13544TIP3    H240590   4.972   4.058   4.393
13545TIP3   OH240591   8.024   6.895   0.356
13545TIP3    H140592   8.023   6.983   0.319
13545TIP3    H240593   8.035   6.837   0.280
13546TIP3   OH240594   2.659   7.274   2.103
13546TIP3    H140595   2.706   7.213   2.045
13546TIP3    H240596   2.572   7.283   2.063
13547TIP3   OH240597   3.094   4.229   3.494
13547TIP3    H140598   3.066   4.315   3.523
13547TIP3    H240599   3.126   4.243   3.405
13548TIP3   OH240600   3.256   3.310   5.595
13548TIP3    H140601   3.208   3.308   5.677
13548TIP3    H240602   3.279   3.402   5.583
13549TIP3   OH240603   1.471   3.731   3.315
13549TIP3    H140604   1.427   3.697   3.238
13549TIP3    H240605   1.550   3.773   3.282
13550TIP3   OH240606   6.065   6.757   2.056
13550TIP3    H140607   6.019   6.838   2.080
13550TIP3    H240608   6.005   6.713   1.996
13551TIP3   OH240609   0.398   0.168   1.178
13551TIP3    H140610   0.303   0.158   1.182
13551TIP3    H240611   0.432   0.079   1.180
13552TIP3   OH240612   4.875   3.451   1.062
13552TIP3    H140613   4.831   3.369   1.085
13552TIP3    H240614   4.867   3.456   0.966
13553TIP3   OH240615   6.226   2.908   6.631
13553TIP3    H140616   6.309   2.864   6.611
13553TIP3    H240617   6.249   3.001   6.639
13554TIP3   OH240618   4.649   4.166   0.437
13554TIP3    H140619   4.716   4.146   0.502
13554TIP3    H240620   4.591   4.090   0.438
13555TIP3   OH240621   6.020   4.460   0.201
13555TIP3    H140622   5.974   4.533   0.159
13555TIP3    H240623   6.108   4.462   0.164
13556TIP3   OH240624   2.771   1.833   1.758
13556TIP3    H140625   2.723   1.751   1.756
13556TIP3    H240626   2.725   1.887   1.823
13557TIP3   OH240627   7.557   7.234   3.121
13557TIP3    H140628   7.615   7.257   3.193
13557TIP3    H240629   7.469   7.244   3.157
13558TIP3   OH240630   3.521   6.843   3.769
13558TIP3    H140631   3.452   6.779   3.785
13558TIP3    H240632   3.496   6.885   3.687
13559TIP3   OH240633   3.364   0.438   3.248
13559TIP3    H140634   3.358   0.347   3.276
13559TIP3    H240635   3.289   0.481   3.290
13560TIP3   OH240636   3.911   4.699   0.399
13560TIP3    H140637   3.922   4.773   0.340
13560TIP3    H240638   3.913   4.622   0.341
13561TIP3   OH240639   0.733   6.677   2.535
13561TIP3    H140640   0.759   6.608   2.595
13561TIP3    H240641   0.790   6.751   2.556
13562TIP3   OH240642   2.922   7.638   5.386
13562TIP3    H140643   2.830   7.635   5.359
13562TIP3    H240644   2.919   7.633   5.482
13563TIP3   OH240645   4.812   1.706   2.460
13563TIP3    H140646   4.852   1.784   2.498
13563TIP3    H240647   4.782   1.655   2.535
13564TIP3   OH240648   6.967   1.105   5.849
13564TIP3    H140649   6.932   1.123   5.936
13564TIP3    H240650   7.049   1.060   5.865
13565TIP3   OH240651   6.711   1.621   3.381
13565TIP3    H140652   6.749   1.653   3.300
13565TIP3    H240653   6.656   1.547   3.355
13566TIP3   OH240654   5.515   3.324   4.950
13566TIP3    H140655   5.587   3.369   4.905
13566TIP3    H240656   5.489   3.385   5.020
13567TIP3   OH240657   2.276   6.150   2.810
13567TIP3    H140658   2.331   6.224   2.783
13567TIP3    H240659   2.292   6.082   2.745
13568TIP3   OH240660   0.576   3.555   6.414
13568TIP3    H140661   0.577   3.650   6.420
13568TIP3    H240662   0.494   3.535   6.368
13569TIP3   OH240663   3.661   0.746   0.443
13569TIP3    H140664   3.718   0.788   0.379
13569TIP3    H240665   3.616   0.677   0.394
13570TIP3   OH240666   0.058   2.977   2.797
13570TIP3    H140667  -0.007   3.015   2.739
13570TIP3    H240668   0.008   2.939   2.869
13571TIP3   OH240669   3.884   0.047   5.812
13571TIP3    H140670   3.897   0.086   5.726
13571TIP3    H240671   3.943   0.094   5.870
13572TIP3   OH240672   1.696   3.798   0.987
13572TIP3    H140673   1.659   3.870   0.937
13572TIP3    H240674   1.685   3.823   1.078
13573TIP3   OH240675   6.245   6.299   3.062
13573TIP3    H140676   6.171   6.358   3.079
13573TIP3    H240677   6.253   6.298   2.967
13574TIP3   OH240678   2.763   6.456   5.282
13574TIP3    H140679   2.702   6.492   5.346
13574TIP3    H240680   2.811   6.388   5.331
13575TIP3   OH240681   4.930   1.843   3.845
13575TIP3    H140682   4.989   1.805   3.780
13575TIP3    H240683   4.854   1.785   3.844
13576TIP3   OH240684   0.081   7.538   0.732
13576TIP3    H140685   0.108   7.460   0.683
13576TIP3    H240686   0.023   7.505   0.800
13577TIP3   OH240687   0.057   2.548   5.759
13577TIP3    H140688  -0.038   2.556   5.770
13577TIP3    H240689   0.093   2.585   5.839
13578TIP3   OH240690   4.725   0.872   4.341
13578TIP3    H140691   4.757   0.836   4.424
13578TIP3    H240692   4.791   0.848   4.277
13579TIP3   OH240693   3.342   6.460   6.679
13579TIP3    H140694   3.248   6.479   6.676
13579TIP3    H240695   3.356   6.397   6.608
13580TIP3   OH240696   2.308   6.653   5.752
13580TIP3    H140697   2.316   6.576   5.695
13580TIP3    H240698   2.266   6.719   5.698
13581TIP3   OH240699   4.991   2.414   5.082
13581TIP3    H140700   4.985   2.447   4.992
13581TIP3    H240701   4.951   2.328   5.078
13582TIP3   OH240702   5.482   2.838   1.698
13582TIP3    H140703   5.497   2.871   1.609
13582TIP3    H240704   5.420   2.900   1.737
13583TIP3   OH240705   2.167   0.074   5.329
13583TIP3    H140706   2.111   0.011   5.375
13583TIP3    H240707   2.180   0.145   5.392
13584TIP3   OH240708   2.790   6.401   1.359
13584TIP3    H140709   2.719   6.438   1.307
13584TIP3    H240710   2.783   6.307   1.345
13585TIP3   OH240711   6.342   6.839   4.640
13585TIP3    H140712   6.396   6.831   4.561
13585TIP3    H240713   6.374   6.769   4.697
13586TIP3   OH240714   2.748   2.864   6.475
13586TIP3    H140715   2.662   2.904   6.463
13586TIP3    H240716   2.809   2.927   6.436
13587TIP3   OH240717   6.216   2.705   2.151
13587TIP3    H140718   6.137   2.734   2.105
13587TIP3    H240719   6.267   2.785   2.165
13588TIP3   OH240720   0.558   6.829   5.514
13588TIP3    H140721   0.567   6.824   5.609
13588TIP3    H240722   0.616   6.761   5.481
13589TIP3   OH240723   7.601   6.065   0.628
13589TIP3    H140724   7.613   5.970   0.629
13589TIP3    H240725   7.517   6.079   0.672
13590TIP3   OH240726   6.931   0.380   1.264
13590TIP3    H140727   6.939   0.473   1.243
13590TIP3    H240728   6.881   0.343   1.191
13591TIP3   OH240729   2.043   7.693   5.999
13591TIP3    H140730   2.009   7.738   5.923
13591TIP3    H240731   2.137   7.714   6.000
13592TIP3   OH240732   0.025   6.101   3.024
13592TIP3    H140733  -0.029   6.083   3.101
13592TIP3    H240734  -0.026   6.163   2.972
13593TIP3   OH240735   7.208   5.584   0.375
13593TIP3    H140736   7.191   5.491   0.356
13593TIP3    H240737   7.246   5.584   0.462
13594TIP3   OH240738   1.583   4.547   1.441
13594TIP3    H140739   1.558   4.637   1.421
13594TIP3    H240740   1.616   4.513   1.358
13595TIP3   OH240741   6.833   0.095   5.311
13595TIP3    H140742   6.806   0.184   5.291
13595TIP3    H240743   6.913   0.082   5.259
13596TIP3   OH240744   2.150   5.425   1.844
13596TIP3    H140745   2.093   5.500   1.826
13596TIP3    H240746   2.232   5.463   1.872
13597TIP3   OH240747   5.351   5.225   1.479
13597TIP3    H140748   5.433   5.187   1.446
13597TIP3    H240749   5.378   5.288   1.545
13598TIP3   OH240750   1.666   6.088   1.884
13598TIP3    H140751   1.649   6.005   1.839
13598TIP3    H240752   1.628   6.155   1.828
13599TIP3   OH240753   1.082   2.137   3.915
13599TIP3    H140754   1.142   2.178   3.853
13599TIP3    H240755   1.047   2.061   3.869
13600TIP3   OH240756   6.937   5.387   1.211
13600TIP3    H140757   6.860   5.330   1.219
13600TIP3    H240758   6.942   5.432   1.295
13601TIP3   OH240759   3.946   5.789   5.863
13601TIP3    H140760   3.877   5.787   5.798
13601TIP3    H240761   3.940   5.876   5.902
13602TIP3   OH240762   7.070   0.088   5.157
13602TIP3    H140763   7.101   0.011   5.109
13602TIP3    H240764   7.142   0.109   5.217
13603TIP3   OH240765   7.658   3.825   0.114
13603TIP3    H140766   7.595   3.810   0.185
13603TIP3    H240767   7.623   3.775   0.040
13604TIP3   OH240768   1.146   1.108   2.718
13604TIP3    H140769   1.088   1.172   2.760
13604TIP3    H240770   1.227   1.111   2.770
13605TIP3   OH240771   2.390   6.548   2.774
13605TIP3    H140772   2.324   6.508   2.717
13605TIP3    H240773   2.376   6.507   2.859
13606TIP3   OH240774   7.990   6.315   3.487
13606TIP3    H140775   8.009   6.231   3.529
13606TIP3    H240776   7.898   6.310   3.464
13607TIP3   OH240777   8.185   6.516   0.455
13607TIP3    H140778   8.177   6.584   0.389
13607TIP3    H240779   8.274   6.483   0.445
13608TIP3   OH240780   2.282   6.683   1.466
13608TIP3    H140781   2.269   6.704   1.559
13608TIP3    H240782   2.375   6.698   1.451
13609TIP3   OH240783   2.834   5.664   0.486
13609TIP3    H140784   2.874   5.659   0.399
13609TIP3    H240785   2.753   5.614   0.478
13610TIP3   OH240786   8.059   2.124   0.649
13610TIP3    H140787   8.142   2.087   0.619
13610TIP3    H240788   7.993   2.059   0.623
13611TIP3   OH240789   1.952   3.029   1.557
13611TIP3    H140790   1.894   3.085   1.505
13611TIP3    H240791   1.996   3.090   1.617
13612TIP3   OH240792   0.059   7.380   0.986
13612TIP3    H140793   0.081   7.291   0.960
13612TIP3    H240794   0.144   7.421   1.005
13613TIP3   OH240795   5.755   3.876   5.431
13613TIP3    H140796   5.802   3.858   5.349
13613TIP3    H240797   5.793   3.957   5.464
13614TIP3   OH240798   1.105   2.351   1.041
13614TIP3    H140799   1.047   2.285   1.079
13614TIP3    H240800   1.191   2.309   1.037
13615TIP3   OH240801   0.480   4.940   3.486
13615TIP3    H140802   0.547   4.956   3.419
13615TIP3    H240803   0.433   4.862   3.454
13616TIP3   OH240804   2.093   1.717   1.824
13616TIP3    H140805   2.130   1.697   1.910
13616TIP3    H240806   2.055   1.635   1.795
13617TIP3   OH240807   5.028   2.123   3.852
13617TIP3    H140808   5.019   2.029   3.841
13617TIP3    H240809   4.939   2.155   3.865
13618TIP3   OH240810   4.750   0.792   5.194
13618TIP3    H140811   4.778   0.708   5.156
13618TIP3    H240812   4.702   0.767   5.273
13619TIP3   OH240813   4.958   5.236   3.672
13619TIP3    H140814   5.002   5.153   3.654
13619TIP3    H240815   4.897   5.247   3.599
13620TIP3   OH240816   0.022   5.540   5.370
13620TIP3    H140817   0.099   5.556   5.316
13620TIP3    H240818  -0.023   5.468   5.326
13621TIP3   OH240819   7.698   1.021   0.991
13621TIP3    H140820   7.686   1.111   1.022
13621TIP3    H240821   7.793   1.009   0.990
13622TIP3   OH240822   7.326   6.085   0.184
13622TIP3    H140823   7.360   5.996   0.184
13622TIP3    H240824   7.394   6.136   0.228
13623TIP3   OH240825   2.302   4.079   2.314
13623TIP3    H140826   2.386   4.111   2.280
13623TIP3    H240827   2.272   4.148   2.373
13624TIP3   OH240828   0.620   1.114   1.564
13624TIP3    H140829   0.648   1.027   1.533
13624TIP3    H240830   0.634   1.172   1.489
13625TIP3   OH240831   2.423   6.769   5.006
13625TIP3    H140832   2.454   6.859   5.000
13625TIP3    H240833   2.409   6.742   4.915
13626TIP3   OH240834   2.416   3.016   4.728
13626TIP3    H140835   2.500   3.052   4.701
13626TIP3    H240836   2.416   2.926   4.694
13627TIP3   OH240837   6.307   7.748   6.166
13627TIP3    H140838   6.343   7.829   6.201
13627TIP3    H240839   6.317   7.684   6.237
13628TIP3   OH240840   3.419   7.145   2.807
13628TIP3    H140841   3.411   7.098   2.724
13628TIP3    H240842   3.390   7.082   2.873
13629TIP3   OH240843   7.676   5.019   5.304
13629TIP3    H140844   7.627   5.101   5.314
13629TIP3    H240845   7.668   4.997   5.211
13630TIP3   OH240846   8.132   7.021   6.135
13630TIP3    H140847   8.044   6.997   6.105
13630TIP3    H240848   8.191   6.971   6.077
13631TIP3   OH240849   6.216   1.596   6.244
13631TIP3    H140850   6.251   1.626   6.327
13631TIP3    H240851   6.253   1.655   6.179
13632TIP3   OH240852   5.936   7.641   5.962
13632TIP3    H140853   5.949   7.716   6.020
13632TIP3    H240854   6.020   7.632   5.917
13633TIP3   OH240855   1.933   7.661   3.753
13633TIP3    H140856   1.879   7.739   3.754
13633TIP3    H240857   1.984   7.666   3.834
13634TIP3   OH240858   2.643   5.568   4.445
13634TIP3    H140859   2.644   5.472   4.448
13634TIP3    H240860   2.575   5.593   4.507
13635TIP3   OH240861   0.227   5.725   1.706
13635TIP3    H140862   0.153   5.712   1.765
13635TIP3    H240863   0.188   5.726   1.619
13636TIP3   OH240864   1.859   1.919   0.847
13636TIP3    H140865   1.865   2.012   0.869
13636TIP3    H240866   1.766   1.899   0.851
13637TIP3   OH240867   8.284   2.539   6.083
13637TIP3    H140868   8.342   2.615   6.079
13637TIP3    H240869   8.241   2.536   5.997
13638TIP3   OH240870   1.371   2.062   2.859
13638TIP3    H140871   1.401   2.020   2.939
13638TIP3    H240872   1.306   2.002   2.823
13639TIP3   OH240873   3.815   1.093   1.700
13639TIP3    H140874   3.754   1.023   1.725
13639TIP3    H240875   3.868   1.055   1.630
13640TIP3   OH240876   5.878   6.989   2.974
13640TIP3    H140877   5.809   6.923   2.967
13640TIP3    H240878   5.909   6.983   3.064
13641TIP3   OH240879   0.590   5.637   2.514
13641TIP3    H140880   0.574   5.616   2.422
13641TIP3    H240881   0.683   5.622   2.526
13642TIP3   OH240882   1.701   7.170   1.986
13642TIP3    H140883   1.653   7.087   1.990
13642TIP3    H240884   1.682   7.212   2.069
13643TIP3   OH240885   7.122   1.941   3.333
13643TIP3    H140886   7.074   2.008   3.382
13643TIP3    H240887   7.053   1.887   3.293
13644TIP3   OH240888   0.978   1.357  -0.006
13644TIP3    H140889   0.918   1.312   0.053
13644TIP3    H240890   1.028   1.416   0.051
13645TIP3   OH240891   4.752   7.318   5.375
13645TIP3    H140892   4.700   7.396   5.353
13645TIP3    H240893   4.816   7.311   5.304
13646TIP3   OH240894   4.712   2.517   5.789
13646TIP3    H140895   4.729   2.517   5.695
13646TIP3    H240896   4.665   2.599   5.805
13647TIP3   OH240897   5.901   1.372   2.384
13647TIP3    H140898   5.943   1.456   2.365
13647TIP3    H240899   5.973   1.314   2.408
13648TIP3   OH240900   3.905   0.551   4.704
13648TIP3    H140901   3.821   0.581   4.736
13648TIP3    H240902   3.885   0.474   4.650
13649TIP3   OH240903   6.417   7.041   5.406
13649TIP3    H140904   6.409   7.044   5.311
13649TIP3    H240905   6.363   6.966   5.432
13650TIP3   OH240906   0.879   3.243   1.088
13650TIP3    H140907   0.944   3.308   1.062
13650TIP3    H240908   0.906   3.216   1.176
13651TIP3   OH240909   7.597   3.641   3.443
13651TIP3    H140910   7.691   3.641   3.426
13651TIP3    H240911   7.586   3.698   3.519
13652TIP3   OH240912   0.619   0.872   6.054
13652TIP3    H140913   0.625   0.806   6.123
13652TIP3    H240914   0.710   0.894   6.034
13653TIP3   OH240915   2.504   3.355   2.629
13653TIP3    H140916   2.515   3.260   2.634
13653TIP3    H240917   2.410   3.368   2.635
13654TIP3   OH240918   6.763   4.707   0.581
13654TIP3    H140919   6.715   4.624   0.578
13654TIP3    H240920   6.842   4.692   0.530
13655TIP3   OH240921   3.448   1.057   2.789
13655TIP3    H140922   3.476   0.983   2.734
13655TIP3    H240923   3.499   1.048   2.870
13656TIP3   OH240924   2.757   1.940   2.428
13656TIP3    H140925   2.731   1.859   2.472
13656TIP3    H240926   2.852   1.938   2.427
13657TIP3   OH240927   3.035   3.185   1.912
13657TIP3    H140928   3.044   3.277   1.888
13657TIP3    H240929   2.941   3.170   1.921
13658TIP3   OH240930   6.642   6.492   2.217
13658TIP3    H140931   6.708   6.504   2.149
13658TIP3    H240932   6.688   6.448   2.288
13659TIP3   OH240933   1.149   7.170   1.612
13659TIP3    H140934   1.105   7.248   1.580
13659TIP3    H240935   1.125   7.101   1.550
13660TIP3   OH240936   7.565   5.517   6.740
13660TIP3    H140937   7.491   5.459   6.721
13660TIP3    H240938   7.557   5.587   6.674
13661TIP3   OH240939   1.924   0.822   6.688
13661TIP3    H140940   1.863   0.876   6.637
13661TIP3    H240941   1.884   0.816   6.775
13662TIP3   OH240942   6.736   5.827   4.649
13662TIP3    H140943   6.741   5.911   4.694
13662TIP3    H240944   6.645   5.820   4.621
13663TIP3   OH240945   0.759   4.382   2.836
13663TIP3    H140946   0.707   4.332   2.774
13663TIP3    H240947   0.782   4.463   2.789
13664TIP3   OH240948   1.684   6.139   6.294
13664TIP3    H140949   1.754   6.204   6.284
13664TIP3    H240950   1.620   6.163   6.228
13665TIP3   OH240951   7.086   3.462   0.728
13665TIP3    H140952   7.093   3.552   0.761
13665TIP3    H240953   7.025   3.467   0.655
13666TIP3   OH240954   0.862   5.741   0.507
13666TIP3    H140955   0.911   5.773   0.431
13666TIP3    H240956   0.799   5.810   0.525
13667TIP3   OH240957   8.057   7.727   2.815
13667TIP3    H140958   7.995   7.788   2.775
13667TIP3    H240959   8.143   7.762   2.793
13668TIP3   OH240960   0.843   7.213   2.630
13668TIP3    H140961   0.806   7.300   2.615
13668TIP3    H240962   0.828   7.196   2.723
13669TIP3   OH240963   6.752   6.918   1.689
13669TIP3    H140964   6.844   6.897   1.673
13669TIP3    H240965   6.740   7.004   1.648
13670TIP3   OH240966   6.002   4.042   1.901
13670TIP3    H140967   5.985   4.091   1.820
13670TIP3    H240968   6.025   4.108   1.965
13671TIP3   OH240969   4.383   7.285   3.559
13671TIP3    H140970   4.348   7.220   3.619
13671TIP3    H240971   4.413   7.235   3.483
13672TIP3   OH240972   2.680   7.168   0.336
13672TIP3    H140973   2.743   7.104   0.302
13672TIP3    H240974   2.625   7.117   0.395
13673TIP3   OH240975   5.407   7.080   3.075
13673TIP3    H140976   5.466   7.149   3.106
13673TIP3    H240977   5.442   7.056   2.989
13674TIP3   OH240978   3.562   6.751   2.980
13674TIP3    H140979   3.653   6.767   2.956
13674TIP3    H240980   3.548   6.659   2.959
13675TIP3   OH240981   0.022   5.703   1.900
13675TIP3    H140982   0.026   5.610   1.922
13675TIP3    H240983  -0.072   5.724   1.901
13676TIP3   OH240984   0.090   2.785   0.818
13676TIP3    H140985   0.088   2.785   0.722
13676TIP3    H240986   0.065   2.696   0.842
13677TIP3   OH240987   7.502   4.803   4.384
13677TIP3    H140988   7.542   4.720   4.360
13677TIP3    H240989   7.422   4.778   4.431
13678TIP3   OH240990   3.588   4.622   3.853
13678TIP3    H140991   3.576   4.687   3.784
13678TIP3    H240992   3.499   4.607   3.887
13679TIP3   OH240993   2.732   7.005   4.618
13679TIP3    H140994   2.662   6.947   4.590
13679TIP3    H240995   2.777   6.957   4.688
13680TIP3   OH240996   3.411   7.679   1.385
13680TIP3    H140997   3.354   7.676   1.463
13680TIP3    H240998   3.357   7.644   1.315
13681TIP3   OH240999   4.128   7.448   2.273
13681TIP3    H141000   4.111   7.395   2.195
13681TIP3    H241001   4.073   7.408   2.340
13682TIP3   OH241002   0.925   1.662   2.731
13682TIP3    H141003   0.856   1.655   2.666
13682TIP3    H241004   0.907   1.744   2.777
13683TIP3   OH241005   7.184   3.678   6.230
13683TIP3    H141006   7.142   3.630   6.159
13683TIP3    H241007   7.180   3.770   6.203
13684TIP3   OH241008   3.735   6.758   6.238
13684TIP3    H141009   3.660   6.816   6.220
13684TIP3    H241010   3.703   6.698   6.304
13685TIP3   OH241011   7.748   5.828   6.383
13685TIP3    H141012   7.735   5.886   6.309
13685TIP3    H241013   7.761   5.742   6.344
13686TIP3   OH241014   1.145   3.110   5.863
13686TIP3    H141015   1.139   3.126   5.769
13686TIP3    H241016   1.161   3.196   5.901
13687TIP3   OH241017   7.551   2.124   4.266
13687TIP3    H141018   7.473   2.100   4.317
13687TIP3    H241019   7.606   2.173   4.327
13688TIP3   OH241020   3.957   3.189   2.801
13688TIP3    H141021   3.984   3.274   2.768
13688TIP3    H241022   4.034   3.157   2.849
13689TIP3   OH241023   3.736   5.698   6.532
13689TIP3    H141024   3.686   5.645   6.594
13689TIP3    H241025   3.826   5.669   6.542
13690TIP3   OH241026   4.000   4.568   1.313
13690TIP3    H141027   4.004   4.649   1.363
13690TIP3    H241028   3.971   4.502   1.376
13691TIP3   OH241029   2.963   6.669   0.660
13691TIP3    H141030   2.923   6.610   0.595
13691TIP3    H241031   3.021   6.613   0.711
13692TIP3   OH241032   6.461   4.614   0.955
13692TIP3    H141033   6.390   4.647   0.901
13692TIP3    H241034   6.444   4.521   0.965
13693TIP3   OH241035   1.265   5.943   3.010
13693TIP3    H141036   1.207   5.980   2.944
13693TIP3    H241037   1.309   5.871   2.965
13694TIP3   OH241038   7.921   0.505   6.614
13694TIP3    H141039   7.930   0.465   6.701
13694TIP3    H241040   7.829   0.496   6.593
13695TIP3   OH241041   2.618   4.406   6.178
13695TIP3    H141042   2.656   4.421   6.265
13695TIP3    H241043   2.683   4.352   6.132
13696TIP3   OH241044   0.927   2.975   6.578
13696TIP3    H141045   0.866   3.042   6.610
13696TIP3    H241046   0.896   2.893   6.618
13697TIP3   OH241047   6.354   7.450   3.980
13697TIP3    H141048   6.446   7.444   3.952
13697TIP3    H241049   6.345   7.539   4.014
13698TIP3   OH241050   1.522   1.584   1.990
13698TIP3    H141051   1.547   1.497   2.021
13698TIP3    H241052   1.591   1.608   1.928
13699TIP3   OH241053   1.768   1.791   4.890
13699TIP3    H141054   1.857   1.825   4.897
13699TIP3    H241055   1.747   1.760   4.978
13700TIP3   OH241056   1.923   0.555   2.355
13700TIP3    H141057   1.889   0.633   2.398
13700TIP3    H241058   1.949   0.498   2.428
13701TIP3   OH241059   6.663   2.103   0.513
13701TIP3    H141060   6.669   2.180   0.569
13701TIP3    H241061   6.693   2.031   0.568
13702TIP3   OH241062   6.313   5.586   5.478
13702TIP3    H141063   6.245   5.589   5.410
13702TIP3    H241064   6.395   5.576   5.429
13703TIP3   OH241065   7.569   5.719   1.154
13703TIP3    H141066   7.477   5.709   1.179
13703TIP3    H241067   7.600   5.793   1.207
13704TIP3   OH241068   4.614   4.689   5.061
13704TIP3    H141069   4.537   4.632   5.052
13704TIP3    H241070   4.685   4.629   5.084
13705TIP3   OH241071   0.416   4.473   0.226
13705TIP3    H141072   0.477   4.499   0.296
13705TIP3    H241073   0.387   4.385   0.252
13706TIP3   OH241074   1.920   6.586   6.277
13706TIP3    H141075   1.981   6.632   6.219
13706TIP3    H241076   1.847   6.561   6.220
13707TIP3   OH241077   4.281   0.452   3.985
13707TIP3    H141078   4.283   0.517   3.915
13707TIP3    H241079   4.337   0.488   4.054
13708TIP3   OH241080   5.526   4.773   2.596
13708TIP3    H141081   5.564   4.778   2.508
13708TIP3    H241082   5.483   4.858   2.609
13709TIP3   OH241083   3.023   4.829   1.356
13709TIP3    H141084   2.960   4.899   1.372
13709TIP3    H241085   3.051   4.801   1.444
13710TIP3   OH241086   1.091   1.593   0.648
13710TIP3    H141087   1.173   1.560   0.684
13710TIP3    H241088   1.078   1.678   0.692
13711TIP3   OH241089   0.423   7.580   3.357
13711TIP3    H141090   0.335   7.542   3.353
13711TIP3    H241091   0.408   7.667   3.394
13712TIP3   OH241092   6.357   7.298   0.008
13712TIP3    H141093   6.412   7.226  -0.023
13712TIP3    H241094   6.280   7.256   0.044
13713TIP3   OH241095   3.256   6.132   0.787
13713TIP3    H141096   3.181   6.103   0.734
13713TIP3    H241097   3.306   6.053   0.805
13714TIP3   OH241098   1.496   7.167   5.809
13714TIP3    H141099   1.461   7.198   5.892
13714TIP3    H241100   1.442   7.210   5.742
13715TIP3   OH241101   2.349   1.471   1.627
13715TIP3    H141102   2.305   1.539   1.575
13715TIP3    H241103   2.415   1.435   1.569
13716TIP3   OH241104   4.774   0.158   4.115
13716TIP3    H141105   4.721   0.080   4.102
13716TIP3    H241106   4.712   0.226   4.139
13717TIP3   OH241107   3.699   2.411   3.675
13717TIP3    H141108   3.655   2.335   3.714
13717TIP3    H241109   3.781   2.418   3.723
13718TIP3   OH241110   7.627   5.182   2.043
13718TIP3    H141111   7.579   5.197   2.125
13718TIP3    H241112   7.664   5.094   2.053
13719TIP3   OH241113   7.296   0.697   3.419
13719TIP3    H141114   7.330   0.767   3.364
13719TIP3    H241115   7.298   0.734   3.508
13720TIP3   OH241116   7.953   6.888   2.682
13720TIP3    H141117   7.933   6.869   2.590
13720TIP3    H241118   8.049   6.887   2.687
13721TIP3   OH241119   2.363   0.077   6.461
13721TIP3    H141120   2.387   0.080   6.554
13721TIP3    H241121   2.319  -0.008   6.450
13722TIP3   OH241122   1.972   1.653   1.570
13722TIP3    H141123   1.939   1.733   1.612
13722TIP3    H241124   2.067   1.660   1.578
13723TIP3   OH241125   1.133   1.518   0.115
13723TIP3    H141126   1.191   1.555   0.181
13723TIP3    H241127   1.118   1.589   0.053
13724TIP3   OH241128   6.489   3.046   1.139
13724TIP3    H141129   6.439   3.123   1.111
13724TIP3    H241130   6.556   3.081   1.198
13725TIP3   OH241131   6.720   1.311   5.527
13725TIP3    H141132   6.641   1.280   5.570
13725TIP3    H241133   6.787   1.246   5.550
13726TIP3   OH241134   2.292   1.562   1.022
13726TIP3    H141135   2.224   1.604   0.969
13726TIP3    H241136   2.317   1.629   1.085
13727TIP3   OH241137   5.468   4.604   2.027
13727TIP3    H141138   5.470   4.693   2.063
13727TIP3    H241139   5.378   4.591   1.999
13728TIP3   OH241140   6.562   4.930   4.223
13728TIP3    H141141   6.488   4.984   4.250
13728TIP3    H241142   6.530   4.840   4.225
13729TIP3   OH241143   5.235   0.088   4.091
13729TIP3    H141144   5.171   0.097   4.161
13729TIP3    H241145   5.235   0.173   4.048
13730TIP3   OH241146   2.264   6.749   2.484
13730TIP3    H141147   2.236   6.676   2.540
13730TIP3    H241148   2.207   6.743   2.408
13731TIP3   OH241149   6.344   7.823   3.396
13731TIP3    H141150   6.346   7.779   3.481
13731TIP3    H241151   6.315   7.912   3.416
13732TIP3   OH241152   2.586   7.657   4.279
13732TIP3    H141153   2.581   7.593   4.350
13732TIP3    H241154   2.576   7.606   4.199
13733TIP3   OH241155   3.541   5.408   3.030
13733TIP3    H141156   3.513   5.401   2.939
13733TIP3    H241157   3.495   5.484   3.064
13734TIP3   OH241158   5.334   3.494   1.474
13734TIP3    H141159   5.338   3.484   1.379
13734TIP3    H241160   5.397   3.564   1.493
13735TIP3   OH241161   5.021   0.561   3.596
13735TIP3    H141162   5.067   0.579   3.514
13735TIP3    H241163   4.946   0.621   3.594
13736TIP3   OH241164   2.763   5.720   5.026
13736TIP3    H141165   2.675   5.684   5.040
13736TIP3    H241166   2.760   5.755   4.937
13737TIP3   OH241167   0.248   4.432   3.777
13737TIP3    H141168   0.232   4.338   3.776
13737TIP3    H241169   0.227   4.462   3.688
13738TIP3   OH241170   7.927   2.348   5.976
13738TIP3    H141171   7.896   2.299   5.900
13738TIP3    H241172   8.002   2.398   5.942
13739TIP3   OH241173   1.908   4.008   1.103
13739TIP3    H141174   2.002   4.015   1.087
13739TIP3    H241175   1.868   4.037   1.021
13740TIP3   OH241176   0.700   4.900   5.567
13740TIP3    H141177   0.677   4.872   5.478
13740TIP3    H241178   0.770   4.841   5.594
13741TIP3   OH241179   0.882   6.921   5.930
13741TIP3    H141180   0.944   6.848   5.925
13741TIP3    H241181   0.925   6.991   5.881
13742TIP3   OH241182   1.569   4.558   2.128
13742TIP3    H141183   1.484   4.601   2.129
13742TIP3    H241184   1.553   4.471   2.164
13743TIP3   OH241185   5.962   3.503   3.687
13743TIP3    H141186   6.037   3.447   3.711
13743TIP3    H241187   5.964   3.505   3.592
13744TIP3   OH241188   6.056   1.169   3.649
13744TIP3    H141189   6.018   1.257   3.646
13744TIP3    H241190   5.987   1.112   3.614
13745TIP3   OH241191   3.764   7.513   3.772
13745TIP3    H141192   3.857   7.538   3.773
13745TIP3    H241193   3.731   7.542   3.857
13746TIP3   OH241194   3.016   3.260   2.342
13746TIP3    H141195   2.946   3.251   2.407
13746TIP3    H241196   2.979   3.318   2.275
13747TIP3   OH241197   2.861   6.018   6.528
13747TIP3    H141198   2.915   6.062   6.462
13747TIP3    H241199   2.863   5.925   6.502
13748TIP3   OH241200   7.100   6.269   0.179
13748TIP3    H141201   7.169   6.204   0.193
13748TIP3    H241202   7.021   6.216   0.164
13749TIP3   OH241203   6.287   2.521   1.989
13749TIP3    H141204   6.279   2.579   2.065
13749TIP3    H241205   6.316   2.438   2.025
13750TIP3   OH241206   4.942   1.561   5.930
13750TIP3    H141207   4.990   1.483   5.955
13750TIP3    H241208   4.995   1.634   5.964
13751TIP3   OH241209   6.118   2.629   5.972
13751TIP3    H141210   6.157   2.715   5.992
13751TIP3    H241211   6.191   2.577   5.940
13752TIP3   OH241212   0.598   4.047   1.198
13752TIP3    H141213   0.675   4.041   1.142
13752TIP3    H241214   0.524   4.048   1.137
13753TIP3   OH241215   4.487   3.075   0.441
13753TIP3    H141216   4.530   3.103   0.361
13753TIP3    H241217   4.393   3.076   0.420
13754TIP3   OH241218   5.971   4.140   0.716
13754TIP3    H141219   5.939   4.096   0.795
13754TIP3    H241220   5.897   4.138   0.656
13755TIP3   OH241221   3.049   1.748   1.358
13755TIP3    H141222   3.091   1.779   1.438
13755TIP3    H241223   3.122   1.734   1.297
13756TIP3   OH241224   2.907   0.974   6.693
13756TIP3    H141225   2.819   0.944   6.670
13756TIP3    H241226   2.959   0.956   6.615
13757TIP3   OH241227   0.717   2.900   5.925
13757TIP3    H141228   0.804   2.936   5.909
13757TIP3    H241229   0.733   2.813   5.962
13758TIP3   OH241230   3.651   2.759   2.814
13758TIP3    H141231   3.704   2.839   2.817
13758TIP3    H241232   3.561   2.791   2.810
13759TIP3   OH241233   6.297   4.654   5.548
13759TIP3    H141234   6.201   4.660   5.541
13759TIP3    H241235   6.324   4.741   5.579
13760TIP3   OH241236   2.410   5.365   1.687
13760TIP3    H141237   2.422   5.439   1.747
13760TIP3    H241238   2.484   5.370   1.627
13761TIP3   OH241239   1.369   6.115   5.088
13761TIP3    H141240   1.343   6.174   5.159
13761TIP3    H241241   1.319   6.035   5.103
13762TIP3   OH241242   2.398   6.977   2.473
13762TIP3    H141243   2.348   6.896   2.475
13762TIP3    H241244   2.352   7.036   2.533
13763TIP3   OH241245   1.810   1.175   1.208
13763TIP3    H141246   1.759   1.256   1.209
13763TIP3    H241247   1.862   1.179   1.289
13764TIP3   OH241248   3.269   4.060   0.701
13764TIP3    H141249   3.259   3.970   0.733
13764TIP3    H241250   3.364   4.070   0.689
13765TIP3   OH241251   0.275   6.020   0.488
13765TIP3    H141252   0.307   5.972   0.411
13765TIP3    H241253   0.320   6.104   0.484
13766TIP3   OH241254   1.563   5.699   3.438
13766TIP3    H141255   1.611   5.695   3.355
13766TIP3    H241256   1.614   5.644   3.498
13767TIP3   OH241257   7.133   7.135   5.936
13767TIP3    H141258   7.114   7.131   6.030
13767TIP3    H241259   7.049   7.118   5.893
13768TIP3   OH241260   7.202   1.030   5.524
13768TIP3    H141261   7.153   1.089   5.580
13768TIP3    H241262   7.207   1.076   5.440
13769TIP3   OH241263   2.547   2.799   5.609
13769TIP3    H141264   2.627   2.779   5.561
13769TIP3    H241265   2.558   2.757   5.694
13770TIP3   OH241266   5.924   5.688   5.416
13770TIP3    H141267   5.980   5.655   5.346
13770TIP3    H241268   5.908   5.612   5.473
13771TIP3   OH241269   4.486   1.979   3.230
13771TIP3    H141270   4.405   1.954   3.186
13771TIP3    H241271   4.497   1.914   3.300
13772TIP3   OH241272   2.025   1.655   0.852
13772TIP3    H141273   2.021   1.610   0.767
13772TIP3    H241274   1.953   1.718   0.849
13773TIP3   OH241275   0.463   4.258   4.411
13773TIP3    H141276   0.483   4.272   4.503
13773TIP3    H241277   0.477   4.164   4.397
13774TIP3   OH241278   6.027   5.974   6.288
13774TIP3    H141279   6.113   5.965   6.329
13774TIP3    H241280   5.994   5.885   6.282
13775TIP3   OH241281   7.238   5.873   0.494
13775TIP3    H141282   7.326   5.847   0.467
13775TIP3    H241283   7.199   5.908   0.414
13776TIP3   OH241284   0.957   6.675   6.250
13776TIP3    H141285   0.917   6.754   6.215
13776TIP3    H241286   1.036   6.706   6.296
13777TIP3   OH241287   3.888   1.244   5.486
13777TIP3    H141288   3.837   1.224   5.408
13777TIP3    H241289   3.895   1.161   5.533
13778TIP3   OH241290   4.938   2.729   4.779
13778TIP3    H141291   4.862   2.773   4.742
13778TIP3    H241292   4.969   2.787   4.848
13779TIP3   OH241293   3.738   0.958   3.677
13779TIP3    H141294   3.717   0.879   3.627
13779TIP3    H241295   3.731   1.029   3.613
13780TIP3   OH241296   0.633   1.593   2.334
13780TIP3    H141297   0.588   1.633   2.409
13780TIP3    H241298   0.720   1.635   2.333
13781TIP3   OH241299   0.531   6.467   6.245
13781TIP3    H141300   0.507   6.547   6.291
13781TIP3    H241301   0.538   6.400   6.313
13782TIP3   OH241302   2.100   4.876   3.143
13782TIP3    H141303   2.176   4.904   3.091
13782TIP3    H241304   2.138   4.821   3.212
13783TIP3   OH241305   0.430   7.236   5.609
13783TIP3    H141306   0.442   7.190   5.692
13783TIP3    H241307   0.383   7.173   5.554
13784TIP3   OH241308   1.990   2.668   2.590
13784TIP3    H141309   2.007   2.761   2.602
13784TIP3    H241310   1.969   2.658   2.497
13785TIP3   OH241311   2.376   3.162   4.980
13785TIP3    H141312   2.374   3.129   4.890
13785TIP3    H241313   2.465   3.146   5.010
13786TIP3   OH241314   6.737   7.789   6.124
13786TIP3    H141315   6.783   7.810   6.043
13786TIP3    H241316   6.659   7.742   6.096
13787TIP3   OH241317   3.010   2.879   0.550
13787TIP3    H141318   3.048   2.792   0.557
13787TIP3    H241319   2.978   2.898   0.638
13788TIP3   OH241320   4.505   5.939   2.499
13788TIP3    H141321   4.537   5.933   2.588
13788TIP3    H241322   4.538   5.860   2.456
13789TIP3   OH241323   3.063   2.751   5.832
13789TIP3    H141324   3.087   2.780   5.744
13789TIP3    H241325   3.051   2.656   5.824
13790TIP3   OH241326   5.845   2.694   5.990
13790TIP3    H141327   5.934   2.697   5.955
13790TIP3    H241328   5.849   2.628   6.059
13791TIP3   OH241329   3.874   5.794   4.635
13791TIP3    H141330   3.910   5.804   4.723
13791TIP3    H241331   3.806   5.727   4.644
13792TIP3   OH241332   1.431   2.929   2.421
13792TIP3    H141333   1.384   2.982   2.486
13792TIP3    H241334   1.492   2.989   2.380
13793TIP3   OH241335   0.283   2.399   3.424
13793TIP3    H141336   0.206   2.347   3.402
13793TIP3    H241337   0.287   2.467   3.357
13794TIP3   OH241338   1.157   4.279   5.704
13794TIP3    H141339   1.150   4.325   5.788
13794TIP3    H241340   1.118   4.193   5.721
13795TIP3   OH241341   2.723   7.694   2.784
13795TIP3    H141342   2.749   7.627   2.846
13795TIP3    H241343   2.673   7.758   2.835
13796TIP3   OH241344   5.951   5.176   5.626
13796TIP3    H141345   6.034   5.160   5.672
13796TIP3    H241346   5.886   5.180   5.695
13797TIP3   OH241347   6.857   7.549   2.113
13797TIP3    H141348   6.877   7.588   2.198
13797TIP3    H241349   6.866   7.454   2.127
13798TIP3   OH241350   0.766   7.764   2.514
13798TIP3    H141351   0.759   7.816   2.593
13798TIP3    H241352   0.705   7.805   2.452
13799TIP3   OH241353   7.731   6.453   2.765
13799TIP3    H141354   7.697   6.390   2.700
13799TIP3    H241355   7.793   6.402   2.817
13800TIP3   OH241356   6.651   4.487   5.271
13800TIP3    H141357   6.746   4.475   5.273
13800TIP3    H241358   6.622   4.452   5.355
13801TIP3   OH241359   5.970   6.208   6.163
13801TIP3    H141360   5.974   6.271   6.235
13801TIP3    H241361   5.997   6.125   6.202
13802TIP3   OH241362   7.070   1.803   1.068
13802TIP3    H141363   7.008   1.732   1.084
13802TIP3    H241364   7.156   1.763   1.087
13803TIP3   OH241365   4.552   4.494   4.414
13803TIP3    H141366   4.468   4.507   4.369
13803TIP3    H241367   4.539   4.415   4.466
13804TIP3   OH241368   0.749   0.849   6.409
13804TIP3    H141369   0.705   0.914   6.355
13804TIP3    H241370   0.680   0.813   6.465
13805TIP3   OH241371   4.466   2.055   6.288
13805TIP3    H141372   4.430   1.995   6.354
13805TIP3    H241373   4.394   2.113   6.265
13806TIP3   OH241374   7.701   4.557   3.102
13806TIP3    H141375   7.794   4.541   3.086
13806TIP3    H241376   7.698   4.641   3.147
13807TIP3   OH241377   6.491   2.622   3.923
13807TIP3    H141378   6.519   2.676   3.849
13807TIP3    H241379   6.397   2.635   3.929
13808TIP3   OH241380   6.773   1.186   4.243
13808TIP3    H141381   6.731   1.102   4.263
13808TIP3    H241382   6.855   1.162   4.201
13809TIP3   OH241383   3.034   4.216   0.616
13809TIP3    H141384   3.118   4.188   0.652
13809TIP3    H241385   3.051   4.304   0.581
13810TIP3   OH241386   5.714   2.499   0.049
13810TIP3    H141387   5.720   2.567  -0.017
13810TIP3    H241388   5.700   2.545   0.131
13811TIP3   OH241389   6.799   2.269   0.029
13811TIP3    H141390   6.800   2.306   0.118
13811TIP3    H241391   6.717   2.220   0.024
13812TIP3   OH241392   3.390   3.478   6.114
13812TIP3    H141393   3.295   3.486   6.121
13812TIP3    H241394   3.422   3.495   6.203
13813TIP3   OH241395   0.059   1.164   0.281
13813TIP3    H141396   0.093   1.085   0.238
13813TIP3    H241397   0.031   1.134   0.368
13814TIP3   OH241398   3.102   5.129   0.484
13814TIP3    H141399   3.141   5.066   0.545
13814TIP3    H241400   3.148   5.211   0.503
13815TIP3   OH241401   3.739   2.702   2.532
13815TIP3    H141402   3.729   2.775   2.471
13815TIP3    H241403   3.755   2.743   2.617
13816TIP3   OH241404   4.667   4.202   3.913
13816TIP3    H141405   4.746   4.162   3.949
13816TIP3    H241406   4.621   4.238   3.988
13817TIP3   OH241407   3.601   2.398   3.101
13817TIP3    H141408   3.694   2.404   3.124
13817TIP3    H241409   3.582   2.304   3.102
13818TIP3   OH241410   8.165   5.915   5.639
13818TIP3    H141411   8.209   5.885   5.560
13818TIP3    H241412   8.072   5.898   5.623
13819TIP3   OH241413   3.646   6.943   2.692
13819TIP3    H141414   3.684   7.008   2.633
13819TIP3    H241415   3.584   6.895   2.637
13820TIP3   OH241416   0.703   5.489   5.397
13820TIP3    H141417   0.680   5.492   5.304
13820TIP3    H241418   0.652   5.416   5.432
13821TIP3   OH241419   3.749   2.570   4.589
13821TIP3    H141420   3.703   2.496   4.548
13821TIP3    H241421   3.829   2.532   4.624
13822TIP3   OH241422   4.945   2.565   1.105
13822TIP3    H141423   5.027   2.516   1.093
13822TIP3    H241424   4.938   2.619   1.026
13823TIP3   OH241425   7.152   4.130   0.802
13823TIP3    H141426   7.244   4.156   0.792
13823TIP3    H241427   7.116   4.134   0.713
13824TIP3   OH241428   1.995   5.276   2.803
13824TIP3    H141429   2.013   5.287   2.710
13824TIP3    H241430   2.032   5.190   2.825
13825TIP3   OH241431   1.008   0.756   4.275
13825TIP3    H141432   0.981   0.811   4.201
13825TIP3    H241433   1.070   0.694   4.236
13826TIP3   OH241434   3.984   4.910   1.838
13826TIP3    H141435   4.008   4.817   1.843
13826TIP3    H241436   3.907   4.912   1.782
13827TIP3   OH241437   7.915   0.464   1.236
13827TIP3    H141438   7.870   0.470   1.152
13827TIP3    H241439   7.995   0.514   1.225
13828TIP3   OH241440   1.217   0.465   6.033
13828TIP3    H141441   1.169   0.435   5.956
13828TIP3    H241442   1.237   0.385   6.082
13829TIP3   OH241443   1.727   0.529   3.438
13829TIP3    H141444   1.654   0.537   3.378
13829TIP3    H241445   1.721   0.607   3.494
13830TIP3   OH241446   4.591   1.354   4.087
13830TIP3    H141447   4.622   1.305   4.163
13830TIP3    H241448   4.643   1.435   4.087
13831TIP3   OH241449   6.139   0.020   0.495
13831TIP3    H141450   6.221   0.051   0.458
13831TIP3    H241451   6.166  -0.041   0.563
13832TIP3   OH241452   2.280   5.568   4.963
13832TIP3    H141453   2.260   5.479   4.932
13832TIP3    H241454   2.371   5.564   4.992
13833TIP3   OH241455   8.287   5.958   4.105
13833TIP3    H141456   8.236   5.895   4.156
13833TIP3    H241457   8.281   6.039   4.154
13834TIP3   OH241458   4.429   1.786   1.431
13834TIP3    H141459   4.388   1.736   1.502
13834TIP3    H241460   4.393   1.874   1.440
13835TIP3   OH241461   5.041   1.312   3.567
13835TIP3    H141462   4.957   1.268   3.550
13835TIP3    H241463   5.052   1.370   3.492
13836TIP3   OH241464   4.806   3.938   2.569
13836TIP3    H141465   4.755   3.966   2.493
13836TIP3    H241466   4.751   3.873   2.612
13837TIP3   OH241467   1.928   6.652   5.087
13837TIP3    H141468   2.017   6.662   5.120
13837TIP3    H241469   1.889   6.739   5.096
13838TIP3   OH241470   2.330   7.117   4.196
13838TIP3    H141471   2.257   7.159   4.243
13838TIP3    H241472   2.384   7.079   4.265
13839TIP3   OH241473   7.258   4.540   1.608
13839TIP3    H141474   7.304   4.479   1.665
13839TIP3    H241475   7.245   4.491   1.526
13840TIP3   OH241476   6.752   1.017   3.096
13840TIP3    H141477   6.742   1.086   3.030
13840TIP3    H241478   6.843   0.990   3.089
13841TIP3   OH241479   0.288   2.237   0.803
13841TIP3    H141480   0.328   2.318   0.834
13841TIP3    H241481   0.296   2.241   0.708
13842TIP3   OH241482   4.259   3.445   3.219
13842TIP3    H141483   4.216   3.374   3.266
13842TIP3    H241484   4.305   3.495   3.286
13843TIP3   OH241485   4.002   1.399   5.848
13843TIP3    H141486   4.077   1.349   5.816
13843TIP3    H241487   3.977   1.355   5.930
13844TIP3   OH241488   7.346   5.537   2.071
13844TIP3    H141489   7.431   5.546   2.113
13844TIP3    H241490   7.283   5.553   2.140
13845TIP3   OH241491   8.151   3.503   2.276
13845TIP3    H141492   8.120   3.423   2.232
13845TIP3    H241493   8.073   3.538   2.320
13846TIP3   OH241494   2.583   0.517   2.733
13846TIP3    H141495   2.648   0.506   2.802
13846TIP3    H241496   2.617   0.588   2.679
13847TIP3   OH241497   4.457   0.960   0.333
13847TIP3    H141498   4.378   0.920   0.368
13847TIP3    H241499   4.508   0.887   0.297
13848TIP3   OH241500   0.782   6.043   4.481
13848TIP3    H141501   0.819   5.969   4.530
13848TIP3    H241502   0.846   6.113   4.492
13849TIP3   OH241503   7.141   7.579   5.161
13849TIP3    H141504   7.103   7.605   5.245
13849TIP3    H241505   7.072   7.597   5.097
13850TIP3   OH241506   5.003   0.985   3.340
13850TIP3    H141507   5.018   1.042   3.265
13850TIP3    H241508   4.915   1.006   3.370
13851TIP3   OH241509   1.722   1.851   6.741
13851TIP3    H141510   1.795   1.795   6.766
13851TIP3    H241511   1.644   1.806   6.776
13852TIP3   OH241512   7.525   1.769   4.986
13852TIP3    H141513   7.589   1.828   5.025
13852TIP3    H241514   7.577   1.697   4.951
13853TIP3   OH241515   0.745   3.998   4.371
13853TIP3    H141516   0.749   4.038   4.284
13853TIP3    H241517   0.654   4.010   4.398
13854TIP3   OH241518   3.695   5.253   1.814
13854TIP3    H141519   3.710   5.213   1.728
13854TIP3    H241520   3.781   5.250   1.856
13855TIP3   OH241521   5.645   0.311   1.680
13855TIP3    H141522   5.714   0.253   1.712
13855TIP3    H241523   5.687   0.397   1.671
13856TIP3   OH241524   2.953   3.132   5.757
13856TIP3    H141525   2.886   3.102   5.819
13856TIP3    H241526   2.911   3.128   5.672
13857TIP3   OH241527   2.337   5.766   1.328
13857TIP3    H141528   2.411   5.732   1.278
13857TIP3    H241529   2.262   5.756   1.271
13858TIP3   OH241530   7.830   2.644   1.345
13858TIP3    H141531   7.762   2.628   1.280
13858TIP3    H241532   7.911   2.649   1.295
13859TIP3   OH241533   6.400   3.003   3.441
13859TIP3    H141534   6.397   2.908   3.451
13859TIP3    H241535   6.319   3.024   3.394
13860TIP3   OH241536   4.449   6.050   6.189
13860TIP3    H141537   4.501   5.973   6.167
13860TIP3    H241538   4.510   6.108   6.235
13861TIP3   OH241539   4.096   5.323   6.681
13861TIP3    H141540   4.139   5.240   6.701
13861TIP3    H241541   4.037   5.302   6.609
13862TIP3   OH241542   1.405   5.794   4.996
13862TIP3    H141543   1.394   5.825   5.086
13862TIP3    H241544   1.316   5.781   4.964
13863TIP3   OH241545   4.414   1.281   2.215
13863TIP3    H141546   4.370   1.362   2.190
13863TIP3    H241547   4.345   1.214   2.211
13864TIP3   OH241548   7.424   4.679   1.915
13864TIP3    H141549   7.425   4.741   1.988
13864TIP3    H241550   7.331   4.668   1.895
13865TIP3   OH241551   4.470   5.521   6.328
13865TIP3    H141552   4.406   5.485   6.388
13865TIP3    H241553   4.496   5.605   6.367
13866TIP3   OH241554   4.607   5.399   4.025
13866TIP3    H141555   4.664   5.468   3.991
13866TIP3    H241556   4.532   5.446   4.061
13867TIP3   OH241557   2.704   3.742   3.073
13867TIP3    H141558   2.622   3.746   3.122
13867TIP3    H241559   2.723   3.833   3.051
13868TIP3   OH241560   0.558   7.262   1.325
13868TIP3    H141561   0.560   7.285   1.232
13868TIP3    H241562   0.635   7.207   1.338
13869TIP3   OH241563   6.362   1.437   3.577
13869TIP3    H141564   6.321   1.374   3.518
13869TIP3    H241565   6.298   1.507   3.585
13870TIP3   OH241566   4.634   3.211   3.897
13870TIP3    H141567   4.656   3.187   3.807
13870TIP3    H241568   4.548   3.172   3.913
13871TIP3   OH241569   4.455   2.445   3.027
13871TIP3    H141570   4.526   2.407   3.078
13871TIP3    H241571   4.379   2.391   3.050
13872TIP3   OH241572   1.544   3.756   0.098
13872TIP3    H141573   1.517   3.709   0.178
13872TIP3    H241574   1.636   3.733   0.087
13873TIP3   OH241575   3.519   5.759   2.908
13873TIP3    H141576   3.594   5.751   2.849
13873TIP3    H241577   3.559   5.763   2.996
13874TIP3   OH241578   3.914   5.830   0.598
13874TIP3    H141579   3.868   5.773   0.536
13874TIP3    H241580   3.934   5.909   0.547
13875TIP3   OH241581   5.223   0.934   3.522
13875TIP3    H141582   5.171   0.977   3.591
13875TIP3    H241583   5.177   0.956   3.441
13876TIP3   OH241584   6.312   3.594   3.921
13876TIP3    H141585   6.296   3.543   3.842
13876TIP3    H241586   6.330   3.682   3.890
13877TIP3   OH241587   2.378   7.305   0.961
13877TIP3    H141588   2.318   7.277   1.030
13877TIP3    H241589   2.348   7.258   0.883
13878TIP3   OH241590   3.750   3.661   0.102
13878TIP3    H141591   3.745   3.578   0.149
13878TIP3    H241592   3.702   3.646   0.021
13879TIP3   OH241593   7.414   7.669   0.249
13879TIP3    H141594   7.499   7.629   0.231
13879TIP3    H241595   7.387   7.707   0.165
13880TIP3   OH241596   2.981   0.561   0.960
13880TIP3    H141597   3.023   0.480   0.988
13880TIP3    H241598   2.887   0.541   0.961
13881TIP3   OH241599   5.662   3.578   4.992
13881TIP3    H141600   5.567   3.573   4.993
13881TIP3    H241601   5.683   3.640   4.922
13882TIP3   OH241602   6.497   5.140   4.505
13882TIP3    H141603   6.496   5.050   4.539
13882TIP3    H241604   6.414   5.177   4.535
13883TIP3   OH241605   6.985   3.366   3.378
13883TIP3    H141606   6.997   3.335   3.288
13883TIP3    H241607   6.949   3.291   3.424
13884TIP3   OH241608   1.692   1.600   0.886
13884TIP3    H141609   1.609   1.599   0.935
13884TIP3    H241610   1.747   1.661   0.935
13885TIP3   OH241611   0.009   4.419   5.659
13885TIP3    H141612  -0.004   4.345   5.719
13885TIP3    H241613   0.004   4.496   5.714
13886TIP3   OH241614   7.575   7.099   2.023
13886TIP3    H141615   7.517   7.061   2.089
13886TIP3    H241616   7.571   7.193   2.038
13887TIP3   OH241617   1.100   1.303   1.976
13887TIP3    H141618   1.019   1.346   2.005
13887TIP3    H241619   1.160   1.315   2.049
13888TIP3   OH241620   2.829   3.068   1.637
13888TIP3    H141621   2.769   3.095   1.569
13888TIP3    H241622   2.796   3.108   1.717
13889TIP3   OH241623   4.967   1.016   2.427
13889TIP3    H141624   5.018   1.029   2.507
13889TIP3    H241625   4.879   0.996   2.458
13890TIP3   OH241626   5.994   3.334   4.767
13890TIP3    H141627   6.075   3.303   4.727
13890TIP3    H241628   5.931   3.264   4.751
13891TIP3   OH241629   8.062   6.453   5.920
13891TIP3    H141630   7.979   6.417   5.949
13891TIP3    H241631   8.126   6.385   5.939
13892TIP3   OH241632   0.285   2.983   6.217
13892TIP3    H141633   0.273   3.012   6.307
13892TIP3    H241634   0.343   2.906   6.225
13893TIP3   OH241635   5.479   5.946   3.663
13893TIP3    H141636   5.475   6.038   3.638
13893TIP3    H241637   5.555   5.940   3.721
13894TIP3   OH241638   7.841   1.514   4.129
13894TIP3    H141639   7.935   1.517   4.148
13894TIP3    H241640   7.837   1.494   4.035
13895TIP3   OH241641   7.542   0.041   0.269
13895TIP3    H141642   7.470   0.103   0.270
13895TIP3    H241643   7.535  -0.004   0.185
13896TIP3   OH241644   3.286   7.024   1.160
13896TIP3    H141645   3.318   7.107   1.122
13896TIP3    H241646   3.359   6.964   1.151
13897TIP3   OH241647   6.287   7.022   2.085
13897TIP3    H141648   6.215   7.084   2.073
13897TIP3    H241649   6.285   6.966   2.008
13898TIP3   OH241650   1.619   0.021   1.406
13898TIP3    H141651   1.568  -0.035   1.464
13898TIP3    H241652   1.644   0.095   1.461
13899TIP3   OH241653   5.956   5.903   3.173
13899TIP3    H141654   6.037   5.882   3.218
13899TIP3    H241655   5.980   5.969   3.109
13900TIP3   OH241656   2.382   4.097   0.355
13900TIP3    H141657   2.343   4.038   0.419
13900TIP3    H241658   2.385   4.182   0.399
13901TIP3   OH241659   0.595   7.591   3.723
13901TIP3    H141660   0.650   7.634   3.788
13901TIP3    H241661   0.507   7.625   3.739
13902TIP3   OH241662   0.802   6.178   3.102
13902TIP3    H141663   0.779   6.196   3.193
13902TIP3    H241664   0.732   6.120   3.071
13903TIP3   OH241665   3.750   3.417   3.218
13903TIP3    H141666   3.790   3.504   3.228
13903TIP3    H241667   3.825   3.357   3.218
13904TIP3   OH241668   6.158   1.168   4.177
13904TIP3    H141669   6.154   1.073   4.185
13904TIP3    H241670   6.135   1.186   4.086
13905TIP3   OH241671   2.960   6.583   1.065
13905TIP3    H141672   3.045   6.610   1.099
13905TIP3    H241673   2.921   6.663   1.031
13906TIP3   OH241674   5.929   7.094   0.735
13906TIP3    H141675   6.015   7.052   0.733
13906TIP3    H241676   5.938   7.169   0.675
13907TIP3   OH241677   3.493   1.194   6.249
13907TIP3    H141678   3.534   1.109   6.263
13907TIP3    H241679   3.474   1.196   6.155
13908TIP3   OH241680   4.360   0.532   0.748
13908TIP3    H141681   4.301   0.603   0.723
13908TIP3    H241682   4.303   0.463   0.781
13909TIP3   OH241683   5.150   5.450   2.987
13909TIP3    H141684   5.192   5.429   3.070
13909TIP3    H241685   5.057   5.449   3.006
13910TIP3   OH241686   7.258   4.375   3.637
13910TIP3    H141687   7.305   4.387   3.719
13910TIP3    H241688   7.170   4.346   3.664
13911TIP3   OH241689   2.762   4.919   5.970
13911TIP3    H141690   2.705   4.850   6.004
13911TIP3    H241691   2.703   4.985   5.935
13912TIP3   OH241692   2.569   6.686   3.579
13912TIP3    H141693   2.638   6.728   3.529
13912TIP3    H241694   2.525   6.628   3.517
13913TIP3   OH241695   0.516   3.022   2.931
13913TIP3    H141696   0.454   3.034   3.002
13913TIP3    H241697   0.479   3.070   2.857
13914TIP3   OH241698   4.249   4.306   1.934
13914TIP3    H141699   4.159   4.318   1.905
13914TIP3    H241700   4.276   4.392   1.965
13915TIP3   OH241701   1.569   5.324   1.386
13915TIP3    H141702   1.577   5.236   1.423
13915TIP3    H241703   1.479   5.328   1.353
13916TIP3   OH241704   1.802   5.480   1.161
13916TIP3    H141705   1.790   5.395   1.119
13916TIP3    H241706   1.727   5.489   1.220
13917TIP3   OH241707   8.139   0.535   6.457
13917TIP3    H141708   8.054   0.516   6.496
13917TIP3    H241709   8.142   0.479   6.379
13918TIP3   OH241710   3.595   4.494   1.969
13918TIP3    H141711   3.648   4.570   1.993
13918TIP3    H241712   3.514   4.532   1.935
13919TIP3   OH241713   3.581   1.131   4.168
13919TIP3    H141714   3.540   1.045   4.166
13919TIP3    H241715   3.548   1.172   4.248
13920TIP3   OH241716   1.117   3.977   1.225
13920TIP3    H141717   1.191   4.004   1.279
13920TIP3    H241718   1.053   3.940   1.286
13921TIP3   OH241719   6.084   5.009   1.219
13921TIP3    H141720   6.120   4.989   1.133
13921TIP3    H241721   6.078   4.924   1.263
13922TIP3   OH241722   2.122   3.873   2.251
13922TIP3    H141723   2.191   3.809   2.269
13922TIP3    H241724   2.164   3.958   2.265
13923TIP3   OH241725   0.414   7.800   3.146
13923TIP3    H141726   0.330   7.840   3.122
13923TIP3    H241727   0.393   7.742   3.219
13924TIP3   OH241728   4.336   1.985   2.577
13924TIP3    H141729   4.285   1.905   2.591
13924TIP3    H241730   4.269   2.053   2.566
13925TIP3   OH241731   7.019   0.519   2.569
13925TIP3    H141732   6.931   0.484   2.585
13925TIP3    H241733   7.012   0.612   2.588
13926TIP3   OH241734   4.362   4.491   1.562
13926TIP3    H141735   4.439   4.524   1.609
13926TIP3    H241736   4.387   4.404   1.532
13927TIP3   OH241737   1.670   5.562   5.323
13927TIP3    H141738   1.647   5.595   5.236
13927TIP3    H241739   1.662   5.467   5.316
13928TIP3   OH241740   6.008   6.641   5.039
13928TIP3    H141741   5.996   6.546   5.034
13928TIP3    H241742   5.937   6.671   5.096
13929TIP3   OH241743   7.869   1.642   1.456
13929TIP3    H141744   7.918   1.645   1.374
13929TIP3    H241745   7.914   1.576   1.509
13930TIP3   OH241746   7.998   6.374   2.340
13930TIP3    H141747   8.077   6.402   2.293
13930TIP3    H241748   8.006   6.415   2.426
13931TIP3   OH241749   0.190   4.975   6.180
13931TIP3    H141750   0.126   5.010   6.118
13931TIP3    H241751   0.228   5.053   6.221
13932TIP3   OH241752   7.432   0.032   0.941
13932TIP3    H141753   7.459   0.037   1.032
13932TIP3    H241754   7.494   0.089   0.894
13933TIP3   OH241755   2.915   7.519   6.116
13933TIP3    H141756   3.003   7.497   6.148
13933TIP3    H241757   2.923   7.514   6.021
13934TIP3   OH241758   5.935   0.067   4.414
13934TIP3    H141759   6.001   0.049   4.481
13934TIP3    H241760   5.852   0.069   4.462
13935TIP3   OH241761   1.832   2.054   2.586
13935TIP3    H141762   1.894   1.981   2.580
13935TIP3    H241763   1.856   2.112   2.513
13936TIP3   OH241764   2.105   6.803   3.268
13936TIP3    H141765   2.164   6.820   3.341
13936TIP3    H241766   2.098   6.886   3.223
13937TIP3   OH241767   1.486   0.006   4.987
13937TIP3    H141768   1.407  -0.043   4.965
13937TIP3    H241769   1.484   0.082   4.930
13938TIP3   OH241770   3.807   6.467   4.135
13938TIP3    H141771   3.846   6.444   4.219
13938TIP3    H241772   3.733   6.406   4.125
13939TIP3   OH241773   3.736   1.306   5.228
13939TIP3    H141774   3.690   1.222   5.236
13939TIP3    H241775   3.670   1.372   5.249
13940TIP3   OH241776   7.223   2.931   4.755
13940TIP3    H141777   7.264   2.926   4.669
13940TIP3    H241778   7.135   2.894   4.743
13941TIP3   OH241779   2.854   0.980   1.603
13941TIP3    H141780   2.782   0.976   1.541
13941TIP3    H241781   2.932   0.961   1.551
13942TIP3   OH241782   5.737   0.105   3.464
13942TIP3    H141783   5.740   0.130   3.556
13942TIP3    H241784   5.667   0.158   3.427
13943TIP3   OH241785   4.022   7.374   0.563
13943TIP3    H141786   4.010   7.464   0.594
13943TIP3    H241787   4.054   7.327   0.640
13944TIP3   OH241788   2.440   7.004   5.593
13944TIP3    H141789   2.399   7.087   5.617
13944TIP3    H241790   2.375   6.938   5.615
13945TIP3   OH241791   0.850   4.247   4.556
13945TIP3    H141792   0.921   4.201   4.513
13945TIP3    H241793   0.785   4.179   4.574
13946TIP3   OH241794   2.912   7.403   0.881
13946TIP3    H141795   2.995   7.445   0.861
13946TIP3    H241796   2.923   7.368   0.970
13947TIP3   OH241797   4.751   7.814   1.215
13947TIP3    H141798   4.780   7.723   1.208
13947TIP3    H241799   4.803   7.850   1.287
13948TIP3   OH241800   2.963   4.823   2.291
13948TIP3    H141801   2.985   4.809   2.383
13948TIP3    H241802   2.908   4.902   2.291
13949TIP3   OH241803   7.056   6.488   3.482
13949TIP3    H141804   7.125   6.481   3.416
13949TIP3    H241805   6.997   6.556   3.447
13950TIP3   OH241806   5.984   2.823   1.573
13950TIP3    H141807   5.908   2.769   1.589
13950TIP3    H241808   6.059   2.765   1.586
13951TIP3   OH241809   4.970   1.777   5.393
13951TIP3    H141810   4.930   1.690   5.395
13951TIP3    H241811   4.972   1.800   5.300
13952TIP3   OH241812   0.676   4.761   6.206
13952TIP3    H141813   0.657   4.667   6.201
13952TIP3    H241814   0.669   4.782   6.299
13953TIP3   OH241815   8.193   7.491   3.780
13953TIP3    H141816   8.142   7.440   3.844
13953TIP3    H241817   8.284   7.468   3.799
13954TIP3   OH241818   6.317   6.984   6.414
13954TIP3    H141819   6.339   6.891   6.417
13954TIP3    H241820   6.230   6.989   6.455
13955TIP3   OH241821   5.073   3.633   6.424
13955TIP3    H141822   5.015   3.650   6.498
13955TIP3    H241823   5.142   3.578   6.461
13956TIP3   OH241824   5.346   2.204   2.325
13956TIP3    H141825   5.419   2.210   2.387
13956TIP3    H241826   5.374   2.257   2.250
13957TIP3   OH241827   5.086   1.227   1.487
13957TIP3    H141828   5.144   1.217   1.562
13957TIP3    H241829   5.145   1.242   1.413
13958TIP3   OH241830   8.015   1.637   2.445
13958TIP3    H141831   8.023   1.543   2.426
13958TIP3    H241832   8.026   1.643   2.540
13959TIP3   OH241833   3.423   1.833   0.244
13959TIP3    H141834   3.354   1.879   0.196
13959TIP3    H241835   3.504   1.874   0.215
13960TIP3   OH241836   1.732   1.036   1.481
13960TIP3    H141837   1.668   1.046   1.551
13960TIP3    H241838   1.795   1.107   1.494
13961TIP3   OH241839   7.923   0.597   2.124
13961TIP3    H141840   7.963   0.620   2.040
13961TIP3    H241841   7.897   0.681   2.162
13962TIP3   OH241842   0.483   2.807   6.332
13962TIP3    H141843   0.470   2.769   6.245
13962TIP3    H241844   0.578   2.816   6.341
13963TIP3   OH241845   2.509   3.905   4.405
13963TIP3    H141846   2.541   3.899   4.315
13963TIP3    H241847   2.451   3.981   4.405
13964TIP3   OH241848   0.750   0.445   3.188
13964TIP3    H141849   0.828   0.390   3.185
13964TIP3    H241850   0.679   0.388   3.156
13965TIP3   OH241851   2.415   3.800   2.324
13965TIP3    H141852   2.403   3.892   2.346
13965TIP3    H241853   2.501   3.777   2.359
13966TIP3   OH241854   6.880   2.910   3.675
13966TIP3    H141855   6.923   2.825   3.674
13966TIP3    H241856   6.791   2.892   3.704
13967TIP3   OH241857   2.249   7.697   2.984
13967TIP3    H141858   2.212   7.631   3.042
13967TIP3    H241859   2.175   7.727   2.930
13968TIP3   OH241860   5.566   2.521   4.984
13968TIP3    H141861   5.478   2.489   4.968
13968TIP3    H241862   5.557   2.584   5.056
13969TIP3   OH241863   1.987   6.978   0.824
13969TIP3    H141864   1.939   6.952   0.903
13969TIP3    H241865   1.928   7.038   0.779
13970TIP3   OH241866   2.574   6.495   0.478
13970TIP3    H141867   2.553   6.402   0.464
13970TIP3    H241868   2.558   6.509   0.571
13971TIP3   OH241869   6.655   1.377   1.587
13971TIP3    H141870   6.697   1.369   1.501
13971TIP3    H241871   6.692   1.306   1.638
13972TIP3   OH241872   6.791   6.527   2.543
13972TIP3    H141873   6.830   6.459   2.598
13972TIP3    H241874   6.865   6.577   2.509
13973TIP3   OH241875   2.240   0.596   3.581
13973TIP3    H141876   2.272   0.510   3.555
13973TIP3    H241877   2.160   0.609   3.529
13974TIP3   OH241878   1.034   1.162   3.490
13974TIP3    H141879   1.085   1.228   3.536
13974TIP3    H241880   0.965   1.211   3.445
13975TIP3   OH241881   3.707   2.727   4.864
13975TIP3    H141882   3.785   2.767   4.901
13975TIP3    H241883   3.696   2.768   4.778
13976TIP3   OH241884   5.826   3.958   0.207
13976TIP3    H141885   5.850   4.050   0.196
13976TIP3    H241886   5.795   3.952   0.297
13977TIP3   OH241887   1.805   6.989   3.210
13977TIP3    H141888   1.713   7.011   3.219
13977TIP3    H241889   1.807   6.921   3.142
13978TIP3   OH241890   0.127   5.555   6.401
13978TIP3    H141891   0.158   5.642   6.378
13978TIP3    H241892   0.150   5.501   6.325
13979TIP3   OH241893   4.389   2.811   1.182
13979TIP3    H141894   4.377   2.885   1.242
13979TIP3    H241895   4.468   2.833   1.132
13980TIP3   OH241896   6.268   4.639   1.833
13980TIP3    H141897   6.337   4.699   1.859
13980TIP3    H241898   6.269   4.641   1.737
13981TIP3   OH241899   3.145   4.303   2.175
13981TIP3    H141900   3.238   4.307   2.151
13981TIP3    H241901   3.129   4.386   2.220
13982TIP3   OH241902   8.295   1.665   6.735
13982TIP3    H141903   8.261   1.732   6.676
13982TIP3    H241904   8.390   1.665   6.720
13983TIP3   OH241905   4.047   6.526   4.993
13983TIP3    H141906   4.028   6.433   4.976
13983TIP3    H241907   4.015   6.571   4.915
13984TIP3   OH241908   7.453   3.873   2.411
13984TIP3    H141909   7.543   3.896   2.386
13984TIP3    H241910   7.445   3.905   2.501
13985TIP3   OH241911   2.683   2.854   3.499
13985TIP3    H141912   2.770   2.859   3.538
13985TIP3    H241913   2.660   2.761   3.502
13986TIP3   OH241914   7.567   4.449   3.314
13986TIP3    H141915   7.565   4.509   3.239
13986TIP3    H241916   7.660   4.436   3.332
13987TIP3   OH241917   7.935   5.294   0.001
13987TIP3    H141918   7.986   5.271   0.079
13987TIP3    H241919   7.994   5.275  -0.072
13988TIP3   OH241920   5.560   0.682   0.671
13988TIP3    H141921   5.524   0.635   0.595
13988TIP3    H241922   5.569   0.772   0.640
13989TIP3   OH241923   2.272   5.759   5.790
13989TIP3    H141924   2.312   5.725   5.870
13989TIP3    H241925   2.299   5.697   5.722
13990TIP3   OH241926   7.391   0.594   3.136
13990TIP3    H141927   7.392   0.519   3.076
13990TIP3    H241928   7.314   0.579   3.191
13991TIP3   OH241929   3.601   4.907   1.373
13991TIP3    H141930   3.519   4.909   1.323
13991TIP3    H241931   3.602   4.990   1.421
13992TIP3   OH241932   7.219   1.787   3.966
13992TIP3    H141933   7.147   1.792   4.030
13992TIP3    H241934   7.233   1.877   3.938
13993TIP3   OH241935   6.457   4.056   4.985
13993TIP3    H141936   6.478   4.038   4.894
13993TIP3    H241937   6.539   4.038   5.032
13994TIP3   OH241938   1.790   4.436   3.779
13994TIP3    H141939   1.764   4.355   3.735
13994TIP3    H241940   1.814   4.495   3.708
13995TIP3   OH241941   5.718   3.471   3.852
13995TIP3    H141942   5.664   3.442   3.779
13995TIP3    H241943   5.799   3.502   3.811
13996TIP3   OH241944   0.204   3.725   2.175
13996TIP3    H141945   0.158   3.674   2.108
13996TIP3    H241946   0.161   3.700   2.257
13997TIP3   OH241947   6.620   3.339   1.924
13997TIP3    H141948   6.634   3.255   1.879
13997TIP3    H241949   6.585   3.315   2.009
13998TIP3   OH241950   3.537   6.301   3.182
13998TIP3    H141951   3.536   6.214   3.141
13998TIP3    H241952   3.449   6.313   3.215
13999TIP3   OH241953   1.404   3.870   1.230
13999TIP3    H141954   1.498   3.854   1.244
13999TIP3    H241955   1.381   3.936   1.296
14000TIP3   OH241956   4.035   4.077   2.481
14000TIP3    H141957   4.109   4.110   2.431
14000TIP3    H241958   4.072   4.008   2.536
14001TIP3   OH241959   0.342   7.129   0.823
14001TIP3    H141960   0.280   7.099   0.757
14001TIP3    H241961   0.339   7.063   0.892
14002TIP3   OH241962   3.283   2.201   2.095
14002TIP3    H141963   3.276   2.118   2.047
14002TIP3    H241964   3.377   2.221   2.093
14003TIP3   OH241965   4.772   5.568   6.377
14003TIP3    H141966   4.701   5.593   6.318
14003TIP3    H241967   4.850   5.569   6.322
14004TIP3   OH241968   6.538   3.326   4.778
14004TIP3    H141969   6.561   3.234   4.768
14004TIP3    H241970   6.557   3.365   4.693
14005TIP3   OH241971   4.171   3.661   4.291
14005TIP3    H141972   4.205   3.600   4.225
14005TIP3    H241973   4.149   3.605   4.366
14006TIP3   OH241974   4.647   0.126   4.625
14006TIP3    H141975   4.610   0.066   4.690
14006TIP3    H241976   4.715   0.075   4.582
14007TIP3   OH241977   0.209   5.360   0.782
14007TIP3    H141978   0.288   5.309   0.805
14007TIP3    H241979   0.231   5.400   0.698
14008TIP3   OH241980   0.036   1.979   3.395
14008TIP3    H141981  -0.047   2.025   3.411
14008TIP3    H241982   0.024   1.938   3.309
14009TIP3   OH241983   0.225   1.371   0.245
14009TIP3    H141984   0.153   1.309   0.246
14009TIP3    H241985   0.244   1.384   0.152
14010TIP3   OH241986   1.599   6.777   3.811
14010TIP3    H141987   1.588   6.759   3.905
14010TIP3    H241988   1.542   6.852   3.795
14011TIP3   OH241989   2.266   4.475   2.190
14011TIP3    H141990   2.274   4.565   2.160
14011TIP3    H241991   2.350   4.456   2.233
14012TIP3   OH241992   7.965   4.478   4.400
14012TIP3    H141993   8.013   4.529   4.466
14012TIP3    H241994   8.027   4.467   4.328
14013TIP3   OH241995   7.986   5.657   0.223
14013TIP3    H141996   7.922   5.727   0.234
14013TIP3    H241997   8.047   5.668   0.296
14014TIP3   OH241998   4.366   0.856   2.249
14014TIP3    H141999   4.298   0.921   2.231
14014TIP3    H242000   4.322   0.789   2.302
14015TIP3   OH242001   6.585   2.332   6.040
14015TIP3    H142002   6.659   2.303   5.987
14015TIP3    H242003   6.521   2.262   6.034
14016TIP3   OH242004   4.326   2.000   1.000
14016TIP3    H142005   4.250   2.024   1.053
14016TIP3    H242006   4.401   2.022   1.056
14017TIP3   OH242007   3.823   1.483   5.611
14017TIP3    H142008   3.813   1.396   5.572
14017TIP3    H242009   3.880   1.469   5.686
14018TIP3   OH242010   5.927   0.645   4.950
14018TIP3    H142011   5.995   0.712   4.936
14018TIP3    H242012   5.971   0.562   4.930
14019TIP3   OH242013   1.484   3.146   0.260
14019TIP3    H142014   1.471   3.164   0.167
14019TIP3    H242015   1.396   3.130   0.294
14020TIP3   OH242016   0.098   4.864   0.026
14020TIP3    H142017   0.140   4.936   0.073
14020TIP3    H242018   0.118   4.786   0.078
14021TIP3   OH242019   4.233   1.359   3.860
14021TIP3    H142020   4.282   1.289   3.815
14021TIP3    H242021   4.146   1.356   3.821
14022TIP3   OH242022   1.312   0.315   2.707
14022TIP3    H142023   1.311   0.219   2.716
14022TIP3    H242024   1.393   0.333   2.658
14023TIP3   OH242025   7.103   0.794   4.952
14023TIP3    H142026   7.107   0.742   5.032
14023TIP3    H242027   7.089   0.884   4.982
14024TIP3   OH242028   1.460   1.669   6.601
14024TIP3    H142029   1.420   1.671   6.514
14024TIP3    H242030   1.550   1.641   6.585
14025TIP3   OH242031   7.690   0.563   5.048
14025TIP3    H142032   7.631   0.605   5.110
14025TIP3    H242033   7.703   0.475   5.082
14026TIP3   OH242034   5.775   3.324   2.848
14026TIP3    H142035   5.784   3.337   2.942
14026TIP3    H242036   5.682   3.304   2.835
14027TIP3   OH242037   8.226   5.224   6.680
14027TIP3    H142038   8.198   5.312   6.704
14027TIP3    H242039   8.322   5.228   6.678
14028TIP3   OH242040   1.813   0.217   3.782
14028TIP3    H142041   1.783   0.131   3.810
14028TIP3    H242042   1.796   0.219   3.688
14029TIP3   OH242043   3.787   4.768   4.119
14029TIP3    H142044   3.834   4.802   4.042
14029TIP3    H242045   3.775   4.675   4.101
14030TIP3   OH242046   7.830   6.990   5.737
14030TIP3    H142047   7.870   6.969   5.822
14030TIP3    H242048   7.874   6.931   5.675
14031TIP3   OH242049   4.851   4.703   0.754
14031TIP3    H142050   4.795   4.627   0.740
14031TIP3    H242051   4.922   4.672   0.809
14032TIP3   OH242052   6.341   4.836   2.122
14032TIP3    H142053   6.413   4.836   2.185
14032TIP3    H242054   6.281   4.768   2.154
14033TIP3   OH242055   3.858   2.397   6.343
14033TIP3    H142056   3.785   2.340   6.365
14033TIP3    H242057   3.925   2.376   6.408
14034TIP3   OH242058   2.877   7.737   6.494
14034TIP3    H142059   2.786   7.768   6.488
14034TIP3    H242060   2.912   7.779   6.572
14035TIP3   OH242061   0.387   6.959   3.300
14035TIP3    H142062   0.411   6.871   3.329
14035TIP3    H242063   0.300   6.974   3.337
14036TIP3   OH242064   2.134   0.713   0.384
14036TIP3    H142065   2.133   0.795   0.335
14036TIP3    H242066   2.171   0.735   0.469
14037TIP3   OH242067   6.211   7.467   0.676
14037TIP3    H142068   6.180   7.470   0.767
14037TIP3    H242069   6.277   7.398   0.675
14038TIP3   OH242070   4.416   5.926   0.656
14038TIP3    H142071   4.323   5.943   0.638
14038TIP3    H242072   4.416   5.884   0.742
14039TIP3   OH242073   3.981   1.989   4.173
14039TIP3    H142074   4.024   1.907   4.198
14039TIP3    H242075   3.942   2.021   4.254
14040TIP3   OH242076   6.817   3.179   3.117
14040TIP3    H142077   6.831   3.258   3.170
14040TIP3    H242078   6.751   3.130   3.166
14041TIP3   OH242079   1.041   2.453   4.492
14041TIP3    H142080   1.117   2.431   4.438
14041TIP3    H242081   0.966   2.426   4.438
14042TIP3   OH242082   2.077   7.085   1.437
14042TIP3    H142083   2.086   7.127   1.522
14042TIP3    H242084   2.164   7.049   1.418
14043TIP3   OH242085   2.262   1.771   2.867
14043TIP3    H142086   2.183   1.738   2.911
14043TIP3    H242087   2.259   1.865   2.879
14044TIP3   OH242088   3.355   6.464   5.106
14044TIP3    H142089   3.349   6.391   5.168
14044TIP3    H242090   3.268   6.468   5.066
14045TIP3   OH242091   3.200   1.796   5.527
14045TIP3    H142092   3.214   1.835   5.613
14045TIP3    H242093   3.105   1.794   5.517
14046TIP3   OH242094   5.159   4.836   5.691
14046TIP3    H142095   5.150   4.904   5.625
14046TIP3    H242096   5.137   4.880   5.773
14047TIP3   OH242097   8.272   0.938   3.415
14047TIP3    H142098   8.300   1.024   3.382
14047TIP3    H242099   8.315   0.875   3.357
14048TIP3   OH242100   3.435   5.868   3.237
14048TIP3    H142101   3.491   5.934   3.196
14048TIP3    H242102   3.485   5.838   3.313
14049TIP3   OH242103   5.541   1.744   2.590
14049TIP3    H142104   5.554   1.747   2.685
14049TIP3    H242105   5.625   1.712   2.556
14050TIP3   OH242106   0.924   4.416   3.717
14050TIP3    H142107   0.992   4.477   3.688
14050TIP3    H242108   0.935   4.411   3.812
14051TIP3   OH242109   1.667   3.509   5.388
14051TIP3    H142110   1.650   3.603   5.394
14051TIP3    H242111   1.598   3.475   5.332
14052TIP3   OH242112   7.569   5.202   3.266
14052TIP3    H142113   7.547   5.125   3.213
14052TIP3    H242114   7.603   5.266   3.204
14053TIP3   OH242115   1.061   4.423   4.574
14053TIP3    H142116   0.976   4.381   4.562
14053TIP3    H242117   1.092   4.441   4.485
14054TIP3   OH242118   6.593   4.573   3.019
14054TIP3    H142119   6.632   4.497   3.062
14054TIP3    H242120   6.613   4.646   3.077
14055TIP3   OH242121   3.220   4.782   5.560
14055TIP3    H142122   3.217   4.857   5.501
14055TIP3    H242123   3.313   4.763   5.570
14056TIP3   OH242124   2.635   1.836   5.296
14056TIP3    H142125   2.630   1.926   5.329
14056TIP3    H242126   2.580   1.835   5.219
14057TIP3   OH242127   4.225   4.417   2.261
14057TIP3    H142128   4.194   4.506   2.247
14057TIP3    H242129   4.161   4.362   2.217
14058TIP3   OH242130   7.111   4.269   6.563
14058TIP3    H142131   7.026   4.224   6.568
14058TIP3    H242132   7.092   4.351   6.517
14059TIP3   OH242133   7.103   6.091   0.959
14059TIP3    H142134   7.158   6.013   0.970
14059TIP3    H242135   7.160   6.164   0.984
14060TIP3   OH242136   5.707   5.098   3.967
14060TIP3    H142137   5.628   5.068   3.923
14060TIP3    H242138   5.762   5.020   3.975
14061TIP3   OH242139   6.485   0.209   5.042
14061TIP3    H142140   6.450   0.207   4.954
14061TIP3    H242141   6.423   0.158   5.094
14062TIP3   OH242142   2.049   6.399   1.126
14062TIP3    H142143   2.047   6.478   1.072
14062TIP3    H242144   2.121   6.414   1.188
14063TIP3   OH242145   0.510   3.430   2.866
14063TIP3    H142146   0.603   3.409   2.860
14063TIP3    H242147   0.466   3.345   2.872
14064TIP3   OH242148   7.225   1.291   0.507
14064TIP3    H142149   7.174   1.222   0.550
14064TIP3    H242150   7.256   1.347   0.578
14065TIP3   OH242151   4.249   7.514   4.964
14065TIP3    H142152   4.282   7.601   4.940
14065TIP3    H242153   4.232   7.471   4.881
14066TIP3   OH242154   4.709   3.160   1.106
14066TIP3    H142155   4.687   3.212   1.184
14066TIP3    H242156   4.656   3.081   1.114
14067TIP3   OH242157   2.031   2.711   0.025
14067TIP3    H142158   2.059   2.793   0.066
14067TIP3    H242159   1.936   2.718   0.020
14068TIP3   OH242160   5.641   0.261   6.517
14068TIP3    H142161   5.620   0.168   6.507
14068TIP3    H242162   5.559   0.306   6.499
14069TIP3   OH242163   4.353   6.857   0.870
14069TIP3    H142164   4.374   6.891   0.783
14069TIP3    H242165   4.296   6.924   0.908
14070TIP3   OH242166   6.257   5.621   2.218
14070TIP3    H142167   6.274   5.710   2.186
14070TIP3    H242168   6.238   5.632   2.311
14071TIP3   OH242169   2.908   1.739   3.485
14071TIP3    H142170   2.945   1.815   3.439
14071TIP3    H242171   2.829   1.717   3.436
14072TIP3   OH242172   0.021   6.556   2.740
14072TIP3    H142173  -0.014   6.468   2.752
14072TIP3    H242174   0.097   6.560   2.800
14073TIP3   OH242175   1.894   0.033   5.237
14073TIP3    H142176   1.881   0.009   5.329
14073TIP3    H242177   1.856   0.121   5.229
14074TIP3   OH242178   5.862   3.562   4.618
14074TIP3    H142179   5.920   3.519   4.681
14074TIP3    H242180   5.881   3.520   4.535
14075TIP3   OH242181   3.342   1.345   0.062
14075TIP3    H142182   3.326   1.417   0.123
14075TIP3    H242183   3.437   1.332   0.065
14076TIP3   OH242184   1.101   6.240   4.017
14076TIP3    H142185   1.181   6.188   4.008
14076TIP3    H242186   1.082   6.239   4.111
14077TIP3   OH242187   1.538   5.093   6.600
14077TIP3    H142188   1.497   5.067   6.517
14077TIP3    H242189   1.501   5.179   6.619
14078TIP3   OH242190   1.391   7.492   3.982
14078TIP3    H142191   1.383   7.400   4.005
14078TIP3    H242192   1.366   7.497   3.890
14079TIP3   OH242193   2.529   3.964   0.156
14079TIP3    H142194   2.593   4.007   0.100
14079TIP3    H242195   2.504   4.031   0.220
14080TIP3   OH242196   1.229   2.926   0.703
14080TIP3    H142197   1.320   2.909   0.678
14080TIP3    H242198   1.181   2.850   0.670
14081TIP3   OH242199   3.200   4.536   4.875
14081TIP3    H142200   3.111   4.509   4.897
14081TIP3    H242201   3.191   4.626   4.844
14082TIP3   OH242202   3.417   1.485   4.722
14082TIP3    H142203   3.438   1.410   4.778
14082TIP3    H242204   3.501   1.531   4.712
14083TIP3   OH242205   0.217   5.495   0.543
14083TIP3    H142206   0.255   5.582   0.531
14083TIP3    H242207   0.184   5.471   0.456
14084TIP3   OH242208   6.203   1.757   4.576
14084TIP3    H142209   6.196   1.714   4.490
14084TIP3    H242210   6.196   1.686   4.639
14085TIP3   OH242211   3.309   1.706   3.209
14085TIP3    H142212   3.351   1.639   3.264
14085TIP3    H242213   3.272   1.657   3.136
14086TIP3   OH242214   1.478   6.184   1.006
14086TIP3    H142215   1.572   6.182   0.990
14086TIP3    H242216   1.469   6.191   1.101
14087TIP3   OH242217   2.151   0.076   4.340
14087TIP3    H142218   2.063   0.062   4.375
14087TIP3    H242219   2.205   0.090   4.418
14088TIP3   OH242220   2.169   2.933   6.004
14088TIP3    H142221   2.142   2.947   6.095
14088TIP3    H242222   2.088   2.940   5.953
14089TIP3   OH242223   1.846   0.113   5.966
14089TIP3    H142224   1.791   0.039   5.992
14089TIP3    H242225   1.804   0.189   6.005
14090TIP3   OH242226   0.228   3.418   0.487
14090TIP3    H142227   0.317   3.382   0.489
14090TIP3    H242228   0.220   3.457   0.400
14091TIP3   OH242229   5.840   5.333   1.767
14091TIP3    H142230   5.803   5.255   1.808
14091TIP3    H242231   5.765   5.390   1.750
14092TIP3   OH242232   1.847   4.440   4.663
14092TIP3    H142233   1.757   4.406   4.664
14092TIP3    H242234   1.837   4.535   4.671
14093TIP3   OH242235   6.865   0.720   1.507
14093TIP3    H142236   6.908   0.663   1.571
14093TIP3    H242237   6.795   0.665   1.471
14094TIP3   OH242238   0.567   6.925   6.734
14094TIP3    H142239   0.527   6.954   6.652
14094TIP3    H242240   0.575   6.830   6.725
14095TIP3   OH242241   3.480   2.377   0.044
14095TIP3    H142242   3.550   2.425   0.088
14095TIP3    H242243   3.404   2.435   0.049
14096TIP3   OH242244   7.382   3.526   3.799
14096TIP3    H142245   7.447   3.455   3.798
14096TIP3    H242246   7.430   3.603   3.769
14097TIP3   OH242247   0.354   4.467   4.242
14097TIP3    H142248   0.260   4.460   4.258
14097TIP3    H242249   0.393   4.400   4.298
14098TIP3   OH242250   5.354   2.160   0.752
14098TIP3    H142251   5.398   2.074   0.752
14098TIP3    H242252   5.278   2.148   0.808
14099TIP3   OH242253   1.288   4.301   6.576
14099TIP3    H142254   1.293   4.269   6.486
14099TIP3    H242255   1.352   4.247   6.623
14100TIP3   OH242256   6.426   0.796   5.587
14100TIP3    H142257   6.400   0.778   5.677
14100TIP3    H242258   6.376   0.734   5.535
14101TIP3   OH242259   0.932   4.876   3.362
14101TIP3    H142260   0.951   4.945   3.299
14101TIP3    H242261   0.937   4.795   3.311
14102TIP3   OH242262   8.245   4.597   5.460
14102TIP3    H142263   8.237   4.686   5.496
14102TIP3    H242264   8.270   4.543   5.535
14103TIP3   OH242265   0.537   0.614   6.292
14103TIP3    H142266   0.447   0.586   6.275
14103TIP3    H242267   0.531   0.668   6.370
14104TIP3   OH242268   4.631   5.958   5.596
14104TIP3    H142269   4.672   5.884   5.641
14104TIP3    H242270   4.613   6.021   5.666
14105TIP3   OH242271   2.562   5.438   1.470
14105TIP3    H142272   2.598   5.361   1.425
14105TIP3    H242273   2.491   5.468   1.413
14106TIP3   OH242274   5.668   2.489   2.917
14106TIP3    H142275   5.644   2.446   2.835
14106TIP3    H242276   5.616   2.444   2.984
14107TIP3   OH242277   1.484   5.079   5.167
14107TIP3    H142278   1.395   5.113   5.180
14107TIP3    H242279   1.540   5.141   5.213
14108TIP3   OH242280   4.205   1.109   2.232
14108TIP3    H142281   4.117   1.109   2.196
14108TIP3    H242282   4.192   1.113   2.327
14109TIP3   OH242283   3.335   0.083   4.308
14109TIP3    H142284   3.369   0.051   4.391
14109TIP3    H242285   3.311   0.004   4.259
14110TIP3   OH242286   6.831   6.737   1.022
14110TIP3    H142287   6.900   6.800   1.040
14110TIP3    H242288   6.756   6.791   0.997
14111TIP3   OH242289   7.520   1.587   3.779
14111TIP3    H142290   7.587   1.532   3.819
14111TIP3    H242291   7.518   1.560   3.688
14112TIP3   OH242292   2.851   6.616   3.919
14112TIP3    H142293   2.838   6.563   3.840
14112TIP3    H242294   2.797   6.574   3.985
14113TIP3   OH242295   7.049   0.176   0.220
14113TIP3    H142296   7.084   0.261   0.249
14113TIP3    H242297   6.958   0.177   0.248
14114TIP3   OH242298   2.917   5.478   3.713
14114TIP3    H142299   2.856   5.482   3.787
14114TIP3    H242300   2.971   5.557   3.723
14115TIP3   OH242301   6.816   7.243   5.045
14115TIP3    H142302   6.810   7.252   4.950
14115TIP3    H242303   6.758   7.170   5.066
14116TIP3   OH242304   8.080   1.044   1.546
14116TIP3    H142305   8.016   1.110   1.572
14116TIP3    H242306   8.164   1.088   1.553
14117TIP3   OH242307   7.880   3.251   2.638
14117TIP3    H142308   7.860   3.255   2.544
14117TIP3    H242309   7.807   3.297   2.679
14118TIP3   OH242310   1.004   6.726   4.027
14118TIP3    H142311   1.015   6.674   3.947
14118TIP3    H242312   0.921   6.696   4.064
14119TIP3   OH242313   2.369   0.518   2.422
14119TIP3    H142314   2.417   0.579   2.367
14119TIP3    H242315   2.279   0.522   2.390
14120TIP3   OH242316   6.323   3.827   3.773
14120TIP3    H142317   6.298   3.843   3.682
14120TIP3    H242318   6.264   3.881   3.824
14121TIP3   OH242319   5.824   1.879   6.177
14121TIP3    H142320   5.824   1.803   6.236
14121TIP3    H242321   5.905   1.925   6.198
14122TIP3   OH242322   5.890   7.410   2.627
14122TIP3    H142323   5.855   7.487   2.671
14122TIP3    H242324   5.896   7.344   2.697
14123TIP3   OH242325   2.030   0.104   5.731
14123TIP3    H142326   1.957   0.145   5.777
14123TIP3    H242327   2.034   0.016   5.767
14124TIP3   OH242328   3.157   5.832   0.974
14124TIP3    H142329   3.094   5.863   0.909
14124TIP3    H242330   3.242   5.842   0.932
14125TIP3   OH242331   1.594   6.925   2.952
14125TIP3    H142332   1.676   6.875   2.958
14125TIP3    H242333   1.535   6.880   3.012
14126TIP3   OH242334   3.249   4.263   0.304
14126TIP3    H142335   3.172   4.318   0.292
14126TIP3    H242336   3.302   4.310   0.369
14127TIP3   OH242337   3.006   7.405   4.098
14127TIP3    H142338   2.923   7.359   4.099
14127TIP3    H242339   2.996   7.475   4.162
14128TIP3   OH242340   2.315   2.318   6.318
14128TIP3    H142341   2.266   2.260   6.259
14128TIP3    H242342   2.406   2.304   6.295
14129TIP3   OH242343   4.299   6.385   6.232
14129TIP3    H142344   4.269   6.441   6.159
14129TIP3    H242345   4.345   6.445   6.291
14130TIP3   OH242346   0.963   6.087   0.402
14130TIP3    H142347   0.947   6.020   0.336
14130TIP3    H242348   0.879   6.131   0.413
14131TIP3   OH242349   0.487   2.479   2.775
14131TIP3    H142350   0.506   2.565   2.738
14131TIP3    H242351   0.435   2.435   2.708
14132TIP3   OH242352   4.245   2.555   1.189
14132TIP3    H142353   4.286   2.627   1.237
14132TIP3    H242354   4.220   2.492   1.257
14133TIP3   OH242355   1.655   3.479   3.429
14133TIP3    H142356   1.692   3.519   3.350
14133TIP3    H242357   1.586   3.540   3.456
14134TIP3   OH242358   6.961   0.818   4.594
14134TIP3    H142359   6.946   0.864   4.512
14134TIP3    H242360   7.040   0.859   4.630
14135TIP3   OH242361   5.608   0.411   2.594
14135TIP3    H142362   5.651   0.343   2.646
14135TIP3    H242363   5.531   0.368   2.557
14136TIP3   OH242364   7.224   0.015   6.019
14136TIP3    H142365   7.314  -0.002   6.045
14136TIP3    H242366   7.207   0.105   6.047
14137TIP3   OH242367   4.924   1.527   1.813
14137TIP3    H142368   4.872   1.487   1.883
14137TIP3    H242369   5.011   1.488   1.822
14138TIP3   OH242370   6.894   4.528   6.691
14138TIP3    H142371   6.945   4.609   6.694
14138TIP3    H242372   6.921   4.485   6.610
14139TIP3   OH242373   8.175   4.510   6.026
14139TIP3    H142374   8.263   4.476   6.017
14139TIP3    H242375   8.182   4.580   6.091
14140TIP3   OH242376   2.016   2.571   5.369
14140TIP3    H142377   1.957   2.647   5.364
14140TIP3    H242378   2.018   2.536   5.280
14141TIP3   OH242379   1.364   2.972   2.801
14141TIP3    H142380   1.374   2.975   2.896
14141TIP3    H242381   1.372   2.879   2.779
14142TIP3   OH242382   3.861   7.802   4.192
14142TIP3    H142383   3.768   7.777   4.199
14142TIP3    H242384   3.859   7.890   4.153
14143TIP3   OH242385   8.290   3.221   3.758
14143TIP3    H142386   8.352   3.167   3.808
14143TIP3    H242387   8.342   3.258   3.687
14144TIP3   OH242388   4.053   2.264   5.516
14144TIP3    H142389   4.064   2.270   5.421
14144TIP3    H242390   3.983   2.326   5.536
14145TIP3   OH242391   6.459   0.667   1.052
14145TIP3    H142392   6.421   0.592   1.006
14145TIP3    H242393   6.387   0.702   1.105
14146TIP3   OH242394   0.366   1.340   2.143
14146TIP3    H142395   0.320   1.259   2.120
14146TIP3    H242396   0.340   1.402   2.075
14147TIP3   OH242397   0.696   6.239   3.937
14147TIP3    H142398   0.739   6.301   3.878
14147TIP3    H242399   0.764   6.177   3.961
14148TIP3   OH242400   7.221   0.666   0.365
14148TIP3    H142401   7.137   0.712   0.356
14148TIP3    H242402   7.284   0.724   0.321
14149TIP3   OH242403   3.008   2.128   1.154
14149TIP3    H142404   2.948   2.054   1.149
14149TIP3    H242405   3.015   2.147   1.247
14150TIP3   OH242406   3.459   7.361   3.972
14150TIP3    H142407   3.384   7.303   3.987
14150TIP3    H242408   3.534   7.302   3.964
14151TIP3   OH242409   0.852   3.488   3.553
14151TIP3    H142410   0.917   3.472   3.485
14151TIP3    H242411   0.795   3.411   3.551
14152TIP3   OH242412   7.166   4.906   1.279
14152TIP3    H142413   7.257   4.929   1.300
14152TIP3    H242414   7.172   4.862   1.195
14153TIP3   OH242415   3.301   2.988   2.586
14153TIP3    H142416   3.283   3.071   2.541
14153TIP3    H242417   3.232   2.929   2.555
14154TIP3   OH242418   5.697   5.386   6.287
14154TIP3    H142419   5.606   5.377   6.259
14154TIP3    H242420   5.745   5.407   6.206
14155TIP3   OH242421   6.294   6.266   4.538
14155TIP3    H142422   6.303   6.291   4.446
14155TIP3    H242423   6.200   6.271   4.555
14156TIP3   OH242424   5.993   1.076   0.360
14156TIP3    H142425   5.984   1.172   0.363
14156TIP3    H242426   5.906   1.044   0.383
14157TIP3   OH242427   7.037   2.940   2.513
14157TIP3    H142428   7.001   2.875   2.573
14157TIP3    H242429   7.112   2.978   2.560
14158TIP3   OH242430   4.428   6.941   0.387
14158TIP3    H142431   4.511   6.930   0.342
14158TIP3    H242432   4.382   7.010   0.337
14159TIP3   OH242433   2.751   1.908   5.622
14159TIP3    H142434   2.732   2.002   5.614
14159TIP3    H242435   2.671   1.871   5.660
14160TIP3   OH242436   8.206   7.766   2.018
14160TIP3    H142437   8.120   7.731   1.995
14160TIP3    H242438   8.268   7.700   1.985
14161TIP3   OH242439   1.308   3.386   3.327
14161TIP3    H142440   1.390   3.437   3.331
14161TIP3    H242441   1.309   3.348   3.239
14162TIP3   OH242442   6.538   2.054   4.654
14162TIP3    H142443   6.461   2.041   4.710
14162TIP3    H242444   6.612   2.027   4.709
14163TIP3   OH242445   0.098   1.185   4.368
14163TIP3    H142446   0.031   1.189   4.436
14163TIP3    H242447   0.089   1.097   4.330
14164TIP3   OH242448   4.197   0.364   2.258
14164TIP3    H142449   4.186   0.306   2.334
14164TIP3    H242450   4.117   0.418   2.258
14165TIP3   OH242451   0.258   7.792   2.857
14165TIP3    H142452   0.228   7.737   2.929
14165TIP3    H242453   0.183   7.799   2.799
14166TIP3   OH242454   5.418   6.425   5.509
14166TIP3    H142455   5.331   6.440   5.471
14166TIP3    H242456   5.464   6.372   5.445
14167TIP3   OH242457   4.949   1.869   2.074
14167TIP3    H142458   5.040   1.854   2.050
14167TIP3    H242459   4.952   1.944   2.133
14168TIP3   OH242460   0.840   3.264   4.782
14168TIP3    H142461   0.791   3.331   4.830
14168TIP3    H242462   0.923   3.257   4.829
14169TIP3   OH242463   7.541   5.885   2.625
14169TIP3    H142464   7.629   5.910   2.595
14169TIP3    H242465   7.482   5.945   2.579
14170TIP3   OH242466   6.111   5.634   3.632
14170TIP3    H142467   6.121   5.673   3.545
14170TIP3    H242468   6.067   5.551   3.615
14171TIP3   OH242469   7.662   0.041   4.013
14171TIP3    H142470   7.740   0.006   3.968
14171TIP3    H242471   7.698   0.095   4.083
14172TIP3   OH242472   2.887   5.465   1.300
14172TIP3    H142473   2.963   5.479   1.244
14172TIP3    H242474   2.838   5.547   1.296
14173TIP3   OH242475   3.831   5.183   2.750
14173TIP3    H142476   3.925   5.171   2.745
14173TIP3    H242477   3.811   5.181   2.844
14174TIP3   OH242478   2.964   0.167   4.982
14174TIP3    H142479   2.887   0.196   4.932
14174TIP3    H242480   2.990   0.085   4.940
14175TIP3   OH242481   5.616   2.122   2.443
14175TIP3    H142482   5.655   2.208   2.455
14175TIP3    H242483   5.678   2.061   2.482
14176TIP3   OH242484   3.043   0.814   1.049
14176TIP3    H142485   3.015   0.743   0.991
14176TIP3    H242486   3.122   0.782   1.091
14177TIP3   OH242487   0.014   4.501   4.911
14177TIP3    H142488  -0.015   4.425   4.962
14177TIP3    H242489   0.090   4.534   4.959
14178TIP3   OH242490   0.144   2.002   5.133
14178TIP3    H142491   0.211   2.022   5.067
14178TIP3    H242492   0.183   2.030   5.216
14179TIP3   OH242493   5.127   1.844   5.604
14179TIP3    H142494   5.086   1.931   5.604
14179TIP3    H242495   5.084   1.798   5.532
14180TIP3   OH242496   2.599   2.054   3.246
14180TIP3    H142497   2.581   2.042   3.339
14180TIP3    H242498   2.514   2.043   3.203
14181TIP3   OH242499   2.327   5.450   0.402
14181TIP3    H142500   2.299   5.496   0.323
14181TIP3    H242501   2.296   5.360   0.389
14182TIP3   OH242502   3.728   6.208   0.069
14182TIP3    H142503   3.746   6.251   0.152
14182TIP3    H242504   3.640   6.238   0.045
14183TIP3   OH242505   1.435   0.796   2.399
14183TIP3    H142506   1.479   0.735   2.458
14183TIP3    H242507   1.342   0.788   2.421
14184TIP3   OH242508   5.518   2.223   3.979
14184TIP3    H142509   5.464   2.146   3.993
14184TIP3    H242510   5.495   2.283   4.050
14185TIP3   OH242511   1.389   7.150   3.515
14185TIP3    H142512   1.435   7.118   3.438
14185TIP3    H242513   1.455   7.199   3.564
14186TIP3   OH242514   3.517   2.951   0.750
14186TIP3    H142515   3.450   2.911   0.806
14186TIP3    H242516   3.484   2.940   0.661
14187TIP3   OH242517   4.081   7.260   6.129
14187TIP3    H142518   4.166   7.250   6.171
14187TIP3    H242519   4.018   7.230   6.194
14188TIP3   OH242520   5.349   2.080   1.977
14188TIP3    H142521   5.254   2.066   1.971
14188TIP3    H242522   5.387   2.004   1.933
14189TIP3   OH242523   3.508   0.634   3.909
14189TIP3    H142524   3.584   0.675   3.952
14189TIP3    H242525   3.539   0.546   3.887
14190TIP3   OH242526   1.208   0.638   2.159
14190TIP3    H142527   1.299   0.608   2.150
14190TIP3    H242528   1.156   0.568   2.119
14191TIP3   OH242529   8.150   0.130   6.494
14191TIP3    H142530   8.151   0.133   6.590
14191TIP3    H242531   8.236   0.160   6.468
14192TIP3   OH242532   7.781   5.656   2.828
14192TIP3    H142533   7.836   5.583   2.856
14192TIP3    H242534   7.692   5.627   2.846
14193TIP3   OH242535   1.271   7.299   6.387
14193TIP3    H142536   1.257   7.339   6.473
14193TIP3    H242537   1.266   7.372   6.325
14194TIP3   OH242538   6.046   2.423   0.899
14194TIP3    H142539   5.969   2.433   0.956
14194TIP3    H242540   6.022   2.350   0.841
14195TIP3   OH242541   5.993   3.190   6.486
14195TIP3    H142542   6.078   3.186   6.442
14195TIP3    H242543   5.942   3.120   6.445
14196TIP3   OH242544   4.038   3.572   6.289
14196TIP3    H142545   4.112   3.544   6.235
14196TIP3    H242546   4.023   3.500   6.349
14197TIP3   OH242547   6.612   1.171   2.032
14197TIP3    H142548   6.533   1.134   2.072
14197TIP3    H242549   6.645   1.102   1.975
14198TIP3   OH242550   5.151   4.983   2.699
14198TIP3    H142551   5.162   5.071   2.663
14198TIP3    H242552   5.100   4.997   2.779
14199TIP3   OH242553   0.993   1.166   5.692
14199TIP3    H142554   0.980   1.107   5.766
14199TIP3    H242555   0.926   1.234   5.703
14200TIP3   OH242556   5.001   0.119   0.031
14200TIP3    H142557   4.952   0.173  -0.032
14200TIP3    H242558   4.955   0.035   0.030
14201TIP3   OH242559   2.666   7.776   2.540
14201TIP3    H142560   2.593   7.716   2.524
14201TIP3    H242561   2.687   7.763   2.632
14202TIP3   OH242562   2.461   3.668   0.947
14202TIP3    H142563   2.550   3.643   0.924
14202TIP3    H242564   2.438   3.610   1.020
14203TIP3   OH242565   0.632   4.564   5.470
14203TIP3    H142566   0.542   4.534   5.480
14203TIP3    H242567   0.624   4.647   5.422
14204TIP3   OH242568   3.598   4.581   0.277
14204TIP3    H142569   3.682   4.542   0.253
14204TIP3    H242570   3.534   4.513   0.258
14205TIP3   OH242571   4.493   7.472   4.068
14205TIP3    H142572   4.557   7.402   4.083
14205TIP3    H242573   4.474   7.467   3.975
14206TIP3   OH242574   7.854   0.293   5.980
14206TIP3    H142575   7.814   0.247   6.054
14206TIP3    H242576   7.830   0.385   5.992
14207TIP3   OH242577   8.222   4.046   1.326
14207TIP3    H142578   8.158   4.068   1.394
14207TIP3    H242579   8.169   4.040   1.246
14208TIP3   OH242580   6.698   5.194   5.644
14208TIP3    H142581   6.791   5.185   5.624
14208TIP3    H242582   6.682   5.131   5.714
14209TIP3   OH242583   0.945   3.093   2.337
14209TIP3    H142584   0.864   3.116   2.292
14209TIP3    H242585   1.014   3.114   2.275
14210TIP3   OH242586   8.015   0.931   4.158
14210TIP3    H142587   8.097   0.894   4.123
14210TIP3    H242588   8.014   1.021   4.125
14211TIP3   OH242589   2.685   7.563   3.027
14211TIP3    H142590   2.678   7.474   3.064
14211TIP3    H242591   2.754   7.605   3.079
14212TIP3   OH242592   4.920   1.886   4.416
14212TIP3    H142593   4.933   1.885   4.511
14212TIP3    H242594   5.000   1.846   4.381
14213TIP3   OH242595   1.122   7.664   3.335
14213TIP3    H142596   1.106   7.648   3.242
14213TIP3    H242597   1.206   7.621   3.352
14214TIP3   OH242598   6.904   7.040   2.941
14214TIP3    H142599   6.904   7.136   2.940
14214TIP3    H242600   6.869   7.016   2.855
14215TIP3   OH242601   8.285   4.244   2.215
14215TIP3    H142602   8.248   4.205   2.294
14215TIP3    H242603   8.374   4.209   2.211
14216TIP3   OH242604   7.386   1.727   5.812
14216TIP3    H142605   7.314   1.665   5.820
14216TIP3    H242606   7.356   1.790   5.746
14217TIP3   OH242607   1.486   4.469   3.685
14217TIP3    H142608   1.524   4.493   3.769
14217TIP3    H242609   1.519   4.380   3.669
14218TIP3   OH242610   5.108   0.305   5.290
14218TIP3    H142611   5.083   0.395   5.311
14218TIP3    H242612   5.204   0.305   5.295
14219TIP3   OH242613   3.257   0.835   5.521
14219TIP3    H142614   3.303   0.806   5.600
14219TIP3    H242615   3.171   0.794   5.526
14220TIP3   OH242616   3.094   5.318   1.545
14220TIP3    H142617   3.152   5.394   1.543
14220TIP3    H242618   3.013   5.348   1.505
14221TIP3   OH242619   3.083   0.834   3.786
14221TIP3    H142620   3.081   0.755   3.840
14221TIP3    H242621   2.991   0.854   3.770
14222TIP3   OH242622   5.452   7.087   1.357
14222TIP3    H142623   5.533   7.116   1.316
14222TIP3    H242624   5.478   7.062   1.446
14223TIP3   OH242625   4.359   4.155   5.516
14223TIP3    H142626   4.337   4.108   5.596
14223TIP3    H242627   4.447   4.189   5.532
14224TIP3   OH242628   4.880   5.402   0.825
14224TIP3    H142629   4.872   5.331   0.762
14224TIP3    H242630   4.879   5.360   0.910
14225TIP3   OH242631   2.791   5.151   5.530
14225TIP3    H142632   2.838   5.106   5.601
14225TIP3    H242633   2.830   5.239   5.528
14226TIP3   OH242634   7.757   4.046   3.526
14226TIP3    H142635   7.685   4.022   3.468
14226TIP3    H242636   7.794   3.962   3.555
14227TIP3   OH242637   6.128   0.418   1.847
14227TIP3    H142638   6.119   0.488   1.784
14227TIP3    H242639   6.222   0.414   1.866
14228TIP3   OH242640   1.329   1.559   3.187
14228TIP3    H142641   1.260   1.624   3.177
14228TIP3    H242642   1.313   1.521   3.273
14229TIP3   OH242643   6.951   0.792   0.305
14229TIP3    H142644   6.949   0.881   0.339
14229TIP3    H242645   6.910   0.798   0.218
14230TIP3   OH242646   7.054   5.287   0.564
14230TIP3    H142647   7.040   5.381   0.565
14230TIP3    H242648   6.965   5.250   0.566
14231TIP3   OH242649   7.572   2.826   6.697
14231TIP3    H142650   7.516   2.754   6.668
14231TIP3    H242651   7.525   2.905   6.672
14232TIP3   OH242652   1.073   3.587   1.428
14232TIP3    H142653   1.058   3.680   1.411
14232TIP3    H242654   1.161   3.584   1.465
14233TIP3   OH242655   7.005   1.139   0.623
14233TIP3    H142656   7.003   1.090   0.540
14233TIP3    H242657   6.920   1.183   0.626
14234TIP3   OH242658   6.342   3.272   3.594
14234TIP3    H142659   6.369   3.189   3.554
14234TIP3    H242660   6.410   3.334   3.568
14235TIP3   OH242661   7.187   5.399   2.905
14235TIP3    H142662   7.266   5.347   2.917
14235TIP3    H242663   7.169   5.435   2.993
14236TIP3   OH242664   8.058   1.116   1.263
14236TIP3    H142665   8.129   1.134   1.201
14236TIP3    H242666   8.101   1.106   1.348
14237TIP3   OH242667   2.133   7.540   1.027
14237TIP3    H142668   2.079   7.535   1.106
14237TIP3    H242669   2.223   7.538   1.058
14238TIP3   OH242670   6.295   5.841   5.655
14238TIP3    H142671   6.309   5.768   5.595
14238TIP3    H242672   6.207   5.872   5.634
14239TIP3   OH242673   1.848   1.206   5.475
14239TIP3    H142674   1.847   1.299   5.456
14239TIP3    H242675   1.759   1.185   5.504
14240TIP3   OH242676   5.911   1.893   2.826
14240TIP3    H142677   5.892   1.843   2.747
14240TIP3    H242678   5.994   1.937   2.807
14241TIP3   OH242679   0.475   3.734   1.224
14241TIP3    H142680   0.444   3.650   1.190
14241TIP3    H242681   0.535   3.711   1.294
14242TIP3   OH242682   3.639   1.865   5.371
14242TIP3    H142683   3.681   1.951   5.367
14242TIP3    H242684   3.649   1.829   5.283
14243TIP3   OH242685   0.622   3.814   5.270
14243TIP3    H142686   0.653   3.746   5.210
14243TIP3    H242687   0.624   3.773   5.357
14244TIP3   OH242688   5.545   5.471   3.459
14244TIP3    H142689   5.615   5.433   3.406
14244TIP3    H242690   5.564   5.565   3.460
14245TIP3   OH242691   4.671   2.663   5.193
14245TIP3    H142692   4.718   2.619   5.123
14245TIP3    H242693   4.739   2.694   5.252
14246TIP3   OH242694   0.474   1.994   1.213
14246TIP3    H142695   0.454   2.055   1.142
14246TIP3    H242696   0.511   1.917   1.170
14247TIP3   OH242697   4.454   6.564   0.828
14247TIP3    H142698   4.446   6.473   0.856
14247TIP3    H242699   4.438   6.561   0.733
14248TIP3   OH242700   7.122   2.849   0.260
14248TIP3    H142701   7.043   2.903   0.267
14248TIP3    H242702   7.090   2.761   0.241
14249TIP3   OH242703   6.550   1.312   2.635
14249TIP3    H142704   6.527   1.237   2.689
14249TIP3    H242705   6.505   1.297   2.552
14250TIP3   OH242706   7.320   1.483   5.377
14250TIP3    H142707   7.243   1.504   5.324
14250TIP3    H242708   7.378   1.558   5.366
14251TIP3   OH242709   4.549   7.713   3.124
14251TIP3    H142710   4.592   7.702   3.208
14251TIP3    H242711   4.539   7.624   3.090
14252TIP3   OH242712   2.782   2.771   2.280
14252TIP3    H142713   2.861   2.825   2.269
14252TIP3    H242714   2.722   2.801   2.213
14253TIP3   OH242715   7.362   4.923   3.909
14253TIP3    H142716   7.334   4.979   3.981
14253TIP3    H242717   7.412   4.853   3.950
14254TIP3   OH242718   4.795   5.697   0.934
14254TIP3    H142719   4.766   5.682   1.024
14254TIP3    H242720   4.795   5.610   0.894
14255TIP3   OH242721   6.963   1.571   3.947
14255TIP3    H142722   6.888   1.539   3.997
14255TIP3    H242723   6.981   1.658   3.982
14256TIP3   OH242724   0.564   3.783   1.703
14256TIP3    H142725   0.503   3.839   1.749
14256TIP3    H242726   0.567   3.703   1.755
14257TIP3   OH242727   2.372   0.685   5.441
14257TIP3    H142728   2.327   0.716   5.363
14257TIP3    H242729   2.420   0.607   5.412
14258TIP3   OH242730   3.129   2.352   0.612
14258TIP3    H142731   3.131   2.437   0.657
14258TIP3    H242732   3.097   2.291   0.678
14259TIP3   OH242733   2.423   3.007   0.030
14259TIP3    H142734   2.505   3.022  -0.016
14259TIP3    H242735   2.448   2.955   0.107
14260TIP3   OH242736   6.001   3.884   1.253
14260TIP3    H142737   6.077   3.935   1.279
14260TIP3    H242738   5.928   3.945   1.258
14261TIP3   OH242739   1.410   6.526   5.286
14261TIP3    H142740   1.352   6.545   5.212
14261TIP3    H242741   1.364   6.562   5.362
14262TIP3   OH242742   1.688   0.353   6.584
14262TIP3    H142743   1.648   0.363   6.498
14262TIP3    H242744   1.767   0.407   6.580
14263TIP3   OH242745   3.717   7.580   2.891
14263TIP3    H142746   3.760   7.597   2.807
14263TIP3    H242747   3.787   7.545   2.946
14264TIP3   OH242748   2.392   5.603   1.974
14264TIP3    H142749   2.413   5.691   2.006
14264TIP3    H242750   2.474   5.572   1.934
14265TIP3   OH242751   6.814   0.536   0.147
14265TIP3    H142752   6.880   0.536   0.077
14265TIP3    H242753   6.851   0.593   0.214
14266TIP3   OH242754   6.207   0.465   4.603
14266TIP3    H142755   6.212   0.561   4.605
14266TIP3    H242756   6.114   0.446   4.616
14267TIP3   OH242757   1.318   7.314   5.651
14267TIP3    H142758   1.299   7.397   5.696
14267TIP3    H242759   1.289   7.329   5.561
14268TIP3   OH242760   3.345   0.162   3.320
14268TIP3    H142761   3.389   0.099   3.378
14268TIP3    H242762   3.260   0.122   3.302
14269TIP3   OH242763   4.718   5.221   6.346
14269TIP3    H142764   4.623   5.231   6.342
14269TIP3    H242765   4.732   5.127   6.357
14270TIP3   OH242766   1.985   6.379   4.097
14270TIP3    H142767   2.078   6.391   4.079
14270TIP3    H242768   1.952   6.330   4.021
14271TIP3   OH242769   4.145   0.961   4.335
14271TIP3    H142770   4.235   0.972   4.303
14271TIP3    H242771   4.100   1.041   4.308
14272TIP3   OH242772   1.732   5.359   3.589
14272TIP3    H142773   1.784   5.288   3.553
14272TIP3    H242774   1.720   5.421   3.517
14273TIP3   OH242775   6.003   5.586   3.041
14273TIP3    H142776   6.095   5.597   3.066
14273TIP3    H242777   5.964   5.540   3.116
14274TIP3   OH242778   0.736   2.230   6.371
14274TIP3    H142779   0.655   2.280   6.381
14274TIP3    H242780   0.718   2.146   6.414
14275TIP3   OH242781   5.199   4.631   2.220
14275TIP3    H142782   5.200   4.724   2.242
14275TIP3    H242783   5.109   4.613   2.194
14276TIP3   OH242784   0.159   6.092   2.788
14276TIP3    H142785   0.126   6.047   2.711
14276TIP3    H242786   0.102   6.062   2.859
14277TIP3   OH242787   0.249   3.356   5.798
14277TIP3    H142788   0.275   3.294   5.866
14277TIP3    H242789   0.294   3.325   5.719
14278TIP3   OH242790   4.231   2.350   4.557
14278TIP3    H142791   4.300   2.283   4.558
14278TIP3    H242792   4.278   2.432   4.538
14279TIP3   OH242793   6.992   1.430   6.475
14279TIP3    H142794   6.912   1.449   6.523
14279TIP3    H242795   7.060   1.419   6.542
14280TIP3   OH242796   0.643   4.462   1.509
14280TIP3    H142797   0.583   4.438   1.579
14280TIP3    H242798   0.727   4.476   1.553
14281TIP3   OH242799   0.663   1.239   1.326
14281TIP3    H142800   0.624   1.166   1.278
14281TIP3    H242801   0.750   1.249   1.287
14282TIP3   OH242802   1.233   6.708   1.612
14282TIP3    H142803   1.318   6.678   1.579
14282TIP3    H242804   1.193   6.753   1.538
14283TIP3   OH242805   6.280   3.059   0.505
14283TIP3    H142806   6.277   2.977   0.554
14283TIP3    H242807   6.329   3.038   0.425
14284TIP3   OH242808   0.531   5.175   3.637
14284TIP3    H142809   0.510   5.099   3.583
14284TIP3    H242810   0.563   5.138   3.719
14285TIP3   OH242811   0.389   4.868   4.128
14285TIP3    H142812   0.361   4.805   4.061
14285TIP3    H242813   0.331   4.943   4.116
14286TIP3   OH242814   6.109   0.977   1.402
14286TIP3    H142815   6.127   1.070   1.416
14286TIP3    H242816   6.113   0.939   1.490
14287TIP3   OH242817   4.566   1.695   6.215
14287TIP3    H142818   4.485   1.703   6.164
14287TIP3    H242819   4.549   1.624   6.276
14288TIP3   OH242820   4.057   6.727   1.436
14288TIP3    H142821   4.075   6.706   1.344
14288TIP3    H242822   4.066   6.823   1.440
14289TIP3   OH242823   3.070   7.695   1.473
14289TIP3    H142824   3.066   7.600   1.464
14289TIP3    H242825   3.025   7.728   1.395
14290TIP3   OH242826   1.443   3.305   5.278
14290TIP3    H142827   1.470   3.310   5.187
14290TIP3    H242828   1.349   3.326   5.277
14291TIP3   OH242829   5.757   3.614   2.841
14291TIP3    H142830   5.667   3.582   2.854
14291TIP3    H242831   5.811   3.556   2.893
14292TIP3   OH242832   2.108   4.750   5.612
14292TIP3    H142833   2.149   4.813   5.552
14292TIP3    H242834   2.027   4.794   5.639
14293TIP3   OH242835   5.158   3.367   1.005
14293TIP3    H142836   5.169   3.405   0.918
14293TIP3    H242837   5.066   3.338   1.007
14294TIP3   OH242838   3.215   3.058   4.948
14294TIP3    H142839   3.193   3.115   4.874
14294TIP3    H242840   3.303   3.026   4.928
14295TIP3   OH242841   5.573   3.036   4.582
14295TIP3    H142842   5.591   3.081   4.500
14295TIP3    H242843   5.654   2.990   4.604
14296TIP3   OH242844   2.474   4.574   2.814
14296TIP3    H142845   2.566   4.596   2.795
14296TIP3    H242846   2.470   4.569   2.909
14297TIP3   OH242847   7.183   3.962   6.565
14297TIP3    H142848   7.135   3.890   6.606
14297TIP3    H242849   7.185   4.030   6.632
14298TIP3   OH242850   0.558   3.833   3.665
14298TIP3    H142851   0.477   3.877   3.641
14298TIP3    H242852   0.591   3.796   3.583
14299TIP3   OH242853   6.582   7.665   5.359
14299TIP3    H142854   6.637   7.730   5.403
14299TIP3    H242855   6.609   7.669   5.267
14300TIP3   OH242856   5.207   6.828   6.117
14300TIP3    H142857   5.297   6.802   6.136
14300TIP3    H242858   5.210   6.924   6.110
14301TIP3   OH242859   0.324   2.860   6.553
14301TIP3    H142860   0.273   2.779   6.554
14301TIP3    H242861   0.370   2.859   6.469
14302TIP3   OH242862   0.057   6.633   6.628
14302TIP3    H142863  -0.007   6.589   6.573
14302TIP3    H242864   0.005   6.675   6.696
14303TIP3   OH242865   0.767   0.403   0.909
14303TIP3    H142866   0.822   0.333   0.944
14303TIP3    H242867   0.806   0.424   0.824
14304TIP3   OH242868   0.631   1.807   4.289
14304TIP3    H142869   0.722   1.835   4.293
14304TIP3    H242870   0.619   1.775   4.200
14305TIP3   OH242871   8.082   3.036   4.886
14305TIP3    H142872   8.049   3.020   4.798
14305TIP3    H242873   8.088   3.131   4.893
14306TIP3   OH242874   5.932   0.608   6.443
14306TIP3    H142875   5.873   0.619   6.518
14306TIP3    H242876   5.970   0.521   6.455
14307TIP3   OH242877   7.901   2.267   3.988
14307TIP3    H142878   7.828   2.205   3.995
14307TIP3    H242879   7.905   2.287   3.895
14308TIP3   OH242880   6.559   2.120   0.042
14308TIP3    H142881   6.572   2.070   0.122
14308TIP3    H242882   6.464   2.116   0.026
14309TIP3   OH242883   7.340   2.370   6.660
14309TIP3    H142884   7.429   2.340   6.642
14309TIP3    H242885   7.348   2.465   6.665
14310TIP3   OH242886   2.743   5.824   6.039
14310TIP3    H142887   2.657   5.867   6.045
14310TIP3    H242888   2.725   5.731   6.053
14311TIP3   OH242889   1.107   7.173   3.058
14311TIP3    H142890   1.199   7.179   3.084
14311TIP3    H242891   1.061   7.146   3.138
14312TIP3   OH242892   7.837   0.948   5.223
14312TIP3    H142893   7.924   0.921   5.253
14312TIP3    H242894   7.821   1.031   5.266
14313TIP3   OH242895   0.988   5.797   1.146
14313TIP3    H142896   1.024   5.777   1.233
14313TIP3    H242897   1.064   5.816   1.092
14314TIP3   OH242898   5.633   7.186   1.150
14314TIP3    H142899   5.650   7.277   1.174
14314TIP3    H242900   5.692   7.168   1.077
14315TIP3   OH242901   6.045   4.414   6.579
14315TIP3    H142902   6.074   4.505   6.586
14315TIP3    H242903   6.034   4.385   6.669
14316TIP3   OH242904   7.440   6.429   4.446
14316TIP3    H142905   7.440   6.416   4.540
14316TIP3    H242906   7.357   6.471   4.426
14317TIP3   OH242907   6.551   0.238   6.608
14317TIP3    H142908   6.546   0.294   6.531
14317TIP3    H242909   6.551   0.149   6.574
14318TIP3   OH242910   4.683   1.008   3.457
14318TIP3    H142911   4.713   1.077   3.516
14318TIP3    H242912   4.628   0.952   3.511
14319TIP3   OH242913   2.270   6.267   4.295
14319TIP3    H142914   2.330   6.205   4.254
14319TIP3    H242915   2.240   6.323   4.223
14320TIP3   OH242916   6.807   5.545   5.781
14320TIP3    H142917   6.865   5.600   5.834
14320TIP3    H242918   6.718   5.573   5.805
14321TIP3   OH242919   5.047   5.972   5.786
14321TIP3    H142920   5.038   5.924   5.868
14321TIP3    H242921   5.040   5.905   5.718
14322TIP3   OH242922   5.768   2.902   2.593
14322TIP3    H142923   5.781   2.879   2.685
14322TIP3    H242924   5.766   2.818   2.547
14323TIP3   OH242925   3.663   4.251   4.817
14323TIP3    H142926   3.610   4.324   4.847
14323TIP3    H242927   3.619   4.221   4.737
14324TIP3   OH242928   2.232   4.363   1.855
14324TIP3    H142929   2.271   4.449   1.846
14324TIP3    H242930   2.146   4.379   1.895
14325TIP3   OH242931   0.913   0.658   3.194
14325TIP3    H142932   0.848   0.590   3.212
14325TIP3    H242933   0.989   0.611   3.162
14326TIP3   OH242934   4.157   1.470   2.183
14326TIP3    H142935   4.143   1.405   2.115
14326TIP3    H242936   4.092   1.538   2.166
14327TIP3   OH242937   3.789   0.462   3.283
14327TIP3    H142938   3.863   0.458   3.344
14327TIP3    H242939   3.758   0.372   3.277
14328TIP3   OH242940   5.710   3.796   3.194
14328TIP3    H142941   5.773   3.758   3.134
14328TIP3    H242942   5.663   3.861   3.143
14329TIP3   OH242943   1.699   4.573   6.050
14329TIP3    H142944   1.709   4.543   6.140
14329TIP3    H242945   1.605   4.569   6.034
14330TIP3   OH242946   4.104   6.441   3.339
14330TIP3    H142947   4.085   6.356   3.380
14330TIP3    H242948   4.018   6.480   3.325
14331TIP3   OH242949   3.941   3.962   3.112
14331TIP3    H142950   3.968   3.991   3.025
14331TIP3    H242951   4.021   3.929   3.153
14332TIP3   OH242952   0.941   0.245   0.640
14332TIP3    H142953   0.897   0.330   0.650
14332TIP3    H242954   1.034   0.265   0.644
14333TIP3   OH242955   1.971   6.509   1.548
14333TIP3    H142956   1.896   6.456   1.521
14333TIP3    H242957   2.046   6.468   1.504
14334TIP3   OH242958   4.288   2.238   3.206
14334TIP3    H142959   4.206   2.266   3.166
14334TIP3    H242960   4.289   2.143   3.195
14335TIP3   OH242961   6.083   3.382   5.254
14335TIP3    H142962   6.054   3.435   5.329
14335TIP3    H242963   6.050   3.429   5.177
14336TIP3   OH242964   4.146   6.302   2.213
14336TIP3    H142965   4.171   6.304   2.305
14336TIP3    H242966   4.092   6.380   2.202
14337TIP3   OH242967   3.136   2.578   2.499
14337TIP3    H142968   3.228   2.596   2.518
14337TIP3    H242969   3.138   2.530   2.416
14338TIP3   OH242970   7.646   0.777   6.125
14338TIP3    H142971   7.602   0.691   6.127
14338TIP3    H242972   7.656   0.797   6.032
14339TIP3   OH242973   1.725   0.237   1.147
14339TIP3    H142974   1.631   0.247   1.162
14339TIP3    H242975   1.732   0.190   1.064
14340TIP3   OH242976   4.700   5.443   4.731
14340TIP3    H142977   4.759   5.518   4.722
14340TIP3    H242978   4.663   5.451   4.819
14341TIP3   OH242979   7.195   4.927   3.685
14341TIP3    H142980   7.171   4.838   3.657
14341TIP3    H242981   7.259   4.914   3.754
14342TIP3   OH242982   3.857   4.742   2.558
14342TIP3    H142983   3.947   4.774   2.552
14342TIP3    H242984   3.827   4.738   2.467
14343TIP3   OH242985   6.883   4.020   3.336
14343TIP3    H142986   6.821   4.019   3.410
14343TIP3    H242987   6.917   4.109   3.335
14344TIP3   OH242988   1.880   5.321   4.634
14344TIP3    H142989   1.819   5.393   4.653
14344TIP3    H242990   1.964   5.364   4.618
14345TIP3   OH242991   0.367   1.303   4.649
14345TIP3    H142992   0.413   1.343   4.723
14345TIP3    H242993   0.274   1.315   4.669
14346TIP3   OH242994   7.359   1.462   5.032
14346TIP3    H142995   7.296   1.408   5.080
14346TIP3    H242996   7.419   1.494   5.100
14347TIP3   OH242997   6.522   5.823   1.856
14347TIP3    H142998   6.581   5.800   1.928
14347TIP3    H242999   6.435   5.818   1.894
14348TIP3   OH243000   1.156   3.167   2.189
14348TIP3    H143001   1.168   3.252   2.147
14348TIP3    H243002   1.165   3.104   2.118
14349TIP3   OH243003   2.983   4.663   6.297
14349TIP3    H143004   3.063   4.693   6.340
14349TIP3    H243005   2.913   4.694   6.355
14350TIP3   OH243006   0.584   6.076   4.946
14350TIP3    H143007   0.659   6.019   4.961
14350TIP3    H243008   0.611   6.132   4.873
14351TIP3   OH243009   3.453   1.948   1.074
14351TIP3    H143010   3.422   2.037   1.092
14351TIP3    H243011   3.399   1.918   1.000
14352TIP3   OH243012   5.708   0.075   4.567
14352TIP3    H143013   5.686   0.164   4.539
14352TIP3    H243014   5.628   0.042   4.608
14353TIP3   OH243015   5.335   5.130   5.876
14353TIP3    H143016   5.343   5.213   5.828
14353TIP3    H243017   5.272   5.148   5.946
14354TIP3   OH243018   7.186   5.502   5.807
14354TIP3    H143019   7.248   5.477   5.875
14354TIP3    H243020   7.128   5.426   5.799
14355TIP3   OH243021   5.048   5.560   5.462
14355TIP3    H143022   4.983   5.497   5.493
14355TIP3    H243023   5.077   5.524   5.378
14356TIP3   OH243024   6.544   7.416   5.153
14356TIP3    H143025   6.577   7.326   5.162
14356TIP3    H243026   6.536   7.429   5.059
14357TIP3   OH243027   6.980   6.735   0.516
14357TIP3    H143028   6.981   6.824   0.480
14357TIP3    H243029   7.068   6.701   0.499
14358TIP3   OH243030   6.395   1.426   1.554
14358TIP3    H143031   6.392   1.413   1.459
14358TIP3    H243032   6.485   1.405   1.578
14359TIP3   OH243033   0.188   0.501   0.373
14359TIP3    H143034   0.110   0.502   0.429
14359TIP3    H243035   0.222   0.590   0.376
14360TIP3   OH243036   6.292   5.759   0.217
14360TIP3    H143037   6.373   5.789   0.258
14360TIP3    H243038   6.312   5.672   0.184
14361TIP3   OH243039   1.031   2.311   4.713
14361TIP3    H143040   0.944   2.350   4.720
14361TIP3    H243041   1.061   2.334   4.625
14362TIP3   OH243042   7.947   1.254   0.473
14362TIP3    H143043   7.892   1.294   0.406
14362TIP3    H243044   7.916   1.163   0.478
14363TIP3   OH243045   7.936   1.300   4.868
14363TIP3    H143046   7.975   1.340   4.945
14363TIP3    H243047   7.992   1.225   4.848
14364TIP3   OH243048   0.072   3.400   5.316
14364TIP3    H143049  -0.023   3.406   5.315
14364TIP3    H243050   0.100   3.476   5.367
14365TIP3   OH243051   2.351   5.192   4.414
14365TIP3    H143052   2.269   5.150   4.441
14365TIP3    H243053   2.354   5.180   4.319
14366TIP3   OH243054   0.201   3.363   3.978
14366TIP3    H143055   0.238   3.394   3.896
14366TIP3    H243056   0.276   3.349   4.035
14367TIP3   OH243057   2.327   1.902   4.350
14367TIP3    H143058   2.263   1.971   4.328
14367TIP3    H243059   2.285   1.821   4.321
14368TIP3   OH243060   3.689   3.062   4.754
14368TIP3    H143061   3.782   3.066   4.778
14368TIP3    H243062   3.683   2.986   4.696
14369TIP3   OH243063   5.546   5.032   1.141
14369TIP3    H143064   5.563   5.068   1.228
14369TIP3    H243065   5.617   4.968   1.128
14370TIP3   OH243066   2.293   2.669   2.720
14370TIP3    H143067   2.265   2.722   2.795
14370TIP3    H243068   2.331   2.732   2.659
14371TIP3   OH243069   6.907   7.790   2.655
14371TIP3    H143070   6.913   7.825   2.566
14371TIP3    H243071   6.893   7.696   2.643
14372TIP3   OH243072   0.288   7.135   4.360
14372TIP3    H143073   0.317   7.220   4.391
14372TIP3    H243074   0.347   7.072   4.401
14373TIP3   OH243075   5.524   4.385   5.524
14373TIP3    H143076   5.440   4.431   5.510
14373TIP3    H243077   5.510   4.298   5.487
14374TIP3   OH243078   4.668   0.726   2.417
14374TIP3    H143079   4.667   0.679   2.334
14374TIP3    H243080   4.587   0.699   2.461
14375TIP3   OH243081   5.941   3.285   2.651
14375TIP3    H143082   5.869   3.296   2.713
14375TIP3    H243083   6.014   3.332   2.691
14376TIP3   OH243084   5.431   2.465   0.425
14376TIP3    H143085   5.403   2.490   0.337
14376TIP3    H243086   5.359   2.491   0.482
14377TIP3   OH243087   5.045   0.384   4.423
14377TIP3    H143088   5.109   0.440   4.465
14377TIP3    H243089   4.969   0.440   4.409
14378TIP3   OH243090   3.526   3.765   1.813
14378TIP3    H143091   3.527   3.815   1.731
14378TIP3    H243092   3.510   3.674   1.785
14379TIP3   OH243093   5.683   1.806   0.971
14379TIP3    H143094   5.657   1.721   1.007
14379TIP3    H243095   5.777   1.811   0.989
14380TIP3   OH243096   7.037   6.332   5.237
14380TIP3    H143097   7.089   6.413   5.238
14380TIP3    H243098   7.099   6.263   5.262
14381TIP3   OH243099   1.028   2.917   3.251
14381TIP3    H143100   1.053   2.945   3.162
14381TIP3    H243101   1.103   2.941   3.305
14382TIP3   OH243102   3.254   5.581   4.441
14382TIP3    H143103   3.335   5.546   4.405
14382TIP3    H243104   3.281   5.643   4.509
14383TIP3   OH243105   8.142   6.569   3.882
14383TIP3    H143106   8.184   6.650   3.855
14383TIP3    H243107   8.060   6.566   3.834
14384TIP3   OH243108   0.222   7.361   4.626
14384TIP3    H143109   0.143   7.332   4.581
14384TIP3    H243110   0.275   7.402   4.558
14385TIP3   OH243111   1.808   4.498   4.052
14385TIP3    H143112   1.757   4.547   4.116
14385TIP3    H243113   1.747   4.477   3.982
14386TIP3   OH243114   1.123   0.241   4.559
14386TIP3    H143115   1.063   0.211   4.627
14386TIP3    H243116   1.099   0.332   4.545
14387TIP3   OH243117   1.241   4.288   5.269
14387TIP3    H143118   1.298   4.362   5.289
14387TIP3    H243119   1.187   4.318   5.196
14388TIP3   OH243120   0.880   6.327   0.962
14388TIP3    H143121   0.803   6.369   0.923
14388TIP3    H243122   0.947   6.333   0.894
14389TIP3   OH243123   6.079   4.783   2.498
14389TIP3    H143124   6.055   4.768   2.589
14389TIP3    H243125   6.147   4.717   2.480
14390TIP3   OH243126   2.366   1.367   6.002
14390TIP3    H143127   2.377   1.294   5.942
14390TIP3    H243128   2.423   1.346   6.077
14391TIP3   OH243129   5.220   5.883   1.654
14391TIP3    H143130   5.287   5.853   1.714
14391TIP3    H243131   5.137   5.854   1.693
14392TIP3   OH243132   5.745   5.949   1.261
14392TIP3    H143133   5.664   5.910   1.228
14392TIP3    H243134   5.718   5.996   1.341
14393TIP3   OH243135   4.760   1.887   4.850
14393TIP3    H143136   4.852   1.911   4.836
14393TIP3    H243137   4.757   1.794   4.829
14394TIP3   OH243138   2.635   5.110   4.699
14394TIP3    H143139   2.695   5.044   4.663
14394TIP3    H243140   2.571   5.059   4.749
14395TIP3   OH243141   5.335   4.056   4.400
14395TIP3    H143142   5.277   4.032   4.473
14395TIP3    H243143   5.423   4.033   4.431
14396TIP3   OH243144   0.104   2.594   4.116
14396TIP3    H143145   0.132   2.504   4.131
14396TIP3    H243146   0.165   2.647   4.167
14397TIP3   OH243147   4.097   7.414   1.802
14397TIP3    H143148   4.009   7.447   1.786
14397TIP3    H243149   4.086   7.349   1.872
14398TIP3   OH243150   2.319   6.657   6.745
14398TIP3    H143151   2.279   6.617   6.668
14398TIP3    H243152   2.379   6.590   6.778
14399TIP3   OH243153   0.035   5.919   3.528
14399TIP3    H143154  -0.004   5.920   3.616
14399TIP3    H243155   0.038   6.011   3.502
14400TIP3   OH243156   1.612   2.922   4.689
14400TIP3    H143157   1.697   2.937   4.730
14400TIP3    H243158   1.561   3.001   4.709
14401TIP3   OH243159   6.596   5.547   6.704
14401TIP3    H143160   6.582   5.461   6.743
14401TIP3    H243161   6.635   5.600   6.774
14402TIP3   OH243162   3.975   5.812   1.608
14402TIP3    H143163   3.946   5.862   1.532
14402TIP3    H243164   3.905   5.747   1.622
14403TIP3   OH243165   4.171   1.960   5.208
14403TIP3    H143166   4.088   1.917   5.231
14403TIP3    H243167   4.229   1.938   5.281
14404TIP3   OH243168   5.713   5.997   4.833
14404TIP3    H143169   5.678   5.921   4.788
14404TIP3    H243170   5.755   5.962   4.911
14405TIP3   OH243171   5.073   7.725   2.780
14405TIP3    H143172   5.058   7.721   2.874
14405TIP3    H243173   5.090   7.634   2.755
14406TIP3   OH243174   6.782   7.354   3.095
14406TIP3    H143175   6.846   7.371   3.027
14406TIP3    H243176   6.814   7.275   3.140
14407TIP3   OH243177   7.349   3.810   6.410
14407TIP3    H143178   7.312   3.775   6.328
14407TIP3    H243179   7.277   3.859   6.450
14408TIP3   OH243180   5.172   6.455   0.360
14408TIP3    H143181   5.264   6.476   0.345
14408TIP3    H243182   5.167   6.434   0.453
14409TIP3   OH243183   3.095   5.450   6.340
14409TIP3    H143184   3.142   5.504   6.403
14409TIP3    H243185   3.159   5.382   6.316
14410TIP3   OH243186   4.681   6.223   4.133
14410TIP3    H143187   4.708   6.170   4.208
14410TIP3    H243188   4.697   6.313   4.161
14411TIP3   OH243189   7.035   1.716   0.503
14411TIP3    H143190   7.115   1.712   0.452
14411TIP3    H243191   7.016   1.809   0.512
14412TIP3   OH243192   4.639   4.041   2.377
14412TIP3    H143193   4.552   4.002   2.390
14412TIP3    H243194   4.624   4.135   2.386
14413TIP3   OH243195   8.187   6.822   4.179
14413TIP3    H143196   8.101   6.811   4.140
14413TIP3    H243197   8.237   6.870   4.113
14414TIP3   OH243198   7.838   3.800   3.622
14414TIP3    H143199   7.911   3.745   3.593
14414TIP3    H243200   7.813   3.765   3.707
14415TIP3   OH243201   7.378   6.350   2.568
14415TIP3    H143202   7.459   6.314   2.605
14415TIP3    H243203   7.368   6.435   2.611
14416TIP3   OH243204   1.522   4.214   1.192
14416TIP3    H143205   1.442   4.189   1.145
14416TIP3    H243206   1.518   4.164   1.273
14417TIP3   OH243207   7.988   5.419   4.672
14417TIP3    H143208   8.060   5.480   4.653
14417TIP3    H243209   7.983   5.363   4.594
14418TIP3   OH243210   3.189   0.815   3.127
14418TIP3    H143211   3.159   0.844   3.040
14418TIP3    H243212   3.125   0.853   3.188
14419TIP3   OH243213   6.252   4.065   1.457
14419TIP3    H143214   6.293   3.979   1.470
14419TIP3    H243215   6.283   4.093   1.371
14420TIP3   OH243216   2.704   5.864   0.874
14420TIP3    H143217   2.732   5.810   0.948
14420TIP3    H243218   2.701   5.953   0.908
14421TIP3   OH243219   7.632   4.354   5.991
14421TIP3    H143220   7.651   4.271   5.946
14421TIP3    H243221   7.687   4.352   6.069
14422TIP3   OH243222   4.473   6.385   5.439
14422TIP3    H143223   4.383   6.352   5.444
14422TIP3    H243224   4.468   6.477   5.465
14423TIP3   OH243225   7.253   3.010   2.664
14423TIP3    H143226   7.299   3.005   2.580
14423TIP3    H243227   7.257   2.921   2.699
14424TIP3   OH243228   4.830   2.980   1.989
14424TIP3    H143229   4.802   2.891   1.970
14424TIP3    H243230   4.911   2.970   2.039
14425TIP3   OH243231   7.725   3.643   1.721
14425TIP3    H143232   7.651   3.640   1.781
14425TIP3    H243233   7.692   3.604   1.639
14426TIP3   OH243234   1.769   3.210   1.426
14426TIP3    H143235   1.696   3.218   1.364
14426TIP3    H243236   1.830   3.279   1.399
14427TIP3   OH243237   2.102   2.028   0.673
14427TIP3    H143238   2.067   1.982   0.596
14427TIP3    H243239   2.121   1.959   0.736
14428TIP3   OH243240   6.592   7.578   0.803
14428TIP3    H143241   6.564   7.494   0.838
14428TIP3    H243242   6.591   7.566   0.708
14429TIP3   OH243243   8.097   6.956   4.600
14429TIP3    H143244   8.164   6.980   4.536
14429TIP3    H243245   8.015   6.957   4.551
14430TIP3   OH243246   2.209   1.519   3.177
14430TIP3    H143247   2.199   1.458   3.249
14430TIP3    H243248   2.265   1.473   3.114
14431TIP3   OH243249   4.234   1.546   1.293
14431TIP3    H143250   4.146   1.564   1.328
14431TIP3    H243251   4.271   1.632   1.274
14432TIP3   OH243252   4.141   3.400   6.668
14432TIP3    H143253   4.203   3.438   6.607
14432TIP3    H243254   4.182   3.408   6.754
14433TIP3   OH243255   5.745   4.013   1.253
14433TIP3    H143256   5.694   4.027   1.174
14433TIP3    H243257   5.692   3.953   1.306
14434TIP3   OH243258   0.485   6.557   3.551
14434TIP3    H143259   0.495   6.614   3.627
14434TIP3    H243260   0.427   6.486   3.580
14435TIP3   OH243261   3.472   2.797   5.687
14435TIP3    H143262   3.412   2.734   5.648
14435TIP3    H243263   3.452   2.880   5.645
14436TIP3   OH243264   3.037   6.933   1.492
14436TIP3    H143265   3.086   6.851   1.485
14436TIP3    H243266   3.016   6.956   1.402
14437TIP3   OH243267   2.116   0.876   5.150
14437TIP3    H143268   2.111   0.951   5.209
14437TIP3    H243269   2.048   0.894   5.084
14438TIP3   OH243270   4.324   0.382   5.674
14438TIP3    H143271   4.238   0.377   5.716
14438TIP3    H243272   4.362   0.464   5.706
14439TIP3   OH243273   6.022   7.768   2.353
14439TIP3    H143274   6.055   7.849   2.391
14439TIP3    H243275   5.927   7.778   2.353
14440TIP3   OH243276   3.919   1.872   5.264
14440TIP3    H143277   3.880   1.801   5.315
14440TIP3    H243278   3.882   1.952   5.301
14441TIP3   OH243279   7.768   5.771   4.679
14441TIP3    H143280   7.756   5.712   4.753
14441TIP3    H243281   7.738   5.721   4.603
14442TIP3   OH243282   4.780   6.035   6.386
14442TIP3    H143283   4.725   6.051   6.463
14442TIP3    H243284   4.865   6.072   6.409
14443TIP3   OH243285   5.277   6.954   5.098
14443TIP3    H143286   5.221   6.878   5.083
14443TIP3    H243287   5.225   7.029   5.069
14444TIP3   OH243288   2.162   0.086   2.282
14444TIP3    H143289   2.198   0.153   2.341
14444TIP3    H243290   2.186   0.003   2.323
14445TIP3   OH243291   2.575   1.635   4.046
14445TIP3    H143292   2.645   1.615   4.107
14445TIP3    H243293   2.529   1.710   4.086
14446TIP3   OH243294   1.493   3.738   6.193
14446TIP3    H143295   1.471   3.827   6.222
14446TIP3    H243296   1.468   3.682   6.266
14447TIP3   OH243297   1.337   6.990   5.146
14447TIP3    H143298   1.317   6.977   5.053
14447TIP3    H243299   1.387   6.912   5.171
14448TIP3   OH243300   6.382   1.806   3.700
14448TIP3    H143301   6.383   1.727   3.754
14448TIP3    H243302   6.460   1.800   3.646
14449TIP3   OH243303   1.293   0.915   4.095
14449TIP3    H143304   1.345   0.836   4.110
14449TIP3    H243305   1.322   0.946   4.009
14450TIP3   OH243306   5.080   2.839   0.617
14450TIP3    H143307   5.143   2.806   0.553
14450TIP3    H243308   5.104   2.931   0.630
14451TIP3   OH243309   3.470   1.034   3.417
14451TIP3    H143310   3.516   1.092   3.355
14451TIP3    H243311   3.460   0.952   3.370
14452TIP3   OH243312   1.957   4.762   6.605
14452TIP3    H143313   2.005   4.752   6.687
14452TIP3    H243314   1.870   4.792   6.632
14453TIP3   OH243315   4.389   4.277   4.575
14453TIP3    H143316   4.309   4.224   4.572
14453TIP3    H243317   4.440   4.240   4.647
14454TIP3   OH243318   8.287   2.773   0.176
14454TIP3    H143319   8.257   2.807   0.260
14454TIP3    H243320   8.220   2.708   0.152
14455TIP3   OH243321   3.701   6.053   3.768
14455TIP3    H143322   3.686   5.966   3.732
14455TIP3    H243323   3.756   6.097   3.703
14456TIP3   OH243324   0.175   2.280   1.625
14456TIP3    H143325   0.123   2.237   1.693
14456TIP3    H243326   0.257   2.304   1.668
14457TIP3   OH243327   5.395   5.172   3.851
14457TIP3    H143328   5.377   5.117   3.927
14457TIP3    H243329   5.344   5.251   3.865
14458TIP3   OH243330   1.772   7.408   3.805
14458TIP3    H143331   1.803   7.323   3.771
14458TIP3    H243332   1.832   7.472   3.768
14459TIP3   OH243333   0.033   5.107   0.780
14459TIP3    H143334   0.074   5.193   0.789
14459TIP3    H243335   0.090   5.059   0.721
14460TIP3   OH243336   7.471   3.084   4.014
14460TIP3    H143337   7.552   3.094   3.964
14460TIP3    H243338   7.465   2.990   4.031
14461TIP3   OH243339   3.866   7.461   3.359
14461TIP3    H143340   3.783   7.441   3.315
14461TIP3    H243341   3.933   7.428   3.300
14462TIP3   OH243342   3.738   3.552   5.647
14462TIP3    H143343   3.703   3.522   5.730
14462TIP3    H243344   3.789   3.478   5.614
14463TIP3   OH243345   3.746   5.920   4.031
14463TIP3    H143346   3.732   5.960   3.945
14463TIP3    H243347   3.674   5.953   4.085
14464TIP3   OH243348   2.582   2.192   6.294
14464TIP3    H143349   2.531   2.179   6.214
14464TIP3    H243350   2.650   2.125   6.290
14465TIP3   OH243351   2.784   5.705   1.358
14465TIP3    H143352   2.799   5.791   1.319
14465TIP3    H243353   2.691   5.705   1.382
14466TIP3   OH243354   2.325   2.716   5.950
14466TIP3    H143355   2.290   2.788   6.002
14466TIP3    H243356   2.253   2.690   5.893
14467TIP3   OH243357   4.313   1.926   0.561
14467TIP3    H143358   4.367   1.924   0.640
14467TIP3    H243359   4.311   2.018   0.536
14468TIP3   OH243360   4.830   0.588   6.126
14468TIP3    H143361   4.746   0.591   6.078
14468TIP3    H243362   4.817   0.520   6.192
14469TIP3   OH243363   2.639   7.139   5.240
14469TIP3    H143364   2.572   7.072   5.231
14469TIP3    H243365   2.596   7.211   5.286
14470TIP3   OH243366   6.140   7.646   1.692
14470TIP3    H143367   6.178   7.702   1.760
14470TIP3    H243368   6.116   7.566   1.739
14471TIP3   OH243369   2.268   6.394   5.910
14471TIP3    H143370   2.354   6.377   5.948
14471TIP3    H243371   2.286   6.446   5.831
14472TIP3   OH243372   4.869   1.524   3.763
14472TIP3    H143373   4.947   1.556   3.717
14472TIP3    H243374   4.810   1.497   3.692
14473TIP3   OH243375   8.127   3.744   0.381
14473TIP3    H143376   8.209   3.787   0.355
14473TIP3    H243377   8.092   3.707   0.299
14474TIP3   OH243378   5.071   5.265   5.072
14474TIP3    H143379   5.000   5.216   5.031
14474TIP3    H243380   5.150   5.236   5.027
14475TIP3   OH243381   2.748   3.986   4.519
14475TIP3    H143382   2.718   3.987   4.609
14475TIP3    H243383   2.671   3.960   4.468
14476TIP3   OH243384   4.528   7.748   3.484
14476TIP3    H143385   4.506   7.840   3.470
14476TIP3    H243386   4.623   7.748   3.499
14477TIP3   OH243387   5.237   1.509   1.525
14477TIP3    H143388   5.325   1.530   1.492
14477TIP3    H243389   5.249   1.427   1.573
14478TIP3   OH243390   3.691   1.922   0.222
14478TIP3    H143391   3.699   1.991   0.288
14478TIP3    H243392   3.754   1.855   0.249
14479TIP3   OH243393   0.043   2.532   3.066
14479TIP3    H143394   0.003   2.550   3.151
14479TIP3    H243395  -0.028   2.543   3.003
14480TIP3   OH243396   0.540   2.610   5.695
14480TIP3    H143397   0.602   2.647   5.758
14480TIP3    H243398   0.583   2.621   5.610
14481TIP3   OH243399   5.750   4.538   6.416
14481TIP3    H143400   5.809   4.551   6.489
14481TIP3    H243401   5.693   4.466   6.443
14482TIP3   OH243402   5.057   1.110   6.195
14482TIP3    H143403   5.129   1.155   6.237
14482TIP3    H243404   5.016   1.059   6.265
14483TIP3   OH243405   0.940   4.881   1.061
14483TIP3    H143406   0.865   4.824   1.074
14483TIP3    H243407   0.918   4.936   0.986
14484TIP3   OH243408   2.199   1.440   5.327
14484TIP3    H143409   2.227   1.420   5.416
14484TIP3    H243410   2.249   1.518   5.303
14485TIP3   OH243411   0.091   4.777   2.204
14485TIP3    H143412   0.074   4.809   2.115
14485TIP3    H243413   0.044   4.694   2.208
14486TIP3   OH243414   5.976   7.762   6.408
14486TIP3    H143415   6.001   7.742   6.317
14486TIP3    H243416   5.937   7.849   6.403
14487TIP3   OH243417   0.903   3.974   5.501
14487TIP3    H143418   0.948   3.993   5.583
14487TIP3    H243419   0.973   3.968   5.436
14488TIP3   OH243420   0.920   7.802   1.247
14488TIP3    H143421   0.954   7.756   1.324
14488TIP3    H243422   0.828   7.777   1.242
14489TIP3   OH243423   1.226   1.476   5.828
14489TIP3    H143424   1.302   1.477   5.770
14489TIP3    H243425   1.236   1.397   5.880
14490TIP3   OH243426   2.343   2.107   4.116
14490TIP3    H143427   2.265   2.120   4.171
14490TIP3    H243428   2.381   2.195   4.109
14491TIP3   OH243429   6.698   0.244   4.349
14491TIP3    H143430   6.672   0.237   4.257
14491TIP3    H243431   6.792   0.229   4.348
14492TIP3   OH243432   5.022   1.347   0.533
14492TIP3    H143433   4.961   1.313   0.598
14492TIP3    H243434   5.101   1.295   0.545
14493TIP3   OH243435   1.460   1.954   3.102
14493TIP3    H143436   1.429   1.937   3.191
14493TIP3    H243437   1.520   1.882   3.083
14494TIP3   OH243438   6.363   4.829   4.887
14494TIP3    H143439   6.311   4.831   4.967
14494TIP3    H243440   6.377   4.736   4.870
14495TIP3   OH243441   2.038   0.107   3.172
14495TIP3    H143442   2.094   0.180   3.147
14495TIP3    H243443   1.984   0.091   3.094
14496TIP3   OH243444   1.431   6.364   2.279
14496TIP3    H143445   1.474   6.284   2.251
14496TIP3    H243446   1.448   6.426   2.208
14497TIP3   OH243447   2.599   7.461   4.461
14497TIP3    H143448   2.649   7.382   4.479
14497TIP3    H243449   2.516   7.448   4.506
14498TIP3   OH243450   2.147   0.992   2.790
14498TIP3    H143451   2.055   1.019   2.784
14498TIP3    H243452   2.181   1.039   2.866
14499TIP3   OH243453   1.679   0.448   3.123
14499TIP3    H143454   1.679   0.488   3.035
14499TIP3    H243455   1.603   0.390   3.122
14500TIP3   OH243456   5.081   4.173   4.292
14500TIP3    H143457   5.112   4.263   4.285
14500TIP3    H243458   5.162   4.121   4.299
14501TIP3   OH243459   3.750   7.712   3.192
14501TIP3    H143460   3.763   7.640   3.130
14501TIP3    H243461   3.812   7.779   3.164
14502TIP3   OH243462   6.428   6.690   4.400
14502TIP3    H143463   6.431   6.594   4.396
14502TIP3    H243464   6.340   6.712   4.369
14503TIP3   OH243465   6.207   3.728   6.185
14503TIP3    H143466   6.293   3.700   6.216
14503TIP3    H243467   6.187   3.668   6.113
14504TIP3   OH243468   4.425   2.563   0.005
14504TIP3    H143469   4.410   2.650   0.042
14504TIP3    H243470   4.363   2.506   0.050
14505TIP3   OH243471   5.406   4.482   4.472
14505TIP3    H143472   5.439   4.398   4.505
14505TIP3    H243473   5.440   4.547   4.534
14506TIP3   OH243474   0.845   0.041   6.760
14506TIP3    H143475   0.837  -0.011   6.840
14506TIP3    H243476   0.768   0.019   6.708
14507TIP3   OH243477   2.042   5.334   6.150
14507TIP3    H143478   1.952   5.366   6.155
14507TIP3    H243479   2.087   5.397   6.094
14508TIP3   OH243480   2.451   0.708   4.351
14508TIP3    H143481   2.409   0.633   4.308
14508TIP3    H243482   2.411   0.785   4.310
14509TIP3   OH243483   0.606   1.382   1.932
14509TIP3    H143484   0.564   1.337   2.006
14509TIP3    H243485   0.673   1.320   1.902
14510TIP3   OH243486   6.184   1.518   1.101
14510TIP3    H143487   6.182   1.558   1.187
14510TIP3    H243488   6.176   1.424   1.117
14511TIP3   OH243489   7.999   4.004   5.632
14511TIP3    H143490   7.923   3.958   5.594
14511TIP3    H243491   8.052   4.028   5.556
14512TIP3   OH243492   7.391   3.463   6.142
14512TIP3    H143493   7.410   3.386   6.089
14512TIP3    H243494   7.304   3.447   6.178
14513TIP3   OH243495   1.961   1.702   0.481
14513TIP3    H143496   1.944   1.783   0.434
14513TIP3    H243497   1.885   1.689   0.537
14514TIP3   OH243498   8.116   0.202   0.336
14514TIP3    H143499   8.166   0.124   0.313
14514TIP3    H243500   8.049   0.208   0.268
14515TIP3   OH243501   5.142   4.672   6.052
14515TIP3    H143502   5.167   4.673   6.144
14515TIP3    H243503   5.109   4.761   6.035
14516TIP3   OH243504   8.269   3.892   6.046
14516TIP3    H143505   8.221   3.811   6.061
14516TIP3    H243506   8.242   3.920   5.959
14517TIP3   OH243507   1.906   5.209   5.036
14517TIP3    H143508   1.878   5.158   5.113
14517TIP3    H243509   1.893   5.149   4.962
14518TIP3   OH243510   1.278   0.466   1.208
14518TIP3    H143511   1.311   0.555   1.195
14518TIP3    H243512   1.225   0.448   1.131
14519TIP3   OH243513   3.159   5.025   2.353
14519TIP3    H143514   3.160   5.051   2.445
14519TIP3    H243515   3.204   4.941   2.352
14520TIP3   OH243516   6.263   0.084   3.277
14520TIP3    H143517   6.203   0.009   3.276
14520TIP3    H243518   6.346   0.048   3.309
14521TIP3   OH243519   7.355   3.513   4.396
14521TIP3    H143520   7.308   3.441   4.354
14521TIP3    H243521   7.383   3.569   4.324
14522TIP3   OH243522   3.309   4.412   4.643
14522TIP3    H143523   3.262   4.398   4.560
14522TIP3    H243524   3.249   4.464   4.696
14523TIP3   OH243525   7.620   7.788   5.053
14523TIP3    H143526   7.530   7.764   5.033
14523TIP3    H243527   7.613   7.862   5.113
14524TIP3   OH243528   6.259   1.983   0.993
14524TIP3    H143529   6.236   1.890   0.982
14524TIP3    H243530   6.323   1.983   1.064
14525TIP3   OH243531   2.160   0.436   0.884
14525TIP3    H143532   2.208   0.360   0.851
14525TIP3    H243533   2.119   0.474   0.806
14526TIP3   OH243534   3.481   5.642   4.935
14526TIP3    H143535   3.519   5.557   4.915
14526TIP3    H243536   3.549   5.705   4.911
14527TIP3   OH243537   2.168   5.514   1.481
14527TIP3    H143538   2.255   5.539   1.449
14527TIP3    H243539   2.150   5.574   1.553
14528TIP3   OH243540   3.373   0.891   6.476
14528TIP3    H143541   3.433   0.830   6.519
14528TIP3    H243542   3.294   0.840   6.460
14529TIP3   OH243543   4.333   6.742   5.834
14529TIP3    H143544   4.256   6.727   5.889
14529TIP3    H243545   4.363   6.830   5.856
14530TIP3   OH243546   5.655   1.331   2.664
14530TIP3    H143547   5.568   1.290   2.658
14530TIP3    H243548   5.716   1.257   2.662
14531TIP3   OH243549   0.139   0.037   6.769
14531TIP3    H143550   0.130  -0.016   6.848
14531TIP3    H243551   0.207   0.101   6.790
14532TIP3   OH243552   4.634   4.325   6.546
14532TIP3    H143553   4.699   4.316   6.616
14532TIP3    H243554   4.571   4.390   6.580
14533TIP3   OH243555   0.290   4.880   2.345
14533TIP3    H143556   0.213   4.848   2.298
14533TIP3    H243557   0.365   4.849   2.294
14534TIP3   OH243558   3.834   2.614   2.941
14534TIP3    H143559   3.886   2.693   2.953
14534TIP3    H243560   3.747   2.645   2.917
14535TIP3   OH243561   3.647   5.145   4.262
14535TIP3    H143562   3.634   5.053   4.286
14535TIP3    H243563   3.716   5.176   4.320
14536TIP3   OH243564   7.128   6.371   2.426
14536TIP3    H143565   7.067   6.307   2.461
14536TIP3    H243566   7.212   6.349   2.467
14537TIP3   OH243567   4.985   4.440   2.406
14537TIP3    H143568   4.921   4.475   2.468
14537TIP3    H243569   5.068   4.444   2.453
14538TIP3   OH243570   1.396   2.618   3.982
14538TIP3    H143571   1.490   2.628   3.998
14538TIP3    H243572   1.382   2.652   3.894
14539TIP3   OH243573   2.083   5.248   1.591
14539TIP3    H143574   2.085   5.322   1.531
14539TIP3    H243575   1.996   5.251   1.630
14540TIP3   OH243576   4.866   5.784   3.107
14540TIP3    H143577   4.841   5.784   3.015
14540TIP3    H243578   4.959   5.759   3.107
14541TIP3   OH243579   8.106   2.170   5.265
14541TIP3    H143580   8.199   2.178   5.241
14541TIP3    H243581   8.095   2.077   5.285
14542TIP3   OH243582   3.114   7.593   0.639
14542TIP3    H143583   3.099   7.657   0.708
14542TIP3    H243584   3.207   7.570   0.648
14543TIP3   OH243585   3.472   2.288   5.697
14543TIP3    H143586   3.398   2.239   5.731
14543TIP3    H243587   3.444   2.379   5.699
14544TIP3   OH243588   4.577   4.547   1.709
14544TIP3    H143589   4.529   4.586   1.781
14544TIP3    H243590   4.616   4.621   1.663
14545TIP3   OH243591   1.712   5.412   0.807
14545TIP3    H143592   1.719   5.317   0.822
14545TIP3    H243593   1.644   5.440   0.868
14546TIP3   OH243594   3.283   5.353   4.750
14546TIP3    H143595   3.369   5.361   4.792
14546TIP3    H243596   3.228   5.311   4.816
14547TIP3   OH243597   2.012   0.338   0.476
14547TIP3    H143598   2.023   0.243   0.471
14547TIP3    H243599   2.074   0.373   0.412
14548TIP3   OH243600   3.192   0.781   4.700
14548TIP3    H143601   3.113   0.732   4.676
14548TIP3    H243602   3.219   0.824   4.619
14549TIP3   OH243603   1.095   4.838   2.529
14549TIP3    H143604   1.003   4.829   2.554
14549TIP3    H243605   1.112   4.932   2.535
14550TIP3   OH243606   7.293   1.008   1.260
14550TIP3    H143607   7.241   0.939   1.302
14550TIP3    H243608   7.228   1.062   1.214
14551TIP3   OH243609   1.462   5.430   3.189
14551TIP3    H143610   1.414   5.513   3.188
14551TIP3    H243611   1.470   5.406   3.097
14552TIP3   OH243612   6.980   0.063   5.760
14552TIP3    H143613   7.029   0.107   5.829
14552TIP3    H243614   7.034  -0.013   5.737
14553TIP3   OH243615   5.039   0.323   4.741
14553TIP3    H143616   5.075   0.324   4.829
14553TIP3    H243617   5.093   0.385   4.692
14554TIP3   OH243618   0.457   4.595   6.417
14554TIP3    H143619   0.442   4.601   6.511
14554TIP3    H243620   0.371   4.576   6.380
14555TIP3   OH243621   6.065   2.758   5.234
14555TIP3    H143622   6.042   2.824   5.169
14555TIP3    H243623   5.982   2.735   5.276
14556TIP3   OH243624   2.873   5.025   6.734
14556TIP3    H143625   2.950   4.981   6.698
14556TIP3    H243626   2.895   5.118   6.734
14557TIP3   OH243627   2.694   5.971   5.728
14557TIP3    H143628   2.621   6.021   5.763
14557TIP3    H243629   2.762   5.978   5.795
14558TIP3   OH243630   6.610   6.098   6.551
14558TIP3    H143631   6.678   6.164   6.560
14558TIP3    H243632   6.648   6.019   6.590
14559TIP3   OH243633   2.083   3.729   0.785
14559TIP3    H143634   2.021   3.766   0.722
14559TIP3    H243635   2.146   3.682   0.731
14560TIP3   OH243636   7.907   0.316   0.733
14560TIP3    H143637   7.820   0.323   0.693
14560TIP3    H243638   7.952   0.251   0.680
14561TIP3   OH243639   2.699   6.022   3.340
14561TIP3    H143640   2.772   6.019   3.278
14561TIP3    H243641   2.633   5.965   3.301
14562TIP3   OH243642   6.499   4.492   0.208
14562TIP3    H143643   6.498   4.434   0.283
14562TIP3    H243644   6.547   4.570   0.238
14563TIP3   OH243645   1.148   6.438   1.158
14563TIP3    H143646   1.135   6.361   1.213
14563TIP3    H243647   1.143   6.404   1.069
14564TIP3   OH243648   5.400   4.082   3.803
14564TIP3    H143649   5.397   4.144   3.877
14564TIP3    H243650   5.451   4.008   3.836
14565TIP3   OH243651   5.077   2.498   3.348
14565TIP3    H143652   5.064   2.464   3.259
14565TIP3    H243653   5.170   2.519   3.352
14566TIP3   OH243654   2.859   1.275   2.196
14566TIP3    H143655   2.775   1.249   2.158
14566TIP3    H243656   2.844   1.364   2.229
14567TIP3   OH243657   6.021   4.620   6.168
14567TIP3    H143658   5.987   4.553   6.108
14567TIP3    H243659   6.095   4.577   6.212
14568TIP3   OH243660   1.741   2.414   3.358
14568TIP3    H143661   1.738   2.406   3.262
14568TIP3    H243662   1.652   2.395   3.387
14569TIP3   OH243663   7.634   6.007   5.793
14569TIP3    H143664   7.676   5.923   5.814
14569TIP3    H243665   7.705   6.071   5.799
14570TIP3   OH243666   3.013   0.699   5.552
14570TIP3    H143667   2.937   0.750   5.577
14570TIP3    H243668   2.998   0.612   5.588
14571TIP3   OH243669   1.768   5.450   6.201
14571TIP3    H143670   1.794   5.460   6.293
14571TIP3    H243671   1.761   5.539   6.168
14572TIP3   OH243672   6.926   2.990   0.948
14572TIP3    H143673   7.013   3.013   0.915
14572TIP3    H243674   6.933   2.998   1.043
14573TIP3   OH243675   6.998   7.290   1.029
14573TIP3    H143676   7.088   7.266   1.007
14573TIP3    H243677   6.961   7.320   0.946
14574TIP3   OH243678   6.204   3.170   3.244
14574TIP3    H143679   6.268   3.238   3.223
14574TIP3    H243680   6.165   3.147   3.160
14575TIP3   OH243681   0.515   3.567   1.889
14575TIP3    H143682   0.575   3.535   1.956
14575TIP3    H243683   0.428   3.538   1.919
14576TIP3   OH243684   1.825   4.610   6.333
14576TIP3    H143685   1.774   4.582   6.409
14576TIP3    H243686   1.915   4.617   6.365
14577TIP3   OH243687   7.764   6.799   1.809
14577TIP3    H143688   7.782   6.705   1.821
14577TIP3    H243689   7.826   6.843   1.867
14578TIP3   OH243690   4.605   0.711   3.952
14578TIP3    H143691   4.644   0.798   3.948
14578TIP3    H243692   4.585   0.689   3.861
14579TIP3   OH243693   0.492   7.139   5.185
14579TIP3    H143694   0.480   7.234   5.192
14579TIP3    H243695   0.421   7.103   5.238
14580TIP3   OH243696   0.915   2.700   6.712
14580TIP3    H143697   0.962   2.685   6.794
14580TIP3    H243698   0.984   2.696   6.645
14581TIP3   OH243699   5.375   7.736   4.303
14581TIP3    H143700   5.451   7.679   4.317
14581TIP3    H243701   5.306   7.677   4.271
14582TIP3   OH243702   0.135   2.930   5.836
14582TIP3    H143703   0.185   2.869   5.782
14582TIP3    H243704   0.182   3.013   5.829
14583TIP3   OH243705   5.860   5.368   5.269
14583TIP3    H143706   5.772   5.360   5.307
14583TIP3    H243707   5.848   5.344   5.177
14584TIP3   OH243708   3.646   2.921   1.891
14584TIP3    H143709   3.610   3.003   1.923
14584TIP3    H243710   3.570   2.866   1.874
14585TIP3   OH243711   1.598   3.597   6.580
14585TIP3    H143712   1.503   3.588   6.575
14585TIP3    H243713   1.631   3.532   6.518
14586TIP3   OH243714   5.673   6.777   3.277
14586TIP3    H143715   5.706   6.742   3.360
14586TIP3    H243716   5.581   6.799   3.296
14587TIP3   OH243717   7.651   6.669   0.390
14587TIP3    H143718   7.662   6.690   0.297
14587TIP3    H243719   7.667   6.752   0.435
14588TIP3   OH243720   2.688   2.057   5.967
14588TIP3    H143721   2.615   2.088   6.020
14588TIP3    H243722   2.712   2.131   5.912
14589TIP3   OH243723   0.008   3.140   5.698
14589TIP3    H143724  -0.027   3.179   5.778
14589TIP3    H243725   0.031   3.051   5.723
14590TIP3   OH243726   6.514   2.872   3.106
14590TIP3    H143727   6.572   2.800   3.082
14590TIP3    H243728   6.573   2.940   3.140
14591TIP3   OH243729   7.865   3.839   0.656
14591TIP3    H143730   7.896   3.913   0.604
14591TIP3    H243731   7.787   3.872   0.700
14592TIP3   OH243732   7.612   7.214   6.120
14592TIP3    H143733   7.567   7.136   6.154
14592TIP3    H243734   7.622   7.271   6.196
14593TIP3   OH243735   2.835   1.745   0.304
14593TIP3    H143736   2.794   1.690   0.371
14593TIP3    H243737   2.888   1.685   0.252
14594TIP3   OH243738   0.036   1.404   6.655
14594TIP3    H143739   0.110   1.384   6.713
14594TIP3    H243740   0.029   1.499   6.657
14595TIP3   OH243741   6.836   7.420   0.804
14595TIP3    H143742   6.789   7.495   0.840
14595TIP3    H243743   6.781   7.391   0.731
14596TIP3   OH243744   2.282   2.697   6.635
14596TIP3    H143745   2.286   2.792   6.643
14596TIP3    H243746   2.265   2.666   6.725
14597TIP3   OH243747   2.294   0.435   0.056
14597TIP3    H143748   2.360   0.402  -0.005
14597TIP3    H243749   2.338   0.506   0.102
14598TIP3   OH243750   0.093   0.508   1.146
14598TIP3    H143751   0.072   0.422   1.109
14598TIP3    H243752   0.157   0.545   1.085
14599TIP3   OH243753   2.426   3.274   0.610
14599TIP3    H143754   2.387   3.347   0.659
14599TIP3    H243755   2.390   3.196   0.651
14600TIP3   OH243756   3.831   4.917   3.012
14600TIP3    H143757   3.922   4.896   2.992
14600TIP3    H243758   3.780   4.868   2.949
14601TIP3   OH243759   5.676   3.648   6.589
14601TIP3    H143760   5.758   3.600   6.590
14601TIP3    H243761   5.698   3.732   6.549
14602TIP3   OH243762   2.822   5.282   0.303
14602TIP3    H143763   2.877   5.360   0.313
14602TIP3    H243764   2.766   5.302   0.227
14603TIP3   OH243765   8.068   4.577   4.083
14603TIP3    H143766   8.101   4.591   3.994
14603TIP3    H243767   8.078   4.662   4.125
14604TIP3   OH243768   7.559   1.682   6.018
14604TIP3    H143769   7.585   1.591   6.008
14604TIP3    H243770   7.507   1.701   5.940
14605TIP3   OH243771   2.176   6.017   5.118
14605TIP3    H143772   2.086   6.048   5.129
14605TIP3    H243773   2.216   6.083   5.061
14606TIP3   OH243774   1.609   4.091   3.399
14606TIP3    H143775   1.522   4.101   3.438
14606TIP3    H243776   1.611   4.154   3.327
14607TIP3   OH243777   3.564   4.148   1.060
14607TIP3    H143778   3.566   4.180   1.150
14607TIP3    H243779   3.616   4.211   1.010
14608TIP3   OH243780   7.846   6.150   0.259
14608TIP3    H143781   7.885   6.072   0.220
14608TIP3    H243782   7.903   6.222   0.230
14609TIP3   OH243783   0.032   4.943   4.726
14609TIP3    H143784   0.065   4.924   4.638
14609TIP3    H243785   0.072   5.026   4.750
14610TIP3   OH243786   0.195   0.315   6.557
14610TIP3    H143787   0.189   0.247   6.490
14610TIP3    H243788   0.271   0.291   6.609
14611TIP3   OH243789   3.630   7.339   6.119
14611TIP3    H143790   3.659   7.267   6.174
14611TIP3    H243791   3.539   7.320   6.099
14612TIP3   OH243792   0.180   6.069   5.392
14612TIP3    H143793   0.251   6.013   5.423
14612TIP3    H243794   0.117   6.008   5.353
14613TIP3   OH243795   1.129   4.852   3.647
14613TIP3    H143796   1.160   4.914   3.714
14613TIP3    H243797   1.039   4.880   3.629
14614TIP3   OH243798   0.111   2.111   4.834
14614TIP3    H143799   0.110   2.206   4.821
14614TIP3    H243800   0.198   2.093   4.869
14615TIP3   OH243801   2.364   2.114   3.131
14615TIP3    H143802   2.355   2.114   3.036
14615TIP3    H243803   2.290   2.061   3.162
14616TIP3   OH243804   6.680   1.676   3.123
14616TIP3    H143805   6.593   1.656   3.155
14616TIP3    H243806   6.699   1.609   3.058
14617TIP3   OH243807   3.183   5.618   4.749
14617TIP3    H143808   3.209   5.529   4.773
14617TIP3    H243809   3.124   5.606   4.674
14618TIP3   OH243810   0.341   7.656   0.500
14618TIP3    H143811   0.250   7.673   0.475
14618TIP3    H243812   0.369   7.585   0.442
14619TIP3   OH243813   0.704   6.548   5.033
14619TIP3    H143814   0.663   6.634   5.024
14619TIP3    H243815   0.797   6.564   5.013
14620TIP3   OH243816   3.899   7.362   2.388
14620TIP3    H143817   3.883   7.287   2.330
14620TIP3    H243818   3.826   7.421   2.372
14621TIP3   OH243819   6.719   7.164   6.001
14621TIP3    H143820   6.637   7.212   6.007
14621TIP3    H243821   6.780   7.212   6.057
14622TIP3   OH243822   2.321   0.949   6.355
14622TIP3    H143823   2.322   1.039   6.323
14622TIP3    H243824   2.234   0.938   6.393
14623TIP3   OH243825   5.914   6.476   2.811
14623TIP3    H143826   5.951   6.436   2.732
14623TIP3    H243827   5.851   6.540   2.778
14624TIP3   OH243828   0.547   3.387   4.077
14624TIP3    H143829   0.623   3.380   4.019
14624TIP3    H243830   0.536   3.481   4.091
14625TIP3   OH243831   7.398   4.903   5.392
14625TIP3    H143832   7.416   4.996   5.390
14625TIP3    H243833   7.374   4.881   5.302
14626TIP3   OH243834   3.874   7.587   6.644
14626TIP3    H143835   3.852   7.494   6.645
14626TIP3    H243836   3.970   7.589   6.637
14627TIP3   OH243837   7.894   1.604   2.084
14627TIP3    H143838   7.837   1.527   2.079
14627TIP3    H243839   7.836   1.678   2.065
14628TIP3   OH243840   6.051   4.324   4.945
14628TIP3    H143841   6.062   4.325   5.040
14628TIP3    H243842   6.138   4.341   4.910
14629TIP3   OH243843   4.396   2.324   5.428
14629TIP3    H143844   4.463   2.287   5.370
14629TIP3    H243845   4.324   2.261   5.425
14630TIP3   OH243846   2.786   6.140   1.291
14630TIP3    H143847   2.847   6.076   1.326
14630TIP3    H243848   2.763   6.107   1.204
14631TIP3   OH243849   5.660   0.904   5.670
14631TIP3    H143850   5.667   0.835   5.735
14631TIP3    H243851   5.750   0.921   5.642
14632TIP3   OH243852   5.074   2.292   5.480
14632TIP3    H143853   5.127   2.276   5.402
14632TIP3    H243854   4.999   2.234   5.470
14633TIP3   OH243855   1.378   3.197   1.812
14633TIP3    H143856   1.299   3.251   1.808
14633TIP3    H243857   1.439   3.241   1.752
14634TIP3   OH243858   4.626   3.254   4.294
14634TIP3    H143859   4.627   3.344   4.326
14634TIP3    H243860   4.617   3.263   4.199
14635TIP3   OH243861   1.049   3.498   1.070
14635TIP3    H143862   1.079   3.587   1.091
14635TIP3    H243863   1.087   3.479   0.984
14636TIP3   OH243864   6.547   3.215   0.741
14636TIP3    H143865   6.478   3.255   0.794
14636TIP3    H243866   6.575   3.285   0.681
14637TIP3   OH243867   5.504   6.253   3.338
14637TIP3    H143868   5.598   6.266   3.350
14637TIP3    H243869   5.497   6.200   3.258
14638TIP3   OH243870   1.639   0.663   6.462
14638TIP3    H143871   1.729   0.670   6.493
14638TIP3    H243872   1.628   0.736   6.401
14639TIP3   OH243873   4.879   3.050   0.089
14639TIP3    H143874   4.939   3.063   0.163
14639TIP3    H243875   4.904   3.117   0.026
14640TIP3   OH243876   3.050   6.737   4.466
14640TIP3    H143877   2.994   6.792   4.411
14640TIP3    H243878   3.133   6.731   4.420
14641TIP3   OH243879   6.763   1.133   1.157
14641TIP3    H143880   6.783   1.039   1.166
14641TIP3    H243881   6.783   1.153   1.066
14642TIP3   OH243882   7.210   4.736   5.752
14642TIP3    H143883   7.125   4.767   5.785
14642TIP3    H243884   7.202   4.740   5.657
14643TIP3   OH243885   6.696   6.608   4.635
14643TIP3    H143886   6.635   6.539   4.663
14643TIP3    H243887   6.753   6.564   4.572
14644TIP3   OH243888   0.618   6.874   4.200
14644TIP3    H143889   0.624   6.843   4.291
14644TIP3    H243890   0.550   6.941   4.203
14645TIP3   OH243891   8.087   1.907   3.795
14645TIP3    H143892   8.174   1.880   3.824
14645TIP3    H243893   8.094   2.002   3.785
14646TIP3   OH243894   0.767   0.447   4.416
14646TIP3    H143895   0.689   0.434   4.363
14646TIP3    H243896   0.770   0.542   4.431
14647TIP3   OH243897   4.667   5.574   5.648
14647TIP3    H143898   4.584   5.547   5.686
14647TIP3    H243899   4.671   5.669   5.664
14648TIP3   OH243900   7.874   7.488   3.649
14648TIP3    H143901   7.923   7.567   3.674
14648TIP3    H243902   7.826   7.464   3.728
14649TIP3   OH243903   0.102   1.419   4.705
14649TIP3    H143904   0.120   1.502   4.751
14649TIP3    H243905   0.011   1.428   4.677
14650TIP3   OH243906   2.263   7.806   6.139
14650TIP3    H143907   2.254   7.899   6.117
14650TIP3    H243908   2.206   7.794   6.215
14651TIP3   OH243909   6.662   3.031   3.309
14651TIP3    H143910   6.727   3.070   3.368
14651TIP3    H243911   6.580   3.035   3.358
14652TIP3   OH243912   4.754   3.738   3.106
14652TIP3    H143913   4.665   3.703   3.095
14652TIP3    H243914   4.770   3.734   3.200
14653TIP3   OH243915   5.175   3.006   4.815
14653TIP3    H143916   5.102   3.021   4.754
14653TIP3    H243917   5.237   3.076   4.795
14654TIP3   OH243918   7.416   2.186   6.150
14654TIP3    H143919   7.509   2.205   6.159
14654TIP3    H243920   7.409   2.091   6.163
14655TIP3   OH243921   4.168   4.430   0.915
14655TIP3    H143922   4.172   4.503   0.977
14655TIP3    H243923   4.166   4.472   0.829
14656TIP3   OH243924   0.366   6.474   6.560
14656TIP3    H143925   0.376   6.530   6.483
14656TIP3    H243926   0.366   6.535   6.634
14657TIP3   OH243927   5.066   2.491   1.953
14657TIP3    H143928   4.994   2.436   1.985
14657TIP3    H243929   5.076   2.466   1.862
14658TIP3   OH243930   1.864   3.582   0.915
14658TIP3    H143931   1.810   3.657   0.940
14658TIP3    H243932   1.948   3.621   0.888
14659TIP3   OH243933   2.064   5.823   2.968
14659TIP3    H143934   2.077   5.892   2.903
14659TIP3    H243935   2.089   5.742   2.923
14660TIP3   OH243936   2.912   0.200   4.675
14660TIP3    H143937   2.963   0.273   4.710
14660TIP3    H243938   2.937   0.195   4.583
14661TIP3   OH243939   0.218   3.823   6.224
14661TIP3    H143940   0.136   3.837   6.177
14661TIP3    H243941   0.278   3.790   6.157
14662TIP3   OH243942   7.805   3.436   1.319
14662TIP3    H143943   7.876   3.492   1.350
14662TIP3    H243944   7.845   3.386   1.248
14663TIP3   OH243945   5.250   0.002   3.756
14663TIP3    H143946   5.224   0.010   3.848
14663TIP3    H243947   5.172   0.027   3.707
14664TIP3   OH243948   2.110   3.871   4.168
14664TIP3    H143949   2.018   3.883   4.144
14664TIP3    H243950   2.153   3.844   4.087
14665TIP3   OH243951   5.102   1.749   3.657
14665TIP3    H143952   5.186   1.718   3.624
14665TIP3    H243953   5.038   1.716   3.595
14666TIP3   OH243954   4.404   2.649   5.337
14666TIP3    H143955   4.419   2.601   5.419
14666TIP3    H243956   4.491   2.664   5.302
14667TIP3   OH243957   5.666   1.684   5.274
14667TIP3    H143958   5.600   1.752   5.282
14667TIP3    H243959   5.713   1.687   5.358
14668TIP3   OH243960   5.280   2.730   0.369
14668TIP3    H143961   5.246   2.710   0.281
14668TIP3    H243962   5.224   2.679   0.428
14669TIP3   OH243963   6.822   2.170   5.112
14669TIP3    H143964   6.854   2.250   5.154
14669TIP3    H243965   6.856   2.099   5.167
14670TIP3   OH243966   8.118   0.569   4.084
14670TIP3    H143967   8.138   0.643   4.026
14670TIP3    H243968   8.123   0.492   4.027
14671TIP3   OH243969   8.104   7.756   5.338
14671TIP3    H143970   8.148   7.812   5.273
14671TIP3    H243971   8.176   7.720   5.390
14672TIP3   OH243972   0.269   3.138   3.811
14672TIP3    H143973   0.334   3.092   3.758
14672TIP3    H243974   0.310   3.223   3.830
14673TIP3   OH243975   2.278   2.636   5.180
14673TIP3    H143976   2.251   2.576   5.250
14673TIP3    H243977   2.235   2.718   5.200
14674TIP3   OH243978   0.934   5.616   5.157
14674TIP3    H143979   0.881   5.621   5.236
14674TIP3    H243980   1.024   5.614   5.188
14675TIP3   OH243981   2.939   5.787   2.527
14675TIP3    H143982   2.877   5.753   2.462
14675TIP3    H243983   2.890   5.853   2.576
14676TIP3   OH243984   4.168   5.335   2.700
14676TIP3    H143985   4.207   5.370   2.780
14676TIP3    H243986   4.201   5.245   2.694
14677TIP3   OH243987   7.883   4.384   3.308
14677TIP3    H143988   7.960   4.399   3.364
14677TIP3    H243989   7.904   4.431   3.226
14678TIP3   OH243990   5.749   2.580   4.783
14678TIP3    H143991   5.705   2.525   4.719
14678TIP3    H243992   5.692   2.579   4.860
14679TIP3   OH243993   0.853   5.144   6.169
14679TIP3    H143994   0.821   5.196   6.243
14679TIP3    H243995   0.876   5.208   6.102
14680TIP3   OH243996   3.277   7.533   1.655
14680TIP3    H143997   3.192   7.524   1.612
14680TIP3    H243998   3.266   7.489   1.740
14681TIP3   OH243999   5.780   1.784   4.415
14681TIP3    H144000   5.849   1.725   4.444
14681TIP3    H244001   5.706   1.764   4.471
14682TIP3   OH244002   0.285   2.194   6.399
14682TIP3    H144003   0.294   2.157   6.487
14682TIP3    H244004   0.372   2.229   6.378
14683TIP3   OH244005   7.758   6.560   5.136
14683TIP3    H144006   7.796   6.473   5.129
14683TIP3    H244007   7.672   6.552   5.095
14684TIP3   OH244008   0.492   5.372   4.106
14684TIP3    H144009   0.517   5.336   4.020
14684TIP3    H244010   0.575   5.392   4.148
14685TIP3   OH244011   8.185   0.500   2.210
14685TIP3    H144012   8.220   0.489   2.122
14685TIP3    H244013   8.101   0.544   2.197
14686TIP3   OH244014   4.276   3.463   1.289
14686TIP3    H144015   4.269   3.551   1.251
14686TIP3    H244016   4.254   3.476   1.382
14687TIP3   OH244017   2.877   5.108   6.235
14687TIP3    H144018   2.948   5.054   6.200
14687TIP3    H244019   2.828   5.050   6.293
14688TIP3   OH244020   4.516   5.045   5.705
14688TIP3    H144021   4.489   4.976   5.766
14688TIP3    H244022   4.485   5.016   5.620
14689TIP3   OH244023   7.920   1.469   5.741
14689TIP3    H144024   7.888   1.557   5.760
14689TIP3    H244025   8.008   1.483   5.705
14690TIP3   OH244026   6.106   3.982   0.447
14690TIP3    H144027   6.026   3.992   0.497
14690TIP3    H244028   6.093   3.903   0.395
14691TIP3   OH244029   7.972   6.876   1.539
14691TIP3    H144030   7.910   6.925   1.594
14691TIP3    H244031   7.932   6.789   1.530
14692TIP3   OH244032   6.973   6.834   4.782
14692TIP3    H144033   7.027   6.884   4.843
14692TIP3    H244034   7.024   6.754   4.766
14693TIP3   OH244035   5.885   0.170   4.121
14693TIP3    H144036   5.918   0.117   4.048
14693TIP3    H244037   5.912   0.124   4.200
14694TIP3   OH244038   3.540   1.658   6.116
14694TIP3    H144039   3.622   1.613   6.097
14694TIP3    H244040   3.505   1.682   6.030
14695TIP3   OH244041   6.302   6.855   1.832
14695TIP3    H144042   6.357   6.820   1.762
14695TIP3    H244043   6.271   6.778   1.879
14696TIP3   OH244044   1.618   5.939   2.741
14696TIP3    H144045   1.657   5.866   2.692
14696TIP3    H244046   1.554   5.897   2.798
14697TIP3   OH244047   5.531   4.653   3.057
14697TIP3    H144048   5.446   4.614   3.036
14697TIP3    H244049   5.594   4.604   3.004
14698TIP3   OH244050   4.179   3.088   1.631
14698TIP3    H144051   4.206   3.029   1.701
14698TIP3    H244052   4.250   3.085   1.568
14699TIP3   OH244053   5.592   0.019   2.032
14699TIP3    H144054   5.590  -0.024   2.117
14699TIP3    H244055   5.531   0.092   2.040
14700TIP3   OH244056   3.548   6.980   1.725
14700TIP3    H144057   3.455   6.957   1.734
14700TIP3    H244058   3.588   6.902   1.687
14701TIP3   OH244059   3.996   2.631   1.554
14701TIP3    H144060   3.930   2.662   1.617
14701TIP3    H244061   4.020   2.709   1.504
14702TIP3   OH244062   7.513   3.763   2.689
14702TIP3    H144063   7.470   3.751   2.604
14702TIP3    H244064   7.591   3.815   2.670
14703TIP3   OH244065   6.159   7.009   4.121
14703TIP3    H144066   6.074   7.047   4.098
14703TIP3    H244067   6.146   6.972   4.209
14704TIP3   OH244068   2.784   1.162   4.890
14704TIP3    H144069   2.726   1.236   4.909
14704TIP3    H244070   2.844   1.159   4.964
14705TIP3   OH244071   7.771   3.744   4.440
14705TIP3    H144072   7.803   3.741   4.350
14705TIP3    H244073   7.724   3.661   4.452
14706TIP3   OH244074   1.978   4.856   1.600
14706TIP3    H144075   2.044   4.849   1.531
14706TIP3    H244076   1.984   4.947   1.631
14707TIP3   OH244077   7.579   0.638   4.291
14707TIP3    H144078   7.592   0.586   4.212
14707TIP3    H244079   7.656   0.695   4.295
14708TIP3   OH244080   3.216   1.975   1.958
14708TIP3    H144081   3.227   2.025   1.877
14708TIP3    H244082   3.286   1.910   1.956
14709TIP3   OH244083   1.394   2.940   3.117
14709TIP3    H144084   1.357   2.959   3.204
14709TIP3    H244085   1.484   2.914   3.135
14710TIP3   OH244086   0.510   0.866   5.782
14710TIP3    H144087   0.442   0.923   5.816
14710TIP3    H244088   0.557   0.834   5.859
14711TIP3   OH244089   6.748   4.177   2.838
14711TIP3    H144090   6.729   4.167   2.931
14711TIP3    H244091   6.817   4.243   2.834
14712TIP3   OH244092   6.250   2.087   2.083
14712TIP3    H144093   6.272   2.023   2.015
14712TIP3    H244094   6.168   2.054   2.120
14713TIP3   OH244095   2.097   4.293   2.992
14713TIP3    H144096   2.178   4.246   3.012
14713TIP3    H244097   2.038   4.226   2.958
14714TIP3   OH244098   4.665   6.064   5.903
14714TIP3    H144099   4.702   5.976   5.893
14714TIP3    H244100   4.572   6.049   5.921
14715TIP3   OH244101   4.210   5.192   6.198
14715TIP3    H144102   4.156   5.250   6.145
14715TIP3    H244103   4.155   5.116   6.214
14716TIP3   OH244104   2.331   1.004   1.066
14716TIP3    H144105   2.262   1.008   1.000
14716TIP3    H244106   2.381   1.085   1.054
14717TIP3   OH244107   0.525   7.692   5.581
14717TIP3    H144108   0.534   7.612   5.530
14717TIP3    H244109   0.500   7.662   5.668
14718TIP3   OH244110   2.296   6.657   4.016
14718TIP3    H144111   2.341   6.658   4.100
14718TIP3    H244112   2.236   6.731   4.020
14719TIP3   OH244113   1.033   2.959   0.443
14719TIP3    H144114   0.995   3.046   0.434
14719TIP3    H244115   0.993   2.924   0.523
14720TIP3   OH244116   4.804   3.703   4.071
14720TIP3    H144117   4.791   3.608   4.069
14720TIP3    H244118   4.833   3.724   3.982
14721TIP3   OH244119   1.546   6.913   6.332
14721TIP3    H144120   1.465   6.960   6.352
14721TIP3    H244121   1.518   6.837   6.281
14722TIP3   OH244122   6.251   1.578   4.394
14722TIP3    H144123   6.293   1.517   4.454
14722TIP3    H244124   6.257   1.535   4.308
14723TIP3   OH244125   3.662   7.636   5.713
14723TIP3    H144126   3.662   7.661   5.805
14723TIP3    H244127   3.628   7.546   5.713
14724TIP3   OH244128   4.259   2.248   0.836
14724TIP3    H144129   4.353   2.249   0.854
14724TIP3    H244130   4.237   2.155   0.829
14725TIP3   OH244131   3.458   6.284   1.057
14725TIP3    H144132   3.471   6.362   1.002
14725TIP3    H244133   3.451   6.318   1.146
14726TIP3   OH244134   7.785   6.853   6.211
14726TIP3    H144135   7.696   6.861   6.177
14726TIP3    H244136   7.782   6.894   6.297
14727TIP3   OH244137   1.807   5.819   2.052
14727TIP3    H144138   1.734   5.839   1.993
14727TIP3    H244139   1.766   5.793   2.134
14728TIP3   OH244140   4.763   6.961   2.718
14728TIP3    H144141   4.843   7.009   2.742
14728TIP3    H244142   4.707   6.968   2.796
14729TIP3   OH244143   3.367   6.157   5.123
14729TIP3    H144144   3.404   6.165   5.036
14729TIP3    H244145   3.309   6.081   5.118
14730TIP3   OH244146   0.341   1.894   1.419
14730TIP3    H144147   0.396   1.940   1.355
14730TIP3    H244148   0.363   1.934   1.503
14731TIP3   OH244149   3.329   5.112   3.333
14731TIP3    H144150   3.413   5.067   3.347
14731TIP3    H244151   3.263   5.050   3.364
14732TIP3   OH244152   3.446   3.116   3.258
14732TIP3    H144153   3.520   3.115   3.319
14732TIP3    H244154   3.452   3.201   3.214
14733TIP3   OH244155   3.358   7.176   1.935
14733TIP3    H144156   3.319   7.263   1.940
14733TIP3    H244157   3.420   7.182   1.862
14734TIP3   OH244158   0.141   3.050   0.411
14734TIP3    H144159   0.194   3.058   0.332
14734TIP3    H244160   0.051   3.045   0.379
14735TIP3   OH244161   3.894   7.670   5.334
14735TIP3    H144162   3.863   7.642   5.421
14735TIP3    H244163   3.946   7.748   5.351
14736TIP3   OH244164   7.787   3.897   5.486
14736TIP3    H144165   7.756   3.859   5.404
14736TIP3    H244166   7.707   3.919   5.534
14737TIP3   OH244167   8.166   4.495   0.342
14737TIP3    H144168   8.160   4.462   0.253
14737TIP3    H244169   8.109   4.437   0.393
14738TIP3   OH244170   2.958   4.418   4.914
14738TIP3    H144171   2.974   4.398   5.006
14738TIP3    H244172   2.898   4.492   4.915
14739TIP3   OH244173   4.774   7.198   2.222
14739TIP3    H144174   4.709   7.175   2.288
14739TIP3    H244175   4.742   7.281   2.185
14740TIP3   OH244176   7.933   3.592   0.794
14740TIP3    H144177   7.939   3.686   0.778
14740TIP3    H244178   7.986   3.553   0.725
14741TIP3   OH244179   1.043   5.068   4.144
14741TIP3    H144180   1.023   5.091   4.053
14741TIP3    H244181   1.137   5.084   4.153
14742TIP3   OH244182   2.205   0.438   1.175
14742TIP3    H144183   2.190   0.344   1.185
14742TIP3    H244184   2.212   0.451   1.080
14743TIP3   OH244185   1.799   3.277   4.123
14743TIP3    H144186   1.723   3.282   4.181
14743TIP3    H244187   1.765   3.236   4.043
14744TIP3   OH244188   5.341   3.842   6.325
14744TIP3    H144189   5.355   3.759   6.279
14744TIP3    H244190   5.357   3.909   6.258
14745TIP3   OH244191   6.649   4.121   6.102
14745TIP3    H144192   6.617   4.051   6.159
14745TIP3    H244193   6.705   4.076   6.039
14746TIP3   OH244194   2.320   5.260   5.181
14746TIP3    H144195   2.349   5.297   5.264
14746TIP3    H244196   2.399   5.258   5.127
14747TIP3   OH244197   3.282   2.369   1.470
14747TIP3    H144198   3.310   2.414   1.390
14747TIP3    H244199   3.204   2.417   1.498
14748TIP3   OH244200   2.501   5.135   3.000
14748TIP3    H144201   2.572   5.134   2.936
14748TIP3    H244202   2.517   5.212   3.054
14749TIP3   OH244203   4.890   2.526   1.452
14749TIP3    H144204   4.949   2.563   1.386
14749TIP3    H244205   4.911   2.432   1.453
14750TIP3   OH244206   2.572   5.892   2.785
14750TIP3    H144207   2.522   5.957   2.736
14750TIP3    H244208   2.514   5.816   2.791
14751TIP3   OH244209   2.810   3.486   0.700
14751TIP3    H144210   2.856   3.541   0.636
14751TIP3    H244211   2.799   3.402   0.655
14752TIP3   OH244212   5.971   7.500   4.150
14752TIP3    H144213   5.889   7.505   4.100
14752TIP3    H244214   5.994   7.592   4.165
14753TIP3   OH244215   1.394   7.565   4.722
14753TIP3    H144216   1.353   7.558   4.809
14753TIP3    H244217   1.475   7.514   4.730
14754TIP3   OH244218   4.283   2.185   3.863
14754TIP3    H144219   4.253   2.271   3.893
14754TIP3    H244220   4.228   2.122   3.911
14755TIP3   OH244221   6.312   1.366   3.002
14755TIP3    H144222   6.290   1.367   2.909
14755TIP3    H244223   6.300   1.275   3.028
14756TIP3   OH244224   5.790   6.436   5.454
14756TIP3    H144225   5.848   6.367   5.423
14756TIP3    H244226   5.734   6.393   5.518
14757TIP3   OH244227   4.272   0.046   1.634
14757TIP3    H144228   4.352   0.096   1.651
14757TIP3    H244229   4.255   0.058   1.541
14758TIP3   OH244230   5.433   5.634   3.060
14758TIP3    H144231   5.451   5.547   3.025
14758TIP3    H244232   5.494   5.692   3.014
14759TIP3   OH244233   1.919   1.928   0.360
14759TIP3    H144234   1.947   1.958   0.273
14759TIP3    H244235   1.862   1.998   0.392
14760TIP3   OH244236   0.098   0.699   2.266
14760TIP3    H144237   0.014   0.745   2.259
14760TIP3    H244238   0.076   0.607   2.252
14761TIP3   OH244239   3.352   4.253   2.625
14761TIP3    H144240   3.373   4.161   2.613
14761TIP3    H244241   3.437   4.298   2.623
14762TIP3   OH244242   0.913   3.812   1.293
14762TIP3    H144243   0.891   3.764   1.212
14762TIP3    H244244   0.831   3.814   1.342
14763TIP3   OH244245   1.276   5.555   2.439
14763TIP3    H144246   1.255   5.485   2.501
14763TIP3    H244247   1.246   5.523   2.355
14764TIP3   OH244248   3.273   2.064   2.969
14764TIP3    H144249   3.205   2.049   3.034
14764TIP3    H244250   3.352   2.081   3.020
14765TIP3   OH244251   4.105   7.409   3.829
14765TIP3    H144252   4.075   7.495   3.857
14765TIP3    H244253   4.054   7.390   3.751
14766TIP3   OH244254   2.051   6.498   4.887
14766TIP3    H144255   1.998   6.555   4.942
14766TIP3    H244256   1.994   6.424   4.866
14767TIP3   OH244257   3.059   4.664   1.580
14767TIP3    H144258   3.149   4.679   1.611
14767TIP3    H244259   3.029   4.590   1.632
14768TIP3   OH244260   3.181   7.367   6.262
14768TIP3    H144261   3.146   7.428   6.327
14768TIP3    H244262   3.271   7.397   6.247
14769TIP3   OH244263   4.991   5.145   4.447
14769TIP3    H144264   5.012   5.155   4.354
14769TIP3    H244265   5.057   5.199   4.492
14770TIP3   OH244266   2.163   4.908   4.840
14770TIP3    H144267   2.138   4.819   4.815
14770TIP3    H244268   2.079   4.954   4.848
14771TIP3   OH244269   4.024   1.666   2.879
14771TIP3    H144270   4.111   1.704   2.891
14771TIP3    H244271   4.001   1.689   2.789
14772TIP3   OH244272   1.283   6.010   6.441
14772TIP3    H144273   1.200   5.970   6.466
14772TIP3    H244274   1.304   5.970   6.356
14773TIP3   OH244275   7.409   5.878   0.780
14773TIP3    H144276   7.490   5.856   0.825
14773TIP3    H244277   7.388   5.799   0.729
14774TIP3   OH244278   6.652   4.606   6.169
14774TIP3    H144279   6.595   4.529   6.162
14774TIP3    H244280   6.735   4.579   6.130
14775TIP3   OH244281   7.857   4.530   2.526
14775TIP3    H144282   7.928   4.465   2.517
14775TIP3    H244283   7.863   4.560   2.616
14776TIP3   OH244284   7.085   6.934   3.251
14776TIP3    H144285   7.031   6.922   3.329
14776TIP3    H244286   7.043   6.880   3.184
14777TIP3   OH244287   3.627   0.427   4.436
14777TIP3    H144288   3.700   0.376   4.472
14777TIP3    H244289   3.668   0.488   4.375
14778TIP3   OH244290   4.267   6.907   4.068
14778TIP3    H144291   4.257   6.976   4.003
14778TIP3    H244292   4.249   6.951   4.152
14779TIP3   OH244293   7.776   2.828   1.561
14779TIP3    H144294   7.786   2.756   1.499
14779TIP3    H244295   7.863   2.839   1.600
14780TIP3   OH244296   4.814   6.882   5.798
14780TIP3    H144297   4.802   6.863   5.891
14780TIP3    H244298   4.756   6.820   5.753
14781TIP3   OH244299   1.919   0.267   0.217
14781TIP3    H144300   1.941   0.299   0.305
14781TIP3    H244301   1.825   0.281   0.209
14782TIP3   OH244302   4.911   0.363   0.232
14782TIP3    H144303   4.995   0.408   0.230
14782TIP3    H244304   4.921   0.296   0.299
14783TIP3   OH244305   1.688   1.608   6.430
14783TIP3    H144306   1.744   1.573   6.500
14783TIP3    H244307   1.737   1.591   6.350
14784TIP3   OH244308   5.961   4.817   6.687
14784TIP3    H144309   5.939   4.870   6.764
14784TIP3    H244310   5.958   4.879   6.614
14785TIP3   OH244311   2.327   6.809   3.456
14785TIP3    H144312   2.394   6.780   3.517
14785TIP3    H244313   2.260   6.850   3.512
14786TIP3   OH244314   2.901   0.633   1.458
14786TIP3    H144315   2.965   0.578   1.502
14786TIP3    H244316   2.887   0.591   1.374
14787TIP3   OH244317   2.823   4.478   2.320
14787TIP3    H144318   2.911   4.500   2.289
14787TIP3    H244319   2.769   4.552   2.291
14788TIP3   OH244320   5.606   4.525   2.541
14788TIP3    H144321   5.700   4.539   2.553
14788TIP3    H244322   5.567   4.609   2.563
14789TIP3   OH244323   1.032   1.370   0.395
14789TIP3    H144324   1.117   1.358   0.437
14789TIP3    H244325   1.047   1.436   0.327
14790TIP3   OH244326   2.987   5.332   5.697
14790TIP3    H144327   2.981   5.268   5.768
14790TIP3    H244328   3.058   5.390   5.724
14791TIP3   OH244329   4.469   5.410   0.205
14791TIP3    H144330   4.445   5.492   0.248
14791TIP3    H244331   4.387   5.363   0.194
14792TIP3   OH244332   0.719   7.191   6.583
14792TIP3    H144333   0.768   7.243   6.520
14792TIP3    H244334   0.769   7.109   6.590
14793TIP3   OH244335   7.635   3.920   0.781
14793TIP3    H144336   7.592   3.990   0.831
14793TIP3    H244337   7.654   3.853   0.846
14794TIP3   OH244338   4.586   6.875   1.438
14794TIP3    H144339   4.549   6.952   1.394
14794TIP3    H244340   4.614   6.907   1.523
14795TIP3   OH244341   0.603   2.571   4.383
14795TIP3    H144342   0.582   2.540   4.294
14795TIP3    H244343   0.546   2.646   4.396
14796TIP3   OH244344   7.303   0.925   2.238
14796TIP3    H144345   7.389   0.915   2.277
14796TIP3    H244346   7.267   1.005   2.276
14797TIP3   OH244347   4.116   2.633   3.067
14797TIP3    H144348   4.095   2.652   3.158
14797TIP3    H244349   4.061   2.692   3.016
14798TIP3   OH244350   3.458   1.647   5.448
14798TIP3    H144351   3.370   1.675   5.476
14798TIP3    H244352   3.508   1.728   5.442
14799TIP3   OH244353   6.132   4.124   3.285
14799TIP3    H144354   6.086   4.044   3.310
14799TIP3    H244355   6.065   4.192   3.287
14800TIP3   OH244356   3.639   5.641   5.274
14800TIP3    H144357   3.633   5.641   5.369
14800TIP3    H244358   3.559   5.683   5.244
14801TIP3   OH244359   5.984   6.386   6.356
14801TIP3    H144360   5.945   6.380   6.443
14801TIP3    H244361   6.053   6.452   6.365
14802TIP3   OH244362   8.302   1.457   0.622
14802TIP3    H144363   8.233   1.425   0.680
14802TIP3    H244364   8.285   1.550   0.613
14803TIP3   OH244365   6.911   3.033   0.202
14803TIP3    H144366   6.955   2.986   0.131
14803TIP3    H244367   6.818   3.016   0.188
14804TIP3   OH244368   7.423   2.892   1.925
14804TIP3    H144369   7.385   2.871   1.840
14804TIP3    H244370   7.420   2.988   1.930
14805TIP3   OH244371   1.123   5.541   0.501
14805TIP3    H144372   1.171   5.533   0.583
14805TIP3    H244373   1.031   5.534   0.526
14806TIP3   OH244374   2.729   0.105   5.164
14806TIP3    H144375   2.784   0.057   5.103
14806TIP3    H244376   2.786   0.123   5.239
14807TIP3   OH244377   0.641   7.536   6.296
14807TIP3    H144378   0.713   7.474   6.309
14807TIP3    H244379   0.640   7.589   6.376
14808TIP3   OH244380   2.194   6.912   6.061
14808TIP3    H144381   2.267   6.931   6.002
14808TIP3    H244382   2.237   6.887   6.143
14809TIP3   OH244383   5.294   1.173   5.251
14809TIP3    H144384   5.274   1.092   5.296
14809TIP3    H244385   5.389   1.183   5.258
14810TIP3   OH244386   4.919   0.653   2.559
14810TIP3    H144387   4.955   0.717   2.620
14810TIP3    H244388   4.830   0.683   2.542
14811TIP3   OH244389   8.286   6.420   4.530
14811TIP3    H144390   8.273   6.514   4.545
14811TIP3    H244391   8.370   6.415   4.485
14812TIP3   OH244392   5.432   1.774   2.300
14812TIP3    H144393   5.522   1.804   2.308
14812TIP3    H244394   5.418   1.717   2.375
14813TIP3   OH244395   3.929   4.713   6.093
14813TIP3    H144396   3.979   4.650   6.043
14813TIP3    H244397   3.838   4.697   6.069
14814TIP3   OH244398   1.769   3.407   0.734
14814TIP3    H144399   1.827   3.460   0.789
14814TIP3    H244400   1.755   3.326   0.784
14815TIP3   OH244401   1.654   2.063   4.030
14815TIP3    H144402   1.583   2.028   3.975
14815TIP3    H244403   1.654   2.157   4.011
14816TIP3   OH244404   8.292   4.951   5.828
14816TIP3    H144405   8.206   4.942   5.870
14816TIP3    H244406   8.289   5.036   5.784
14817TIP3   OH244407   7.895   5.397   2.906
14817TIP3    H144408   7.888   5.349   2.823
14817TIP3    H244409   7.808   5.388   2.946
14818TIP3   OH244410   3.729   4.494   6.203
14818TIP3    H144411   3.781   4.435   6.148
14818TIP3    H244412   3.678   4.546   6.141
14819TIP3   OH244413   5.671   0.860   5.079
14819TIP3    H144414   5.698   0.850   4.988
14819TIP3    H244415   5.750   0.888   5.124
14820TIP3   OH244416   8.054   2.709   3.618
14820TIP3    H144417   8.141   2.741   3.594
14820TIP3    H244418   8.003   2.788   3.633
14821TIP3   OH244419   5.885   5.054   4.858
14821TIP3    H144420   5.979   5.070   4.851
14821TIP3    H244421   5.877   4.959   4.849
14822TIP3   OH244422   4.190   6.598   3.064
14822TIP3    H144423   4.206   6.519   3.114
14822TIP3    H244424   4.097   6.617   3.077
14823TIP3   OH244425   7.310   5.193   0.495
14823TIP3    H144426   7.365   5.260   0.455
14823TIP3    H244427   7.231   5.239   0.523
14824TIP3   OH244428   6.939   2.611   3.004
14824TIP3    H144429   6.921   2.616   2.910
14824TIP3    H244430   7.031   2.585   3.010
14825TIP3   OH244431   6.815   1.413   1.070
14825TIP3    H144432   6.726   1.377   1.065
14825TIP3    H244433   6.835   1.438   0.979
14826TIP3   OH244434   5.586   1.064   5.277
14826TIP3    H144435   5.658   1.111   5.235
14826TIP3    H244436   5.598   0.973   5.251
14827TIP3   OH244437   7.912   4.621   0.530
14827TIP3    H144438   7.923   4.534   0.493
14827TIP3    H244439   7.997   4.642   0.569
14828TIP3   OH244440   0.327   3.822   5.315
14828TIP3    H144441   0.373   3.791   5.393
14828TIP3    H244442   0.335   3.750   5.253
14829TIP3   OH244443   7.816   2.635   5.846
14829TIP3    H144444   7.761   2.560   5.868
14829TIP3    H244445   7.764   2.686   5.784
14830TIP3   OH244446   5.796   7.708   0.862
14830TIP3    H144447   5.767   7.799   0.864
14830TIP3    H244448   5.892   7.713   0.862
14831TIP3   OH244449   3.831   0.310   4.553
14831TIP3    H144450   3.788   0.248   4.612
14831TIP3    H244451   3.878   0.256   4.490
14832TIP3   OH244452   8.106   1.742   0.318
14832TIP3    H144453   8.086   1.673   0.382
14832TIP3    H244454   8.021   1.772   0.287
14833TIP3   OH244455   1.800   3.222   1.861
14833TIP3    H144456   1.807   3.255   1.951
14833TIP3    H244457   1.717   3.257   1.828
14834TIP3   OH244458   1.871   5.182   4.380
14834TIP3    H144459   1.884   5.236   4.458
14834TIP3    H244460   1.918   5.101   4.398
14835TIP3   OH244461   3.835   6.127   3.017
14835TIP3    H144462   3.893   6.200   3.038
14835TIP3    H244463   3.857   6.060   3.082
14836TIP3   OH244464   0.684   3.233   4.532
14836TIP3    H144465   0.720   3.228   4.620
14836TIP3    H244466   0.760   3.224   4.474
14837TIP3   OH244467   5.890   6.822   1.113
14837TIP3    H144468   5.802   6.840   1.081
14837TIP3    H244469   5.891   6.859   1.201
   8.30365   7.82875   6.77990   0.00000   0.00000  -2.76788   0.00000  -2.76788  -3.91438
