Title t= 220.00000 step= 110000
19942
    1ASP      N    1   1.067   2.261   3.690
    1ASP    HT1    2   1.058   2.330   3.767
    1ASP    HT2    3   1.004   2.180   3.703
    1ASP    HT3    4   1.043   2.303   3.598
    1ASP     CA    5   1.214   2.225   3.706
    1ASP     HA    6   1.268   2.318   3.717
    1ASP     CB    7   1.225   2.147   3.846
    1ASP    HB1    8   1.152   2.064   3.849
    1ASP    HB2    9   1.202   2.213   3.932
    1ASP     CG   10   1.362   2.094   3.870
    1ASP    OD1   11   1.378   1.973   3.902
    1ASP    OD2   12   1.464   2.166   3.870
    1ASP      C   13   1.284   2.159   3.592
    1ASP      O   14   1.342   2.220   3.507
    2ALA      N   15   1.274   2.029   3.583
    2ALA     HN   16   1.209   1.981   3.641
    2ALA     CA   17   1.315   1.959   3.459
    2ALA     HA   18   1.413   2.002   3.443
    2ALA     CB   19   1.333   1.803   3.469
    2ALA    HB1   20   1.403   1.779   3.552
    2ALA    HB2   21   1.373   1.765   3.373
    2ALA    HB3   22   1.234   1.755   3.487
    2ALA      C   23   1.246   1.987   3.330
    2ALA      O   24   1.131   2.034   3.325
    3ASP      N   25   1.314   1.950   3.219
    3ASP     HN   26   1.405   1.910   3.223
    3ASP     CA   27   1.258   1.965   3.084
    3ASP     HA   28   1.221   2.066   3.079
    3ASP     CB   29   1.363   1.939   2.970
    3ASP    HB1   30   1.323   1.960   2.868
    3ASP    HB2   31   1.407   1.837   2.966
    3ASP     CG   32   1.473   2.029   2.996
    3ASP    OD1   33   1.588   1.988   2.979
    3ASP    OD2   34   1.456   2.150   3.026
    3ASP      C   35   1.138   1.867   3.055
    3ASP      O   36   1.148   1.748   3.080
    4GLY      N   37   1.033   1.921   2.998
    4GLY     HN   38   1.041   2.014   2.965
    4GLY     CA   39   0.906   1.851   2.969
    4GLY    HA1   40   0.828   1.924   2.954
    4GLY    HA2   41   0.880   1.789   3.054
    4GLY      C   42   0.920   1.766   2.845
    4GLY      O   43   1.032   1.770   2.788
    5PRO      N   44   0.807   1.700   2.799
    5PRO     CD   45   0.678   1.717   2.862
    5PRO    HD1   46   0.627   1.810   2.829
    5PRO    HD2   47   0.671   1.708   2.972
    5PRO     CA   48   0.810   1.601   2.694
    5PRO     HA   49   0.830   1.507   2.743
    5PRO     CB   50   0.663   1.598   2.660
    5PRO    HB1   51   0.627   1.504   2.613
    5PRO    HB2   52   0.629   1.687   2.604
    5PRO     CG   53   0.593   1.614   2.798
    5PRO    HG1   54   0.486   1.644   2.793
    5PRO    HG2   55   0.604   1.521   2.858
    5PRO      C   56   0.904   1.625   2.574
    5PRO      O   57   0.903   1.740   2.524
    6GLY      N   58   0.967   1.518   2.516
    6GLY     HN   59   0.949   1.426   2.550
    6GLY     CA   60   1.049   1.527   2.393
    6GLY    HA1   61   1.139   1.469   2.408
    6GLY    HA2   62   1.091   1.624   2.372
    6GLY      C   63   0.981   1.482   2.273
    6GLY      O   64   0.863   1.500   2.252
    7ASP      N   65   1.060   1.416   2.184
    7ASP     HN   66   1.158   1.425   2.201
    7ASP     CA   67   1.020   1.401   2.052
    7ASP     HA   68   0.954   1.483   2.029
    7ASP     CB   69   1.141   1.385   1.958
    7ASP    HB1   70   1.217   1.319   2.004
    7ASP    HB2   71   1.199   1.480   1.949
    7ASP     CG   72   1.105   1.348   1.815
    7ASP    OD1   73   0.994   1.375   1.768
    7ASP    OD2   74   1.198   1.305   1.746
    7ASP      C   75   0.930   1.268   2.042
    7ASP      O   76   0.981   1.165   2.088
    8PRO      N   77   0.809   1.262   1.988
    8PRO     CD   78   0.714   1.371   1.961
    8PRO    HD1   79   0.715   1.396   1.853
    8PRO    HD2   80   0.753   1.463   2.008
    8PRO     CA   81   0.733   1.134   1.982
    8PRO     HA   82   0.732   1.088   2.080
    8PRO     CB   83   0.588   1.176   1.950
    8PRO    HB1   84   0.512   1.116   2.005
    8PRO    HB2   85   0.558   1.177   1.843
    8PRO     CG   86   0.577   1.320   1.998
    8PRO    HG1   87   0.508   1.386   1.941
    8PRO    HG2   88   0.568   1.337   2.108
    8PRO      C   89   0.782   1.034   1.879
    8PRO      O   90   0.727   0.926   1.874
    9ASP      N   91   0.878   1.077   1.793
    9ASP     HN   92   0.921   1.165   1.815
    9ASP     CA   93   0.947   0.993   1.704
    9ASP     HA   94   0.884   0.908   1.684
    9ASP     CB   95   0.978   1.083   1.568
    9ASP    HB1   96   1.039   1.011   1.509
    9ASP    HB2   97   1.040   1.170   1.600
    9ASP     CG   98   0.868   1.124   1.474
    9ASP    OD1   99   0.883   1.239   1.421
    9ASP    OD2  100   0.779   1.042   1.443
    9ASP      C  101   1.080   0.938   1.755
    9ASP      O  102   1.137   0.860   1.677
   10ALA      N  103   1.125   0.975   1.878
   10ALA     HN  104   1.069   1.027   1.942
   10ALA     CA  105   1.261   0.941   1.918
   10ALA     HA  106   1.323   0.908   1.836
   10ALA     CB  107   1.340   1.064   1.962
   10ALA    HB1  108   1.325   1.143   1.886
   10ALA    HB2  109   1.446   1.035   1.972
   10ALA    HB3  110   1.307   1.099   2.063
   10ALA      C  111   1.258   0.827   2.019
   10ALA      O  112   1.186   0.828   2.117
   11GLY      N  113   1.341   0.727   1.997
   11GLY     HN  114   1.424   0.743   1.943
   11GLY     CA  115   1.343   0.592   2.049
   11GLY    HA1  116   1.395   0.543   1.968
   11GLY    HA2  117   1.242   0.562   2.069
   11GLY      C  118   1.418   0.578   2.178
   11GLY    OT1  119   1.459   0.677   2.242
   11GLY    OT2  120   1.441   0.456   2.215
   12LIT    LIT  121   4.281   4.356   1.882
   13LIT    LIT  122   1.751   2.666   1.473
   14LIT    LIT  123   0.980   5.078   4.236
   15LIT    LIT  124   6.092   0.389   4.629
   16LIT    LIT  125   0.174   1.152   3.902
   17LIT    LIT  126   3.465   5.592   3.312
   18LIT    LIT  127   2.020   2.798   2.874
   19LIT    LIT  128   0.677   1.016   0.864
   20LIT    LIT  129   2.534   1.417   3.653
   21LIT    LIT  130   4.980   3.089   0.227
   22LIT    LIT  131   5.623   3.596   2.128
   23LIT    LIT  132   6.240   0.859   2.477
   24LIT    LIT  133   3.765   2.043   0.035
   25LIT    LIT  134   1.265   4.160   1.781
   26LIT    LIT  135   4.944   4.420   0.136
   27LIT    LIT  136   0.287   5.881   3.437
   28LIT    LIT  137   1.584   2.046   3.952
   29LIT    LIT  138   2.291   5.033   1.486
   30LIT    LIT  139   2.528   0.431   4.137
   31LIT    LIT  140   4.522   3.626   2.725
   32LIT    LIT  141   0.882   0.616   2.170
   33LIT    LIT  142   3.583   1.569   0.234
   34CLA    CLA  143   2.204   2.662   1.202
   35CLA    CLA  144   5.826   0.863   3.104
   36CLA    CLA  145   4.706   2.927   3.776
   37CLA    CLA  146   5.659   1.578   4.556
   38CLA    CLA  147   2.477   2.131   4.661
   39CLA    CLA  148   2.675   0.036   3.060
   40CLA    CLA  149   0.800   1.034   4.771
   41CLA    CLA  150   1.384   2.098   0.857
   42CLA    CLA  151   4.340   4.963   1.864
   43CLA    CLA  152   1.045   1.588   5.108
   44CLA    CLA  153   4.247   0.068   1.541
   45CLA    CLA  154   2.647   0.958   4.450
   46CLA    CLA  155   3.540   1.794   3.769
   47CLA    CLA  156   4.956   4.215   0.237
   48CLA    CLA  157   3.261   0.326   4.540
   49CLA    CLA  158   6.227   1.288   1.956
   50CLA    CLA  159   1.057   2.532   0.281
   51CLA    CLA  160   2.325   5.503   1.869
   52TIP3   OH2  161   1.982   0.806   3.912
   52TIP3    H1  162   2.018   0.863   3.980
   52TIP3    H2  163   1.888   0.824   3.912
   53TIP3   OH2  164   1.427   4.555   2.893
   53TIP3    H1  165   1.357   4.608   2.853
   53TIP3    H2  166   1.460   4.608   2.965
   54TIP3   OH2  167   2.237   0.424   3.419
   54TIP3    H1  168   2.326   0.458   3.407
   54TIP3    H2  169   2.192   0.494   3.467
   55TIP3   OH2  170   4.192   5.200   1.744
   55TIP3    H1  171   4.244   5.123   1.766
   55TIP3    H2  172   4.180   5.245   1.828
   56TIP3   OH2  173   1.002   5.815   0.178
   56TIP3    H1  174   1.077   5.855   0.133
   56TIP3    H2  175   0.947   5.889   0.204
   57TIP3   OH2  176   0.371   3.860   4.813
   57TIP3    H1  177   0.361   3.775   4.857
   57TIP3    H2  178   0.456   3.854   4.770
   58TIP3   OH2  179   5.420   4.343   4.825
   58TIP3    H1  180   5.402   4.265   4.877
   58TIP3    H2  181   5.492   4.386   4.871
   59TIP3   OH2  182   3.655   2.646   5.099
   59TIP3    H1  183   3.626   2.720   5.152
   59TIP3    H2  184   3.750   2.657   5.094
   60TIP3   OH2  185   1.657   0.907   4.786
   60TIP3    H1  186   1.589   0.849   4.753
   60TIP3    H2  187   1.683   0.959   4.709
   61TIP3   OH2  188   6.015   5.801   0.231
   61TIP3    H1  189   5.924   5.802   0.261
   61TIP3    H2  190   6.055   5.730   0.280
   62TIP3   OH2  191   4.853   3.105   1.910
   62TIP3    H1  192   4.853   3.090   2.005
   62TIP3    H2  193   4.928   3.055   1.878
   63TIP3   OH2  194   6.201   0.090   1.305
   63TIP3    H1  195   6.140   0.143   1.254
   63TIP3    H2  196   6.145   0.032   1.357
   64TIP3   OH2  197   1.662   5.407   2.476
   64TIP3    H1  198   1.738   5.401   2.419
   64TIP3    H2  199   1.667   5.495   2.515
   65TIP3   OH2  200   4.737   1.233   1.253
   65TIP3    H1  201   4.774   1.317   1.225
   65TIP3    H2  202   4.668   1.216   1.189
   66TIP3   OH2  203   1.723   5.841   4.107
   66TIP3    H1  204   1.711   5.913   4.170
   66TIP3    H2  205   1.634   5.814   4.085
   67TIP3   OH2  206   0.729   5.933   4.047
   67TIP3    H1  207   0.668   5.970   3.983
   67TIP3    H2  208   0.803   5.903   3.995
   68TIP3   OH2  209   3.124   3.091   2.630
   68TIP3    H1  210   3.067   3.104   2.706
   68TIP3    H2  211   3.097   3.007   2.594
   69TIP3   OH2  212   1.499   3.542   0.627
   69TIP3    H1  213   1.469   3.587   0.548
   69TIP3    H2  214   1.450   3.460   0.629
   70TIP3   OH2  215   5.798   0.070   4.723
   70TIP3    H1  216   5.752   0.063   4.807
   70TIP3    H2  217   5.825  -0.020   4.703
   71TIP3   OH2  218   5.277   1.658   1.776
   71TIP3    H1  219   5.343   1.637   1.711
   71TIP3    H2  220   5.215   1.716   1.731
   72TIP3   OH2  221   5.401   4.791   1.954
   72TIP3    H1  222   5.420   4.873   1.999
   72TIP3    H2  223   5.312   4.767   1.982
   73TIP3   OH2  224   0.137   3.607   4.553
   73TIP3    H1  225   0.051   3.605   4.510
   73TIP3    H2  226   0.191   3.662   4.495
   74TIP3   OH2  227   5.903   1.679   2.804
   74TIP3    H1  228   5.912   1.640   2.717
   74TIP3    H2  229   5.837   1.625   2.848
   75TIP3   OH2  230   5.955   1.159   0.926
   75TIP3    H1  231   5.884   1.222   0.930
   75TIP3    H2  232   6.007   1.176   1.005
   76TIP3   OH2  233   1.758   4.575   4.099
   76TIP3    H1  234   1.843   4.532   4.112
   76TIP3    H2  235   1.758   4.601   4.007
   77TIP3   OH2  236   1.232   3.427   2.109
   77TIP3    H1  237   1.284   3.492   2.156
   77TIP3    H2  238   1.297   3.368   2.070
   78TIP3   OH2  239   4.581   2.750   3.088
   78TIP3    H1  240   4.650   2.791   3.139
   78TIP3    H2  241   4.569   2.665   3.129
   79TIP3   OH2  242   3.296   0.419   1.062
   79TIP3    H1  243   3.346   0.366   1.000
   79TIP3    H2  244   3.260   0.356   1.124
   80TIP3   OH2  245   5.356   4.839   0.364
   80TIP3    H1  246   5.326   4.749   0.357
   80TIP3    H2  247   5.286   4.883   0.413
   81TIP3   OH2  248   0.755   3.463   3.854
   81TIP3    H1  249   0.793   3.384   3.815
   81TIP3    H2  250   0.752   3.443   3.948
   82TIP3   OH2  251   0.304   2.220   4.012
   82TIP3    H1  252   0.337   2.288   4.071
   82TIP3    H2  253   0.285   2.146   4.070
   83TIP3   OH2  254   5.086   3.771   3.040
   83TIP3    H1  255   5.134   3.790   2.960
   83TIP3    H2  256   5.025   3.845   3.050
   84TIP3   OH2  257   0.011   2.674   2.666
   84TIP3    H1  258  -0.038   2.700   2.743
   84TIP3    H2  259   0.044   2.586   2.687
   85TIP3   OH2  260   6.039   2.461   4.976
   85TIP3    H1  261   5.965   2.463   5.037
   85TIP3    H2  262   6.111   2.423   5.026
   86TIP3   OH2  263   3.150   3.363   1.511
   86TIP3    H1  264   3.057   3.357   1.491
   86TIP3    H2  265   3.194   3.324   1.435
   87TIP3   OH2  266   0.342   3.238   2.871
   87TIP3    H1  267   0.422   3.289   2.855
   87TIP3    H2  268   0.281   3.300   2.909
   88TIP3   OH2  269   2.009   1.130   3.340
   88TIP3    H1  270   2.025   1.222   3.362
   88TIP3    H2  271   1.914   1.125   3.325
   89TIP3   OH2  272   2.451   0.096   0.667
   89TIP3    H1  273   2.387   0.031   0.697
   89TIP3    H2  274   2.417   0.179   0.700
   90TIP3   OH2  275   5.887   5.492   2.161
   90TIP3    H1  276   5.923   5.558   2.101
   90TIP3    H2  277   5.809   5.532   2.197
   91TIP3   OH2  278   1.735   1.404   4.175
   91TIP3    H1  279   1.644   1.415   4.200
   91TIP3    H2  280   1.738   1.320   4.129
   92TIP3   OH2  281   3.142   0.325   4.861
   92TIP3    H1  282   3.049   0.346   4.864
   92TIP3    H2  283   3.166   0.331   4.769
   93TIP3   OH2  284   4.673   4.340   2.951
   93TIP3    H1  285   4.710   4.424   2.975
   93TIP3    H2  286   4.746   4.278   2.956
   94TIP3   OH2  287   5.222   4.009   2.069
   94TIP3    H1  288   5.250   3.917   2.071
   94TIP3    H2  289   5.227   4.034   1.977
   95TIP3   OH2  290   3.383   4.069   2.989
   95TIP3    H1  291   3.376   3.975   3.004
   95TIP3    H2  292   3.439   4.100   3.061
   96TIP3   OH2  293   1.427   5.631   1.255
   96TIP3    H1  294   1.400   5.552   1.303
   96TIP3    H2  295   1.487   5.675   1.315
   97TIP3   OH2  296   0.467   1.318   5.156
   97TIP3    H1  297   0.551   1.344   5.193
   97TIP3    H2  298   0.488   1.245   5.098
   98TIP3   OH2  299   0.958   1.647   3.916
   98TIP3    H1  300   0.974   1.628   4.008
   98TIP3    H2  301   0.960   1.561   3.873
   99TIP3   OH2  302   1.347   1.513   2.245
   99TIP3    H1  303   1.374   1.446   2.308
   99TIP3    H2  304   1.411   1.506   2.174
  100TIP3   OH2  305   6.228   3.858   3.841
  100TIP3    H1  306   6.174   3.903   3.776
  100TIP3    H2  307   6.289   3.806   3.789
  101TIP3   OH2  308   0.985   1.705   3.474
  101TIP3    H1  309   0.908   1.654   3.499
  101TIP3    H2  310   0.951   1.781   3.427
  102TIP3   OH2  311   0.975   4.900   0.320
  102TIP3    H1  312   1.028   4.979   0.307
  102TIP3    H2  313   0.935   4.884   0.234
  103TIP3   OH2  314   1.727   4.371   3.892
  103TIP3    H1  315   1.750   4.319   3.969
  103TIP3    H2  316   1.809   4.410   3.863
  104TIP3   OH2  317   4.079   0.428   1.175
  104TIP3    H1  318   3.986   0.405   1.180
  104TIP3    H2  319   4.113   0.407   1.262
  105TIP3   OH2  320   5.195   0.138   3.931
  105TIP3    H1  321   5.288   0.145   3.951
  105TIP3    H2  322   5.181   0.046   3.908
  106TIP3   OH2  323   6.151   2.966   3.645
  106TIP3    H1  324   6.061   2.994   3.631
  106TIP3    H2  325   6.192   3.039   3.691
  107TIP3   OH2  326   1.032   0.823   2.831
  107TIP3    H1  327   1.007   0.829   2.739
  107TIP3    H2  328   1.086   0.744   2.836
  108TIP3   OH2  329   1.043   2.369   3.398
  108TIP3    H1  330   1.014   2.458   3.376
  108TIP3    H2  331   1.137   2.370   3.377
  109TIP3   OH2  332   4.811   1.051   2.102
  109TIP3    H1  333   4.808   0.963   2.064
  109TIP3    H2  334   4.892   1.089   2.070
  110TIP3   OH2  335   4.196   0.618   3.445
  110TIP3    H1  336   4.273   0.671   3.427
  110TIP3    H2  337   4.229   0.528   3.453
  111TIP3   OH2  338   5.613   4.803   3.250
  111TIP3    H1  339   5.663   4.801   3.331
  111TIP3    H2  340   5.557   4.880   3.258
  112TIP3   OH2  341   5.285   3.720   1.527
  112TIP3    H1  342   5.357   3.688   1.472
  112TIP3    H2  343   5.208   3.674   1.494
  113TIP3   OH2  344   5.721   4.621   1.621
  113TIP3    H1  345   5.737   4.613   1.527
  113TIP3    H2  346   5.808   4.619   1.661
  114TIP3   OH2  347   5.964   1.233   4.176
  114TIP3    H1  348   5.912   1.192   4.245
  114TIP3    H2  349   5.906   1.238   4.101
  115TIP3   OH2  350   4.532   1.647   3.034
  115TIP3    H1  351   4.543   1.552   3.040
  115TIP3    H2  352   4.562   1.680   3.119
  116TIP3   OH2  353   3.188   2.324   2.266
  116TIP3    H1  354   3.191   2.244   2.214
  116TIP3    H2  355   3.279   2.339   2.291
  117TIP3   OH2  356   0.983   0.490   0.719
  117TIP3    H1  357   0.967   0.526   0.632
  117TIP3    H2  358   0.930   0.410   0.722
  118TIP3   OH2  359   3.628   5.087   3.718
  118TIP3    H1  360   3.532   5.091   3.727
  118TIP3    H2  361   3.645   4.997   3.691
  119TIP3   OH2  362   1.838   4.289   1.261
  119TIP3    H1  363   1.793   4.349   1.321
  119TIP3    H2  364   1.792   4.300   1.177
  120TIP3   OH2  365   5.242   2.726   4.550
  120TIP3    H1  366   5.289   2.676   4.616
  120TIP3    H2  367   5.288   2.810   4.547
  121TIP3   OH2  368   4.432   0.583   2.618
  121TIP3    H1  369   4.458   0.543   2.701
  121TIP3    H2  370   4.470   0.671   2.621
  122TIP3   OH2  371   0.300   4.296   4.663
  122TIP3    H1  372   0.334   4.212   4.631
  122TIP3    H2  373   0.333   4.303   4.752
  123TIP3   OH2  374   4.862   1.996   4.449
  123TIP3    H1  375   4.796   2.021   4.514
  123TIP3    H2  376   4.820   2.011   4.365
  124TIP3   OH2  377   3.649   5.532   1.794
  124TIP3    H1  378   3.688   5.463   1.741
  124TIP3    H2  379   3.634   5.604   1.733
  125TIP3   OH2  380   3.968   4.183   1.162
  125TIP3    H1  381   3.999   4.235   1.087
  125TIP3    H2  382   3.915   4.244   1.213
  126TIP3   OH2  383   6.332   4.837   2.441
  126TIP3    H1  384   6.275   4.819   2.366
  126TIP3    H2  385   6.302   4.778   2.510
  127TIP3   OH2  386   1.806   0.511   1.102
  127TIP3    H1  387   1.718   0.547   1.106
  127TIP3    H2  388   1.823   0.498   1.009
  128TIP3   OH2  389   2.866   5.072   1.855
  128TIP3    H1  390   2.955   5.076   1.891
  128TIP3    H2  391   2.841   4.980   1.860
  129TIP3   OH2  392   4.175   1.342   1.253
  129TIP3    H1  393   4.140   1.255   1.233
  129TIP3    H2  394   4.229   1.329   1.330
  130TIP3   OH2  395   5.280   3.169   5.111
  130TIP3    H1  396   5.276   3.235   5.041
  130TIP3    H2  397   5.190   3.137   5.118
  131TIP3   OH2  398   1.964   1.554   4.782
  131TIP3    H1  399   1.879   1.525   4.815
  131TIP3    H2  400   1.984   1.493   4.711
  132TIP3   OH2  401   4.302   2.148   0.558
  132TIP3    H1  402   4.296   2.081   0.626
  132TIP3    H2  403   4.218   2.194   0.562
  133TIP3   OH2  404   3.399   1.630   2.402
  133TIP3    H1  405   3.376   1.537   2.393
  133TIP3    H2  406   3.342   1.662   2.472
  134TIP3   OH2  407   3.134   1.920   4.414
  134TIP3    H1  408   3.203   1.985   4.399
  134TIP3    H2  409   3.139   1.900   4.507
  135TIP3   OH2  410   5.171   1.829   0.948
  135TIP3    H1  411   5.187   1.880   0.870
  135TIP3    H2  412   5.146   1.893   1.015
  136TIP3   OH2  413   6.281   2.813   4.377
  136TIP3    H1  414   6.269   2.908   4.371
  136TIP3    H2  415   6.248   2.790   4.464
  137TIP3   OH2  416   2.315   4.457   5.084
  137TIP3    H1  417   2.304   4.368   5.117
  137TIP3    H2  418   2.398   4.455   5.037
  138TIP3   OH2  419   4.094   4.930   4.774
  138TIP3    H1  420   4.139   4.976   4.844
  138TIP3    H2  421   4.001   4.933   4.797
  139TIP3   OH2  422   5.587   0.640   1.658
  139TIP3    H1  423   5.623   0.611   1.742
  139TIP3    H2  424   5.563   0.558   1.614
  140TIP3   OH2  425   5.680   1.968   3.163
  140TIP3    H1  426   5.641   1.941   3.080
  140TIP3    H2  427   5.627   1.925   3.229
  141TIP3   OH2  428   3.020   5.914   2.961
  141TIP3    H1  429   2.982   5.885   2.878
  141TIP3    H2  430   3.032   6.009   2.950
  142TIP3   OH2  431   4.857   4.639   2.874
  142TIP3    H1  432   4.930   4.664   2.931
  142TIP3    H2  433   4.893   4.569   2.820
  143TIP3   OH2  434   6.125   1.947   1.931
  143TIP3    H1  435   6.199   1.899   1.892
  143TIP3    H2  436   6.103   2.014   1.866
  144TIP3   OH2  437   2.007   5.589   3.167
  144TIP3    H1  438   2.089   5.543   3.178
  144TIP3    H2  439   1.944   5.521   3.142
  145TIP3   OH2  440   5.131   4.962   1.028
  145TIP3    H1  441   5.105   4.871   1.042
  145TIP3    H2  442   5.226   4.962   1.035
  146TIP3   OH2  443   2.854   4.499   5.168
  146TIP3    H1  444   2.899   4.432   5.117
  146TIP3    H2  445   2.850   4.575   5.111
  147TIP3   OH2  446   5.147   3.078   1.626
  147TIP3    H1  447   5.186   3.008   1.678
  147TIP3    H2  448   5.060   3.045   1.604
  148TIP3   OH2  449   0.379   2.824   1.873
  148TIP3    H1  450   0.307   2.799   1.931
  148TIP3    H2  451   0.393   2.917   1.891
  149TIP3   OH2  452   2.187   3.052   3.668
  149TIP3    H1  453   2.227   3.136   3.689
  149TIP3    H2  454   2.224   2.990   3.731
  150TIP3   OH2  455   6.268   0.820   2.911
  150TIP3    H1  456   6.354   0.856   2.891
  150TIP3    H2  457   6.244   0.860   2.994
  151TIP3   OH2  458   5.097   1.719   2.210
  151TIP3    H1  459   5.166   1.753   2.153
  151TIP3    H2  460   5.021   1.710   2.152
  152TIP3   OH2  461   0.851   1.847   0.238
  152TIP3    H1  462   0.937   1.849   0.279
  152TIP3    H2  463   0.822   1.757   0.246
  153TIP3   OH2  464   1.026   1.339   3.316
  153TIP3    H1  465   1.003   1.432   3.308
  153TIP3    H2  466   1.118   1.335   3.293
  154TIP3   OH2  467   0.296   4.134   2.723
  154TIP3    H1  468   0.206   4.152   2.751
  154TIP3    H2  469   0.330   4.219   2.694
  155TIP3   OH2  470   2.358   3.384   0.601
  155TIP3    H1  471   2.393   3.387   0.512
  155TIP3    H2  472   2.351   3.475   0.627
  156TIP3   OH2  473   0.531   2.608   3.397
  156TIP3    H1  474   0.595   2.675   3.373
  156TIP3    H2  475   0.543   2.596   3.492
  157TIP3   OH2  476   1.893   3.511   0.949
  157TIP3    H1  477   1.925   3.463   0.873
  157TIP3    H2  478   1.869   3.443   1.012
  158TIP3   OH2  479   0.804   3.251   0.233
  158TIP3    H1  480   0.823   3.248   0.139
  158TIP3    H2  481   0.771   3.163   0.254
  159TIP3   OH2  482   5.628   2.252   4.430
  159TIP3    H1  483   5.568   2.270   4.358
  159TIP3    H2  484   5.680   2.177   4.401
  160TIP3   OH2  485   5.278   5.915   0.961
  160TIP3    H1  486   5.310   5.831   0.928
  160TIP3    H2  487   5.294   5.976   0.889
  161TIP3   OH2  488   4.497   0.053   2.513
  161TIP3    H1  489   4.561   0.125   2.520
  161TIP3    H2  490   4.539  -0.011   2.455
  162TIP3   OH2  491   1.581   3.427   2.524
  162TIP3    H1  492   1.616   3.370   2.592
  162TIP3    H2  493   1.642   3.501   2.521
  163TIP3   OH2  494   2.717   0.534   2.577
  163TIP3    H1  495   2.649   0.570   2.635
  163TIP3    H2  496   2.743   0.609   2.523
  164TIP3   OH2  497   4.784   0.849   2.347
  164TIP3    H1  498   4.855   0.785   2.343
  164TIP3    H2  499   4.740   0.842   2.262
  165TIP3   OH2  500   5.379   5.045   5.069
  165TIP3    H1  501   5.330   5.127   5.063
  165TIP3    H2  502   5.435   5.045   4.991
  166TIP3   OH2  503   1.000   5.781   4.729
  166TIP3    H1  504   1.018   5.866   4.690
  166TIP3    H2  505   0.935   5.799   4.797
  167TIP3   OH2  506   1.377   1.616   5.111
  167TIP3    H1  507   1.288   1.619   5.145
  167TIP3    H2  508   1.372   1.557   5.035
  168TIP3   OH2  509   0.896   1.918   4.672
  168TIP3    H1  510   0.866   1.828   4.678
  168TIP3    H2  511   0.974   1.922   4.727
  169TIP3   OH2  512   4.022   0.806   2.155
  169TIP3    H1  513   3.986   0.760   2.231
  169TIP3    H2  514   3.992   0.896   2.165
  170TIP3   OH2  515   5.615   1.624   2.872
  170TIP3    H1  516   5.604   1.607   2.779
  170TIP3    H2  517   5.603   1.539   2.914
  171TIP3   OH2  518   3.831   5.349   0.383
  171TIP3    H1  519   3.804   5.276   0.327
  171TIP3    H2  520   3.791   5.330   0.468
  172TIP3   OH2  521   2.298   4.781   2.763
  172TIP3    H1  522   2.247   4.746   2.691
  172TIP3    H2  523   2.280   4.875   2.762
  173TIP3   OH2  524   2.408   1.724   0.693
  173TIP3    H1  525   2.440   1.635   0.688
  173TIP3    H2  526   2.339   1.721   0.759
  174TIP3   OH2  527   5.842   1.774   2.023
  174TIP3    H1  528   5.894   1.699   2.053
  174TIP3    H2  529   5.765   1.735   1.983
  175TIP3   OH2  530   6.240   2.160   0.599
  175TIP3    H1  531   6.248   2.154   0.695
  175TIP3    H2  532   6.326   2.135   0.566
  176TIP3   OH2  533   5.308   2.867   2.011
  176TIP3    H1  534   5.404   2.876   2.008
  176TIP3    H2  535   5.281   2.927   2.081
  177TIP3   OH2  536   5.566   5.662   0.294
  177TIP3    H1  537   5.512   5.597   0.249
  177TIP3    H2  538   5.503   5.716   0.342
  178TIP3   OH2  539   1.560   3.023   2.736
  178TIP3    H1  540   1.511   3.010   2.818
  178TIP3    H2  541   1.619   2.948   2.732
  179TIP3   OH2  542   6.284   1.165   1.648
  179TIP3    H1  543   6.254   1.194   1.734
  179TIP3    H2  544   6.342   1.234   1.618
  180TIP3   OH2  545   0.581   4.012   3.225
  180TIP3    H1  546   0.506   3.982   3.276
  180TIP3    H2  547   0.653   4.015   3.289
  181TIP3   OH2  548   5.250   2.037   4.769
  181TIP3    H1  549   5.155   2.026   4.767
  181TIP3    H2  550   5.266   2.117   4.719
  182TIP3   OH2  551   1.589   1.938   4.989
  182TIP3    H1  552   1.522   1.970   5.050
  182TIP3    H2  553   1.667   1.989   5.012
  183TIP3   OH2  554   0.068   0.421   0.425
  183TIP3    H1  555   0.144   0.456   0.378
  183TIP3    H2  556   0.074   0.460   0.512
  184TIP3   OH2  557   4.260   5.376   1.526
  184TIP3    H1  558   4.259   5.323   1.606
  184TIP3    H2  559   4.308   5.323   1.463
  185TIP3   OH2  560   0.671   0.737   4.806
  185TIP3    H1  561   0.722   0.818   4.811
  185TIP3    H2  562   0.618   0.738   4.886
  186TIP3   OH2  563   5.207   2.874   3.273
  186TIP3    H1  564   5.293   2.857   3.312
  186TIP3    H2  565   5.182   2.960   3.308
  187TIP3   OH2  566   0.557   1.170   1.513
  187TIP3    H1  567   0.642   1.140   1.481
  187TIP3    H2  568   0.546   1.257   1.474
  188TIP3   OH2  569   3.697   0.467   0.118
  188TIP3    H1  570   3.685   0.550   0.165
  188TIP3    H2  571   3.629   0.468   0.051
  189TIP3   OH2  572   5.679   5.465   3.415
  189TIP3    H1  573   5.761   5.481   3.369
  189TIP3    H2  574   5.616   5.446   3.346
  190TIP3   OH2  575   5.510   2.009   1.987
  190TIP3    H1  576   5.563   2.048   1.917
  190TIP3    H2  577   5.466   2.083   2.028
  191TIP3   OH2  578   2.047   3.523   0.307
  191TIP3    H1  579   1.962   3.542   0.349
  191TIP3    H2  580   2.099   3.602   0.324
  192TIP3   OH2  581   2.333   0.841   2.716
  192TIP3    H1  582   2.305   0.823   2.626
  192TIP3    H2  583   2.252   0.846   2.766
  193TIP3   OH2  584   4.815   4.744   4.568
  193TIP3    H1  585   4.822   4.800   4.645
  193TIP3    H2  586   4.722   4.722   4.563
  194TIP3   OH2  587   6.206   1.164   4.024
  194TIP3    H1  588   6.224   1.082   4.071
  194TIP3    H2  589   6.133   1.203   4.072
  195TIP3   OH2  590   3.113   1.878   0.064
  195TIP3    H1  591   3.033   1.917   0.098
  195TIP3    H2  592   3.152   1.948   0.010
  196TIP3   OH2  593   4.672   0.494   2.044
  196TIP3    H1  594   4.617   0.438   2.099
  196TIP3    H2  595   4.628   0.494   1.959
  197TIP3   OH2  596   4.109   4.761   1.798
  197TIP3    H1  597   4.149   4.839   1.837
  197TIP3    H2  598   4.093   4.784   1.707
  198TIP3   OH2  599   6.199   0.876   2.045
  198TIP3    H1  600   6.188   0.800   1.987
  198TIP3    H2  601   6.287   0.909   2.025
  199TIP3   OH2  602   4.897   4.467   0.788
  199TIP3    H1  603   4.816   4.448   0.740
  199TIP3    H2  604   4.868   4.483   0.878
  200TIP3   OH2  605   0.046   3.370   1.637
  200TIP3    H1  606   0.005   3.338   1.557
  200TIP3    H2  607   0.122   3.312   1.649
  201TIP3   OH2  608   5.573   3.829   4.438
  201TIP3    H1  609   5.619   3.745   4.437
  201TIP3    H2  610   5.607   3.874   4.515
  202TIP3   OH2  611   1.727   4.583   3.578
  202TIP3    H1  612   1.669   4.654   3.551
  202TIP3    H2  613   1.805   4.593   3.524
  203TIP3   OH2  614   4.379   4.136   5.136
  203TIP3    H1  615   4.438   4.201   5.172
  203TIP3    H2  616   4.367   4.072   5.206
  204TIP3   OH2  617   0.396   5.057   3.269
  204TIP3    H1  618   0.364   4.968   3.282
  204TIP3    H2  619   0.491   5.050   3.277
  205TIP3   OH2  620   5.970   0.953   0.765
  205TIP3    H1  621   5.962   1.037   0.810
  205TIP3    H2  622   5.933   0.968   0.678
  206TIP3   OH2  623   6.004   4.608   0.911
  206TIP3    H1  624   5.998   4.533   0.851
  206TIP3    H2  625   6.060   4.671   0.866
  207TIP3   OH2  626   1.951   0.544   5.053
  207TIP3    H1  627   2.020   0.587   5.002
  207TIP3    H2  628   1.883   0.525   4.989
  208TIP3   OH2  629   2.842   2.224   5.150
  208TIP3    H1  630   2.769   2.251   5.093
  208TIP3    H2  631   2.836   2.129   5.153
  209TIP3   OH2  632   1.889   5.694   1.178
  209TIP3    H1  633   1.966   5.679   1.122
  209TIP3    H2  634   1.879   5.789   1.179
  210TIP3   OH2  635   3.025   0.728   2.087
  210TIP3    H1  636   3.053   0.789   2.155
  210TIP3    H2  637   2.994   0.783   2.015
  211TIP3   OH2  638   4.395   3.578   1.140
  211TIP3    H1  639   4.303   3.551   1.139
  211TIP3    H2  640   4.443   3.500   1.111
  212TIP3   OH2  641   2.571   4.754   2.023
  212TIP3    H1  642   2.582   4.660   2.006
  212TIP3    H2  643   2.652   4.781   2.065
  213TIP3   OH2  644   6.121   4.936   4.655
  213TIP3    H1  645   6.132   5.003   4.587
  213TIP3    H2  646   6.172   4.862   4.624
  214TIP3   OH2  647   0.129   1.129   0.931
  214TIP3    H1  648   0.173   1.101   1.011
  214TIP3    H2  649   0.183   1.201   0.898
  215TIP3   OH2  650   0.889   5.125   0.705
  215TIP3    H1  651   0.838   5.049   0.680
  215TIP3    H2  652   0.934   5.151   0.625
  216TIP3   OH2  653   5.658   3.409   2.178
  216TIP3    H1  654   5.644   3.345   2.108
  216TIP3    H2  655   5.693   3.358   2.251
  217TIP3   OH2  656   2.470   2.557   1.060
  217TIP3    H1  657   2.390   2.572   1.110
  217TIP3    H2  658   2.446   2.576   0.970
  218TIP3   OH2  659   3.451   2.353   3.880
  218TIP3    H1  660   3.439   2.344   3.975
  218TIP3    H2  661   3.536   2.311   3.863
  219TIP3   OH2  662   2.002   1.149   4.866
  219TIP3    H1  663   2.082   1.200   4.852
  219TIP3    H2  664   2.033   1.058   4.869
  220TIP3   OH2  665   5.969   2.396   4.430
  220TIP3    H1  666   5.942   2.370   4.518
  220TIP3    H2  667   5.989   2.313   4.386
  221TIP3   OH2  668   2.293   1.290   4.887
  221TIP3    H1  669   2.323   1.203   4.858
  221TIP3    H2  670   2.312   1.347   4.813
  222TIP3   OH2  671   3.968   1.649   2.946
  222TIP3    H1  672   4.063   1.649   2.953
  222TIP3    H2  673   3.943   1.557   2.950
  223TIP3   OH2  674   0.838   5.052   3.027
  223TIP3    H1  675   0.810   5.144   3.021
  223TIP3    H2  676   0.823   5.016   2.940
  224TIP3   OH2  677   2.701   3.636   0.994
  224TIP3    H1  678   2.729   3.684   0.916
  224TIP3    H2  679   2.606   3.629   0.986
  225TIP3   OH2  680   3.185   4.024   0.667
  225TIP3    H1  681   3.213   4.107   0.628
  225TIP3    H2  682   3.254   4.003   0.730
  226TIP3   OH2  683   5.252   4.435   3.099
  226TIP3    H1  684   5.333   4.467   3.139
  226TIP3    H2  685   5.240   4.348   3.135
  227TIP3   OH2  686   1.931   1.683   3.457
  227TIP3    H1  687   1.865   1.753   3.455
  227TIP3    H2  688   1.954   1.670   3.365
  228TIP3   OH2  689   3.380   5.413   1.485
  228TIP3    H1  690   3.352   5.477   1.419
  228TIP3    H2  691   3.298   5.376   1.519
  229TIP3   OH2  692   2.986   2.989   3.707
  229TIP3    H1  693   3.008   2.951   3.792
  229TIP3    H2  694   3.030   2.933   3.643
  230TIP3   OH2  695   1.030   0.639   1.453
  230TIP3    H1  696   1.038   0.677   1.541
  230TIP3    H2  697   0.996   0.710   1.399
  231TIP3   OH2  698   4.019   4.924   0.528
  231TIP3    H1  699   3.993   4.887   0.613
  231TIP3    H2  700   4.033   5.017   0.546
  232TIP3   OH2  701   3.018   4.381   3.351
  232TIP3    H1  702   3.103   4.404   3.313
  232TIP3    H2  703   3.035   4.377   3.445
  233TIP3   OH2  704   5.790   2.747   4.982
  233TIP3    H1  705   5.805   2.698   4.901
  233TIP3    H2  706   5.867   2.726   5.036
  234TIP3   OH2  707   5.605   1.206   3.643
  234TIP3    H1  708   5.536   1.250   3.693
  234TIP3    H2  709   5.637   1.138   3.702
  235TIP3   OH2  710   5.330   3.462   3.187
  235TIP3    H1  711   5.359   3.551   3.205
  235TIP3    H2  712   5.235   3.465   3.199
  236TIP3   OH2  713   3.199   5.578   2.502
  236TIP3    H1  714   3.151   5.624   2.433
  236TIP3    H2  715   3.209   5.643   2.571
  237TIP3   OH2  716   2.460   5.216   1.822
  237TIP3    H1  717   2.436   5.181   1.908
  237TIP3    H2  718   2.420   5.303   1.820
  238TIP3   OH2  719   4.862   3.969   3.444
  238TIP3    H1  720   4.863   3.879   3.478
  238TIP3    H2  721   4.791   3.969   3.380
  239TIP3   OH2  722   3.690   1.389   1.502
  239TIP3    H1  723   3.647   1.409   1.586
  239TIP3    H2  724   3.673   1.295   1.489
  240TIP3   OH2  725   3.803   5.369   4.697
  240TIP3    H1  726   3.835   5.452   4.731
  240TIP3    H2  727   3.752   5.332   4.769
  241TIP3   OH2  728   2.087   4.455   3.052
  241TIP3    H1  729   2.134   4.534   3.079
  241TIP3    H2  730   2.147   4.411   2.991
  242TIP3   OH2  731   2.115   3.522   1.539
  242TIP3    H1  732   2.148   3.542   1.627
  242TIP3    H2  733   2.176   3.566   1.480
  243TIP3   OH2  734   3.869   5.912   2.188
  243TIP3    H1  735   3.933   5.908   2.117
  243TIP3    H2  736   3.785   5.920   2.144
  244TIP3   OH2  737   3.388   1.732   4.304
  244TIP3    H1  738   3.466   1.704   4.256
  244TIP3    H2  739   3.379   1.825   4.284
  245TIP3   OH2  740   3.580   3.041   2.252
  245TIP3    H1  741   3.534   2.977   2.306
  245TIP3    H2  742   3.522   3.117   2.250
  246TIP3   OH2  743   4.533   0.291   1.228
  246TIP3    H1  744   4.502   0.201   1.236
  246TIP3    H2  745   4.628   0.285   1.234
  247TIP3   OH2  746   3.796   3.961   2.153
  247TIP3    H1  747   3.824   3.876   2.189
  247TIP3    H2  748   3.836   3.964   2.066
  248TIP3   OH2  749   2.687   2.814   0.979
  248TIP3    H1  750   2.622   2.852   1.039
  248TIP3    H2  751   2.751   2.772   1.037
  249TIP3   OH2  752   1.955   1.874   4.649
  249TIP3    H1  753   2.038   1.835   4.676
  249TIP3    H2  754   1.947   1.852   4.557
  250TIP3   OH2  755   3.734   5.550   1.001
  250TIP3    H1  756   3.677   5.484   0.962
  250TIP3    H2  757   3.688   5.632   0.988
  251TIP3   OH2  758   4.183   1.647   1.345
  251TIP3    H1  759   4.210   1.642   1.254
  251TIP3    H2  760   4.100   1.599   1.348
  252TIP3   OH2  761   6.027   5.833   4.241
  252TIP3    H1  762   6.087   5.764   4.215
  252TIP3    H2  763   6.049   5.852   4.332
  253TIP3   OH2  764   0.068   3.473   1.331
  253TIP3    H1  765   0.115   3.481   1.247
  253TIP3    H2  766   0.130   3.507   1.396
  254TIP3   OH2  767   3.495   0.299   0.483
  254TIP3    H1  768   3.561   0.243   0.443
  254TIP3    H2  769   3.541   0.343   0.554
  255TIP3   OH2  770   4.038   2.457   4.448
  255TIP3    H1  771   4.069   2.541   4.481
  255TIP3    H2  772   4.117   2.405   4.435
  256TIP3   OH2  773   4.278   5.729   3.773
  256TIP3    H1  774   4.302   5.789   3.702
  256TIP3    H2  775   4.335   5.653   3.761
  257TIP3   OH2  776   6.213   2.263   2.717
  257TIP3    H1  777   6.223   2.358   2.708
  257TIP3    H2  778   6.225   2.229   2.628
  258TIP3   OH2  779   0.130   0.928   4.491
  258TIP3    H1  780   0.092   0.991   4.429
  258TIP3    H2  781   0.173   0.982   4.557
  259TIP3   OH2  782   1.591   2.459   1.953
  259TIP3    H1  783   1.507   2.472   1.909
  259TIP3    H2  784   1.569   2.455   2.046
  260TIP3   OH2  785   5.868   0.033   1.772
  260TIP3    H1  786   5.841   0.084   1.696
  260TIP3    H2  787   5.962   0.050   1.781
  261TIP3   OH2  788   1.456   4.180   3.412
  261TIP3    H1  789   1.476   4.087   3.419
  261TIP3    H2  790   1.533   4.225   3.449
  262TIP3   OH2  791   4.964   3.210   3.931
  262TIP3    H1  792   5.032   3.219   3.998
  262TIP3    H2  793   4.886   3.184   3.980
  263TIP3   OH2  794   4.901   4.193   2.908
  263TIP3    H1  795   4.930   4.128   2.971
  263TIP3    H2  796   4.975   4.254   2.901
  264TIP3   OH2  797   1.914   1.489   4.370
  264TIP3    H1  798   1.844   1.484   4.305
  264TIP3    H2  799   1.936   1.398   4.388
  265TIP3   OH2  800   0.685   0.923   4.436
  265TIP3    H1  801   0.635   0.933   4.355
  265TIP3    H2  802   0.627   0.958   4.504
  266TIP3   OH2  803   1.789   0.797   0.092
  266TIP3    H1  804   1.799   0.798  -0.003
  266TIP3    H2  805   1.726   0.726   0.109
  267TIP3   OH2  806   1.764   5.588   1.533
  267TIP3    H1  807   1.819   5.637   1.594
  267TIP3    H2  808   1.686   5.642   1.521
  268TIP3   OH2  809   1.356   1.177   1.553
  268TIP3    H1  810   1.417   1.243   1.520
  268TIP3    H2  811   1.314   1.219   1.628
  269TIP3   OH2  812   5.725   1.131   4.303
  269TIP3    H1  813   5.663   1.177   4.247
  269TIP3    H2  814   5.711   1.168   4.390
  270TIP3   OH2  815   0.437   0.047   1.112
  270TIP3    H1  816   0.358   0.069   1.160
  270TIP3    H2  817   0.455   0.124   1.058
  271TIP3   OH2  818   1.447   2.987   5.025
  271TIP3    H1  819   1.410   3.075   5.022
  271TIP3    H2  820   1.532   2.998   5.068
  272TIP3   OH2  821   1.499   3.007   3.232
  272TIP3    H1  822   1.519   3.077   3.294
  272TIP3    H2  823   1.421   3.037   3.186
  273TIP3   OH2  824   0.530   5.445   1.033
  273TIP3    H1  825   0.600   5.380   1.042
  273TIP3    H2  826   0.563   5.506   0.967
  274TIP3   OH2  827   0.541   0.649   3.342
  274TIP3    H1  828   0.560   0.561   3.310
  274TIP3    H2  829   0.583   0.707   3.278
  275TIP3   OH2  830   2.496   5.768   3.194
  275TIP3    H1  831   2.467   5.678   3.208
  275TIP3    H2  832   2.417   5.820   3.206
  276TIP3   OH2  833   2.654   1.425   0.173
  276TIP3    H1  834   2.686   1.377   0.097
  276TIP3    H2  835   2.733   1.446   0.223
  277TIP3   OH2  836   5.758   2.849   3.763
  277TIP3    H1  837   5.758   2.888   3.850
  277TIP3    H2  838   5.768   2.755   3.779
  278TIP3   OH2  839   0.617   1.448   0.864
  278TIP3    H1  840   0.535   1.495   0.881
  278TIP3    H2  841   0.686   1.511   0.886
  279TIP3   OH2  842   6.282   1.507   1.741
  279TIP3    H1  843   6.283   1.438   1.807
  279TIP3    H2  844   6.339   1.475   1.671
  280TIP3   OH2  845   0.913   0.853   1.335
  280TIP3    H1  846   0.856   0.920   1.373
  280TIP3    H2  847   0.976   0.902   1.281
  281TIP3   OH2  848   4.344   2.490   0.473
  281TIP3    H1  849   4.402   2.563   0.450
  281TIP3    H2  850   4.403   2.420   0.499
  282TIP3   OH2  851   1.255   2.816   4.764
  282TIP3    H1  852   1.169   2.796   4.801
  282TIP3    H2  853   1.314   2.754   4.807
  283TIP3   OH2  854   1.778   2.798   4.936
  283TIP3    H1  855   1.709   2.744   4.899
  283TIP3    H2  856   1.801   2.859   4.866
  284TIP3   OH2  857   1.546   1.456   2.035
  284TIP3    H1  858   1.593   1.394   2.091
  284TIP3    H2  859   1.608   1.528   2.022
  285TIP3   OH2  860   4.434   3.744   1.611
  285TIP3    H1  861   4.516   3.793   1.607
  285TIP3    H2  862   4.446   3.671   1.551
  286TIP3   OH2  863   2.948   1.670   2.651
  286TIP3    H1  864   2.895   1.727   2.595
  286TIP3    H2  865   2.889   1.598   2.675
  287TIP3   OH2  866   6.009   4.863   3.236
  287TIP3    H1  867   5.940   4.840   3.298
  287TIP3    H2  868   5.963   4.888   3.156
  288TIP3   OH2  869   5.955   1.739   3.313
  288TIP3    H1  870   5.970   1.825   3.353
  288TIP3    H2  871   5.886   1.699   3.366
  289TIP3   OH2  872   2.424   3.896   0.227
  289TIP3    H1  873   2.512   3.888   0.188
  289TIP3    H2  874   2.384   3.968   0.178
  290TIP3   OH2  875   3.671   2.546   2.492
  290TIP3    H1  876   3.663   2.527   2.585
  290TIP3    H2  877   3.705   2.635   2.488
  291TIP3   OH2  878   0.423   5.565   2.068
  291TIP3    H1  879   0.478   5.606   2.002
  291TIP3    H2  880   0.475   5.493   2.102
  292TIP3   OH2  881   0.702   2.400   0.441
  292TIP3    H1  882   0.655   2.481   0.462
  292TIP3    H2  883   0.790   2.428   0.418
  293TIP3   OH2  884   3.745   1.626   0.329
  293TIP3    H1  885   3.829   1.585   0.348
  293TIP3    H2  886   3.749   1.710   0.374
  294TIP3   OH2  887   5.262   1.551   3.342
  294TIP3    H1  888   5.210   1.631   3.343
  294TIP3    H2  889   5.200   1.482   3.320
  295TIP3   OH2  890   4.273   5.165   0.352
  295TIP3    H1  891   4.346   5.112   0.383
  295TIP3    H2  892   4.294   5.184   0.260
  296TIP3   OH2  893   2.019   5.184   2.708
  296TIP3    H1  894   1.968   5.184   2.627
  296TIP3    H2  895   2.009   5.273   2.742
  297TIP3   OH2  896   4.998   5.210   4.062
  297TIP3    H1  897   5.005   5.122   4.025
  297TIP3    H2  898   4.994   5.268   3.986
  298TIP3   OH2  899   2.361   4.530   3.705
  298TIP3    H1  900   2.314   4.453   3.734
  298TIP3    H2  901   2.298   4.602   3.713
  299TIP3   OH2  902   2.144   4.740   0.899
  299TIP3    H1  903   2.216   4.684   0.873
  299TIP3    H2  904   2.173   4.829   0.877
  300TIP3   OH2  905   2.755   5.421   1.083
  300TIP3    H1  906   2.674   5.400   1.130
  300TIP3    H2  907   2.730   5.422   0.991
  301TIP3   OH2  908   2.031   1.238   4.377
  301TIP3    H1  909   1.981   1.171   4.330
  301TIP3    H2  910   2.113   1.245   4.328
  302TIP3   OH2  911   5.579   1.486   1.968
  302TIP3    H1  912   5.563   1.580   1.956
  302TIP3    H2  913   5.492   1.447   1.975
  303TIP3   OH2  914   5.745   0.369   0.170
  303TIP3    H1  915   5.802   0.369   0.093
  303TIP3    H2  916   5.671   0.425   0.146
  304TIP3   OH2  917   1.975   0.345   2.969
  304TIP3    H1  918   2.048   0.390   2.928
  304TIP3    H2  919   1.920   0.316   2.895
  305TIP3   OH2  920   0.639   0.308   1.342
  305TIP3    H1  921   0.708   0.375   1.342
  305TIP3    H2  922   0.674   0.238   1.397
  306TIP3   OH2  923   2.159   0.269   2.086
  306TIP3    H1  924   2.127   0.281   2.176
  306TIP3    H2  925   2.239   0.321   2.082
  307TIP3   OH2  926   3.225   1.025   4.746
  307TIP3    H1  927   3.249   1.112   4.777
  307TIP3    H2  928   3.178   0.985   4.820
  308TIP3   OH2  929   3.569   5.695   3.949
  308TIP3    H1  930   3.476   5.672   3.955
  308TIP3    H2  931   3.598   5.702   4.040
  309TIP3   OH2  932   3.027   5.912   1.248
  309TIP3    H1  933   3.031   5.823   1.283
  309TIP3    H2  934   2.951   5.951   1.290
  310TIP3   OH2  935   5.685   5.445   4.380
  310TIP3    H1  936   5.690   5.415   4.471
  310TIP3    H2  937   5.769   5.487   4.364
  311TIP3   OH2  938   5.530   0.901   2.774
  311TIP3    H1  939   5.611   0.918   2.823
  311TIP3    H2  940   5.558   0.845   2.702
  312TIP3   OH2  941   1.640   3.932   3.839
  312TIP3    H1  942   1.648   3.846   3.881
  312TIP3    H2  943   1.702   3.930   3.767
  313TIP3   OH2  944   5.096   2.990   1.898
  313TIP3    H1  945   5.147   3.070   1.887
  313TIP3    H2  946   5.159   2.927   1.933
  314TIP3   OH2  947   4.398   5.809   3.374
  314TIP3    H1  948   4.435   5.894   3.351
  314TIP3    H2  949   4.469   5.746   3.357
  315TIP3   OH2  950   3.765  -0.011   3.625
  315TIP3    H1  951   3.829   0.046   3.582
  315TIP3    H2  952   3.699   0.049   3.659
  316TIP3   OH2  953   4.317   4.666   1.064
  316TIP3    H1  954   4.297   4.573   1.073
  316TIP3    H2  955   4.345   4.675   0.973
  317TIP3   OH2  956   0.942   3.927   3.613
  317TIP3    H1  957   0.891   3.846   3.626
  317TIP3    H2  958   0.984   3.943   3.698
  318TIP3   OH2  959   2.807   5.560   2.903
  318TIP3    H1  960   2.838   5.633   2.851
  318TIP3    H2  961   2.808   5.485   2.843
  319TIP3   OH2  962   3.384   4.785   2.709
  319TIP3    H1  963   3.341   4.737   2.638
  319TIP3    H2  964   3.363   4.877   2.693
  320TIP3   OH2  965   3.030   3.210   0.652
  320TIP3    H1  966   2.943   3.201   0.614
  320TIP3    H2  967   3.053   3.302   0.638
  321TIP3   OH2  968   3.217   4.545   5.164
  321TIP3    H1  969   3.203   4.595   5.084
  321TIP3    H2  970   3.302   4.575   5.196
  322TIP3   OH2  971   5.579   2.904   3.574
  322TIP3    H1  972   5.630   2.873   3.649
  322TIP3    H2  973   5.491   2.917   3.609
  323TIP3   OH2  974   4.475   1.548   2.248
  323TIP3    H1  975   4.531   1.623   2.226
  323TIP3    H2  976   4.427   1.530   2.167
  324TIP3   OH2  977   4.821   1.542   1.785
  324TIP3    H1  978   4.801   1.457   1.745
  324TIP3    H2  979   4.761   1.603   1.742
  325TIP3   OH2  980   4.795   3.654   1.205
  325TIP3    H1  981   4.777   3.675   1.297
  325TIP3    H2  982   4.861   3.718   1.178
  326TIP3   OH2  983   3.595   1.666   2.604
  326TIP3    H1  984   3.545   1.734   2.649
  326TIP3    H2  985   3.541   1.643   2.528
  327TIP3   OH2  986   4.654   4.644   0.459
  327TIP3    H1  987   4.704   4.700   0.518
  327TIP3    H2  988   4.616   4.704   0.395
  328TIP3   OH2  989   5.069   2.179   0.940
  328TIP3    H1  990   5.097   2.132   1.018
  328TIP3    H2  991   4.992   2.131   0.909
  329TIP3   OH2  992   4.949   4.701   5.176
  329TIP3    H1  993   5.022   4.715   5.236
  329TIP3    H2  994   4.940   4.785   5.130
  330TIP3   OH2  995   3.930   2.231   4.531
  330TIP3    H1  996   3.968   2.151   4.495
  330TIP3    H2  997   3.971   2.301   4.481
  331TIP3   OH2  998   2.687   2.277   3.709
  331TIP3    H1  999   2.682   2.285   3.614
  331TIP3    H2 1000   2.600   2.247   3.736
  332TIP3   OH2 1001   1.655   2.431   1.153
  332TIP3    H1 1002   1.745   2.410   1.177
  332TIP3    H2 1003   1.638   2.377   1.076
  333TIP3   OH2 1004   3.466   2.158   2.240
  333TIP3    H1 1005   3.408   2.084   2.223
  333TIP3    H2 1006   3.553   2.128   2.211
  334TIP3   OH2 1007   5.795   4.680   0.584
  334TIP3    H1 1008   5.808   4.634   0.667
  334TIP3    H2 1009   5.775   4.610   0.521
  335TIP3   OH2 1010   1.534   1.721   4.388
  335TIP3    H1 1011   1.587   1.725   4.467
  335TIP3    H2 1012   1.591   1.755   4.319
  336TIP3   OH2 1013   4.266   0.197   2.486
  336TIP3    H1 1014   4.339   0.137   2.501
  336TIP3    H2 1015   4.301   0.263   2.427
  337TIP3   OH2 1016   0.405   3.532   1.059
  337TIP3    H1 1017   0.311   3.523   1.046
  337TIP3    H2 1018   0.444   3.488   0.983
  338TIP3   OH2 1019   5.271   2.300   4.585
  338TIP3    H1 1020   5.250   2.320   4.494
  338TIP3    H2 1021   5.191   2.260   4.620
  339TIP3   OH2 1022   3.676   1.514   3.726
  339TIP3    H1 1023   3.639   1.585   3.778
  339TIP3    H2 1024   3.608   1.447   3.725
  340TIP3   OH2 1025   2.162   4.431   4.565
  340TIP3    H1 1026   2.227   4.410   4.632
  340TIP3    H2 1027   2.122   4.512   4.595
  341TIP3   OH2 1028   3.478   1.255   2.785
  341TIP3    H1 1029   3.528   1.185   2.827
  341TIP3    H2 1030   3.543   1.321   2.761
  342TIP3   OH2 1031   5.413   3.827   4.980
  342TIP3    H1 1032   5.335   3.795   5.025
  342TIP3    H2 1033   5.486   3.796   5.034
  343TIP3   OH2 1034   0.120   4.588   2.248
  343TIP3    H1 1035   0.129   4.515   2.310
  343TIP3    H2 1036   0.026   4.588   2.226
  344TIP3   OH2 1037   0.888   5.904   1.316
  344TIP3    H1 1038   0.883   5.999   1.306
  344TIP3    H2 1039   0.798   5.874   1.307
  345TIP3   OH2 1040   0.974   5.663   4.197
  345TIP3    H1 1041   0.966   5.734   4.134
  345TIP3    H2 1042   0.884   5.630   4.207
  346TIP3   OH2 1043   4.785   0.440   4.170
  346TIP3    H1 1044   4.838   0.419   4.247
  346TIP3    H2 1045   4.755   0.530   4.184
  347TIP3   OH2 1046   6.094   2.069   4.972
  347TIP3    H1 1047   6.002   2.081   4.994
  347TIP3    H2 1048   6.110   1.975   4.985
  348TIP3   OH2 1049   6.031   1.742   0.980
  348TIP3    H1 1050   6.083   1.812   1.020
  348TIP3    H2 1051   5.941   1.764   1.001
  349TIP3   OH2 1052   4.980   4.309   1.946
  349TIP3    H1 1053   4.975   4.403   1.927
  349TIP3    H2 1054   5.054   4.278   1.893
  350TIP3   OH2 1055   3.063   5.277   0.424
  350TIP3    H1 1056   3.040   5.349   0.365
  350TIP3    H2 1057   3.071   5.201   0.366
  351TIP3   OH2 1058   0.532   0.545   2.972
  351TIP3    H1 1059   0.518   0.636   2.994
  351TIP3    H2 1060   0.620   0.525   3.006
  352TIP3   OH2 1061   2.420   0.663   3.050
  352TIP3    H1 1062   2.445   0.578   3.087
  352TIP3    H2 1063   2.361   0.701   3.115
  353TIP3   OH2 1064   4.370   3.648   2.604
  353TIP3    H1 1065   4.364   3.667   2.511
  353TIP3    H2 1066   4.320   3.718   2.647
  354TIP3   OH2 1067   5.368   4.876   4.117
  354TIP3    H1 1068   5.442   4.877   4.057
  354TIP3    H2 1069   5.405   4.845   4.200
  355TIP3   OH2 1070   1.135   4.468   2.098
  355TIP3    H1 1071   1.152   4.380   2.065
  355TIP3    H2 1072   1.220   4.502   2.124
  356TIP3   OH2 1073   4.912   2.532   4.004
  356TIP3    H1 1074   4.928   2.593   3.933
  356TIP3    H2 1075   4.999   2.504   4.032
  357TIP3   OH2 1076   3.201   2.578   4.483
  357TIP3    H1 1077   3.122   2.534   4.451
  357TIP3    H2 1078   3.172   2.624   4.562
  358TIP3   OH2 1079   2.300   1.011   4.707
  358TIP3    H1 1080   2.251   0.968   4.637
  358TIP3    H2 1081   2.272   0.967   4.787
  359TIP3   OH2 1082   5.095   4.635   0.327
  359TIP3    H1 1083   5.054   4.628   0.413
  359TIP3    H2 1084   5.052   4.710   0.286
  360TIP3   OH2 1085   6.111   0.810   2.326
  360TIP3    H1 1086   6.127   0.831   2.234
  360TIP3    H2 1087   6.036   0.751   2.325
  361TIP3   OH2 1088   4.568   3.701   5.117
  361TIP3    H1 1089   4.492   3.721   5.171
  361TIP3    H2 1090   4.638   3.755   5.154
  362TIP3   OH2 1091   4.093   1.841   1.849
  362TIP3    H1 1092   4.096   1.883   1.763
  362TIP3    H2 1093   4.153   1.891   1.903
  363TIP3   OH2 1094   3.185   3.588   5.140
  363TIP3    H1 1095   3.135   3.507   5.125
  363TIP3    H2 1096   3.122   3.648   5.180
  364TIP3   OH2 1097   1.422   0.982   2.567
  364TIP3    H1 1098   1.407   0.979   2.473
  364TIP3    H2 1099   1.447   0.892   2.590
  365TIP3   OH2 1100   6.068   0.716   4.901
  365TIP3    H1 1101   5.999   0.722   4.968
  365TIP3    H2 1102   6.146   0.753   4.943
  366TIP3   OH2 1103   1.336   0.663   0.037
  366TIP3    H1 1104   1.339   0.680   0.131
  366TIP3    H2 1105   1.243   0.658   0.016
  367TIP3   OH2 1106   0.801   0.749   3.493
  367TIP3    H1 1107   0.774   0.682   3.431
  367TIP3    H2 1108   0.862   0.804   3.443
  368TIP3   OH2 1109   2.078   4.333   2.692
  368TIP3    H1 1110   2.141   4.361   2.759
  368TIP3    H2 1111   2.131   4.284   2.629
  369TIP3   OH2 1112   1.135   4.481   0.050
  369TIP3    H1 1113   1.188   4.431   0.112
  369TIP3    H2 1114   1.178   4.566   0.044
  370TIP3   OH2 1115   6.231   3.857   4.101
  370TIP3    H1 1116   6.242   3.878   4.009
  370TIP3    H2 1117   6.138   3.834   4.109
  371TIP3   OH2 1118   1.237   0.474   3.258
  371TIP3    H1 1119   1.322   0.431   3.253
  371TIP3    H2 1120   1.255   0.558   3.300
  372TIP3   OH2 1121   4.537   2.777   2.821
  372TIP3    H1 1122   4.568   2.868   2.817
  372TIP3    H2 1123   4.542   2.755   2.914
  373TIP3   OH2 1124   3.558   2.172   0.861
  373TIP3    H1 1125   3.506   2.165   0.941
  373TIP3    H2 1126   3.633   2.227   0.885
  374TIP3   OH2 1127   3.996   2.016   1.662
  374TIP3    H1 1128   4.030   1.961   1.591
  374TIP3    H2 1129   3.904   2.029   1.641
  375TIP3   OH2 1130   1.617   2.616   4.817
  375TIP3    H1 1131   1.530   2.650   4.838
  375TIP3    H2 1132   1.616   2.526   4.850
  376TIP3   OH2 1133   5.743   3.387   4.607
  376TIP3    H1 1134   5.807   3.329   4.648
  376TIP3    H2 1135   5.659   3.346   4.624
  377TIP3   OH2 1136   2.808   0.571   0.104
  377TIP3    H1 1137   2.876   0.638   0.104
  377TIP3    H2 1138   2.840   0.505   0.165
  378TIP3   OH2 1139   0.327   0.395   3.805
  378TIP3    H1 1140   0.307   0.368   3.716
  378TIP3    H2 1141   0.403   0.453   3.797
  379TIP3   OH2 1142   5.354   0.387   1.957
  379TIP3    H1 1143   5.422   0.450   1.981
  379TIP3    H2 1144   5.383   0.305   1.995
  380TIP3   OH2 1145   3.089   4.923   4.599
  380TIP3    H1 1146   2.995   4.922   4.581
  380TIP3    H2 1147   3.104   4.845   4.653
  381TIP3   OH2 1148   4.364   5.605   0.096
  381TIP3    H1 1149   4.433   5.550   0.134
  381TIP3    H2 1150   4.300   5.544   0.062
  382TIP3   OH2 1151   1.447   1.263   2.291
  382TIP3    H1 1152   1.521   1.204   2.306
  382TIP3    H2 1153   1.389   1.214   2.233
  383TIP3   OH2 1154   3.246   0.759   5.145
  383TIP3    H1 1155   3.297   0.698   5.091
  383TIP3    H2 1156   3.160   0.761   5.103
  384TIP3   OH2 1157   6.075   1.259   2.585
  384TIP3    H1 1158   6.042   1.264   2.496
  384TIP3    H2 1159   6.004   1.291   2.639
  385TIP3   OH2 1160   1.579   2.313   1.700
  385TIP3    H1 1161   1.487   2.288   1.687
  385TIP3    H2 1162   1.596   2.293   1.792
  386TIP3   OH2 1163   4.124   2.095   1.125
  386TIP3    H1 1164   4.092   2.181   1.148
  386TIP3    H2 1165   4.066   2.065   1.055
  387TIP3   OH2 1166   3.765   4.110   4.152
  387TIP3    H1 1167   3.764   4.069   4.066
  387TIP3    H2 1168   3.845   4.077   4.193
  388TIP3   OH2 1169   4.800   4.463   3.671
  388TIP3    H1 1170   4.832   4.400   3.606
  388TIP3    H2 1171   4.876   4.480   3.727
  389TIP3   OH2 1172   5.827   5.225   1.839
  389TIP3    H1 1173   5.764   5.297   1.841
  389TIP3    H2 1174   5.881   5.240   1.917
  390TIP3   OH2 1175   3.973   5.703   3.651
  390TIP3    H1 1176   3.911   5.775   3.665
  390TIP3    H2 1177   4.049   5.744   3.610
  391TIP3   OH2 1178   2.725   5.786   2.523
  391TIP3    H1 1179   2.656   5.733   2.481
  391TIP3    H2 1180   2.740   5.857   2.461
  392TIP3   OH2 1181   3.035   1.876   2.798
  392TIP3    H1 1182   2.999   1.803   2.749
  392TIP3    H2 1183   2.971   1.946   2.788
  393TIP3   OH2 1184   1.859   5.571   5.006
  393TIP3    H1 1185   1.788   5.629   5.031
  393TIP3    H2 1186   1.817   5.499   4.959
  394TIP3   OH2 1187   0.137   2.658   2.382
  394TIP3    H1 1188   0.062   2.614   2.342
  394TIP3    H2 1189   0.108   2.679   2.470
  395TIP3   OH2 1190   4.677   1.895   3.934
  395TIP3    H1 1191   4.719   1.881   4.019
  395TIP3    H2 1192   4.715   1.828   3.877
  396TIP3   OH2 1193   0.910   3.655   1.711
  396TIP3    H1 1194   0.892   3.646   1.617
  396TIP3    H2 1195   0.992   3.704   1.715
  397TIP3   OH2 1196   3.320   4.832   3.514
  397TIP3    H1 1197   3.414   4.844   3.499
  397TIP3    H2 1198   3.288   4.791   3.433
  398TIP3   OH2 1199   0.415   4.389   2.570
  398TIP3    H1 1200   0.385   4.469   2.612
  398TIP3    H2 1201   0.346   4.367   2.507
  399TIP3   OH2 1202   3.259   2.115   3.016
  399TIP3    H1 1203   3.228   2.116   3.107
  399TIP3    H2 1204   3.317   2.039   3.012
  400TIP3   OH2 1205   3.536   3.255   3.543
  400TIP3    H1 1206   3.491   3.194   3.485
  400TIP3    H2 1207   3.469   3.319   3.566
  401TIP3   OH2 1208   2.848   2.653   0.748
  401TIP3    H1 1209   2.903   2.725   0.718
  401TIP3    H2 1210   2.761   2.692   0.759
  402TIP3   OH2 1211   4.457   0.819   0.534
  402TIP3    H1 1212   4.490   0.732   0.514
  402TIP3    H2 1213   4.367   0.819   0.502
  403TIP3   OH2 1214   3.416   1.815   2.743
  403TIP3    H1 1215   3.399   1.839   2.834
  403TIP3    H2 1216   3.334   1.775   2.713
  404TIP3   OH2 1217   5.765   1.418   3.531
  404TIP3    H1 1218   5.697   1.482   3.512
  404TIP3    H2 1219   5.724   1.353   3.587
  405TIP3   OH2 1220   3.936   0.626   1.015
  405TIP3    H1 1221   3.993   0.555   1.043
  405TIP3    H2 1222   3.940   0.624   0.919
  406TIP3   OH2 1223   4.727   5.812   2.906
  406TIP3    H1 1224   4.704   5.897   2.944
  406TIP3    H2 1225   4.754   5.759   2.981
  407TIP3   OH2 1226   3.650   1.203   0.174
  407TIP3    H1 1227   3.677   1.126   0.125
  407TIP3    H2 1228   3.593   1.169   0.243
  408TIP3   OH2 1229   1.835   1.911   3.014
  408TIP3    H1 1230   1.743   1.932   3.001
  408TIP3    H2 1231   1.868   1.981   3.071
  409TIP3   OH2 1232   2.130   3.983   0.256
  409TIP3    H1 1233   2.128   4.077   0.276
  409TIP3    H2 1234   2.124   3.940   0.341
  410TIP3   OH2 1235   2.387   3.237   4.175
  410TIP3    H1 1236   2.387   3.319   4.125
  410TIP3    H2 1237   2.331   3.179   4.124
  411TIP3   OH2 1238   5.126   0.026   4.574
  411TIP3    H1 1239   5.050   0.029   4.516
  411TIP3    H2 1240   5.187  -0.034   4.532
  412TIP3   OH2 1241   0.745   1.806   2.314
  412TIP3    H1 1242   0.804   1.754   2.369
  412TIP3    H2 1243   0.737   1.756   2.233
  413TIP3   OH2 1244   4.196   4.801   3.017
  413TIP3    H1 1245   4.128   4.817   2.952
  413TIP3    H2 1246   4.175   4.860   3.089
  414TIP3   OH2 1247   1.449   1.328   2.967
  414TIP3    H1 1248   1.416   1.315   2.878
  414TIP3    H2 1249   1.423   1.417   2.990
  415TIP3   OH2 1250   0.728   3.234   3.583
  415TIP3    H1 1251   0.744   3.170   3.513
  415TIP3    H2 1252   0.798   3.219   3.646
  416TIP3   OH2 1253   6.089   1.722   4.248
  416TIP3    H1 1254   5.996   1.701   4.251
  416TIP3    H2 1255   6.125   1.660   4.184
  417TIP3   OH2 1256   1.213   5.589   4.582
  417TIP3    H1 1257   1.183   5.654   4.646
  417TIP3    H2 1258   1.199   5.505   4.624
  418TIP3   OH2 1259   2.220   0.954   0.142
  418TIP3    H1 1260   2.213   0.864   0.109
  418TIP3    H2 1261   2.186   0.949   0.232
  419TIP3   OH2 1262   4.036   2.042   4.343
  419TIP3    H1 1263   3.973   2.051   4.272
  419TIP3    H2 1264   4.082   1.961   4.324
  420TIP3   OH2 1265   2.414   3.866   1.718
  420TIP3    H1 1266   2.368   3.950   1.728
  420TIP3    H2 1267   2.437   3.841   1.808
  421TIP3   OH2 1268   4.603   0.396   4.505
  421TIP3    H1 1269   4.669   0.389   4.435
  421TIP3    H2 1270   4.654   0.409   4.585
  422TIP3   OH2 1271   1.917   2.438   1.225
  422TIP3    H1 1272   1.958   2.523   1.206
  422TIP3    H2 1273   1.976   2.397   1.289
  423TIP3   OH2 1274   5.504   1.738   0.864
  423TIP3    H1 1275   5.516   1.643   0.865
  423TIP3    H2 1276   5.416   1.751   0.829
  424TIP3   OH2 1277   3.681   3.651   2.211
  424TIP3    H1 1278   3.621   3.718   2.180
  424TIP3    H2 1279   3.714   3.685   2.294
  425TIP3   OH2 1280   3.257   4.845   0.166
  425TIP3    H1 1281   3.197   4.771   0.172
  425TIP3    H2 1282   3.328   4.824   0.227
  426TIP3   OH2 1283   5.701   1.442   5.015
  426TIP3    H1 1284   5.722   1.466   4.925
  426TIP3    H2 1285   5.645   1.365   5.007
  427TIP3   OH2 1286   0.321   3.918   1.511
  427TIP3    H1 1287   0.352   3.960   1.592
  427TIP3    H2 1288   0.236   3.882   1.534
  428TIP3   OH2 1289   3.668   4.390   4.136
  428TIP3    H1 1290   3.692   4.302   4.165
  428TIP3    H2 1291   3.751   4.434   4.121
  429TIP3   OH2 1292   0.010   3.948   3.555
  429TIP3    H1 1293   0.089   3.969   3.505
  429TIP3    H2 1294  -0.055   3.924   3.488
  430TIP3   OH2 1295   3.945   4.338   2.028
  430TIP3    H1 1296   3.969   4.246   2.018
  430TIP3    H2 1297   3.987   4.365   2.109
  431TIP3   OH2 1298   5.380   0.923   4.696
  431TIP3    H1 1299   5.287   0.947   4.691
  431TIP3    H2 1300   5.381   0.845   4.751
  432TIP3   OH2 1301   0.456   0.268   4.759
  432TIP3    H1 1302   0.497   0.311   4.684
  432TIP3    H2 1303   0.431   0.182   4.726
  433TIP3   OH2 1304   1.643   1.820   1.395
  433TIP3    H1 1305   1.677   1.766   1.467
  433TIP3    H2 1306   1.603   1.758   1.335
  434TIP3   OH2 1307   3.269   1.330   0.040
  434TIP3    H1 1308   3.220   1.303   0.118
  434TIP3    H2 1309   3.227   1.412   0.014
  435TIP3   OH2 1310   0.794   4.981   2.394
  435TIP3    H1 1311   0.864   5.042   2.419
  435TIP3    H2 1312   0.724   5.038   2.362
  436TIP3   OH2 1313   4.457   3.976   4.926
  436TIP3    H1 1314   4.450   4.018   5.012
  436TIP3    H2 1315   4.406   3.896   4.933
  437TIP3   OH2 1316   1.932   2.022   2.369
  437TIP3    H1 1317   2.007   1.972   2.338
  437TIP3    H2 1318   1.922   2.094   2.307
  438TIP3   OH2 1319   5.274   4.688   2.506
  438TIP3    H1 1320   5.179   4.675   2.501
  438TIP3    H2 1321   5.310   4.600   2.518
  439TIP3   OH2 1322   2.834   4.034   3.953
  439TIP3    H1 1323   2.802   4.090   3.883
  439TIP3    H2 1324   2.793   4.069   4.032
  440TIP3   OH2 1325   2.647   5.878   0.312
  440TIP3    H1 1326   2.671   5.793   0.350
  440TIP3    H2 1327   2.620   5.931   0.387
  441TIP3   OH2 1328   0.168   0.409   2.303
  441TIP3    H1 1329   0.105   0.415   2.231
  441TIP3    H2 1330   0.131   0.342   2.361
  442TIP3   OH2 1331   4.618   2.864   4.437
  442TIP3    H1 1332   4.689   2.804   4.459
  442TIP3    H2 1333   4.629   2.938   4.496
  443TIP3   OH2 1334   4.924   3.489   4.351
  443TIP3    H1 1335   4.867   3.439   4.293
  443TIP3    H2 1336   4.967   3.423   4.406
  444TIP3   OH2 1337   3.109   2.033   1.191
  444TIP3    H1 1338   3.091   2.002   1.102
  444TIP3    H2 1339   3.152   1.959   1.234
  445TIP3   OH2 1340   0.524   2.842   1.272
  445TIP3    H1 1341   0.444   2.884   1.305
  445TIP3    H2 1342   0.519   2.851   1.177
  446TIP3   OH2 1343   3.973   0.280   0.926
  446TIP3    H1 1344   3.915   0.311   0.995
  446TIP3    H2 1345   4.045   0.237   0.973
  447TIP3   OH2 1346   3.253   0.030   2.936
  447TIP3    H1 1347   3.266  -0.065   2.937
  447TIP3    H2 1348   3.329   0.065   2.890
  448TIP3   OH2 1349   0.637   3.971   4.727
  448TIP3    H1 1350   0.637   3.905   4.657
  448TIP3    H2 1351   0.698   3.936   4.793
  449TIP3   OH2 1352   4.579   1.225   5.080
  449TIP3    H1 1353   4.643   1.268   5.023
  449TIP3    H2 1354   4.583   1.133   5.055
  450TIP3   OH2 1355   0.153   2.737   3.805
  450TIP3    H1 1356   0.061   2.750   3.782
  450TIP3    H2 1357   0.180   2.663   3.750
  451TIP3   OH2 1358   2.486   1.947   1.178
  451TIP3    H1 1359   2.581   1.940   1.176
  451TIP3    H2 1360   2.455   1.864   1.141
  452TIP3   OH2 1361   1.034   3.507   1.141
  452TIP3    H1 1362   0.947   3.469   1.151
  452TIP3    H2 1363   1.087   3.436   1.103
  453TIP3   OH2 1364   0.313   2.491   0.552
  453TIP3    H1 1365   0.235   2.544   0.569
  453TIP3    H2 1366   0.383   2.537   0.599
  454TIP3   OH2 1367   0.944   5.103   3.347
  454TIP3    H1 1368   1.008   5.067   3.284
  454TIP3    H2 1369   0.941   5.196   3.326
  455TIP3   OH2 1370   4.216   5.488   4.835
  455TIP3    H1 1371   4.301   5.477   4.876
  455TIP3    H2 1372   4.171   5.551   4.891
  456TIP3   OH2 1373   2.947   4.071   2.136
  456TIP3    H1 1374   2.913   3.995   2.088
  456TIP3    H2 1375   3.035   4.044   2.164
  457TIP3   OH2 1376   4.655   5.338   1.097
  457TIP3    H1 1377   4.670   5.284   1.175
  457TIP3    H2 1378   4.729   5.399   1.097
  458TIP3   OH2 1379   0.163   5.532   1.953
  458TIP3    H1 1380   0.242   5.521   2.007
  458TIP3    H2 1381   0.194   5.523   1.863
  459TIP3   OH2 1382   1.934   3.991   4.880
  459TIP3    H1 1383   1.864   4.016   4.820
  459TIP3    H2 1384   1.891   3.936   4.945
  460TIP3   OH2 1385   2.250   1.621   2.688
  460TIP3    H1 1386   2.296   1.679   2.628
  460TIP3    H2 1387   2.243   1.538   2.640
  461TIP3   OH2 1388   5.229   5.465   5.066
  461TIP3    H1 1389   5.272   5.522   5.129
  461TIP3    H2 1390   5.269   5.486   4.982
  462TIP3   OH2 1391   4.061   2.755   0.073
  462TIP3    H1 1392   3.993   2.711   0.124
  462TIP3    H2 1393   4.014   2.806   0.008
  463TIP3   OH2 1394   4.168   1.380   5.013
  463TIP3    H1 1395   4.263   1.370   5.009
  463TIP3    H2 1396   4.146   1.428   4.932
  464TIP3   OH2 1397   3.398   3.537   1.604
  464TIP3    H1 1398   3.416   3.592   1.681
  464TIP3    H2 1399   3.304   3.523   1.606
  465TIP3   OH2 1400   1.601   4.443   5.048
  465TIP3    H1 1401   1.547   4.519   5.068
  465TIP3    H2 1402   1.686   4.479   5.024
  466TIP3   OH2 1403   3.417   3.907   4.758
  466TIP3    H1 1404   3.433   3.869   4.671
  466TIP3    H2 1405   3.323   3.894   4.773
  467TIP3   OH2 1406   3.329   3.506   0.357
  467TIP3    H1 1407   3.404   3.456   0.390
  467TIP3    H2 1408   3.367   3.567   0.294
  468TIP3   OH2 1409   6.038   4.525   4.507
  468TIP3    H1 1410   6.125   4.534   4.470
  468TIP3    H2 1411   5.998   4.611   4.496
  469TIP3   OH2 1412   1.261   5.994   2.414
  469TIP3    H1 1413   1.321   6.050   2.365
  469TIP3    H2 1414   1.312   5.915   2.434
  470TIP3   OH2 1415   3.312   4.357   1.865
  470TIP3    H1 1416   3.245   4.423   1.881
  470TIP3    H2 1417   3.392   4.407   1.845
  471TIP3   OH2 1418   3.916   4.069   2.458
  471TIP3    H1 1419   3.919   4.096   2.550
  471TIP3    H2 1420   3.975   3.994   2.453
  472TIP3   OH2 1421   4.982   4.670   2.198
  472TIP3    H1 1422   5.028   4.588   2.218
  472TIP3    H2 1423   4.896   4.658   2.239
  473TIP3   OH2 1424   2.504   4.867   0.024
  473TIP3    H1 1425   2.516   4.901   0.113
  473TIP3    H2 1426   2.526   4.774   0.032
  474TIP3   OH2 1427   5.982   3.538   4.009
  474TIP3    H1 1428   5.977   3.605   3.942
  474TIP3    H2 1429   5.892   3.507   4.019
  475TIP3   OH2 1430   1.410   0.707   2.629
  475TIP3    H1 1431   1.347   0.696   2.701
  475TIP3    H2 1432   1.368   0.666   2.554
  476TIP3   OH2 1433   1.021   4.119   2.626
  476TIP3    H1 1434   1.048   4.191   2.569
  476TIP3    H2 1435   0.943   4.084   2.584
  477TIP3   OH2 1436   3.039   0.341   4.007
  477TIP3    H1 1437   3.134   0.352   4.007
  477TIP3    H2 1438   3.006   0.424   4.042
  478TIP3   OH2 1439   2.123   1.348   0.777
  478TIP3    H1 1440   2.078   1.409   0.834
  478TIP3    H2 1441   2.180   1.297   0.835
  479TIP3   OH2 1442   2.307   3.936   3.594
  479TIP3    H1 1443   2.342   4.022   3.569
  479TIP3    H2 1444   2.213   3.951   3.604
  480TIP3   OH2 1445   2.634   3.989   0.083
  480TIP3    H1 1446   2.637   4.028  -0.005
  480TIP3    H2 1447   2.666   3.900   0.070
  481TIP3   OH2 1448   3.140   3.607   3.927
  481TIP3    H1 1449   3.064   3.580   3.978
  481TIP3    H2 1450   3.157   3.534   3.868
  482TIP3   OH2 1451   6.119   6.011   2.503
  482TIP3    H1 1452   6.095   5.948   2.435
  482TIP3    H2 1453   6.151   5.957   2.575
  483TIP3   OH2 1454   5.891   2.615   0.198
  483TIP3    H1 1455   5.837   2.680   0.243
  483TIP3    H2 1456   5.956   2.589   0.264
  484TIP3   OH2 1457   5.198   2.548   3.292
  484TIP3    H1 1458   5.190   2.522   3.200
  484TIP3    H2 1459   5.268   2.613   3.293
  485TIP3   OH2 1460   2.095   2.494   0.936
  485TIP3    H1 1461   2.120   2.406   0.964
  485TIP3    H2 1462   2.127   2.551   1.006
  486TIP3   OH2 1463   0.783   1.432   3.026
  486TIP3    H1 1464   0.802   1.391   2.942
  486TIP3    H2 1465   0.692   1.407   3.045
  487TIP3   OH2 1466   1.709   0.824   0.987
  487TIP3    H1 1467   1.786   0.842   1.042
  487TIP3    H2 1468   1.668   0.910   0.974
  488TIP3   OH2 1469   0.741   0.438   3.617
  488TIP3    H1 1470   0.734   0.343   3.617
  488TIP3    H2 1471   0.773   0.461   3.530
  489TIP3   OH2 1472   1.357   3.678   0.414
  489TIP3    H1 1473   1.262   3.665   0.416
  489TIP3    H2 1474   1.369   3.768   0.383
  490TIP3   OH2 1475   1.093   5.301   1.182
  490TIP3    H1 1476   1.067   5.253   1.260
  490TIP3    H2 1477   1.041   5.263   1.111
  491TIP3   OH2 1478   6.192   4.178   2.554
  491TIP3    H1 1479   6.185   4.182   2.649
  491TIP3    H2 1480   6.265   4.119   2.537
  492TIP3   OH2 1481   1.824   0.871   1.627
  492TIP3    H1 1482   1.750   0.927   1.650
  492TIP3    H2 1483   1.808   0.847   1.535
  493TIP3   OH2 1484   1.657   1.061   2.335
  493TIP3    H1 1485   1.658   0.968   2.311
  493TIP3    H2 1486   1.707   1.065   2.417
  494TIP3   OH2 1487   6.253   4.579   1.744
  494TIP3    H1 1488   6.161   4.606   1.749
  494TIP3    H2 1489   6.249   4.483   1.742
  495TIP3   OH2 1490   2.929   3.912   5.077
  495TIP3    H1 1491   2.986   3.934   5.003
  495TIP3    H2 1492   2.945   3.980   5.142
  496TIP3   OH2 1493   3.448   4.894   0.689
  496TIP3    H1 1494   3.385   4.902   0.617
  496TIP3    H2 1495   3.480   4.804   0.683
  497TIP3   OH2 1496   1.851   1.431   2.911
  497TIP3    H1 1497   1.820   1.517   2.938
  497TIP3    H2 1498   1.945   1.434   2.925
  498TIP3   OH2 1499   0.288   3.394   4.239
  498TIP3    H1 1500   0.350   3.457   4.203
  498TIP3    H2 1501   0.204   3.418   4.201
  499TIP3   OH2 1502   0.634   0.861   0.373
  499TIP3    H1 1503   0.670   0.949   0.383
  499TIP3    H2 1504   0.635   0.845   0.279
  500TIP3   OH2 1505   3.194   4.872   0.541
  500TIP3    H1 1506   3.158   4.822   0.615
  500TIP3    H2 1507   3.126   4.866   0.474
  501TIP3   OH2 1508   1.506   0.476   0.650
  501TIP3    H1 1509   1.579   0.539   0.654
  501TIP3    H2 1510   1.432   0.523   0.687
  502TIP3   OH2 1511   1.230   5.428   3.994
  502TIP3    H1 1512   1.213   5.433   4.088
  502TIP3    H2 1513   1.299   5.362   3.986
  503TIP3   OH2 1514   3.760   5.069   1.415
  503TIP3    H1 1515   3.837   5.122   1.396
  503TIP3    H2 1516   3.687   5.117   1.376
  504TIP3   OH2 1517   3.474   0.248   0.915
  504TIP3    H1 1518   3.398   0.197   0.885
  504TIP3    H2 1519   3.549   0.205   0.874
  505TIP3   OH2 1520   1.302   3.850   1.167
  505TIP3    H1 1521   1.239   3.808   1.107
  505TIP3    H2 1522   1.264   3.839   1.254
  506TIP3   OH2 1523   1.177   3.607   1.350
  506TIP3    H1 1524   1.124   3.556   1.290
  506TIP3    H2 1525   1.216   3.543   1.409
  507TIP3   OH2 1526   2.147   3.226   1.530
  507TIP3    H1 1527   2.138   3.206   1.437
  507TIP3    H2 1528   2.125   3.318   1.537
  508TIP3   OH2 1529   5.242   4.579   5.178
  508TIP3    H1 1530   5.238   4.554   5.086
  508TIP3    H2 1531   5.272   4.670   5.178
  509TIP3   OH2 1532   6.084   2.193   2.949
  509TIP3    H1 1533   6.049   2.107   2.970
  509TIP3    H2 1534   6.108   2.188   2.857
  510TIP3   OH2 1535   3.970   5.037   3.377
  510TIP3    H1 1536   4.001   5.086   3.454
  510TIP3    H2 1537   3.975   4.946   3.403
  511TIP3   OH2 1538   1.130   3.030   2.853
  511TIP3    H1 1539   1.058   3.040   2.916
  511TIP3    H2 1540   1.122   2.939   2.822
  512TIP3   OH2 1541   1.540   0.596   1.088
  512TIP3    H1 1542   1.580   0.674   1.049
  512TIP3    H2 1543   1.537   0.615   1.182
  513TIP3   OH2 1544   3.796   0.955   0.347
  513TIP3    H1 1545   3.706   0.927   0.362
  513TIP3    H2 1546   3.797   0.988   0.257
  514TIP3   OH2 1547   4.804   2.332   3.692
  514TIP3    H1 1548   4.741   2.286   3.748
  514TIP3    H2 1549   4.768   2.420   3.684
  515TIP3   OH2 1550   3.954   4.908   0.794
  515TIP3    H1 1551   3.942   4.835   0.854
  515TIP3    H2 1552   3.963   4.985   0.851
  516TIP3   OH2 1553   3.812   1.459   5.124
  516TIP3    H1 1554   3.813   1.433   5.032
  516TIP3    H2 1555   3.727   1.502   5.136
  517TIP3   OH2 1556   3.842   2.100   0.993
  517TIP3    H1 1557   3.833   2.060   1.079
  517TIP3    H2 1558   3.776   2.170   0.992
  518TIP3   OH2 1559   2.479   3.150   3.445
  518TIP3    H1 1560   2.471   3.071   3.499
  518TIP3    H2 1561   2.396   3.196   3.458
  519TIP3   OH2 1562   0.260   5.214   0.576
  519TIP3    H1 1563   0.311   5.168   0.509
  519TIP3    H2 1564   0.316   5.287   0.603
  520TIP3   OH2 1565   5.803   2.964   1.471
  520TIP3    H1 1566   5.849   2.968   1.387
  520TIP3    H2 1567   5.730   2.904   1.456
  521TIP3   OH2 1568   0.206   4.935   4.589
  521TIP3    H1 1569   0.253   4.878   4.527
  521TIP3    H2 1570   0.115   4.909   4.581
  522TIP3   OH2 1571   5.484   3.504   2.967
  522TIP3    H1 1572   5.454   3.469   3.050
  522TIP3    H2 1573   5.578   3.489   2.966
  523TIP3   OH2 1574   3.089   5.889   0.983
  523TIP3    H1 1575   3.041   5.957   0.936
  523TIP3    H2 1576   3.068   5.904   1.075
  524TIP3   OH2 1577   6.093   3.562   0.264
  524TIP3    H1 1578   6.133   3.649   0.264
  524TIP3    H2 1579   6.133   3.517   0.339
  525TIP3   OH2 1580   3.401   3.308   2.228
  525TIP3    H1 1581   3.331   3.297   2.292
  525TIP3    H2 1582   3.474   3.345   2.278
  526TIP3   OH2 1583   1.871   4.509   5.026
  526TIP3    H1 1584   1.899   4.418   5.018
  526TIP3    H2 1585   1.926   4.545   5.095
  527TIP3   OH2 1586   4.516   5.487   3.929
  527TIP3    H1 1587   4.537   5.580   3.939
  527TIP3    H2 1588   4.600   5.445   3.909
  528TIP3   OH2 1589   1.644   3.680   1.680
  528TIP3    H1 1590   1.659   3.632   1.598
  528TIP3    H2 1591   1.720   3.736   1.690
  529TIP3   OH2 1592   5.880   5.643   2.561
  529TIP3    H1 1593   5.795   5.614   2.594
  529TIP3    H2 1594   5.897   5.725   2.609
  530TIP3   OH2 1595   4.746   4.566   3.156
  530TIP3    H1 1596   4.674   4.618   3.120
  530TIP3    H2 1597   4.797   4.628   3.208
  531TIP3   OH2 1598   0.651   0.537   1.566
  531TIP3    H1 1599   0.609   0.487   1.636
  531TIP3    H2 1600   0.710   0.475   1.524
  532TIP3   OH2 1601   0.636   2.626   4.841
  532TIP3    H1 1602   0.660   2.612   4.750
  532TIP3    H2 1603   0.560   2.684   4.837
  533TIP3   OH2 1604   1.204   3.712   2.306
  533TIP3    H1 1605   1.225   3.661   2.385
  533TIP3    H2 1606   1.286   3.714   2.257
  534TIP3   OH2 1607   5.238   1.558   2.915
  534TIP3    H1 1608   5.275   1.642   2.944
  534TIP3    H2 1609   5.304   1.521   2.857
  535TIP3   OH2 1610   0.382   1.155   4.419
  535TIP3    H1 1611   0.289   1.171   4.434
  535TIP3    H2 1612   0.388   1.062   4.396
  536TIP3   OH2 1613   2.730   4.915   4.713
  536TIP3    H1 1614   2.717   4.999   4.758
  536TIP3    H2 1615   2.687   4.851   4.770
  537TIP3   OH2 1616   0.293   4.869   4.127
  537TIP3    H1 1617   0.200   4.887   4.120
  537TIP3    H2 1618   0.298   4.773   4.134
  538TIP3   OH2 1619   1.236   0.666   3.476
  538TIP3    H1 1620   1.331   0.674   3.471
  538TIP3    H2 1621   1.213   0.707   3.559
  539TIP3   OH2 1622   3.620   1.026   2.844
  539TIP3    H1 1623   3.588   0.938   2.860
  539TIP3    H2 1624   3.683   1.017   2.773
  540TIP3   OH2 1625   0.548   5.505   4.765
  540TIP3    H1 1626   0.623   5.502   4.706
  540TIP3    H2 1627   0.587   5.517   4.852
  541TIP3   OH2 1628   0.355   0.036   3.026
  541TIP3    H1 1629   0.346   0.034   3.121
  541TIP3    H2 1630   0.313   0.118   2.999
  542TIP3   OH2 1631   0.053   2.321   2.363
  542TIP3    H1 1632  -0.003   2.243   2.371
  542TIP3    H2 1633   0.024   2.363   2.282
  543TIP3   OH2 1634   2.581   2.602   1.656
  543TIP3    H1 1635   2.642   2.557   1.598
  543TIP3    H2 1636   2.497   2.600   1.610
  544TIP3   OH2 1637   5.453   4.422   1.562
  544TIP3    H1 1638   5.536   4.462   1.538
  544TIP3    H2 1639   5.387   4.486   1.537
  545TIP3   OH2 1640   4.001   4.541   0.399
  545TIP3    H1 1641   4.058   4.597   0.346
  545TIP3    H2 1642   3.999   4.458   0.351
  546TIP3   OH2 1643   0.488   4.617   1.142
  546TIP3    H1 1644   0.488   4.712   1.153
  546TIP3    H2 1645   0.451   4.583   1.223
  547TIP3   OH2 1646   3.292   5.940   4.188
  547TIP3    H1 1647   3.319   6.010   4.129
  547TIP3    H2 1648   3.261   5.870   4.130
  548TIP3   OH2 1649   4.535   5.402   0.126
  548TIP3    H1 1650   4.613   5.400   0.181
  548TIP3    H2 1651   4.548   5.332   0.062
  549TIP3   OH2 1652   4.858   4.270   3.319
  549TIP3    H1 1653   4.948   4.240   3.330
  549TIP3    H2 1654   4.863   4.338   3.252
  550TIP3   OH2 1655   5.847   0.408   2.558
  550TIP3    H1 1656   5.788   0.365   2.620
  550TIP3    H2 1657   5.844   0.353   2.480
  551TIP3   OH2 1658   4.784   3.812   0.579
  551TIP3    H1 1659   4.860   3.813   0.522
  551TIP3    H2 1660   4.738   3.894   0.560
  552TIP3   OH2 1661   3.298   2.528   0.614
  552TIP3    H1 1662   3.210   2.493   0.604
  552TIP3    H2 1663   3.354   2.450   0.619
  553TIP3   OH2 1664   1.084   0.176   2.051
  553TIP3    H1 1665   1.141   0.201   1.978
  553TIP3    H2 1666   1.031   0.104   2.016
  554TIP3   OH2 1667   5.510   0.072   4.632
  554TIP3    H1 1668   5.490   0.130   4.706
  554TIP3    H2 1669   5.604   0.058   4.637
  555TIP3   OH2 1670   3.811   1.209   1.908
  555TIP3    H1 1671   3.759   1.264   1.849
  555TIP3    H2 1672   3.887   1.182   1.856
  556TIP3   OH2 1673   0.661   2.198   0.634
  556TIP3    H1 1674   0.692   2.243   0.556
  556TIP3    H2 1675   0.653   2.106   0.608
  557TIP3   OH2 1676   5.572   2.839   1.423
  557TIP3    H1 1677   5.504   2.852   1.357
  557TIP3    H2 1678   5.529   2.790   1.493
  558TIP3   OH2 1679   5.311   4.147   4.994
  558TIP3    H1 1680   5.343   4.059   5.013
  558TIP3    H2 1681   5.326   4.195   5.076
  559TIP3   OH2 1682   3.449   1.538   2.003
  559TIP3    H1 1683   3.475   1.586   1.924
  559TIP3    H2 1684   3.520   1.554   2.065
  560TIP3   OH2 1685   4.784   1.681   3.807
  560TIP3    H1 1686   4.751   1.617   3.743
  560TIP3    H2 1687   4.879   1.682   3.792
  561TIP3   OH2 1688   5.718   4.959   2.092
  561TIP3    H1 1689   5.641   4.939   2.145
  561TIP3    H2 1690   5.720   5.055   2.088
  562TIP3   OH2 1691   1.603   5.580   4.765
  562TIP3    H1 1692   1.529   5.598   4.707
  562TIP3    H2 1693   1.563   5.540   4.842
  563TIP3   OH2 1694   0.953   1.093   3.209
  563TIP3    H1 1695   0.967   1.173   3.258
  563TIP3    H2 1696   1.040   1.066   3.181
  564TIP3   OH2 1697   0.425   0.730   1.797
  564TIP3    H1 1698   0.433   0.767   1.709
  564TIP3    H2 1699   0.332   0.711   1.808
  565TIP3   OH2 1700   2.500   2.282   1.603
  565TIP3    H1 1701   2.578   2.330   1.574
  565TIP3    H2 1702   2.503   2.200   1.554
  566TIP3   OH2 1703   4.811   1.010   0.011
  566TIP3    H1 1704   4.889   1.030   0.062
  566TIP3    H2 1705   4.740   1.011   0.075
  567TIP3   OH2 1706   4.018   5.147   2.654
  567TIP3    H1 1707   3.973   5.182   2.577
  567TIP3    H2 1708   3.975   5.064   2.671
  568TIP3   OH2 1709   5.441   3.912   0.986
  568TIP3    H1 1710   5.461   3.821   1.009
  568TIP3    H2 1711   5.379   3.941   1.053
  569TIP3   OH2 1712   0.557   5.124   2.735
  569TIP3    H1 1713   0.506   5.044   2.718
  569TIP3    H2 1714   0.497   5.180   2.784
  570TIP3   OH2 1715   2.249   0.990   3.467
  570TIP3    H1 1716   2.188   1.034   3.408
  570TIP3    H2 1717   2.336   1.012   3.432
  571TIP3   OH2 1718   4.152   4.838   3.858
  571TIP3    H1 1719   4.100   4.835   3.938
  571TIP3    H2 1720   4.229   4.786   3.877
  572TIP3   OH2 1721   5.217   4.992   1.370
  572TIP3    H1 1722   5.195   5.053   1.299
  572TIP3    H2 1723   5.187   4.907   1.338
  573TIP3   OH2 1724   2.283   2.796   2.858
  573TIP3    H1 1725   2.283   2.736   2.932
  573TIP3    H2 1726   2.328   2.748   2.788
  574TIP3   OH2 1727   0.448   5.752   2.669
  574TIP3    H1 1728   0.427   5.844   2.652
  574TIP3    H2 1729   0.382   5.703   2.618
  575TIP3   OH2 1730   0.107   3.747   1.576
  575TIP3    H1 1731   0.051   3.784   1.508
  575TIP3    H2 1732   0.058   3.671   1.608
  576TIP3   OH2 1733   4.638   4.969   1.485
  576TIP3    H1 1734   4.640   4.985   1.390
  576TIP3    H2 1735   4.730   4.966   1.511
  577TIP3   OH2 1736   0.645   4.097   1.598
  577TIP3    H1 1737   0.695   4.039   1.656
  577TIP3    H2 1738   0.663   4.063   1.510
  578TIP3   OH2 1739   3.268   5.814   4.724
  578TIP3    H1 1740   3.286   5.874   4.796
  578TIP3    H2 1741   3.300   5.860   4.646
  579TIP3   OH2 1742   1.330   2.232   2.504
  579TIP3    H1 1743   1.310   2.179   2.582
  579TIP3    H2 1744   1.408   2.282   2.529
  580TIP3   OH2 1745   5.431   5.381   2.785
  580TIP3    H1 1746   5.466   5.362   2.872
  580TIP3    H2 1747   5.393   5.299   2.756
  581TIP3   OH2 1748   3.927   0.250   0.446
  581TIP3    H1 1749   3.916   0.312   0.518
  581TIP3    H2 1750   3.842   0.246   0.404
  582TIP3   OH2 1751   5.610   4.455   2.575
  582TIP3    H1 1752   5.637   4.545   2.596
  582TIP3    H2 1753   5.523   4.464   2.537
  583TIP3   OH2 1754   3.804   0.207   2.418
  583TIP3    H1 1755   3.876   0.162   2.373
  583TIP3    H2 1756   3.845   0.245   2.496
  584TIP3   OH2 1757   5.051   0.692   0.533
  584TIP3    H1 1758   4.964   0.689   0.573
  584TIP3    H2 1759   5.111   0.696   0.607
  585TIP3   OH2 1760   2.844   5.644   4.299
  585TIP3    H1 1761   2.907   5.622   4.367
  585TIP3    H2 1762   2.806   5.728   4.327
  586TIP3   OH2 1763   6.192   1.933   1.216
  586TIP3    H1 1764   6.100   1.953   1.231
  586TIP3    H2 1765   6.233   2.018   1.201
  587TIP3   OH2 1766   4.773   3.457   3.024
  587TIP3    H1 1767   4.688   3.417   3.008
  587TIP3    H2 1768   4.835   3.402   2.976
  588TIP3   OH2 1769   4.624   2.638   2.307
  588TIP3    H1 1770   4.626   2.681   2.392
  588TIP3    H2 1771   4.690   2.684   2.255
  589TIP3   OH2 1772   0.288   1.140   1.766
  589TIP3    H1 1773   0.288   1.045   1.768
  589TIP3    H2 1774   0.280   1.163   1.674
  590TIP3   OH2 1775   0.618   5.841   1.316
  590TIP3    H1 1776   0.538   5.859   1.367
  590TIP3    H2 1777   0.607   5.751   1.286
  591TIP3   OH2 1778   0.800   1.023   0.705
  591TIP3    H1 1779   0.753   1.056   0.628
  591TIP3    H2 1780   0.870   0.969   0.669
  592TIP3   OH2 1781   3.159   3.766   0.130
  592TIP3    H1 1782   3.149   3.853   0.090
  592TIP3    H2 1783   3.243   3.770   0.176
  593TIP3   OH2 1784   0.379   5.818   0.969
  593TIP3    H1 1785   0.419   5.862   1.044
  593TIP3    H2 1786   0.445   5.757   0.938
  594TIP3   OH2 1787   4.359   1.944   0.375
  594TIP3    H1 1788   4.389   1.964   0.286
  594TIP3    H2 1789   4.362   2.028   0.420
  595TIP3   OH2 1790   2.769   1.857   1.202
  595TIP3    H1 1791   2.841   1.891   1.149
  595TIP3    H2 1792   2.803   1.851   1.291
  596TIP3   OH2 1793   0.662   2.624   0.600
  596TIP3    H1 1794   0.622   2.569   0.668
  596TIP3    H2 1795   0.688   2.704   0.646
  597TIP3   OH2 1796   3.457   4.649   5.155
  597TIP3    H1 1797   3.541   4.606   5.169
  597TIP3    H2 1798   3.473   4.741   5.177
  598TIP3   OH2 1799   0.440   5.513   2.979
  598TIP3    H1 1800   0.519   5.527   3.031
  598TIP3    H2 1801   0.395   5.598   2.980
  599TIP3   OH2 1802   3.337   2.697   0.109
  599TIP3    H1 1803   3.243   2.688   0.127
  599TIP3    H2 1804   3.379   2.648   0.180
  600TIP3   OH2 1805   3.129   0.029   4.600
  600TIP3    H1 1806   3.088   0.114   4.611
  600TIP3    H2 1807   3.215   0.048   4.562
  601TIP3   OH2 1808   0.966   4.682   0.631
  601TIP3    H1 1809   0.990   4.612   0.692
  601TIP3    H2 1810   0.934   4.636   0.554
  602TIP3   OH2 1811   0.668   4.181   2.318
  602TIP3    H1 1812   0.606   4.178   2.245
  602TIP3    H2 1813   0.623   4.133   2.388
  603TIP3   OH2 1814   4.216   0.534   1.870
  603TIP3    H1 1815   4.147   0.552   1.807
  603TIP3    H2 1816   4.220   0.612   1.925
  604TIP3   OH2 1817   2.975   1.046   3.733
  604TIP3    H1 1818   3.045   1.008   3.786
  604TIP3    H2 1819   2.901   0.987   3.745
  605TIP3   OH2 1820   5.847   1.380   2.708
  605TIP3    H1 1821   5.860   1.448   2.642
  605TIP3    H2 1822   5.789   1.316   2.667
  606TIP3   OH2 1823   5.548   2.127   5.047
  606TIP3    H1 1824   5.522   2.038   5.027
  606TIP3    H2 1825   5.484   2.157   5.111
  607TIP3   OH2 1826   0.372   3.387   0.136
  607TIP3    H1 1827   0.449   3.441   0.151
  607TIP3    H2 1828   0.408   3.299   0.123
  608TIP3   OH2 1829   2.737   4.771   0.398
  608TIP3    H1 1830   2.735   4.710   0.324
  608TIP3    H2 1831   2.828   4.798   0.405
  609TIP3   OH2 1832   6.288   4.618   4.073
  609TIP3    H1 1833   6.235   4.698   4.071
  609TIP3    H2 1834   6.248   4.561   4.008
  610TIP3   OH2 1835   4.285   5.451   0.761
  610TIP3    H1 1836   4.357   5.508   0.732
  610TIP3    H2 1837   4.322   5.363   0.760
  611TIP3   OH2 1838   0.972   2.829   4.076
  611TIP3    H1 1839   1.019   2.900   4.120
  611TIP3    H2 1840   1.030   2.801   4.005
  612TIP3   OH2 1841   5.100   3.416   2.329
  612TIP3    H1 1842   5.196   3.418   2.323
  612TIP3    H2 1843   5.074   3.508   2.329
  613TIP3   OH2 1844   5.408   5.974   4.249
  613TIP3    H1 1845   5.427   5.910   4.181
  613TIP3    H2 1846   5.317   5.958   4.273
  614TIP3   OH2 1847   4.819   1.049   3.494
  614TIP3    H1 1848   4.841   1.106   3.567
  614TIP3    H2 1849   4.886   0.981   3.496
  615TIP3   OH2 1850   5.352   3.512   4.666
  615TIP3    H1 1851   5.287   3.475   4.607
  615TIP3    H2 1852   5.415   3.441   4.681
  616TIP3   OH2 1853   4.025   0.532   4.542
  616TIP3    H1 1854   4.117   0.513   4.562
  616TIP3    H2 1855   3.978   0.453   4.566
  617TIP3   OH2 1856   0.029   4.387   1.148
  617TIP3    H1 1857   0.091   4.460   1.151
  617TIP3    H2 1858  -0.034   4.406   1.217
  618TIP3   OH2 1859   1.326   4.106   2.778
  618TIP3    H1 1860   1.391   4.091   2.710
  618TIP3    H2 1861   1.283   4.187   2.752
  619TIP3   OH2 1862   2.840   3.767   0.806
  619TIP3    H1 1863   2.834   3.843   0.863
  619TIP3    H2 1864   2.883   3.799   0.727
  620TIP3   OH2 1865   1.753   5.416   0.500
  620TIP3    H1 1866   1.714   5.448   0.581
  620TIP3    H2 1867   1.687   5.358   0.463
  621TIP3   OH2 1868   6.162   5.243   0.797
  621TIP3    H1 1869   6.227   5.189   0.753
  621TIP3    H2 1870   6.080   5.195   0.788
  622TIP3   OH2 1871   2.426   1.072   3.280
  622TIP3    H1 1872   2.522   1.076   3.288
  622TIP3    H2 1873   2.410   1.004   3.215
  623TIP3   OH2 1874   3.219   2.214   4.829
  623TIP3    H1 1875   3.229   2.309   4.827
  623TIP3    H2 1876   3.296   2.181   4.781
  624TIP3   OH2 1877   1.808   5.871   2.339
  624TIP3    H1 1878   1.866   5.947   2.341
  624TIP3    H2 1879   1.741   5.895   2.275
  625TIP3   OH2 1880   1.703   5.918   1.240
  625TIP3    H1 1881   1.683   5.966   1.160
  625TIP3    H2 1882   1.792   5.944   1.263
  626TIP3   OH2 1883   3.603   2.634   1.714
  626TIP3    H1 1884   3.523   2.683   1.732
  626TIP3    H2 1885   3.615   2.580   1.792
  627TIP3   OH2 1886   1.644   3.681   2.447
  627TIP3    H1 1887   1.679   3.752   2.500
  627TIP3    H2 1888   1.716   3.653   2.392
  628TIP3   OH2 1889   4.956   4.695   3.311
  628TIP3    H1 1890   4.906   4.772   3.337
  628TIP3    H2 1891   5.006   4.724   3.234
  629TIP3   OH2 1892   2.460   3.835   3.391
  629TIP3    H1 1893   2.398   3.880   3.447
  629TIP3    H2 1894   2.505   3.773   3.449
  630TIP3   OH2 1895   5.589   5.497   1.259
  630TIP3    H1 1896   5.607   5.519   1.167
  630TIP3    H2 1897   5.494   5.481   1.261
  631TIP3   OH2 1898   0.976   0.639   4.324
  631TIP3    H1 1899   0.964   0.733   4.332
  631TIP3    H2 1900   1.040   0.628   4.254
  632TIP3   OH2 1901   3.751   0.718   4.091
  632TIP3    H1 1902   3.734   0.707   4.185
  632TIP3    H2 1903   3.710   0.802   4.070
  633TIP3   OH2 1904   2.905   5.237   4.371
  633TIP3    H1 1905   2.871   5.154   4.406
  633TIP3    H2 1906   2.835   5.300   4.388
  634TIP3   OH2 1907   5.198   3.826   0.825
  634TIP3    H1 1908   5.196   3.850   0.733
  634TIP3    H2 1909   5.288   3.844   0.852
  635TIP3   OH2 1910   5.070   1.011   0.870
  635TIP3    H1 1911   5.144   1.065   0.895
  635TIP3    H2 1912   4.998   1.073   0.856
  636TIP3   OH2 1913   4.591   3.201   2.621
  636TIP3    H1 1914   4.678   3.183   2.587
  636TIP3    H2 1915   4.584   3.148   2.701
  637TIP3   OH2 1916   2.144   5.687   1.043
  637TIP3    H1 1917   2.162   5.596   1.066
  637TIP3    H2 1918   2.216   5.737   1.083
  638TIP3   OH2 1919   3.124   4.118   5.034
  638TIP3    H1 1920   3.067   4.193   5.049
  638TIP3    H2 1921   3.177   4.112   5.114
  639TIP3   OH2 1922   1.535   3.897   1.031
  639TIP3    H1 1923   1.493   3.929   0.952
  639TIP3    H2 1924   1.465   3.852   1.079
  640TIP3   OH2 1925   6.020   2.974   2.802
  640TIP3    H1 1926   5.947   3.009   2.852
  640TIP3    H2 1927   5.980   2.918   2.736
  641TIP3   OH2 1928   0.738   1.693   4.138
  641TIP3    H1 1929   0.762   1.634   4.067
  641TIP3    H2 1930   0.688   1.639   4.199
  642TIP3   OH2 1931   5.107   4.927   0.506
  642TIP3    H1 1932   5.089   4.845   0.551
  642TIP3    H2 1933   5.062   4.994   0.558
  643TIP3   OH2 1934   4.509   4.697   4.308
  643TIP3    H1 1935   4.523   4.637   4.235
  643TIP3    H2 1936   4.439   4.755   4.278
  644TIP3   OH2 1937   3.333   1.463   3.004
  644TIP3    H1 1938   3.392   1.525   2.962
  644TIP3    H2 1939   3.282   1.426   2.932
  645TIP3   OH2 1940   4.096   2.255   1.877
  645TIP3    H1 1941   4.030   2.244   1.808
  645TIP3    H2 1942   4.127   2.166   1.894
  646TIP3   OH2 1943   5.388   3.411   2.387
  646TIP3    H1 1944   5.437   3.383   2.464
  646TIP3    H2 1945   5.393   3.338   2.326
  647TIP3   OH2 1946   3.405   5.108   1.686
  647TIP3    H1 1947   3.406   5.112   1.590
  647TIP3    H2 1948   3.463   5.034   1.707
  648TIP3   OH2 1949   4.316   2.540   3.259
  648TIP3    H1 1950   4.405   2.509   3.240
  648TIP3    H2 1951   4.260   2.488   3.202
  649TIP3   OH2 1952   2.613   3.894   2.611
  649TIP3    H1 1953   2.692   3.912   2.559
  649TIP3    H2 1954   2.646   3.847   2.688
  650TIP3   OH2 1955   5.776   4.083   2.260
  650TIP3    H1 1956   5.822   4.151   2.309
  650TIP3    H2 1957   5.844   4.018   2.240
  651TIP3   OH2 1958   3.971   5.828   4.318
  651TIP3    H1 1959   3.966   5.733   4.309
  651TIP3    H2 1960   4.063   5.848   4.301
  652TIP3   OH2 1961   3.059   5.643   4.770
  652TIP3    H1 1962   3.002   5.683   4.835
  652TIP3    H2 1963   3.130   5.706   4.757
  653TIP3   OH2 1964   3.745   2.436   3.170
  653TIP3    H1 1965   3.773   2.525   3.148
  653TIP3    H2 1966   3.723   2.441   3.263
  654TIP3   OH2 1967   3.452   1.698   4.582
  654TIP3    H1 1968   3.402   1.662   4.509
  654TIP3    H2 1969   3.513   1.759   4.541
  655TIP3   OH2 1970   5.905   5.445   3.914
  655TIP3    H1 1971   5.912   5.522   3.857
  655TIP3    H2 1972   5.847   5.473   3.985
  656TIP3   OH2 1973   3.830   1.739   2.462
  656TIP3    H1 1974   3.793   1.789   2.389
  656TIP3    H2 1975   3.755   1.720   2.519
  657TIP3   OH2 1976   2.983   2.379   3.118
  657TIP3    H1 1977   2.954   2.298   3.160
  657TIP3    H2 1978   3.042   2.420   3.182
  658TIP3   OH2 1979   1.403   1.844   1.759
  658TIP3    H1 1980   1.368   1.778   1.699
  658TIP3    H2 1981   1.372   1.818   1.845
  659TIP3   OH2 1982   4.710   1.682   2.767
  659TIP3    H1 1983   4.772   1.610   2.759
  659TIP3    H2 1984   4.669   1.669   2.852
  660TIP3   OH2 1985   4.015   1.182   1.443
  660TIP3    H1 1986   3.959   1.125   1.496
  660TIP3    H2 1987   3.998   1.155   1.352
  661TIP3   OH2 1988   2.457   1.395   2.165
  661TIP3    H1 1989   2.486   1.311   2.130
  661TIP3    H2 1990   2.537   1.442   2.185
  662TIP3   OH2 1991   3.001   3.546   0.900
  662TIP3    H1 1992   3.083   3.554   0.949
  662TIP3    H2 1993   2.973   3.636   0.884
  663TIP3   OH2 1994   3.415   4.447   2.160
  663TIP3    H1 1995   3.470   4.407   2.093
  663TIP3    H2 1996   3.422   4.388   2.235
  664TIP3   OH2 1997   6.335   4.898   1.470
  664TIP3    H1 1998   6.242   4.884   1.452
  664TIP3    H2 1999   6.339   4.982   1.516
  665TIP3   OH2 2000   3.650   0.664   1.342
  665TIP3    H1 2001   3.603   0.607   1.282
  665TIP3    H2 2002   3.650   0.616   1.425
  666TIP3   OH2 2003   4.586   3.997   1.953
  666TIP3    H1 2004   4.632   3.966   1.875
  666TIP3    H2 2005   4.651   4.051   1.998
  667TIP3   OH2 2006   5.715   3.868   1.760
  667TIP3    H1 2007   5.623   3.892   1.750
  667TIP3    H2 2008   5.763   3.949   1.744
  668TIP3   OH2 2009   2.529   5.579   2.517
  668TIP3    H1 2010   2.470   5.629   2.574
  668TIP3    H2 2011   2.524   5.489   2.549
  669TIP3   OH2 2012   2.914   0.584   4.580
  669TIP3    H1 2013   2.915   0.529   4.659
  669TIP3    H2 2014   3.007   0.597   4.560
  670TIP3   OH2 2015   6.197   1.071   4.865
  670TIP3    H1 2016   6.120   1.021   4.839
  670TIP3    H2 2017   6.172   1.113   4.947
  671TIP3   OH2 2018   5.383   5.847   0.457
  671TIP3    H1 2019   5.404   5.884   0.542
  671TIP3    H2 2020   5.330   5.914   0.414
  672TIP3   OH2 2021   1.172   3.308   3.914
  672TIP3    H1 2022   1.193   3.231   3.967
  672TIP3    H2 2023   1.235   3.304   3.842
  673TIP3   OH2 2024   1.292   0.900   0.322
  673TIP3    H1 2025   1.294   0.807   0.343
  673TIP3    H2 2026   1.222   0.935   0.378
  674TIP3   OH2 2027   1.568   0.168   0.452
  674TIP3    H1 2028   1.632   0.166   0.381
  674TIP3    H2 2029   1.620   0.183   0.531
  675TIP3   OH2 2030   0.438   0.267   0.918
  675TIP3    H1 2031   0.360   0.321   0.908
  675TIP3    H2 2032   0.427   0.197   0.853
  676TIP3   OH2 2033   3.193   2.104   2.122
  676TIP3    H1 2034   3.222   2.039   2.058
  676TIP3    H2 2035   3.131   2.057   2.177
  677TIP3   OH2 2036   4.392   5.182   2.823
  677TIP3    H1 2037   4.308   5.182   2.868
  677TIP3    H2 2038   4.399   5.094   2.785
  678TIP3   OH2 2039   3.114   3.339   0.283
  678TIP3    H1 2040   3.179   3.389   0.334
  678TIP3    H2 2041   3.165   3.300   0.212
  679TIP3   OH2 2042   1.988   0.304   1.469
  679TIP3    H1 2043   1.996   0.231   1.530
  679TIP3    H2 2044   2.027   0.378   1.515
  680TIP3   OH2 2045   0.054   4.675   0.941
  680TIP3    H1 2046   0.041   4.757   0.893
  680TIP3    H2 2047   0.025   4.695   1.030
  681TIP3   OH2 2048   2.427   4.714   2.291
  681TIP3    H1 2049   2.362   4.774   2.328
  681TIP3    H2 2050   2.436   4.741   2.200
  682TIP3   OH2 2051   1.304   2.394   4.253
  682TIP3    H1 2052   1.377   2.425   4.199
  682TIP3    H2 2053   1.345   2.357   4.331
  683TIP3   OH2 2054   1.236   3.135   3.208
  683TIP3    H1 2055   1.260   3.149   3.116
  683TIP3    H2 2056   1.214   3.042   3.212
  684TIP3   OH2 2057   2.191   0.949   1.040
  684TIP3    H1 2058   2.156   0.987   0.959
  684TIP3    H2 2059   2.113   0.924   1.090
  685TIP3   OH2 2060   3.243   3.908   1.160
  685TIP3    H1 2061   3.155   3.928   1.193
  685TIP3    H2 2062   3.299   3.912   1.237
  686TIP3   OH2 2063   5.175   5.371   0.524
  686TIP3    H1 2064   5.197   5.341   0.613
  686TIP3    H2 2065   5.187   5.293   0.469
  687TIP3   OH2 2066   1.769   4.042   0.973
  687TIP3    H1 2067   1.695   3.988   0.948
  687TIP3    H2 2068   1.785   4.019   1.065
  688TIP3   OH2 2069   0.576   2.767   4.252
  688TIP3    H1 2070   0.605   2.773   4.161
  688TIP3    H2 2071   0.656   2.763   4.303
  689TIP3   OH2 2072   1.656   4.020   3.161
  689TIP3    H1 2073   1.582   3.959   3.162
  689TIP3    H2 2074   1.697   4.009   3.247
  690TIP3   OH2 2075   2.912   5.649   5.006
  690TIP3    H1 2076   2.981   5.584   4.994
  690TIP3    H2 2077   2.831   5.599   5.002
  691TIP3   OH2 2078   4.537   5.229   0.730
  691TIP3    H1 2079   4.457   5.178   0.714
  691TIP3    H2 2080   4.608   5.165   0.726
  692TIP3   OH2 2081   4.307   1.669   2.471
  692TIP3    H1 2082   4.359   1.722   2.532
  692TIP3    H2 2083   4.372   1.627   2.415
  693TIP3   OH2 2084   1.655   5.708   3.100
  693TIP3    H1 2085   1.702   5.683   3.020
  693TIP3    H2 2086   1.663   5.631   3.157
  694TIP3   OH2 2087   5.663   3.375   1.161
  694TIP3    H1 2088   5.726   3.326   1.213
  694TIP3    H2 2089   5.578   3.358   1.202
  695TIP3   OH2 2090   1.156   1.399   1.217
  695TIP3    H1 2091   1.072   1.366   1.186
  695TIP3    H2 2092   1.145   1.409   1.311
  696TIP3   OH2 2093   2.540   4.952   0.310
  696TIP3    H1 2094   2.555   5.021   0.375
  696TIP3    H2 2095   2.597   4.880   0.338
  697TIP3   OH2 2096   2.913   3.101   4.814
  697TIP3    H1 2097   2.841   3.163   4.832
  697TIP3    H2 2098   2.962   3.097   4.895
  698TIP3   OH2 2099   2.974   1.303   2.545
  698TIP3    H1 2100   2.972   1.369   2.476
  698TIP3    H2 2101   2.913   1.336   2.611
  699TIP3   OH2 2102   5.729   3.881   3.191
  699TIP3    H1 2103   5.823   3.862   3.192
  699TIP3    H2 2104   5.694   3.828   3.263
  700TIP3   OH2 2105   5.321   0.843   1.236
  700TIP3    H1 2106   5.350   0.809   1.320
  700TIP3    H2 2107   5.253   0.907   1.257
  701TIP3   OH2 2108   4.868   1.651   4.698
  701TIP3    H1 2109   4.802   1.681   4.636
  701TIP3    H2 2110   4.825   1.581   4.747
  702TIP3   OH2 2111   2.729   1.946   3.556
  702TIP3    H1 2112   2.812   1.993   3.547
  702TIP3    H2 2113   2.682   1.992   3.626
  703TIP3   OH2 2114   2.313   3.096   0.523
  703TIP3    H1 2115   2.273   3.036   0.586
  703TIP3    H2 2116   2.286   3.183   0.551
  704TIP3   OH2 2117   5.158   0.812   1.757
  704TIP3    H1 2118   5.158   0.719   1.734
  704TIP3    H2 2119   5.143   0.857   1.674
  705TIP3   OH2 2120   5.255   4.637   4.452
  705TIP3    H1 2121   5.283   4.604   4.367
  705TIP3    H2 2122   5.160   4.624   4.453
  706TIP3   OH2 2123   6.061   2.820   3.309
  706TIP3    H1 2124   5.996   2.801   3.375
  706TIP3    H2 2125   6.145   2.800   3.350
  707TIP3   OH2 2126   4.113   1.563   4.795
  707TIP3    H1 2127   4.114   1.640   4.851
  707TIP3    H2 2128   4.055   1.586   4.722
  708TIP3   OH2 2129   4.184   0.740   3.756
  708TIP3    H1 2130   4.111   0.716   3.813
  708TIP3    H2 2131   4.262   0.722   3.807
  709TIP3   OH2 2132   4.929   2.372   4.357
  709TIP3    H1 2133   4.973   2.344   4.277
  709TIP3    H2 2134   4.945   2.466   4.362
  710TIP3   OH2 2135   4.118   4.569   0.853
  710TIP3    H1 2136   4.086   4.630   0.920
  710TIP3    H2 2137   4.039   4.543   0.806
  711TIP3   OH2 2138   0.778   5.502   4.545
  711TIP3    H1 2139   0.768   5.588   4.503
  711TIP3    H2 2140   0.864   5.505   4.586
  712TIP3   OH2 2141   2.135   4.134   1.557
  712TIP3    H1 2142   2.164   4.176   1.638
  712TIP3    H2 2143   2.159   4.042   1.568
  713TIP3   OH2 2144   3.894   5.594   4.816
  713TIP3    H1 2145   3.833   5.653   4.772
  713TIP3    H2 2146   3.936   5.648   4.882
  714TIP3   OH2 2147   2.660   3.417   3.691
  714TIP3    H1 2148   2.585   3.374   3.733
  714TIP3    H2 2149   2.731   3.353   3.697
  715TIP3   OH2 2150   0.871   0.221   1.116
  715TIP3    H1 2151   0.800   0.285   1.126
  715TIP3    H2 2152   0.836   0.156   1.055
  716TIP3   OH2 2153   1.821   5.353   4.827
  716TIP3    H1 2154   1.734   5.320   4.805
  716TIP3    H2 2155   1.855   5.387   4.744
  717TIP3   OH2 2156   1.085   2.549   4.299
  717TIP3    H1 2157   1.134   2.480   4.254
  717TIP3    H2 2158   1.146   2.622   4.307
  718TIP3   OH2 2159   4.661   3.356   0.256
  718TIP3    H1 2160   4.634   3.447   0.265
  718TIP3    H2 2161   4.714   3.338   0.334
  719TIP3   OH2 2162   0.236   4.477   1.794
  719TIP3    H1 2163   0.191   4.422   1.730
  719TIP3    H2 2164   0.173   4.547   1.813
  720TIP3   OH2 2165   4.291   3.283   1.598
  720TIP3    H1 2166   4.210   3.251   1.639
  720TIP3    H2 2167   4.263   3.356   1.543
  721TIP3   OH2 2168   5.794   3.766   1.262
  721TIP3    H1 2169   5.824   3.704   1.328
  721TIP3    H2 2170   5.721   3.812   1.303
  722TIP3   OH2 2171   0.161   2.464   3.007
  722TIP3    H1 2172   0.083   2.493   2.960
  722TIP3    H2 2173   0.190   2.542   3.055
  723TIP3   OH2 2174   5.239   1.973   0.714
  723TIP3    H1 2175   5.192   2.054   0.691
  723TIP3    H2 2176   5.330   2.001   0.726
  724TIP3   OH2 2177   3.945   5.400   2.872
  724TIP3    H1 2178   4.029   5.361   2.849
  724TIP3    H2 2179   3.881   5.351   2.821
  725TIP3   OH2 2180   2.229   4.942   1.321
  725TIP3    H1 2181   2.183   4.969   1.242
  725TIP3    H2 2182   2.226   4.847   1.321
  726TIP3   OH2 2183   2.811   5.593   1.879
  726TIP3    H1 2184   2.740   5.529   1.872
  726TIP3    H2 2185   2.767   5.675   1.904
  727TIP3   OH2 2186   1.728   0.095   1.095
  727TIP3    H1 2187   1.792   0.052   1.151
  727TIP3    H2 2188   1.682   0.156   1.154
  728TIP3   OH2 2189   6.015   1.965   2.403
  728TIP3    H1 2190   5.970   1.929   2.480
  728TIP3    H2 2191   6.072   1.894   2.374
  729TIP3   OH2 2192   1.394   0.944   3.499
  729TIP3    H1 2193   1.466   0.881   3.504
  729TIP3    H2 2194   1.341   0.914   3.424
  730TIP3   OH2 2195   6.268   5.098   3.019
  730TIP3    H1 2196   6.215   5.071   2.944
  730TIP3    H2 2197   6.358   5.077   2.995
  731TIP3   OH2 2198   2.253   4.733   1.659
  731TIP3    H1 2199   2.324   4.777   1.614
  731TIP3    H2 2200   2.257   4.766   1.749
  732TIP3   OH2 2201   0.523   1.025   2.987
  732TIP3    H1 2202   0.441   1.069   2.963
  732TIP3    H2 2203   0.516   0.938   2.947
  733TIP3   OH2 2204   6.322   4.796   1.192
  733TIP3    H1 2205   6.354   4.849   1.266
  733TIP3    H2 2206   6.229   4.781   1.212
  734TIP3   OH2 2207   1.742   5.399   3.516
  734TIP3    H1 2208   1.778   5.482   3.548
  734TIP3    H2 2209   1.754   5.338   3.589
  735TIP3   OH2 2210   4.575   1.430   2.512
  735TIP3    H1 2211   4.632   1.506   2.498
  735TIP3    H2 2212   4.555   1.398   2.424
  736TIP3   OH2 2213   4.100   4.865   3.584
  736TIP3    H1 2214   4.026   4.805   3.589
  736TIP3    H2 2215   4.130   4.874   3.674
  737TIP3   OH2 2216   3.998   4.044   3.397
  737TIP3    H1 2217   4.019   4.121   3.450
  737TIP3    H2 2218   3.911   4.017   3.426
  738TIP3   OH2 2219   2.293   1.271   5.195
  738TIP3    H1 2220   2.214   1.318   5.170
  738TIP3    H2 2221   2.338   1.253   5.113
  739TIP3   OH2 2222   0.900   2.036   4.430
  739TIP3    H1 2223   0.978   2.091   4.424
  739TIP3    H2 2224   0.906   1.996   4.517
  740TIP3   OH2 2225   0.757   3.032   1.186
  740TIP3    H1 2226   0.680   2.975   1.196
  740TIP3    H2 2227   0.769   3.041   1.092
  741TIP3   OH2 2228   3.916   1.588   2.693
  741TIP3    H1 2229   3.944   1.662   2.640
  741TIP3    H2 2230   3.921   1.619   2.783
  742TIP3   OH2 2231   4.734   0.650   4.841
  742TIP3    H1 2232   4.808   0.674   4.898
  742TIP3    H2 2233   4.755   0.562   4.811
  743TIP3   OH2 2234   0.091   5.864   2.909
  743TIP3    H1 2235  -0.004   5.867   2.914
  743TIP3    H2 2236   0.112   5.772   2.892
  744TIP3   OH2 2237   5.719   0.880   1.467
  744TIP3    H1 2238   5.741   0.929   1.388
  744TIP3    H2 2239   5.671   0.804   1.436
  745TIP3   OH2 2240   0.318   2.179   1.898
  745TIP3    H1 2241   0.266   2.148   1.972
  745TIP3    H2 2242   0.254   2.209   1.834
  746TIP3   OH2 2243   4.242   2.281   4.444
  746TIP3    H1 2244   4.210   2.195   4.417
  746TIP3    H2 2245   4.287   2.266   4.527
  747TIP3   OH2 2246   1.494   5.796   2.436
  747TIP3    H1 2247   1.436   5.721   2.428
  747TIP3    H2 2248   1.564   5.779   2.373
  748TIP3   OH2 2249   1.172   1.126   4.141
  748TIP3    H1 2250   1.089   1.077   4.145
  748TIP3    H2 2251   1.169   1.184   4.217
  749TIP3   OH2 2252   3.129   5.026   0.841
  749TIP3    H1 2253   3.045   5.071   0.841
  749TIP3    H2 2254   3.178   5.067   0.769
  750TIP3   OH2 2255   4.494   3.669   2.904
  750TIP3    H1 2256   4.403   3.669   2.932
  750TIP3    H2 2257   4.544   3.679   2.985
  751TIP3   OH2 2258   6.010   3.672   3.745
  751TIP3    H1 2259   6.038   3.763   3.733
  751TIP3    H2 2260   6.092   3.623   3.755
  752TIP3   OH2 2261   5.469   5.270   0.962
  752TIP3    H1 2262   5.430   5.354   0.987
  752TIP3    H2 2263   5.562   5.280   0.982
  753TIP3   OH2 2264   5.889   5.731   1.739
  753TIP3    H1 2265   5.930   5.645   1.733
  753TIP3    H2 2266   5.820   5.720   1.805
  754TIP3   OH2 2267   1.390   4.551   2.199
  754TIP3    H1 2268   1.429   4.637   2.213
  754TIP3    H2 2269   1.459   4.489   2.222
  755TIP3   OH2 2270   4.340   2.503   2.224
  755TIP3    H1 2271   4.254   2.462   2.216
  755TIP3    H2 2272   4.329   2.571   2.291
  756TIP3   OH2 2273   1.941   1.379   1.063
  756TIP3    H1 2274   1.956   1.409   1.153
  756TIP3    H2 2275   1.912   1.458   1.016
  757TIP3   OH2 2276   3.382   5.127   4.318
  757TIP3    H1 2277   3.319   5.174   4.264
  757TIP3    H2 2278   3.410   5.191   4.383
  758TIP3   OH2 2279   6.327   0.336   2.098
  758TIP3    H1 2280   6.321   0.254   2.148
  758TIP3    H2 2281   6.245   0.381   2.116
  759TIP3   OH2 2282   0.155   1.249   2.706
  759TIP3    H1 2283   0.066   1.274   2.732
  759TIP3    H2 2284   0.194   1.331   2.675
  760TIP3   OH2 2285   0.998   5.348   3.844
  760TIP3    H1 2286   1.021   5.357   3.752
  760TIP3    H2 2287   1.077   5.374   3.891
  761TIP3   OH2 2288   1.178   2.359   2.318
  761TIP3    H1 2289   1.237   2.325   2.386
  761TIP3    H2 2290   1.227   2.350   2.237
  762TIP3   OH2 2291   3.647   5.538   2.873
  762TIP3    H1 2292   3.693   5.481   2.811
  762TIP3    H2 2293   3.560   5.550   2.835
  763TIP3   OH2 2294   2.811   2.781   4.456
  763TIP3    H1 2295   2.843   2.846   4.518
  763TIP3    H2 2296   2.762   2.719   4.510
  764TIP3   OH2 2297   3.546   4.339   0.108
  764TIP3    H1 2298   3.455   4.358   0.130
  764TIP3    H2 2299   3.543   4.255   0.062
  765TIP3   OH2 2300   4.569   0.369   0.834
  765TIP3    H1 2301   4.592   0.429   0.905
  765TIP3    H2 2302   4.505   0.309   0.873
  766TIP3   OH2 2303   5.720   1.486   1.272
  766TIP3    H1 2304   5.781   1.551   1.308
  766TIP3    H2 2305   5.752   1.403   1.307
  767TIP3   OH2 2306   6.058   3.883   2.451
  767TIP3    H1 2307   6.043   3.927   2.535
  767TIP3    H2 2308   6.054   3.789   2.472
  768TIP3   OH2 2309   5.091   4.397   0.956
  768TIP3    H1 2310   5.049   4.425   0.875
  768TIP3    H2 2311   5.166   4.345   0.927
  769TIP3   OH2 2312   0.761   2.927   4.885
  769TIP3    H1 2313   0.730   2.900   4.798
  769TIP3    H2 2314   0.735   3.019   4.891
  770TIP3   OH2 2315   0.796   1.569   3.271
  770TIP3    H1 2316   0.806   1.529   3.184
  770TIP3    H2 2317   0.721   1.523   3.309
  771TIP3   OH2 2318   1.177   4.658   4.395
  771TIP3    H1 2319   1.087   4.665   4.362
  771TIP3    H2 2320   1.186   4.732   4.455
  772TIP3   OH2 2321   3.513   3.854   4.501
  772TIP3    H1 2322   3.527   3.759   4.496
  772TIP3    H2 2323   3.601   3.890   4.512
  773TIP3   OH2 2324   6.358   0.326   2.856
  773TIP3    H1 2325   6.360   0.288   2.768
  773TIP3    H2 2326   6.291   0.276   2.902
  774TIP3   OH2 2327   1.876   2.228   0.983
  774TIP3    H1 2328   1.781   2.226   0.969
  774TIP3    H2 2329   1.900   2.319   0.966
  775TIP3   OH2 2330   5.256   3.403   3.604
  775TIP3    H1 2331   5.194   3.440   3.667
  775TIP3    H2 2332   5.273   3.314   3.636
  776TIP3   OH2 2333   2.377   5.602   0.311
  776TIP3    H1 2334   2.406   5.679   0.262
  776TIP3    H2 2335   2.316   5.558   0.252
  777TIP3   OH2 2336   1.921   1.281   3.648
  777TIP3    H1 2337   1.865   1.350   3.685
  777TIP3    H2 2338   1.930   1.304   3.556
  778TIP3   OH2 2339   4.550   1.377   0.358
  778TIP3    H1 2340   4.502   1.443   0.308
  778TIP3    H2 2341   4.510   1.294   0.331
  779TIP3   OH2 2342   5.814   5.000   4.386
  779TIP3    H1 2343   5.802   4.982   4.293
  779TIP3    H2 2344   5.845   5.090   4.390
  780TIP3   OH2 2345   3.713   4.172   2.303
  780TIP3    H1 2346   3.708   4.140   2.213
  780TIP3    H2 2347   3.800   4.145   2.334
  781TIP3   OH2 2348   1.254   4.485   3.328
  781TIP3    H1 2349   1.224   4.395   3.343
  781TIP3    H2 2350   1.347   4.476   3.305
  782TIP3   OH2 2351   1.369   4.839   2.718
  782TIP3    H1 2352   1.372   4.850   2.813
  782TIP3    H2 2353   1.278   4.859   2.695
  783TIP3   OH2 2354   2.553   2.526   2.908
  783TIP3    H1 2355   2.611   2.504   2.981
  783TIP3    H2 2356   2.594   2.604   2.869
  784TIP3   OH2 2357   2.430   3.394   2.196
  784TIP3    H1 2358   2.337   3.373   2.202
  784TIP3    H2 2359   2.457   3.362   2.110
  785TIP3   OH2 2360   0.491   0.911   0.098
  785TIP3    H1 2361   0.476   0.905   0.004
  785TIP3    H2 2362   0.571   0.962   0.106
  786TIP3   OH2 2363   3.132   3.867   4.803
  786TIP3    H1 2364   3.113   3.925   4.730
  786TIP3    H2 2365   3.065   3.798   4.798
  787TIP3   OH2 2366   4.998   5.693   5.149
  787TIP3    H1 2367   4.928   5.658   5.204
  787TIP3    H2 2368   4.957   5.706   5.064
  788TIP3   OH2 2369   1.283   3.069   3.511
  788TIP3    H1 2370   1.317   3.127   3.443
  788TIP3    H2 2371   1.326   3.097   3.591
  789TIP3   OH2 2372   0.648   3.761   4.148
  789TIP3    H1 2373   0.717   3.695   4.156
  789TIP3    H2 2374   0.664   3.803   4.064
  790TIP3   OH2 2375   2.122   4.936   4.543
  790TIP3    H1 2376   2.155   4.878   4.475
  790TIP3    H2 2377   2.090   4.877   4.612
  791TIP3   OH2 2378   2.922   4.430   0.306
  791TIP3    H1 2379   2.879   4.456   0.388
  791TIP3    H2 2380   2.849   4.403   0.249
  792TIP3   OH2 2381   5.891   2.157   1.610
  792TIP3    H1 2382   5.917   2.165   1.701
  792TIP3    H2 2383   5.884   2.247   1.578
  793TIP3   OH2 2384   0.389   0.771   0.471
  793TIP3    H1 2385   0.399   0.776   0.566
  793TIP3    H2 2386   0.476   0.788   0.436
  794TIP3   OH2 2387   0.615   4.816   4.305
  794TIP3    H1 2388   0.627   4.767   4.386
  794TIP3    H2 2389   0.543   4.770   4.260
  795TIP3   OH2 2390   2.755   1.162   3.116
  795TIP3    H1 2391   2.834   1.127   3.156
  795TIP3    H2 2392   2.724   1.092   3.058
  796TIP3   OH2 2393   5.496   3.664   1.350
  796TIP3    H1 2394   5.522   3.678   1.259
  796TIP3    H2 2395   5.471   3.571   1.353
  797TIP3   OH2 2396   0.302   4.583   3.084
  797TIP3    H1 2397   0.248   4.643   3.032
  797TIP3    H2 2398   0.392   4.610   3.066
  798TIP3   OH2 2399   2.959   2.645   3.684
  798TIP3    H1 2400   2.984   2.667   3.774
  798TIP3    H2 2401   3.030   2.680   3.630
  799TIP3   OH2 2402   3.090   4.234   1.147
  799TIP3    H1 2403   3.112   4.324   1.171
  799TIP3    H2 2404   3.133   4.220   1.063
  800TIP3   OH2 2405   5.071   0.603   4.795
  800TIP3    H1 2406   5.050   0.619   4.704
  800TIP3    H2 2407   5.039   0.681   4.841
  801TIP3   OH2 2408   5.568   2.205   1.411
  801TIP3    H1 2409   5.609   2.173   1.330
  801TIP3    H2 2410   5.533   2.126   1.453
  802TIP3   OH2 2411   3.445   5.606   4.681
  802TIP3    H1 2412   3.452   5.559   4.764
  802TIP3    H2 2413   3.399   5.687   4.703
  803TIP3   OH2 2414   2.103   2.204   4.907
  803TIP3    H1 2415   2.071   2.277   4.961
  803TIP3    H2 2416   2.030   2.142   4.905
  804TIP3   OH2 2417   0.754   3.874   1.803
  804TIP3    H1 2418   0.756   3.922   1.886
  804TIP3    H2 2419   0.807   3.795   1.820
  805TIP3   OH2 2420   2.926   1.195   2.283
  805TIP3    H1 2421   2.970   1.115   2.254
  805TIP3    H2 2422   2.944   1.199   2.377
  806TIP3   OH2 2423   0.039   1.325   0.538
  806TIP3    H1 2424   0.015   1.320   0.631
  806TIP3    H2 2425  -0.022   1.389   0.501
  807TIP3   OH2 2426   3.865   1.203   4.022
  807TIP3    H1 2427   3.927   1.265   3.983
  807TIP3    H2 2428   3.831   1.249   4.099
  808TIP3   OH2 2429   3.145   2.940   4.919
  808TIP3    H1 2430   3.164   3.016   4.975
  808TIP3    H2 2431   3.068   2.900   4.959
  809TIP3   OH2 2432   3.489   2.054   2.646
  809TIP3    H1 2433   3.401   2.077   2.616
  809TIP3    H2 2434   3.481   1.965   2.679
  810TIP3   OH2 2435   2.747   1.248   1.317
  810TIP3    H1 2436   2.712   1.185   1.254
  810TIP3    H2 2437   2.815   1.200   1.365
  811TIP3   OH2 2438   4.180   2.595   0.279
  811TIP3    H1 2439   4.229   2.567   0.356
  811TIP3    H2 2440   4.147   2.682   0.301
  812TIP3   OH2 2441   2.494   2.723   4.115
  812TIP3    H1 2442   2.436   2.653   4.083
  812TIP3    H2 2443   2.491   2.713   4.210
  813TIP3   OH2 2444   0.138   5.514   4.553
  813TIP3    H1 2445   0.137   5.540   4.645
  813TIP3    H2 2446   0.226   5.537   4.523
  814TIP3   OH2 2447   3.478   3.538   1.344
  814TIP3    H1 2448   3.433   3.536   1.429
  814TIP3    H2 2449   3.571   3.539   1.366
  815TIP3   OH2 2450   3.207   4.202   4.761
  815TIP3    H1 2451   3.187   4.154   4.842
  815TIP3    H2 2452   3.301   4.193   4.751
  816TIP3   OH2 2453   4.717   2.013   3.598
  816TIP3    H1 2454   4.771   1.958   3.654
  816TIP3    H2 2455   4.642   1.958   3.575
  817TIP3   OH2 2456   2.232   5.713   2.987
  817TIP3    H1 2457   2.326   5.700   2.969
  817TIP3    H2 2458   2.199   5.625   3.005
  818TIP3   OH2 2459   5.849   3.656   0.407
  818TIP3    H1 2460   5.907   3.609   0.347
  818TIP3    H2 2461   5.894   3.740   0.423
  819TIP3   OH2 2462   1.633   2.480   0.102
  819TIP3    H1 2463   1.709   2.439   0.060
  819TIP3    H2 2464   1.587   2.524   0.030
  820TIP3   OH2 2465   0.122   3.891   2.146
  820TIP3    H1 2466   0.163   3.942   2.075
  820TIP3    H2 2467   0.045   3.942   2.170
  821TIP3   OH2 2468   5.641   3.839   0.341
  821TIP3    H1 2469   5.582   3.776   0.299
  821TIP3    H2 2470   5.721   3.790   0.358
  822TIP3   OH2 2471   1.773   1.280   1.416
  822TIP3    H1 2472   1.685   1.318   1.417
  822TIP3    H2 2473   1.769   1.209   1.480
  823TIP3   OH2 2474   1.498   5.867   2.697
  823TIP3    H1 2475   1.484   5.850   2.604
  823TIP3    H2 2476   1.547   5.949   2.699
  824TIP3   OH2 2477   1.624   3.783   1.368
  824TIP3    H1 2478   1.626   3.852   1.302
  824TIP3    H2 2479   1.566   3.817   1.436
  825TIP3   OH2 2480   0.922   4.830   1.329
  825TIP3    H1 2481   0.902   4.894   1.397
  825TIP3    H2 2482   1.005   4.790   1.358
  826TIP3   OH2 2483   3.421   1.025   3.863
  826TIP3    H1 2484   3.355   1.087   3.832
  826TIP3    H2 2485   3.377   0.975   3.931
  827TIP3   OH2 2486   5.297   4.738   4.751
  827TIP3    H1 2487   5.280   4.743   4.657
  827TIP3    H2 2488   5.268   4.822   4.785
  828TIP3   OH2 2489   3.666   2.087   3.361
  828TIP3    H1 2490   3.582   2.131   3.373
  828TIP3    H2 2491   3.661   2.052   3.272
  829TIP3   OH2 2492   0.078   2.589   4.884
  829TIP3    H1 2493   0.038   2.579   4.971
  829TIP3    H2 2494   0.165   2.626   4.902
  830TIP3   OH2 2495   0.912   2.397   2.394
  830TIP3    H1 2496   0.997   2.353   2.406
  830TIP3    H2 2497   0.926   2.458   2.322
  831TIP3   OH2 2498   6.081   4.852   2.352
  831TIP3    H1 2499   6.053   4.940   2.328
  831TIP3    H2 2500   6.083   4.851   2.447
  832TIP3   OH2 2501   0.060   5.502   4.870
  832TIP3    H1 2502  -0.018   5.514   4.923
  832TIP3    H2 2503   0.052   5.413   4.834
  833TIP3   OH2 2504   1.850   1.949   0.369
  833TIP3    H1 2505   1.794   1.961   0.446
  833TIP3    H2 2506   1.915   2.020   0.376
  834TIP3   OH2 2507   2.412   2.293   1.911
  834TIP3    H1 2508   2.400   2.277   1.818
  834TIP3    H2 2509   2.411   2.206   1.951
  835TIP3   OH2 2510   3.662   5.769   3.021
  835TIP3    H1 2511   3.712   5.761   3.102
  835TIP3    H2 2512   3.673   5.685   2.977
  836TIP3   OH2 2513   2.228   4.701   0.172
  836TIP3    H1 2514   2.260   4.647   0.100
  836TIP3    H2 2515   2.163   4.759   0.132
  837TIP3   OH2 2516   5.568   1.142   1.904
  837TIP3    H1 2517   5.610   1.104   1.981
  837TIP3    H2 2518   5.638   1.147   1.838
  838TIP3   OH2 2519   6.283   5.329   2.367
  838TIP3    H1 2520   6.325   5.300   2.448
  838TIP3    H2 2521   6.193   5.351   2.393
  839TIP3   OH2 2522   5.260   0.199   2.945
  839TIP3    H1 2523   5.219   0.284   2.931
  839TIP3    H2 2524   5.300   0.205   3.031
  840TIP3   OH2 2525   2.950   0.754   3.206
  840TIP3    H1 2526   2.880   0.756   3.271
  840TIP3    H2 2527   3.009   0.686   3.236
  841TIP3   OH2 2528   1.020   1.371   0.159
  841TIP3    H1 2529   1.052   1.423   0.085
  841TIP3    H2 2530   1.096   1.318   0.185
  842TIP3   OH2 2531   1.713   4.595   0.487
  842TIP3    H1 2532   1.791   4.544   0.510
  842TIP3    H2 2533   1.726   4.680   0.529
  843TIP3   OH2 2534   4.547   2.504   5.032
  843TIP3    H1 2535   4.455   2.522   5.013
  843TIP3    H2 2536   4.581   2.585   5.070
  844TIP3   OH2 2537   1.794   1.901   1.173
  844TIP3    H1 2538   1.812   1.989   1.207
  844TIP3    H2 2539   1.767   1.851   1.250
  845TIP3   OH2 2540   3.713   0.007   4.307
  845TIP3    H1 2541   3.740   0.079   4.364
  845TIP3    H2 2542   3.664  -0.052   4.364
  846TIP3   OH2 2543   0.312   5.706   1.343
  846TIP3    H1 2544   0.226   5.684   1.378
  846TIP3    H2 2545   0.360   5.743   1.418
  847TIP3   OH2 2546   1.094   0.408   5.004
  847TIP3    H1 2547   1.041   0.438   4.931
  847TIP3    H2 2548   1.098   0.484   5.063
  848TIP3   OH2 2549   1.339   4.676   1.083
  848TIP3    H1 2550   1.375   4.704   0.999
  848TIP3    H2 2551   1.246   4.698   1.077
  849TIP3   OH2 2552   0.978   5.484   0.895
  849TIP3    H1 2553   1.026   5.537   0.959
  849TIP3    H2 2554   0.957   5.403   0.941
  850TIP3   OH2 2555   3.167   1.313   4.574
  850TIP3    H1 2556   3.211   1.397   4.561
  850TIP3    H2 2557   3.170   1.299   4.669
  851TIP3   OH2 2558   0.492   3.043   2.269
  851TIP3    H1 2559   0.428   2.971   2.264
  851TIP3    H2 2560   0.569   3.010   2.222
  852TIP3   OH2 2561   5.451   0.320   0.798
  852TIP3    H1 2562   5.403   0.324   0.715
  852TIP3    H2 2563   5.384   0.336   0.865
  853TIP3   OH2 2564   1.908   1.715   1.681
  853TIP3    H1 2565   1.978   1.724   1.616
  853TIP3    H2 2566   1.886   1.804   1.705
  854TIP3   OH2 2567   3.998   5.213   3.642
  854TIP3    H1 2568   4.019   5.303   3.668
  854TIP3    H2 2569   3.979   5.168   3.724
  855TIP3   OH2 2570   1.303   2.395   4.932
  855TIP3    H1 2571   1.225   2.339   4.933
  855TIP3    H2 2572   1.350   2.372   5.012
  856TIP3   OH2 2573   2.910   1.949   4.887
  856TIP3    H1 2574   2.867   1.941   4.801
  856TIP3    H2 2575   2.852   1.902   4.947
  857TIP3   OH2 2576   5.368   3.280   3.921
  857TIP3    H1 2577   5.299   3.235   3.871
  857TIP3    H2 2578   5.372   3.231   4.004
  858TIP3   OH2 2579   6.170   1.565   2.454
  858TIP3    H1 2580   6.198   1.488   2.504
  858TIP3    H2 2581   6.202   1.549   2.365
  859TIP3   OH2 2582   1.394   1.235   1.224
  859TIP3    H1 2583   1.342   1.294   1.169
  859TIP3    H2 2584   1.330   1.195   1.282
  860TIP3   OH2 2585   0.970   4.177   4.849
  860TIP3    H1 2586   0.883   4.218   4.849
  860TIP3    H2 2587   1.014   4.217   4.924
  861TIP3   OH2 2588   1.770   4.649   2.726
  861TIP3    H1 2589   1.679   4.652   2.697
  861TIP3    H2 2590   1.804   4.737   2.707
  862TIP3   OH2 2591   6.258   4.424   0.558
  862TIP3    H1 2592   6.266   4.486   0.485
  862TIP3    H2 2593   6.180   4.454   0.606
  863TIP3   OH2 2594   3.053   2.526   3.365
  863TIP3    H1 2595   2.982   2.591   3.372
  863TIP3    H2 2596   3.111   2.547   3.438
  864TIP3   OH2 2597   4.483   2.410   4.368
  864TIP3    H1 2598   4.408   2.378   4.417
  864TIP3    H2 2599   4.444   2.461   4.296
  865TIP3   OH2 2600   1.234   0.895   4.832
  865TIP3    H1 2601   1.274   0.836   4.895
  865TIP3    H2 2602   1.167   0.842   4.789
  866TIP3   OH2 2603   2.265   3.075   2.819
  866TIP3    H1 2604   2.276   2.980   2.817
  866TIP3    H2 2605   2.267   3.097   2.912
  867TIP3   OH2 2606   3.280   1.271   3.780
  867TIP3    H1 2607   3.315   1.344   3.830
  867TIP3    H2 2608   3.307   1.288   3.690
  868TIP3   OH2 2609   0.384   2.831   0.621
  868TIP3    H1 2610   0.362   2.924   0.619
  868TIP3    H2 2611   0.428   2.816   0.537
  869TIP3   OH2 2612   1.967   2.659   5.065
  869TIP3    H1 2613   1.929   2.719   5.001
  869TIP3    H2 2614   1.922   2.679   5.147
  870TIP3   OH2 2615   3.473   3.003   0.343
  870TIP3    H1 2616   3.452   2.997   0.249
  870TIP3    H2 2617   3.392   3.031   0.384
  871TIP3   OH2 2618   5.919   0.383   5.022
  871TIP3    H1 2619   5.831   0.421   5.030
  871TIP3    H2 2620   5.977   0.450   5.060
  872TIP3   OH2 2621   1.227   4.532   1.423
  872TIP3    H1 2622   1.279   4.551   1.345
  872TIP3    H2 2623   1.186   4.616   1.446
  873TIP3   OH2 2624   6.100   5.237   3.936
  873TIP3    H1 2625   6.165   5.246   3.867
  873TIP3    H2 2626   6.038   5.309   3.921
  874TIP3   OH2 2627   2.240   0.004   3.469
  874TIP3    H1 2628   2.253   0.060   3.545
  874TIP3    H2 2629   2.183   0.054   3.411
  875TIP3   OH2 2630   0.853   0.049   3.578
  875TIP3    H1 2631   0.851  -0.027   3.636
  875TIP3    H2 2632   0.856   0.011   3.489
  876TIP3   OH2 2633   1.684   3.053   0.980
  876TIP3    H1 2634   1.629   3.052   1.058
  876TIP3    H2 2635   1.674   3.142   0.945
  877TIP3   OH2 2636   5.534   4.093   0.335
  877TIP3    H1 2637   5.578   4.016   0.299
  877TIP3    H2 2638   5.506   4.143   0.258
  878TIP3   OH2 2639   1.867   4.126   2.186
  878TIP3    H1 2640   1.791   4.149   2.239
  878TIP3    H2 2641   1.859   4.180   2.107
  879TIP3   OH2 2642   5.233   4.978   0.133
  879TIP3    H1 2643   5.189   4.919   0.194
  879TIP3    H2 2644   5.226   4.934   0.048
  880TIP3   OH2 2645   2.830   0.558   4.335
  880TIP3    H1 2646   2.885   0.480   4.340
  880TIP3    H2 2647   2.825   0.590   4.425
  881TIP3   OH2 2648   3.798   0.000   1.626
  881TIP3    H1 2649   3.890  -0.025   1.636
  881TIP3    H2 2650   3.801   0.092   1.599
  882TIP3   OH2 2651   5.469   1.912   1.231
  882TIP3    H1 2652   5.405   1.910   1.302
  882TIP3    H2 2653   5.478   1.820   1.206
  883TIP3   OH2 2654   3.804   1.454   4.850
  883TIP3    H1 2655   3.736   1.460   4.783
  883TIP3    H2 2656   3.835   1.543   4.862
  884TIP3   OH2 2657   1.864   0.209   4.708
  884TIP3    H1 2658   1.950   0.246   4.688
  884TIP3    H2 2659   1.863   0.198   4.803
  885TIP3   OH2 2660   6.213   0.573   2.789
  885TIP3    H1 2661   6.213   0.649   2.846
  885TIP3    H2 2662   6.250   0.503   2.843
  886TIP3   OH2 2663   2.560   2.937   2.951
  886TIP3    H1 2664   2.583   2.950   2.859
  886TIP3    H2 2665   2.540   2.844   2.958
  887TIP3   OH2 2666   2.534   1.397   2.815
  887TIP3    H1 2667   2.477   1.342   2.868
  887TIP3    H2 2668   2.511   1.374   2.724
  888TIP3   OH2 2669   5.637   4.731   3.660
  888TIP3    H1 2670   5.669   4.721   3.750
  888TIP3    H2 2671   5.642   4.825   3.644
  889TIP3   OH2 2672   3.209   4.756   3.266
  889TIP3    H1 2673   3.121   4.719   3.254
  889TIP3    H2 2674   3.246   4.759   3.178
  890TIP3   OH2 2675   0.445   3.121   0.105
  890TIP3    H1 2676   0.419   3.078   0.024
  890TIP3    H2 2677   0.450   3.050   0.169
  891TIP3   OH2 2678   4.398   4.022   3.117
  891TIP3    H1 2679   4.433   4.055   3.200
  891TIP3    H2 2680   4.314   3.984   3.140
  892TIP3   OH2 2681   2.449   1.374   0.559
  892TIP3    H1 2682   2.541   1.357   0.578
  892TIP3    H2 2683   2.413   1.288   0.535
  893TIP3   OH2 2684   1.584   5.773   1.456
  893TIP3    H1 2685   1.548   5.848   1.504
  893TIP3    H2 2686   1.642   5.813   1.391
  894TIP3   OH2 2687   5.723   1.332   0.393
  894TIP3    H1 2688   5.755   1.334   0.303
  894TIP3    H2 2689   5.797   1.361   0.446
  895TIP3   OH2 2690   0.376   2.250   0.670
  895TIP3    H1 2691   0.470   2.267   0.672
  895TIP3    H2 2692   0.337   2.334   0.646
  896TIP3   OH2 2693   0.028   3.432   0.190
  896TIP3    H1 2694  -0.034   3.439   0.262
  896TIP3    H2 2695   0.090   3.504   0.205
  897TIP3   OH2 2696   2.532   1.911   2.300
  897TIP3    H1 2697   2.567   1.928   2.212
  897TIP3    H2 2698   2.465   1.979   2.312
  898TIP3   OH2 2699   1.482   5.763   3.943
  898TIP3    H1 2700   1.533   5.750   3.864
  898TIP3    H2 2701   1.395   5.729   3.922
  899TIP3   OH2 2702   3.944   0.421   2.190
  899TIP3    H1 2703   4.023   0.460   2.227
  899TIP3    H2 2704   3.880   0.421   2.262
  900TIP3   OH2 2705   2.140   5.283   0.303
  900TIP3    H1 2706   2.077   5.221   0.266
  900TIP3    H2 2707   2.178   5.327   0.227
  901TIP3   OH2 2708   2.649   3.094   1.538
  901TIP3    H1 2709   2.714   3.069   1.472
  901TIP3    H2 2710   2.689   3.072   1.621
  902TIP3   OH2 2711   2.242   0.112   4.855
  902TIP3    H1 2712   2.217   0.025   4.825
  902TIP3    H2 2713   2.282   0.097   4.941
  903TIP3   OH2 2714   4.174   3.020   4.476
  903TIP3    H1 2715   4.092   3.033   4.428
  903TIP3    H2 2716   4.186   2.925   4.478
  904TIP3   OH2 2717   0.089   3.274   3.589
  904TIP3    H1 2718   0.164   3.214   3.586
  904TIP3    H2 2719   0.036   3.242   3.662
  905TIP3   OH2 2720   5.663   2.646   1.958
  905TIP3    H1 2721   5.696   2.567   2.001
  905TIP3    H2 2722   5.594   2.615   1.900
  906TIP3   OH2 2723   4.662   0.030   1.292
  906TIP3    H1 2724   4.673   0.106   1.349
  906TIP3    H2 2725   4.568   0.028   1.272
  907TIP3   OH2 2726   5.137   2.762   4.099
  907TIP3    H1 2727   5.111   2.712   4.176
  907TIP3    H2 2728   5.102   2.849   4.113
  908TIP3   OH2 2729   5.262   5.302   3.460
  908TIP3    H1 2730   5.204   5.227   3.447
  908TIP3    H2 2731   5.336   5.286   3.401
  909TIP3   OH2 2732   4.041   2.380   2.483
  909TIP3    H1 2733   4.075   2.349   2.399
  909TIP3    H2 2734   3.992   2.459   2.461
  910TIP3   OH2 2735   0.305   5.235   0.995
  910TIP3    H1 2736   0.385   5.283   1.015
  910TIP3    H2 2737   0.279   5.196   1.078
  911TIP3   OH2 2738   1.866   3.479   1.786
  911TIP3    H1 2739   1.880   3.571   1.764
  911TIP3    H2 2740   1.952   3.439   1.779
  912TIP3   OH2 2741   5.577   4.974   0.240
  912TIP3    H1 2742   5.512   4.926   0.292
  912TIP3    H2 2743   5.541   4.975   0.151
  913TIP3   OH2 2744   0.014   5.183   1.559
  913TIP3    H1 2745   0.097   5.231   1.562
  913TIP3    H2 2746  -0.013   5.177   1.651
  914TIP3   OH2 2747   4.881   0.319   2.322
  914TIP3    H1 2748   4.973   0.342   2.331
  914TIP3    H2 2749   4.881   0.230   2.288
  915TIP3   OH2 2750   3.027   1.086   1.035
  915TIP3    H1 2751   3.090   1.150   1.001
  915TIP3    H2 2752   3.070   1.048   1.112
  916TIP3   OH2 2753   5.116   1.025   0.502
  916TIP3    H1 2754   5.153   1.027   0.590
  916TIP3    H2 2755   5.035   0.976   0.511
  917TIP3   OH2 2756   3.685   1.632   2.106
  917TIP3    H1 2757   3.725   1.674   2.030
  917TIP3    H2 2758   3.708   1.688   2.180
  918TIP3   OH2 2759   6.085   5.632   2.926
  918TIP3    H1 2760   6.090   5.689   3.002
  918TIP3    H2 2761   6.039   5.683   2.860
  919TIP3   OH2 2762   2.194   0.713   4.181
  919TIP3    H1 2763   2.187   0.630   4.133
  919TIP3    H2 2764   2.225   0.775   4.115
  920TIP3   OH2 2765   6.322   1.708   3.316
  920TIP3    H1 2766   6.379   1.746   3.383
  920TIP3    H2 2767   6.304   1.781   3.256
  921TIP3   OH2 2768   5.661   0.728   0.363
  921TIP3    H1 2769   5.604   0.670   0.413
  921TIP3    H2 2770   5.749   0.708   0.394
  922TIP3   OH2 2771   5.072   2.034   5.183
  922TIP3    H1 2772   5.006   2.005   5.120
  922TIP3    H2 2773   5.049   2.125   5.202
  923TIP3   OH2 2774   4.642   4.402   2.384
  923TIP3    H1 2775   4.661   4.450   2.465
  923TIP3    H2 2776   4.714   4.425   2.326
  924TIP3   OH2 2777   5.749   4.386   2.104
  924TIP3    H1 2778   5.703   4.354   2.181
  924TIP3    H2 2779   5.691   4.454   2.069
  925TIP3   OH2 2780   2.856   5.131   0.159
  925TIP3    H1 2781   2.949   5.137   0.136
  925TIP3    H2 2782   2.821   5.062   0.103
  926TIP3   OH2 2783   5.574   4.030   2.977
  926TIP3    H1 2784   5.619   4.098   3.027
  926TIP3    H2 2785   5.609   3.948   3.011
  927TIP3   OH2 2786   3.997   3.750   2.119
  927TIP3    H1 2787   4.019   3.828   2.068
  927TIP3    H2 2788   4.064   3.686   2.095
  928TIP3   OH2 2789   6.088   4.800   2.649
  928TIP3    H1 2790   6.023   4.736   2.621
  928TIP3    H2 2791   6.172   4.756   2.634
  929TIP3   OH2 2792   0.523   3.534   1.702
  929TIP3    H1 2793   0.589   3.532   1.772
  929TIP3    H2 2794   0.448   3.579   1.742
  930TIP3   OH2 2795   4.537   1.874   2.380
  930TIP3    H1 2796   4.607   1.867   2.446
  930TIP3    H2 2797   4.582   1.869   2.296
  931TIP3   OH2 2798   3.779   5.191   3.186
  931TIP3    H1 2799   3.824   5.124   3.238
  931TIP3    H2 2800   3.845   5.259   3.173
  932TIP3   OH2 2801   5.163   2.657   2.608
  932TIP3    H1 2802   5.216   2.652   2.529
  932TIP3    H2 2803   5.105   2.580   2.603
  933TIP3   OH2 2804   4.118   0.548   0.337
  933TIP3    H1 2805   4.037   0.538   0.386
  933TIP3    H2 2806   4.104   0.497   0.257
  934TIP3   OH2 2807   3.083   4.830   2.181
  934TIP3    H1 2808   3.165   4.793   2.215
  934TIP3    H2 2809   3.054   4.890   2.250
  935TIP3   OH2 2810   2.309   3.153   4.709
  935TIP3    H1 2811   2.227   3.124   4.669
  935TIP3    H2 2812   2.302   3.125   4.801
  936TIP3   OH2 2813   4.487   1.610   1.229
  936TIP3    H1 2814   4.479   1.534   1.287
  936TIP3    H2 2815   4.526   1.678   1.284
  937TIP3   OH2 2816   6.369   1.569   4.994
  937TIP3    H1 2817   6.336   1.511   4.926
  937TIP3    H2 2818   6.328   1.538   5.075
  938TIP3   OH2 2819   3.737   3.565   1.429
  938TIP3    H1 2820   3.824   3.575   1.390
  938TIP3    H2 2821   3.752   3.574   1.523
  939TIP3   OH2 2822   2.366   5.714   4.923
  939TIP3    H1 2823   2.360   5.692   5.016
  939TIP3    H2 2824   2.275   5.729   4.896
  940TIP3   OH2 2825   5.595   2.400   2.901
  940TIP3    H1 2826   5.552   2.320   2.932
  940TIP3    H2 2827   5.525   2.465   2.899
  941TIP3   OH2 2828   3.436   4.408   3.466
  941TIP3    H1 2829   3.396   4.449   3.543
  941TIP3    H2 2830   3.484   4.333   3.501
  942TIP3   OH2 2831   0.018   3.948   4.903
  942TIP3    H1 2832  -0.055   4.010   4.902
  942TIP3    H2 2833   0.058   3.957   4.816
  943TIP3   OH2 2834   3.836   2.403   2.900
  943TIP3    H1 2835   3.928   2.419   2.918
  943TIP3    H2 2836   3.795   2.398   2.986
  944TIP3   OH2 2837   2.745   5.154   2.645
  944TIP3    H1 2838   2.790   5.077   2.609
  944TIP3    H2 2839   2.688   5.119   2.713
  945TIP3   OH2 2840   3.085   3.706   0.576
  945TIP3    H1 2841   3.101   3.777   0.639
  945TIP3    H2 2842   3.000   3.728   0.537
  946TIP3   OH2 2843   4.651   4.847   2.790
  946TIP3    H1 2844   4.570   4.797   2.797
  946TIP3    H2 2845   4.719   4.781   2.780
  947TIP3   OH2 2846   0.301   3.343   3.905
  947TIP3    H1 2847   0.358   3.289   3.959
  947TIP3    H2 2848   0.298   3.297   3.821
  948TIP3   OH2 2849   4.323   1.292   3.300
  948TIP3    H1 2850   4.258   1.313   3.233
  948TIP3    H2 2851   4.316   1.363   3.364
  949TIP3   OH2 2852   5.816   0.440   4.125
  949TIP3    H1 2853   5.766   0.372   4.171
  949TIP3    H2 2854   5.847   0.497   4.196
  950TIP3   OH2 2855   0.859   0.570   3.984
  950TIP3    H1 2856   0.855   0.474   3.984
  950TIP3    H2 2857   0.878   0.593   3.893
  951TIP3   OH2 2858   4.675   3.542   4.777
  951TIP3    H1 2859   4.610   3.521   4.845
  951TIP3    H2 2860   4.664   3.636   4.762
  952TIP3   OH2 2861   4.869   4.170   4.748
  952TIP3    H1 2862   4.913   4.102   4.697
  952TIP3    H2 2863   4.940   4.223   4.784
  953TIP3   OH2 2864   6.224   2.792   2.868
  953TIP3    H1 2865   6.173   2.872   2.853
  953TIP3    H2 2866   6.177   2.746   2.937
  954TIP3   OH2 2867   5.673   4.987   3.576
  954TIP3    H1 2868   5.692   5.068   3.623
  954TIP3    H2 2869   5.607   5.013   3.511
  955TIP3   OH2 2870   5.715   2.208   3.471
  955TIP3    H1 2871   5.735   2.230   3.380
  955TIP3    H2 2872   5.799   2.179   3.507
  956TIP3   OH2 2873   5.872   0.364   0.396
  956TIP3    H1 2874   5.824   0.372   0.314
  956TIP3    H2 2875   5.961   0.339   0.369
  957TIP3   OH2 2876   2.562   0.516   0.406
  957TIP3    H1 2877   2.484   0.541   0.355
  957TIP3    H2 2878   2.596   0.439   0.362
  958TIP3   OH2 2879   3.757   0.789   3.679
  958TIP3    H1 2880   3.812   0.730   3.628
  958TIP3    H2 2881   3.798   0.793   3.765
  959TIP3   OH2 2882   4.579   4.053   2.913
  959TIP3    H1 2883   4.541   4.014   2.992
  959TIP3    H2 2884   4.582   4.147   2.931
  960TIP3   OH2 2885   5.573   1.655   2.577
  960TIP3    H1 2886   5.517   1.579   2.590
  960TIP3    H2 2887   5.591   1.657   2.483
  961TIP3   OH2 2888   4.734   0.654   3.679
  961TIP3    H1 2889   4.754   0.608   3.760
  961TIP3    H2 2890   4.640   0.643   3.667
  962TIP3   OH2 2891   1.003   1.761   1.941
  962TIP3    H1 2892   0.993   1.844   1.988
  962TIP3    H2 2893   1.091   1.732   1.964
  963TIP3   OH2 2894   4.259   5.104   4.938
  963TIP3    H1 2895   4.220   5.177   4.987
  963TIP3    H2 2896   4.281   5.039   5.005
  964TIP3   OH2 2897   0.999   0.167   1.580
  964TIP3    H1 2898   0.949   0.248   1.590
  964TIP3    H2 2899   1.079   0.181   1.630
  965TIP3   OH2 2900   3.890   4.743   0.064
  965TIP3    H1 2901   3.831   4.667   0.067
  965TIP3    H2 2902   3.882   4.783   0.150
  966TIP3   OH2 2903   0.613   4.375   1.267
  966TIP3    H1 2904   0.543   4.374   1.202
  966TIP3    H2 2905   0.657   4.459   1.253
  967TIP3   OH2 2906   5.066   0.210   3.486
  967TIP3    H1 2907   5.029   0.242   3.568
  967TIP3    H2 2908   4.992   0.176   3.437
  968TIP3   OH2 2909   2.378   3.026   4.335
  968TIP3    H1 2910   2.398   3.104   4.284
  968TIP3    H2 2911   2.286   3.009   4.317
  969TIP3   OH2 2912   4.862   4.155   3.871
  969TIP3    H1 2913   4.915   4.117   3.941
  969TIP3    H2 2914   4.908   4.132   3.791
  970TIP3   OH2 2915   5.723   3.576   4.413
  970TIP3    H1 2916   5.726   3.503   4.475
  970TIP3    H2 2917   5.812   3.582   4.378
  971TIP3   OH2 2918   4.998   1.066   0.195
  971TIP3    H1 2919   5.040   1.023   0.270
  971TIP3    H2 2920   5.056   1.139   0.173
  972TIP3   OH2 2921   5.320   1.338   2.183
  972TIP3    H1 2922   5.286   1.389   2.109
  972TIP3    H2 2923   5.298   1.247   2.160
  973TIP3   OH2 2924   1.653   3.057   1.681
  973TIP3    H1 2925   1.586   3.124   1.674
  973TIP3    H2 2926   1.665   3.045   1.776
  974TIP3   OH2 2927   2.412   4.518   1.230
  974TIP3    H1 2928   2.481   4.467   1.271
  974TIP3    H2 2929   2.362   4.454   1.179
  975TIP3   OH2 2930   3.984   1.172   0.346
  975TIP3    H1 2931   3.926   1.096   0.342
  975TIP3    H2 2932   4.003   1.193   0.255
  976TIP3   OH2 2933   3.935   2.002   3.890
  976TIP3    H1 2934   3.900   1.970   3.806
  976TIP3    H2 2935   3.918   2.096   3.889
  977TIP3   OH2 2936   2.393   0.762   1.125
  977TIP3    H1 2937   2.354   0.703   1.189
  977TIP3    H2 2938   2.320   0.816   1.094
  978TIP3   OH2 2939   4.929   3.905   2.485
  978TIP3    H1 2940   4.916   3.923   2.392
  978TIP3    H2 2941   4.972   3.819   2.487
  979TIP3   OH2 2942   5.965   4.872   3.629
  979TIP3    H1 2943   6.029   4.943   3.635
  979TIP3    H2 2944   5.882   4.912   3.655
  980TIP3   OH2 2945   6.035   1.921   2.698
  980TIP3    H1 2946   5.987   1.843   2.725
  980TIP3    H2 2947   6.125   1.891   2.688
  981TIP3   OH2 2948   3.385   4.403   0.365
  981TIP3    H1 2949   3.315   4.382   0.428
  981TIP3    H2 2950   3.347   4.384   0.280
  982TIP3   OH2 2951   3.520   5.163   1.316
  982TIP3    H1 2952   3.503   5.245   1.362
  982TIP3    H2 2953   3.538   5.190   1.225
  983TIP3   OH2 2954   5.917   3.382   1.879
  983TIP3    H1 2955   5.879   3.467   1.900
  983TIP3    H2 2956   6.001   3.402   1.839
  984TIP3   OH2 2957   3.888   1.393   3.002
  984TIP3    H1 2958   3.856   1.334   2.934
  984TIP3    H2 2959   3.849   1.360   3.083
  985TIP3   OH2 2960   5.537   3.316   0.693
  985TIP3    H1 2961   5.551   3.235   0.644
  985TIP3    H2 2962   5.453   3.349   0.661
  986TIP3   OH2 2963   5.232   1.851   4.993
  986TIP3    H1 2964   5.157   1.889   5.039
  986TIP3    H2 2965   5.253   1.914   4.924
  987TIP3   OH2 2966   4.622   3.847   4.184
  987TIP3    H1 2967   4.639   3.854   4.278
  987TIP3    H2 2968   4.673   3.770   4.157
  988TIP3   OH2 2969   4.026   4.292   0.277
  988TIP3    H1 2970   3.937   4.284   0.244
  988TIP3    H2 2971   4.058   4.202   0.281
  989TIP3   OH2 2972   0.782   5.415   1.133
  989TIP3    H1 2973   0.814   5.401   1.222
  989TIP3    H2 2974   0.834   5.488   1.100
  990TIP3   OH2 2975   4.693   5.004   0.714
  990TIP3    H1 2976   4.749   5.024   0.789
  990TIP3    H2 2977   4.694   4.909   0.708
  991TIP3   OH2 2978   4.710   4.713   1.974
  991TIP3    H1 2979   4.718   4.785   2.036
  991TIP3    H2 2980   4.720   4.754   1.888
  992TIP3   OH2 2981   2.212   2.160   1.627
  992TIP3    H1 2982   2.241   2.073   1.597
  992TIP3    H2 2983   2.293   2.212   1.628
  993TIP3   OH2 2984   2.350   1.081   2.536
  993TIP3    H1 2985   2.261   1.047   2.537
  993TIP3    H2 2986   2.370   1.094   2.443
  994TIP3   OH2 2987   0.933   2.164   2.177
  994TIP3    H1 2988   0.899   2.191   2.262
  994TIP3    H2 2989   1.001   2.228   2.156
  995TIP3   OH2 2990   3.998   2.131   3.032
  995TIP3    H1 2991   4.079   2.112   2.985
  995TIP3    H2 2992   3.928   2.108   2.971
  996TIP3   OH2 2993   0.322   5.759   3.587
  996TIP3    H1 2994   0.307   5.775   3.681
  996TIP3    H2 2995   0.408   5.718   3.583
  997TIP3   OH2 2996   6.174   5.598   0.308
  997TIP3    H1 2997   6.135   5.567   0.389
  997TIP3    H2 2998   6.200   5.518   0.262
  998TIP3   OH2 2999   5.334   2.238   0.844
  998TIP3    H1 3000   5.375   2.176   0.904
  998TIP3    H2 3001   5.241   2.219   0.849
  999TIP3   OH2 3002   3.905   2.049   4.794
  999TIP3    H1 3003   3.925   2.112   4.725
  999TIP3    H2 3004   3.848   2.097   4.855
 1000TIP3   OH2 3005   1.723   3.265   2.745
 1000TIP3    H1 3006   1.812   3.239   2.770
 1000TIP3    H2 3007   1.684   3.185   2.710
 1001TIP3   OH2 3008   4.041   3.147   0.974
 1001TIP3    H1 3009   3.967   3.132   0.915
 1001TIP3    H2 3010   4.118   3.147   0.917
 1002TIP3   OH2 3011   1.119   4.927   0.883
 1002TIP3    H1 3012   1.103   4.861   0.950
 1002TIP3    H2 3013   1.036   4.974   0.875
 1003TIP3   OH2 3014   4.692   2.409   0.074
 1003TIP3    H1 3015   4.673   2.465  -0.001
 1003TIP3    H2 3016   4.687   2.468   0.149
 1004TIP3   OH2 3017   3.858   5.292   1.929
 1004TIP3    H1 3018   3.907   5.332   2.001
 1004TIP3    H2 3019   3.849   5.200   1.954
 1005TIP3   OH2 3020   2.364   3.810   2.522
 1005TIP3    H1 3021   2.438   3.865   2.546
 1005TIP3    H2 3022   2.404   3.733   2.482
 1006TIP3   OH2 3023   4.739   5.031   1.214
 1006TIP3    H1 3024   4.821   4.983   1.199
 1006TIP3    H2 3025   4.683   5.007   1.140
 1007TIP3   OH2 3026   3.955   4.095   2.731
 1007TIP3    H1 3027   3.912   4.174   2.762
 1007TIP3    H2 3028   4.045   4.102   2.764
 1008TIP3   OH2 3029   6.232   2.313   5.098
 1008TIP3    H1 3030   6.321   2.284   5.120
 1008TIP3    H2 3031   6.181   2.232   5.095
 1009TIP3   OH2 3032   1.543   1.730   3.161
 1009TIP3    H1 3033   1.578   1.806   3.114
 1009TIP3    H2 3034   1.495   1.681   3.095
 1010TIP3   OH2 3035   2.628   2.240   2.337
 1010TIP3    H1 3036   2.692   2.199   2.277
 1010TIP3    H2 3037   2.636   2.189   2.418
 1011TIP3   OH2 3038   4.898   0.703   1.232
 1011TIP3    H1 3039   4.813   0.676   1.266
 1011TIP3    H2 3040   4.880   0.783   1.184
 1012TIP3   OH2 3041   2.034   3.692   0.711
 1012TIP3    H1 3042   1.985   3.753   0.767
 1012TIP3    H2 3043   1.971   3.623   0.691
 1013TIP3   OH2 3044   4.824   2.758   2.718
 1013TIP3    H1 3045   4.750   2.699   2.731
 1013TIP3    H2 3046   4.897   2.699   2.696
 1014TIP3   OH2 3047   2.622   3.027   2.139
 1014TIP3    H1 3048   2.581   3.087   2.077
 1014TIP3    H2 3049   2.595   2.940   2.110
 1015TIP3   OH2 3050   0.644   4.848   0.251
 1015TIP3    H1 3051   0.719   4.886   0.205
 1015TIP3    H2 3052   0.567   4.880   0.203
 1016TIP3   OH2 3053   2.824   4.223   1.720
 1016TIP3    H1 3054   2.909   4.195   1.754
 1016TIP3    H2 3055   2.767   4.147   1.736
 1017TIP3   OH2 3056   4.806   0.392   4.735
 1017TIP3    H1 3057   4.783   0.306   4.769
 1017TIP3    H2 3058   4.901   0.394   4.738
 1018TIP3   OH2 3059   0.383   1.447   3.575
 1018TIP3    H1 3060   0.408   1.381   3.641
 1018TIP3    H2 3061   0.288   1.438   3.567
 1019TIP3   OH2 3062   2.978   3.443   4.302
 1019TIP3    H1 3063   2.988   3.441   4.397
 1019TIP3    H2 3064   3.004   3.355   4.273
 1020TIP3   OH2 3065   1.427   4.248   4.223
 1020TIP3    H1 3066   1.400   4.228   4.134
 1020TIP3    H2 3067   1.453   4.340   4.221
 1021TIP3   OH2 3068   6.004   1.110   0.293
 1021TIP3    H1 3069   6.047   1.087   0.376
 1021TIP3    H2 3070   5.929   1.051   0.288
 1022TIP3   OH2 3071   4.641   4.796   4.972
 1022TIP3    H1 3072   4.723   4.837   4.944
 1022TIP3    H2 3073   4.666   4.740   5.046
 1023TIP3   OH2 3074   3.996   4.209   0.600
 1023TIP3    H1 3075   4.079   4.198   0.554
 1023TIP3    H2 3076   3.930   4.190   0.533
 1024TIP3   OH2 3077   3.942   4.366   4.558
 1024TIP3    H1 3078   3.892   4.298   4.603
 1024TIP3    H2 3079   3.886   4.443   4.561
 1025TIP3   OH2 3080   5.250   2.416   4.344
 1025TIP3    H1 3081   5.193   2.366   4.285
 1025TIP3    H2 3082   5.338   2.401   4.309
 1026TIP3   OH2 3083   1.767   2.393   2.329
 1026TIP3    H1 3084   1.838   2.452   2.304
 1026TIP3    H2 3085   1.795   2.307   2.299
 1027TIP3   OH2 3086   3.972   3.106   4.309
 1027TIP3    H1 3087   3.932   3.087   4.225
 1027TIP3    H2 3088   3.898   3.111   4.370
 1028TIP3   OH2 3089   2.615   2.764   1.343
 1028TIP3    H1 3090   2.683   2.723   1.289
 1028TIP3    H2 3091   2.593   2.845   1.297
 1029TIP3   OH2 3092   5.489   0.513   2.817
 1029TIP3    H1 3093   5.576   0.549   2.831
 1029TIP3    H2 3094   5.458   0.490   2.905
 1030TIP3   OH2 3095   6.156   3.837   0.859
 1030TIP3    H1 3096   6.098   3.785   0.915
 1030TIP3    H2 3097   6.239   3.789   0.859
 1031TIP3   OH2 3098   4.084   5.441   3.813
 1031TIP3    H1 3099   4.040   5.524   3.794
 1031TIP3    H2 3100   4.065   5.424   3.905
 1032TIP3   OH2 3101   2.022   5.609   4.532
 1032TIP3    H1 3102   1.956   5.667   4.569
 1032TIP3    H2 3103   2.002   5.523   4.569
 1033TIP3   OH2 3104   2.307   5.747   2.230
 1033TIP3    H1 3105   2.338   5.677   2.288
 1033TIP3    H2 3106   2.213   5.730   2.221
 1034TIP3   OH2 3107   6.025   5.070   0.291
 1034TIP3    H1 3108   6.089   5.128   0.251
 1034TIP3    H2 3109   6.077   5.010   0.345
 1035TIP3   OH2 3110   0.181   2.525   3.616
 1035TIP3    H1 3111   0.159   2.504   3.525
 1035TIP3    H2 3112   0.156   2.446   3.665
 1036TIP3   OH2 3113   1.834   5.378   3.141
 1036TIP3    H1 3114   1.832   5.284   3.159
 1036TIP3    H2 3115   1.829   5.385   3.046
 1037TIP3   OH2 3116   1.521   4.932   4.482
 1037TIP3    H1 3117   1.502   4.857   4.426
 1037TIP3    H2 3118   1.612   4.921   4.507
 1038TIP3   OH2 3119   0.964   3.371   0.413
 1038TIP3    H1 3120   1.003   3.285   0.397
 1038TIP3    H2 3121   0.891   3.376   0.352
 1039TIP3   OH2 3122   6.298   3.862   1.200
 1039TIP3    H1 3123   6.230   3.822   1.146
 1039TIP3    H2 3124   6.282   3.956   1.194
 1040TIP3   OH2 3125   2.349   0.046   1.274
 1040TIP3    H1 3126   2.275   0.014   1.325
 1040TIP3    H2 3127   2.416   0.068   1.339
 1041TIP3   OH2 3128   3.906   2.455   0.056
 1041TIP3    H1 3129   3.885   2.419   0.142
 1041TIP3    H2 3130   3.821   2.473   0.016
 1042TIP3   OH2 3131   4.642   3.484   2.659
 1042TIP3    H1 3132   4.633   3.389   2.666
 1042TIP3    H2 3133   4.728   3.496   2.619
 1043TIP3   OH2 3134   2.355   2.375   3.045
 1043TIP3    H1 3135   2.301   2.411   2.974
 1043TIP3    H2 3136   2.418   2.318   3.001
 1044TIP3   OH2 3137   2.225   2.219   2.772
 1044TIP3    H1 3138   2.287   2.282   2.737
 1044TIP3    H2 3139   2.227   2.146   2.710
 1045TIP3   OH2 3140   5.738   1.695   5.159
 1045TIP3    H1 3141   5.731   1.615   5.107
 1045TIP3    H2 3142   5.750   1.765   5.094
 1046TIP3   OH2 3143   5.674   1.481   4.090
 1046TIP3    H1 3144   5.585   1.455   4.067
 1046TIP3    H2 3145   5.723   1.475   4.007
 1047TIP3   OH2 3146   2.125   3.455   1.169
 1047TIP3    H1 3147   2.141   3.503   1.088
 1047TIP3    H2 3148   2.052   3.501   1.210
 1048TIP3   OH2 3149   5.394   5.894   2.287
 1048TIP3    H1 3150   5.320   5.840   2.259
 1048TIP3    H2 3151   5.416   5.861   2.374
 1049TIP3   OH2 3152   5.548   1.889   2.922
 1049TIP3    H1 3153   5.539   1.903   2.827
 1049TIP3    H2 3154   5.576   1.798   2.929
 1050TIP3   OH2 3155   1.678   4.829   0.624
 1050TIP3    H1 3156   1.589   4.865   0.623
 1050TIP3    H2 3157   1.726   4.885   0.685
 1051TIP3   OH2 3158   2.904   1.031   2.646
 1051TIP3    H1 3159   2.956   1.071   2.716
 1051TIP3    H2 3160   2.951   1.053   2.566
 1052TIP3   OH2 3161   4.970   5.853   2.170
 1052TIP3    H1 3162   4.922   5.771   2.161
 1052TIP3    H2 3163   4.923   5.915   2.115
 1053TIP3   OH2 3164   2.063   5.501   2.045
 1053TIP3    H1 3165   2.099   5.441   2.110
 1053TIP3    H2 3166   2.139   5.533   1.997
 1054TIP3   OH2 3167   3.462   5.368   4.517
 1054TIP3    H1 3168   3.557   5.356   4.520
 1054TIP3    H2 3169   3.448   5.454   4.557
 1055TIP3   OH2 3170   5.231   2.809   1.651
 1055TIP3    H1 3171   5.326   2.792   1.656
 1055TIP3    H2 3172   5.204   2.769   1.569
 1056TIP3   OH2 3173   4.268   5.854   1.851
 1056TIP3    H1 3174   4.339   5.842   1.914
 1056TIP3    H2 3175   4.291   5.935   1.805
 1057TIP3   OH2 3176   1.328   0.323   3.537
 1057TIP3    H1 3177   1.413   0.278   3.541
 1057TIP3    H2 3178   1.310   0.332   3.443
 1058TIP3   OH2 3179   2.807   3.637   1.395
 1058TIP3    H1 3180   2.779   3.588   1.318
 1058TIP3    H2 3181   2.726   3.666   1.436
 1059TIP3   OH2 3182   3.719   1.873   1.596
 1059TIP3    H1 3183   3.653   1.808   1.575
 1059TIP3    H2 3184   3.800   1.838   1.557
 1060TIP3   OH2 3185   5.472   3.100   1.776
 1060TIP3    H1 3186   5.398   3.123   1.832
 1060TIP3    H2 3187   5.529   3.047   1.831
 1061TIP3   OH2 3188   4.470   5.156   3.081
 1061TIP3    H1 3189   4.465   5.172   2.987
 1061TIP3    H2 3190   4.384   5.181   3.115
 1062TIP3   OH2 3191   4.100   2.451   3.106
 1062TIP3    H1 3192   4.111   2.457   3.011
 1062TIP3    H2 3193   4.130   2.362   3.127
 1063TIP3   OH2 3194   0.579   5.263   1.693
 1063TIP3    H1 3195   0.489   5.234   1.673
 1063TIP3    H2 3196   0.631   5.183   1.687
 1064TIP3   OH2 3197   3.425   0.039   4.586
 1064TIP3    H1 3198   3.410   0.085   4.668
 1064TIP3    H2 3199   3.427   0.108   4.520
 1065TIP3   OH2 3200   4.761   4.159   1.834
 1065TIP3    H1 3201   4.832   4.205   1.879
 1065TIP3    H2 3202   4.695   4.227   1.819
 1066TIP3   OH2 3203   4.548   2.735   2.542
 1066TIP3    H1 3204   4.524   2.735   2.635
 1066TIP3    H2 3205   4.465   2.727   2.495
 1067TIP3   OH2 3206   5.269   5.640   0.594
 1067TIP3    H1 3207   5.258   5.555   0.551
 1067TIP3    H2 3208   5.301   5.698   0.525
 1068TIP3   OH2 3209   1.593   1.796   0.768
 1068TIP3    H1 3210   1.581   1.774   0.861
 1068TIP3    H2 3211   1.514   1.844   0.744
 1069TIP3   OH2 3212   5.406   1.941   3.686
 1069TIP3    H1 3213   5.369   1.887   3.756
 1069TIP3    H2 3214   5.369   1.906   3.606
 1070TIP3   OH2 3215   5.306   2.872   3.630
 1070TIP3    H1 3216   5.234   2.818   3.598
 1070TIP3    H2 3217   5.319   2.844   3.720
 1071TIP3   OH2 3218   1.677   1.085   2.615
 1071TIP3    H1 3219   1.582   1.076   2.606
 1071TIP3    H2 3220   1.697   1.049   2.701
 1072TIP3   OH2 3221   2.418   5.508   3.243
 1072TIP3    H1 3222   2.391   5.526   3.333
 1072TIP3    H2 3223   2.484   5.439   3.252
 1073TIP3   OH2 3224   2.291   1.173   4.264
 1073TIP3    H1 3225   2.282   1.082   4.293
 1073TIP3    H2 3226   2.381   1.180   4.234
 1074TIP3   OH2 3227   1.488   4.482   3.846
 1074TIP3    H1 3228   1.508   4.575   3.852
 1074TIP3    H2 3229   1.573   4.439   3.855
 1075TIP3   OH2 3230   3.453   4.588   1.507
 1075TIP3    H1 3231   3.444   4.579   1.412
 1075TIP3    H2 3232   3.543   4.617   1.520
 1076TIP3   OH2 3233   3.274   4.392   3.246
 1076TIP3    H1 3234   3.341   4.430   3.302
 1076TIP3    H2 3235   3.276   4.445   3.167
 1077TIP3   OH2 3236   2.050   0.434   0.416
 1077TIP3    H1 3237   2.009   0.508   0.371
 1077TIP3    H2 3238   1.981   0.368   0.422
 1078TIP3   OH2 3239   5.304   1.535   1.400
 1078TIP3    H1 3240   5.369   1.563   1.465
 1078TIP3    H2 3241   5.340   1.454   1.363
 1079TIP3   OH2 3242   2.110   1.897   1.224
 1079TIP3    H1 3243   2.085   1.887   1.132
 1079TIP3    H2 3244   2.172   1.970   1.224
 1080TIP3   OH2 3245   1.161   0.025   0.734
 1080TIP3    H1 3246   1.140   0.080   0.658
 1080TIP3    H2 3247   1.238   0.066   0.772
 1081TIP3   OH2 3248   3.638   2.570   3.497
 1081TIP3    H1 3249   3.597   2.490   3.464
 1081TIP3    H2 3250   3.643   2.557   3.592
 1082TIP3   OH2 3251   3.464   1.883   2.189
 1082TIP3    H1 3252   3.465   1.850   2.279
 1082TIP3    H2 3253   3.545   1.850   2.151
 1083TIP3   OH2 3254   2.243   5.419   2.238
 1083TIP3    H1 3255   2.329   5.460   2.237
 1083TIP3    H2 3256   2.208   5.438   2.325
 1084TIP3   OH2 3257   3.652   4.126   0.470
 1084TIP3    H1 3258   3.719   4.059   0.472
 1084TIP3    H2 3259   3.588   4.099   0.536
 1085TIP3   OH2 3260   5.135   4.727   1.966
 1085TIP3    H1 3261   5.069   4.706   2.032
 1085TIP3    H2 3262   5.097   4.699   1.883
 1086TIP3   OH2 3263   0.769   3.861   2.725
 1086TIP3    H1 3264   0.819   3.886   2.647
 1086TIP3    H2 3265   0.778   3.937   2.784
 1087TIP3   OH2 3266   0.052   0.107   1.493
 1087TIP3    H1 3267  -0.017   0.059   1.448
 1087TIP3    H2 3268   0.019   0.197   1.499
 1088TIP3   OH2 3269   1.153   1.591   3.295
 1088TIP3    H1 3270   1.090   1.636   3.351
 1088TIP3    H2 3271   1.176   1.656   3.228
 1089TIP3   OH2 3272   4.579   0.236   4.188
 1089TIP3    H1 3273   4.519   0.310   4.195
 1089TIP3    H2 3274   4.666   0.275   4.189
 1090TIP3   OH2 3275   2.866   1.726   4.463
 1090TIP3    H1 3276   2.849   1.792   4.529
 1090TIP3    H2 3277   2.798   1.739   4.397
 1091TIP3   OH2 3278   2.218   2.047   2.971
 1091TIP3    H1 3279   2.193   2.116   2.909
 1091TIP3    H2 3280   2.287   1.998   2.926
 1092TIP3   OH2 3281   0.477   3.182   4.088
 1092TIP3    H1 3282   0.507   3.092   4.083
 1092TIP3    H2 3283   0.414   3.183   4.161
 1093TIP3   OH2 3284   3.180   0.947   3.971
 1093TIP3    H1 3285   3.114   0.881   3.949
 1093TIP3    H2 3286   3.130   1.019   4.008
 1094TIP3   OH2 3287   5.762   4.083   5.045
 1094TIP3    H1 3288   5.691   4.104   5.106
 1094TIP3    H2 3289   5.750   3.990   5.026
 1095TIP3   OH2 3290   0.285   3.596   3.552
 1095TIP3    H1 3291   0.224   3.545   3.499
 1095TIP3    H2 3292   0.371   3.557   3.535
 1096TIP3   OH2 3293   0.096   3.241   0.012
 1096TIP3    H1 3294   0.103   3.313   0.074
 1096TIP3    H2 3295   0.021   3.263  -0.043
 1097TIP3   OH2 3296   6.094   2.238   0.170
 1097TIP3    H1 3297   6.104   2.145   0.192
 1097TIP3    H2 3298   6.132   2.284   0.245
 1098TIP3   OH2 3299   3.078   0.156   1.784
 1098TIP3    H1 3300   3.126   0.172   1.865
 1098TIP3    H2 3301   3.080   0.061   1.773
 1099TIP3   OH2 3302   4.827   5.887   4.569
 1099TIP3    H1 3303   4.832   5.843   4.485
 1099TIP3    H2 3304   4.836   5.816   4.634
 1100TIP3   OH2 3305   5.340   1.490   4.365
 1100TIP3    H1 3306   5.342   1.497   4.460
 1100TIP3    H2 3307   5.361   1.398   4.347
 1101TIP3   OH2 3308   0.031   2.062   2.845
 1101TIP3    H1 3309  -0.020   2.122   2.791
 1101TIP3    H2 3310   0.087   2.118   2.898
 1102TIP3   OH2 3311   2.436   5.288   1.138
 1102TIP3    H1 3312   2.435   5.246   1.052
 1102TIP3    H2 3313   2.452   5.217   1.200
 1103TIP3   OH2 3314   1.043   2.582   5.064
 1103TIP3    H1 3315   1.094   2.645   5.114
 1103TIP3    H2 3316   1.024   2.626   4.981
 1104TIP3   OH2 3317   6.064   2.500   2.578
 1104TIP3    H1 3318   6.026   2.499   2.667
 1104TIP3    H2 3319   6.016   2.432   2.531
 1105TIP3   OH2 3320   1.274   0.159   0.971
 1105TIP3    H1 3321   1.197   0.124   1.016
 1105TIP3    H2 3322   1.318   0.212   1.037
 1106TIP3   OH2 3323   1.920   2.610   2.286
 1106TIP3    H1 3324   2.015   2.624   2.285
 1106TIP3    H2 3325   1.883   2.698   2.280
 1107TIP3   OH2 3326   5.935   2.784   4.683
 1107TIP3    H1 3327   5.901   2.706   4.726
 1107TIP3    H2 3328   5.981   2.751   4.605
 1108TIP3   OH2 3329   6.182   5.620   4.177
 1108TIP3    H1 3330   6.255   5.561   4.196
 1108TIP3    H2 3331   6.189   5.636   4.083
 1109TIP3   OH2 3332   6.190   4.443   2.480
 1109TIP3    H1 3333   6.177   4.361   2.528
 1109TIP3    H2 3334   6.282   4.439   2.452
 1110TIP3   OH2 3335   5.916   3.863   4.738
 1110TIP3    H1 3336   5.940   3.849   4.646
 1110TIP3    H2 3337   5.822   3.844   4.741
 1111TIP3   OH2 3338   1.150   2.542   3.670
 1111TIP3    H1 3339   1.099   2.574   3.596
 1111TIP3    H2 3340   1.092   2.554   3.746
 1112TIP3   OH2 3341   3.714   2.076   3.058
 1112TIP3    H1 3342   3.711   1.981   3.054
 1112TIP3    H2 3343   3.786   2.096   3.118
 1113TIP3   OH2 3344   6.148   3.188   1.993
 1113TIP3    H1 3345   6.202   3.255   2.036
 1113TIP3    H2 3346   6.058   3.220   2.001
 1114TIP3   OH2 3347   2.419   1.520   1.504
 1114TIP3    H1 3348   2.339   1.572   1.505
 1114TIP3    H2 3349   2.451   1.524   1.594
 1115TIP3   OH2 3350   6.056   0.409   2.165
 1115TIP3    H1 3351   6.006   0.440   2.240
 1115TIP3    H2 3352   5.992   0.405   2.094
 1116TIP3   OH2 3353   4.161   1.043   3.847
 1116TIP3    H1 3354   4.184   0.992   3.769
 1116TIP3    H2 3355   4.200   0.994   3.919
 1117TIP3   OH2 3356   1.590   5.182   3.786
 1117TIP3    H1 3357   1.602   5.276   3.775
 1117TIP3    H2 3358   1.572   5.150   3.698
 1118TIP3   OH2 3359   4.686   0.769   0.016
 1118TIP3    H1 3360   4.728   0.821  -0.053
 1118TIP3    H2 3361   4.742   0.782   0.093
 1119TIP3   OH2 3362   0.045   1.858   2.060
 1119TIP3    H1 3363  -0.001   1.813   1.988
 1119TIP3    H2 3364   0.130   1.814   2.065
 1120TIP3   OH2 3365   5.363   4.358   2.056
 1120TIP3    H1 3366   5.432   4.337   1.992
 1120TIP3    H2 3367   5.282   4.327   2.015
 1121TIP3   OH2 3368   2.685   1.294   3.661
 1121TIP3    H1 3369   2.731   1.277   3.580
 1121TIP3    H2 3370   2.737   1.250   3.728
 1122TIP3   OH2 3371   1.568   0.187   3.571
 1122TIP3    H1 3372   1.584   0.118   3.506
 1122TIP3    H2 3373   1.648   0.189   3.623
 1123TIP3   OH2 3374   1.423   3.608   3.954
 1123TIP3    H1 3375   1.372   3.527   3.947
 1123TIP3    H2 3376   1.377   3.670   3.896
 1124TIP3   OH2 3377   0.086   2.789   1.180
 1124TIP3    H1 3378   0.162   2.843   1.161
 1124TIP3    H2 3379   0.118   2.721   1.239
 1125TIP3   OH2 3380   2.971   4.762   3.944
 1125TIP3    H1 3381   2.908   4.750   4.016
 1125TIP3    H2 3382   2.948   4.695   3.880
 1126TIP3   OH2 3383   5.572   1.927   1.610
 1126TIP3    H1 3384   5.663   1.898   1.621
 1126TIP3    H2 3385   5.564   2.003   1.668
 1127TIP3   OH2 3386   0.039   1.286   3.863
 1127TIP3    H1 3387  -0.017   1.305   3.787
 1127TIP3    H2 3388  -0.022   1.278   3.936
 1128TIP3   OH2 3389   1.716   0.608   4.657
 1128TIP3    H1 3390   1.635   0.657   4.651
 1128TIP3    H2 3391   1.690   0.517   4.646
 1129TIP3   OH2 3392   5.787   0.183   1.984
 1129TIP3    H1 3393   5.845   0.259   1.980
 1129TIP3    H2 3394   5.815   0.127   1.911
 1130TIP3   OH2 3395   0.619   5.411   3.495
 1130TIP3    H1 3396   0.545   5.351   3.490
 1130TIP3    H2 3397   0.656   5.397   3.582
 1131TIP3   OH2 3398   0.312   2.877   4.156
 1131TIP3    H1 3399   0.364   2.801   4.181
 1131TIP3    H2 3400   0.260   2.897   4.233
 1132TIP3   OH2 3401   5.515   2.678   2.629
 1132TIP3    H1 3402   5.471   2.644   2.707
 1132TIP3    H2 3403   5.511   2.773   2.638
 1133TIP3   OH2 3404   2.652   1.604   2.496
 1133TIP3    H1 3405   2.664   1.602   2.401
 1133TIP3    H2 3406   2.601   1.526   2.515
 1134TIP3   OH2 3407   5.406   2.087   0.224
 1134TIP3    H1 3408   5.437   2.000   0.200
 1134TIP3    H2 3409   5.311   2.083   0.208
 1135TIP3   OH2 3410   1.078   3.747   4.352
 1135TIP3    H1 3411   1.152   3.687   4.362
 1135TIP3    H2 3412   1.077   3.770   4.260
 1136TIP3   OH2 3413   5.385   0.362   4.210
 1136TIP3    H1 3414   5.373   0.308   4.288
 1136TIP3    H2 3415   5.453   0.425   4.235
 1137TIP3   OH2 3416   4.867   3.959   2.221
 1137TIP3    H1 3417   4.795   4.017   2.196
 1137TIP3    H2 3418   4.907   3.932   2.138
 1138TIP3   OH2 3419   3.807   3.567   1.936
 1138TIP3    H1 3420   3.876   3.631   1.948
 1138TIP3    H2 3421   3.739   3.592   1.999
 1139TIP3   OH2 3422   3.509   2.354   2.753
 1139TIP3    H1 3423   3.539   2.319   2.837
 1139TIP3    H2 3424   3.526   2.284   2.690
 1140TIP3   OH2 3425   3.468   2.374   3.446
 1140TIP3    H1 3426   3.420   2.401   3.367
 1140TIP3    H2 3427   3.435   2.286   3.465
 1141TIP3   OH2 3428   2.037   0.099   1.660
 1141TIP3    H1 3429   2.079   0.141   1.735
 1141TIP3    H2 3430   1.950   0.075   1.691
 1142TIP3   OH2 3431   3.603   5.810   1.349
 1142TIP3    H1 3432   3.627   5.890   1.304
 1142TIP3    H2 3433   3.681   5.754   1.344
 1143TIP3   OH2 3434   5.261   5.614   4.459
 1143TIP3    H1 3435   5.223   5.531   4.431
 1143TIP3    H2 3436   5.213   5.638   4.538
 1144TIP3   OH2 3437   3.948   3.899   3.750
 1144TIP3    H1 3438   3.886   3.827   3.742
 1144TIP3    H2 3439   4.010   3.870   3.818
 1145TIP3   OH2 3440   5.249   5.853   3.155
 1145TIP3    H1 3441   5.264   5.929   3.100
 1145TIP3    H2 3442   5.228   5.782   3.094
 1146TIP3   OH2 3443   5.763   0.071   3.275
 1146TIP3    H1 3444   5.815   0.049   3.198
 1146TIP3    H2 3445   5.828   0.094   3.342
 1147TIP3   OH2 3446   2.718   5.747   4.567
 1147TIP3    H1 3447   2.759   5.832   4.550
 1147TIP3    H2 3448   2.680   5.755   4.655
 1148TIP3   OH2 3449   1.234   2.453   2.633
 1148TIP3    H1 3450   1.262   2.542   2.612
 1148TIP3    H2 3451   1.222   2.411   2.548
 1149TIP3   OH2 3452   4.225   0.932   3.556
 1149TIP3    H1 3453   4.308   0.900   3.520
 1149TIP3    H2 3454   4.175   0.852   3.574
 1150TIP3   OH2 3455   5.944   3.805   4.446
 1150TIP3    H1 3456   5.945   3.899   4.424
 1150TIP3    H2 3457   5.979   3.763   4.367
 1151TIP3   OH2 3458   3.142   4.075   3.157
 1151TIP3    H1 3459   3.082   4.136   3.114
 1151TIP3    H2 3460   3.227   4.092   3.116
 1152TIP3   OH2 3461   5.004   0.092   4.831
 1152TIP3    H1 3462   5.052   0.070   4.752
 1152TIP3    H2 3463   5.023   0.185   4.845
 1153TIP3   OH2 3464   5.560   5.122   1.184
 1153TIP3    H1 3465   5.635   5.173   1.156
 1153TIP3    H2 3466   5.489   5.150   1.126
 1154TIP3   OH2 3467   4.353   2.208   0.245
 1154TIP3    H1 3468   4.321   2.248   0.165
 1154TIP3    H2 3469   4.401   2.278   0.290
 1155TIP3   OH2 3470   0.372   2.932   3.570
 1155TIP3    H1 3471   0.357   3.004   3.509
 1155TIP3    H2 3472   0.347   2.853   3.521
 1156TIP3   OH2 3473   3.435   3.358   4.308
 1156TIP3    H1 3474   3.399   3.273   4.329
 1156TIP3    H2 3475   3.528   3.341   4.291
 1157TIP3   OH2 3476   0.081   2.734   4.611
 1157TIP3    H1 3477   0.074   2.809   4.671
 1157TIP3    H2 3478   0.049   2.660   4.663
 1158TIP3   OH2 3479   4.280   5.077   0.697
 1158TIP3    H1 3480   4.233   5.093   0.616
 1158TIP3    H2 3481   4.215   5.089   0.766
 1159TIP3   OH2 3482   5.946   1.419   0.539
 1159TIP3    H1 3483   6.023   1.363   0.529
 1159TIP3    H2 3484   5.980   1.504   0.565
 1160TIP3   OH2 3485   1.553   5.524   0.293
 1160TIP3    H1 3486   1.537   5.537   0.387
 1160TIP3    H2 3487   1.648   5.530   0.284
 1161TIP3   OH2 3488   1.968   1.572   4.020
 1161TIP3    H1 3489   2.034   1.596   4.085
 1161TIP3    H2 3490   1.963   1.477   4.024
 1162TIP3   OH2 3491   1.160   3.614   1.895
 1162TIP3    H1 3492   1.173   3.565   1.976
 1162TIP3    H2 3493   1.128   3.549   1.832
 1163TIP3   OH2 3494   2.524   0.322   2.559
 1163TIP3    H1 3495   2.520   0.281   2.472
 1163TIP3    H2 3496   2.603   0.376   2.556
 1164TIP3   OH2 3497   0.345   1.944   3.839
 1164TIP3    H1 3498   0.293   2.002   3.783
 1164TIP3    H2 3499   0.374   1.874   3.781
 1165TIP3   OH2 3500   0.137   4.047   0.096
 1165TIP3    H1 3501   0.046   4.077   0.091
 1165TIP3    H2 3502   0.184   4.121   0.134
 1166TIP3   OH2 3503   1.626   2.302   0.916
 1166TIP3    H1 3504   1.649   2.374   0.858
 1166TIP3    H2 3505   1.547   2.263   0.877
 1167TIP3   OH2 3506   2.155   1.289   3.774
 1167TIP3    H1 3507   2.195   1.364   3.729
 1167TIP3    H2 3508   2.070   1.278   3.732
 1168TIP3   OH2 3509   1.495   2.197   0.192
 1168TIP3    H1 3510   1.441   2.270   0.161
 1168TIP3    H2 3511   1.554   2.178   0.119
 1169TIP3   OH2 3512   3.028   1.795   5.154
 1169TIP3    H1 3513   3.010   1.735   5.081
 1169TIP3    H2 3514   3.004   1.745   5.232
 1170TIP3   OH2 3515   6.099   1.158   1.152
 1170TIP3    H1 3516   6.054   1.219   1.211
 1170TIP3    H2 3517   6.069   1.071   1.179
 1171TIP3   OH2 3518   5.106   3.329   4.170
 1171TIP3    H1 3519   5.194   3.304   4.198
 1171TIP3    H2 3520   5.082   3.402   4.228
 1172TIP3   OH2 3521   6.173   1.740   3.593
 1172TIP3    H1 3522   6.090   1.780   3.568
 1172TIP3    H2 3523   6.238   1.786   3.540
 1173TIP3   OH2 3524   4.900   3.726   4.974
 1173TIP3    H1 3525   4.852   3.655   5.016
 1173TIP3    H2 3526   4.876   3.719   4.882
 1174TIP3   OH2 3527   0.592   5.184   2.326
 1174TIP3    H1 3528   0.619   5.169   2.236
 1174TIP3    H2 3529   0.511   5.133   2.336
 1175TIP3   OH2 3530   4.829   1.474   1.155
 1175TIP3    H1 3531   4.878   1.555   1.168
 1175TIP3    H2 3532   4.763   1.496   1.090
 1176TIP3   OH2 3533   2.253   2.363   2.432
 1176TIP3    H1 3534   2.171   2.349   2.480
 1176TIP3    H2 3535   2.294   2.277   2.430
 1177TIP3   OH2 3536   3.341   2.649   4.257
 1177TIP3    H1 3537   3.419   2.660   4.311
 1177TIP3    H2 3538   3.268   2.653   4.319
 1178TIP3   OH2 3539   0.753   2.377   3.416
 1178TIP3    H1 3540   0.685   2.338   3.471
 1178TIP3    H2 3541   0.808   2.426   3.478
 1179TIP3   OH2 3542   0.523   3.572   3.784
 1179TIP3    H1 3543   0.469   3.516   3.727
 1179TIP3    H2 3544   0.586   3.511   3.823
 1180TIP3   OH2 3545   1.842   5.632   0.258
 1180TIP3    H1 3546   1.859   5.539   0.242
 1180TIP3    H2 3547   1.927   5.668   0.282
 1181TIP3   OH2 3548   3.551   5.238   3.988
 1181TIP3    H1 3549   3.508   5.267   3.908
 1181TIP3    H2 3550   3.486   5.186   4.033
 1182TIP3   OH2 3551   2.834   5.448   3.231
 1182TIP3    H1 3552   2.883   5.522   3.195
 1182TIP3    H2 3553   2.865   5.372   3.183
 1183TIP3   OH2 3554   3.844   0.024   2.637
 1183TIP3    H1 3555   3.805   0.074   2.565
 1183TIP3    H2 3556   3.926   0.068   2.656
 1184TIP3   OH2 3557   1.618   4.804   1.552
 1184TIP3    H1 3558   1.636   4.798   1.458
 1184TIP3    H2 3559   1.624   4.714   1.584
 1185TIP3   OH2 3560   2.038   3.520   2.419
 1185TIP3    H1 3561   2.042   3.584   2.490
 1185TIP3    H2 3562   2.123   3.476   2.421
 1186TIP3   OH2 3563   1.043   2.650   3.430
 1186TIP3    H1 3564   0.974   2.703   3.469
 1186TIP3    H2 3565   1.111   2.714   3.407
 1187TIP3   OH2 3566   5.483   0.506   2.373
 1187TIP3    H1 3567   5.431   0.556   2.437
 1187TIP3    H2 3568   5.509   0.426   2.420
 1188TIP3   OH2 3569   2.347   4.553   0.878
 1188TIP3    H1 3570   2.358   4.469   0.921
 1188TIP3    H2 3571   2.435   4.576   0.847
 1189TIP3   OH2 3572   5.211   1.210   1.085
 1189TIP3    H1 3573   5.204   1.252   1.170
 1189TIP3    H2 3574   5.186   1.119   1.100
 1190TIP3   OH2 3575   3.154   4.524   1.672
 1190TIP3    H1 3576   3.175   4.579   1.748
 1190TIP3    H2 3577   3.228   4.538   1.612
 1191TIP3   OH2 3578   4.178   1.024   0.523
 1191TIP3    H1 3579   4.142   1.050   0.438
 1191TIP3    H2 3580   4.187   1.106   0.571
 1192TIP3   OH2 3581   2.147   4.726   2.521
 1192TIP3    H1 3582   2.064   4.679   2.513
 1192TIP3    H2 3583   2.155   4.775   2.439
 1193TIP3   OH2 3584   1.183   4.331   2.503
 1193TIP3    H1 3585   1.173   4.425   2.514
 1193TIP3    H2 3586   1.277   4.315   2.514
 1194TIP3   OH2 3587   5.739   5.304   4.134
 1194TIP3    H1 3588   5.724   5.386   4.086
 1194TIP3    H2 3589   5.731   5.328   4.226
 1195TIP3   OH2 3590   5.757   4.322   3.092
 1195TIP3    H1 3591   5.709   4.276   3.161
 1195TIP3    H2 3592   5.783   4.405   3.132
 1196TIP3   OH2 3593   5.825   1.233   3.328
 1196TIP3    H1 3594   5.836   1.318   3.372
 1196TIP3    H2 3595   5.890   1.176   3.370
 1197TIP3   OH2 3596   4.884   2.331   2.936
 1197TIP3    H1 3597   4.864   2.344   2.843
 1197TIP3    H2 3598   4.811   2.371   2.983
 1198TIP3   OH2 3599   5.853   5.973   1.960
 1198TIP3    H1 3600   5.898   6.008   2.037
 1198TIP3    H2 3601   5.769   5.943   1.994
 1199TIP3   OH2 3602   1.181   0.796   3.724
 1199TIP3    H1 3603   1.204   0.882   3.688
 1199TIP3    H2 3604   1.224   0.794   3.810
 1200TIP3   OH2 3605   4.537   5.118   5.059
 1200TIP3    H1 3606   4.467   5.053   5.061
 1200TIP3    H2 3607   4.538   5.150   4.969
 1201TIP3   OH2 3608   0.877   5.451   2.437
 1201TIP3    H1 3609   0.906   5.540   2.418
 1201TIP3    H2 3610   0.788   5.462   2.471
 1202TIP3   OH2 3611   5.369   0.631   2.590
 1202TIP3    H1 3612   5.279   0.660   2.603
 1202TIP3    H2 3613   5.396   0.599   2.676
 1203TIP3   OH2 3614   6.196   2.512   3.420
 1203TIP3    H1 3615   6.182   2.437   3.477
 1203TIP3    H2 3616   6.251   2.478   3.349
 1204TIP3   OH2 3617   3.942   3.207   1.222
 1204TIP3    H1 3618   3.913   3.117   1.239
 1204TIP3    H2 3619   4.007   3.197   1.152
 1205TIP3   OH2 3620   3.192   1.531   0.470
 1205TIP3    H1 3621   3.180   1.520   0.564
 1205TIP3    H2 3622   3.192   1.625   0.456
 1206TIP3   OH2 3623   1.779   1.343   2.652
 1206TIP3    H1 3624   1.727   1.263   2.644
 1206TIP3    H2 3625   1.784   1.359   2.746
 1207TIP3   OH2 3626   4.647   3.307   3.268
 1207TIP3    H1 3627   4.671   3.279   3.357
 1207TIP3    H2 3628   4.551   3.297   3.265
 1208TIP3   OH2 3629   5.359   5.505   0.888
 1208TIP3    H1 3630   5.445   5.544   0.905
 1208TIP3    H2 3631   5.362   5.481   0.795
 1209TIP3   OH2 3632   2.017   0.880   3.593
 1209TIP3    H1 3633   1.961   0.912   3.664
 1209TIP3    H2 3634   2.083   0.948   3.582
 1210TIP3   OH2 3635   3.416   3.946   1.790
 1210TIP3    H1 3636   3.418   3.850   1.783
 1210TIP3    H2 3637   3.350   3.973   1.726
 1211TIP3   OH2 3638   0.261   0.329   3.528
 1211TIP3    H1 3639   0.180   0.281   3.511
 1211TIP3    H2 3640   0.274   0.383   3.450
 1212TIP3   OH2 3641   2.726   2.433   1.523
 1212TIP3    H1 3642   2.679   2.420   1.440
 1212TIP3    H2 3643   2.809   2.387   1.511
 1213TIP3   OH2 3644   1.546   5.251   0.410
 1213TIP3    H1 3645   1.465   5.206   0.432
 1213TIP3    H2 3646   1.585   5.197   0.341
 1214TIP3   OH2 3647   0.325   1.717   3.696
 1214TIP3    H1 3648   0.275   1.678   3.767
 1214TIP3    H2 3649   0.384   1.648   3.667
 1215TIP3   OH2 3650   6.276   5.185   5.031
 1215TIP3    H1 3651   6.368   5.161   5.036
 1215TIP3    H2 3652   6.262   5.206   4.938
 1216TIP3   OH2 3653   2.839   0.548   1.197
 1216TIP3    H1 3654   2.889   0.539   1.278
 1216TIP3    H2 3655   2.886   0.615   1.147
 1217TIP3   OH2 3656   0.502   3.934   2.975
 1217TIP3    H1 3657   0.563   3.984   2.921
 1217TIP3    H2 3658   0.532   3.948   3.064
 1218TIP3   OH2 3659   5.662   0.864   4.850
 1218TIP3    H1 3660   5.746   0.889   4.888
 1218TIP3    H2 3661   5.683   0.800   4.782
 1219TIP3   OH2 3662   1.925   1.462   2.419
 1219TIP3    H1 3663   2.017   1.458   2.441
 1219TIP3    H2 3664   1.880   1.423   2.494
 1220TIP3   OH2 3665   5.215   1.871   0.414
 1220TIP3    H1 3666   5.304   1.896   0.436
 1220TIP3    H2 3667   5.184   1.821   0.489
 1221TIP3   OH2 3668   5.719   5.107   2.825
 1221TIP3    H1 3669   5.672   5.089   2.743
 1221TIP3    H2 3670   5.761   5.192   2.811
 1222TIP3   OH2 3671   1.730   4.429   2.912
 1222TIP3    H1 3672   1.635   4.436   2.915
 1222TIP3    H2 3673   1.756   4.482   2.836
 1223TIP3   OH2 3674   1.368   1.445   4.502
 1223TIP3    H1 3675   1.409   1.509   4.445
 1223TIP3    H2 3676   1.322   1.497   4.568
 1224TIP3   OH2 3677   3.345   0.674   3.519
 1224TIP3    H1 3678   3.392   0.600   3.480
 1224TIP3    H2 3679   3.409   0.745   3.519
 1225TIP3   OH2 3680   1.083   0.795   2.540
 1225TIP3    H1 3681   1.136   0.725   2.503
 1225TIP3    H2 3682   1.036   0.833   2.466
 1226TIP3   OH2 3683   6.317   2.765   3.471
 1226TIP3    H1 3684   6.309   2.810   3.556
 1226TIP3    H2 3685   6.273   2.681   3.485
 1227TIP3   OH2 3686   4.315   4.734   0.605
 1227TIP3    H1 3687   4.244   4.762   0.663
 1227TIP3    H2 3688   4.340   4.814   0.558
 1228TIP3   OH2 3689   3.894   4.079   1.890
 1228TIP3    H1 3690   3.913   4.134   1.813
 1228TIP3    H2 3691   3.804   4.102   1.914
 1229TIP3   OH2 3692   0.133   1.673   2.421
 1229TIP3    H1 3693   0.228   1.667   2.423
 1229TIP3    H2 3694   0.102   1.589   2.454
 1230TIP3   OH2 3695   1.295   1.885   5.052
 1230TIP3    H1 3696   1.290   1.902   5.146
 1230TIP3    H2 3697   1.361   1.816   5.044
 1231TIP3   OH2 3698   5.145   1.566   3.679
 1231TIP3    H1 3699   5.127   1.566   3.773
 1231TIP3    H2 3700   5.238   1.584   3.672
 1232TIP3   OH2 3701   3.465   5.453   1.180
 1232TIP3    H1 3702   3.463   5.545   1.154
 1232TIP3    H2 3703   3.526   5.412   1.119
 1233TIP3   OH2 3704   4.154   1.159   0.816
 1233TIP3    H1 3705   4.079   1.109   0.847
 1233TIP3    H2 3706   4.119   1.247   0.801
 1234TIP3   OH2 3707   1.429   2.847   0.053
 1234TIP3    H1 3708   1.482   2.830   0.130
 1234TIP3    H2 3709   1.468   2.924   0.012
 1235TIP3   OH2 3710   1.975   5.991   5.010
 1235TIP3    H1 3711   2.021   5.907   4.997
 1235TIP3    H2 3712   1.883   5.966   5.019
 1236TIP3   OH2 3713   3.646   4.568   1.237
 1236TIP3    H1 3714   3.663   4.658   1.264
 1236TIP3    H2 3715   3.589   4.575   1.161
 1237TIP3   OH2 3716   3.076   4.970   2.814
 1237TIP3    H1 3717   3.087   4.934   2.726
 1237TIP3    H2 3718   3.136   5.045   2.818
 1238TIP3   OH2 3719   4.362   5.118   2.273
 1238TIP3    H1 3720   4.317   5.074   2.344
 1238TIP3    H2 3721   4.420   5.180   2.316
 1239TIP3   OH2 3722   2.725   2.095   4.210
 1239TIP3    H1 3723   2.762   2.059   4.291
 1239TIP3    H2 3724   2.762   2.041   4.141
 1240TIP3   OH2 3725   0.461   1.101   2.633
 1240TIP3    H1 3726   0.529   1.081   2.569
 1240TIP3    H2 3727   0.497   1.173   2.684
 1241TIP3   OH2 3728   2.042   0.972   1.753
 1241TIP3    H1 3729   1.967   0.928   1.712
 1241TIP3    H2 3730   2.016   1.065   1.757
 1242TIP3   OH2 3731   2.816   0.085   1.488
 1242TIP3    H1 3732   2.858   0.006   1.524
 1242TIP3    H2 3733   2.873   0.156   1.516
 1243TIP3   OH2 3734   3.761   2.677   0.169
 1243TIP3    H1 3735   3.751   2.726   0.251
 1243TIP3    H2 3736   3.689   2.614   0.170
 1244TIP3   OH2 3737   1.948   3.268   3.831
 1244TIP3    H1 3738   1.933   3.175   3.847
 1244TIP3    H2 3739   1.936   3.278   3.737
 1245TIP3   OH2 3740   5.060   0.296   1.845
 1245TIP3    H1 3741   4.996   0.349   1.893
 1245TIP3    H2 3742   5.145   0.337   1.864
 1246TIP3   OH2 3743   5.544   1.839   3.346
 1246TIP3    H1 3744   5.539   1.761   3.402
 1246TIP3    H2 3745   5.455   1.876   3.349
 1247TIP3   OH2 3746   3.127   1.094   2.458
 1247TIP3    H1 3747   3.206   1.079   2.509
 1247TIP3    H2 3748   3.087   1.172   2.498
 1248TIP3   OH2 3749   2.806   3.745   2.773
 1248TIP3    H1 3750   2.840   3.793   2.849
 1248TIP3    H2 3751   2.860   3.775   2.700
 1249TIP3   OH2 3752   4.714   0.497   3.905
 1249TIP3    H1 3753   4.628   0.457   3.893
 1249TIP3    H2 3754   4.734   0.482   3.998
 1250TIP3   OH2 3755   4.285   0.421   4.536
 1250TIP3    H1 3756   4.371   0.422   4.493
 1250TIP3    H2 3757   4.290   0.347   4.597
 1251TIP3   OH2 3758   5.465   0.604   0.973
 1251TIP3    H1 3759   5.402   0.651   0.917
 1251TIP3    H2 3760   5.535   0.578   0.913
 1252TIP3   OH2 3761   5.099   0.425   2.933
 1252TIP3    H1 3762   5.045   0.367   2.987
 1252TIP3    H2 3763   5.081   0.512   2.967
 1253TIP3   OH2 3764   0.835   5.872   0.958
 1253TIP3    H1 3765   0.841   5.946   0.897
 1253TIP3    H2 3766   0.925   5.854   0.983
 1254TIP3   OH2 3767   0.028   1.060   1.268
 1254TIP3    H1 3768  -0.021   1.122   1.214
 1254TIP3    H2 3769   0.062   1.112   1.340
 1255TIP3   OH2 3770   0.099   3.044   5.033
 1255TIP3    H1 3771   0.081   3.015   5.122
 1255TIP3    H2 3772   0.191   3.024   5.019
 1256TIP3   OH2 3773   0.037   5.951   1.456
 1256TIP3    H1 3774  -0.036   5.943   1.395
 1256TIP3    H2 3775   0.000   5.996   1.532
 1257TIP3   OH2 3776   1.152   1.428   2.763
 1257TIP3    H1 3777   1.123   1.382   2.842
 1257TIP3    H2 3778   1.232   1.383   2.737
 1258TIP3   OH2 3779   2.394   4.231   4.340
 1258TIP3    H1 3780   2.488   4.244   4.348
 1258TIP3    H2 3781   2.373   4.166   4.407
 1259TIP3   OH2 3782   5.655   3.262   0.320
 1259TIP3    H1 3783   5.623   3.353   0.320
 1259TIP3    H2 3784   5.739   3.267   0.274
 1260TIP3   OH2 3785   5.439   1.335   0.568
 1260TIP3    H1 3786   5.474   1.365   0.651
 1260TIP3    H2 3787   5.479   1.392   0.503
 1261TIP3   OH2 3788   0.945   5.999   5.052
 1261TIP3    H1 3789   1.028   6.028   5.014
 1261TIP3    H2 3790   0.952   5.904   5.057
 1262TIP3   OH2 3791   1.099   5.841   1.042
 1262TIP3    H1 3792   1.119   5.752   1.013
 1262TIP3    H2 3793   1.152   5.852   1.121
 1263TIP3   OH2 3794   0.616   0.755   5.192
 1263TIP3    H1 3795   0.700   0.743   5.147
 1263TIP3    H2 3796   0.550   0.738   5.125
 1264TIP3   OH2 3797   3.045   2.332   1.017
 1264TIP3    H1 3798   2.956   2.303   1.035
 1264TIP3    H2 3799   3.037   2.391   0.943
 1265TIP3   OH2 3800   1.974   1.893   1.474
 1265TIP3    H1 3801   1.929   1.977   1.480
 1265TIP3    H2 3802   2.010   1.891   1.386
 1266TIP3   OH2 3803   0.449   5.793   0.582
 1266TIP3    H1 3804   0.449   5.856   0.510
 1266TIP3    H2 3805   0.491   5.839   0.654
 1267TIP3   OH2 3806   3.563   0.561   1.119
 1267TIP3    H1 3807   3.559   0.622   1.045
 1267TIP3    H2 3808   3.488   0.503   1.106
 1268TIP3   OH2 3809   5.765   0.668   3.875
 1268TIP3    H1 3810   5.792   0.685   3.784
 1268TIP3    H2 3811   5.802   0.741   3.924
 1269TIP3   OH2 3812   1.413   4.169   5.146
 1269TIP3    H1 3813   1.363   4.233   5.096
 1269TIP3    H2 3814   1.380   4.175   5.235
 1270TIP3   OH2 3815   1.513   4.672   3.157
 1270TIP3    H1 3816   1.608   4.679   3.154
 1270TIP3    H2 3817   1.495   4.610   3.227
 1271TIP3   OH2 3818   4.088   1.817   2.350
 1271TIP3    H1 3819   4.161   1.785   2.403
 1271TIP3    H2 3820   4.010   1.798   2.403
 1272TIP3   OH2 3821   6.248   2.875   2.493
 1272TIP3    H1 3822   6.261   2.833   2.579
 1272TIP3    H2 3823   6.318   2.839   2.438
 1273TIP3   OH2 3824   1.271   5.408   2.044
 1273TIP3    H1 3825   1.196   5.418   2.103
 1273TIP3    H2 3826   1.238   5.437   1.958
 1274TIP3   OH2 3827   0.331   0.813   3.805
 1274TIP3    H1 3828   0.342   0.765   3.722
 1274TIP3    H2 3829   0.394   0.772   3.865
 1275TIP3   OH2 3830   3.350   1.646   0.949
 1275TIP3    H1 3831   3.325   1.737   0.934
 1275TIP3    H2 3832   3.440   1.640   0.917
 1276TIP3   OH2 3833   3.575   2.492   0.155
 1276TIP3    H1 3834   3.604   2.447   0.234
 1276TIP3    H2 3835   3.497   2.443   0.127
 1277TIP3   OH2 3836   6.116   4.153   2.062
 1277TIP3    H1 3837   6.176   4.135   2.134
 1277TIP3    H2 3838   6.124   4.077   2.004
 1278TIP3   OH2 3839   4.783   0.741   0.620
 1278TIP3    H1 3840   4.759   0.771   0.708
 1278TIP3    H2 3841   4.755   0.650   0.617
 1279TIP3   OH2 3842   2.570   0.581   4.255
 1279TIP3    H1 3843   2.504   0.616   4.315
 1279TIP3    H2 3844   2.654   0.608   4.293
 1280TIP3   OH2 3845   0.624   1.938   0.108
 1280TIP3    H1 3846   0.675   1.964   0.185
 1280TIP3    H2 3847   0.685   1.886   0.056
 1281TIP3   OH2 3848   5.058   0.318   4.212
 1281TIP3    H1 3849   5.034   0.406   4.183
 1281TIP3    H2 3850   5.147   0.305   4.180
 1282TIP3   OH2 3851   4.985   2.678   0.774
 1282TIP3    H1 3852   4.967   2.650   0.864
 1282TIP3    H2 3853   5.022   2.601   0.732
 1283TIP3   OH2 3854   5.411   0.103   2.289
 1283TIP3    H1 3855   5.417   0.179   2.347
 1283TIP3    H2 3856   5.444   0.133   2.205
 1284TIP3   OH2 3857   1.028   1.848   0.926
 1284TIP3    H1 3858   1.085   1.834   0.851
 1284TIP3    H2 3859   1.052   1.778   0.987
 1285TIP3   OH2 3860   3.542   0.542   2.220
 1285TIP3    H1 3861   3.535   0.504   2.133
 1285TIP3    H2 3862   3.593   0.479   2.270
 1286TIP3   OH2 3863   5.259   1.775   3.854
 1286TIP3    H1 3864   5.208   1.699   3.881
 1286TIP3    H2 3865   5.337   1.772   3.909
 1287TIP3   OH2 3866   3.371   1.303   4.248
 1287TIP3    H1 3867   3.307   1.354   4.198
 1287TIP3    H2 3868   3.336   1.214   4.249
 1288TIP3   OH2 3869   5.054   1.279   3.928
 1288TIP3    H1 3870   5.117   1.215   3.893
 1288TIP3    H2 3871   5.060   1.268   4.023
 1289TIP3   OH2 3872   5.523   1.072   0.474
 1289TIP3    H1 3873   5.437   1.101   0.504
 1289TIP3    H2 3874   5.582   1.145   0.495
 1290TIP3   OH2 3875   2.427   2.898   1.643
 1290TIP3    H1 3876   2.408   2.883   1.550
 1290TIP3    H2 3877   2.466   2.816   1.673
 1291TIP3   OH2 3878   5.224   5.704   1.444
 1291TIP3    H1 3879   5.176   5.776   1.402
 1291TIP3    H2 3880   5.191   5.625   1.401
 1292TIP3   OH2 3881   5.887   3.135   2.991
 1292TIP3    H1 3882   5.973   3.177   2.996
 1292TIP3    H2 3883   5.882   3.080   3.069
 1293TIP3   OH2 3884   4.089   2.868   2.496
 1293TIP3    H1 3885   4.088   2.850   2.590
 1293TIP3    H2 3886   4.064   2.960   2.488
 1294TIP3   OH2 3887   3.924   0.762   2.971
 1294TIP3    H1 3888   3.918   0.857   2.957
 1294TIP3    H2 3889   3.989   0.752   3.041
 1295TIP3   OH2 3890   2.321   5.614   3.489
 1295TIP3    H1 3891   2.357   5.585   3.573
 1295TIP3    H2 3892   2.228   5.596   3.496
 1296TIP3   OH2 3893   0.223   2.017   3.362
 1296TIP3    H1 3894   0.300   2.027   3.306
 1296TIP3    H2 3895   0.149   2.009   3.301
 1297TIP3   OH2 3896   5.373   2.576   2.849
 1297TIP3    H1 3897   5.387   2.597   2.942
 1297TIP3    H2 3898   5.284   2.541   2.845
 1298TIP3   OH2 3899   5.131   0.253   2.420
 1298TIP3    H1 3900   5.161   0.292   2.338
 1298TIP3    H2 3901   5.151   0.318   2.487
 1299TIP3   OH2 3902   5.475   3.105   0.521
 1299TIP3    H1 3903   5.491   3.152   0.439
 1299TIP3    H2 3904   5.380   3.107   0.531
 1300TIP3   OH2 3905   5.944   5.222   2.084
 1300TIP3    H1 3906   6.039   5.213   2.082
 1300TIP3    H2 3907   5.929   5.307   2.126
 1301TIP3   OH2 3908   1.177   3.223   1.396
 1301TIP3    H1 3909   1.236   3.219   1.471
 1301TIP3    H2 3910   1.181   3.136   1.358
 1302TIP3   OH2 3911   3.695   2.840   0.385
 1302TIP3    H1 3912   3.614   2.879   0.353
 1302TIP3    H2 3913   3.671   2.797   0.467
 1303TIP3   OH2 3914   3.775   5.627   1.271
 1303TIP3    H1 3915   3.774   5.552   1.331
 1303TIP3    H2 3916   3.763   5.588   1.185
 1304TIP3   OH2 3917   4.052   0.134   2.292
 1304TIP3    H1 3918   4.059   0.215   2.242
 1304TIP3    H2 3919   4.135   0.127   2.339
 1305TIP3   OH2 3920   0.335   1.175   1.144
 1305TIP3    H1 3921   0.299   1.194   1.231
 1305TIP3    H2 3922   0.423   1.141   1.162
 1306TIP3   OH2 3923   3.198   5.589   1.388
 1306TIP3    H1 3924   3.119   5.542   1.413
 1306TIP3    H2 3925   3.188   5.606   1.295
 1307TIP3   OH2 3926   0.256   3.042   3.145
 1307TIP3    H1 3927   0.203   2.975   3.189
 1307TIP3    H2 3928   0.291   2.998   3.068
 1308TIP3   OH2 3929   6.138   0.080   0.115
 1308TIP3    H1 3930   6.162   0.172   0.129
 1308TIP3    H2 3931   6.221   0.032   0.119
 1309TIP3   OH2 3932   4.795   5.213   0.259
 1309TIP3    H1 3933   4.809   5.185   0.169
 1309TIP3    H2 3934   4.883   5.227   0.294
 1310TIP3   OH2 3935   4.279   1.230   1.480
 1310TIP3    H1 3936   4.184   1.219   1.472
 1310TIP3    H2 3937   4.311   1.142   1.502
 1311TIP3   OH2 3938   2.725   4.617   2.465
 1311TIP3    H1 3939   2.670   4.604   2.388
 1311TIP3    H2 3940   2.803   4.565   2.448
 1312TIP3   OH2 3941   3.130   2.318   4.210
 1312TIP3    H1 3942   3.137   2.409   4.183
 1312TIP3    H2 3943   3.036   2.301   4.214
 1313TIP3   OH2 3944   1.944   5.979   0.657
 1313TIP3    H1 3945   1.954   5.924   0.734
 1313TIP3    H2 3946   2.032   6.012   0.639
 1314TIP3   OH2 3947   4.419   2.142   3.333
 1314TIP3    H1 3948   4.342   2.165   3.386
 1314TIP3    H2 3949   4.491   2.189   3.374
 1315TIP3   OH2 3950   5.746   3.177   2.064
 1315TIP3    H1 3951   5.822   3.174   2.121
 1315TIP3    H2 3952   5.780   3.208   1.980
 1316TIP3   OH2 3953   0.627   1.169   1.243
 1316TIP3    H1 3954   0.689   1.141   1.311
 1316TIP3    H2 3955   0.603   1.258   1.268
 1317TIP3   OH2 3956   6.017   2.412   0.943
 1317TIP3    H1 3957   5.955   2.363   0.889
 1317TIP3    H2 3958   5.994   2.389   1.033
 1318TIP3   OH2 3959   6.316   1.435   3.194
 1318TIP3    H1 3960   6.251   1.477   3.137
 1318TIP3    H2 3961   6.341   1.504   3.256
 1319TIP3   OH2 3962   6.283   3.708   2.240
 1319TIP3    H1 3963   6.359   3.764   2.234
 1319TIP3    H2 3964   6.290   3.667   2.326
 1320TIP3   OH2 3965   4.574   6.001   4.730
 1320TIP3    H1 3966   4.501   5.957   4.774
 1320TIP3    H2 3967   4.641   5.933   4.723
 1321TIP3   OH2 3968   0.973   2.307   1.447
 1321TIP3    H1 3969   1.039   2.260   1.497
 1321TIP3    H2 3970   0.917   2.238   1.411
 1322TIP3   OH2 3971   5.828   4.051   3.489
 1322TIP3    H1 3972   5.873   4.008   3.416
 1322TIP3    H2 3973   5.820   4.142   3.461
 1323TIP3   OH2 3974   5.837   1.881   1.573
 1323TIP3    H1 3975   5.854   1.975   1.588
 1323TIP3    H2 3976   5.905   1.837   1.624
 1324TIP3   OH2 3977   0.832   5.571   3.863
 1324TIP3    H1 3978   0.863   5.484   3.836
 1324TIP3    H2 3979   0.797   5.558   3.951
 1325TIP3   OH2 3980   0.922   2.274   4.083
 1325TIP3    H1 3981   0.863   2.199   4.091
 1325TIP3    H2 3982   0.864   2.349   4.078
 1326TIP3   OH2 3983   1.534   4.493   3.351
 1326TIP3    H1 3984   1.582   4.441   3.287
 1326TIP3    H2 3985   1.584   4.485   3.432
 1327TIP3   OH2 3986   6.134   2.488   4.168
 1327TIP3    H1 3987   6.217   2.520   4.131
 1327TIP3    H2 3988   6.152   2.479   4.262
 1328TIP3   OH2 3989   4.580   1.413   3.990
 1328TIP3    H1 3990   4.543   1.330   4.018
 1328TIP3    H2 3991   4.603   1.400   3.898
 1329TIP3   OH2 3992   4.423   4.687   2.862
 1329TIP3    H1 3993   4.364   4.706   2.935
 1329TIP3    H2 3994   4.412   4.593   2.846
 1330TIP3   OH2 3995   4.080   4.579   4.677
 1330TIP3    H1 3996   4.061   4.655   4.622
 1330TIP3    H2 3997   4.060   4.503   4.622
 1331TIP3   OH2 3998   1.477   4.098   1.329
 1331TIP3    H1 3999   1.523   4.065   1.252
 1331TIP3    H2 4000   1.400   4.143   1.293
 1332TIP3   OH2 4001   1.184   0.140   2.923
 1332TIP3    H1 4002   1.223   0.184   2.847
 1332TIP3    H2 4003   1.158   0.054   2.891
 1333TIP3   OH2 4004   3.011   5.643   3.158
 1333TIP3    H1 4005   3.085   5.698   3.183
 1333TIP3    H2 4006   2.960   5.697   3.098
 1334TIP3   OH2 4007   5.629   4.468   3.431
 1334TIP3    H1 4008   5.657   4.390   3.479
 1334TIP3    H2 4009   5.696   4.534   3.451
 1335TIP3   OH2 4010   0.340   4.514   1.392
 1335TIP3    H1 4011   0.324   4.570   1.468
 1335TIP3    H2 4012   0.285   4.551   1.323
 1336TIP3   OH2 4013   1.280   5.622   0.908
 1336TIP3    H1 4014   1.288   5.544   0.853
 1336TIP3    H2 4015   1.254   5.589   0.994
 1337TIP3   OH2 4016   0.064   5.562   1.377
 1337TIP3    H1 4017   0.035   5.553   1.286
 1337TIP3    H2 4018  -0.014   5.540   1.429
 1338TIP3   OH2 4019   6.175   2.448   1.852
 1338TIP3    H1 4020   6.200   2.467   1.762
 1338TIP3    H2 4021   6.098   2.503   1.868
 1339TIP3   OH2 4022   0.268   1.364   4.904
 1339TIP3    H1 4023   0.352   1.340   4.865
 1339TIP3    H2 4024   0.270   1.459   4.908
 1340TIP3   OH2 4025   4.298   0.623   3.975
 1340TIP3    H1 4026   4.228   0.559   3.959
 1340TIP3    H2 4027   4.338   0.594   4.057
 1341TIP3   OH2 4028   3.164   1.515   0.757
 1341TIP3    H1 4029   3.113   1.438   0.780
 1341TIP3    H2 4030   3.218   1.532   0.835
 1342TIP3   OH2 4031   2.751   2.317   2.920
 1342TIP3    H1 4032   2.810   2.336   2.848
 1342TIP3    H2 4033   2.808   2.314   2.997
 1343TIP3   OH2 4034   1.186   0.958   4.481
 1343TIP3    H1 4035   1.168   1.042   4.523
 1343TIP3    H2 4036   1.105   0.938   4.433
 1344TIP3   OH2 4037   5.716   0.563   1.872
 1344TIP3    H1 4038   5.694   0.548   1.964
 1344TIP3    H2 4039   5.731   0.658   1.867
 1345TIP3   OH2 4040   0.254   0.774   0.191
 1345TIP3    H1 4041   0.333   0.810   0.151
 1345TIP3    H2 4042   0.184   0.833   0.164
 1346TIP3   OH2 4043   1.929   1.219   1.746
 1346TIP3    H1 4044   1.836   1.200   1.753
 1346TIP3    H2 4045   1.933   1.314   1.732
 1347TIP3   OH2 4046   0.737   4.980   1.918
 1347TIP3    H1 4047   0.802   5.021   1.861
 1347TIP3    H2 4048   0.715   4.898   1.873
 1348TIP3   OH2 4049   4.169   0.471   4.938
 1348TIP3    H1 4050   4.117   0.414   4.994
 1348TIP3    H2 4051   4.114   0.548   4.924
 1349TIP3   OH2 4052   4.061   1.266   4.711
 1349TIP3    H1 4053   3.969   1.254   4.687
 1349TIP3    H2 4054   4.068   1.357   4.739
 1350TIP3   OH2 4055   5.602   3.183   3.513
 1350TIP3    H1 4056   5.510   3.202   3.495
 1350TIP3    H2 4057   5.606   3.087   3.515
 1351TIP3   OH2 4058   1.193   1.130   2.427
 1351TIP3    H1 4059   1.272   1.087   2.459
 1351TIP3    H2 4060   1.148   1.064   2.374
 1352TIP3   OH2 4061   1.477   0.980   1.428
 1352TIP3    H1 4062   1.432   0.896   1.419
 1352TIP3    H2 4063   1.411   1.038   1.468
 1353TIP3   OH2 4064   1.325   4.920   0.279
 1353TIP3    H1 4065   1.295   4.920   0.369
 1353TIP3    H2 4066   1.420   4.908   0.285
 1354TIP3   OH2 4067   3.726   3.261   1.005
 1354TIP3    H1 4068   3.729   3.357   0.999
 1354TIP3    H2 4069   3.801   3.238   1.061
 1355TIP3   OH2 4070   2.572   0.665   2.753
 1355TIP3    H1 4071   2.515   0.629   2.822
 1355TIP3    H2 4072   2.524   0.741   2.721
 1356TIP3   OH2 4073   1.147   4.828   3.370
 1356TIP3    H1 4074   1.130   4.889   3.298
 1356TIP3    H2 4075   1.239   4.842   3.392
 1357TIP3   OH2 4076   3.982   2.529   3.578
 1357TIP3    H1 4077   3.924   2.454   3.565
 1357TIP3    H2 4078   3.984   2.573   3.493
 1358TIP3   OH2 4079   2.562   2.809   5.045
 1358TIP3    H1 4080   2.592   2.841   4.959
 1358TIP3    H2 4081   2.517   2.727   5.026
 1359TIP3   OH2 4082   3.289   5.571   3.954
 1359TIP3    H1 4083   3.235   5.584   4.032
 1359TIP3    H2 4084   3.245   5.502   3.905
 1360TIP3   OH2 4085   3.165   5.408   3.058
 1360TIP3    H1 4086   3.110   5.479   3.091
 1360TIP3    H2 4087   3.239   5.405   3.118
 1361TIP3   OH2 4088   2.269   5.039   2.707
 1361TIP3    H1 4089   2.319   5.049   2.626
 1361TIP3    H2 4090   2.199   5.104   2.700
 1362TIP3   OH2 4091   0.474   3.858   3.734
 1362TIP3    H1 4092   0.512   3.890   3.816
 1362TIP3    H2 4093   0.495   3.765   3.732
 1363TIP3   OH2 4094   4.652   4.224   4.588
 1363TIP3    H1 4095   4.585   4.234   4.656
 1363TIP3    H2 4096   4.734   4.212   4.637
 1364TIP3   OH2 4097   2.987   2.757   1.527
 1364TIP3    H1 4098   2.951   2.786   1.443
 1364TIP3    H2 4099   2.963   2.665   1.533
 1365TIP3   OH2 4100   4.245   2.085   3.591
 1365TIP3    H1 4101   4.246   2.181   3.596
 1365TIP3    H2 4102   4.219   2.057   3.679
 1366TIP3   OH2 4103   1.798   0.845   3.114
 1366TIP3    H1 4104   1.741   0.912   3.154
 1366TIP3    H2 4105   1.737   0.779   3.081
 1367TIP3   OH2 4106   5.252   3.244   1.894
 1367TIP3    H1 4107   5.239   3.255   1.988
 1367TIP3    H2 4108   5.230   3.329   1.856
 1368TIP3   OH2 4109   3.841   3.966   0.333
 1368TIP3    H1 4110   3.936   3.968   0.330
 1368TIP3    H2 4111   3.813   4.008   0.252
 1369TIP3   OH2 4112   5.344   5.314   4.034
 1369TIP3    H1 4113   5.330   5.234   4.086
 1369TIP3    H2 4114   5.404   5.366   4.088
 1370TIP3   OH2 4115   4.002   2.566   1.072
 1370TIP3    H1 4116   4.014   2.613   1.155
 1370TIP3    H2 4117   3.946   2.624   1.020
 1371TIP3   OH2 4118   0.240   3.969   5.071
 1371TIP3    H1 4119   0.296   4.009   5.004
 1371TIP3    H2 4120   0.157   3.953   5.027
 1372TIP3   OH2 4121   5.159   1.752   2.707
 1372TIP3    H1 4122   5.177   1.670   2.754
 1372TIP3    H2 4123   5.117   1.808   2.773
 1373TIP3   OH2 4124   5.556   4.894   1.315
 1373TIP3    H1 4125   5.556   4.948   1.394
 1373TIP3    H2 4126   5.524   4.953   1.246
 1374TIP3   OH2 4127   1.835   1.757   0.657
 1374TIP3    H1 4128   1.757   1.749   0.712
 1374TIP3    H2 4129   1.845   1.852   0.644
 1375TIP3   OH2 4130   0.835   2.567   3.602
 1375TIP3    H1 4131   0.816   2.660   3.598
 1375TIP3    H2 4132   0.757   2.528   3.640
 1376TIP3   OH2 4133   0.149   5.369   3.544
 1376TIP3    H1 4134   0.172   5.449   3.496
 1376TIP3    H2 4135   0.069   5.337   3.502
 1377TIP3   OH2 4136   5.919   4.525   5.027
 1377TIP3    H1 4137   5.887   4.506   4.938
 1377TIP3    H2 4138   5.981   4.597   5.015
 1378TIP3   OH2 4139   2.060   0.601   1.536
 1378TIP3    H1 4140   2.120   0.662   1.492
 1378TIP3    H2 4141   1.975   0.618   1.497
 1379TIP3   OH2 4142   6.296   4.566   4.776
 1379TIP3    H1 4143   6.229   4.522   4.829
 1379TIP3    H2 4144   6.340   4.626   4.837
 1380TIP3   OH2 4145   0.232   4.894   2.505
 1380TIP3    H1 4146   0.275   4.942   2.434
 1380TIP3    H2 4147   0.144   4.876   2.471
 1381TIP3   OH2 4148   1.195   5.951   0.049
 1381TIP3    H1 4149   1.284   5.934   0.019
 1381TIP3    H2 4150   1.160   6.016  -0.012
 1382TIP3   OH2 4151   2.960   3.788   2.542
 1382TIP3    H1 4152   2.908   3.710   2.522
 1382TIP3    H2 4153   2.936   3.851   2.474
 1383TIP3   OH2 4154   4.505   3.393   4.569
 1383TIP3    H1 4155   4.476   3.481   4.593
 1383TIP3    H2 4156   4.589   3.407   4.524
 1384TIP3   OH2 4157   6.024   1.553   2.042
 1384TIP3    H1 4158   6.047   1.476   1.989
 1384TIP3    H2 4159   6.105   1.576   2.087
 1385TIP3   OH2 4160   1.398   4.591   1.706
 1385TIP3    H1 4161   1.393   4.636   1.621
 1385TIP3    H2 4162   1.395   4.661   1.771
 1386TIP3   OH2 4163   6.211   3.595   2.500
 1386TIP3    H1 4164   6.196   3.533   2.572
 1386TIP3    H2 4165   6.277   3.655   2.534
 1387TIP3   OH2 4166   1.483   2.830   2.964
 1387TIP3    H1 4167   1.562   2.827   3.019
 1387TIP3    H2 4168   1.502   2.770   2.892
 1388TIP3   OH2 4169   4.789   5.703   2.632
 1388TIP3    H1 4170   4.788   5.699   2.536
 1388TIP3    H2 4171   4.698   5.714   2.657
 1389TIP3   OH2 4172   5.201  -0.033   2.394
 1389TIP3    H1 4173   5.276   0.011   2.354
 1389TIP3    H2 4174   5.130   0.030   2.387
 1390TIP3   OH2 4175   6.267   3.292   4.719
 1390TIP3    H1 4176   6.260   3.312   4.625
 1390TIP3    H2 4177   6.245   3.199   4.724
 1391TIP3   OH2 4178   0.424   2.461   0.280
 1391TIP3    H1 4179   0.360   2.442   0.348
 1391TIP3    H2 4180   0.486   2.387   0.284
 1392TIP3   OH2 4181   5.635   5.171   4.560
 1392TIP3    H1 4182   5.704   5.108   4.542
 1392TIP3    H2 4183   5.563   5.147   4.501
 1393TIP3   OH2 4184   5.713   0.177   4.139
 1393TIP3    H1 4185   5.639   0.146   4.088
 1393TIP3    H2 4186   5.783   0.115   4.120
 1394TIP3   OH2 4187   2.149   4.364   3.524
 1394TIP3    H1 4188   2.155   4.417   3.444
 1394TIP3    H2 4189   2.062   4.324   3.520
 1395TIP3   OH2 4190   3.507   3.074   4.191
 1395TIP3    H1 4191   3.457   2.993   4.179
 1395TIP3    H2 4192   3.524   3.105   4.102
 1396TIP3   OH2 4193   2.100   4.912   3.837
 1396TIP3    H1 4194   2.055   4.947   3.914
 1396TIP3    H2 4195   2.134   4.989   3.792
 1397TIP3   OH2 4196   3.627   1.310   0.801
 1397TIP3    H1 4197   3.626   1.403   0.779
 1397TIP3    H2 4198   3.670   1.268   0.727
 1398TIP3   OH2 4199   5.423   3.769   3.033
 1398TIP3    H1 4200   5.450   3.690   2.986
 1398TIP3    H2 4201   5.364   3.813   2.972
 1399TIP3   OH2 4202   5.390   3.134   2.784
 1399TIP3    H1 4203   5.468   3.174   2.821
 1399TIP3    H2 4204   5.359   3.073   2.852
 1400TIP3   OH2 4205   5.162   1.010   4.335
 1400TIP3    H1 4206   5.084   1.036   4.384
 1400TIP3    H2 4207   5.128   0.955   4.264
 1401TIP3   OH2 4208   5.400   2.514   0.797
 1401TIP3    H1 4209   5.386   2.420   0.811
 1401TIP3    H2 4210   5.433   2.520   0.707
 1402TIP3   OH2 4211   3.272   2.763   1.532
 1402TIP3    H1 4212   3.226   2.701   1.588
 1402TIP3    H2 4213   3.205   2.799   1.475
 1403TIP3   OH2 4214   2.805   5.362   1.612
 1403TIP3    H1 4215   2.769   5.278   1.641
 1403TIP3    H2 4216   2.775   5.425   1.677
 1404TIP3   OH2 4217   0.369   3.665   4.138
 1404TIP3    H1 4218   0.330   3.741   4.095
 1404TIP3    H2 4219   0.456   3.696   4.167
 1405TIP3   OH2 4220   1.675   4.408   0.244
 1405TIP3    H1 4221   1.650   4.317   0.258
 1405TIP3    H2 4222   1.747   4.423   0.306
 1406TIP3   OH2 4223   0.623   0.050   0.689
 1406TIP3    H1 4224   0.556   0.112   0.659
 1406TIP3    H2 4225   0.593  -0.035   0.659
 1407TIP3   OH2 4226   3.788  -0.012   4.676
 1407TIP3    H1 4227   3.773   0.059   4.613
 1407TIP3    H2 4228   3.728   0.006   4.748
 1408TIP3   OH2 4229   3.231   1.428   2.133
 1408TIP3    H1 4230   3.294   1.490   2.096
 1408TIP3    H2 4231   3.271   1.400   2.216
 1409TIP3   OH2 4232   2.214   5.298   0.726
 1409TIP3    H1 4233   2.139   5.346   0.762
 1409TIP3    H2 4234   2.235   5.345   0.645
 1410TIP3   OH2 4235   5.109   0.844   4.101
 1410TIP3    H1 4236   5.023   0.818   4.069
 1410TIP3    H2 4237   5.149   0.762   4.130
 1411TIP3   OH2 4238   0.166   5.769   1.606
 1411TIP3    H1 4239   0.097   5.776   1.672
 1411TIP3    H2 4240   0.133   5.819   1.531
 1412TIP3   OH2 4241   1.283   1.600   4.761
 1412TIP3    H1 4242   1.378   1.607   4.750
 1412TIP3    H2 4243   1.250   1.688   4.740
 1413TIP3   OH2 4244   0.484   0.958   4.250
 1413TIP3    H1 4245   0.444   0.896   4.190
 1413TIP3    H2 4246   0.507   1.033   4.196
 1414TIP3   OH2 4247   3.547   5.972   2.256
 1414TIP3    H1 4248   3.522   5.889   2.215
 1414TIP3    H2 4249   3.474   5.994   2.313
 1415TIP3   OH2 4250   3.670   5.411   1.418
 1415TIP3    H1 4251   3.581   5.439   1.440
 1415TIP3    H2 4252   3.709   5.387   1.503
 1416TIP3   OH2 4253   0.185   2.299   5.077
 1416TIP3    H1 4254   0.193   2.334   4.988
 1416TIP3    H2 4255   0.213   2.208   5.070
 1417TIP3   OH2 4256   0.890   0.103   2.981
 1417TIP3    H1 4257   0.927   0.186   2.950
 1417TIP3    H2 4258   0.926   0.037   2.922
 1418TIP3   OH2 4259   5.907   3.829   4.155
 1418TIP3    H1 4260   5.903   3.922   4.177
 1418TIP3    H2 4261   5.816   3.800   4.158
 1419TIP3   OH2 4262   4.578   0.081   0.976
 1419TIP3    H1 4263   4.613   0.070   0.888
 1419TIP3    H2 4264   4.654   0.104   1.030
 1420TIP3   OH2 4265   3.454   4.105   3.284
 1420TIP3    H1 4266   3.478   4.113   3.376
 1420TIP3    H2 4267   3.361   4.125   3.281
 1421TIP3   OH2 4268   3.243   3.637   2.537
 1421TIP3    H1 4269   3.180   3.708   2.527
 1421TIP3    H2 4270   3.242   3.617   2.630
 1422TIP3   OH2 4271   2.316   2.663   3.084
 1422TIP3    H1 4272   2.364   2.581   3.073
 1422TIP3    H2 4273   2.345   2.698   3.168
 1423TIP3   OH2 4274   1.785   5.566   4.144
 1423TIP3    H1 4275   1.846   5.512   4.195
 1423TIP3    H2 4276   1.780   5.649   4.191
 1424TIP3   OH2 4277   5.594   0.727   3.225
 1424TIP3    H1 4278   5.550   0.671   3.162
 1424TIP3    H2 4279   5.660   0.774   3.174
 1425TIP3   OH2 4280   4.616   0.304   2.902
 1425TIP3    H1 4281   4.528   0.266   2.910
 1425TIP3    H2 4282   4.628   0.353   2.984
 1426TIP3   OH2 4283   4.137   2.008   1.399
 1426TIP3    H1 4284   4.228   2.038   1.394
 1426TIP3    H2 4285   4.097   2.043   1.319
 1427TIP3   OH2 4286   4.889   3.089   1.527
 1427TIP3    H1 4287   4.891   3.035   1.448
 1427TIP3    H2 4288   4.879   3.179   1.494
 1428TIP3   OH2 4289   1.195   0.618   2.859
 1428TIP3    H1 4290   1.171   0.538   2.812
 1428TIP3    H2 4291   1.242   0.587   2.936
 1429TIP3   OH2 4292   2.327   1.860   4.034
 1429TIP3    H1 4293   2.302   1.768   4.038
 1429TIP3    H2 4294   2.262   1.905   4.088
 1430TIP3   OH2 4295   5.072   2.124   3.528
 1430TIP3    H1 4296   5.021   2.205   3.533
 1430TIP3    H2 4297   5.026   2.070   3.464
 1431TIP3   OH2 4298   1.104   0.222   4.129
 1431TIP3    H1 4299   1.129   0.161   4.199
 1431TIP3    H2 4300   1.139   0.307   4.158
 1432TIP3   OH2 4301   0.378   0.985   4.881
 1432TIP3    H1 4302   0.289   0.966   4.909
 1432TIP3    H2 4303   0.406   0.905   4.835
 1433TIP3   OH2 4304   5.251   4.187   1.361
 1433TIP3    H1 4305   5.306   4.241   1.304
 1433TIP3    H2 4306   5.163   4.197   1.325
 1434TIP3   OH2 4307   4.387   4.412   0.729
 1434TIP3    H1 4308   4.358   4.354   0.660
 1434TIP3    H2 4309   4.328   4.487   0.724
 1435TIP3   OH2 4310   1.953   4.466   2.241
 1435TIP3    H1 4311   1.942   4.557   2.215
 1435TIP3    H2 4312   1.929   4.463   2.334
 1436TIP3   OH2 4313   2.504   3.190   5.060
 1436TIP3    H1 4314   2.467   3.277   5.077
 1436TIP3    H2 4315   2.558   3.171   5.136
 1437TIP3   OH2 4316   5.105   3.335   4.601
 1437TIP3    H1 4317   5.072   3.261   4.651
 1437TIP3    H2 4318   5.089   3.411   4.657
 1438TIP3   OH2 4319   6.079   4.323   1.182
 1438TIP3    H1 4320   6.109   4.413   1.175
 1438TIP3    H2 4321   5.990   4.324   1.147
 1439TIP3   OH2 4322   5.309   4.157   2.793
 1439TIP3    H1 4323   5.395   4.192   2.816
 1439TIP3    H2 4324   5.315   4.139   2.699
 1440TIP3   OH2 4325   1.623   0.551   3.772
 1440TIP3    H1 4326   1.612   0.635   3.728
 1440TIP3    H2 4327   1.684   0.569   3.844
 1441TIP3   OH2 4328   3.310   3.514   4.711
 1441TIP3    H1 4329   3.237   3.462   4.744
 1441TIP3    H2 4330   3.353   3.549   4.790
 1442TIP3   OH2 4331   2.935   4.394   3.998
 1442TIP3    H1 4332   2.850   4.355   3.979
 1442TIP3    H2 4333   2.998   4.336   3.955
 1443TIP3   OH2 4334   5.934   5.086   2.314
 1443TIP3    H1 4335   5.860   5.133   2.351
 1443TIP3    H2 4336   5.942   5.119   2.225
 1444TIP3   OH2 4337   2.402   3.528   3.965
 1444TIP3    H1 4338   2.435   3.599   3.911
 1444TIP3    H2 4339   2.333   3.488   3.913
 1445TIP3   OH2 4340   4.936   4.834   1.238
 1445TIP3    H1 4341   4.908   4.781   1.312
 1445TIP3    H2 4342   4.979   4.773   1.178
 1446TIP3   OH2 4343   2.800   4.799   1.815
 1446TIP3    H1 4344   2.858   4.795   1.739
 1446TIP3    H2 4345   2.774   4.709   1.831
 1447TIP3   OH2 4346   5.540   4.610   0.236
 1447TIP3    H1 4347   5.533   4.706   0.239
 1447TIP3    H2 4348   5.560   4.585   0.326
 1448TIP3   OH2 4349   5.700   5.894   3.783
 1448TIP3    H1 4350   5.638   5.965   3.799
 1448TIP3    H2 4351   5.770   5.908   3.847
 1449TIP3   OH2 4352   1.402   5.871   3.504
 1449TIP3    H1 4353   1.487   5.888   3.543
 1449TIP3    H2 4354   1.351   5.951   3.519
 1450TIP3   OH2 4355   3.823   4.098   3.607
 1450TIP3    H1 4356   3.880   4.173   3.621
 1450TIP3    H2 4357   3.854   4.032   3.669
 1451TIP3   OH2 4358   0.418   1.550   3.137
 1451TIP3    H1 4359   0.380   1.469   3.101
 1451TIP3    H2 4360   0.460   1.522   3.218
 1452TIP3   OH2 4361   2.672   1.418   5.194
 1452TIP3    H1 4362   2.691   1.359   5.121
 1452TIP3    H2 4363   2.576   1.427   5.193
 1453TIP3   OH2 4364   4.355   3.359   3.156
 1453TIP3    H1 4365   4.340   3.265   3.160
 1453TIP3    H2 4366   4.294   3.391   3.090
 1454TIP3   OH2 4367   6.295   2.344   3.216
 1454TIP3    H1 4368   6.204   2.373   3.212
 1454TIP3    H2 4369   6.301   2.273   3.151
 1455TIP3   OH2 4370   0.561   2.209   3.574
 1455TIP3    H1 4371   0.545   2.247   3.661
 1455TIP3    H2 4372   0.553   2.115   3.586
 1456TIP3   OH2 4373   6.211   5.276   2.090
 1456TIP3    H1 4374   6.229   5.299   2.181
 1456TIP3    H2 4375   6.268   5.201   2.072
 1457TIP3   OH2 4376   5.378   4.940   3.739
 1457TIP3    H1 4377   5.464   4.917   3.774
 1457TIP3    H2 4378   5.359   5.026   3.778
 1458TIP3   OH2 4379   4.482   4.697   0.836
 1458TIP3    H1 4380   4.577   4.709   0.833
 1458TIP3    H2 4381   4.451   4.729   0.751
 1459TIP3   OH2 4382   0.191   5.137   5.018
 1459TIP3    H1 4383   0.254   5.192   4.972
 1459TIP3    H2 4384   0.205   5.050   4.982
 1460TIP3   OH2 4385   5.048   5.316   3.768
 1460TIP3    H1 4386   5.138   5.342   3.782
 1460TIP3    H2 4387   5.053   5.224   3.741
 1461TIP3   OH2 4388   4.106   4.159   4.452
 1461TIP3    H1 4389   4.041   4.229   4.464
 1461TIP3    H2 4390   4.156   4.158   4.533
 1462TIP3   OH2 4391   3.398   3.030   2.610
 1462TIP3    H1 4392   3.306   3.052   2.625
 1462TIP3    H2 4393   3.426   2.988   2.691
 1463TIP3   OH2 4394   0.395   2.790   1.580
 1463TIP3    H1 4395   0.388   2.773   1.674
 1463TIP3    H2 4396   0.428   2.880   1.575
 1464TIP3   OH2 4397   3.680   4.448   2.958
 1464TIP3    H1 4398   3.751   4.386   2.976
 1464TIP3    H2 4399   3.631   4.453   3.040
 1465TIP3   OH2 4400   4.764   5.686   2.359
 1465TIP3    H1 4401   4.799   5.687   2.269
 1465TIP3    H2 4402   4.718   5.602   2.365
 1466TIP3   OH2 4403   4.006   3.185   3.231
 1466TIP3    H1 4404   4.051   3.241   3.295
 1466TIP3    H2 4405   3.915   3.185   3.259
 1467TIP3   OH2 4406   3.099   2.523   2.705
 1467TIP3    H1 4407   3.046   2.469   2.646
 1467TIP3    H2 4408   3.150   2.460   2.755
 1468TIP3   OH2 4409   0.746   4.924   3.950
 1468TIP3    H1 4410   0.652   4.910   3.936
 1468TIP3    H2 4411   0.771   4.989   3.884
 1469TIP3   OH2 4412   0.338   3.711   3.203
 1469TIP3    H1 4413   0.400   3.763   3.255
 1469TIP3    H2 4414   0.364   3.620   3.218
 1470TIP3   OH2 4415   1.903   3.459   4.562
 1470TIP3    H1 4416   1.890   3.537   4.509
 1470TIP3    H2 4417   1.919   3.491   4.650
 1471TIP3   OH2 4418   4.078   0.308   1.423
 1471TIP3    H1 4419   4.139   0.249   1.467
 1471TIP3    H2 4420   3.992   0.267   1.434
 1472TIP3   OH2 4421   3.338   3.099   4.754
 1472TIP3    H1 4422   3.335   3.136   4.843
 1472TIP3    H2 4423   3.286   3.019   4.760
 1473TIP3   OH2 4424   2.901   0.037   2.500
 1473TIP3    H1 4425   2.828   0.037   2.439
 1473TIP3    H2 4426   2.910   0.128   2.527
 1474TIP3   OH2 4427   0.418   1.926   1.917
 1474TIP3    H1 4428   0.465   1.928   2.000
 1474TIP3    H2 4429   0.374   2.011   1.912
 1475TIP3   OH2 4430   0.921   5.683   3.630
 1475TIP3    H1 4431   0.878   5.661   3.713
 1475TIP3    H2 4432   0.948   5.599   3.594
 1476TIP3   OH2 4433   3.870   5.939   5.040
 1476TIP3    H1 4434   3.864   5.940   5.135
 1476TIP3    H2 4435   3.794   5.990   5.010
 1477TIP3   OH2 4436   1.378   1.469   1.638
 1477TIP3    H1 4437   1.306   1.417   1.673
 1477TIP3    H2 4438   1.337   1.548   1.605
 1478TIP3   OH2 4439   3.514   2.894   2.809
 1478TIP3    H1 4440   3.495   2.803   2.786
 1478TIP3    H2 4441   3.503   2.898   2.904
 1479TIP3   OH2 4442   5.632   0.958   3.421
 1479TIP3    H1 4443   5.663   0.930   3.335
 1479TIP3    H2 4444   5.541   0.927   3.425
 1480TIP3   OH2 4445   2.115   1.828   3.631
 1480TIP3    H1 4446   2.072   1.795   3.552
 1480TIP3    H2 4447   2.101   1.759   3.696
 1481TIP3   OH2 4448   0.941   5.528   4.987
 1481TIP3    H1 4449   0.981   5.602   5.032
 1481TIP3    H2 4450   0.922   5.465   5.056
 1482TIP3   OH2 4451   1.601   1.301   4.544
 1482TIP3    H1 4452   1.616   1.295   4.639
 1482TIP3    H2 4453   1.512   1.334   4.536
 1483TIP3   OH2 4454   0.377   5.075   0.354
 1483TIP3    H1 4455   0.438   5.077   0.427
 1483TIP3    H2 4456   0.396   4.993   0.308
 1484TIP3   OH2 4457   3.423   3.156   3.118
 1484TIP3    H1 4458   3.384   3.073   3.091
 1484TIP3    H2 4459   3.436   3.146   3.213
 1485TIP3   OH2 4460   1.204   0.986   0.830
 1485TIP3    H1 4461   1.245   1.005   0.915
 1485TIP3    H2 4462   1.187   1.072   0.792
 1486TIP3   OH2 4463   2.857   3.751   4.379
 1486TIP3    H1 4464   2.865   3.655   4.373
 1486TIP3    H2 4465   2.943   3.783   4.351
 1487TIP3   OH2 4466   6.292   3.948   0.506
 1487TIP3    H1 4467   6.358   3.959   0.574
 1487TIP3    H2 4468   6.294   4.031   0.457
 1488TIP3   OH2 4469   3.656   4.165   2.693
 1488TIP3    H1 4470   3.596   4.118   2.637
 1488TIP3    H2 4471   3.600   4.206   2.760
 1489TIP3   OH2 4472   0.337   0.068   0.758
 1489TIP3    H1 4473   0.326  -0.012   0.810
 1489TIP3    H2 4474   0.248   0.098   0.740
 1490TIP3   OH2 4475   0.694   5.380   5.091
 1490TIP3    H1 4476   0.610   5.347   5.123
 1490TIP3    H2 4477   0.736   5.420   5.167
 1491TIP3   OH2 4478   4.371   4.509   3.512
 1491TIP3    H1 4479   4.438   4.487   3.447
 1491TIP3    H2 4480   4.419   4.553   3.582
 1492TIP3   OH2 4481   2.202   2.038   0.273
 1492TIP3    H1 4482   2.225   1.954   0.311
 1492TIP3    H2 4483   2.134   2.018   0.209
 1493TIP3   OH2 4484   0.806   3.083   3.354
 1493TIP3    H1 4485   0.890   3.072   3.397
 1493TIP3    H2 4486   0.824   3.143   3.281
 1494TIP3   OH2 4487   0.675   1.610   4.862
 1494TIP3    H1 4488   0.753   1.628   4.810
 1494TIP3    H2 4489   0.606   1.663   4.822
 1495TIP3   OH2 4490   5.580   5.214   0.511
 1495TIP3    H1 4491   5.633   5.264   0.573
 1495TIP3    H2 4492   5.644   5.174   0.452
 1496TIP3   OH2 4493   3.063   4.145   0.264
 1496TIP3    H1 4494   2.971   4.125   0.285
 1496TIP3    H2 4495   3.067   4.241   0.262
 1497TIP3   OH2 4496   5.995   3.492   4.764
 1497TIP3    H1 4497   6.031   3.493   4.676
 1497TIP3    H2 4498   6.070   3.480   4.822
 1498TIP3   OH2 4499   6.369   0.214   2.418
 1498TIP3    H1 4500   6.274   0.230   2.415
 1498TIP3    H2 4501   6.384   0.146   2.353
 1499TIP3   OH2 4502   5.375   3.643   3.524
 1499TIP3    H1 4503   5.328   3.673   3.446
 1499TIP3    H2 4504   5.342   3.555   3.540
 1500TIP3   OH2 4505   2.429   2.701   4.369
 1500TIP3    H1 4506   2.455   2.660   4.451
 1500TIP3    H2 4507   2.403   2.790   4.393
 1501TIP3   OH2 4508   0.430   0.719   0.747
 1501TIP3    H1 4509   0.494   0.648   0.750
 1501TIP3    H2 4510   0.399   0.728   0.837
 1502TIP3   OH2 4511   4.782   5.683   3.143
 1502TIP3    H1 4512   4.742   5.693   3.229
 1502TIP3    H2 4513   4.876   5.679   3.160
 1503TIP3   OH2 4514   3.428   2.855   3.599
 1503TIP3    H1 4515   3.386   2.922   3.652
 1503TIP3    H2 4516   3.486   2.810   3.660
 1504TIP3   OH2 4517   1.648   2.164   3.495
 1504TIP3    H1 4518   1.627   2.183   3.404
 1504TIP3    H2 4519   1.591   2.221   3.546
 1505TIP3   OH2 4520   0.026   0.530   3.481
 1505TIP3    H1 4521   0.092   0.552   3.415
 1505TIP3    H2 4522   0.035   0.435   3.492
 1506TIP3   OH2 4523   5.072   2.402   3.632
 1506TIP3    H1 4524   5.061   2.402   3.537
 1506TIP3    H2 4525   4.984   2.384   3.666
 1507TIP3   OH2 4526   0.078   0.055   3.689
 1507TIP3    H1 4527   0.014   0.017   3.628
 1507TIP3    H2 4528   0.150   0.082   3.632
 1508TIP3   OH2 4529   3.808   2.875   3.991
 1508TIP3    H1 4530   3.775   2.788   3.966
 1508TIP3    H2 4531   3.881   2.890   3.932
 1509TIP3   OH2 4532   5.355   5.053   2.090
 1509TIP3    H1 4533   5.281   4.995   2.107
 1509TIP3    H2 4534   5.324   5.113   2.022
 1510TIP3   OH2 4535   1.563   5.393   4.989
 1510TIP3    H1 4536   1.586   5.342   4.911
 1510TIP3    H2 4537   1.578   5.332   5.062
 1511TIP3   OH2 4538   5.310   3.071   3.448
 1511TIP3    H1 4539   5.378   3.074   3.380
 1511TIP3    H2 4540   5.337   3.000   3.506
 1512TIP3   OH2 4541   1.205   4.807   1.463
 1512TIP3    H1 4542   1.260   4.882   1.442
 1512TIP3    H2 4543   1.182   4.819   1.555
 1513TIP3   OH2 4544   0.859   3.962   2.478
 1513TIP3    H1 4545   0.890   3.884   2.433
 1513TIP3    H2 4546   0.829   4.020   2.408
 1514TIP3   OH2 4547   0.641   5.478   3.227
 1514TIP3    H1 4548   0.617   5.447   3.315
 1514TIP3    H2 4549   0.629   5.573   3.231
 1515TIP3   OH2 4550   6.255   3.224   3.804
 1515TIP3    H1 4551   6.271   3.273   3.885
 1515TIP3    H2 4552   6.190   3.277   3.757
 1516TIP3   OH2 4553   0.641   0.181   3.704
 1516TIP3    H1 4554   0.643   0.138   3.790
 1516TIP3    H2 4555   0.724   0.155   3.663
 1517TIP3   OH2 4556   0.923   4.714   4.006
 1517TIP3    H1 4557   0.996   4.726   3.945
 1517TIP3    H2 4558   0.863   4.785   3.986
 1518TIP3   OH2 4559   5.178   5.677   2.982
 1518TIP3    H1 4560   5.104   5.647   2.930
 1518TIP3    H2 4561   5.246   5.697   2.918
 1519TIP3   OH2 4562   1.617   5.121   3.510
 1519TIP3    H1 4563   1.612   5.207   3.468
 1519TIP3    H2 4564   1.565   5.064   3.453
 1520TIP3   OH2 4565   3.388   4.229   4.351
 1520TIP3    H1 4566   3.352   4.309   4.313
 1520TIP3    H2 4567   3.481   4.247   4.362
 1521TIP3   OH2 4568   1.878   0.234   4.973
 1521TIP3    H1 4569   1.939   0.279   5.031
 1521TIP3    H2 4570   1.800   0.290   4.972
 1522TIP3   OH2 4571   4.748   5.965   0.345
 1522TIP3    H1 4572   4.810   5.896   0.370
 1522TIP3    H2 4573   4.666   5.940   0.387
 1523TIP3   OH2 4574   0.198   3.142   4.630
 1523TIP3    H1 4575   0.210   3.237   4.635
 1523TIP3    H2 4576   0.261   3.112   4.565
 1524TIP3   OH2 4577   4.886   2.085   2.252
 1524TIP3    H1 4578   4.900   2.146   2.324
 1524TIP3    H2 4579   4.809   2.119   2.206
 1525TIP3   OH2 4580   0.763   4.866   1.102
 1525TIP3    H1 4581   0.774   4.819   1.184
 1525TIP3    H2 4582   0.752   4.798   1.036
 1526TIP3   OH2 4583   5.442   1.359   1.205
 1526TIP3    H1 4584   5.501   1.331   1.275
 1526TIP3    H2 4585   5.434   1.283   1.148
 1527TIP3   OH2 4586   1.678   0.126   0.190
 1527TIP3    H1 4587   1.699   0.039   0.157
 1527TIP3    H2 4588   1.607   0.157   0.134
 1528TIP3   OH2 4589   3.663   5.822   0.893
 1528TIP3    H1 4590   3.582   5.847   0.940
 1528TIP3    H2 4591   3.636   5.813   0.802
 1529TIP3   OH2 4592   0.251   4.506   4.914
 1529TIP3    H1 4593   0.305   4.546   4.846
 1529TIP3    H2 4594   0.174   4.562   4.920
 1530TIP3   OH2 4595   2.976   4.320   2.644
 1530TIP3    H1 4596   2.885   4.293   2.659
 1530TIP3    H2 4597   2.977   4.348   2.552
 1531TIP3   OH2 4598   5.120   2.475   4.765
 1531TIP3    H1 4599   5.170   2.461   4.684
 1531TIP3    H2 4600   5.171   2.430   4.832
 1532TIP3   OH2 4601   1.632   3.331   1.692
 1532TIP3    H1 4602   1.691   3.398   1.727
 1532TIP3    H2 4603   1.691   3.267   1.650
 1533TIP3   OH2 4604   5.974   0.712   1.391
 1533TIP3    H1 4605   5.918   0.767   1.447
 1533TIP3    H2 4606   6.051   0.766   1.374
 1534TIP3   OH2 4607   5.068   5.852   3.347
 1534TIP3    H1 4608   5.039   5.761   3.343
 1534TIP3    H2 4609   5.147   5.855   3.293
 1535TIP3   OH2 4610   5.449   0.883   0.279
 1535TIP3    H1 4611   5.460   0.952   0.345
 1535TIP3    H2 4612   5.519   0.821   0.298
 1536TIP3   OH2 4613   3.502   3.273   0.157
 1536TIP3    H1 4614   3.534   3.197   0.109
 1536TIP3    H2 4615   3.411   3.252   0.179
 1537TIP3   OH2 4616   0.653   4.578   3.632
 1537TIP3    H1 4617   0.633   4.486   3.615
 1537TIP3    H2 4618   0.614   4.625   3.559
 1538TIP3   OH2 4619   0.526   0.167   4.125
 1538TIP3    H1 4620   0.438   0.196   4.100
 1538TIP3    H2 4621   0.523   0.158   4.220
 1539TIP3   OH2 4622   3.591   1.249   3.827
 1539TIP3    H1 4623   3.681   1.227   3.805
 1539TIP3    H2 4624   3.545   1.165   3.828
 1540TIP3   OH2 4625   1.799   0.112   3.410
 1540TIP3    H1 4626   1.868   0.175   3.434
 1540TIP3    H2 4627   1.777   0.134   3.320
 1541TIP3   OH2 4628   1.855   5.359   0.182
 1541TIP3    H1 4629   1.883   5.301   0.253
 1541TIP3    H2 4630   1.887   5.318   0.103
 1542TIP3   OH2 4631   0.094   5.777   2.488
 1542TIP3    H1 4632   0.079   5.780   2.394
 1542TIP3    H2 4633   0.006   5.781   2.526
 1543TIP3   OH2 4634   5.767   5.176   0.276
 1543TIP3    H1 4635   5.721   5.095   0.295
 1543TIP3    H2 4636   5.851   5.148   0.240
 1544TIP3   OH2 4637   0.183   3.226   0.315
 1544TIP3    H1 4638   0.112   3.283   0.345
 1544TIP3    H2 4639   0.232   3.279   0.252
 1545TIP3   OH2 4640   4.390   3.710   4.443
 1545TIP3    H1 4641   4.458   3.775   4.461
 1545TIP3    H2 4642   4.313   3.762   4.418
 1546TIP3   OH2 4643   5.129   4.208   0.485
 1546TIP3    H1 4644   5.107   4.216   0.393
 1546TIP3    H2 4645   5.045   4.192   0.529
 1547TIP3   OH2 4646   5.966   2.881   1.721
 1547TIP3    H1 4647   5.884   2.911   1.681
 1547TIP3    H2 4648   5.958   2.905   1.813
 1548TIP3   OH2 4649   1.521   2.242   3.263
 1548TIP3    H1 4650   1.519   2.190   3.183
 1548TIP3    H2 4651   1.580   2.315   3.243
 1549TIP3   OH2 4652   5.379   2.201   2.143
 1549TIP3    H1 4653   5.424   2.283   2.164
 1549TIP3    H2 4654   5.347   2.169   2.227
 1550TIP3   OH2 4655   4.772   1.037   3.058
 1550TIP3    H1 4656   4.816   1.065   2.978
 1550TIP3    H2 4657   4.843   1.008   3.116
 1551TIP3   OH2 4658   1.449   5.051   1.589
 1551TIP3    H1 4659   1.391   5.049   1.512
 1551TIP3    H2 4660   1.495   4.968   1.586
 1552TIP3   OH2 4661   1.954   2.088   3.175
 1552TIP3    H1 4662   2.043   2.059   3.155
 1552TIP3    H2 4663   1.964   2.174   3.214
 1553TIP3   OH2 4664   2.672   5.716   4.078
 1553TIP3    H1 4665   2.658   5.720   4.172
 1553TIP3    H2 4666   2.587   5.690   4.042
 1554TIP3   OH2 4667   2.976   0.589   2.777
 1554TIP3    H1 4668   3.051   0.530   2.775
 1554TIP3    H2 4669   2.906   0.540   2.733
 1555TIP3   OH2 4670   4.693   2.442   2.677
 1555TIP3    H1 4671   4.719   2.350   2.670
 1555TIP3    H2 4672   4.625   2.452   2.610
 1556TIP3   OH2 4673   4.725   4.718   2.400
 1556TIP3    H1 4674   4.697   4.661   2.472
 1556TIP3    H2 4675   4.696   4.805   2.427
 1557TIP3   OH2 4676   1.882   4.240   4.559
 1557TIP3    H1 4677   1.976   4.253   4.550
 1557TIP3    H2 4678   1.852   4.318   4.607
 1558TIP3   OH2 4679   2.143   0.301   3.868
 1558TIP3    H1 4680   2.175   0.280   3.956
 1558TIP3    H2 4681   2.145   0.396   3.863
 1559TIP3   OH2 4682   2.654   0.962   3.369
 1559TIP3    H1 4683   2.637   0.916   3.287
 1559TIP3    H2 4684   2.749   0.958   3.380
 1560TIP3   OH2 4685   3.441   0.107   4.243
 1560TIP3    H1 4686   3.417   0.041   4.178
 1560TIP3    H2 4687   3.536   0.103   4.247
 1561TIP3   OH2 4688   1.230   2.946   1.305
 1561TIP3    H1 4689   1.291   2.888   1.260
 1561TIP3    H2 4690   1.146   2.928   1.265
 1562TIP3   OH2 4691   5.135   1.980   2.568
 1562TIP3    H1 4692   5.055   2.022   2.599
 1562TIP3    H2 4693   5.129   1.890   2.601
 1563TIP3   OH2 4694   0.023   3.459   4.184
 1563TIP3    H1 4695   0.033   3.493   4.095
 1563TIP3    H2 4696  -0.002   3.367   4.171
 1564TIP3   OH2 4697   3.740   2.841   2.596
 1564TIP3    H1 4698   3.708   2.914   2.649
 1564TIP3    H2 4699   3.748   2.769   2.658
 1565TIP3   OH2 4700   6.257   1.758   1.403
 1565TIP3    H1 4701   6.233   1.813   1.329
 1565TIP3    H2 4702   6.204   1.791   1.476
 1566TIP3   OH2 4703   5.403   1.618   3.651
 1566TIP3    H1 4704   5.443   1.592   3.568
 1566TIP3    H2 4705   5.456   1.575   3.718
 1567TIP3   OH2 4706   5.550   0.383   4.850
 1567TIP3    H1 4707   5.464   0.346   4.830
 1567TIP3    H2 4708   5.587   0.406   4.765
 1568TIP3   OH2 4709   0.949   0.007   4.000
 1568TIP3    H1 4710   0.979   0.078   4.057
 1568TIP3    H2 4711   0.862   0.034   3.972
 1569TIP3   OH2 4712   2.006   3.275   2.801
 1569TIP3    H1 4713   2.065   3.281   2.725
 1569TIP3    H2 4714   1.990   3.366   2.825
 1570TIP3   OH2 4715   3.409   0.565   4.990
 1570TIP3    H1 4716   3.394   0.544   4.898
 1570TIP3    H2 4717   3.500   0.540   5.006
 1571TIP3   OH2 4718   6.103   0.200   2.376
 1571TIP3    H1 4719   6.051   0.274   2.344
 1571TIP3    H2 4720   6.108   0.141   2.301
 1572TIP3   OH2 4721   3.848   4.298   3.348
 1572TIP3    H1 4722   3.901   4.285   3.426
 1572TIP3    H2 4723   3.813   4.212   3.327
 1573TIP3   OH2 4724   0.735   3.389   0.680
 1573TIP3    H1 4725   0.801   3.399   0.749
 1573TIP3    H2 4726   0.784   3.362   0.603
 1574TIP3   OH2 4727   4.650   0.345   0.370
 1574TIP3    H1 4728   4.615   0.278   0.311
 1574TIP3    H2 4729   4.714   0.393   0.317
 1575TIP3   OH2 4730   1.966   2.635   0.203
 1575TIP3    H1 4731   1.948   2.554   0.155
 1575TIP3    H2 4732   2.026   2.684   0.146
 1576TIP3   OH2 4733   5.108   1.001   1.228
 1576TIP3    H1 4734   5.051   0.958   1.164
 1576TIP3    H2 4735   5.048   1.047   1.287
 1577TIP3   OH2 4736   0.292   3.346   1.856
 1577TIP3    H1 4737   0.328   3.433   1.876
 1577TIP3    H2 4738   0.228   3.331   1.926
 1578TIP3   OH2 4739   2.597   1.720   3.403
 1578TIP3    H1 4740   2.611   1.802   3.451
 1578TIP3    H2 4741   2.671   1.714   3.343
 1579TIP3   OH2 4742   1.843   0.222   2.697
 1579TIP3    H1 4743   1.881   0.176   2.622
 1579TIP3    H2 4744   1.822   0.153   2.760
 1580TIP3   OH2 4745   0.207   5.627   0.705
 1580TIP3    H1 4746   0.293   5.654   0.672
 1580TIP3    H2 4747   0.151   5.624   0.628
 1581TIP3   OH2 4748   6.294   0.232   3.156
 1581TIP3    H1 4749   6.370   0.186   3.120
 1581TIP3    H2 4750   6.222   0.206   3.099
 1582TIP3   OH2 4751   1.363   0.765   4.370
 1582TIP3    H1 4752   1.300   0.826   4.408
 1582TIP3    H2 4753   1.404   0.814   4.298
 1583TIP3   OH2 4754   0.156   0.236   4.882
 1583TIP3    H1 4755   0.170   0.141   4.884
 1583TIP3    H2 4756   0.218   0.269   4.818
 1584TIP3   OH2 4757   2.364   4.302   2.156
 1584TIP3    H1 4758   2.411   4.264   2.082
 1584TIP3    H2 4759   2.288   4.344   2.116
 1585TIP3   OH2 4760   5.619   1.659   2.285
 1585TIP3    H1 4761   5.705   1.622   2.264
 1585TIP3    H2 4762   5.563   1.583   2.301
 1586TIP3   OH2 4763   5.448   3.909   1.674
 1586TIP3    H1 4764   5.403   3.986   1.641
 1586TIP3    H2 4765   5.400   3.835   1.638
 1587TIP3   OH2 4766   4.178   2.055   2.840
 1587TIP3    H1 4767   4.262   2.009   2.837
 1587TIP3    H2 4768   4.145   2.051   2.751
 1588TIP3   OH2 4769   1.345   3.115   1.600
 1588TIP3    H1 4770   1.332   3.024   1.572
 1588TIP3    H2 4771   1.300   3.121   1.684
 1589TIP3   OH2 4772   0.613   5.828   0.015
 1589TIP3    H1 4773   0.589   5.822   0.108
 1589TIP3    H2 4774   0.671   5.753   0.001
 1590TIP3   OH2 4775   5.737   2.231   3.188
 1590TIP3    H1 4776   5.732   2.143   3.150
 1590TIP3    H2 4777   5.646   2.257   3.199
 1591TIP3   OH2 4778   1.375   4.216   3.126
 1591TIP3    H1 4779   1.452   4.267   3.152
 1591TIP3    H2 4780   1.322   4.211   3.205
 1592TIP3   OH2 4781   5.893   4.736   4.219
 1592TIP3    H1 4782   5.806   4.750   4.257
 1592TIP3    H2 4783   5.901   4.642   4.211
 1593TIP3   OH2 4784   3.256   0.764   2.988
 1593TIP3    H1 4785   3.263   0.706   2.912
 1593TIP3    H2 4786   3.164   0.759   3.014
 1594TIP3   OH2 4787   4.704   2.638   1.003
 1594TIP3    H1 4788   4.664   2.718   1.038
 1594TIP3    H2 4789   4.647   2.613   0.930
 1595TIP3   OH2 4790   0.982   0.798   4.695
 1595TIP3    H1 4791   1.012   0.828   4.609
 1595TIP3    H2 4792   0.918   0.864   4.723
 1596TIP3   OH2 4793   0.242   5.746   3.300
 1596TIP3    H1 4794   0.267   5.742   3.207
 1596TIP3    H2 4795   0.172   5.680   3.308
 1597TIP3   OH2 4796   5.818   1.117   1.795
 1597TIP3    H1 4797   5.850   1.128   1.705
 1597TIP3    H2 4798   5.830   1.202   1.836
 1598TIP3   OH2 4799   1.716   2.785   2.259
 1598TIP3    H1 4800   1.629   2.750   2.278
 1598TIP3    H2 4801   1.703   2.838   2.181
 1599TIP3   OH2 4802   2.816   1.185   4.335
 1599TIP3    H1 4803   2.879   1.130   4.288
 1599TIP3    H2 4804   2.767   1.124   4.391
 1600TIP3   OH2 4805   3.970   1.792   4.061
 1600TIP3    H1 4806   3.899   1.798   4.125
 1600TIP3    H2 4807   3.942   1.849   3.990
 1601TIP3   OH2 4808   4.957   0.229   1.342
 1601TIP3    H1 4809   4.920   0.140   1.347
 1601TIP3    H2 4810   4.963   0.258   1.433
 1602TIP3   OH2 4811   6.177   3.094   0.648
 1602TIP3    H1 4812   6.093   3.140   0.642
 1602TIP3    H2 4813   6.191   3.082   0.742
 1603TIP3   OH2 4814   6.240   2.150   0.923
 1603TIP3    H1 4815   6.307   2.216   0.938
 1603TIP3    H2 4816   6.285   2.066   0.935
 1604TIP3   OH2 4817   4.882   5.251   1.390
 1604TIP3    H1 4818   4.801   5.274   1.436
 1604TIP3    H2 4819   4.857   5.181   1.330
 1605TIP3   OH2 4820   3.338   0.897   1.946
 1605TIP3    H1 4821   3.379   0.902   2.032
 1605TIP3    H2 4822   3.321   0.803   1.934
 1606TIP3   OH2 4823   5.063   0.954   3.648
 1606TIP3    H1 4824   5.117   0.997   3.714
 1606TIP3    H2 4825   5.093   0.863   3.648
 1607TIP3   OH2 4826   6.228   2.100   2.121
 1607TIP3    H1 4827   6.219   2.005   2.113
 1607TIP3    H2 4828   6.262   2.128   2.036
 1608TIP3   OH2 4829   0.285   1.480   2.634
 1608TIP3    H1 4830   0.252   1.538   2.703
 1608TIP3    H2 4831   0.316   1.540   2.566
 1609TIP3   OH2 4832   1.673   0.355   2.102
 1609TIP3    H1 4833   1.583   0.376   2.128
 1609TIP3    H2 4834   1.701   0.432   2.051
 1610TIP3   OH2 4835   5.400   2.921   4.651
 1610TIP3    H1 4836   5.334   2.989   4.665
 1610TIP3    H2 4837   5.437   2.905   4.738
 1611TIP3   OH2 4838   4.387   5.320   4.133
 1611TIP3    H1 4839   4.424   5.240   4.095
 1611TIP3    H2 4840   4.416   5.390   4.074
 1612TIP3   OH2 4841   3.413   3.042   2.016
 1612TIP3    H1 4842   3.478   3.016   2.081
 1612TIP3    H2 4843   3.447   3.123   1.977
 1613TIP3   OH2 4844   0.279   0.648   1.535
 1613TIP3    H1 4845   0.296   0.565   1.579
 1613TIP3    H2 4846   0.347   0.654   1.467
 1614TIP3   OH2 4847   1.979   2.878   3.578
 1614TIP3    H1 4848   2.066   2.917   3.567
 1614TIP3    H2 4849   1.963   2.831   3.496
 1615TIP3   OH2 4850   5.043   0.669   4.548
 1615TIP3    H1 4851   5.091   0.596   4.510
 1615TIP3    H2 4852   4.967   0.680   4.490
 1616TIP3   OH2 4853   5.983   4.190   2.973
 1616TIP3    H1 4854   5.934   4.120   2.931
 1616TIP3    H2 4855   5.917   4.257   2.992
 1617TIP3   OH2 4856   3.349   2.446   4.727
 1617TIP3    H1 4857   3.274   2.497   4.698
 1617TIP3    H2 4858   3.392   2.500   4.793
 1618TIP3   OH2 4859   3.814   4.362   2.633
 1618TIP3    H1 4860   3.802   4.350   2.727
 1618TIP3    H2 4861   3.759   4.294   2.593
 1619TIP3   OH2 4862   3.208   3.567   2.799
 1619TIP3    H1 4863   3.117   3.545   2.821
 1619TIP3    H2 4864   3.260   3.499   2.841
 1620TIP3   OH2 4865   6.287   2.190   1.854
 1620TIP3    H1 4866   6.240   2.273   1.842
 1620TIP3    H2 4867   6.340   2.181   1.775
 1621TIP3   OH2 4868   0.673   2.197   4.960
 1621TIP3    H1 4869   0.627   2.184   5.043
 1621TIP3    H2 4870   0.762   2.221   4.986
 1622TIP3   OH2 4871   1.209   3.167   1.852
 1622TIP3    H1 4872   1.134   3.133   1.899
 1622TIP3    H2 4873   1.279   3.171   1.918
 1623TIP3   OH2 4874   1.199   4.900   4.534
 1623TIP3    H1 4875   1.290   4.919   4.511
 1623TIP3    H2 4876   1.204   4.861   4.622
 1624TIP3   OH2 4877   4.078   0.007   1.242
 1624TIP3    H1 4878   4.115   0.042   1.323
 1624TIP3    H2 4879   4.149   0.013   1.179
 1625TIP3   OH2 4880   1.660   4.095   1.911
 1625TIP3    H1 4881   1.627   4.072   1.824
 1625TIP3    H2 4882   1.637   4.188   1.921
 1626TIP3   OH2 4883   5.166   1.280   4.192
 1626TIP3    H1 4884   5.137   1.226   4.265
 1626TIP3    H2 4885   5.260   1.290   4.206
 1627TIP3   OH2 4886   3.913   5.847   1.339
 1627TIP3    H1 4887   3.840   5.887   1.292
 1627TIP3    H2 4888   3.924   5.761   1.298
 1628TIP3   OH2 4889   5.751   0.792   2.226
 1628TIP3    H1 4890   5.792   0.876   2.207
 1628TIP3    H2 4891   5.675   0.789   2.169
 1629TIP3   OH2 4892   4.504   5.185   3.774
 1629TIP3    H1 4893   4.413   5.198   3.747
 1629TIP3    H2 4894   4.519   5.091   3.763
 1630TIP3   OH2 4895   4.579   2.801   1.966
 1630TIP3    H1 4896   4.657   2.823   2.016
 1630TIP3    H2 4897   4.507   2.809   2.028
 1631TIP3   OH2 4898   5.609   5.625   0.981
 1631TIP3    H1 4899   5.674   5.678   1.027
 1631TIP3    H2 4900   5.628   5.640   0.888
 1632TIP3   OH2 4901   2.050   5.185   3.399
 1632TIP3    H1 4902   1.956   5.188   3.379
 1632TIP3    H2 4903   2.060   5.109   3.456
 1633TIP3   OH2 4904   4.312   3.557   3.341
 1633TIP3    H1 4905   4.349   3.511   3.266
 1633TIP3    H2 4906   4.387   3.572   3.399
 1634TIP3   OH2 4907   4.565   2.998   4.194
 1634TIP3    H1 4908   4.538   3.089   4.204
 1634TIP3    H2 4909   4.615   2.979   4.273
 1635TIP3   OH2 4910   6.208   5.552   1.581
 1635TIP3    H1 4911   6.255   5.593   1.654
 1635TIP3    H2 4912   6.124   5.526   1.618
 1636TIP3   OH2 4913   1.502   2.616   0.994
 1636TIP3    H1 4914   1.546   2.546   1.043
 1636TIP3    H2 4915   1.431   2.572   0.947
 1637TIP3   OH2 4916   4.135   4.482   1.891
 1637TIP3    H1 4917   4.133   4.577   1.888
 1637TIP3    H2 4918   4.045   4.456   1.909
 1638TIP3   OH2 4919   1.315   1.426   3.663
 1638TIP3    H1 4920   1.223   1.451   3.670
 1638TIP3    H2 4921   1.333   1.427   3.569
 1639TIP3   OH2 4922   5.798   4.783   1.901
 1639TIP3    H1 4923   5.750   4.846   1.955
 1639TIP3    H2 4924   5.814   4.830   1.819
 1640TIP3   OH2 4925   3.835   0.254   4.951
 1640TIP3    H1 4926   3.826   0.163   4.978
 1640TIP3    H2 4927   3.911   0.286   5.000
 1641TIP3   OH2 4928   5.665   0.434   3.423
 1641TIP3    H1 4929   5.606   0.460   3.493
 1641TIP3    H2 4930   5.717   0.513   3.405
 1642TIP3   OH2 4931   4.145   3.099   1.443
 1642TIP3    H1 4932   4.096   3.072   1.520
 1642TIP3    H2 4933   4.218   3.151   1.477
 1643TIP3   OH2 4934   5.680   3.270   3.185
 1643TIP3    H1 4935   5.744   3.253   3.116
 1643TIP3    H2 4936   5.721   3.337   3.240
 1644TIP3   OH2 4937   2.097   0.611   3.550
 1644TIP3    H1 4938   2.066   0.699   3.532
 1644TIP3    H2 4939   2.130   0.614   3.639
 1645TIP3   OH2 4940   0.042   5.331   2.831
 1645TIP3    H1 4941   0.120   5.294   2.872
 1645TIP3    H2 4942   0.035   5.285   2.747
 1646TIP3   OH2 4943   5.673   5.931   2.565
 1646TIP3    H1 4944   5.720   5.941   2.483
 1646TIP3    H2 4945   5.610   5.861   2.549
 1647TIP3   OH2 4946   1.110   3.058   4.767
 1647TIP3    H1 4947   1.098   3.063   4.862
 1647TIP3    H2 4948   1.174   2.989   4.754
 1648TIP3   OH2 4949   4.643   0.936   1.477
 1648TIP3    H1 4950   4.605   0.947   1.563
 1648TIP3    H2 4951   4.709   1.005   1.470
 1649TIP3   OH2 4952   0.297   4.834   2.901
 1649TIP3    H1 4953   0.381   4.821   2.945
 1649TIP3    H2 4954   0.250   4.896   2.957
 1650TIP3   OH2 4955   3.997   5.022   4.465
 1650TIP3    H1 4956   3.983   4.928   4.477
 1650TIP3    H2 4957   4.017   5.054   4.553
 1651TIP3   OH2 4958   2.891   3.867   2.996
 1651TIP3    H1 4959   2.986   3.870   2.996
 1651TIP3    H2 4960   2.866   3.896   3.084
 1652TIP3   OH2 4961   5.310   3.931   3.535
 1652TIP3    H1 4962   5.277   3.875   3.465
 1652TIP3    H2 4963   5.326   3.870   3.608
 1653TIP3   OH2 4964   2.598   4.348   2.623
 1653TIP3    H1 4965   2.611   4.299   2.542
 1653TIP3    H2 4966   2.545   4.424   2.596
 1654TIP3   OH2 4967   1.890   4.843   3.565
 1654TIP3    H1 4968   1.821   4.861   3.501
 1654TIP3    H2 4969   1.928   4.760   3.536
 1655TIP3   OH2 4970   4.399   2.251   2.734
 1655TIP3    H1 4971   4.462   2.204   2.788
 1655TIP3    H2 4972   4.376   2.188   2.665
 1656TIP3   OH2 4973   6.144   1.182   5.113
 1656TIP3    H1 4974   6.133   1.276   5.129
 1656TIP3    H2 4975   6.109   1.140   5.191
 1657TIP3   OH2 4976   1.285   2.601   4.052
 1657TIP3    H1 4977   1.377   2.584   4.033
 1657TIP3    H2 4978   1.285   2.645   4.137
 1658TIP3   OH2 4979   2.070   4.056   2.925
 1658TIP3    H1 4980   2.016   4.132   2.949
 1658TIP3    H2 4981   2.099   4.075   2.836
 1659TIP3   OH2 4982   2.103   3.000   4.292
 1659TIP3    H1 4983   2.034   2.936   4.308
 1659TIP3    H2 4984   2.092   3.024   4.200
 1660TIP3   OH2 4985   3.225   2.621   3.570
 1660TIP3    H1 4986   3.301   2.662   3.611
 1660TIP3    H2 4987   3.209   2.542   3.622
 1661TIP3   OH2 4988   1.324   5.510   2.987
 1661TIP3    H1 4989   1.266   5.515   2.911
 1661TIP3    H2 4990   1.294   5.579   3.046
 1662TIP3   OH2 4991   2.672   3.026   2.709
 1662TIP3    H1 4992   2.702   3.023   2.618
 1662TIP3    H2 4993   2.700   3.112   2.740
 1663TIP3   OH2 4994   1.604   5.190   4.220
 1663TIP3    H1 4995   1.605   5.214   4.312
 1663TIP3    H2 4996   1.511   5.182   4.198
 1664TIP3   OH2 4997   5.966   1.262   4.593
 1664TIP3    H1 4998   6.013   1.269   4.676
 1664TIP3    H2 4999   5.882   1.303   4.610
 1665TIP3   OH2 5000   0.781   4.150   0.949
 1665TIP3    H1 5001   0.795   4.228   1.003
 1665TIP3    H2 5002   0.816   4.078   1.001
 1666TIP3   OH2 5003   1.905   4.368   1.705
 1666TIP3    H1 5004   1.995   4.402   1.710
 1666TIP3    H2 5005   1.911   4.293   1.645
 1667TIP3   OH2 5006   4.037   2.349   1.204
 1667TIP3    H1 5007   3.949   2.333   1.239
 1667TIP3    H2 5008   4.028   2.428   1.151
 1668TIP3   OH2 5009   1.664   0.756   1.897
 1668TIP3    H1 5010   1.648   0.850   1.905
 1668TIP3    H2 5011   1.740   0.740   1.953
 1669TIP3   OH2 5012   1.698   0.687   2.608
 1669TIP3    H1 5013   1.604   0.693   2.622
 1669TIP3    H2 5014   1.712   0.598   2.575
 1670TIP3   OH2 5015   0.575   0.315   3.301
 1670TIP3    H1 5016   0.654   0.368   3.309
 1670TIP3    H2 5017   0.606   0.224   3.300
 1671TIP3   OH2 5018   1.762   0.048   2.902
 1671TIP3    H1 5019   1.835   0.031   2.961
 1671TIP3    H2 5020   1.706   0.109   2.950
 1672TIP3   OH2 5021   5.122   2.476   2.845
 1672TIP3    H1 5022   5.073   2.492   2.765
 1672TIP3    H2 5023   5.065   2.421   2.899
 1673TIP3   OH2 5024   3.031   2.545   1.327
 1673TIP3    H1 5025   3.056   2.492   1.402
 1673TIP3    H2 5026   3.108   2.546   1.271
 1674TIP3   OH2 5027   4.134   2.510   0.657
 1674TIP3    H1 5028   4.180   2.556   0.727
 1674TIP3    H2 5029   4.199   2.499   0.588
 1675TIP3   OH2 5030   5.280   3.418   0.413
 1675TIP3    H1 5031   5.237   3.346   0.457
 1675TIP3    H2 5032   5.290   3.485   0.480
 1676TIP3   OH2 5033   2.131   4.412   2.057
 1676TIP3    H1 5034   2.158   4.494   2.015
 1676TIP3    H2 5035   2.072   4.438   2.127
 1677TIP3   OH2 5036   1.393   3.585   2.629
 1677TIP3    H1 5037   1.301   3.574   2.604
 1677TIP3    H2 5038   1.441   3.523   2.574
 1678TIP3   OH2 5039   1.355   3.138   2.068
 1678TIP3    H1 5040   1.367   3.155   2.162
 1678TIP3    H2 5041   1.335   3.045   2.064
 1679TIP3   OH2 5042   4.674   1.675   0.558
 1679TIP3    H1 5043   4.687   1.606   0.493
 1679TIP3    H2 5044   4.755   1.726   0.554
 1680TIP3   OH2 5045   4.077   5.997   4.884
 1680TIP3    H1 5046   4.010   5.932   4.902
 1680TIP3    H2 5047   4.112   5.973   4.798
 1681TIP3   OH2 5048   0.711   2.830   1.596
 1681TIP3    H1 5049   0.652   2.905   1.584
 1681TIP3    H2 5050   0.674   2.781   1.669
 1682TIP3   OH2 5051   4.455   1.892   3.503
 1682TIP3    H1 5052   4.403   1.854   3.574
 1682TIP3    H2 5053   4.413   1.976   3.485
 1683TIP3   OH2 5054   5.341   3.078   4.118
 1683TIP3    H1 5055   5.410   3.035   4.168
 1683TIP3    H2 5056   5.280   3.008   4.094
 1684TIP3   OH2 5057   3.831   3.149   0.762
 1684TIP3    H1 5058   3.858   3.201   0.687
 1684TIP3    H2 5059   3.737   3.136   0.749
 1685TIP3   OH2 5060   1.209   2.810   0.694
 1685TIP3    H1 5061   1.123   2.776   0.670
 1685TIP3    H2 5062   1.236   2.864   0.619
 1686TIP3   OH2 5063   3.390   3.295   1.265
 1686TIP3    H1 5064   3.446   3.247   1.326
 1686TIP3    H2 5065   3.416   3.387   1.275
 1687TIP3   OH2 5066   5.051   4.078   4.069
 1687TIP3    H1 5067   5.115   4.007   4.074
 1687TIP3    H2 5068   5.095   4.153   4.109
 1688TIP3   OH2 5069   5.815   2.561   4.776
 1688TIP3    H1 5070   5.728   2.521   4.770
 1688TIP3    H2 5071   5.876   2.487   4.773
 1689TIP3   OH2 5072   6.292   1.508   2.165
 1689TIP3    H1 5073   6.281   1.459   2.083
 1689TIP3    H2 5074   6.339   1.448   2.223
 1690TIP3   OH2 5075   4.911   5.437   3.533
 1690TIP3    H1 5076   4.986   5.385   3.561
 1690TIP3    H2 5077   4.836   5.380   3.545
 1691TIP3   OH2 5078   1.435   4.134   4.451
 1691TIP3    H1 5079   1.417   4.166   4.363
 1691TIP3    H2 5080   1.384   4.053   4.459
 1692TIP3   OH2 5081   0.608   5.749   3.509
 1692TIP3    H1 5082   0.629   5.754   3.416
 1692TIP3    H2 5083   0.667   5.682   3.544
 1693TIP3   OH2 5084   5.035   3.428   1.170
 1693TIP3    H1 5085   4.942   3.444   1.155
 1693TIP3    H2 5086   5.079   3.474   1.099
 1694TIP3   OH2 5087   5.318   3.759   4.355
 1694TIP3    H1 5088   5.311   3.666   4.335
 1694TIP3    H2 5089   5.407   3.772   4.386
 1695TIP3   OH2 5090   3.888   2.315   1.690
 1695TIP3    H1 5091   3.825   2.359   1.747
 1695TIP3    H2 5092   3.836   2.254   1.637
 1696TIP3   OH2 5093   1.401   1.731   2.422
 1696TIP3    H1 5094   1.323   1.781   2.444
 1696TIP3    H2 5095   1.369   1.663   2.362
 1697TIP3   OH2 5096   0.987   2.854   1.202
 1697TIP3    H1 5097   0.999   2.764   1.234
 1697TIP3    H2 5098   0.897   2.876   1.226
 1698TIP3   OH2 5099   1.298   5.500   1.772
 1698TIP3    H1 5100   1.283   5.594   1.760
 1698TIP3    H2 5101   1.332   5.471   1.688
 1699TIP3   OH2 5102   3.832   1.787   4.774
 1699TIP3    H1 5103   3.887   1.866   4.774
 1699TIP3    H2 5104   3.771   1.800   4.847
 1700TIP3   OH2 5105   3.768   0.742   4.938
 1700TIP3    H1 5106   3.863   0.750   4.926
 1700TIP3    H2 5107   3.750   0.650   4.921
 1701TIP3   OH2 5108   1.406   3.427   4.284
 1701TIP3    H1 5109   1.461   3.490   4.236
 1701TIP3    H2 5110   1.343   3.482   4.331
 1702TIP3   OH2 5111   1.889   1.771   4.392
 1702TIP3    H1 5112   1.908   1.680   4.414
 1702TIP3    H2 5113   1.842   1.766   4.308
 1703TIP3   OH2 5114   1.948   2.069   3.675
 1703TIP3    H1 5115   2.007   2.005   3.714
 1703TIP3    H2 5116   1.967   2.150   3.721
 1704TIP3   OH2 5117   2.281   1.778   0.164
 1704TIP3    H1 5118   2.338   1.755   0.238
 1704TIP3    H2 5119   2.290   1.704   0.103
 1705TIP3   OH2 5120   0.181   4.032   0.645
 1705TIP3    H1 5121   0.161   4.125   0.638
 1705TIP3    H2 5122   0.260   4.029   0.699
 1706TIP3   OH2 5123   1.509   2.004   4.668
 1706TIP3    H1 5124   1.426   1.957   4.677
 1706TIP3    H2 5125   1.576   1.936   4.671
 1707TIP3   OH2 5126   0.282   2.107   2.429
 1707TIP3    H1 5127   0.364   2.058   2.430
 1707TIP3    H2 5128   0.234   2.072   2.354
 1708TIP3   OH2 5129   2.196   0.832   2.448
 1708TIP3    H1 5130   2.209   0.766   2.380
 1708TIP3    H2 5131   2.101   0.841   2.454
 1709TIP3   OH2 5132   3.296   0.783   2.494
 1709TIP3    H1 5133   3.222   0.832   2.530
 1709TIP3    H2 5134   3.370   0.844   2.498
 1710TIP3   OH2 5135   5.774   5.870   0.354
 1710TIP3    H1 5136   5.708   5.826   0.406
 1710TIP3    H2 5137   5.766   5.963   0.377
 1711TIP3   OH2 5138   3.661   5.253   1.021
 1711TIP3    H1 5139   3.745   5.242   0.977
 1711TIP3    H2 5140   3.606   5.182   0.988
 1712TIP3   OH2 5141   3.091   0.604   3.600
 1712TIP3    H1 5142   3.182   0.629   3.612
 1712TIP3    H2 5143   3.093   0.534   3.535
 1713TIP3   OH2 5144   3.638   1.730   0.826
 1713TIP3    H1 5145   3.600   1.818   0.818
 1713TIP3    H2 5146   3.621   1.689   0.741
 1714TIP3   OH2 5147   4.366   1.546   1.519
 1714TIP3    H1 5148   4.358   1.454   1.494
 1714TIP3    H2 5149   4.314   1.593   1.454
 1715TIP3   OH2 5150   1.025   3.115   3.518
 1715TIP3    H1 5151   1.015   3.100   3.612
 1715TIP3    H2 5152   1.114   3.086   3.497
 1716TIP3   OH2 5153   6.033   0.086   1.049
 1716TIP3    H1 5154   6.019  -0.003   1.017
 1716TIP3    H2 5155   6.034   0.140   0.971
 1717TIP3   OH2 5156   6.218   4.195   2.843
 1717TIP3    H1 5157   6.142   4.215   2.898
 1717TIP3    H2 5158   6.259   4.119   2.885
 1718TIP3   OH2 5159   4.673   5.280   3.565
 1718TIP3    H1 5160   4.634   5.252   3.482
 1718TIP3    H2 5161   4.611   5.253   3.632
 1719TIP3   OH2 5162   3.731   0.167   2.928
 1719TIP3    H1 5163   3.744   0.203   3.016
 1719TIP3    H2 5164   3.765   0.235   2.870
 1720TIP3   OH2 5165   6.232   4.496   3.663
 1720TIP3    H1 5166   6.166   4.540   3.716
 1720TIP3    H2 5167   6.266   4.427   3.719
 1721TIP3   OH2 5168   6.116   0.581   0.889
 1721TIP3    H1 5169   6.037   0.531   0.907
 1721TIP3    H2 5170   6.106   0.661   0.941
 1722TIP3   OH2 5171   1.621   1.650   5.027
 1722TIP3    H1 5172   1.535   1.645   5.070
 1722TIP3    H2 5173   1.648   1.741   5.040
 1723TIP3   OH2 5174   3.906   1.503   4.216
 1723TIP3    H1 5175   3.890   1.520   4.123
 1723TIP3    H2 5176   3.834   1.546   4.261
 1724TIP3   OH2 5177   0.042   2.614   0.538
 1724TIP3    H1 5178   0.017   2.702   0.568
 1724TIP3    H2 5179  -0.021   2.555   0.580
 1725TIP3   OH2 5180   4.981   1.158   2.898
 1725TIP3    H1 5181   5.068   1.130   2.870
 1725TIP3    H2 5182   4.996   1.242   2.942
 1726TIP3   OH2 5183   4.052   5.514   0.645
 1726TIP3    H1 5184   4.129   5.471   0.683
 1726TIP3    H2 5185   4.036   5.466   0.563
 1727TIP3   OH2 5186   0.734   0.417   2.452
 1727TIP3    H1 5187   0.828   0.400   2.458
 1727TIP3    H2 5188   0.692   0.334   2.474
 1728TIP3   OH2 5189   5.264   1.623   2.481
 1728TIP3    H1 5190   5.235   1.702   2.435
 1728TIP3    H2 5191   5.261   1.647   2.573
 1729TIP3   OH2 5192   1.834   1.667   2.655
 1729TIP3    H1 5193   1.758   1.666   2.713
 1729TIP3    H2 5194   1.852   1.574   2.638
 1730TIP3   OH2 5195   3.874   5.028   5.027
 1730TIP3    H1 5196   3.827   4.968   4.968
 1730TIP3    H2 5197   3.953   4.980   5.050
 1731TIP3   OH2 5198   2.022   2.817   2.509
 1731TIP3    H1 5199   2.080   2.741   2.516
 1731TIP3    H2 5200   2.080   2.889   2.487
 1732TIP3   OH2 5201   4.485   4.428   4.427
 1732TIP3    H1 5202   4.575   4.397   4.411
 1732TIP3    H2 5203   4.475   4.502   4.367
 1733TIP3   OH2 5204   0.129   3.900   4.660
 1733TIP3    H1 5205   0.168   3.830   4.712
 1733TIP3    H2 5206   0.202   3.936   4.610
 1734TIP3   OH2 5207   5.594   3.723   5.213
 1734TIP3    H1 5208   5.563   3.646   5.167
 1734TIP3    H2 5209   5.660   3.762   5.155
 1735TIP3   OH2 5210   0.982   2.991   3.749
 1735TIP3    H1 5211   0.919   2.936   3.701
 1735TIP3    H2 5212   1.034   2.928   3.800
 1736TIP3   OH2 5213   5.523   3.062   4.842
 1736TIP3    H1 5214   5.542   3.046   4.934
 1736TIP3    H2 5215   5.594   3.017   4.795
 1737TIP3   OH2 5216   5.359   2.028   4.105
 1737TIP3    H1 5217   5.272   2.008   4.073
 1737TIP3    H2 5218   5.353   2.017   4.200
 1738TIP3   OH2 5219   0.240   3.156   1.599
 1738TIP3    H1 5220   0.207   3.087   1.657
 1738TIP3    H2 5221   0.248   3.114   1.514
 1739TIP3   OH2 5222   2.848   1.359   2.028
 1739TIP3    H1 5223   2.829   1.266   2.040
 1739TIP3    H2 5224   2.928   1.360   1.976
 1740TIP3   OH2 5225   2.516   5.293   4.669
 1740TIP3    H1 5226   2.580   5.331   4.609
 1740TIP3    H2 5227   2.507   5.202   4.640
 1741TIP3   OH2 5228   2.091   3.176   3.054
 1741TIP3    H1 5229   2.099   3.265   3.088
 1741TIP3    H2 5230   2.066   3.186   2.963
 1742TIP3   OH2 5231   6.236   2.971   3.157
 1742TIP3    H1 5232   6.303   2.904   3.145
 1742TIP3    H2 5233   6.161   2.923   3.192
 1743TIP3   OH2 5234   1.426   4.777   1.932
 1743TIP3    H1 5235   1.478   4.708   1.972
 1743TIP3    H2 5236   1.486   4.851   1.925
 1744TIP3   OH2 5237   4.630   0.679   4.182
 1744TIP3    H1 5238   4.635   0.739   4.107
 1744TIP3    H2 5239   4.669   0.728   4.254
 1745TIP3   OH2 5240   2.470   2.053   1.443
 1745TIP3    H1 5241   2.455   1.980   1.503
 1745TIP3    H2 5242   2.472   2.012   1.356
 1746TIP3   OH2 5243   0.999   2.410   0.704
 1746TIP3    H1 5244   1.049   2.419   0.623
 1746TIP3    H2 5245   1.018   2.322   0.735
 1747TIP3   OH2 5246   0.419   3.066   2.539
 1747TIP3    H1 5247   0.450   3.063   2.449
 1747TIP3    H2 5248   0.343   3.124   2.536
 1748TIP3   OH2 5249   5.294   0.897   0.016
 1748TIP3    H1 5250   5.340   0.902   0.099
 1748TIP3    H2 5251   5.243   0.978   0.012
 1749TIP3   OH2 5252   3.451   4.396   2.797
 1749TIP3    H1 5253   3.385   4.348   2.846
 1749TIP3    H2 5254   3.521   4.413   2.860
 1750TIP3   OH2 5255   0.596   5.106   0.552
 1750TIP3    H1 5256   0.655   5.179   0.535
 1750TIP3    H2 5257   0.646   5.028   0.529
 1751TIP3   OH2 5258   2.073   5.142   2.223
 1751TIP3    H1 5259   2.088   5.234   2.243
 1751TIP3    H2 5260   1.986   5.139   2.184
 1752TIP3   OH2 5261   2.293   2.058   2.347
 1752TIP3    H1 5262   2.262   2.034   2.260
 1752TIP3    H2 5263   2.251   1.996   2.406
 1753TIP3   OH2 5264   0.666   5.279   4.052
 1753TIP3    H1 5265   0.757   5.271   4.079
 1753TIP3    H2 5266   0.618   5.224   4.113
 1754TIP3   OH2 5267   2.288   1.618   2.169
 1754TIP3    H1 5268   2.340   1.647   2.244
 1754TIP3    H2 5269   2.309   1.525   2.160
 1755TIP3   OH2 5270   6.031   4.795   1.714
 1755TIP3    H1 5271   6.040   4.782   1.620
 1755TIP3    H2 5272   5.973   4.871   1.723
 1756TIP3   OH2 5273   1.698   0.481   4.936
 1756TIP3    H1 5274   1.729   0.551   4.878
 1756TIP3    H2 5275   1.606   0.470   4.913
 1757TIP3   OH2 5276   3.517   2.063   3.943
 1757TIP3    H1 5277   3.530   1.979   3.900
 1757TIP3    H2 5278   3.587   2.119   3.908
 1758TIP3   OH2 5279   1.402   0.634   0.328
 1758TIP3    H1 5280   1.419   0.543   0.306
 1758TIP3    H2 5281   1.481   0.664   0.373
 1759TIP3   OH2 5282   4.404   4.531   2.090
 1759TIP3    H1 5283   4.414   4.625   2.076
 1759TIP3    H2 5284   4.467   4.491   2.031
 1760TIP3   OH2 5285   1.750   3.659   3.084
 1760TIP3    H1 5286   1.726   3.570   3.058
 1760TIP3    H2 5287   1.700   3.715   3.024
 1761TIP3   OH2 5288   0.764   0.316   4.015
 1761TIP3    H1 5289   0.704   0.256   3.972
 1761TIP3    H2 5290   0.789   0.272   4.096
 1762TIP3   OH2 5291   2.583   5.212   2.168
 1762TIP3    H1 5292   2.645   5.202   2.240
 1762TIP3    H2 5293   2.551   5.302   2.177
 1763TIP3   OH2 5294   4.720   0.137   4.858
 1763TIP3    H1 5295   4.788   0.092   4.908
 1763TIP3    H2 5296   4.664   0.177   4.924
 1764TIP3   OH2 5297   1.454   3.960   4.990
 1764TIP3    H1 5298   1.446   4.032   5.053
 1764TIP3    H2 5299   1.547   3.960   4.965
 1765TIP3   OH2 5300   0.566   1.824   4.426
 1765TIP3    H1 5301   0.516   1.742   4.421
 1765TIP3    H2 5302   0.621   1.822   4.348
 1766TIP3   OH2 5303   3.050   3.364   5.088
 1766TIP3    H1 5304   3.096   3.280   5.082
 1766TIP3    H2 5305   2.966   3.343   5.128
 1767TIP3   OH2 5306   1.633   0.089   4.217
 1767TIP3    H1 5307   1.692   0.043   4.277
 1767TIP3    H2 5308   1.681   0.169   4.194
 1768TIP3   OH2 5309   4.592   5.260   4.517
 1768TIP3    H1 5310   4.581   5.177   4.469
 1768TIP3    H2 5311   4.543   5.247   4.598
 1769TIP3   OH2 5312   5.356   5.214   3.186
 1769TIP3    H1 5313   5.367   5.184   3.095
 1769TIP3    H2 5314   5.269   5.256   3.186
 1770TIP3   OH2 5315   0.356   3.210   1.069
 1770TIP3    H1 5316   0.434   3.239   1.021
 1770TIP3    H2 5317   0.340   3.281   1.132
 1771TIP3   OH2 5318   2.861   0.290   2.754
 1771TIP3    H1 5319   2.929   0.223   2.754
 1771TIP3    H2 5320   2.817   0.280   2.669
 1772TIP3   OH2 5321   5.387   0.995   0.858
 1772TIP3    H1 5322   5.387   0.904   0.830
 1772TIP3    H2 5323   5.343   1.042   0.787
 1773TIP3   OH2 5324   3.677   1.919   4.514
 1773TIP3    H1 5325   3.653   2.011   4.529
 1773TIP3    H2 5326   3.706   1.888   4.600
 1774TIP3   OH2 5327   2.370   1.041   3.981
 1774TIP3    H1 5328   2.401   1.091   4.056
 1774TIP3    H2 5329   2.276   1.032   3.996
 1775TIP3   OH2 5330   2.780   0.744   2.929
 1775TIP3    H1 5331   2.721   0.738   2.853
 1775TIP3    H2 5332   2.865   0.717   2.895
 1776TIP3   OH2 5333   2.815   4.510   0.561
 1776TIP3    H1 5334   2.882   4.493   0.627
 1776TIP3    H2 5335   2.770   4.588   0.593
 1777TIP3   OH2 5336   2.501   3.023   0.325
 1777TIP3    H1 5337   2.465   3.094   0.271
 1777TIP3    H2 5338   2.446   3.022   0.403
 1778TIP3   OH2 5339   1.983   2.577   4.381
 1778TIP3    H1 5340   1.920   2.555   4.449
 1778TIP3    H2 5341   2.049   2.507   4.386
 1779TIP3   OH2 5342   3.844   3.241   0.080
 1779TIP3    H1 5343   3.771   3.208   0.028
 1779TIP3    H2 5344   3.824   3.212   0.170
 1780TIP3   OH2 5345   5.921   3.968   2.658
 1780TIP3    H1 5346   5.921   3.964   2.753
 1780TIP3    H2 5347   5.872   4.048   2.638
 1781TIP3   OH2 5348   3.310   0.401   3.140
 1781TIP3    H1 5349   3.269   0.315   3.144
 1781TIP3    H2 5350   3.373   0.394   3.068
 1782TIP3   OH2 5351   2.720   1.665   0.433
 1782TIP3    H1 5352   2.655   1.612   0.388
 1782TIP3    H2 5353   2.764   1.605   0.493
 1783TIP3   OH2 5354   4.649   2.615   4.041
 1783TIP3    H1 5355   4.735   2.575   4.025
 1783TIP3    H2 5356   4.668   2.692   4.095
 1784TIP3   OH2 5357   3.324   2.335   1.767
 1784TIP3    H1 5358   3.401   2.305   1.817
 1784TIP3    H2 5359   3.255   2.344   1.833
 1785TIP3   OH2 5360   5.830   3.505   3.629
 1785TIP3    H1 5361   5.891   3.574   3.651
 1785TIP3    H2 5362   5.747   3.532   3.668
 1786TIP3   OH2 5363   2.293   4.954   0.762
 1786TIP3    H1 5364   2.379   4.991   0.742
 1786TIP3    H2 5365   2.232   5.022   0.733
 1787TIP3   OH2 5366   6.164   4.600   0.299
 1787TIP3    H1 5367   6.132   4.545   0.227
 1787TIP3    H2 5368   6.258   4.605   0.285
 1788TIP3   OH2 5369   5.023   1.157   2.013
 1788TIP3    H1 5370   5.091   1.201   2.064
 1788TIP3    H2 5371   5.069   1.126   1.934
 1789TIP3   OH2 5372   3.121   2.698   1.762
 1789TIP3    H1 5373   3.065   2.621   1.769
 1789TIP3    H2 5374   3.082   2.751   1.693
 1790TIP3   OH2 5375   5.433   3.190   3.230
 1790TIP3    H1 5376   5.522   3.210   3.202
 1790TIP3    H2 5377   5.391   3.276   3.238
 1791TIP3   OH2 5378   4.910   2.797  -0.012
 1791TIP3    H1 5379   4.957   2.727   0.033
 1791TIP3    H2 5380   4.819   2.768  -0.013
 1792TIP3   OH2 5381   0.282   4.108   3.851
 1792TIP3    H1 5382   0.295   4.025   3.897
 1792TIP3    H2 5383   0.296   4.087   3.759
 1793TIP3   OH2 5384   4.255   0.346   3.444
 1793TIP3    H1 5385   4.343   0.312   3.426
 1793TIP3    H2 5386   4.239   0.323   3.536
 1794TIP3   OH2 5387   1.777   5.113   4.501
 1794TIP3    H1 5388   1.831   5.102   4.579
 1794TIP3    H2 5389   1.709   5.175   4.527
 1795TIP3   OH2 5390   0.312   0.426   1.657
 1795TIP3    H1 5391   0.388   0.429   1.715
 1795TIP3    H2 5392   0.237   0.437   1.716
 1796TIP3   OH2 5393   3.219   3.179   4.312
 1796TIP3    H1 5394   3.207   3.249   4.377
 1796TIP3    H2 5395   3.223   3.098   4.364
 1797TIP3   OH2 5396   0.074   4.029   0.924
 1797TIP3    H1 5397   0.067   4.044   0.830
 1797TIP3    H2 5398  -0.001   4.075   0.962
 1798TIP3   OH2 5399   1.148   3.287   1.080
 1798TIP3    H1 5400   1.188   3.271   1.165
 1798TIP3    H2 5401   1.139   3.199   1.041
 1799TIP3   OH2 5402   3.327   2.351   3.176
 1799TIP3    H1 5403   3.272   2.275   3.194
 1799TIP3    H2 5404   3.380   2.326   3.101
 1800TIP3   OH2 5405   1.597   4.379   1.416
 1800TIP3    H1 5406   1.533   4.309   1.405
 1800TIP3    H2 5407   1.569   4.447   1.355
 1801TIP3   OH2 5408   2.181   1.472   0.552
 1801TIP3    H1 5409   2.153   1.465   0.644
 1801TIP3    H2 5410   2.255   1.412   0.545
 1802TIP3   OH2 5411   0.769   5.817   1.625
 1802TIP3    H1 5412   0.847   5.831   1.680
 1802TIP3    H2 5413   0.770   5.724   1.605
 1803TIP3   OH2 5414   3.724   1.791   5.085
 1803TIP3    H1 5415   3.678   1.707   5.088
 1803TIP3    H2 5416   3.677   1.842   5.019
 1804TIP3   OH2 5417   3.767   2.281   1.245
 1804TIP3    H1 5418   3.751   2.231   1.325
 1804TIP3    H2 5419   3.693   2.341   1.238
 1805TIP3   OH2 5420   5.736   5.419   4.643
 1805TIP3    H1 5421   5.723   5.325   4.630
 1805TIP3    H2 5422   5.828   5.428   4.665
 1806TIP3   OH2 5423   2.888   1.572   1.412
 1806TIP3    H1 5424   2.854   1.496   1.366
 1806TIP3    H2 5425   2.936   1.536   1.487
 1807TIP3   OH2 5426   4.452   1.204   0.780
 1807TIP3    H1 5427   4.360   1.216   0.803
 1807TIP3    H2 5428   4.450   1.170   0.691
 1808TIP3   OH2 5429   3.491   5.692   1.577
 1808TIP3    H1 5430   3.507   5.740   1.496
 1808TIP3    H2 5431   3.434   5.619   1.552
 1809TIP3   OH2 5432   3.837   1.763   1.911
 1809TIP3    H1 5433   3.840   1.675   1.873
 1809TIP3    H2 5434   3.912   1.809   1.872
 1810TIP3   OH2 5435   1.010   0.520   4.595
 1810TIP3    H1 5436   0.999   0.584   4.525
 1810TIP3    H2 5437   1.009   0.572   4.676
 1811TIP3   OH2 5438   6.009   0.396   1.871
 1811TIP3    H1 5439   5.956   0.399   1.792
 1811TIP3    H2 5440   6.082   0.338   1.849
 1812TIP3   OH2 5441   4.095   0.444   3.939
 1812TIP3    H1 5442   4.034   0.499   3.988
 1812TIP3    H2 5443   4.041   0.371   3.908
 1813TIP3   OH2 5444   6.166   5.503   5.006
 1813TIP3    H1 5445   6.123   5.509   5.092
 1813TIP3    H2 5446   6.149   5.588   4.965
 1814TIP3   OH2 5447   1.596   5.852   2.155
 1814TIP3    H1 5448   1.675   5.848   2.102
 1814TIP3    H2 5449   1.540   5.783   2.119
 1815TIP3   OH2 5450   5.150   1.304   1.360
 1815TIP3    H1 5451   5.186   1.377   1.410
 1815TIP3    H2 5452   5.056   1.309   1.375
 1816TIP3   OH2 5453   1.966   1.454   1.320
 1816TIP3    H1 5454   1.901   1.395   1.358
 1816TIP3    H2 5455   1.932   1.542   1.337
 1817TIP3   OH2 5456   1.887   3.792   0.952
 1817TIP3    H1 5457   1.820   3.824   1.011
 1817TIP3    H2 5458   1.879   3.697   0.955
 1818TIP3   OH2 5459   6.222   2.569   2.361
 1818TIP3    H1 5460   6.176   2.492   2.330
 1818TIP3    H2 5461   6.208   2.568   2.456
 1819TIP3   OH2 5462   2.671   0.355   2.932
 1819TIP3    H1 5463   2.670   0.263   2.956
 1819TIP3    H2 5464   2.752   0.367   2.884
 1820TIP3   OH2 5465   6.291   2.042   3.595
 1820TIP3    H1 5466   6.347   1.973   3.557
 1820TIP3    H2 5467   6.275   2.014   3.685
 1821TIP3   OH2 5468   0.363   5.145   3.765
 1821TIP3    H1 5469   0.441   5.197   3.744
 1821TIP3    H2 5470   0.390   5.088   3.836
 1822TIP3   OH2 5471   3.802   5.392   2.428
 1822TIP3    H1 5472   3.730   5.347   2.383
 1822TIP3    H2 5473   3.790   5.484   2.404
 1823TIP3   OH2 5474   1.996   4.769   2.203
 1823TIP3    H1 5475   1.986   4.826   2.127
 1823TIP3    H2 5476   2.090   4.767   2.219
 1824TIP3   OH2 5477   1.762   5.925   3.227
 1824TIP3    H1 5478   1.699   5.853   3.220
 1824TIP3    H2 5479   1.825   5.908   3.156
 1825TIP3   OH2 5480   1.966   5.855   3.069
 1825TIP3    H1 5481   1.959   5.869   2.974
 1825TIP3    H2 5482   1.966   5.760   3.080
 1826TIP3   OH2 5483   2.467   2.092   4.001
 1826TIP3    H1 5484   2.551   2.060   3.969
 1826TIP3    H2 5485   2.414   2.012   4.013
 1827TIP3   OH2 5486   2.654   2.749   2.468
 1827TIP3    H1 5487   2.640   2.655   2.458
 1827TIP3    H2 5488   2.746   2.762   2.447
 1828TIP3   OH2 5489   4.590   5.583   3.351
 1828TIP3    H1 5490   4.605   5.598   3.445
 1828TIP3    H2 5491   4.620   5.494   3.336
 1829TIP3   OH2 5492   0.619   2.789   1.024
 1829TIP3    H1 5493   0.543   2.784   0.965
 1829TIP3    H2 5494   0.691   2.819   0.969
 1830TIP3   OH2 5495   3.778   3.889   4.548
 1830TIP3    H1 5496   3.841   3.819   4.565
 1830TIP3    H2 5497   3.780   3.944   4.627
 1831TIP3   OH2 5498   2.468   3.436   3.427
 1831TIP3    H1 5499   2.383   3.393   3.420
 1831TIP3    H2 5500   2.517   3.382   3.488
 1832TIP3   OH2 5501   3.475   0.240   4.773
 1832TIP3    H1 5502   3.550   0.297   4.789
 1832TIP3    H2 5503   3.419   0.290   4.713
 1833TIP3   OH2 5504   1.049   1.501   3.694
 1833TIP3    H1 5505   1.008   1.414   3.694
 1833TIP3    H2 5506   1.003   1.549   3.625
 1834TIP3   OH2 5507   0.901   0.420   2.136
 1834TIP3    H1 5508   0.964   0.367   2.087
 1834TIP3    H2 5509   0.854   0.356   2.190
 1835TIP3   OH2 5510   3.078   5.677   2.276
 1835TIP3    H1 5511   3.132   5.686   2.197
 1835TIP3    H2 5512   3.078   5.764   2.315
 1836TIP3   OH2 5513   3.159   3.596   1.121
 1836TIP3    H1 5514   3.244   3.586   1.080
 1836TIP3    H2 5515   3.177   3.634   1.207
 1837TIP3   OH2 5516   2.541   3.617   2.370
 1837TIP3    H1 5517   2.600   3.585   2.438
 1837TIP3    H2 5518   2.541   3.548   2.303
 1838TIP3   OH2 5519   5.517   0.085   3.178
 1838TIP3    H1 5520   5.587   0.051   3.234
 1838TIP3    H2 5521   5.537   0.178   3.167
 1839TIP3   OH2 5522   5.484   1.656   1.579
 1839TIP3    H1 5523   5.568   1.630   1.617
 1839TIP3    H2 5524   5.490   1.751   1.570
 1840TIP3   OH2 5525   0.271   4.240   0.263
 1840TIP3    H1 5526   0.365   4.238   0.251
 1840TIP3    H2 5527   0.254   4.321   0.312
 1841TIP3   OH2 5528   2.260   2.176   3.206
 1841TIP3    H1 5529   2.258   2.114   3.134
 1841TIP3    H2 5530   2.283   2.260   3.166
 1842TIP3   OH2 5531   4.359   4.919   5.114
 1842TIP3    H1 5532   4.351   4.919   5.209
 1842TIP3    H2 5533   4.381   4.828   5.092
 1843TIP3   OH2 5534   0.945   2.213   3.162
 1843TIP3    H1 5535   0.943   2.227   3.257
 1843TIP3    H2 5536   1.038   2.209   3.140
 1844TIP3   OH2 5537   2.455   3.467   0.349
 1844TIP3    H1 5538   2.540   3.511   0.353
 1844TIP3    H2 5539   2.393   3.537   0.331
 1845TIP3   OH2 5540   5.423   5.708   3.471
 1845TIP3    H1 5541   5.375   5.789   3.493
 1845TIP3    H2 5542   5.365   5.638   3.500
 1846TIP3   OH2 5543   5.926   0.924   3.398
 1846TIP3    H1 5544   5.945   0.892   3.310
 1846TIP3    H2 5545   5.831   0.933   3.401
 1847TIP3   OH2 5546   2.596   0.050   0.430
 1847TIP3    H1 5547   2.621   0.113   0.363
 1847TIP3    H2 5548   2.549   0.102   0.495
 1848TIP3   OH2 5549   1.941   3.045   1.343
 1848TIP3    H1 5550   1.932   2.976   1.277
 1848TIP3    H2 5551   1.998   3.110   1.302
 1849TIP3   OH2 5552   2.133   4.732   4.054
 1849TIP3    H1 5553   2.038   4.734   4.050
 1849TIP3    H2 5554   2.162   4.790   3.984
 1850TIP3   OH2 5555   5.943   5.235   4.368
 1850TIP3    H1 5556   5.904   5.321   4.353
 1850TIP3    H2 5557   6.026   5.238   4.320
 1851TIP3   OH2 5558   2.330   4.162   1.760
 1851TIP3    H1 5559   2.267   4.146   1.830
 1851TIP3    H2 5560   2.387   4.231   1.795
 1852TIP3   OH2 5561   4.007   1.752   3.601
 1852TIP3    H1 5562   3.933   1.693   3.585
 1852TIP3    H2 5563   4.029   1.738   3.693
 1853TIP3   OH2 5564   4.878   1.829   1.367
 1853TIP3    H1 5565   4.930   1.757   1.332
 1853TIP3    H2 5566   4.793   1.790   1.387
 1854TIP3   OH2 5567   4.207   2.793   4.120
 1854TIP3    H1 5568   4.291   2.819   4.081
 1854TIP3    H2 5569   4.230   2.724   4.183
 1855TIP3   OH2 5570   4.974   3.536   4.771
 1855TIP3    H1 5571   4.890   3.525   4.725
 1855TIP3    H2 5572   5.002   3.625   4.747
 1856TIP3   OH2 5573   0.955   4.732   0.084
 1856TIP3    H1 5574   1.045   4.726   0.117
 1856TIP3    H2 5575   0.965   4.754  -0.009
 1857TIP3   OH2 5576   0.053   5.804   4.071
 1857TIP3    H1 5577   0.089   5.729   4.118
 1857TIP3    H2 5578  -0.021   5.769   4.022
 1858TIP3   OH2 5579   3.750   4.693   2.800
 1858TIP3    H1 5580   3.705   4.639   2.865
 1858TIP3    H2 5581   3.752   4.638   2.721
 1859TIP3   OH2 5582   1.495   2.455   2.214
 1859TIP3    H1 5583   1.491   2.359   2.214
 1859TIP3    H2 5584   1.564   2.476   2.277
 1860TIP3   OH2 5585   2.597   0.527   4.752
 1860TIP3    H1 5586   2.536   0.455   4.770
 1860TIP3    H2 5587   2.603   0.530   4.657
 1861TIP3   OH2 5588   0.210   4.805   3.853
 1861TIP3    H1 5589   0.276   4.787   3.920
 1861TIP3    H2 5590   0.130   4.826   3.903
 1862TIP3   OH2 5591   5.908   4.005   1.121
 1862TIP3    H1 5592   5.883   3.921   1.159
 1862TIP3    H2 5593   5.830   4.035   1.074
 1863TIP3   OH2 5594   4.240   5.662   4.531
 1863TIP3    H1 5595   4.252   5.604   4.606
 1863TIP3    H2 5596   4.285   5.619   4.459
 1864TIP3   OH2 5597   2.031   5.733   2.291
 1864TIP3    H1 5598   1.951   5.749   2.340
 1864TIP3    H2 5599   2.007   5.749   2.200
 1865TIP3   OH2 5600   4.265   2.699   3.472
 1865TIP3    H1 5601   4.266   2.634   3.402
 1865TIP3    H2 5602   4.358   2.719   3.487
 1866TIP3   OH2 5603   0.640   3.778   1.144
 1866TIP3    H1 5604   0.568   3.736   1.191
 1866TIP3    H2 5605   0.675   3.842   1.206
 1867TIP3   OH2 5606   4.066   3.509   4.514
 1867TIP3    H1 5607   4.144   3.527   4.565
 1867TIP3    H2 5608   4.085   3.546   4.428
 1868TIP3   OH2 5609   0.796   3.606   2.641
 1868TIP3    H1 5610   0.877   3.593   2.690
 1868TIP3    H2 5611   0.762   3.690   2.671
 1869TIP3   OH2 5612   5.160   0.601   1.121
 1869TIP3    H1 5613   5.224   0.669   1.141
 1869TIP3    H2 5614   5.086   0.620   1.180
 1870TIP3   OH2 5615   0.961   1.070   1.139
 1870TIP3    H1 5616   0.905   1.145   1.159
 1870TIP3    H2 5617   1.025   1.104   1.076
 1871TIP3   OH2 5618   2.143   5.246   4.129
 1871TIP3    H1 5619   2.111   5.161   4.097
 1871TIP3    H2 5620   2.230   5.228   4.163
 1872TIP3   OH2 5621   2.248   0.180   0.219
 1872TIP3    H1 5622   2.154   0.201   0.222
 1872TIP3    H2 5623   2.253   0.090   0.249
 1873TIP3   OH2 5624   1.911   4.919   1.643
 1873TIP3    H1 5625   1.833   4.957   1.602
 1873TIP3    H2 5626   1.937   4.848   1.584
 1874TIP3   OH2 5627   0.778   1.216   4.497
 1874TIP3    H1 5628   0.700   1.264   4.525
 1874TIP3    H2 5629   0.805   1.167   4.575
 1875TIP3   OH2 5630   4.192   2.532   3.987
 1875TIP3    H1 5631   4.182   2.626   3.975
 1875TIP3    H2 5632   4.126   2.508   4.051
 1876TIP3   OH2 5633   3.040   0.287   1.504
 1876TIP3    H1 5634   3.102   0.359   1.493
 1876TIP3    H2 5635   3.074   0.237   1.577
 1877TIP3   OH2 5636   5.511   4.130   4.451
 1877TIP3    H1 5637   5.471   4.216   4.459
 1877TIP3    H2 5638   5.438   4.071   4.434
 1878TIP3   OH2 5639   1.132   3.126   0.270
 1878TIP3    H1 5640   1.226   3.108   0.270
 1878TIP3    H2 5641   1.093   3.051   0.316
 1879TIP3   OH2 5642   3.902   3.720   3.084
 1879TIP3    H1 5643   3.952   3.773   3.146
 1879TIP3    H2 5644   3.839   3.781   3.045
 1880TIP3   OH2 5645   6.071   5.700   4.560
 1880TIP3    H1 5646   6.148   5.743   4.523
 1880TIP3    H2 5647   6.001   5.764   4.551
 1881TIP3   OH2 5648   2.304   0.793   3.257
 1881TIP3    H1 5649   2.316   0.821   3.348
 1881TIP3    H2 5650   2.215   0.822   3.235
 1882TIP3   OH2 5651   6.340   2.456   2.118
 1882TIP3    H1 5652   6.405   2.490   2.056
 1882TIP3    H2 5653   6.271   2.420   2.062
 1883TIP3   OH2 5654   2.997   0.846   0.540
 1883TIP3    H1 5655   3.064   0.780   0.522
 1883TIP3    H2 5656   2.941   0.806   0.606
 1884TIP3   OH2 5657   4.074   2.442   5.096
 1884TIP3    H1 5658   4.067   2.483   5.010
 1884TIP3    H2 5659   4.153   2.479   5.134
 1885TIP3   OH2 5660   5.310   5.407   1.249
 1885TIP3    H1 5661   5.227   5.442   1.281
 1885TIP3    H2 5662   5.291   5.316   1.225
 1886TIP3   OH2 5663   5.798   5.965   2.285
 1886TIP3    H1 5664   5.744   6.030   2.240
 1886TIP3    H2 5665   5.762   5.881   2.259
 1887TIP3   OH2 5666   3.148   3.342   4.535
 1887TIP3    H1 5667   3.107   3.282   4.597
 1887TIP3    H2 5668   3.186   3.411   4.588
 1888TIP3   OH2 5669   3.076   4.941   2.435
 1888TIP3    H1 5670   3.122   4.865   2.469
 1888TIP3    H2 5671   2.990   4.938   2.478
 1889TIP3   OH2 5672   5.298   3.830   3.851
 1889TIP3    H1 5673   5.346   3.758   3.891
 1889TIP3    H2 5674   5.233   3.854   3.917
 1890TIP3   OH2 5675   0.140   2.658  -0.014
 1890TIP3    H1 5676   0.117   2.751  -0.019
 1890TIP3    H2 5677   0.117   2.632   0.075
 1891TIP3   OH2 5678   4.459   5.575   0.971
 1891TIP3    H1 5679   4.367   5.555   0.955
 1891TIP3    H2 5680   4.479   5.532   1.054
 1892TIP3   OH2 5681   5.051   3.788   1.108
 1892TIP3    H1 5682   5.134   3.818   1.146
 1892TIP3    H2 5683   5.046   3.832   1.023
 1893TIP3   OH2 5684   6.312   1.499   4.418
 1893TIP3    H1 5685   6.237   1.439   4.417
 1893TIP3    H2 5686   6.290   1.566   4.354
 1894TIP3   OH2 5687   3.818   0.384   3.576
 1894TIP3    H1 5688   3.774   0.351   3.654
 1894TIP3    H2 5689   3.829   0.308   3.520
 1895TIP3   OH2 5690   5.581   5.093   1.560
 1895TIP3    H1 5691   5.551   5.179   1.530
 1895TIP3    H2 5692   5.503   5.051   1.595
 1896TIP3   OH2 5693   4.803   2.379   4.797
 1896TIP3    H1 5694   4.730   2.416   4.746
 1896TIP3    H2 5695   4.876   2.375   4.736
 1897TIP3   OH2 5696   5.115   5.573   4.085
 1897TIP3    H1 5697   5.112   5.495   4.139
 1897TIP3    H2 5698   5.028   5.613   4.095
 1898TIP3   OH2 5699   0.190   4.954   1.866
 1898TIP3    H1 5700   0.114   4.926   1.815
 1898TIP3    H2 5701   0.259   4.893   1.839
 1899TIP3   OH2 5702   4.532   2.436   2.470
 1899TIP3    H1 5703   4.472   2.383   2.418
 1899TIP3    H2 5704   4.571   2.497   2.407
 1900TIP3   OH2 5705   3.012   0.743   4.989
 1900TIP3    H1 5706   2.982   0.826   4.951
 1900TIP3    H2 5707   2.931   0.698   5.013
 1901TIP3   OH2 5708   0.448   4.684   4.769
 1901TIP3    H1 5709   0.405   4.720   4.692
 1901TIP3    H2 5710   0.539   4.712   4.761
 1902TIP3   OH2 5711   5.331   4.938   1.650
 1902TIP3    H1 5712   5.340   4.848   1.681
 1902TIP3    H2 5713   5.261   4.933   1.585
 1903TIP3   OH2 5714   1.800   0.209   3.806
 1903TIP3    H1 5715   1.841   0.167   3.882
 1903TIP3    H2 5716   1.862   0.195   3.734
 1904TIP3   OH2 5717   2.141   0.050   0.504
 1904TIP3    H1 5718   2.048   0.073   0.500
 1904TIP3    H2 5719   2.186   0.134   0.512
 1905TIP3   OH2 5720   2.899   2.039   4.434
 1905TIP3    H1 5721   2.927   2.090   4.510
 1905TIP3    H2 5722   2.981   2.006   4.397
 1906TIP3   OH2 5723   1.100   5.430   4.286
 1906TIP3    H1 5724   1.118   5.423   4.380
 1906TIP3    H2 5725   1.053   5.513   4.277
 1907TIP3   OH2 5726   3.870   5.307   5.083
 1907TIP3    H1 5727   3.791   5.332   5.036
 1907TIP3    H2 5728   3.872   5.211   5.078
 1908TIP3   OH2 5729   1.680   1.790   4.620
 1908TIP3    H1 5730   1.654   1.711   4.668
 1908TIP3    H2 5731   1.775   1.795   4.631
 1909TIP3   OH2 5732   2.773   3.452   3.281
 1909TIP3    H1 5733   2.781   3.422   3.372
 1909TIP3    H2 5734   2.856   3.497   3.264
 1910TIP3   OH2 5735   4.331   5.798   4.041
 1910TIP3    H1 5736   4.331   5.704   4.063
 1910TIP3    H2 5737   4.301   5.802   3.951
 1911TIP3   OH2 5738   5.207   4.086   0.085
 1911TIP3    H1 5739   5.157   4.083   0.003
 1911TIP3    H2 5740   5.146   4.122   0.149
 1912TIP3   OH2 5741   5.972   0.077   3.469
 1912TIP3    H1 5742   5.984   0.168   3.496
 1912TIP3    H2 5743   5.970   0.028   3.552
 1913TIP3   OH2 5744   4.957   1.997   1.572
 1913TIP3    H1 5745   4.940   1.925   1.511
 1913TIP3    H2 5746   4.895   1.982   1.644
 1914TIP3   OH2 5747   2.767   5.934   5.016
 1914TIP3    H1 5748   2.818   5.991   4.958
 1914TIP3    H2 5749   2.759   5.852   4.968
 1915TIP3   OH2 5750   1.497   0.013   1.302
 1915TIP3    H1 5751   1.402   0.024   1.301
 1915TIP3    H2 5752   1.518  -0.009   1.392
 1916TIP3   OH2 5753   0.887   4.421   2.523
 1916TIP3    H1 5754   0.874   4.431   2.429
 1916TIP3    H2 5755   0.971   4.465   2.540
 1917TIP3   OH2 5756   1.541   4.146   0.303
 1917TIP3    H1 5757   1.484   4.089   0.252
 1917TIP3    H2 5758   1.556   4.097   0.384
 1918TIP3   OH2 5759   1.389   0.193   2.174
 1918TIP3    H1 5760   1.387   0.287   2.189
 1918TIP3    H2 5761   1.297   0.167   2.170
 1919TIP3   OH2 5762   0.991   0.193   0.530
 1919TIP3    H1 5763   0.957   0.134   0.462
 1919TIP3    H2 5764   1.064   0.238   0.488
 1920TIP3   OH2 5765   0.211   2.640   1.402
 1920TIP3    H1 5766   0.141   2.654   1.467
 1920TIP3    H2 5767   0.292   2.656   1.450
 1921TIP3   OH2 5768   2.213   1.225   1.969
 1921TIP3    H1 5769   2.131   1.178   1.956
 1921TIP3    H2 5770   2.210   1.255   2.060
 1922TIP3   OH2 5771   4.857   0.329   5.083
 1922TIP3    H1 5772   4.764   0.351   5.086
 1922TIP3    H2 5773   4.863   0.240   5.118
 1923TIP3   OH2 5774   5.543   4.773   0.653
 1923TIP3    H1 5775   5.599   4.767   0.575
 1923TIP3    H2 5776   5.489   4.850   0.637
 1924TIP3   OH2 5777   6.086   5.183   1.758
 1924TIP3    H1 5778   5.997   5.161   1.785
 1924TIP3    H2 5779   6.083   5.182   1.662
 1925TIP3   OH2 5780   3.482   4.653   4.430
 1925TIP3    H1 5781   3.428   4.732   4.436
 1925TIP3    H2 5782   3.439   4.601   4.362
 1926TIP3   OH2 5783   5.299   2.403   1.704
 1926TIP3    H1 5784   5.296   2.324   1.758
 1926TIP3    H2 5785   5.328   2.472   1.764
 1927TIP3   OH2 5786   3.185   2.005   4.993
 1927TIP3    H1 5787   3.105   1.972   4.952
 1927TIP3    H2 5788   3.204   2.086   4.945
 1928TIP3   OH2 5789   0.673   1.818   3.690
 1928TIP3    H1 5790   0.646   1.903   3.723
 1928TIP3    H2 5791   0.647   1.818   3.598
 1929TIP3   OH2 5792   1.567   5.744   5.107
 1929TIP3    H1 5793   1.546   5.655   5.078
 1929TIP3    H2 5794   1.572   5.737   5.202
 1930TIP3   OH2 5795   2.086   4.190   2.350
 1930TIP3    H1 5796   2.155   4.254   2.335
 1930TIP3    H2 5797   2.032   4.194   2.271
 1931TIP3   OH2 5798   0.874   5.808   2.060
 1931TIP3    H1 5799   0.910   5.846   2.140
 1931TIP3    H2 5800   0.786   5.844   2.054
 1932TIP3   OH2 5801   5.275   3.118   1.098
 1932TIP3    H1 5802   5.365   3.093   1.075
 1932TIP3    H2 5803   5.282   3.153   1.187
 1933TIP3   OH2 5804   5.157   3.652   2.610
 1933TIP3    H1 5805   5.243   3.636   2.649
 1933TIP3    H2 5806   5.104   3.577   2.638
 1934TIP3   OH2 5807   5.498   1.699   4.318
 1934TIP3    H1 5808   5.550   1.677   4.396
 1934TIP3    H2 5809   5.428   1.634   4.317
 1935TIP3   OH2 5810   5.436   1.801   0.108
 1935TIP3    H1 5811   5.452   1.707   0.120
 1935TIP3    H2 5812   5.422   1.810   0.014
 1936TIP3   OH2 5813   1.211   1.184   0.185
 1936TIP3    H1 5814   1.264   1.202   0.263
 1936TIP3    H2 5815   1.274   1.176   0.114
 1937TIP3   OH2 5816   5.564   0.558   4.301
 1937TIP3    H1 5817   5.653   0.593   4.304
 1937TIP3    H2 5818   5.533   0.561   4.391
 1938TIP3   OH2 5819   3.538   5.021   0.102
 1938TIP3    H1 5820   3.482   4.964   0.155
 1938TIP3    H2 5821   3.497   5.107   0.109
 1939TIP3   OH2 5822   3.836   4.303   0.851
 1939TIP3    H1 5823   3.884   4.277   0.773
 1939TIP3    H2 5824   3.848   4.398   0.857
 1940TIP3   OH2 5825   5.493   4.126   3.498
 1940TIP3    H1 5826   5.436   4.061   3.540
 1940TIP3    H2 5827   5.549   4.158   3.568
 1941TIP3   OH2 5828   2.680   3.281   4.839
 1941TIP3    H1 5829   2.615   3.249   4.901
 1941TIP3    H2 5830   2.649   3.251   4.753
 1942TIP3   OH2 5831   5.364   4.168   1.615
 1942TIP3    H1 5832   5.406   4.253   1.600
 1942TIP3    H2 5833   5.299   4.161   1.545
 1943TIP3   OH2 5834   5.991   3.204   2.223
 1943TIP3    H1 5835   5.975   3.297   2.242
 1943TIP3    H2 5836   6.068   3.182   2.276
 1944TIP3   OH2 5837   5.446   0.307   3.809
 1944TIP3    H1 5838   5.518   0.362   3.839
 1944TIP3    H2 5839   5.438   0.325   3.716
 1945TIP3   OH2 5840   3.627   5.449   2.060
 1945TIP3    H1 5841   3.628   5.500   1.979
 1945TIP3    H2 5842   3.673   5.368   2.037
 1946TIP3   OH2 5843   2.096   0.340   1.805
 1946TIP3    H1 5844   2.130   0.317   1.892
 1946TIP3    H2 5845   2.162   0.399   1.769
 1947TIP3   OH2 5846   4.014   5.862   3.942
 1947TIP3    H1 5847   4.066   5.850   3.863
 1947TIP3    H2 5848   4.058   5.932   3.989
 1948TIP3   OH2 5849   3.214   1.103   3.133
 1948TIP3    H1 5850   3.254   1.026   3.174
 1948TIP3    H2 5851   3.251   1.177   3.182
 1949TIP3   OH2 5852   4.651   1.383   4.793
 1949TIP3    H1 5853   4.600   1.433   4.858
 1949TIP3    H2 5854   4.606   1.400   4.710
 1950TIP3   OH2 5855   1.499   0.499   5.176
 1950TIP3    H1 5856   1.468   0.433   5.238
 1950TIP3    H2 5857   1.507   0.451   5.093
 1951TIP3   OH2 5858   4.857   5.758   0.643
 1951TIP3    H1 5859   4.808   5.677   0.657
 1951TIP3    H2 5860   4.877   5.759   0.550
 1952TIP3   OH2 5861   3.785   0.392   1.173
 1952TIP3    H1 5862   3.739   0.309   1.163
 1952TIP3    H2 5863   3.717   0.459   1.165
 1953TIP3   OH2 5864   0.922   0.751   0.114
 1953TIP3    H1 5865   0.866   0.775   0.040
 1953TIP3    H2 5866   0.960   0.834   0.144
 1954TIP3   OH2 5867   5.980   1.890   4.034
 1954TIP3    H1 5868   6.040   1.928   4.098
 1954TIP3    H2 5869   5.946   1.965   3.985
 1955TIP3   OH2 5870   4.556   0.931   3.183
 1955TIP3    H1 5871   4.616   0.990   3.137
 1955TIP3    H2 5872   4.613   0.873   3.234
 1956TIP3   OH2 5873   5.770   0.519   1.336
 1956TIP3    H1 5874   5.777   0.530   1.241
 1956TIP3    H2 5875   5.851   0.556   1.370
 1957TIP3   OH2 5876   2.898   5.209   0.880
 1957TIP3    H1 5877   2.914   5.237   0.971
 1957TIP3    H2 5878   2.820   5.258   0.853
 1958TIP3   OH2 5879   1.888   0.369   3.533
 1958TIP3    H1 5880   1.799   0.402   3.515
 1958TIP3    H2 5881   1.944   0.446   3.520
 1959TIP3   OH2 5882   4.020   3.731   0.333
 1959TIP3    H1 5883   4.004   3.655   0.277
 1959TIP3    H2 5884   3.934   3.772   0.343
 1960TIP3   OH2 5885   2.778   4.293   2.165
 1960TIP3    H1 5886   2.853   4.252   2.121
 1960TIP3    H2 5887   2.740   4.223   2.218
 1961TIP3   OH2 5888   2.907   5.329   5.013
 1961TIP3    H1 5889   2.964   5.364   5.081
 1961TIP3    H2 5890   2.922   5.235   5.015
 1962TIP3   OH2 5891   2.772   4.127   4.232
 1962TIP3    H1 5892   2.739   4.214   4.254
 1962TIP3    H2 5893   2.725   4.068   4.290
 1963TIP3   OH2 5894   1.028   0.614   2.313
 1963TIP3    H1 5895   1.104   0.672   2.304
 1963TIP3    H2 5896   1.055   0.550   2.379
 1964TIP3   OH2 5897   5.090   1.509   4.862
 1964TIP3    H1 5898   5.052   1.583   4.814
 1964TIP3    H2 5899   5.184   1.529   4.865
 1965TIP3   OH2 5900   4.181   4.718   0.310
 1965TIP3    H1 5901   4.260   4.770   0.308
 1965TIP3    H2 5902   4.111   4.780   0.332
 1966TIP3   OH2 5903   5.150   3.123   3.058
 1966TIP3    H1 5904   5.178   3.214   3.068
 1966TIP3    H2 5905   5.058   3.124   3.083
 1967TIP3   OH2 5906   2.398   5.791   1.960
 1967TIP3    H1 5907   2.402   5.766   2.052
 1967TIP3    H2 5908   2.380   5.709   1.914
 1968TIP3   OH2 5909   3.499   2.745   4.025
 1968TIP3    H1 5910   3.576   2.782   4.069
 1968TIP3    H2 5911   3.464   2.681   4.087
 1969TIP3   OH2 5912   1.317   3.114   2.636
 1969TIP3    H1 5913   1.255   3.098   2.707
 1969TIP3    H2 5914   1.403   3.097   2.676
 1970TIP3   OH2 5915   0.329   4.687   4.378
 1970TIP3    H1 5916   0.383   4.669   4.300
 1970TIP3    H2 5917   0.309   4.601   4.414
 1971TIP3   OH2 5918   3.630   3.422   2.354
 1971TIP3    H1 5919   3.643   3.493   2.292
 1971TIP3    H2 5920   3.718   3.385   2.368
 1972TIP3   OH2 5921   4.229   0.287   2.022
 1972TIP3    H1 5922   4.185   0.227   1.962
 1972TIP3    H2 5923   4.226   0.372   1.978
 1973TIP3   OH2 5924   3.970   5.141   1.604
 1973TIP3    H1 5925   4.036   5.165   1.669
 1973TIP3    H2 5926   3.982   5.047   1.591
 1974TIP3   OH2 5927   2.602   0.503   1.438
 1974TIP3    H1 5928   2.554   0.435   1.484
 1974TIP3    H2 5929   2.607   0.473   1.348
 1975TIP3   OH2 5930   4.432   0.910   0.162
 1975TIP3    H1 5931   4.385   0.829   0.180
 1975TIP3    H2 5932   4.461   0.901   0.071
 1976TIP3   OH2 5933   0.517   3.161   5.112
 1976TIP3    H1 5934   0.600   3.201   5.086
 1976TIP3    H2 5935   0.534   3.125   5.198
 1977TIP3   OH2 5936   0.102   1.284   5.147
 1977TIP3    H1 5937   0.182   1.260   5.193
 1977TIP3    H2 5938   0.132   1.338   5.074
 1978TIP3   OH2 5939   0.513   3.627   0.200
 1978TIP3    H1 5940   0.510   3.722   0.214
 1978TIP3    H2 5941   0.566   3.594   0.273
 1979TIP3   OH2 5942   2.627   3.641   3.087
 1979TIP3    H1 5943   2.676   3.570   3.130
 1979TIP3    H2 5944   2.679   3.719   3.104
 1980TIP3   OH2 5945   3.612   5.785   3.687
 1980TIP3    H1 5946   3.693   5.830   3.667
 1980TIP3    H2 5947   3.613   5.776   3.783
 1981TIP3   OH2 5948   6.331   1.184   3.616
 1981TIP3    H1 5949   6.268   1.144   3.557
 1981TIP3    H2 5950   6.410   1.132   3.607
 1982TIP3   OH2 5951   3.012   3.875   1.483
 1982TIP3    H1 5952   3.064   3.795   1.488
 1982TIP3    H2 5953   2.987   3.882   1.391
 1983TIP3   OH2 5954   0.445   2.260   4.304
 1983TIP3    H1 5955   0.512   2.193   4.294
 1983TIP3    H2 5956   0.450   2.287   4.396
 1984TIP3   OH2 5957   4.887   5.607   2.097
 1984TIP3    H1 5958   4.797   5.620   2.065
 1984TIP3    H2 5959   4.909   5.518   2.069
 1985TIP3   OH2 5960   2.545   3.826   2.186
 1985TIP3    H1 5961   2.465   3.808   2.138
 1985TIP3    H2 5962   2.546   3.761   2.257
 1986TIP3   OH2 5963   1.037   3.919   4.928
 1986TIP3    H1 5964   1.047   3.997   4.874
 1986TIP3    H2 5965   1.078   3.943   5.012
 1987TIP3   OH2 5966   1.410   0.886   3.016
 1987TIP3    H1 5967   1.346   0.925   2.956
 1987TIP3    H2 5968   1.439   0.807   2.971
 1988TIP3   OH2 5969   0.433   4.191   2.098
 1988TIP3    H1 5970   0.481   4.197   2.016
 1988TIP3    H2 5971   0.345   4.224   2.078
 1989TIP3   OH2 5972   1.257   2.768   4.272
 1989TIP3    H1 5973   1.280   2.813   4.354
 1989TIP3    H2 5974   1.316   2.806   4.207
 1990TIP3   OH2 5975   4.342   5.453   3.720
 1990TIP3    H1 5976   4.249   5.432   3.723
 1990TIP3    H2 5977   4.373   5.438   3.809
 1991TIP3   OH2 5978   2.171   0.625   3.859
 1991TIP3    H1 5979   2.122   0.707   3.857
 1991TIP3    H2 5980   2.263   0.651   3.852
 1992TIP3   OH2 5981   3.316   3.081   3.734
 1992TIP3    H1 5982   3.284   3.169   3.715
 1992TIP3    H2 5983   3.382   3.093   3.803
 1993TIP3   OH2 5984   5.740   0.840   1.822
 1993TIP3    H1 5985   5.770   0.929   1.840
 1993TIP3    H2 5986   5.647   0.849   1.803
 1994TIP3   OH2 5987   3.896   2.997   2.805
 1994TIP3    H1 5988   3.849   3.029   2.882
 1994TIP3    H2 5989   3.975   2.956   2.841
 1995TIP3   OH2 5990   2.844   4.399   4.738
 1995TIP3    H1 5991   2.763   4.450   4.740
 1995TIP3    H2 5992   2.891   4.434   4.662
 1996TIP3   OH2 5993   0.878   4.127   3.128
 1996TIP3    H1 5994   0.928   4.201   3.093
 1996TIP3    H2 5995   0.920   4.050   3.090
 1997TIP3   OH2 5996   4.030   0.739   4.956
 1997TIP3    H1 5997   4.067   0.743   5.044
 1997TIP3    H2 5998   4.051   0.824   4.917
 1998TIP3   OH2 5999   1.419   5.692   0.503
 1998TIP3    H1 6000   1.382   5.778   0.483
 1998TIP3    H2 6001   1.485   5.709   0.570
 1999TIP3   OH2 6002   3.292   1.925   0.868
 1999TIP3    H1 6003   3.277   2.014   0.901
 1999TIP3    H2 6004   3.290   1.934   0.773
 2000TIP3   OH2 6005   5.857   1.996   4.468
 2000TIP3    H1 6006   5.895   2.050   4.398
 2000TIP3    H2 6007   5.777   1.960   4.428
 2001TIP3   OH2 6008   5.401   3.559   2.697
 2001TIP3    H1 6009   5.407   3.541   2.791
 2001TIP3    H2 6010   5.410   3.473   2.656
 2002TIP3   OH2 6011   4.850   0.019   2.333
 2002TIP3    H1 6012   4.764  -0.023   2.338
 2002TIP3    H2 6013   4.866   0.029   2.239
 2003TIP3   OH2 6014   3.785   4.771   3.298
 2003TIP3    H1 6015   3.828   4.819   3.227
 2003TIP3    H2 6016   3.692   4.778   3.277
 2004TIP3   OH2 6017   5.592   3.466   5.094
 2004TIP3    H1 6018   5.542   3.391   5.063
 2004TIP3    H2 6019   5.651   3.488   5.021
 2005TIP3   OH2 6020   1.353   2.916   2.459
 2005TIP3    H1 6021   1.444   2.944   2.453
 2005TIP3    H2 6022   1.312   2.981   2.516
 2006TIP3   OH2 6023   3.918   5.159   0.970
 2006TIP3    H1 6024   3.972   5.146   1.049
 2006TIP3    H2 6025   3.926   5.252   0.950
 2007TIP3   OH2 6026   0.645   0.680   4.524
 2007TIP3    H1 6027   0.621   0.769   4.496
 2007TIP3    H2 6028   0.674   0.691   4.615
 2008TIP3   OH2 6029   5.209   1.233   0.322
 2008TIP3    H1 6030   5.177   1.174   0.391
 2008TIP3    H2 6031   5.215   1.318   0.365
 2009TIP3   OH2 6032   2.298   1.550   0.317
 2009TIP3    H1 6033   2.275   1.557   0.409
 2009TIP3    H2 6034   2.317   1.457   0.303
 2010TIP3   OH2 6035   4.471   3.178   4.763
 2010TIP3    H1 6036   4.509   3.246   4.707
 2010TIP3    H2 6037   4.378   3.177   4.739
 2011TIP3   OH2 6038   0.376   0.761   4.103
 2011TIP3    H1 6039   0.450   0.721   4.149
 2011TIP3    H2 6040   0.335   0.689   4.055
 2012TIP3   OH2 6041   2.489   5.389   4.371
 2012TIP3    H1 6042   2.558   5.435   4.419
 2012TIP3    H2 6043   2.409   5.407   4.422
 2013TIP3   OH2 6044   3.803   4.909   1.624
 2013TIP3    H1 6045   3.767   4.951   1.545
 2013TIP3    H2 6046   3.779   4.968   1.695
 2014TIP3   OH2 6047   4.587   1.984   1.961
 2014TIP3    H1 6048   4.535   2.011   1.885
 2014TIP3    H2 6049   4.647   2.056   1.976
 2015TIP3   OH2 6050   3.389   4.925   1.406
 2015TIP3    H1 6051   3.318   4.880   1.359
 2015TIP3    H2 6052   3.429   4.982   1.341
 2016TIP3   OH2 6053   5.106   1.838   4.387
 2016TIP3    H1 6054   5.020   1.878   4.390
 2016TIP3    H2 6055   5.099   1.769   4.322
 2017TIP3   OH2 6056   0.794   5.315   3.034
 2017TIP3    H1 6057   0.743   5.373   3.091
 2017TIP3    H2 6058   0.798   5.360   2.950
 2018TIP3   OH2 6059   6.167   5.961   0.073
 2018TIP3    H1 6060   6.110   5.907   0.128
 2018TIP3    H2 6061   6.246   5.908   0.062
 2019TIP3   OH2 6062   0.851   1.424   0.572
 2019TIP3    H1 6063   0.761   1.392   0.566
 2019TIP3    H2 6064   0.841   1.518   0.590
 2020TIP3   OH2 6065   2.773   0.871   1.457
 2020TIP3    H1 6066   2.708   0.931   1.493
 2020TIP3    H2 6067   2.757   0.872   1.363
 2021TIP3   OH2 6068   1.690   5.666   4.439
 2021TIP3    H1 6069   1.614   5.722   4.451
 2021TIP3    H2 6070   1.760   5.725   4.414
 2022TIP3   OH2 6071   0.909   3.037   4.565
 2022TIP3    H1 6072   0.994   3.015   4.602
 2022TIP3    H2 6073   0.850   2.969   4.598
 2023TIP3   OH2 6074   0.999   2.727   4.825
 2023TIP3    H1 6075   0.938   2.798   4.840
 2023TIP3    H2 6076   0.957   2.672   4.760
 2024TIP3   OH2 6077   6.197   2.527   4.747
 2024TIP3    H1 6078   6.136   2.515   4.821
 2024TIP3    H2 6079   6.283   2.532   4.788
 2025TIP3   OH2 6080   2.647   4.811   1.437
 2025TIP3    H1 6081   2.656   4.782   1.347
 2025TIP3    H2 6082   2.717   4.876   1.449
 2026TIP3   OH2 6083   0.217   2.541   4.358
 2026TIP3    H1 6084   0.279   2.597   4.405
 2026TIP3    H2 6085   0.190   2.476   4.423
 2027TIP3   OH2 6086   3.919   0.621   1.998
 2027TIP3    H1 6087   3.959   0.701   2.033
 2027TIP3    H2 6088   3.927   0.557   2.069
 2028TIP3   OH2 6089   4.115   1.810   0.287
 2028TIP3    H1 6090   4.041   1.838   0.341
 2028TIP3    H2 6091   4.190   1.859   0.321
 2029TIP3   OH2 6092   2.683   2.448   0.306
 2029TIP3    H1 6093   2.685   2.542   0.325
 2029TIP3    H2 6094   2.649   2.408   0.386
 2030TIP3   OH2 6095   3.691   3.542   1.045
 2030TIP3    H1 6096   3.733   3.601   0.982
 2030TIP3    H2 6097   3.597   3.555   1.032
 2031TIP3   OH2 6098   5.806   4.218   4.001
 2031TIP3    H1 6099   5.825   4.151   4.066
 2031TIP3    H2 6100   5.714   4.240   4.014
 2032TIP3   OH2 6101   1.776   4.857   2.438
 2032TIP3    H1 6102   1.750   4.855   2.346
 2032TIP3    H2 6103   1.799   4.948   2.454
 2033TIP3   OH2 6104   2.842   1.380   0.380
 2033TIP3    H1 6105   2.890   1.422   0.308
 2033TIP3    H2 6106   2.888   1.409   0.459
 2034TIP3   OH2 6107   0.956   5.246   4.129
 2034TIP3    H1 6108   0.990   5.310   4.191
 2034TIP3    H2 6109   0.980   5.280   4.043
 2035TIP3   OH2 6110   3.135   0.204   2.031
 2035TIP3    H1 6111   3.051   0.226   2.070
 2035TIP3    H2 6112   3.199   0.223   2.100
 2036TIP3   OH2 6113   2.079   2.064   0.611
 2036TIP3    H1 6114   2.013   2.046   0.678
 2036TIP3    H2 6115   2.044   2.138   0.562
 2037TIP3   OH2 6116   3.648   4.318   2.035
 2037TIP3    H1 6117   3.630   4.246   1.975
 2037TIP3    H2 6118   3.733   4.353   2.006
 2038TIP3   OH2 6119   5.957   2.102   3.558
 2038TIP3    H1 6120   5.993   2.033   3.503
 2038TIP3    H2 6121   6.033   2.153   3.586
 2039TIP3   OH2 6122   0.688   0.919   2.293
 2039TIP3    H1 6123   0.675   0.849   2.356
 2039TIP3    H2 6124   0.599   0.944   2.266
 2040TIP3   OH2 6125   5.417   1.545   4.773
 2040TIP3    H1 6126   5.366   1.624   4.756
 2040TIP3    H2 6127   5.504   1.565   4.738
 2041TIP3   OH2 6128   4.111   3.086   2.987
 2041TIP3    H1 6129   4.176   3.030   3.028
 2041TIP3    H2 6130   4.093   3.153   3.053
 2042TIP3   OH2 6131   6.253   2.345   0.378
 2042TIP3    H1 6132   6.185   2.407   0.403
 2042TIP3    H2 6133   6.231   2.264   0.424
 2043TIP3   OH2 6134   4.544   3.298   0.828
 2043TIP3    H1 6135   4.475   3.252   0.780
 2043TIP3    H2 6136   4.534   3.268   0.918
 2044TIP3   OH2 6137   4.623   2.495   1.835
 2044TIP3    H1 6138   4.600   2.583   1.864
 2044TIP3    H2 6139   4.568   2.437   1.889
 2045TIP3   OH2 6140   2.639   4.474   3.675
 2045TIP3    H1 6141   2.546   4.495   3.662
 2045TIP3    H2 6142   2.658   4.409   3.607
 2046TIP3   OH2 6143   3.677   2.560   1.022
 2046TIP3    H1 6144   3.707   2.559   1.113
 2046TIP3    H2 6145   3.582   2.558   1.027
 2047TIP3   OH2 6146   0.867   0.695   1.024
 2047TIP3    H1 6147   0.946   0.691   1.078
 2047TIP3    H2 6148   0.820   0.614   1.044
 2048TIP3   OH2 6149   5.311   3.634   0.584
 2048TIP3    H1 6150   5.363   3.632   0.664
 2048TIP3    H2 6151   5.309   3.727   0.559
 2049TIP3   OH2 6152   2.222   0.664   2.055
 2049TIP3    H1 6153   2.309   0.632   2.080
 2049TIP3    H2 6154   2.222   0.665   1.960
 2050TIP3   OH2 6155   4.697   2.543   1.573
 2050TIP3    H1 6156   4.623   2.542   1.512
 2050TIP3    H2 6157   4.657   2.540   1.659
 2051TIP3   OH2 6158   5.636   4.144   3.274
 2051TIP3    H1 6159   5.601   4.122   3.360
 2051TIP3    H2 6160   5.691   4.069   3.251
 2052TIP3   OH2 6161   1.554   2.350   3.700
 2052TIP3    H1 6162   1.521   2.290   3.767
 2052TIP3    H2 6163   1.485   2.416   3.690
 2053TIP3   OH2 6164   1.865   4.170   1.493
 2053TIP3    H1 6165   1.947   4.134   1.526
 2053TIP3    H2 6166   1.886   4.201   1.405
 2054TIP3   OH2 6167   6.264   0.348   1.530
 2054TIP3    H1 6168   6.173   0.349   1.502
 2054TIP3    H2 6169   6.303   0.423   1.485
 2055TIP3   OH2 6170   4.380   1.715   1.748
 2055TIP3    H1 6171   4.383   1.798   1.700
 2055TIP3    H2 6172   4.354   1.650   1.683
 2056TIP3   OH2 6173   5.931   5.891   3.959
 2056TIP3    H1 6174   6.004   5.948   3.932
 2056TIP3    H2 6175   5.941   5.883   4.053
 2057TIP3   OH2 6176   1.364   5.536   5.108
 2057TIP3    H1 6177   1.290   5.475   5.106
 2057TIP3    H2 6178   1.439   5.483   5.081
 2058TIP3   OH2 6179   4.648   2.245   5.040
 2058TIP3    H1 6180   4.723   2.270   4.985
 2058TIP3    H2 6181   4.594   2.324   5.044
 2059TIP3   OH2 6182   0.914   3.112   1.725
 2059TIP3    H1 6183   0.826   3.131   1.691
 2059TIP3    H2 6184   0.972   3.159   1.666
 2060TIP3   OH2 6185   3.715   2.963   3.630
 2060TIP3    H1 6186   3.665   2.908   3.570
 2060TIP3    H2 6187   3.753   3.031   3.574
 2061TIP3   OH2 6188   2.505   2.592   3.492
 2061TIP3    H1 6189   2.566   2.565   3.560
 2061TIP3    H2 6190   2.502   2.517   3.432
 2062TIP3   OH2 6191   4.183   0.966   2.552
 2062TIP3    H1 6192   4.095   0.992   2.524
 2062TIP3    H2 6193   4.234   1.048   2.550
 2063TIP3   OH2 6194   1.931   2.966   3.836
 2063TIP3    H1 6195   1.926   2.942   3.744
 2063TIP3    H2 6196   2.000   2.909   3.871
 2064TIP3   OH2 6197   2.589   5.792   4.322
 2064TIP3    H1 6198   2.509   5.843   4.334
 2064TIP3    H2 6199   2.633   5.797   4.407
 2065TIP3   OH2 6200   3.681   1.303   1.193
 2065TIP3    H1 6201   3.709   1.384   1.235
 2065TIP3    H2 6202   3.629   1.332   1.118
 2066TIP3   OH2 6203   5.454   5.887   4.832
 2066TIP3    H1 6204   5.487   5.958   4.777
 2066TIP3    H2 6205   5.530   5.857   4.882
 2067TIP3   OH2 6206   4.327   1.519   3.876
 2067TIP3    H1 6207   4.397   1.516   3.941
 2067TIP3    H2 6208   4.347   1.448   3.815
 2068TIP3   OH2 6209   5.201   4.116   1.825
 2068TIP3    H1 6210   5.269   4.144   1.764
 2068TIP3    H2 6211   5.161   4.040   1.782
 2069TIP3   OH2 6212   5.098   0.915   4.702
 2069TIP3    H1 6213   5.014   0.962   4.707
 2069TIP3    H2 6214   5.099   0.878   4.614
 2070TIP3   OH2 6215   6.029   4.604   1.210
 2070TIP3    H1 6216   5.949   4.553   1.225
 2070TIP3    H2 6217   6.023   4.630   1.118
 2071TIP3   OH2 6218   5.931   2.768   4.327
 2071TIP3    H1 6219   6.002   2.733   4.380
 2071TIP3    H2 6220   5.894   2.691   4.283
 2072TIP3   OH2 6221   4.054   0.322   3.264
 2072TIP3    H1 6222   4.134   0.334   3.315
 2072TIP3    H2 6223   4.049   0.401   3.209
 2073TIP3   OH2 6224   2.391   2.617   1.454
 2073TIP3    H1 6225   2.321   2.634   1.392
 2073TIP3    H2 6226   2.466   2.665   1.420
 2074TIP3   OH2 6227   3.450   1.186   0.361
 2074TIP3    H1 6228   3.491   1.154   0.442
 2074TIP3    H2 6229   3.356   1.171   0.374
 2075TIP3   OH2 6230   2.827   3.999   3.410
 2075TIP3    H1 6231   2.915   3.966   3.389
 2075TIP3    H2 6232   2.796   3.940   3.479
 2076TIP3   OH2 6233   3.245   0.087   0.900
 2076TIP3    H1 6234   3.219   0.007   0.945
 2076TIP3    H2 6235   3.175   0.149   0.919
 2077TIP3   OH2 6236   0.778   3.085   0.918
 2077TIP3    H1 6237   0.844   3.150   0.894
 2077TIP3    H2 6238   0.706   3.099   0.857
 2078TIP3   OH2 6239   2.132   5.122   3.686
 2078TIP3    H1 6240   2.049   5.169   3.691
 2078TIP3    H2 6241   2.199   5.191   3.685
 2079TIP3   OH2 6242   1.634   0.735   0.415
 2079TIP3    H1 6243   1.624   0.783   0.498
 2079TIP3    H2 6244   1.642   0.804   0.349
 2080TIP3   OH2 6245   1.785   2.075   1.693
 2080TIP3    H1 6246   1.844   2.151   1.693
 2080TIP3    H2 6247   1.739   2.079   1.610
 2081TIP3   OH2 6248   4.732   5.365   4.235
 2081TIP3    H1 6249   4.664   5.298   4.225
 2081TIP3    H2 6250   4.724   5.394   4.326
 2082TIP3   OH2 6251   5.785   2.523   4.280
 2082TIP3    H1 6252   5.766   2.449   4.222
 2082TIP3    H2 6253   5.862   2.495   4.329
 2083TIP3   OH2 6254   1.909   5.258   3.768
 2083TIP3    H1 6255   1.853   5.228   3.839
 2083TIP3    H2 6256   1.954   5.335   3.804
 2084TIP3   OH2 6257   4.550   4.332   5.195
 2084TIP3    H1 6258   4.631   4.349   5.243
 2084TIP3    H2 6259   4.562   4.375   5.111
 2085TIP3   OH2 6260   4.453   0.500   1.420
 2085TIP3    H1 6261   4.419   0.458   1.499
 2085TIP3    H2 6262   4.457   0.430   1.355
 2086TIP3   OH2 6263   2.371   1.644   3.241
 2086TIP3    H1 6264   2.438   1.653   3.308
 2086TIP3    H2 6265   2.373   1.728   3.194
 2087TIP3   OH2 6266   4.197   3.888   1.669
 2087TIP3    H1 6267   4.173   3.907   1.578
 2087TIP3    H2 6268   4.288   3.859   1.663
 2088TIP3   OH2 6269   4.777   0.459   0.112
 2088TIP3    H1 6270   4.712   0.388   0.112
 2088TIP3    H2 6271   4.734   0.531   0.067
 2089TIP3   OH2 6272   1.655   5.973   0.613
 2089TIP3    H1 6273   1.747   5.952   0.622
 2089TIP3    H2 6274   1.609   5.904   0.660
 2090TIP3   OH2 6275   0.032   4.283   3.449
 2090TIP3    H1 6276   0.015   4.253   3.538
 2090TIP3    H2 6277   0.082   4.213   3.408
 2091TIP3   OH2 6278   2.682   3.511   2.764
 2091TIP3    H1 6279   2.713   3.593   2.801
 2091TIP3    H2 6280   2.590   3.506   2.789
 2092TIP3   OH2 6281   3.156   0.586   3.286
 2092TIP3    H1 6282   3.205   0.640   3.348
 2092TIP3    H2 6283   3.223   0.534   3.242
 2093TIP3   OH2 6284   1.806   5.626   0.779
 2093TIP3    H1 6285   1.726   5.627   0.832
 2093TIP3    H2 6286   1.777   5.645   0.690
 2094TIP3   OH2 6287   3.486   0.060   3.954
 2094TIP3    H1 6288   3.500  -0.034   3.964
 2094TIP3    H2 6289   3.567   0.100   3.987
 2095TIP3   OH2 6290   5.094   0.356   4.924
 2095TIP3    H1 6291   5.024   0.372   4.987
 2095TIP3    H2 6292   5.136   0.441   4.913
 2096TIP3   OH2 6293   0.951   5.073   1.766
 2096TIP3    H1 6294   0.993   5.019   1.832
 2096TIP3    H2 6295   0.986   5.161   1.782
 2097TIP3   OH2 6296   3.637   0.822   1.831
 2097TIP3    H1 6297   3.667   0.803   1.742
 2097TIP3    H2 6298   3.586   0.745   1.857
 2098TIP3   OH2 6299   4.884   1.324   4.484
 2098TIP3    H1 6300   4.816   1.379   4.522
 2098TIP3    H2 6301   4.963   1.347   4.533
 2099TIP3   OH2 6302   1.546   4.771   3.483
 2099TIP3    H1 6303   1.532   4.825   3.561
 2099TIP3    H2 6304   1.474   4.709   3.483
 2100TIP3   OH2 6305   3.004   3.405   3.481
 2100TIP3    H1 6306   2.972   3.350   3.553
 2100TIP3    H2 6307   2.985   3.495   3.510
 2101TIP3   OH2 6308   5.073   4.873   4.560
 2101TIP3    H1 6309   4.983   4.865   4.528
 2101TIP3    H2 6310   5.063   4.892   4.654
 2102TIP3   OH2 6311   0.157   5.675   1.094
 2102TIP3    H1 6312   0.227   5.681   1.029
 2102TIP3    H2 6313   0.196   5.711   1.174
 2103TIP3   OH2 6314   4.397   4.675   4.943
 2103TIP3    H1 6315   4.400   4.602   4.881
 2103TIP3    H2 6316   4.487   4.706   4.949
 2104TIP3   OH2 6317   3.756   3.604   4.097
 2104TIP3    H1 6318   3.841   3.640   4.121
 2104TIP3    H2 6319   3.694   3.676   4.111
 2105TIP3   OH2 6320   4.553   1.815   1.429
 2105TIP3    H1 6321   4.503   1.870   1.370
 2105TIP3    H2 6322   4.500   1.810   1.508
 2106TIP3   OH2 6323   3.756   1.670   3.299
 2106TIP3    H1 6324   3.804   1.603   3.346
 2106TIP3    H2 6325   3.670   1.673   3.341
 2107TIP3   OH2 6326   3.877   2.439   0.549
 2107TIP3    H1 6327   3.831   2.521   0.532
 2107TIP3    H2 6328   3.960   2.465   0.588
 2108TIP3   OH2 6329   2.304   1.208   2.799
 2108TIP3    H1 6330   2.325   1.145   2.730
 2108TIP3    H2 6331   2.325   1.162   2.880
 2109TIP3   OH2 6332   2.940   2.436   0.471
 2109TIP3    H1 6333   2.858   2.436   0.521
 2109TIP3    H2 6334   2.938   2.354   0.422
 2110TIP3   OH2 6335   2.119   0.855   0.373
 2110TIP3    H1 6336   2.052   0.809   0.423
 2110TIP3    H2 6337   2.168   0.905   0.438
 2111TIP3   OH2 6338   6.042   5.273   0.471
 2111TIP3    H1 6339   6.117   5.226   0.508
 2111TIP3    H2 6340   6.000   5.210   0.413
 2112TIP3   OH2 6341   4.981   2.971   4.173
 2112TIP3    H1 6342   4.910   2.916   4.142
 2112TIP3    H2 6343   4.940   3.033   4.234
 2113TIP3   OH2 6344   2.591   1.610   2.999
 2113TIP3    H1 6345   2.564   1.543   2.936
 2113TIP3    H2 6346   2.602   1.563   3.082
 2114TIP3   OH2 6347   3.095   4.498   1.324
 2114TIP3    H1 6348   3.183   4.469   1.346
 2114TIP3    H2 6349   3.043   4.475   1.401
 2115TIP3   OH2 6350   2.727   5.459   4.519
 2115TIP3    H1 6351   2.822   5.466   4.533
 2115TIP3    H2 6352   2.692   5.542   4.552
 2116TIP3   OH2 6353   0.995   5.388   1.742
 2116TIP3    H1 6354   1.089   5.405   1.743
 2116TIP3    H2 6355   0.960   5.444   1.811
 2117TIP3   OH2 6356   1.455   3.593   2.226
 2117TIP3    H1 6357   1.500   3.625   2.304
 2117TIP3    H2 6358   1.525   3.576   2.164
 2118TIP3   OH2 6359   1.718   4.856   2.180
 2118TIP3    H1 6360   1.741   4.887   2.093
 2118TIP3    H2 6361   1.776   4.782   2.196
 2119TIP3   OH2 6362   5.353   1.083   2.106
 2119TIP3    H1 6363   5.383   1.043   2.187
 2119TIP3    H2 6364   5.433   1.107   2.059
 2120TIP3   OH2 6365   2.112   0.175   3.291
 2120TIP3    H1 6366   2.152   0.174   3.205
 2120TIP3    H2 6367   2.148   0.253   3.334
 2121TIP3   OH2 6368   1.929   3.877   1.340
 2121TIP3    H1 6369   2.004   3.864   1.282
 2121TIP3    H2 6370   1.884   3.792   1.341
 2122TIP3   OH2 6371   2.746   2.514   3.193
 2122TIP3    H1 6372   2.796   2.552   3.266
 2122TIP3    H2 6373   2.813   2.483   3.132
 2123TIP3   OH2 6374   0.349   0.009   3.323
 2123TIP3    H1 6375   0.352   0.088   3.377
 2123TIP3    H2 6376   0.417  -0.048   3.358
 2124TIP3   OH2 6377   4.328   1.910   2.197
 2124TIP3    H1 6378   4.249   1.859   2.209
 2124TIP3    H2 6379   4.378   1.897   2.278
 2125TIP3   OH2 6380   0.866   5.573   0.048
 2125TIP3    H1 6381   0.920   5.630   0.103
 2125TIP3    H2 6382   0.893   5.595  -0.041
 2126TIP3   OH2 6383   2.722   3.235   3.133
 2126TIP3    H1 6384   2.627   3.235   3.127
 2126TIP3    H2 6385   2.744   3.323   3.165
 2127TIP3   OH2 6386   2.824   0.867   0.301
 2127TIP3    H1 6387   2.856   0.881   0.390
 2127TIP3    H2 6388   2.899   0.828   0.255
 2128TIP3   OH2 6389   4.310   0.734   1.456
 2128TIP3    H1 6390   4.364   0.663   1.491
 2128TIP3    H2 6391   4.317   0.724   1.361
 2129TIP3   OH2 6392   3.885   5.654   2.598
 2129TIP3    H1 6393   3.948   5.582   2.599
 2129TIP3    H2 6394   3.915   5.711   2.528
 2130TIP3   OH2 6395   2.009   1.128   2.528
 2130TIP3    H1 6396   2.010   1.036   2.504
 2130TIP3    H2 6397   1.935   1.138   2.588
 2131TIP3   OH2 6398   2.655   2.689   0.426
 2131TIP3    H1 6399   2.721   2.758   0.420
 2131TIP3    H2 6400   2.619   2.699   0.515
 2132TIP3   OH2 6401   3.537   3.568   4.566
 2132TIP3    H1 6402   3.501   3.517   4.494
 2132TIP3    H2 6403   3.467   3.571   4.631
 2133TIP3   OH2 6404   0.416   0.507   2.003
 2133TIP3    H1 6405   0.452   0.574   1.946
 2133TIP3    H2 6406   0.322   0.507   1.985
 2134TIP3   OH2 6407   5.401   3.567   3.914
 2134TIP3    H1 6408   5.379   3.474   3.909
 2134TIP3    H2 6409   5.464   3.581   3.843
 2135TIP3   OH2 6410   2.899   0.201   3.242
 2135TIP3    H1 6411   2.821   0.170   3.196
 2135TIP3    H2 6412   2.972   0.165   3.193
 2136TIP3   OH2 6413   5.293   0.516   1.675
 2136TIP3    H1 6414   5.339   0.463   1.741
 2136TIP3    H2 6415   5.346   0.507   1.596
 2137TIP3   OH2 6416   4.213   3.925   4.347
 2137TIP3    H1 6417   4.257   3.924   4.433
 2137TIP3    H2 6418   4.166   4.008   4.347
 2138TIP3   OH2 6419   0.638   4.894   4.804
 2138TIP3    H1 6420   0.690   4.834   4.858
 2138TIP3    H2 6421   0.700   4.928   4.740
 2139TIP3   OH2 6422   2.058   2.415   5.127
 2139TIP3    H1 6423   2.055   2.509   5.108
 2139TIP3    H2 6424   1.975   2.395   5.170
 2140TIP3   OH2 6425   4.260   3.314   1.281
 2140TIP3    H1 6426   4.196   3.245   1.300
 2140TIP3    H2 6427   4.225   3.392   1.323
 2141TIP3   OH2 6428   1.316   3.224   5.014
 2141TIP3    H1 6429   1.228   3.261   5.004
 2141TIP3    H2 6430   1.372   3.282   4.961
 2142TIP3   OH2 6431   2.211   2.792   0.625
 2142TIP3    H1 6432   2.272   2.760   0.559
 2142TIP3    H2 6433   2.265   2.845   0.684
 2143TIP3   OH2 6434   1.602   2.073   1.492
 2143TIP3    H1 6435   1.519   2.078   1.538
 2143TIP3    H2 6436   1.603   1.985   1.453
 2144TIP3   OH2 6437   2.903   4.593   3.472
 2144TIP3    H1 6438   2.895   4.650   3.395
 2144TIP3    H2 6439   2.921   4.506   3.436
 2145TIP3   OH2 6440   2.741   5.555   0.130
 2145TIP3    H1 6441   2.766   5.621   0.065
 2145TIP3    H2 6442   2.665   5.511   0.092
 2146TIP3   OH2 6443   1.388   0.112   3.110
 2146TIP3    H1 6444   1.313   0.105   3.051
 2146TIP3    H2 6445   1.407   0.206   3.114
 2147TIP3   OH2 6446   2.021   0.706   4.802
 2147TIP3    H1 6447   2.065   0.762   4.738
 2147TIP3    H2 6448   1.944   0.673   4.756
 2148TIP3   OH2 6449   5.347   4.364   3.571
 2148TIP3    H1 6450   5.376   4.274   3.554
 2148TIP3    H2 6451   5.270   4.376   3.515
 2149TIP3   OH2 6452   5.639   0.449   5.132
 2149TIP3    H1 6453   5.579   0.503   5.184
 2149TIP3    H2 6454   5.591   0.430   5.052
 2150TIP3   OH2 6455   2.845   3.243   0.305
 2150TIP3    H1 6456   2.934   3.273   0.325
 2150TIP3    H2 6457   2.801   3.241   0.390
 2151TIP3   OH2 6458   3.409   2.406   4.438
 2151TIP3    H1 6459   3.442   2.401   4.528
 2151TIP3    H2 6460   3.337   2.468   4.442
 2152TIP3   OH2 6461   2.356   0.039   4.063
 2152TIP3    H1 6462   2.265   0.008   4.065
 2152TIP3    H2 6463   2.405  -0.027   4.112
 2153TIP3   OH2 6464   3.968   3.386   1.764
 2153TIP3    H1 6465   3.965   3.476   1.734
 2153TIP3    H2 6466   3.886   3.374   1.813
 2154TIP3   OH2 6467   2.968   4.455   4.463
 2154TIP3    H1 6468   3.023   4.377   4.451
 2154TIP3    H2 6469   2.955   4.489   4.374
 2155TIP3   OH2 6470   2.277   2.369   4.768
 2155TIP3    H1 6471   2.212   2.316   4.815
 2155TIP3    H2 6472   2.342   2.306   4.738
 2156TIP3   OH2 6473   1.899   3.533   2.889
 2156TIP3    H1 6474   1.803   3.535   2.887
 2156TIP3    H2 6475   1.925   3.623   2.873
 2157TIP3   OH2 6476   1.679   0.431   1.803
 2157TIP3    H1 6477   1.645   0.342   1.800
 2157TIP3    H2 6478   1.609   0.484   1.765
 2158TIP3   OH2 6479   1.675   0.709   5.192
 2158TIP3    H1 6480   1.626   0.628   5.190
 2158TIP3    H2 6481   1.761   0.687   5.156
 2159TIP3   OH2 6482   4.896   4.142   0.667
 2159TIP3    H1 6483   4.815   4.136   0.617
 2159TIP3    H2 6484   4.875   4.199   0.741
 2160TIP3   OH2 6485   5.712   0.125   5.007
 2160TIP3    H1 6486   5.662   0.114   5.087
 2160TIP3    H2 6487   5.716   0.219   4.993
 2161TIP3   OH2 6488   5.446   2.784   3.359
 2161TIP3    H1 6489   5.500   2.851   3.318
 2161TIP3    H2 6490   5.478   2.780   3.449
 2162TIP3   OH2 6491   4.208   1.772   0.041
 2162TIP3    H1 6492   4.269   1.844   0.059
 2162TIP3    H2 6493   4.152   1.768   0.119
 2163TIP3   OH2 6494   0.221   4.534   3.699
 2163TIP3    H1 6495   0.195   4.466   3.761
 2163TIP3    H2 6496   0.217   4.615   3.749
 2164TIP3   OH2 6497   5.957   3.030   4.417
 2164TIP3    H1 6498   5.933   2.948   4.374
 2164TIP3    H2 6499   5.973   3.091   4.345
 2165TIP3   OH2 6500   0.792   5.759   4.923
 2165TIP3    H1 6501   0.790   5.793   5.013
 2165TIP3    H2 6502   0.824   5.670   4.932
 2166TIP3   OH2 6503   1.140   0.154   2.355
 2166TIP3    H1 6504   1.148   0.058   2.351
 2166TIP3    H2 6505   1.126   0.180   2.264
 2167TIP3   OH2 6506   6.319   2.692   0.925
 2167TIP3    H1 6507   6.380   2.715   0.996
 2167TIP3    H2 6508   6.279   2.776   0.900
 2168TIP3   OH2 6509   0.297   5.168   2.025
 2168TIP3    H1 6510   0.288   5.215   1.942
 2168TIP3    H2 6511   0.223   5.106   2.026
 2169TIP3   OH2 6512   2.309   1.769   4.459
 2169TIP3    H1 6513   2.336   1.853   4.422
 2169TIP3    H2 6514   2.389   1.732   4.497
 2170TIP3   OH2 6515   5.673   2.373   3.989
 2170TIP3    H1 6516   5.683   2.355   3.896
 2170TIP3    H2 6517   5.738   2.316   4.031
 2171TIP3   OH2 6518   3.950   0.182   3.866
 2171TIP3    H1 6519   4.001   0.116   3.914
 2171TIP3    H2 6520   3.868   0.188   3.914
 2172TIP3   OH2 6521   4.766   4.965   0.096
 2172TIP3    H1 6522   4.758   4.893   0.034
 2172TIP3    H2 6523   4.685   5.016   0.084
 2173TIP3   OH2 6524   5.396   2.156   3.853
 2173TIP3    H1 6525   5.392   2.110   3.937
 2173TIP3    H2 6526   5.382   2.088   3.787
 2174TIP3   OH2 6527   3.472   2.131   4.708
 2174TIP3    H1 6528   3.535   2.157   4.641
 2174TIP3    H2 6529   3.492   2.187   4.782
 2175TIP3   OH2 6530   4.525   0.268   0.130
 2175TIP3    H1 6531   4.548   0.231   0.045
 2175TIP3    H2 6532   4.452   0.327   0.112
 2176TIP3   OH2 6533   2.281   3.922   2.028
 2176TIP3    H1 6534   2.236   4.006   2.018
 2176TIP3    H2 6535   2.246   3.886   2.109
 2177TIP3   OH2 6536   5.494   1.448   3.093
 2177TIP3    H1 6537   5.429   1.425   3.158
 2177TIP3    H2 6538   5.568   1.482   3.143
 2178TIP3   OH2 6539   3.618   0.891   3.327
 2178TIP3    H1 6540   3.708   0.865   3.345
 2178TIP3    H2 6541   3.592   0.943   3.404
 2179TIP3   OH2 6542   5.381   2.628   1.886
 2179TIP3    H1 6543   5.350   2.716   1.910
 2179TIP3    H2 6544   5.374   2.577   1.967
 2180TIP3   OH2 6545   3.010   4.858   0.349
 2180TIP3    H1 6546   3.035   4.776   0.307
 2180TIP3    H2 6547   2.998   4.919   0.276
 2181TIP3   OH2 6548   4.642   3.301   3.963
 2181TIP3    H1 6549   4.551   3.275   3.976
 2181TIP3    H2 6550   4.649   3.319   3.869
 2182TIP3   OH2 6551   4.594   2.386   2.969
 2182TIP3    H1 6552   4.505   2.353   2.986
 2182TIP3    H2 6553   4.582   2.453   2.902
 2183TIP3   OH2 6554   4.226   0.662   0.573
 2183TIP3    H1 6555   4.198   0.598   0.508
 2183TIP3    H2 6556   4.317   0.639   0.591
 2184TIP3   OH2 6557   4.621   5.232   2.370
 2184TIP3    H1 6558   4.678   5.254   2.296
 2184TIP3    H2 6559   4.628   5.308   2.428
 2185TIP3   OH2 6560   5.860   4.329   1.389
 2185TIP3    H1 6561   5.883   4.409   1.342
 2185TIP3    H2 6562   5.777   4.302   1.350
 2186TIP3   OH2 6563   4.655   0.309   2.476
 2186TIP3    H1 6564   4.713   0.352   2.539
 2186TIP3    H2 6565   4.704   0.307   2.395
 2187TIP3   OH2 6566   0.456   0.932   1.613
 2187TIP3    H1 6567   0.535   0.878   1.605
 2187TIP3    H2 6568   0.489   1.022   1.614
 2188TIP3   OH2 6569   5.834   3.131   4.667
 2188TIP3    H1 6570   5.775   3.056   4.662
 2188TIP3    H2 6571   5.905   3.110   4.606
 2189TIP3   OH2 6572   1.672   0.238   0.689
 2189TIP3    H1 6573   1.606   0.306   0.676
 2189TIP3    H2 6574   1.645   0.194   0.770
 2190TIP3   OH2 6575   5.163   4.054   3.328
 2190TIP3    H1 6576   5.223   4.044   3.254
 2190TIP3    H2 6577   5.219   4.065   3.404
 2191TIP3   OH2 6578   3.467   2.631   2.739
 2191TIP3    H1 6579   3.561   2.625   2.758
 2191TIP3    H2 6580   3.442   2.541   2.718
 2192TIP3   OH2 6581   2.192   1.962   2.097
 2192TIP3    H1 6582   2.164   1.888   2.043
 2192TIP3    H2 6583   2.157   2.039   2.053
 2193TIP3   OH2 6584   4.547   5.915   0.090
 2193TIP3    H1 6585   4.590   5.895   0.007
 2193TIP3    H2 6586   4.610   5.972   0.136
 2194TIP3   OH2 6587   3.965   1.691   0.507
 2194TIP3    H1 6588   4.027   1.645   0.565
 2194TIP3    H2 6589   3.982   1.654   0.420
 2195TIP3   OH2 6590   2.888   4.718   4.562
 2195TIP3    H1 6591   2.948   4.705   4.636
 2195TIP3    H2 6592   2.894   4.637   4.512
 2196TIP3   OH2 6593   0.128   3.426   4.833
 2196TIP3    H1 6594   0.047   3.383   4.803
 2196TIP3    H2 6595   0.128   3.510   4.787
 2197TIP3   OH2 6596   4.603   2.741   5.123
 2197TIP3    H1 6597   4.687   2.787   5.134
 2197TIP3    H2 6598   4.537   2.810   5.132
 2198TIP3   OH2 6599   0.712   1.165   0.434
 2198TIP3    H1 6600   0.729   1.213   0.353
 2198TIP3    H2 6601   0.680   1.232   0.495
 2199TIP3   OH2 6602   6.019   0.292   4.229
 2199TIP3    H1 6603   5.932   0.292   4.191
 2199TIP3    H2 6604   6.068   0.356   4.177
 2200TIP3   OH2 6605   5.475   4.796   4.431
 2200TIP3    H1 6606   5.404   4.739   4.460
 2200TIP3    H2 6607   5.447   4.884   4.458
 2201TIP3   OH2 6608   2.357   4.156   3.432
 2201TIP3    H1 6609   2.284   4.214   3.455
 2201TIP3    H2 6610   2.327   4.110   3.354
 2202TIP3   OH2 6611   3.079   1.103   0.553
 2202TIP3    H1 6612   3.049   1.012   0.548
 2202TIP3    H2 6613   3.151   1.101   0.616
 2203TIP3   OH2 6614   2.382   3.299   1.160
 2203TIP3    H1 6615   2.404   3.252   1.240
 2203TIP3    H2 6616   2.294   3.334   1.176
 2204TIP3   OH2 6617   4.865   1.976   0.899
 2204TIP3    H1 6618   4.870   1.881   0.912
 2204TIP3    H2 6619   4.777   1.999   0.928
 2205TIP3   OH2 6620   3.207   5.831   1.521
 2205TIP3    H1 6621   3.169   5.812   1.606
 2205TIP3    H2 6622   3.207   5.746   1.476
 2206TIP3   OH2 6623   1.515   3.693   4.588
 2206TIP3    H1 6624   1.561   3.762   4.636
 2206TIP3    H2 6625   1.546   3.612   4.628
 2207TIP3   OH2 6626   2.738   5.308   1.942
 2207TIP3    H1 6627   2.766   5.223   1.908
 2207TIP3    H2 6628   2.687   5.287   2.020
 2208TIP3   OH2 6629   5.646   3.290   3.803
 2208TIP3    H1 6630   5.561   3.262   3.836
 2208TIP3    H2 6631   5.648   3.260   3.712
 2209TIP3   OH2 6632   3.714   2.250   3.792
 2209TIP3    H1 6633   3.736   2.236   3.700
 2209TIP3    H2 6634   3.778   2.314   3.823
 2210TIP3   OH2 6635   1.841   3.985   0.405
 2210TIP3    H1 6636   1.759   3.952   0.443
 2210TIP3    H2 6637   1.877   4.043   0.471
 2211TIP3   OH2 6638   5.034   5.533   4.807
 2211TIP3    H1 6639   5.006   5.448   4.843
 2211TIP3    H2 6640   5.130   5.528   4.808
 2212TIP3   OH2 6641   2.617   6.007   3.424
 2212TIP3    H1 6642   2.690   5.952   3.454
 2212TIP3    H2 6643   2.539   5.955   3.442
 2213TIP3   OH2 6644   0.976   2.896   0.382
 2213TIP3    H1 6645   0.974   2.824   0.445
 2213TIP3    H2 6646   0.918   2.867   0.311
 2214TIP3   OH2 6647   2.081   1.872   4.176
 2214TIP3    H1 6648   2.063   1.943   4.238
 2214TIP3    H2 6649   2.078   1.793   4.230
 2215TIP3   OH2 6650   0.741   4.618   1.325
 2215TIP3    H1 6651   0.721   4.596   1.416
 2215TIP3    H2 6652   0.809   4.686   1.331
 2216TIP3   OH2 6653   4.350   4.667   3.917
 2216TIP3    H1 6654   4.398   4.645   3.996
 2216TIP3    H2 6655   4.403   4.631   3.846
 2217TIP3   OH2 6656   2.926   3.024   1.405
 2217TIP3    H1 6657   3.013   2.996   1.378
 2217TIP3    H2 6658   2.936   3.117   1.428
 2218TIP3   OH2 6659   2.008   0.563   2.164
 2218TIP3    H1 6660   2.097   0.588   2.137
 2218TIP3    H2 6661   1.971   0.519   2.087
 2219TIP3   OH2 6662   1.085   1.576   0.503
 2219TIP3    H1 6663   1.055   1.597   0.591
 2219TIP3    H2 6664   1.082   1.660   0.456
 2220TIP3   OH2 6665   5.128   5.580   1.962
 2220TIP3    H1 6666   5.034   5.586   1.947
 2220TIP3    H2 6667   5.153   5.496   1.925
 2221TIP3   OH2 6668   3.169   3.656   3.548
 2221TIP3    H1 6669   3.226   3.580   3.559
 2221TIP3    H2 6670   3.213   3.727   3.594
 2222TIP3   OH2 6671   3.240   2.317   2.798
 2222TIP3    H1 6672   3.326   2.343   2.767
 2222TIP3    H2 6673   3.254   2.233   2.842
 2223TIP3   OH2 6674   4.452   0.875   2.209
 2223TIP3    H1 6675   4.443   0.838   2.297
 2223TIP3    H2 6676   4.530   0.931   2.214
 2224TIP3   OH2 6677   3.847   4.894   3.039
 2224TIP3    H1 6678   3.928   4.914   2.992
 2224TIP3    H2 6679   3.788   4.861   2.971
 2225TIP3   OH2 6680   3.533   1.297   4.492
 2225TIP3    H1 6681   3.518   1.214   4.537
 2225TIP3    H2 6682   3.452   1.311   4.442
 2226TIP3   OH2 6683   3.545   0.631   1.579
 2226TIP3    H1 6684   3.486   0.706   1.571
 2226TIP3    H2 6685   3.535   0.603   1.670
 2227TIP3   OH2 6686   1.679   3.006   5.144
 2227TIP3    H1 6687   1.709   2.925   5.102
 2227TIP3    H2 6688   1.750   3.031   5.203
 2228TIP3   OH2 6689   1.288   2.791   0.342
 2228TIP3    H1 6690   1.210   2.737   0.354
 2228TIP3    H2 6691   1.263   2.876   0.379
 2229TIP3   OH2 6692   6.075   5.949   5.081
 2229TIP3    H1 6693   6.138   5.894   5.034
 2229TIP3    H2 6694   6.073   6.030   5.031
 2230TIP3   OH2 6695   2.043   2.634   2.784
 2230TIP3    H1 6696   2.053   2.552   2.833
 2230TIP3    H2 6697   1.988   2.611   2.710
 2231TIP3   OH2 6698   1.987   2.103   0.113
 2231TIP3    H1 6699   2.015   2.170   0.050
 2231TIP3    H2 6700   1.897   2.083   0.089
 2232TIP3   OH2 6701   2.134   3.813   1.167
 2232TIP3    H1 6702   2.226   3.796   1.188
 2232TIP3    H2 6703   2.136   3.847   1.078
 2233TIP3   OH2 6704   0.494   4.424   3.318
 2233TIP3    H1 6705   0.482   4.387   3.405
 2233TIP3    H2 6706   0.407   4.456   3.294
 2234TIP3   OH2 6707   0.888   3.565   4.178
 2234TIP3    H1 6708   0.888   3.577   4.273
 2234TIP3    H2 6709   0.819   3.501   4.162
 2235TIP3   OH2 6710   0.212   1.408   2.258
 2235TIP3    H1 6711   0.268   1.368   2.324
 2235TIP3    H2 6712   0.208   1.343   2.188
 2236TIP3   OH2 6713   1.624   3.798   0.433
 2236TIP3    H1 6714   1.583   3.878   0.465
 2236TIP3    H2 6715   1.560   3.760   0.374
 2237TIP3   OH2 6716   5.749   5.184   3.205
 2237TIP3    H1 6717   5.706   5.251   3.153
 2237TIP3    H2 6718   5.784   5.123   3.141
 2238TIP3   OH2 6719   4.440   0.128   4.940
 2238TIP3    H1 6720   4.471   0.051   4.987
 2238TIP3    H2 6721   4.479   0.202   4.987
 2239TIP3   OH2 6722   4.189   1.593   0.646
 2239TIP3    H1 6723   4.270   1.623   0.604
 2239TIP3    H2 6724   4.176   1.653   0.719
 2240TIP3   OH2 6725   3.428   2.284   0.642
 2240TIP3    H1 6726   3.496   2.248   0.699
 2240TIP3    H2 6727   3.397   2.208   0.592
 2241TIP3   OH2 6728   0.563   3.785   4.528
 2241TIP3    H1 6729   0.586   3.857   4.469
 2241TIP3    H2 6730   0.628   3.717   4.510
 2242TIP3   OH2 6731   5.528   3.701   0.751
 2242TIP3    H1 6732   5.569   3.786   0.766
 2242TIP3    H2 6733   5.593   3.637   0.780
 2243TIP3   OH2 6734   1.569   5.424   4.077
 2243TIP3    H1 6735   1.575   5.352   4.141
 2243TIP3    H2 6736   1.644   5.480   4.097
 2244TIP3   OH2 6737   0.723   2.763   3.997
 2244TIP3    H1 6738   0.687   2.832   3.942
 2244TIP3    H2 6739   0.805   2.800   4.030
 2245TIP3   OH2 6740   2.806   5.998   2.063
 2245TIP3    H1 6741   2.714   5.987   2.038
 2245TIP3    H2 6742   2.855   5.975   1.984
 2246TIP3   OH2 6743   3.875   4.837   2.353
 2246TIP3    H1 6744   3.899   4.798   2.268
 2246TIP3    H2 6745   3.876   4.764   2.414
 2247TIP3   OH2 6746   2.823   2.537   4.678
 2247TIP3    H1 6747   2.862   2.505   4.597
 2247TIP3    H2 6748   2.776   2.462   4.714
 2248TIP3   OH2 6749   5.027   3.726   3.497
 2248TIP3    H1 6750   5.055   3.764   3.414
 2248TIP3    H2 6751   4.964   3.657   3.472
 2249TIP3   OH2 6752   1.896   5.817   2.788
 2249TIP3    H1 6753   1.815   5.862   2.764
 2249TIP3    H2 6754   1.878   5.724   2.774
 2250TIP3   OH2 6755   6.156   5.711   4.825
 2250TIP3    H1 6756   6.237   5.761   4.817
 2250TIP3    H2 6757   6.113   5.721   4.740
 2251TIP3   OH2 6758   5.567   1.069   1.578
 2251TIP3    H1 6759   5.508   1.016   1.631
 2251TIP3    H2 6760   5.625   1.006   1.535
 2252TIP3   OH2 6761   4.174   3.519   1.480
 2252TIP3    H1 6762   4.140   3.555   1.562
 2252TIP3    H2 6763   4.192   3.596   1.427
 2253TIP3   OH2 6764   5.427   5.613   1.810
 2253TIP3    H1 6765   5.396   5.556   1.740
 2253TIP3    H2 6766   5.349   5.631   1.862
 2254TIP3   OH2 6767   5.472   0.208   0.136
 2254TIP3    H1 6768   5.487   0.212   0.041
 2254TIP3    H2 6769   5.542   0.152   0.169
 2255TIP3   OH2 6770   4.480   0.609   0.002
 2255TIP3    H1 6771   4.394   0.633   0.038
 2255TIP3    H2 6772   4.533   0.688   0.014
 2256TIP3   OH2 6773   4.784   4.628   1.629
 2256TIP3    H1 6774   4.812   4.631   1.537
 2256TIP3    H2 6775   4.695   4.595   1.625
 2257TIP3   OH2 6776   1.826   0.803   4.406
 2257TIP3    H1 6777   1.752   0.747   4.429
 2257TIP3    H2 6778   1.902   0.746   4.416
 2258TIP3   OH2 6779   2.429   3.545   1.052
 2258TIP3    H1 6780   2.343   3.539   1.011
 2258TIP3    H2 6781   2.433   3.470   1.111
 2259TIP3   OH2 6782   3.120   0.735   4.733
 2259TIP3    H1 6783   3.061   0.793   4.686
 2259TIP3    H2 6784   3.087   0.735   4.823
 2260TIP3   OH2 6785   5.357   2.483   2.139
 2260TIP3    H1 6786   5.395   2.521   2.218
 2260TIP3    H2 6787   5.267   2.516   2.137
 2261TIP3   OH2 6788   6.242   4.552   4.335
 2261TIP3    H1 6789   6.302   4.492   4.381
 2261TIP3    H2 6790   6.275   4.555   4.245
 2262TIP3   OH2 6791   3.134   3.033   2.238
 2262TIP3    H1 6792   3.131   3.038   2.142
 2262TIP3    H2 6793   3.147   3.123   2.267
 2263TIP3   OH2 6794   4.665   0.690   3.350
 2263TIP3    H1 6795   4.749   0.720   3.384
 2263TIP3    H2 6796   4.667   0.595   3.363
 2264TIP3   OH2 6797   4.813   5.933   5.099
 2264TIP3    H1 6798   4.871   5.970   5.033
 2264TIP3    H2 6799   4.748   6.001   5.115
 2265TIP3   OH2 6800   1.543   0.087   0.889
 2265TIP3    H1 6801   1.454   0.106   0.917
 2265TIP3    H2 6802   1.596   0.099   0.968
 2266TIP3   OH2 6803   2.928   1.529   0.594
 2266TIP3    H1 6804   2.968   1.604   0.638
 2266TIP3    H2 6805   2.904   1.469   0.664
 2267TIP3   OH2 6806   5.873   2.702   2.460
 2267TIP3    H1 6807   5.787   2.662   2.468
 2267TIP3    H2 6808   5.935   2.632   2.479
 2268TIP3   OH2 6809  -0.013   1.795   0.685
 2268TIP3    H1 6810   0.026   1.855   0.622
 2268TIP3    H2 6811   0.003   1.837   0.770
 2269TIP3   OH2 6812   5.929   2.913   1.223
 2269TIP3    H1 6813   5.901   2.879   1.138
 2269TIP3    H2 6814   6.019   2.881   1.233
 2270TIP3   OH2 6815   1.673   5.881   0.938
 2270TIP3    H1 6816   1.624   5.836   0.870
 2270TIP3    H2 6817   1.613   5.947   0.972
 2271TIP3   OH2 6818   6.081   5.445   3.569
 2271TIP3    H1 6819   6.055   5.478   3.484
 2271TIP3    H2 6820   6.028   5.493   3.632
 2272TIP3   OH2 6821   0.290   4.808   3.351
 2272TIP3    H1 6822   0.245   4.840   3.429
 2272TIP3    H2 6823   0.300   4.714   3.366
 2273TIP3   OH2 6824   3.395   4.913   3.822
 2273TIP3    H1 6825   3.421   4.908   3.914
 2273TIP3    H2 6826   3.417   4.827   3.786
 2274TIP3   OH2 6827   3.645   0.439   4.884
 2274TIP3    H1 6828   3.690   0.474   4.807
 2274TIP3    H2 6829   3.708   0.376   4.921
 2275TIP3   OH2 6830   0.547   3.255   0.381
 2275TIP3    H1 6831   0.603   3.180   0.363
 2275TIP3    H2 6832   0.608   3.329   0.389
 2276TIP3   OH2 6833   2.466   5.967   2.243
 2276TIP3    H1 6834   2.437   6.045   2.196
 2276TIP3    H2 6835   2.391   5.908   2.240
 2277TIP3   OH2 6836   4.647   4.955   3.073
 2277TIP3    H1 6837   4.597   5.035   3.086
 2277TIP3    H2 6838   4.653   4.945   2.978
 2278TIP3   OH2 6839   4.295   4.923   2.748
 2278TIP3    H1 6840   4.235   4.928   2.822
 2278TIP3    H2 6841   4.321   4.831   2.745
 2279TIP3   OH2 6842   3.193   5.201   5.166
 2279TIP3    H1 6843   3.165   5.195   5.075
 2279TIP3    H2 6844   3.268   5.142   5.172
 2280TIP3   OH2 6845   2.810   5.702   0.721
 2280TIP3    H1 6846   2.884   5.759   0.742
 2280TIP3    H2 6847   2.831   5.668   0.634
 2281TIP3   OH2 6848   2.113   1.807   0.492
 2281TIP3    H1 6849   2.126   1.726   0.542
 2281TIP3    H2 6850   2.056   1.861   0.547
 2282TIP3   OH2 6851   4.576   3.356   2.011
 2282TIP3    H1 6852   4.568   3.370   1.917
 2282TIP3    H2 6853   4.583   3.444   2.048
 2283TIP3   OH2 6854   5.788   4.719   3.951
 2283TIP3    H1 6855   5.831   4.648   3.999
 2283TIP3    H2 6856   5.811   4.798   4.000
 2284TIP3   OH2 6857   1.867   5.096   0.092
 2284TIP3    H1 6858   1.781   5.119   0.056
 2284TIP3    H2 6859   1.858   5.005   0.120
 2285TIP3   OH2 6860   4.680   0.262   1.494
 2285TIP3    H1 6861   4.762   0.296   1.529
 2285TIP3    H2 6862   4.614   0.287   1.558
 2286TIP3   OH2 6863   5.618   4.320   0.880
 2286TIP3    H1 6864   5.624   4.295   0.788
 2286TIP3    H2 6865   5.646   4.411   0.883
 2287TIP3   OH2 6866   1.900   3.198   0.537
 2287TIP3    H1 6867   1.837   3.130   0.561
 2287TIP3    H2 6868   1.886   3.213   0.444
 2288TIP3   OH2 6869   1.308   1.253   3.217
 2288TIP3    H1 6870   1.352   1.302   3.286
 2288TIP3    H2 6871   1.357   1.273   3.137
 2289TIP3   OH2 6872   2.212   3.942   4.092
 2289TIP3    H1 6873   2.184   3.959   4.182
 2289TIP3    H2 6874   2.303   3.972   4.089
 2290TIP3   OH2 6875   2.619   5.710   4.822
 2290TIP3    H1 6876   2.635   5.639   4.884
 2290TIP3    H2 6877   2.526   5.730   4.832
 2291TIP3   OH2 6878   4.876   1.836   2.334
 2291TIP3    H1 6879   4.960   1.793   2.318
 2291TIP3    H2 6880   4.890   1.927   2.308
 2292TIP3   OH2 6881   0.462   1.833   1.272
 2292TIP3    H1 6882   0.543   1.783   1.262
 2292TIP3    H2 6883   0.415   1.790   1.344
 2293TIP3   OH2 6884   4.733   1.634   2.448
 2293TIP3    H1 6885   4.806   1.576   2.469
 2293TIP3    H2 6886   4.772   1.702   2.393
 2294TIP3   OH2 6887   6.310   0.734   0.329
 2294TIP3    H1 6888   6.234   0.784   0.300
 2294TIP3    H2 6889   6.372   0.800   0.358
 2295TIP3   OH2 6890   0.881   0.542   4.849
 2295TIP3    H1 6891   0.840   0.530   4.935
 2295TIP3    H2 6892   0.844   0.624   4.816
 2296TIP3   OH2 6893   3.524   4.625   0.992
 2296TIP3    H1 6894   3.603   4.595   0.948
 2296TIP3    H2 6895   3.452   4.598   0.935
 2297TIP3   OH2 6896   0.133   3.753   3.712
 2297TIP3    H1 6897   0.186   3.696   3.657
 2297TIP3    H2 6898   0.082   3.805   3.650
 2298TIP3   OH2 6899   4.452   2.855   3.989
 2298TIP3    H1 6900   4.482   2.910   4.061
 2298TIP3    H2 6901   4.531   2.835   3.939
 2299TIP3   OH2 6902   1.155   5.039   4.126
 2299TIP3    H1 6903   1.213   5.114   4.117
 2299TIP3    H2 6904   1.206   4.965   4.092
 2300TIP3   OH2 6905   5.468   2.657   1.601
 2300TIP3    H1 6906   5.433   2.629   1.685
 2300TIP3    H2 6907   5.507   2.579   1.564
 2301TIP3   OH2 6908   0.963   5.723   3.229
 2301TIP3    H1 6909   0.951   5.775   3.150
 2301TIP3    H2 6910   1.058   5.716   3.239
 2302TIP3   OH2 6911   3.299   3.794   4.027
 2302TIP3    H1 6912   3.245   3.721   3.997
 2302TIP3    H2 6913   3.245   3.837   4.094
 2303TIP3   OH2 6914   5.911   5.803   2.774
 2303TIP3    H1 6915   5.956   5.874   2.820
 2303TIP3    H2 6916   5.820   5.833   2.766
 2304TIP3   OH2 6917   4.213   1.449   4.128
 2304TIP3    H1 6918   4.186   1.379   4.068
 2304TIP3    H2 6919   4.131   1.487   4.160
 2305TIP3   OH2 6920   0.658   4.554   2.990
 2305TIP3    H1 6921   0.648   4.460   3.007
 2305TIP3    H2 6922   0.710   4.559   2.910
 2306TIP3   OH2 6923   1.095   2.207   4.305
 2306TIP3    H1 6924   1.172   2.250   4.268
 2306TIP3    H2 6925   1.025   2.224   4.242
 2307TIP3   OH2 6926   1.849   3.221   1.539
 2307TIP3    H1 6927   1.933   3.179   1.556
 2307TIP3    H2 6928   1.813   3.175   1.463
 2308TIP3   OH2 6929   2.708   4.605   0.182
 2308TIP3    H1 6930   2.761   4.598   0.103
 2308TIP3    H2 6931   2.618   4.594   0.152
 2309TIP3   OH2 6932   0.906   2.320   5.085
 2309TIP3    H1 6933   0.900   2.408   5.122
 2309TIP3    H2 6934   0.997   2.312   5.058
 2310TIP3   OH2 6935   5.833   2.049   0.566
 2310TIP3    H1 6936   5.873   1.989   0.503
 2310TIP3    H2 6937   5.776   1.993   0.619
 2311TIP3   OH2 6938   1.665   2.670   3.863
 2311TIP3    H1 6939   1.633   2.749   3.818
 2311TIP3    H2 6940   1.682   2.608   3.792
 2312TIP3   OH2 6941   2.859   5.534   2.499
 2312TIP3    H1 6942   2.869   5.562   2.408
 2312TIP3    H2 6943   2.826   5.611   2.544
 2313TIP3   OH2 6944   0.869   4.471   0.095
 2313TIP3    H1 6945   0.862   4.564   0.112
 2313TIP3    H2 6946   0.950   4.462   0.044
 2314TIP3   OH2 6947   6.080   3.370   3.228
 2314TIP3    H1 6948   6.128   3.340   3.305
 2314TIP3    H2 6949   6.098   3.304   3.161
 2315TIP3   OH2 6950   2.657   1.978   3.047
 2315TIP3    H1 6951   2.595   2.002   2.978
 2315TIP3    H2 6952   2.703   2.060   3.067
 2316TIP3   OH2 6953   4.620   1.572   3.497
 2316TIP3    H1 6954   4.703   1.609   3.466
 2316TIP3    H2 6955   4.554   1.636   3.471
 2317TIP3   OH2 6956   4.697   3.547   4.106
 2317TIP3    H1 6957   4.672   3.484   4.039
 2317TIP3    H2 6958   4.634   3.534   4.177
 2318TIP3   OH2 6959   1.397   2.656   0.600
 2318TIP3    H1 6960   1.369   2.566   0.580
 2318TIP3    H2 6961   1.318   2.700   0.630
 2319TIP3   OH2 6962   4.005   3.686   1.686
 2319TIP3    H1 6963   4.064   3.754   1.653
 2319TIP3    H2 6964   3.925   3.733   1.710
 2320TIP3   OH2 6965   6.337   1.643   4.691
 2320TIP3    H1 6966   6.344   1.548   4.695
 2320TIP3    H2 6967   6.312   1.662   4.601
 2321TIP3   OH2 6968   5.568   1.122   4.783
 2321TIP3    H1 6969   5.521   1.039   4.780
 2321TIP3    H2 6970   5.643   1.106   4.841
 2322TIP3   OH2 6971   5.269   3.130   1.369
 2322TIP3    H1 6972   5.311   3.046   1.353
 2322TIP3    H2 6973   5.187   3.108   1.415
 2323TIP3   OH2 6974   3.144   3.363   1.773
 2323TIP3    H1 6975   3.161   3.370   1.679
 2323TIP3    H2 6976   3.106   3.276   1.784
 2324TIP3   OH2 6977   0.972   1.865   1.530
 2324TIP3    H1 6978   1.000   1.837   1.443
 2324TIP3    H2 6979   0.980   1.786   1.584
 2325TIP3   OH2 6980   3.747   0.993   2.057
 2325TIP3    H1 6981   3.801   1.057   2.012
 2325TIP3    H2 6982   3.708   0.940   1.987
 2326TIP3   OH2 6983   4.788   1.078   4.397
 2326TIP3    H1 6984   4.831   1.160   4.419
 2326TIP3    H2 6985   4.817   1.059   4.308
 2327TIP3   OH2 6986   1.740   2.462   2.858
 2327TIP3    H1 6987   1.665   2.434   2.911
 2327TIP3    H2 6988   1.770   2.382   2.815
 2328TIP3   OH2 6989   0.545   0.428   4.552
 2328TIP3    H1 6990   0.543   0.392   4.463
 2328TIP3    H2 6991   0.568   0.520   4.540
 2329TIP3   OH2 6992   0.601   3.659   3.410
 2329TIP3    H1 6993   0.622   3.681   3.319
 2329TIP3    H2 6994   0.638   3.572   3.422
 2330TIP3   OH2 6995   0.310   0.379   3.264
 2330TIP3    H1 6996   0.282   0.348   3.178
 2330TIP3    H2 6997   0.403   0.357   3.268
 2331TIP3   OH2 6998   4.418   3.166   4.423
 2331TIP3    H1 6999   4.346   3.121   4.467
 2331TIP3    H2 7000   4.437   3.242   4.479
 2332TIP3   OH2 7001   3.110   2.648   4.741
 2332TIP3    H1 7002   3.095   2.731   4.785
 2332TIP3    H2 7003   3.097   2.582   4.809
 2333TIP3   OH2 7004   4.906   0.730   3.463
 2333TIP3    H1 7005   4.970   0.660   3.450
 2333TIP3    H2 7006   4.858   0.704   3.542
 2334TIP3   OH2 7007   4.802   2.940   1.302
 2334TIP3    H1 7008   4.882   2.918   1.254
 2334TIP3    H2 7009   4.745   2.864   1.289
 2335TIP3   OH2 7010   2.053   3.994   0.870
 2335TIP3    H1 7011   2.041   4.069   0.928
 2335TIP3    H2 7012   1.991   3.929   0.903
 2336TIP3   OH2 7013   4.205   0.066   1.019
 2336TIP3    H1 7014   4.163  -0.011   0.981
 2336TIP3    H2 7015   4.269   0.093   0.953
 2337TIP3   OH2 7016   5.844   5.832   1.088
 2337TIP3    H1 7017   5.865   5.902   1.027
 2337TIP3    H2 7018   5.808   5.876   1.165
 2338TIP3   OH2 7019   1.553   3.197   3.891
 2338TIP3    H1 7020   1.490   3.229   3.826
 2338TIP3    H2 7021   1.570   3.272   3.948
 2339TIP3   OH2 7022   4.920   5.415   3.032
 2339TIP3    H1 7023   4.828   5.390   3.027
 2339TIP3    H2 7024   4.931   5.481   2.963
 2340TIP3   OH2 7025   2.606   2.024   0.064
 2340TIP3    H1 7026   2.566   1.998  -0.019
 2340TIP3    H2 7027   2.543   2.085   0.103
 2341TIP3   OH2 7028   1.183   4.078   0.128
 2341TIP3    H1 7029   1.160   4.013   0.061
 2341TIP3    H2 7030   1.099   4.099   0.170
 2342TIP3   OH2 7031   1.075   2.483   1.247
 2342TIP3    H1 7032   1.160   2.518   1.274
 2342TIP3    H2 7033   1.057   2.412   1.309
 2343TIP3   OH2 7034   2.227   2.630   2.414
 2343TIP3    H1 7035   2.248   2.538   2.398
 2343TIP3    H2 7036   2.229   2.671   2.328
 2344TIP3   OH2 7037   1.627   5.253   1.061
 2344TIP3    H1 7038   1.614   5.340   1.099
 2344TIP3    H2 7039   1.686   5.208   1.123
 2345TIP3   OH2 7040   4.435   5.405   1.867
 2345TIP3    H1 7041   4.359   5.348   1.877
 2345TIP3    H2 7042   4.398   5.492   1.852
 2346TIP3   OH2 7043   2.418   2.776   3.317
 2346TIP3    H1 7044   2.430   2.698   3.371
 2346TIP3    H2 7045   2.507   2.806   3.297
 2347TIP3   OH2 7046   6.264   5.323   3.386
 2347TIP3    H1 7047   6.210   5.355   3.458
 2347TIP3    H2 7048   6.206   5.327   3.309
 2348TIP3   OH2 7049   0.938   4.065   4.582
 2348TIP3    H1 7050   0.933   4.062   4.677
 2348TIP3    H2 7051   0.952   4.158   4.562
 2349TIP3   OH2 7052   5.099   4.429   2.291
 2349TIP3    H1 7053   5.190   4.452   2.310
 2349TIP3    H2 7054   5.092   4.337   2.318
 2350TIP3   OH2 7055   3.150   5.312   1.618
 2350TIP3    H1 7056   3.160   5.275   1.705
 2350TIP3    H2 7057   3.055   5.309   1.602
 2351TIP3   OH2 7058   3.207   5.129   2.316
 2351TIP3    H1 7059   3.168   5.055   2.363
 2351TIP3    H2 7060   3.204   5.202   2.377
 2352TIP3   OH2 7061   2.203   0.047   2.701
 2352TIP3    H1 7062   2.198  -0.017   2.771
 2352TIP3    H2 7063   2.295   0.047   2.674
 2353TIP3   OH2 7064   0.615   4.904   3.574
 2353TIP3    H1 7065   0.631   4.834   3.511
 2353TIP3    H2 7066   0.523   4.892   3.599
 2354TIP3   OH2 7067   0.733   5.510   0.351
 2354TIP3    H1 7068   0.773   5.539   0.269
 2354TIP3    H2 7069   0.748   5.584   0.411
 2355TIP3   OH2 7070   4.259   5.893   4.287
 2355TIP3    H1 7071   4.330   5.854   4.338
 2355TIP3    H2 7072   4.266   5.853   4.200
 2356TIP3   OH2 7073   1.728   1.101   3.386
 2356TIP3    H1 7074   1.658   1.046   3.354
 2356TIP3    H2 7075   1.684   1.174   3.429
 2357TIP3   OH2 7076   1.781   2.647   4.106
 2357TIP3    H1 7077   1.762   2.556   4.131
 2357TIP3    H2 7078   1.755   2.653   4.014
 2358TIP3   OH2 7079   3.528   3.146   1.473
 2358TIP3    H1 7080   3.596   3.188   1.527
 2358TIP3    H2 7081   3.458   3.126   1.535
 2359TIP3   OH2 7082   1.240   1.694   1.583
 2359TIP3    H1 7083   1.154   1.669   1.617
 2359TIP3    H2 7084   1.220   1.749   1.507
 2360TIP3   OH2 7085   3.100   5.265   2.835
 2360TIP3    H1 7086   3.106   5.311   2.918
 2360TIP3    H2 7087   3.020   5.299   2.794
 2361TIP3   OH2 7088   2.468   2.768   0.231
 2361TIP3    H1 7089   2.547   2.738   0.277
 2361TIP3    H2 7090   2.467   2.862   0.245
 2362TIP3   OH2 7091   5.615   3.740   3.409
 2362TIP3    H1 7092   5.654   3.776   3.488
 2362TIP3    H2 7093   5.540   3.689   3.440
 2363TIP3   OH2 7094   0.904   2.065   1.913
 2363TIP3    H1 7095   0.882   2.081   2.005
 2363TIP3    H2 7096   0.878   2.146   1.868
 2364TIP3   OH2 7097   4.341   2.301   1.005
 2364TIP3    H1 7098   4.265   2.312   0.947
 2364TIP3    H2 7099   4.330   2.213   1.040
 2365TIP3   OH2 7100   3.871   2.975   1.474
 2365TIP3    H1 7101   3.859   2.881   1.488
 2365TIP3    H2 7102   3.920   2.981   1.392
 2366TIP3   OH2 7103   5.970   4.494   1.811
 2366TIP3    H1 7104   5.911   4.426   1.844
 2366TIP3    H2 7105   5.970   4.561   1.879
 2367TIP3   OH2 7106   3.413   1.045   0.030
 2367TIP3    H1 7107   3.375   1.122   0.071
 2367TIP3    H2 7108   3.383   0.972   0.085
 2368TIP3   OH2 7109   1.642   4.338   3.149
 2368TIP3    H1 7110   1.686   4.364   3.068
 2368TIP3    H2 7111   1.660   4.244   3.157
 2369TIP3   OH2 7112   5.854   5.545   3.215
 2369TIP3    H1 7113   5.950   5.549   3.222
 2369TIP3    H2 7114   5.829   5.634   3.190
 2370TIP3   OH2 7115   2.547   2.791   2.037
 2370TIP3    H1 7116   2.638   2.792   2.006
 2370TIP3    H2 7117   2.537   2.706   2.079
 2371TIP3   OH2 7118   2.673   0.886   1.216
 2371TIP3    H1 7119   2.705   0.951   1.154
 2371TIP3    H2 7120   2.581   0.872   1.191
 2372TIP3   OH2 7121   0.669   0.393   1.082
 2372TIP3    H1 7122   0.636   0.375   1.170
 2372TIP3    H2 7123   0.606   0.351   1.023
 2373TIP3   OH2 7124   6.250   2.775   2.110
 2373TIP3    H1 7125   6.170   2.805   2.153
 2373TIP3    H2 7126   6.278   2.700   2.163
 2374TIP3   OH2 7127   1.690   4.769   1.278
 2374TIP3    H1 7128   1.773   4.741   1.240
 2374TIP3    H2 7129   1.626   4.707   1.243
 2375TIP3   OH2 7130   3.232   1.646   2.616
 2375TIP3    H1 7131   3.141   1.650   2.646
 2375TIP3    H2 7132   3.257   1.555   2.626
 2376TIP3   OH2 7133   5.338   4.544   3.758
 2376TIP3    H1 7134   5.339   4.457   3.718
 2376TIP3    H2 7135   5.370   4.602   3.689
 2377TIP3   OH2 7136   5.906   4.241   1.902
 2377TIP3    H1 7137   5.982   4.221   1.957
 2377TIP3    H2 7138   5.831   4.216   1.955
 2378TIP3   OH2 7139   4.478   0.201   2.101
 2378TIP3    H1 7140   4.479   0.165   2.013
 2378TIP3    H2 7141   4.393   0.245   2.108
 2379TIP3   OH2 7142   2.422   2.184   0.218
 2379TIP3    H1 7143   2.348   2.126   0.236
 2379TIP3    H2 7144   2.473   2.185   0.299
 2380TIP3   OH2 7145   2.938   5.149   2.189
 2380TIP3    H1 7146   3.031   5.148   2.211
 2380TIP3    H2 7147   2.902   5.219   2.245
 2381TIP3   OH2 7148   0.781   4.125   0.664
 2381TIP3    H1 7149   0.873   4.099   0.671
 2381TIP3    H2 7150   0.753   4.138   0.755
 2382TIP3   OH2 7151   5.143   5.185   1.186
 2382TIP3    H1 7152   5.137   5.113   1.123
 2382TIP3    H2 7153   5.109   5.261   1.139
 2383TIP3   OH2 7154   2.289   4.588   1.950
 2383TIP3    H1 7155   2.333   4.673   1.944
 2383TIP3    H2 7156   2.348   4.527   1.906
 2384TIP3   OH2 7157   4.550   2.276   4.137
 2384TIP3    H1 7158   4.541   2.315   4.224
 2384TIP3    H2 7159   4.641   2.293   4.112
 2385TIP3   OH2 7160   3.766   3.786   2.445
 2385TIP3    H1 7161   3.847   3.838   2.440
 2385TIP3    H2 7162   3.744   3.785   2.538
 2386TIP3   OH2 7163   1.212   1.246   5.041
 2386TIP3    H1 7164   1.296   1.245   5.085
 2386TIP3    H2 7165   1.232   1.227   4.949
 2387TIP3   OH2 7166   1.796   3.919   2.592
 2387TIP3    H1 7167   1.803   4.000   2.642
 2387TIP3    H2 7168   1.869   3.922   2.531
 2388TIP3   OH2 7169   5.581   4.224   0.577
 2388TIP3    H1 7170   5.578   4.184   0.490
 2388TIP3    H2 7171   5.512   4.179   0.626
 2389TIP3   OH2 7172   6.258   1.692   0.030
 2389TIP3    H1 7173   6.349   1.680   0.057
 2389TIP3    H2 7174   6.249   1.786   0.014
 2390TIP3   OH2 7175   4.147   4.991   3.188
 2390TIP3    H1 7176   4.185   5.069   3.149
 2390TIP3    H2 7177   4.077   5.023   3.244
 2391TIP3   OH2 7178   1.948   1.971   4.908
 2391TIP3    H1 7179   1.942   1.883   4.945
 2391TIP3    H2 7180   1.956   1.958   4.814
 2392TIP3   OH2 7181   5.450   5.945   1.857
 2392TIP3    H1 7182   5.489   5.977   1.776
 2392TIP3    H2 7183   5.372   5.896   1.829
 2393TIP3   OH2 7184   2.707   3.741   4.612
 2393TIP3    H1 7185   2.752   3.733   4.527
 2393TIP3    H2 7186   2.635   3.802   4.595
 2394TIP3   OH2 7187   3.132   5.081   0.234
 2394TIP3    H1 7188   3.180   5.146   0.182
 2394TIP3    H2 7189   3.180   5.000   0.221
 2395TIP3   OH2 7190   4.725   4.929   2.149
 2395TIP3    H1 7191   4.811   4.965   2.127
 2395TIP3    H2 7192   4.705   4.968   2.235
 2396TIP3   OH2 7193   1.511   2.712   3.423
 2396TIP3    H1 7194   1.514   2.755   3.338
 2396TIP3    H2 7195   1.423   2.731   3.457
 2397TIP3   OH2 7196   4.754   4.926   0.460
 2397TIP3    H1 7197   4.714   4.993   0.405
 2397TIP3    H2 7198   4.753   4.964   0.548
 2398TIP3   OH2 7199   4.437   0.557   4.984
 2398TIP3    H1 7200   4.441   0.625   4.917
 2398TIP3    H2 7201   4.347   0.524   4.979
 2399TIP3   OH2 7202   4.776   3.855   2.905
 2399TIP3    H1 7203   4.702   3.916   2.902
 2399TIP3    H2 7204   4.812   3.865   2.993
 2400TIP3   OH2 7205   5.265   2.196   1.890
 2400TIP3    H1 7206   5.308   2.189   1.975
 2400TIP3    H2 7207   5.175   2.222   1.910
 2401TIP3   OH2 7208   6.263   1.187   0.745
 2401TIP3    H1 7209   6.193   1.218   0.803
 2401TIP3    H2 7210   6.308   1.119   0.796
 2402TIP3   OH2 7211   1.772   2.022   0.659
 2402TIP3    H1 7212   1.731   2.099   0.620
 2402TIP3    H2 7213   1.754   2.031   0.753
 2403TIP3   OH2 7214   0.374   4.537   5.181
 2403TIP3    H1 7215   0.388   4.442   5.191
 2403TIP3    H2 7216   0.388   4.554   5.088
 2404TIP3   OH2 7217   1.928   3.568   4.812
 2404TIP3    H1 7218   2.009   3.618   4.809
 2404TIP3    H2 7219   1.921   3.538   4.903
 2405TIP3   OH2 7220   6.019   2.569   3.781
 2405TIP3    H1 7221   6.053   2.481   3.766
 2405TIP3    H2 7222   5.930   2.567   3.747
 2406TIP3   OH2 7223   2.354   5.031   3.008
 2406TIP3    H1 7224   2.292   5.101   2.987
 2406TIP3    H2 7225   2.301   4.952   3.013
 2407TIP3   OH2 7226   2.233   4.444   4.310
 2407TIP3    H1 7227   2.299   4.375   4.311
 2407TIP3    H2 7228   2.211   4.458   4.403
 2408TIP3   OH2 7229   1.474   5.322   1.566
 2408TIP3    H1 7230   1.455   5.228   1.567
 2408TIP3    H2 7231   1.435   5.353   1.484
 2409TIP3   OH2 7232   1.256   5.869   1.274
 2409TIP3    H1 7233   1.294   5.911   1.352
 2409TIP3    H2 7234   1.312   5.793   1.258
 2410TIP3   OH2 7235   2.642   1.540   1.728
 2410TIP3    H1 7236   2.692   1.460   1.712
 2410TIP3    H2 7237   2.706   1.602   1.763
 2411TIP3   OH2 7238   5.894   3.558   1.084
 2411TIP3    H1 7239   5.853   3.621   1.143
 2411TIP3    H2 7240   5.854   3.474   1.107
 2412TIP3   OH2 7241   0.805   3.223   2.217
 2412TIP3    H1 7242   0.849   3.202   2.300
 2412TIP3    H2 7243   0.810   3.142   2.166
 2413TIP3   OH2 7244   3.873   4.548   4.070
 2413TIP3    H1 7245   3.818   4.624   4.085
 2413TIP3    H2 7246   3.919   4.567   3.988
 2414TIP3   OH2 7247   4.247   4.329   4.310
 2414TIP3    H1 7248   4.329   4.345   4.357
 2414TIP3    H2 7249   4.191   4.286   4.375
 2415TIP3   OH2 7250   5.524   4.837   2.283
 2415TIP3    H1 7251   5.432   4.855   2.265
 2415TIP3    H2 7252   5.534   4.743   2.265
 2416TIP3   OH2 7253   4.948   0.216   3.024
 2416TIP3    H1 7254   4.909   0.153   2.963
 2416TIP3    H2 7255   4.885   0.223   3.096
 2417TIP3   OH2 7256   3.463   4.247   4.710
 2417TIP3    H1 7257   3.514   4.304   4.768
 2417TIP3    H2 7258   3.505   4.256   4.625
 2418TIP3   OH2 7259   0.826   3.475   3.409
 2418TIP3    H1 7260   0.893   3.435   3.353
 2418TIP3    H2 7261   0.825   3.420   3.488
 2419TIP3   OH2 7262   3.517   4.598   4.082
 2419TIP3    H1 7263   3.506   4.608   3.988
 2419TIP3    H2 7264   3.556   4.511   4.093
 2420TIP3   OH2 7265   4.528   2.013   2.888
 2420TIP3    H1 7266   4.618   1.996   2.915
 2420TIP3    H2 7267   4.476   1.998   2.966
 2421TIP3   OH2 7268   5.268   1.103   2.808
 2421TIP3    H1 7269   5.336   1.152   2.855
 2421TIP3    H2 7270   5.315   1.031   2.766
 2422TIP3   OH2 7271   2.599   4.113   1.087
 2422TIP3    H1 7272   2.661   4.180   1.117
 2422TIP3    H2 7273   2.577   4.063   1.165
 2423TIP3   OH2 7274   5.943   2.522   3.361
 2423TIP3    H1 7275   6.035   2.534   3.382
 2423TIP3    H2 7276   5.942   2.450   3.297
 2424TIP3   OH2 7277   4.442   4.050   2.670
 2424TIP3    H1 7278   4.512   4.017   2.614
 2424TIP3    H2 7279   4.481   4.054   2.758
 2425TIP3   OH2 7280   6.270   0.760   4.568
 2425TIP3    H1 7281   6.309   0.716   4.644
 2425TIP3    H2 7282   6.343   0.810   4.530
 2426TIP3   OH2 7283   0.014   0.171   4.318
 2426TIP3    H1 7284  -0.030   0.088   4.303
 2426TIP3    H2 7285   0.099   0.147   4.356
 2427TIP3   OH2 7286   6.076   5.373   0.155
 2427TIP3    H1 7287   5.984   5.402   0.154
 2427TIP3    H2 7288   6.111   5.402   0.070
 2428TIP3   OH2 7289   4.786   5.999   2.684
 2428TIP3    H1 7290   4.764   5.942   2.757
 2428TIP3    H2 7291   4.870   5.966   2.652
 2429TIP3   OH2 7292   2.541   0.835   3.578
 2429TIP3    H1 7293   2.571   0.900   3.514
 2429TIP3    H2 7294   2.481   0.884   3.635
 2430TIP3   OH2 7295   4.513   0.612   2.966
 2430TIP3    H1 7296   4.431   0.564   2.972
 2430TIP3    H2 7297   4.563   0.585   3.044
 2431TIP3   OH2 7298   2.851   0.844   4.647
 2431TIP3    H1 7299   2.849   0.749   4.635
 2431TIP3    H2 7300   2.785   0.877   4.586
 2432TIP3   OH2 7301   3.196   3.937   2.210
 2432TIP3    H1 7302   3.236   4.011   2.164
 2432TIP3    H2 7303   3.258   3.915   2.279
 2433TIP3   OH2 7304   1.988   5.419   4.309
 2433TIP3    H1 7305   2.034   5.362   4.247
 2433TIP3    H2 7306   2.058   5.464   4.357
 2434TIP3   OH2 7307   3.220   2.033   2.602
 2434TIP3    H1 7308   3.170   1.993   2.673
 2434TIP3    H2 7309   3.160   2.095   2.562
 2435TIP3   OH2 7310   5.258   2.757   1.064
 2435TIP3    H1 7311   5.231   2.667   1.048
 2435TIP3    H2 7312   5.311   2.780   0.987
 2436TIP3   OH2 7313   3.322   4.519   4.276
 2436TIP3    H1 7314   3.323   4.591   4.213
 2436TIP3    H2 7315   3.244   4.468   4.253
 2437TIP3   OH2 7316   1.306   4.092   4.808
 2437TIP3    H1 7317   1.372   4.100   4.739
 2437TIP3    H2 7318   1.351   4.046   4.879
 2438TIP3   OH2 7319   4.366   0.734   4.555
 2438TIP3    H1 7320   4.346   0.641   4.556
 2438TIP3    H2 7321   4.328   0.768   4.635
 2439TIP3   OH2 7322   2.204   2.894   3.395
 2439TIP3    H1 7323   2.205   2.989   3.405
 2439TIP3    H2 7324   2.296   2.871   3.380
 2440TIP3   OH2 7325   3.705   1.019   3.523
 2440TIP3    H1 7326   3.755   0.942   3.553
 2440TIP3    H2 7327   3.701   1.075   3.600
 2441TIP3   OH2 7328   5.669   2.483   2.521
 2441TIP3    H1 7329   5.719   2.436   2.587
 2441TIP3    H2 7330   5.616   2.545   2.571
 2442TIP3   OH2 7331   1.567   1.006   3.194
 2442TIP3    H1 7332   1.597   1.091   3.163
 2442TIP3    H2 7333   1.493   0.984   3.137
 2443TIP3   OH2 7334   2.714   3.544   4.933
 2443TIP3    H1 7335   2.715   3.460   4.887
 2443TIP3    H2 7336   2.622   3.559   4.954
 2444TIP3   OH2 7337   3.364   3.775   2.969
 2444TIP3    H1 7338   3.311   3.801   2.894
 2444TIP3    H2 7339   3.412   3.698   2.938
 2445TIP3   OH2 7340   5.366   0.072   0.531
 2445TIP3    H1 7341   5.452   0.108   0.509
 2445TIP3    H2 7342   5.308   0.106   0.464
 2446TIP3   OH2 7343   1.713   2.188   3.970
 2446TIP3    H1 7344   1.723   2.238   4.051
 2446TIP3    H2 7345   1.773   2.231   3.909
 2447TIP3   OH2 7346   1.425   2.681   1.757
 2447TIP3    H1 7347   1.392   2.740   1.689
 2447TIP3    H2 7348   1.355   2.616   1.768
 2448TIP3   OH2 7349   0.920   2.797   0.918
 2448TIP3    H1 7350   0.935   2.827   1.008
 2448TIP3    H2 7351   0.966   2.713   0.912
 2449TIP3   OH2 7352   3.925   5.620   1.821
 2449TIP3    H1 7353   3.890   5.678   1.754
 2449TIP3    H2 7354   3.848   5.583   1.864
 2450TIP3   OH2 7355   2.615   1.028   1.626
 2450TIP3    H1 7356   2.535   1.069   1.593
 2450TIP3    H2 7357   2.584   0.955   1.679
 2451TIP3   OH2 7358   6.077   1.296   3.683
 2451TIP3    H1 7359   6.060   1.374   3.630
 2451TIP3    H2 7360   6.164   1.268   3.658
 2452TIP3   OH2 7361   0.771   3.193   4.844
 2452TIP3    H1 7362   0.831   3.243   4.790
 2452TIP3    H2 7363   0.698   3.172   4.785
 2453TIP3   OH2 7364   4.267   5.739   0.612
 2453TIP3    H1 7365   4.219   5.772   0.537
 2453TIP3    H2 7366   4.200   5.703   0.670
 2454TIP3   OH2 7367   4.369   5.139   1.400
 2454TIP3    H1 7368   4.321   5.094   1.331
 2454TIP3    H2 7369   4.373   5.076   1.472
 2455TIP3   OH2 7370   4.531   3.832   1.131
 2455TIP3    H1 7371   4.604   3.827   1.068
 2455TIP3    H2 7372   4.493   3.744   1.130
 2456TIP3   OH2 7373   4.258   4.833   1.288
 2456TIP3    H1 7374   4.275   4.765   1.223
 2456TIP3    H2 7375   4.329   4.825   1.351
 2457TIP3   OH2 7376   2.648   5.133   5.133
 2457TIP3    H1 7377   2.558   5.112   5.109
 2457TIP3    H2 7378   2.675   5.061   5.190
 2458TIP3   OH2 7379   3.015   4.851   1.604
 2458TIP3    H1 7380   3.022   4.927   1.546
 2458TIP3    H2 7381   3.098   4.849   1.651
 2459TIP3   OH2 7382   6.280   4.489   1.425
 2459TIP3    H1 7383   6.191   4.518   1.443
 2459TIP3    H2 7384   6.335   4.550   1.474
 2460TIP3   OH2 7385   1.083   0.970   0.495
 2460TIP3    H1 7386   1.092   0.914   0.573
 2460TIP3    H2 7387   1.067   1.057   0.531
 2461TIP3   OH2 7388   6.332   4.183   3.710
 2461TIP3    H1 7389   6.358   4.101   3.667
 2461TIP3    H2 7390   6.240   4.169   3.733
 2462TIP3   OH2 7391   6.126   1.538   4.038
 2462TIP3    H1 7392   6.165   1.532   3.951
 2462TIP3    H2 7393   6.056   1.473   4.037
 2463TIP3   OH2 7394   0.074   3.282   3.161
 2463TIP3    H1 7395   0.117   3.210   3.115
 2463TIP3    H2 7396  -0.015   3.285   3.124
 2464TIP3   OH2 7397   0.022   2.208   1.600
 2464TIP3    H1 7398   0.029   2.189   1.507
 2464TIP3    H2 7399   0.075   2.287   1.612
 2465TIP3   OH2 7400   6.227   3.784   0.248
 2465TIP3    H1 7401   6.249   3.824   0.333
 2465TIP3    H2 7402   6.259   3.846   0.183
 2466TIP3   OH2 7403   1.506   3.970   2.117
 2466TIP3    H1 7404   1.485   3.887   2.074
 2466TIP3    H2 7405   1.550   4.022   2.050
 2467TIP3   OH2 7406   1.999   2.963   2.777
 2467TIP3    H1 7407   2.060   3.034   2.761
 2467TIP3    H2 7408   1.972   2.935   2.690
 2468TIP3   OH2 7409   1.239   0.114   1.390
 2468TIP3    H1 7410   1.189   0.155   1.319
 2468TIP3    H2 7411   1.182   0.044   1.422
 2469TIP3   OH2 7412   5.810   0.074   1.523
 2469TIP3    H1 7413   5.754  -0.004   1.519
 2469TIP3    H2 7414   5.760   0.142   1.478
 2470TIP3   OH2 7415   4.603   5.361   2.854
 2470TIP3    H1 7416   4.571   5.414   2.927
 2470TIP3    H2 7417   4.530   5.303   2.833
 2471TIP3   OH2 7418   4.742   3.105   1.033
 2471TIP3    H1 7419   4.719   3.196   1.049
 2471TIP3    H2 7420   4.822   3.091   1.083
 2472TIP3   OH2 7421   2.447   3.657   4.754
 2472TIP3    H1 7422   2.413   3.680   4.667
 2472TIP3    H2 7423   2.541   3.674   4.748
 2473TIP3   OH2 7424   2.142   5.934   2.822
 2473TIP3    H1 7425   2.056   5.910   2.788
 2473TIP3    H2 7426   2.162   5.866   2.886
 2474TIP3   OH2 7427   2.178   0.030   4.508
 2474TIP3    H1 7428   2.141   0.108   4.549
 2474TIP3    H2 7429   2.266   0.056   4.481
 2475TIP3   OH2 7430   5.524   1.075   4.072
 2475TIP3    H1 7431   5.578   1.073   3.993
 2475TIP3    H2 7432   5.559   1.005   4.127
 2476TIP3   OH2 7433   4.680   2.036   0.302
 2476TIP3    H1 7434   4.658   1.947   0.327
 2476TIP3    H2 7435   4.665   2.039   0.207
 2477TIP3   OH2 7436   0.032   0.970   2.416
 2477TIP3    H1 7437   0.116   0.977   2.461
 2477TIP3    H2 7438   0.036   1.034   2.346
 2478TIP3   OH2 7439   0.444   2.788   4.718
 2478TIP3    H1 7440   0.378   2.755   4.779
 2478TIP3    H2 7441   0.407   2.768   4.631
 2479TIP3   OH2 7442   4.359   2.834   4.377
 2479TIP3    H1 7443   4.361   2.926   4.350
 2479TIP3    H2 7444   4.451   2.810   4.389
 2480TIP3   OH2 7445   6.153   3.648   1.050
 2480TIP3    H1 7446   6.079   3.592   1.072
 2480TIP3    H2 7447   6.193   3.605   0.974
 2481TIP3   OH2 7448   3.639   3.224   1.909
 2481TIP3    H1 7449   3.705   3.262   1.967
 2481TIP3    H2 7450   3.688   3.193   1.833
 2482TIP3   OH2 7451   5.917   3.215   3.901
 2482TIP3    H1 7452   5.902   3.187   3.811
 2482TIP3    H2 7453   5.850   3.282   3.917
 2483TIP3   OH2 7454   6.218   3.167   3.386
 2483TIP3    H1 7455   6.286   3.154   3.452
 2483TIP3    H2 7456   6.232   3.098   3.322
 2484TIP3   OH2 7457   2.832   4.907   2.540
 2484TIP3    H1 7458   2.767   4.898   2.471
 2484TIP3    H2 7459   2.861   4.817   2.557
 2485TIP3   OH2 7460   0.897   3.107   0.550
 2485TIP3    H1 7461   0.915   3.047   0.478
 2485TIP3    H2 7462   0.803   3.096   0.568
 2486TIP3   OH2 7463   5.005   3.004   3.721
 2486TIP3    H1 7464   4.999   3.071   3.789
 2486TIP3    H2 7465   4.920   2.961   3.723
 2487TIP3   OH2 7466   0.628   2.947   3.806
 2487TIP3    H1 7467   0.544   2.913   3.776
 2487TIP3    H2 7468   0.620   3.042   3.798
 2488TIP3   OH2 7469   1.914   3.972   1.973
 2488TIP3    H1 7470   1.828   4.011   1.957
 2488TIP3    H2 7471   1.924   3.976   2.069
 2489TIP3   OH2 7472   2.430   0.286   2.809
 2489TIP3    H1 7473   2.493   0.346   2.849
 2489TIP3    H2 7474   2.447   0.293   2.715
 2490TIP3   OH2 7475   2.930   3.112   5.092
 2490TIP3    H1 7476   2.872   3.178   5.132
 2490TIP3    H2 7477   2.895   3.028   5.122
 2491TIP3   OH2 7478   3.645   2.823   4.843
 2491TIP3    H1 7479   3.718   2.882   4.830
 2491TIP3    H2 7480   3.613   2.843   4.931
 2492TIP3   OH2 7481   3.106   5.830   3.800
 2492TIP3    H1 7482   3.116   5.785   3.884
 2492TIP3    H2 7483   3.191   5.871   3.784
 2493TIP3   OH2 7484   1.976   0.650   0.249
 2493TIP3    H1 7485   2.055   0.698   0.224
 2493TIP3    H2 7486   1.906   0.689   0.195
 2494TIP3   OH2 7487   5.199   4.871   3.528
 2494TIP3    H1 7488   5.256   4.797   3.504
 2494TIP3    H2 7489   5.246   4.915   3.599
 2495TIP3   OH2 7490   0.413   3.096   1.807
 2495TIP3    H1 7491   0.370   3.179   1.825
 2495TIP3    H2 7492   0.397   3.079   1.715
 2496TIP3   OH2 7493   4.897   0.922   1.071
 2496TIP3    H1 7494   4.810   0.959   1.062
 2496TIP3    H2 7495   4.943   0.948   0.991
 2497TIP3   OH2 7496   2.002   5.008   4.120
 2497TIP3    H1 7497   1.958   4.967   4.195
 2497TIP3    H2 7498   1.938   5.070   4.085
 2498TIP3   OH2 7499   0.469   5.559   0.378
 2498TIP3    H1 7500   0.459   5.520   0.465
 2498TIP3    H2 7501   0.556   5.530   0.349
 2499TIP3   OH2 7502   4.519   3.384   1.745
 2499TIP3    H1 7503   4.464   3.459   1.766
 2499TIP3    H2 7504   4.461   3.323   1.701
 2500TIP3   OH2 7505   1.082   2.139   0.730
 2500TIP3    H1 7506   1.171   2.142   0.766
 2500TIP3    H2 7507   1.026   2.137   0.808
 2501TIP3   OH2 7508   2.062   2.444   3.225
 2501TIP3    H1 7509   2.133   2.487   3.274
 2501TIP3    H2 7510   2.021   2.386   3.289
 2502TIP3   OH2 7511   5.646   3.210   2.852
 2502TIP3    H1 7512   5.675   3.297   2.825
 2502TIP3    H2 7513   5.720   3.174   2.901
 2503TIP3   OH2 7514   3.660   4.192   1.035
 2503TIP3    H1 7515   3.674   4.102   1.005
 2503TIP3    H2 7516   3.698   4.247   0.966
 2504TIP3   OH2 7517   5.125   3.028   2.542
 2504TIP3    H1 7518   5.188   3.099   2.528
 2504TIP3    H2 7519   5.171   2.964   2.595
 2505TIP3   OH2 7520   1.999   4.910   2.758
 2505TIP3    H1 7521   2.001   5.000   2.725
 2505TIP3    H2 7522   2.049   4.860   2.693
 2506TIP3   OH2 7523   6.150   1.065   0.527
 2506TIP3    H1 7524   6.179   1.112   0.605
 2506TIP3    H2 7525   6.198   0.982   0.529
 2507TIP3   OH2 7526   0.725   4.074   2.023
 2507TIP3    H1 7527   0.669   4.019   2.077
 2507TIP3    H2 7528   0.813   4.060   2.058
 2508TIP3   OH2 7529   5.011   2.691   3.796
 2508TIP3    H1 7530   5.025   2.629   3.724
 2508TIP3    H2 7531   5.022   2.777   3.756
 2509TIP3   OH2 7532   5.171   5.166   0.316
 2509TIP3    H1 7533   5.140   5.097   0.374
 2509TIP3    H2 7534   5.212   5.119   0.243
 2510TIP3   OH2 7535   4.761   3.481   5.098
 2510TIP3    H1 7536   4.814   3.505   5.173
 2510TIP3    H2 7537   4.683   3.535   5.105
 2511TIP3   OH2 7538   1.649   3.327   0.841
 2511TIP3    H1 7539   1.620   3.375   0.919
 2511TIP3    H2 7540   1.576   3.334   0.780
 2512TIP3   OH2 7541   2.945   4.139   0.784
 2512TIP3    H1 7542   3.022   4.105   0.740
 2512TIP3    H2 7543   2.877   4.141   0.717
 2513TIP3   OH2 7544   1.932   5.851   0.904
 2513TIP3    H1 7545   1.844   5.880   0.930
 2513TIP3    H2 7546   1.922   5.757   0.888
 2514TIP3   OH2 7547   3.139   4.659   1.939
 2514TIP3    H1 7548   3.164   4.739   1.893
 2514TIP3    H2 7549   3.113   4.688   2.026
 2515TIP3   OH2 7550   5.569   1.755   1.904
 2515TIP3    H1 7551   5.567   1.837   1.953
 2515TIP3    H2 7552   5.488   1.756   1.852
 2516TIP3   OH2 7553   4.638   5.434   0.587
 2516TIP3    H1 7554   4.734   5.438   0.590
 2516TIP3    H2 7555   4.615   5.367   0.651
 2517TIP3   OH2 7556   4.485   2.699   0.418
 2517TIP3    H1 7557   4.476   2.772   0.357
 2517TIP3    H2 7558   4.474   2.738   0.504
 2518TIP3   OH2 7559   0.743   1.316   0.186
 2518TIP3    H1 7560   0.721   1.392   0.131
 2518TIP3    H2 7561   0.830   1.337   0.221
 2519TIP3   OH2 7562   3.171   0.662   1.871
 2519TIP3    H1 7563   3.150   0.664   1.964
 2519TIP3    H2 7564   3.090   0.634   1.828
 2520TIP3   OH2 7565   1.100   3.744   0.161
 2520TIP3    H1 7566   1.067   3.785   0.241
 2520TIP3    H2 7567   1.021   3.721   0.112
 2521TIP3   OH2 7568   0.622   2.304   0.158
 2521TIP3    H1 7569   0.612   2.265   0.072
 2521TIP3    H2 7570   0.654   2.233   0.213
 2522TIP3   OH2 7571   1.246   2.886   3.125
 2522TIP3    H1 7572   1.319   2.896   3.064
 2522TIP3    H2 7573   1.198   2.810   3.094
 2523TIP3   OH2 7574   2.379   5.063   2.462
 2523TIP3    H1 7575   2.412   5.153   2.462
 2523TIP3    H2 7576   2.454   5.011   2.433
 2524TIP3   OH2 7577   1.850   4.323   1.988
 2524TIP3    H1 7578   1.836   4.322   1.893
 2524TIP3    H2 7579   1.867   4.415   2.008
 2525TIP3   OH2 7580   0.120   4.849   3.128
 2525TIP3    H1 7581   0.044   4.877   3.179
 2525TIP3    H2 7582   0.181   4.815   3.194
 2526TIP3   OH2 7583   0.112   1.364   1.587
 2526TIP3    H1 7584   0.163   1.315   1.522
 2526TIP3    H2 7585   0.158   1.448   1.595
 2527TIP3   OH2 7586   0.020   5.068   2.130
 2527TIP3    H1 7587  -0.003   5.100   2.217
 2527TIP3    H2 7588   0.046   4.977   2.144
 2528TIP3   OH2 7589   0.195   1.914   4.825
 2528TIP3    H1 7590   0.112   1.911   4.778
 2528TIP3    H2 7591   0.241   1.989   4.787
 2529TIP3   OH2 7592   5.598   4.784   5.125
 2529TIP3    H1 7593   5.606   4.745   5.038
 2529TIP3    H2 7594   5.524   4.845   5.117
 2530TIP3   OH2 7595   3.573   4.375   3.174
 2530TIP3    H1 7596   3.527   4.298   3.208
 2530TIP3    H2 7597   3.621   4.410   3.249
 2531TIP3   OH2 7598   3.681   0.453   4.005
 2531TIP3    H1 7599   3.604   0.499   4.039
 2531TIP3    H2 7600   3.752   0.517   4.013
 2532TIP3   OH2 7601   1.286   2.623   1.362
 2532TIP3    H1 7602   1.349   2.552   1.370
 2532TIP3    H2 7603   1.334   2.693   1.316
 2533TIP3   OH2 7604   5.193   5.788   1.737
 2533TIP3    H1 7605   5.115   5.743   1.704
 2533TIP3    H2 7606   5.240   5.814   1.658
 2534TIP3   OH2 7607   0.793   4.434   2.265
 2534TIP3    H1 7608   0.759   4.350   2.294
 2534TIP3    H2 7609   0.719   4.495   2.275
 2535TIP3   OH2 7610   1.178   3.491   0.856
 2535TIP3    H1 7611   1.247   3.548   0.890
 2535TIP3    H2 7612   1.224   3.423   0.808
 2536TIP3   OH2 7613   3.576   0.793   0.604
 2536TIP3    H1 7614   3.530   0.769   0.685
 2536TIP3    H2 7615   3.586   0.710   0.556
 2537TIP3   OH2 7616   5.497   4.532   3.184
 2537TIP3    H1 7617   5.525   4.621   3.206
 2537TIP3    H2 7618   5.522   4.480   3.260
 2538TIP3   OH2 7619   0.575   1.341   0.599
 2538TIP3    H1 7620   0.596   1.384   0.682
 2538TIP3    H2 7621   0.481   1.323   0.603
 2539TIP3   OH2 7622   3.327   2.009   3.705
 2539TIP3    H1 7623   3.364   2.074   3.765
 2539TIP3    H2 7624   3.397   1.946   3.692
 2540TIP3   OH2 7625   2.951   2.917   2.840
 2540TIP3    H1 7626   2.890   2.943   2.910
 2540TIP3    H2 7627   2.992   2.837   2.873
 2541TIP3   OH2 7628   4.793   5.537   1.222
 2541TIP3    H1 7629   4.730   5.566   1.288
 2541TIP3    H2 7630   4.788   5.604   1.153
 2542TIP3   OH2 7631   2.330   3.477   4.324
 2542TIP3    H1 7632   2.377   3.393   4.318
 2542TIP3    H2 7633   2.284   3.473   4.408
 2543TIP3   OH2 7634   1.352   0.488   4.361
 2543TIP3    H1 7635   1.368   0.580   4.342
 2543TIP3    H2 7636   1.313   0.453   4.281
 2544TIP3   OH2 7637   1.906   2.860   1.973
 2544TIP3    H1 7638   1.913   2.947   1.934
 2544TIP3    H2 7639   1.812   2.848   1.989
 2545TIP3   OH2 7640   4.184   0.588   2.741
 2545TIP3    H1 7641   4.137   0.663   2.706
 2545TIP3    H2 7642   4.260   0.579   2.683
 2546TIP3   OH2 7643   3.250   1.528   4.980
 2546TIP3    H1 7644   3.263   1.517   5.074
 2546TIP3    H2 7645   3.280   1.617   4.962
 2547TIP3   OH2 7646   4.532   2.964   0.280
 2547TIP3    H1 7647   4.444   2.954   0.244
 2547TIP3    H2 7648   4.518   3.000   0.368
 2548TIP3   OH2 7649   4.465   1.337   3.031
 2548TIP3    H1 7650   4.377   1.364   3.006
 2548TIP3    H2 7651   4.457   1.315   3.124
 2549TIP3   OH2 7652   3.456   3.367   5.130
 2549TIP3    H1 7653   3.404   3.445   5.150
 2549TIP3    H2 7654   3.528   3.400   5.076
 2550TIP3   OH2 7655   1.201   0.927   0.057
 2550TIP3    H1 7656   1.208   0.908   0.150
 2550TIP3    H2 7657   1.214   1.022   0.051
 2551TIP3   OH2 7658   0.609   5.756   2.886
 2551TIP3    H1 7659   0.555   5.763   2.807
 2551TIP3    H2 7660   0.610   5.845   2.922
 2552TIP3   OH2 7661   2.946   1.985   1.957
 2552TIP3    H1 7662   2.929   1.971   1.863
 2552TIP3    H2 7663   3.036   1.957   1.969
 2553TIP3   OH2 7664   4.140   4.295   5.125
 2553TIP3    H1 7665   4.167   4.383   5.150
 2553TIP3    H2 7666   4.212   4.239   5.154
 2554TIP3   OH2 7667   4.367   3.828   4.094
 2554TIP3    H1 7668   4.459   3.848   4.113
 2554TIP3    H2 7669   4.319   3.865   4.168
 2555TIP3   OH2 7670   3.662   1.468   0.097
 2555TIP3    H1 7671   3.726   1.478   0.027
 2555TIP3    H2 7672   3.657   1.373   0.111
 2556TIP3   OH2 7673   4.394   3.233   4.033
 2556TIP3    H1 7674   4.368   3.163   3.973
 2556TIP3    H2 7675   4.323   3.237   4.097
 2557TIP3   OH2 7676   3.203   4.046   1.603
 2557TIP3    H1 7677   3.128   3.991   1.577
 2557TIP3    H2 7678   3.175   4.086   1.686
 2558TIP3   OH2 7679   2.498   0.776   2.388
 2558TIP3    H1 7680   2.448   0.856   2.376
 2558TIP3    H2 7681   2.540   0.787   2.473
 2559TIP3   OH2 7682   5.960   1.288   4.862
 2559TIP3    H1 7683   5.927   1.378   4.854
 2559TIP3    H2 7684   5.903   1.247   4.927
 2560TIP3   OH2 7685   2.932   2.773   2.082
 2560TIP3    H1 7686   2.914   2.757   2.175
 2560TIP3    H2 7687   2.992   2.847   2.081
 2561TIP3   OH2 7688   0.286   3.387   4.507
 2561TIP3    H1 7689   0.287   3.381   4.411
 2561TIP3    H2 7690   0.224   3.458   4.526
 2562TIP3   OH2 7691   2.814   1.575   1.124
 2562TIP3    H1 7692   2.845   1.659   1.158
 2562TIP3    H2 7693   2.725   1.566   1.160
 2563TIP3   OH2 7694   4.410   0.412   2.402
 2563TIP3    H1 7695   4.416   0.464   2.482
 2563TIP3    H2 7696   4.500   0.384   2.385
 2564TIP3   OH2 7697   3.191   4.604   3.831
 2564TIP3    H1 7698   3.177   4.680   3.775
 2564TIP3    H2 7699   3.145   4.626   3.913
 2565TIP3   OH2 7700   1.429   2.704   2.262
 2565TIP3    H1 7701   1.433   2.609   2.254
 2565TIP3    H2 7702   1.346   2.721   2.306
 2566TIP3   OH2 7703   5.954   2.965   1.991
 2566TIP3    H1 7704   6.031   3.021   1.985
 2566TIP3    H2 7705   5.947   2.944   2.084
 2567TIP3   OH2 7706   4.210   3.206   4.245
 2567TIP3    H1 7707   4.126   3.166   4.268
 2567TIP3    H2 7708   4.267   3.188   4.321
 2568TIP3   OH2 7709   3.832   2.193   5.009
 2568TIP3    H1 7710   3.827   2.140   5.089
 2568TIP3    H2 7711   3.882   2.270   5.035
 2569TIP3   OH2 7712   5.245   4.155   0.718
 2569TIP3    H1 7713   5.187   4.172   0.644
 2569TIP3    H2 7714   5.222   4.067   0.747
 2570TIP3   OH2 7715   3.029   2.405   0.751
 2570TIP3    H1 7716   2.964   2.475   0.759
 2570TIP3    H2 7717   3.011   2.365   0.666
 2571TIP3   OH2 7718   0.703   1.696   1.282
 2571TIP3    H1 7719   0.754   1.777   1.275
 2571TIP3    H2 7720   0.712   1.670   1.374
 2572TIP3   OH2 7721   4.189   1.506   2.675
 2572TIP3    H1 7722   4.107   1.473   2.639
 2572TIP3    H2 7723   4.240   1.534   2.599
 2573TIP3   OH2 7724   0.492   4.601   4.177
 2573TIP3    H1 7725   0.443   4.566   4.102
 2573TIP3    H2 7726   0.573   4.552   4.177
 2574TIP3   OH2 7727   0.939   4.132   5.159
 2574TIP3    H1 7728   1.006   4.185   5.117
 2574TIP3    H2 7729   0.856   4.176   5.137
 2575TIP3   OH2 7730   3.557   4.899   1.743
 2575TIP3    H1 7731   3.631   4.848   1.710
 2575TIP3    H2 7732   3.581   4.920   1.834
 2576TIP3   OH2 7733   3.127   1.446   4.135
 2576TIP3    H1 7734   3.110   1.536   4.108
 2576TIP3    H2 7735   3.072   1.433   4.212
 2577TIP3   OH2 7736   1.304   3.609   4.451
 2577TIP3    H1 7737   1.389   3.626   4.490
 2577TIP3    H2 7738   1.254   3.566   4.520
 2578TIP3   OH2 7739   1.788   4.683   3.102
 2578TIP3    H1 7740   1.788   4.602   3.050
 2578TIP3    H2 7741   1.798   4.753   3.038
 2579TIP3   OH2 7742   4.049   2.884   3.207
 2579TIP3    H1 7743   4.062   2.923   3.293
 2579TIP3    H2 7744   4.006   2.952   3.155
 2580TIP3   OH2 7745   1.342   4.272   3.947
 2580TIP3    H1 7746   1.389   4.352   3.921
 2580TIP3    H2 7747   1.249   4.297   3.943
 2581TIP3   OH2 7748   3.066   2.111   0.674
 2581TIP3    H1 7749   2.972   2.092   0.673
 2581TIP3    H2 7750   3.085   2.134   0.765
 2582TIP3   OH2 7751   0.265   5.444   0.181
 2582TIP3    H1 7752   0.212   5.407   0.251
 2582TIP3    H2 7753   0.341   5.481   0.226
 2583TIP3   OH2 7754   5.877   5.126   0.771
 2583TIP3    H1 7755   5.869   5.066   0.696
 2583TIP3    H2 7756   5.828   5.204   0.745
 2584TIP3   OH2 7757   4.375   1.170   0.267
 2584TIP3    H1 7758   4.355   1.085   0.227
 2584TIP3    H2 7759   4.326   1.233   0.214
 2585TIP3   OH2 7760   5.986   0.849   1.679
 2585TIP3    H1 7761   5.896   0.860   1.710
 2585TIP3    H2 7762   5.986   0.888   1.592
 2586TIP3   OH2 7763   3.171   5.852   4.426
 2586TIP3    H1 7764   3.178   5.760   4.452
 2586TIP3    H2 7765   3.223   5.860   4.347
 2587TIP3   OH2 7766   2.462   3.254   3.801
 2587TIP3    H1 7767   2.385   3.301   3.834
 2587TIP3    H2 7768   2.475   3.183   3.863
 2588TIP3   OH2 7769   2.076   2.396   0.164
 2588TIP3    H1 7770   2.169   2.420   0.167
 2588TIP3    H2 7771   2.072   2.311   0.207
 2589TIP3   OH2 7772   4.700   3.609   3.433
 2589TIP3    H1 7773   4.631   3.669   3.460
 2589TIP3    H2 7774   4.751   3.594   3.513
 2590TIP3   OH2 7775   2.068   1.036   1.385
 2590TIP3    H1 7776   1.996   1.040   1.322
 2590TIP3    H2 7777   2.046   0.962   1.442
 2591TIP3   OH2 7778   2.851   3.212   3.649
 2591TIP3    H1 7779   2.912   3.148   3.686
 2591TIP3    H2 7780   2.855   3.198   3.555
 2592TIP3   OH2 7781   2.332   0.711   4.777
 2592TIP3    H1 7782   2.262   0.703   4.842
 2592TIP3    H2 7783   2.413   0.711   4.829
 2593TIP3   OH2 7784   5.747   3.076   2.504
 2593TIP3    H1 7785   5.814   3.009   2.517
 2593TIP3    H2 7786   5.778   3.151   2.554
 2594TIP3   OH2 7787   0.331   0.408   0.648
 2594TIP3    H1 7788   0.373   0.349   0.585
 2594TIP3    H2 7789   0.402   0.435   0.706
 2595TIP3   OH2 7790   5.014   5.595   3.318
 2595TIP3    H1 7791   5.008   5.547   3.400
 2595TIP3    H2 7792   5.049   5.531   3.255
 2596TIP3   OH2 7793   0.590   5.188   2.050
 2596TIP3    H1 7794   0.638   5.117   2.008
 2596TIP3    H2 7795   0.498   5.163   2.044
 2597TIP3   OH2 7796   4.553   4.485   1.309
 2597TIP3    H1 7797   4.588   4.565   1.271
 2597TIP3    H2 7798   4.615   4.462   1.378
 2598TIP3   OH2 7799   3.839   1.201   0.962
 2598TIP3    H1 7800   3.751   1.229   0.935
 2598TIP3    H2 7801   3.893   1.280   0.955
 2599TIP3   OH2 7802   4.111   3.395   3.003
 2599TIP3    H1 7803   4.077   3.350   2.926
 2599TIP3    H2 7804   4.035   3.401   3.062
 2600TIP3   OH2 7805   3.880   5.098   3.887
 2600TIP3    H1 7806   3.886   5.171   3.949
 2600TIP3    H2 7807   3.792   5.105   3.851
 2601TIP3   OH2 7808   4.917   2.192   0.297
 2601TIP3    H1 7809   4.967   2.156   0.224
 2601TIP3    H2 7810   4.830   2.154   0.287
 2602TIP3   OH2 7811   4.433   3.939   0.441
 2602TIP3    H1 7812   4.429   3.916   0.348
 2602TIP3    H2 7813   4.407   3.859   0.486
 2603TIP3   OH2 7814   2.989   4.358   4.970
 2603TIP3    H1 7815   2.932   4.353   4.894
 2603TIP3    H2 7816   3.068   4.402   4.939
 2604TIP3   OH2 7817   1.042   3.314   3.298
 2604TIP3    H1 7818   1.051   3.375   3.226
 2604TIP3    H2 7819   1.089   3.236   3.270
 2605TIP3   OH2 7820   0.605   3.657   2.872
 2605TIP3    H1 7821   0.585   3.610   2.791
 2605TIP3    H2 7822   0.643   3.740   2.843
 2606TIP3   OH2 7823   2.659   4.018   1.346
 2606TIP3    H1 7824   2.707   3.992   1.425
 2606TIP3    H2 7825   2.712   4.089   1.308
 2607TIP3   OH2 7826   3.944   2.267   4.086
 2607TIP3    H1 7827   3.948   2.308   3.999
 2607TIP3    H2 7828   3.996   2.324   4.142
 2608TIP3   OH2 7829   3.758   4.306   1.305
 2608TIP3    H1 7830   3.743   4.397   1.331
 2608TIP3    H2 7831   3.711   4.297   1.222
 2609TIP3   OH2 7832   0.767   2.458   3.140
 2609TIP3    H1 7833   0.837   2.402   3.106
 2609TIP3    H2 7834   0.764   2.439   3.234
 2610TIP3   OH2 7835   5.341   5.276   2.278
 2610TIP3    H1 7836   5.386   5.204   2.234
 2610TIP3    H2 7837   5.255   5.241   2.300
 2611TIP3   OH2 7838   5.210   4.256   4.203
 2611TIP3    H1 7839   5.226   4.350   4.204
 2611TIP3    H2 7840   5.203   4.231   4.295
 2612TIP3   OH2 7841   3.093   1.895   2.332
 2612TIP3    H1 7842   3.004   1.875   2.360
 2612TIP3    H2 7843   3.132   1.940   2.408
 2613TIP3   OH2 7844   6.213   3.787   3.345
 2613TIP3    H1 7845   6.281   3.741   3.297
 2613TIP3    H2 7846   6.189   3.727   3.416
 2614TIP3   OH2 7847   5.398   5.204   0.048
 2614TIP3    H1 7848   5.481   5.169   0.014
 2614TIP3    H2 7849   5.342   5.127   0.058
 2615TIP3   OH2 7850   3.999   2.604   3.319
 2615TIP3    H1 7851   4.022   2.564   3.234
 2615TIP3    H2 7852   3.989   2.697   3.299
 2616TIP3   OH2 7853   0.452   5.170   4.520
 2616TIP3    H1 7854   0.496   5.098   4.475
 2616TIP3    H2 7855   0.522   5.216   4.566
 2617TIP3   OH2 7856   2.415   4.579   3.383
 2617TIP3    H1 7857   2.429   4.656   3.326
 2617TIP3    H2 7858   2.388   4.616   3.467
 2618TIP3   OH2 7859   5.682   2.566   3.327
 2618TIP3    H1 7860   5.632   2.534   3.402
 2618TIP3    H2 7861   5.773   2.562   3.354
 2619TIP3   OH2 7862   4.271   1.220   2.523
 2619TIP3    H1 7863   4.348   1.257   2.567
 2619TIP3    H2 7864   4.239   1.291   2.468
 2620TIP3   OH2 7865   4.772   0.430   3.402
 2620TIP3    H1 7866   4.767   0.349   3.351
 2620TIP3    H2 7867   4.743   0.404   3.490
 2621TIP3   OH2 7868   4.952   0.412   3.668
 2621TIP3    H1 7869   4.971   0.385   3.758
 2621TIP3    H2 7870   4.861   0.442   3.671
 2622TIP3   OH2 7871   0.177   0.710   4.326
 2622TIP3    H1 7872   0.175   0.788   4.383
 2622TIP3    H2 7873   0.241   0.732   4.259
 2623TIP3   OH2 7874   1.249   2.818   3.380
 2623TIP3    H1 7875   1.257   2.904   3.423
 2623TIP3    H2 7876   1.258   2.838   3.286
 2624TIP3   OH2 7877   0.193   2.523   0.883
 2624TIP3    H1 7878   0.168   2.431   0.885
 2624TIP3    H2 7879   0.110   2.570   0.893
 2625TIP3   OH2 7880   3.857   4.643   2.533
 2625TIP3    H1 7881   3.779   4.590   2.547
 2625TIP3    H2 7882   3.926   4.596   2.579
 2626TIP3   OH2 7883   2.499   5.794   2.909
 2626TIP3    H1 7884   2.533   5.796   2.999
 2626TIP3    H2 7885   2.576   5.811   2.854
 2627TIP3   OH2 7886   6.066   4.251   4.232
 2627TIP3    H1 7887   6.060   4.344   4.208
 2627TIP3    H2 7888   6.152   4.243   4.274
 2628TIP3   OH2 7889   1.016   0.791   3.328
 2628TIP3    H1 7890   1.057   0.875   3.311
 2628TIP3    H2 7891   1.088   0.729   3.331
 2629TIP3   OH2 7892   3.849   0.786   1.664
 2629TIP3    H1 7893   3.880   0.752   1.580
 2629TIP3    H2 7894   3.905   0.861   1.682
 2630TIP3   OH2 7895   4.453   0.604   3.700
 2630TIP3    H1 7896   4.433   0.511   3.690
 2630TIP3    H2 7897   4.415   0.628   3.785
 2631TIP3   OH2 7898   1.093   1.840   0.347
 2631TIP3    H1 7899   1.122   1.916   0.297
 2631TIP3    H2 7900   1.111   1.863   0.439
 2632TIP3   OH2 7901   3.787   1.047   1.344
 2632TIP3    H1 7902   3.779   1.120   1.283
 2632TIP3    H2 7903   3.850   0.988   1.302
 2633TIP3   OH2 7904   4.033   4.269   3.591
 2633TIP3    H1 7905   4.057   4.264   3.684
 2633TIP3    H2 7906   4.068   4.353   3.561
 2634TIP3   OH2 7907   2.453   0.273   4.751
 2634TIP3    H1 7908   2.450   0.306   4.662
 2634TIP3    H2 7909   2.375   0.218   4.759
 2635TIP3   OH2 7910   1.290   4.203   1.971
 2635TIP3    H1 7911   1.357   4.270   1.971
 2635TIP3    H2 7912   1.274   4.185   2.064
 2636TIP3   OH2 7913   5.094   3.895   1.672
 2636TIP3    H1 7914   5.161   3.839   1.634
 2636TIP3    H2 7915   5.038   3.836   1.722
 2637TIP3   OH2 7916   5.335   5.531   0.188
 2637TIP3    H1 7917   5.356   5.517   0.096
 2637TIP3    H2 7918   5.272   5.462   0.209
 2638TIP3   OH2 7919   1.680   1.221   3.960
 2638TIP3    H1 7920   1.738   1.293   3.935
 2638TIP3    H2 7921   1.599   1.238   3.913
 2639TIP3   OH2 7922   2.715   4.107   0.613
 2639TIP3    H1 7923   2.670   4.189   0.632
 2639TIP3    H2 7924   2.654   4.059   0.556
 2640TIP3   OH2 7925   3.715   2.668   1.299
 2640TIP3    H1 7926   3.735   2.647   1.390
 2640TIP3    H2 7927   3.660   2.746   1.304
 2641TIP3   OH2 7928   0.832   0.077   2.350
 2641TIP3    H1 7929   0.782   0.156   2.330
 2641TIP3    H2 7930   0.796   0.011   2.290
 2642TIP3   OH2 7931   6.159   3.637   1.379
 2642TIP3    H1 7932   6.164   3.676   1.292
 2642TIP3    H2 7933   6.241   3.589   1.388
 2643TIP3   OH2 7934   5.915   1.242   2.334
 2643TIP3    H1 7935   5.859   1.192   2.394
 2643TIP3    H2 7936   5.964   1.175   2.286
 2644TIP3   OH2 7937   1.430   3.283   4.656
 2644TIP3    H1 7938   1.449   3.193   4.683
 2644TIP3    H2 7939   1.469   3.290   4.568
 2645TIP3   OH2 7940   4.965   3.172   4.784
 2645TIP3    H1 7941   5.006   3.108   4.842
 2645TIP3    H2 7942   4.907   3.223   4.840
 2646TIP3   OH2 7943   3.998   3.534   0.132
 2646TIP3    H1 7944   4.053   3.560   0.058
 2646TIP3    H2 7945   3.921   3.495   0.091
 2647TIP3   OH2 7946   3.095   4.173   1.806
 2647TIP3    H1 7947   3.083   4.267   1.794
 2647TIP3    H2 7948   3.078   4.158   1.899
 2648TIP3   OH2 7949   4.160   0.520   2.341
 2648TIP3    H1 7950   4.170   0.612   2.368
 2648TIP3    H2 7951   4.244   0.480   2.360
 2649TIP3   OH2 7952   2.289   3.404   2.507
 2649TIP3    H1 7953   2.340   3.440   2.435
 2649TIP3    H2 7954   2.354   3.371   2.569
 2650TIP3   OH2 7955   5.868   5.596   0.814
 2650TIP3    H1 7956   5.944   5.551   0.851
 2650TIP3    H2 7957   5.894   5.688   0.811
 2651TIP3   OH2 7958   1.924   5.634   3.611
 2651TIP3    H1 7959   2.011   5.619   3.648
 2651TIP3    H2 7960   1.940   5.689   3.534
 2652TIP3   OH2 7961   4.669   2.202   2.099
 2652TIP3    H1 7962   4.745   2.243   2.059
 2652TIP3    H2 7963   4.595   2.255   2.071
 2653TIP3   OH2 7964   4.160   4.628   4.221
 2653TIP3    H1 7965   4.117   4.641   4.136
 2653TIP3    H2 7966   4.171   4.533   4.228
 2654TIP3   OH2 7967   5.659   5.594   2.293
 2654TIP3    H1 7968   5.677   5.573   2.384
 2654TIP3    H2 7969   5.570   5.561   2.277
 2655TIP3   OH2 7970   6.065   2.741   5.060
 2655TIP3    H1 7971   6.065   2.831   5.027
 2655TIP3    H2 7972   6.048   2.686   4.983
 2656TIP3   OH2 7973   4.838   4.986   4.706
 2656TIP3    H1 7974   4.871   5.072   4.731
 2656TIP3    H2 7975   4.743   4.994   4.711
 2657TIP3   OH2 7976   0.528   5.604   1.568
 2657TIP3    H1 7977   0.546   5.575   1.479
 2657TIP3    H2 7978   0.586   5.551   1.623
 2658TIP3   OH2 7979   2.260   3.710   0.354
 2658TIP3    H1 7980   2.280   3.771   0.283
 2658TIP3    H2 7981   2.243   3.767   0.429
 2659TIP3   OH2 7982   5.789   0.141   3.692
 2659TIP3    H1 7983   5.723   0.141   3.622
 2659TIP3    H2 7984   5.761   0.211   3.751
 2660TIP3   OH2 7985   4.259   4.146   2.505
 2660TIP3    H1 7986   4.235   4.070   2.452
 2660TIP3    H2 7987   4.313   4.109   2.575
 2661TIP3   OH2 7988   1.863   3.486   0.098
 2661TIP3    H1 7989   1.940   3.516   0.148
 2661TIP3    H2 7990   1.793   3.481   0.163
 2662TIP3   OH2 7991   5.143   3.561   0.902
 2662TIP3    H1 7992   5.069   3.549   0.841
 2662TIP3    H2 7993   5.154   3.656   0.908
 2663TIP3   OH2 7994   6.034   5.474   1.770
 2663TIP3    H1 7995   6.117   5.481   1.818
 2663TIP3    H2 7996   6.031   5.383   1.740
 2664TIP3   OH2 7997   1.760   5.342   1.630
 2664TIP3    H1 7998   1.668   5.320   1.620
 2664TIP3    H2 7999   1.767   5.432   1.599
 2665TIP3   OH2 8000   1.523   1.353   1.417
 2665TIP3    H1 8001   1.472   1.316   1.345
 2665TIP3    H2 8002   1.470   1.425   1.451
 2666TIP3   OH2 8003   4.317   4.256   0.499
 2666TIP3    H1 8004   4.305   4.203   0.420
 2666TIP3    H2 8005   4.320   4.346   0.467
 2667TIP3   OH2 8006   3.356   2.691   1.874
 2667TIP3    H1 8007   3.339   2.712   1.966
 2667TIP3    H2 8008   3.271   2.696   1.831
 2668TIP3   OH2 8009   1.068   1.251   0.899
 2668TIP3    H1 8010   1.039   1.340   0.920
 2668TIP3    H2 8011   1.018   1.227   0.821
 2669TIP3   OH2 8012   2.802   1.625   1.959
 2669TIP3    H1 8013   2.803   1.529   1.962
 2669TIP3    H2 8014   2.894   1.650   1.964
 2670TIP3   OH2 8015   2.968   1.444   3.012
 2670TIP3    H1 8016   2.989   1.399   3.094
 2670TIP3    H2 8017   3.001   1.533   3.024
 2671TIP3   OH2 8018   6.050   5.129   1.488
 2671TIP3    H1 8019   6.036   5.220   1.462
 2671TIP3    H2 8020   6.000   5.078   1.424
 2672TIP3   OH2 8021   0.399   3.876   3.458
 2672TIP3    H1 8022   0.473   3.817   3.441
 2672TIP3    H2 8023   0.375   3.858   3.549
 2673TIP3   OH2 8024   3.814   3.136   1.699
 2673TIP3    H1 8025   3.874   3.208   1.676
 2673TIP3    H2 8026   3.825   3.073   1.629
 2674TIP3   OH2 8027   2.807   2.986   3.073
 2674TIP3    H1 8028   2.788   3.065   3.124
 2674TIP3    H2 8029   2.720   2.955   3.045
 2675TIP3   OH2 8030   3.479   5.756   1.092
 2675TIP3    H1 8031   3.510   5.786   1.177
 2675TIP3    H2 8032   3.384   5.769   1.096
 2676TIP3   OH2 8033   3.941   3.725   4.720
 2676TIP3    H1 8034   3.870   3.663   4.732
 2676TIP3    H2 8035   4.005   3.678   4.666
 2677TIP3   OH2 8036   2.519   0.362   4.502
 2677TIP3    H1 8037   2.473   0.340   4.421
 2677TIP3    H2 8038   2.607   0.326   4.490
 2678TIP3   OH2 8039   2.299   2.255   3.840
 2678TIP3    H1 8040   2.366   2.240   3.906
 2678TIP3    H2 8041   2.336   2.219   3.759
 2679TIP3   OH2 8042   3.725   3.687   0.492
 2679TIP3    H1 8043   3.707   3.593   0.485
 2679TIP3    H2 8044   3.668   3.727   0.426
 2680TIP3   OH2 8045   4.419   3.075   1.827
 2680TIP3    H1 8046   4.502   3.072   1.779
 2680TIP3    H2 8047   4.445   3.092   1.918
 2681TIP3   OH2 8048   2.479   5.208   0.869
 2681TIP3    H1 8049   2.530   5.157   0.806
 2681TIP3    H2 8050   2.413   5.252   0.816
 2682TIP3   OH2 8051   6.266   0.828   1.706
 2682TIP3    H1 8052   6.171   0.826   1.718
 2682TIP3    H2 8053   6.294   0.908   1.749
 2683TIP3   OH2 8054   4.805   5.708   4.804
 2683TIP3    H1 8055   4.741   5.652   4.848
 2683TIP3    H2 8056   4.875   5.649   4.777
 2684TIP3   OH2 8057   3.349   1.495   3.916
 2684TIP3    H1 8058   3.377   1.542   3.995
 2684TIP3    H2 8059   3.310   1.563   3.861
 2685TIP3   OH2 8060   0.734   3.439   1.119
 2685TIP3    H1 8061   0.654   3.481   1.088
 2685TIP3    H2 8062   0.704   3.372   1.180
 2686TIP3   OH2 8063   1.014   5.118   4.828
 2686TIP3    H1 8064   0.930   5.154   4.858
 2686TIP3    H2 8065   0.990   5.040   4.778
 2687TIP3   OH2 8066   4.296   0.442   2.977
 2687TIP3    H1 8067   4.311   0.349   2.961
 2687TIP3    H2 8068   4.244   0.471   2.901
 2688TIP3   OH2 8069   3.265   5.215   4.079
 2688TIP3    H1 8070   3.221   5.155   4.019
 2688TIP3    H2 8071   3.213   5.295   4.075
 2689TIP3   OH2 8072   4.317   4.007   0.119
 2689TIP3    H1 8073   4.305   4.100   0.100
 2689TIP3    H2 8074   4.412   3.994   0.114
 2690TIP3   OH2 8075   5.135   2.971   0.266
 2690TIP3    H1 8076   5.149   2.924   0.349
 2690TIP3    H2 8077   5.208   2.945   0.211
 2691TIP3   OH2 8078   5.528   3.330   2.591
 2691TIP3    H1 8079   5.620   3.353   2.590
 2691TIP3    H2 8080   5.521   3.258   2.654
 2692TIP3   OH2 8081   0.807   0.177   5.149
 2692TIP3    H1 8082   0.806   0.214   5.061
 2692TIP3    H2 8083   0.734   0.219   5.194
 2693TIP3   OH2 8084   4.768   3.578   2.107
 2693TIP3    H1 8085   4.810   3.494   2.126
 2693TIP3    H2 8086   4.760   3.621   2.192
 2694TIP3   OH2 8087   3.010   4.461   0.745
 2694TIP3    H1 8088   3.007   4.514   0.825
 2694TIP3    H2 8089   3.003   4.371   0.776
 2695TIP3   OH2 8090   1.496   4.704   4.871
 2695TIP3    H1 8091   1.455   4.689   4.956
 2695TIP3    H2 8092   1.549   4.783   4.884
 2696TIP3   OH2 8093   6.087   1.007   1.495
 2696TIP3    H1 8094   6.146   0.983   1.423
 2696TIP3    H2 8095   6.144   1.044   1.562
 2697TIP3   OH2 8096   0.980   1.212   2.576
 2697TIP3    H1 8097   0.896   1.168   2.562
 2697TIP3    H2 8098   1.041   1.168   2.516
 2698TIP3   OH2 8099   1.691   1.715   2.023
 2698TIP3    H1 8100   1.761   1.762   1.979
 2698TIP3    H2 8101   1.676   1.763   2.104
 2699TIP3   OH2 8102   3.504   3.803   2.642
 2699TIP3    H1 8103   3.492   3.725   2.696
 2699TIP3    H2 8104   3.595   3.831   2.659
 2700TIP3   OH2 8105   4.591   5.767   1.698
 2700TIP3    H1 8106   4.512   5.725   1.662
 2700TIP3    H2 8107   4.610   5.838   1.638
 2701TIP3   OH2 8108   4.193   1.428   2.930
 2701TIP3    H1 8109   4.218   1.336   2.918
 2701TIP3    H2 8110   4.198   1.466   2.842
 2702TIP3   OH2 8111   5.919   3.033   3.237
 2702TIP3    H1 8112   5.964   3.101   3.287
 2702TIP3    H2 8113   5.957   2.951   3.267
 2703TIP3   OH2 8114   2.165   3.755   4.358
 2703TIP3    H1 8115   2.184   3.729   4.268
 2703TIP3    H2 8116   2.070   3.748   4.365
 2704TIP3   OH2 8117   3.041   4.724   0.725
 2704TIP3    H1 8118   3.087   4.642   0.744
 2704TIP3    H2 8119   3.059   4.779   0.802
 2705TIP3   OH2 8120   2.622   2.996   1.811
 2705TIP3    H1 8121   2.653   2.906   1.825
 2705TIP3    H2 8122   2.546   2.986   1.755
 2706TIP3   OH2 8123   5.854   5.359   2.826
 2706TIP3    H1 8124   5.942   5.361   2.865
 2706TIP3    H2 8125   5.799   5.407   2.888
 2707TIP3   OH2 8126   0.852   3.836   4.507
 2707TIP3    H1 8127   0.900   3.797   4.434
 2707TIP3    H2 8128   0.891   3.923   4.516
 2708TIP3   OH2 8129   1.535   3.471   1.036
 2708TIP3    H1 8130   1.501   3.465   1.126
 2708TIP3    H2 8131   1.513   3.560   1.008
 2709TIP3   OH2 8132   5.779   0.888   0.940
 2709TIP3    H1 8133   5.838   0.913   0.869
 2709TIP3    H2 8134   5.713   0.833   0.899
 2710TIP3   OH2 8135   2.524   3.930   4.014
 2710TIP3    H1 8136   2.600   3.880   4.044
 2710TIP3    H2 8137   2.488   3.878   3.942
 2711TIP3   OH2 8138   0.154   4.834   2.137
 2711TIP3    H1 8139   0.160   4.750   2.182
 2711TIP3    H2 8140   0.145   4.811   2.045
 2712TIP3   OH2 8141   0.897   4.521   1.128
 2712TIP3    H1 8142   0.843   4.548   1.203
 2712TIP3    H2 8143   0.840   4.534   1.052
 2713TIP3   OH2 8144   1.372   0.194   2.724
 2713TIP3    H1 8145   1.445   0.255   2.718
 2713TIP3    H2 8146   1.393   0.125   2.660
 2714TIP3   OH2 8147   2.212   5.024   4.834
 2714TIP3    H1 8148   2.287   5.062   4.879
 2714TIP3    H2 8149   2.233   5.032   4.741
 2715TIP3   OH2 8150   4.805   0.065   2.841
 2715TIP3    H1 8151   4.849   0.087   2.758
 2715TIP3    H2 8152   4.726   0.118   2.840
 2716TIP3   OH2 8153   0.622   1.246   2.886
 2716TIP3    H1 8154   0.575   1.176   2.932
 2716TIP3    H2 8155   0.714   1.221   2.891
 2717TIP3   OH2 8156   0.835   5.286   1.388
 2717TIP3    H1 8157   0.769   5.238   1.338
 2717TIP3    H2 8158   0.838   5.240   1.472
 2718TIP3   OH2 8159   1.934   1.595   0.859
 2718TIP3    H1 8160   1.996   1.666   0.876
 2718TIP3    H2 8161   1.872   1.633   0.796
 2719TIP3   OH2 8162   1.913   5.877   1.699
 2719TIP3    H1 8163   1.988   5.937   1.702
 2719TIP3    H2 8164   1.950   5.791   1.719
 2720TIP3   OH2 8165   6.044   3.723   1.710
 2720TIP3    H1 8166   6.068   3.631   1.716
 2720TIP3    H2 8167   5.959   3.729   1.754
 2721TIP3   OH2 8168   1.242   1.363   0.589
 2721TIP3    H1 8169   1.321   1.345   0.538
 2721TIP3    H2 8170   1.206   1.442   0.549
 2722TIP3   OH2 8171   2.095   3.678   2.633
 2722TIP3    H1 8172   2.129   3.762   2.603
 2722TIP3    H2 8173   2.037   3.700   2.706
 2723TIP3   OH2 8174   3.774   0.805   2.303
 2723TIP3    H1 8175   3.701   0.820   2.362
 2723TIP3    H2 8176   3.773   0.880   2.243
 2724TIP3   OH2 8177   0.864   2.729   3.102
 2724TIP3    H1 8178   0.946   2.691   3.134
 2724TIP3    H2 8179   0.801   2.657   3.109
 2725TIP3   OH2 8180   3.591   2.576   2.035
 2725TIP3    H1 8181   3.524   2.644   2.044
 2725TIP3    H2 8182   3.554   2.500   2.080
 2726TIP3   OH2 8183   1.723   5.817   0.104
 2726TIP3    H1 8184   1.782   5.778   0.170
 2726TIP3    H2 8185   1.757   5.786   0.020
 2727TIP3   OH2 8186   0.771   2.831   0.198
 2727TIP3    H1 8187   0.752   2.739   0.182
 2727TIP3    H2 8188   0.816   2.860   0.119
 2728TIP3   OH2 8189   2.049   2.790   1.704
 2728TIP3    H1 8190   2.092   2.874   1.690
 2728TIP3    H2 8191   2.016   2.794   1.794
 2729TIP3   OH2 8192   2.634   2.266   3.451
 2729TIP3    H1 8193   2.559   2.240   3.503
 2729TIP3    H2 8194   2.599   2.325   3.384
 2730TIP3   OH2 8195   1.616   0.511   1.359
 2730TIP3    H1 8196   1.527   0.495   1.391
 2730TIP3    H2 8197   1.661   0.427   1.371
 2731TIP3   OH2 8198   5.405   5.658   2.816
 2731TIP3    H1 8199   5.391   5.569   2.783
 2731TIP3    H2 8200   5.479   5.649   2.876
 2732TIP3   OH2 8201   2.660   1.836   2.643
 2732TIP3    H1 8202   2.634   1.823   2.734
 2732TIP3    H2 8203   2.656   1.749   2.604
 2733TIP3   OH2 8204   4.034   1.048   4.360
 2733TIP3    H1 8205   4.120   1.082   4.384
 2733TIP3    H2 8206   3.973   1.120   4.379
 2734TIP3   OH2 8207   2.614   4.989   3.944
 2734TIP3    H1 8208   2.647   5.069   3.985
 2734TIP3    H2 8209   2.661   4.983   3.861
 2735TIP3   OH2 8210   4.456   1.841   4.348
 2735TIP3    H1 8211   4.386   1.837   4.414
 2735TIP3    H2 8212   4.411   1.828   4.265
 2736TIP3   OH2 8213   2.804   0.254   3.912
 2736TIP3    H1 8214   2.893   0.234   3.941
 2736TIP3    H2 8215   2.797   0.216   3.825
 2737TIP3   OH2 8216   5.942   1.389   3.899
 2737TIP3    H1 8217   6.010   1.376   3.833
 2737TIP3    H2 8218   5.882   1.316   3.887
 2738TIP3   OH2 8219   5.092   5.092   3.427
 2738TIP3    H1 8220   5.027   5.051   3.370
 2738TIP3    H2 8221   5.147   5.019   3.457
 2739TIP3   OH2 8222   1.105   5.295   4.614
 2739TIP3    H1 8223   1.071   5.237   4.682
 2739TIP3    H2 8224   1.053   5.375   4.623
 2740TIP3   OH2 8225   5.738   5.321   1.525
 2740TIP3    H1 8226   5.740   5.229   1.552
 2740TIP3    H2 8227   5.647   5.336   1.500
 2741TIP3   OH2 8228   6.073   5.738   1.423
 2741TIP3    H1 8229   6.026   5.693   1.353
 2741TIP3    H2 8230   6.124   5.670   1.466
 2742TIP3   OH2 8231   2.178   1.758   4.751
 2742TIP3    H1 8232   2.213   1.719   4.671
 2742TIP3    H2 8233   2.124   1.689   4.790
 2743TIP3   OH2 8234   2.574   3.712   4.246
 2743TIP3    H1 8235   2.637   3.758   4.190
 2743TIP3    H2 8236   2.520   3.661   4.185
 2744TIP3   OH2 8237   2.847   2.321   4.187
 2744TIP3    H1 8238   2.817   2.237   4.224
 2744TIP3    H2 8239   2.778   2.345   4.124
 2745TIP3   OH2 8240   0.030   1.011   1.926
 2745TIP3    H1 8241  -0.007   1.096   1.949
 2745TIP3    H2 8242   0.110   1.004   1.979
 2746TIP3   OH2 8243   5.428   5.994   0.083
 2746TIP3    H1 8244   5.350   5.952   0.119
 2746TIP3    H2 8245   5.467   5.927   0.027
 2747TIP3   OH2 8246   2.736   3.295   2.009
 2747TIP3    H1 8247   2.767   3.234   2.076
 2747TIP3    H2 8248   2.790   3.373   2.019
 2748TIP3   OH2 8249   6.210   2.208   4.306
 2748TIP3    H1 8250   6.266   2.273   4.347
 2748TIP3    H2 8251   6.197   2.141   4.374
 2749TIP3   OH2 8252   3.172   0.045   4.314
 2749TIP3    H1 8253   3.242   0.108   4.297
 2749TIP3    H2 8254   3.216  -0.028   4.358
 2750TIP3   OH2 8255   1.914   2.823   1.182
 2750TIP3    H1 8256   1.925   2.837   1.088
 2750TIP3    H2 8257   1.992   2.773   1.208
 2751TIP3   OH2 8258   5.269   2.097   2.822
 2751TIP3    H1 8259   5.179   2.117   2.846
 2751TIP3    H2 8260   5.262   2.055   2.736
 2752TIP3   OH2 8261   5.305   3.173   4.516
 2752TIP3    H1 8262   5.330   3.152   4.426
 2752TIP3    H2 8263   5.217   3.208   4.508
 2753TIP3   OH2 8264   2.054   3.531   3.644
 2753TIP3    H1 8265   1.960   3.530   3.626
 2753TIP3    H2 8266   2.085   3.614   3.608
 2754TIP3   OH2 8267   3.765   3.022   3.279
 2754TIP3    H1 8268   3.715   2.941   3.286
 2754TIP3    H2 8269   3.798   3.037   3.368
 2755TIP3   OH2 8270   0.080   4.290   5.136
 2755TIP3    H1 8271   0.078   4.381   5.108
 2755TIP3    H2 8272   0.169   4.261   5.116
 2756TIP3   OH2 8273   2.112   4.003  -0.020
 2756TIP3    H1 8274   2.117   4.098  -0.006
 2756TIP3    H2 8275   2.122   3.966   0.067
 2757TIP3   OH2 8276   5.998   0.468   3.886
 2757TIP3    H1 8277   5.931   0.484   3.953
 2757TIP3    H2 8278   5.987   0.540   3.823
 2758TIP3   OH2 8279   4.910   3.992   5.128
 2758TIP3    H1 8280   4.857   3.952   5.197
 2758TIP3    H2 8281   4.910   3.928   5.057
 2759TIP3   OH2 8282   2.661   5.570   3.645
 2759TIP3    H1 8283   2.657   5.474   3.644
 2759TIP3    H2 8284   2.669   5.594   3.552
 2760TIP3   OH2 8285   6.012   3.265   2.696
 2760TIP3    H1 8286   6.043   3.186   2.650
 2760TIP3    H2 8287   6.005   3.239   2.787
 2761TIP3   OH2 8288   0.961   5.846   3.940
 2761TIP3    H1 8289   1.020   5.920   3.924
 2761TIP3    H2 8290   0.951   5.804   3.854
 2762TIP3   OH2 8291   2.576   2.729   0.693
 2762TIP3    H1 8292   2.552   2.821   0.708
 2762TIP3    H2 8293   2.511   2.679   0.742
 2763TIP3   OH2 8294   4.267   4.815   4.571
 2763TIP3    H1 8295   4.201   4.828   4.639
 2763TIP3    H2 8296   4.259   4.893   4.516
 2764TIP3   OH2 8297   2.790   2.604   1.178
 2764TIP3    H1 8298   2.857   2.555   1.224
 2764TIP3    H2 8299   2.776   2.555   1.097
 2765TIP3   OH2 8300   5.818   5.416   0.063
 2765TIP3    H1 8301   5.735   5.378   0.091
 2765TIP3    H2 8302   5.794   5.477  -0.006
 2766TIP3   OH2 8303   0.412   2.864   0.192
 2766TIP3    H1 8304   0.387   2.793   0.251
 2766TIP3    H2 8305   0.463   2.820   0.123
 2767TIP3   OH2 8306   3.747   0.542   1.778
 2767TIP3    H1 8307   3.750   0.620   1.722
 2767TIP3    H2 8308   3.795   0.566   1.856
 2768TIP3   OH2 8309   5.973   0.994   4.570
 2768TIP3    H1 8310   5.958   1.088   4.580
 2768TIP3    H2 8311   5.961   0.959   4.658
 2769TIP3   OH2 8312   2.934   5.573   0.508
 2769TIP3    H1 8313   2.967   5.484   0.495
 2769TIP3    H2 8314   3.005   5.630   0.479
 2770TIP3   OH2 8315   3.600   1.345   1.801
 2770TIP3    H1 8316   3.521   1.400   1.802
 2770TIP3    H2 8317   3.576   1.268   1.852
 2771TIP3   OH2 8318   2.082   1.654   3.193
 2771TIP3    H1 8319   2.102   1.697   3.109
 2771TIP3    H2 8320   2.168   1.633   3.230
 2772TIP3   OH2 8321   5.561   3.763   2.564
 2772TIP3    H1 8322   5.576   3.841   2.617
 2772TIP3    H2 8323   5.519   3.701   2.623
 2773TIP3   OH2 8324   0.314   2.113   4.701
 2773TIP3    H1 8325   0.293   2.176   4.633
 2773TIP3    H2 8326   0.409   2.118   4.711
 2774TIP3   OH2 8327   2.182   1.865   0.811
 2774TIP3    H1 8328   2.202   1.931   0.743
 2774TIP3    H2 8329   2.141   1.915   0.881
 2775TIP3   OH2 8330   3.607   5.017   1.995
 2775TIP3    H1 8331   3.562   5.079   2.052
 2775TIP3    H2 8332   3.699   5.026   2.017
 2776TIP3   OH2 8333   2.446   5.473   1.459
 2776TIP3    H1 8334   2.472   5.482   1.367
 2776TIP3    H2 8335   2.355   5.502   1.461
 2777TIP3   OH2 8336   1.533   4.695   2.551
 2777TIP3    H1 8337   1.575   4.770   2.508
 2777TIP3    H2 8338   1.458   4.733   2.597
 2778TIP3   OH2 8339   2.455   1.868   0.401
 2778TIP3    H1 8340   2.448   1.805   0.472
 2778TIP3    H2 8341   2.421   1.950   0.437
 2779TIP3   OH2 8342   4.967   4.968   3.925
 2779TIP3    H1 8343   4.895   4.905   3.927
 2779TIP3    H2 8344   4.991   4.974   3.832
 2780TIP3   OH2 8345   1.388   5.025   3.387
 2780TIP3    H1 8346   1.362   5.052   3.475
 2780TIP3    H2 8347   1.421   5.106   3.347
 2781TIP3   OH2 8348   4.706   4.286   0.401
 2781TIP3    H1 8349   4.658   4.204   0.414
 2781TIP3    H2 8350   4.784   4.261   0.351
 2782TIP3   OH2 8351   4.713   2.651   0.285
 2782TIP3    H1 8352   4.781   2.586   0.300
 2782TIP3    H2 8353   4.644   2.629   0.348
 2783TIP3   OH2 8354   3.143   3.717   1.755
 2783TIP3    H1 8355   3.132   3.750   1.666
 2783TIP3    H2 8356   3.060   3.675   1.776
 2784TIP3   OH2 8357   4.100   3.391   3.403
 2784TIP3    H1 8358   4.046   3.452   3.452
 2784TIP3    H2 8359   4.181   3.439   3.385
 2785TIP3   OH2 8360   4.434   4.111   0.802
 2785TIP3    H1 8361   4.443   4.017   0.787
 2785TIP3    H2 8362   4.342   4.129   0.786
 2786TIP3   OH2 8363   1.907   3.525   5.080
 2786TIP3    H1 8364   1.908   3.620   5.082
 2786TIP3    H2 8365   1.982   3.499   5.132
 2787TIP3   OH2 8366   1.148   4.227   2.236
 2787TIP3    H1 8367   1.150   4.320   2.213
 2787TIP3    H2 8368   1.164   4.225   2.330
 2788TIP3   OH2 8369   2.706   4.875   3.444
 2788TIP3    H1 8370   2.646   4.825   3.499
 2788TIP3    H2 8371   2.654   4.949   3.413
 2789TIP3   OH2 8372   4.532   5.624   2.756
 2789TIP3    H1 8373   4.604   5.567   2.784
 2789TIP3    H2 8374   4.504   5.668   2.836
 2790TIP3   OH2 8375   3.365   2.049   0.145
 2790TIP3    H1 8376   3.331   2.057   0.056
 2790TIP3    H2 8377   3.303   2.097   0.199
 2791TIP3   OH2 8378   4.087   0.168   2.719
 2791TIP3    H1 8379   4.179   0.173   2.694
 2791TIP3    H2 8380   4.088   0.153   2.814
 2792TIP3   OH2 8381   6.043   1.515   1.601
 2792TIP3    H1 8382   6.115   1.495   1.661
 2792TIP3    H2 8383   6.016   1.604   1.625
 2793TIP3   OH2 8384   3.262   1.681   3.720
 2793TIP3    H1 8385   3.274   1.609   3.657
 2793TIP3    H2 8386   3.351   1.712   3.738
 2794TIP3   OH2 8387   1.300   4.432   4.878
 2794TIP3    H1 8388   1.381   4.474   4.852
 2794TIP3    H2 8389   1.282   4.369   4.809
 2795TIP3   OH2 8390   2.163   2.537   3.801
 2795TIP3    H1 8391   2.076   2.521   3.765
 2795TIP3    H2 8392   2.215   2.460   3.776
 2796TIP3   OH2 8393   0.958   0.984   2.338
 2796TIP3    H1 8394   0.951   1.045   2.264
 2796TIP3    H2 8395   0.887   0.922   2.324
 2797TIP3   OH2 8396   2.269   2.889   0.987
 2797TIP3    H1 8397   2.234   2.978   0.983
 2797TIP3    H2 8398   2.200   2.837   1.029
 2798TIP3   OH2 8399   5.050   2.269   2.427
 2798TIP3    H1 8400   5.142   2.243   2.420
 2798TIP3    H2 8401   5.035   2.326   2.352
 2799TIP3   OH2 8402   5.320   2.355   2.533
 2799TIP3    H1 8403   5.331   2.270   2.490
 2799TIP3    H2 8404   5.316   2.335   2.626
 2800TIP3   OH2 8405   0.269   5.200   4.708
 2800TIP3    H1 8406   0.329   5.247   4.650
 2800TIP3    H2 8407   0.265   5.111   4.672
 2801TIP3   OH2 8408   3.000   2.847   3.239
 2801TIP3    H1 8409   2.934   2.880   3.178
 2801TIP3    H2 8410   3.063   2.801   3.184
 2802TIP3   OH2 8411   2.661   1.811   1.690
 2802TIP3    H1 8412   2.625   1.725   1.670
 2802TIP3    H2 8413   2.626   1.832   1.777
 2803TIP3   OH2 8414   5.970   3.881   2.192
 2803TIP3    H1 8415   6.054   3.898   2.149
 2803TIP3    H2 8416   5.993   3.873   2.285
 2804TIP3   OH2 8417   1.073   3.035   0.929
 2804TIP3    H1 8418   1.125   2.964   0.967
 2804TIP3    H2 8419   0.993   2.993   0.900
 2805TIP3   OH2 8420   3.375   5.031   0.408
 2805TIP3    H1 8421   3.453   4.976   0.414
 2805TIP3    H2 8422   3.307   4.981   0.455
 2806TIP3   OH2 8423   5.994   2.256   2.173
 2806TIP3    H1 8424   5.947   2.176   2.151
 2806TIP3    H2 8425   6.085   2.228   2.183
 2807TIP3   OH2 8426   3.513   2.114   5.151
 2807TIP3    H1 8427   3.594   2.078   5.187
 2807TIP3    H2 8428   3.539   2.156   5.069
 2808TIP3   OH2 8429   0.324   3.078   1.349
 2808TIP3    H1 8430   0.234   3.055   1.323
 2808TIP3    H2 8431   0.343   3.158   1.299
 2809TIP3   OH2 8432   1.626   5.091   2.870
 2809TIP3    H1 8433   1.572   5.118   2.944
 2809TIP3    H2 8434   1.569   5.099   2.794
 2810TIP3   OH2 8435   3.069   0.997   0.035
 2810TIP3    H1 8436   2.974   1.010   0.039
 2810TIP3    H2 8437   3.082   0.947  -0.045
 2811TIP3   OH2 8438   2.418   1.312   3.794
 2811TIP3    H1 8439   2.421   1.347   3.883
 2811TIP3    H2 8440   2.329   1.277   3.785
 2812TIP3   OH2 8441   4.657   4.457   0.667
 2812TIP3    H1 8442   4.667   4.502   0.583
 2812TIP3    H2 8443   4.572   4.413   0.660
 2813TIP3   OH2 8444   4.915   2.997   2.811
 2813TIP3    H1 8445   5.000   2.954   2.814
 2813TIP3    H2 8446   4.859   2.937   2.762
 2814TIP3   OH2 8447   5.020   1.939   3.723
 2814TIP3    H1 8448   5.059   1.993   3.654
 2814TIP3    H2 8449   5.095   1.892   3.761
 2815TIP3   OH2 8450   3.568   0.761   2.745
 2815TIP3    H1 8451   3.651   0.716   2.760
 2815TIP3    H2 8452   3.505   0.690   2.734
 2816TIP3   OH2 8453   2.389   5.822   1.133
 2816TIP3    H1 8454   2.416   5.894   1.077
 2816TIP3    H2 8455   2.462   5.810   1.194
 2817TIP3   OH2 8456   0.879   4.589   2.047
 2817TIP3    H1 8457   0.970   4.562   2.062
 2817TIP3    H2 8458   0.829   4.539   2.112
 2818TIP3   OH2 8459   0.989   4.454   0.402
 2818TIP3    H1 8460   0.925   4.453   0.473
 2818TIP3    H2 8461   0.937   4.444   0.322
 2819TIP3   OH2 8462   3.546   0.887   0.255
 2819TIP3    H1 8463   3.524   0.850   0.169
 2819TIP3    H2 8464   3.463   0.920   0.289
 2820TIP3   OH2 8465   0.877   1.911   1.246
 2820TIP3    H1 8466   0.874   1.988   1.304
 2820TIP3    H2 8467   0.942   1.933   1.180
 2821TIP3   OH2 8468   4.057   5.730   4.998
 2821TIP3    H1 8469   4.136   5.733   5.052
 2821TIP3    H2 8470   3.998   5.793   5.039
 2822TIP3   OH2 8471   5.458   2.596   3.110
 2822TIP3    H1 8472   5.515   2.664   3.146
 2822TIP3    H2 8473   5.489   2.515   3.150
 2823TIP3   OH2 8474   3.250   5.753   2.946
 2823TIP3    H1 8475   3.163   5.793   2.943
 2823TIP3    H2 8476   3.309   5.821   2.914
 2824TIP3   OH2 8477   6.280   5.204   1.288
 2824TIP3    H1 8478   6.195   5.248   1.287
 2824TIP3    H2 8479   6.295   5.182   1.380
 2825TIP3   OH2 8480   3.835   4.857   4.817
 2825TIP3    H1 8481   3.826   4.763   4.826
 2825TIP3    H2 8482   3.769   4.882   4.753
 2826TIP3   OH2 8483   0.237   0.288   3.029
 2826TIP3    H1 8484   0.287   0.307   2.950
 2826TIP3    H2 8485   0.155   0.336   3.017
 2827TIP3   OH2 8486   0.886   0.259   2.701
 2827TIP3    H1 8487   0.799   0.298   2.701
 2827TIP3    H2 8488   0.871   0.166   2.687
 2828TIP3   OH2 8489   3.036   3.669   2.111
 2828TIP3    H1 8490   3.075   3.755   2.124
 2828TIP3    H2 8491   3.093   3.609   2.160
 2829TIP3   OH2 8492   0.356   2.082   0.890
 2829TIP3    H1 8493   0.340   2.135   0.812
 2829TIP3    H2 8494   0.404   2.141   0.949
 2830TIP3   OH2 8495   3.631   2.075   0.171
 2830TIP3    H1 8496   3.628   2.105   0.262
 2830TIP3    H2 8497   3.540   2.055   0.149
 2831TIP3   OH2 8498   3.634   1.956   1.861
 2831TIP3    H1 8499   3.631   1.963   1.765
 2831TIP3    H2 8500   3.704   1.894   1.878
 2832TIP3   OH2 8501   6.166   1.189   0.080
 2832TIP3    H1 8502   6.133   1.174   0.168
 2832TIP3    H2 8503   6.229   1.260   0.089
 2833TIP3   OH2 8504   0.156   1.914   2.634
 2833TIP3    H1 8505   0.120   1.956   2.712
 2833TIP3    H2 8506   0.169   1.985   2.572
 2834TIP3   OH2 8507   1.818   2.656   4.637
 2834TIP3    H1 8508   1.819   2.747   4.607
 2834TIP3    H2 8509   1.729   2.643   4.671
 2835TIP3   OH2 8510   3.641   4.384   1.672
 2835TIP3    H1 8511   3.640   4.479   1.675
 2835TIP3    H2 8512   3.565   4.361   1.619
 2836TIP3   OH2 8513   1.761   1.019   1.944
 2836TIP3    H1 8514   1.798   0.964   2.013
 2836TIP3    H2 8515   1.834   1.075   1.916
 2837TIP3   OH2 8516   2.968   5.352   4.757
 2837TIP3    H1 8517   2.931   5.346   4.845
 2837TIP3    H2 8518   3.022   5.431   4.759
 2838TIP3   OH2 8519   1.680   2.449   5.058
 2838TIP3    H1 8520   1.731   2.407   4.988
 2838TIP3    H2 8521   1.737   2.444   5.135
 2839TIP3   OH2 8522   5.992   5.194   2.649
 2839TIP3    H1 8523   5.962   5.263   2.707
 2839TIP3    H2 8524   5.979   5.229   2.561
 2840TIP3   OH2 8525   4.729   3.825   0.006
 2840TIP3    H1 8526   4.756   3.741  -0.031
 2840TIP3    H2 8527   4.803   3.852   0.060
 2841TIP3   OH2 8528   2.090   5.293   1.861
 2841TIP3    H1 8529   2.163   5.338   1.818
 2841TIP3    H2 8530   2.081   5.338   1.945
 2842TIP3   OH2 8531   3.696   0.066   0.090
 2842TIP3    H1 8532   3.762  -0.004   0.095
 2842TIP3    H2 8533   3.701   0.110   0.175
 2843TIP3   OH2 8534   2.746   1.909   4.633
 2843TIP3    H1 8535   2.758   1.969   4.560
 2843TIP3    H2 8536   2.659   1.929   4.667
 2844TIP3   OH2 8537   0.306   5.412   2.622
 2844TIP3    H1 8538   0.333   5.497   2.588
 2844TIP3    H2 8539   0.269   5.366   2.546
 2845TIP3   OH2 8540   1.156   2.221   4.577
 2845TIP3    H1 8541   1.156   2.210   4.482
 2845TIP3    H2 8542   1.141   2.314   4.591
 2846TIP3   OH2 8543   0.761   5.193   4.911
 2846TIP3    H1 8544   0.729   5.271   4.957
 2846TIP3    H2 8545   0.737   5.120   4.968
 2847TIP3   OH2 8546   3.612   0.635   0.371
 2847TIP3    H1 8547   3.540   0.586   0.332
 2847TIP3    H2 8548   3.595   0.726   0.346
 2848TIP3   OH2 8549   2.220   2.273   0.962
 2848TIP3    H1 8550   2.313   2.294   0.971
 2848TIP3    H2 8551   2.207   2.196   1.018
 2849TIP3   OH2 8552   2.374   4.251   4.829
 2849TIP3    H1 8553   2.372   4.180   4.893
 2849TIP3    H2 8554   2.441   4.311   4.862
 2850TIP3   OH2 8555   1.939   1.396   2.120
 2850TIP3    H1 8556   1.933   1.421   2.028
 2850TIP3    H2 8557   1.854   1.357   2.140
 2851TIP3   OH2 8558   0.430   2.454   2.866
 2851TIP3    H1 8559   0.348   2.459   2.914
 2851TIP3    H2 8560   0.413   2.392   2.795
 2852TIP3   OH2 8561   1.571   3.057   1.225
 2852TIP3    H1 8562   1.567   3.117   1.299
 2852TIP3    H2 8563   1.509   2.987   1.246
 2853TIP3   OH2 8564   1.145   4.659   2.858
 2853TIP3    H1 8565   1.163   4.565   2.850
 2853TIP3    H2 8566   1.161   4.679   2.950
 2854TIP3   OH2 8567   2.202   1.410   2.516
 2854TIP3    H1 8568   2.213   1.366   2.432
 2854TIP3    H2 8569   2.198   1.339   2.580
 2855TIP3   OH2 8570   3.133   0.965   1.249
 2855TIP3    H1 8571   3.208   1.024   1.257
 2855TIP3    H2 8572   3.085   0.976   1.331
 2856TIP3   OH2 8573   4.136   3.622   4.251
 2856TIP3    H1 8574   4.203   3.606   4.185
 2856TIP3    H2 8575   4.099   3.707   4.227
 2857TIP3   OH2 8576   4.323   2.559   1.648
 2857TIP3    H1 8577   4.385   2.628   1.670
 2857TIP3    H2 8578   4.345   2.535   1.557
 2858TIP3   OH2 8579   4.144   1.796   4.269
 2858TIP3    H1 8580   4.225   1.796   4.217
 2858TIP3    H2 8581   4.074   1.785   4.204
 2859TIP3   OH2 8582   0.081   5.845   0.140
 2859TIP3    H1 8583   0.134   5.880   0.068
 2859TIP3    H2 8584   0.136   5.855   0.217
 2860TIP3   OH2 8585   3.395   0.369   4.268
 2860TIP3    H1 8586   3.371   0.367   4.361
 2860TIP3    H2 8587   3.411   0.277   4.246
 2861TIP3   OH2 8588   6.187   3.832   5.157
 2861TIP3    H1 8589   6.116   3.789   5.110
 2861TIP3    H2 8590   6.229   3.888   5.091
 2862TIP3   OH2 8591   1.424   4.927   0.617
 2862TIP3    H1 8592   1.393   5.007   0.575
 2862TIP3    H2 8593   1.356   4.862   0.597
 2863TIP3   OH2 8594   1.078   1.787   4.869
 2863TIP3    H1 8595   1.067   1.712   4.927
 2863TIP3    H2 8596   1.149   1.838   4.909
 2864TIP3   OH2 8597   0.129   3.776   0.903
 2864TIP3    H1 8598   0.169   3.766   0.817
 2864TIP3    H2 8599   0.122   3.871   0.915
 2865TIP3   OH2 8600   0.677   1.112   3.502
 2865TIP3    H1 8601   0.663   1.029   3.547
 2865TIP3    H2 8602   0.667   1.091   3.409
 2866TIP3   OH2 8603   1.318   5.009   1.339
 2866TIP3    H1 8604   1.382   5.038   1.274
 2866TIP3    H2 8605   1.236   5.004   1.291
 2867TIP3   OH2 8606   4.386   2.553   4.165
 2867TIP3    H1 8607   4.471   2.573   4.125
 2867TIP3    H2 8608   4.328   2.538   4.090
 2868TIP3   OH2 8609   3.367   5.084   2.950
 2868TIP3    H1 8610   3.311   5.159   2.933
 2868TIP3    H2 8611   3.455   5.121   2.961
 2869TIP3   OH2 8612   1.559   5.566   2.799
 2869TIP3    H1 8613   1.487   5.505   2.817
 2869TIP3    H2 8614   1.525   5.652   2.824
 2870TIP3   OH2 8615   2.122   4.151   1.945
 2870TIP3    H1 8616   2.037   4.126   1.909
 2870TIP3    H2 8617   2.105   4.234   1.990
 2871TIP3   OH2 8618   4.485   5.735   4.643
 2871TIP3    H1 8619   4.455   5.758   4.731
 2871TIP3    H2 8620   4.406   5.731   4.590
 2872TIP3   OH2 8621   0.233   1.139   1.462
 2872TIP3    H1 8622   0.320   1.102   1.477
 2872TIP3    H2 8623   0.173   1.072   1.494
 2873TIP3   OH2 8624   1.909   1.249   0.622
 2873TIP3    H1 8625   1.946   1.310   0.686
 2873TIP3    H2 8626   1.971   1.250   0.549
 2874TIP3   OH2 8627   0.812   4.340   4.526
 2874TIP3    H1 8628   0.870   4.390   4.584
 2874TIP3    H2 8629   0.870   4.302   4.461
 2875TIP3   OH2 8630   0.843   4.112   4.253
 2875TIP3    H1 8631   0.931   4.087   4.280
 2875TIP3    H2 8632   0.811   4.038   4.201
 2876TIP3   OH2 8633   1.667   3.341   3.629
 2876TIP3    H1 8634   1.732   3.393   3.582
 2876TIP3    H2 8635   1.673   3.371   3.720
 2877TIP3   OH2 8636   1.324   4.373   0.194
 2877TIP3    H1 8637   1.408   4.417   0.180
 2877TIP3    H2 8638   1.337   4.285   0.159
 2878TIP3   OH2 8639   0.398   0.532   2.731
 2878TIP3    H1 8640   0.406   0.437   2.721
 2878TIP3    H2 8641   0.424   0.549   2.821
 2879TIP3   OH2 8642   5.189   1.006   2.580
 2879TIP3    H1 8643   5.201   1.061   2.658
 2879TIP3    H2 8644   5.118   1.048   2.532
 2880TIP3   OH2 8645   2.282   0.167   3.064
 2880TIP3    H1 8646   2.274   0.232   2.994
 2880TIP3    H2 8647   2.354   0.110   3.036
 2881TIP3   OH2 8648   1.282   5.084   4.893
 2881TIP3    H1 8649   1.189   5.103   4.884
 2881TIP3    H2 8650   1.313   5.074   4.803
 2882TIP3   OH2 8651   0.244   2.875   2.653
 2882TIP3    H1 8652   0.290   2.797   2.622
 2882TIP3    H2 8653   0.291   2.948   2.613
 2883TIP3   OH2 8654   3.371   4.001   1.379
 2883TIP3    H1 8655   3.462   3.972   1.385
 2883TIP3    H2 8656   3.340   3.998   1.470
 2884TIP3   OH2 8657   6.079   4.743   5.073
 2884TIP3    H1 8658   6.071   4.828   5.030
 2884TIP3    H2 8659   6.151   4.754   5.135
 2885TIP3   OH2 8660   1.102   4.285   4.301
 2885TIP3    H1 8661   1.110   4.375   4.268
 2885TIP3    H2 8662   1.128   4.231   4.226
 2886TIP3   OH2 8663   1.776   2.597   3.395
 2886TIP3    H1 8664   1.683   2.618   3.409
 2886TIP3    H2 8665   1.816   2.681   3.374
 2887TIP3   OH2 8666   4.833   0.111   0.172
 2887TIP3    H1 8667   4.813   0.027   0.213
 2887TIP3    H2 8668   4.869   0.164   0.243
 2888TIP3   OH2 8669   3.918   3.137   3.503
 2888TIP3    H1 8670   3.986   3.070   3.495
 2888TIP3    H2 8671   3.967   3.219   3.508
 2889TIP3   OH2 8672   4.417   5.843   0.898
 2889TIP3    H1 8673   4.427   5.748   0.904
 2889TIP3    H2 8674   4.345   5.863   0.958
 2890TIP3   OH2 8675   3.262   4.363   0.123
 2890TIP3    H1 8676   3.262   4.325   0.035
 2890TIP3    H2 8677   3.211   4.444   0.113
 2891TIP3   OH2 8678   6.356   0.542   0.721
 2891TIP3    H1 8679   6.303   0.471   0.687
 2891TIP3    H2 8680   6.317   0.563   0.806
 2892TIP3   OH2 8681   0.407   3.504   2.057
 2892TIP3    H1 8682   0.501   3.489   2.063
 2892TIP3    H2 8683   0.368   3.433   2.108
 2893TIP3   OH2 8684   1.343   3.167   2.943
 2893TIP3    H1 8685   1.270   3.117   2.908
 2893TIP3    H2 8686   1.339   3.252   2.898
 2894TIP3   OH2 8687   2.687   4.885   3.122
 2894TIP3    H1 8688   2.728   4.878   3.036
 2894TIP3    H2 8689   2.659   4.977   3.128
 2895TIP3   OH2 8690   5.561   5.762   3.108
 2895TIP3    H1 8691   5.470   5.747   3.133
 2895TIP3    H2 8692   5.594   5.823   3.175
 2896TIP3   OH2 8693   5.748   1.495   1.552
 2896TIP3    H1 8694   5.812   1.554   1.511
 2896TIP3    H2 8695   5.801   1.434   1.603
 2897TIP3   OH2 8696   0.385   2.488   4.147
 2897TIP3    H1 8697   0.423   2.404   4.173
 2897TIP3    H2 8698   0.344   2.521   4.227
 2898TIP3   OH2 8699   2.024   5.440   3.963
 2898TIP3    H1 8700   1.944   5.472   4.003
 2898TIP3    H2 8701   2.062   5.381   4.029
 2899TIP3   OH2 8702   5.353   0.692   4.885
 2899TIP3    H1 8703   5.324   0.612   4.928
 2899TIP3    H2 8704   5.273   0.729   4.846
 2900TIP3   OH2 8705   5.157   5.860   4.302
 2900TIP3    H1 8706   5.204   5.778   4.291
 2900TIP3    H2 8707   5.131   5.862   4.394
 2901TIP3   OH2 8708   2.835   2.915   0.376
 2901TIP3    H1 8709   2.758   2.971   0.364
 2901TIP3    H2 8710   2.892   2.936   0.303
 2902TIP3   OH2 8711   6.242   1.386   4.822
 2902TIP3    H1 8712   6.268   1.323   4.755
 2902TIP3    H2 8713   6.165   1.347   4.863
 2903TIP3   OH2 8714   3.698   2.677   0.611
 2903TIP3    H1 8715   3.759   2.732   0.660
 2903TIP3    H2 8716   3.612   2.717   0.627
 2904TIP3   OH2 8717   1.204   2.306   3.124
 2904TIP3    H1 8718   1.240   2.333   3.209
 2904TIP3    H2 8719   1.267   2.242   3.091
 2905TIP3   OH2 8720   1.510   0.654   2.889
 2905TIP3    H1 8721   1.505   0.619   2.800
 2905TIP3    H2 8722   1.586   0.611   2.928
 2906TIP3   OH2 8723   3.402   2.107   3.450
 2906TIP3    H1 8724   3.383   2.041   3.383
 2906TIP3    H2 8725   3.399   2.059   3.533
 2907TIP3   OH2 8726   1.553   3.160   0.546
 2907TIP3    H1 8727   1.565   3.068   0.568
 2907TIP3    H2 8728   1.464   3.180   0.574
 2908TIP3   OH2 8729   3.338   3.973   4.316
 2908TIP3    H1 8730   3.395   3.920   4.372
 2908TIP3    H2 8731   3.358   4.064   4.341
 2909TIP3   OH2 8732   5.612   5.185   2.188
 2909TIP3    H1 8733   5.635   5.271   2.151
 2909TIP3    H2 8734   5.526   5.166   2.152
 2910TIP3   OH2 8735   4.014   0.470   3.029
 2910TIP3    H1 8736   4.088   0.420   2.996
 2910TIP3    H2 8737   4.041   0.561   3.022
 2911TIP3   OH2 8738   4.424   4.686   1.814
 2911TIP3    H1 8739   4.370   4.762   1.839
 2911TIP3    H2 8740   4.473   4.716   1.737
 2912TIP3   OH2 8741   1.172   4.254   4.631
 2912TIP3    H1 8742   1.196   4.190   4.563
 2912TIP3    H2 8743   1.172   4.204   4.712
 2913TIP3   OH2 8744   5.797   2.554   3.603
 2913TIP3    H1 8745   5.843   2.576   3.522
 2913TIP3    H2 8746   5.714   2.515   3.573
 2914TIP3   OH2 8747   2.170   3.630   4.659
 2914TIP3    H1 8748   2.224   3.658   4.585
 2914TIP3    H2 8749   2.182   3.535   4.663
 2915TIP3   OH2 8750   1.403   2.581   3.699
 2915TIP3    H1 8751   1.423   2.674   3.696
 2915TIP3    H2 8752   1.308   2.576   3.692
 2916TIP3   OH2 8753   5.296   5.026   4.468
 2916TIP3    H1 8754   5.212   4.983   4.478
 2916TIP3    H2 8755   5.298   5.093   4.537
 2917TIP3   OH2 8756   4.765   0.034   3.865
 2917TIP3    H1 8757   4.741  -0.051   3.827
 2917TIP3    H2 8758   4.760   0.019   3.960
 2918TIP3   OH2 8759   5.396   3.286   1.588
 2918TIP3    H1 8760   5.456   3.223   1.627
 2918TIP3    H2 8761   5.312   3.239   1.583
 2919TIP3   OH2 8762   1.460   3.977   0.059
 2919TIP3    H1 8763   1.407   3.904   0.026
 2919TIP3    H2 8764   1.549   3.942   0.063
 2920TIP3   OH2 8765   0.626   5.349   2.557
 2920TIP3    H1 8766   0.614   5.279   2.621
 2920TIP3    H2 8767   0.606   5.307   2.473
 2921TIP3   OH2 8768   6.095   2.777   0.662
 2921TIP3    H1 8769   6.158   2.809   0.597
 2921TIP3    H2 8770   6.123   2.818   0.744
 2922TIP3   OH2 8771   5.117   1.555   3.973
 2922TIP3    H1 8772   5.083   1.580   4.059
 2922TIP3    H2 8773   5.112   1.459   3.972
 2923TIP3   OH2 8774   6.118   0.238   2.946
 2923TIP3    H1 8775   6.098   0.221   2.854
 2923TIP3    H2 8776   6.047   0.294   2.976
 2924TIP3   OH2 8777   6.036   1.503   3.504
 2924TIP3    H1 8778   5.942   1.520   3.517
 2924TIP3    H2 8779   6.079   1.583   3.533
 2925TIP3   OH2 8780   6.202   1.460   1.298
 2925TIP3    H1 8781   6.164   1.468   1.385
 2925TIP3    H2 8782   6.261   1.535   1.291
 2926TIP3   OH2 8783   2.968   3.466   2.931
 2926TIP3    H1 8784   2.898   3.478   2.867
 2926TIP3    H2 8785   2.941   3.518   3.007
 2927TIP3   OH2 8786   2.770   3.764   4.054
 2927TIP3    H1 8787   2.819   3.826   4.000
 2927TIP3    H2 8788   2.803   3.678   4.027
 2928TIP3   OH2 8789   5.602   5.532   4.870
 2928TIP3    H1 8790   5.589   5.590   4.944
 2928TIP3    H2 8791   5.655   5.582   4.808
 2929TIP3   OH2 8792   4.370   5.891   2.567
 2929TIP3    H1 8793   4.332   5.849   2.645
 2929TIP3    H2 8794   4.339   5.838   2.494
 2930TIP3   OH2 8795   4.304   0.851   2.791
 2930TIP3    H1 8796   4.391   0.814   2.777
 2930TIP3    H2 8797   4.278   0.885   2.706
 2931TIP3   OH2 8798   4.574   5.146   0.462
 2931TIP3    H1 8799   4.639   5.187   0.405
 2931TIP3    H2 8800   4.539   5.218   0.514
 2932TIP3   OH2 8801   5.434   5.106   0.726
 2932TIP3    H1 8802   5.482   5.129   0.647
 2932TIP3    H2 8803   5.466   5.167   0.793
 2933TIP3   OH2 8804   4.338   4.242   2.019
 2933TIP3    H1 8805   4.365   4.281   2.102
 2933TIP3    H2 8806   4.370   4.152   2.023
 2934TIP3   OH2 8807   4.171   5.897   3.501
 2934TIP3    H1 8808   4.245   5.844   3.473
 2934TIP3    H2 8809   4.142   5.942   3.422
 2935TIP3   OH2 8810   1.842   0.143   2.118
 2935TIP3    H1 8811   1.805   0.231   2.122
 2935TIP3    H2 8812   1.789   0.092   2.179
 2936TIP3   OH2 8813   1.323   4.494   4.547
 2936TIP3    H1 8814   1.281   4.409   4.536
 2936TIP3    H2 8815   1.279   4.551   4.484
 2937TIP3   OH2 8816   4.091   0.726   3.195
 2937TIP3    H1 8817   4.119   0.668   3.266
 2937TIP3    H2 8818   4.152   0.800   3.199
 2938TIP3   OH2 8819   5.939   2.010   1.360
 2938TIP3    H1 8820   5.931   2.065   1.439
 2938TIP3    H2 8821   5.853   2.017   1.317
 2939TIP3   OH2 8822   4.137   4.378   2.587
 2939TIP3    H1 8823   4.048   4.353   2.610
 2939TIP3    H2 8824   4.176   4.297   2.554
 2940TIP3   OH2 8825   1.241   2.505   4.643
 2940TIP3    H1 8826   1.293   2.569   4.595
 2940TIP3    H2 8827   1.295   2.482   4.719
 2941TIP3   OH2 8828   0.229   4.766   0.600
 2941TIP3    H1 8829   0.319   4.784   0.572
 2941TIP3    H2 8830   0.176   4.832   0.555
 2942TIP3   OH2 8831   0.708   1.675   1.586
 2942TIP3    H1 8832   0.773   1.606   1.600
 2942TIP3    H2 8833   0.703   1.721   1.670
 2943TIP3   OH2 8834   4.492   4.759   0.190
 2943TIP3    H1 8835   4.497   4.664   0.177
 2943TIP3    H2 8836   4.475   4.794   0.102
 2944TIP3   OH2 8837   4.520   3.193   3.500
 2944TIP3    H1 8838   4.610   3.203   3.532
 2944TIP3    H2 8839   4.511   3.099   3.482
 2945TIP3   OH2 8840   3.388   4.242   1.607
 2945TIP3    H1 8841   3.334   4.165   1.589
 2945TIP3    H2 8842   3.337   4.294   1.669
 2946TIP3   OH2 8843   4.256   2.774   3.082
 2946TIP3    H1 8844   4.306   2.718   3.141
 2946TIP3    H2 8845   4.184   2.807   3.136
 2947TIP3   OH2 8846   5.614   1.259   4.536
 2947TIP3    H1 8847   5.596   1.351   4.555
 2947TIP3    H2 8848   5.586   1.212   4.615
 2948TIP3   OH2 8849   1.406   0.997   4.185
 2948TIP3    H1 8850   1.468   1.045   4.241
 2948TIP3    H2 8851   1.337   1.061   4.166
 2949TIP3   OH2 8852   3.944   0.439   0.699
 2949TIP3    H1 8853   3.951   0.386   0.778
 2949TIP3    H2 8854   3.970   0.527   0.726
 2950TIP3   OH2 8855   6.309   5.790   4.434
 2950TIP3    H1 8856   6.366   5.717   4.459
 2950TIP3    H2 8857   6.365   5.867   4.437
 2951TIP3   OH2 8858   5.104   5.834   1.239
 2951TIP3    H1 8859   5.127   5.758   1.184
 2951TIP3    H2 8860   5.135   5.910   1.189
 2952TIP3   OH2 8861   2.572   4.386   2.900
 2952TIP3    H1 8862   2.597   4.367   2.809
 2952TIP3    H2 8863   2.597   4.478   2.913
 2953TIP3   OH2 8864   0.543   4.041   2.504
 2953TIP3    H1 8865   0.583   4.045   2.591
 2953TIP3    H2 8866   0.548   3.948   2.480
 2954TIP3   OH2 8867   5.292   1.859   3.082
 2954TIP3    H1 8868   5.384   1.846   3.057
 2954TIP3    H2 8869   5.262   1.929   3.024
 2955TIP3   OH2 8870   2.598   3.158   1.010
 2955TIP3    H1 8871   2.677   3.203   1.037
 2955TIP3    H2 8872   2.529   3.225   1.015
 2956TIP3   OH2 8873   4.542   4.112   4.169
 2956TIP3    H1 8874   4.608   4.153   4.225
 2956TIP3    H2 8875   4.567   4.020   4.166
 2957TIP3   OH2 8876   4.100   4.510   3.451
 2957TIP3    H1 8877   4.051   4.568   3.510
 2957TIP3    H2 8878   4.192   4.529   3.468
 2958TIP3   OH2 8879   6.234   0.497   3.104
 2958TIP3    H1 8880   6.245   0.405   3.129
 2958TIP3    H2 8881   6.196   0.538   3.182
 2959TIP3   OH2 8882   1.728   4.876   3.294
 2959TIP3    H1 8883   1.759   4.818   3.224
 2959TIP3    H2 8884   1.673   4.819   3.348
 2960TIP3   OH2 8885   5.396   4.537   2.244
 2960TIP3    H1 8886   5.361   4.485   2.172
 2960TIP3    H2 8887   5.470   4.486   2.278
 2961TIP3   OH2 8888   0.503   0.834   2.784
 2961TIP3    H1 8889   0.470   0.745   2.771
 2961TIP3    H2 8890   0.476   0.881   2.705
 2962TIP3   OH2 8891   5.197   5.730   2.198
 2962TIP3    H1 8892   5.186   5.672   2.122
 2962TIP3    H2 8893   5.110   5.766   2.214
 2963TIP3   OH2 8894   1.117   4.307   5.071
 2963TIP3    H1 8895   1.113   4.339   5.161
 2963TIP3    H2 8896   1.202   4.336   5.039
 2964TIP3   OH2 8897   3.382   2.575   1.326
 2964TIP3    H1 8898   3.380   2.628   1.406
 2964TIP3    H2 8899   3.375   2.639   1.255
 2965TIP3   OH2 8900   4.383   5.153   3.441
 2965TIP3    H1 8901   4.396   5.059   3.429
 2965TIP3    H2 8902   4.337   5.161   3.524
 2966TIP3   OH2 8903   5.375   0.176   4.417
 2966TIP3    H1 8904   5.442   0.147   4.479
 2966TIP3    H2 8905   5.321   0.098   4.403
 2967TIP3   OH2 8906   0.544   5.481   0.035
 2967TIP3    H1 8907   0.473   5.419   0.018
 2967TIP3    H2 8908   0.505   5.567   0.017
 2968TIP3   OH2 8909   0.575   3.104   4.683
 2968TIP3    H1 8910   0.543   3.016   4.705
 2968TIP3    H2 8911   0.548   3.116   4.592
 2969TIP3   OH2 8912   2.289   1.578   4.035
 2969TIP3    H1 8913   2.370   1.528   4.033
 2969TIP3    H2 8914   2.268   1.585   4.128
 2970TIP3   OH2 8915   3.930   5.803   0.980
 2970TIP3    H1 8916   3.943   5.789   0.886
 2970TIP3    H2 8917   3.836   5.787   0.994
 2971TIP3   OH2 8918   1.220   0.218   0.253
 2971TIP3    H1 8919   1.204   0.161   0.328
 2971TIP3    H2 8920   1.214   0.159   0.177
 2972TIP3   OH2 8921   1.304   5.425   1.399
 2972TIP3    H1 8922   1.243   5.377   1.342
 2972TIP3    H2 8923   1.254   5.500   1.430
 2973TIP3   OH2 8924   4.753   1.154   2.610
 2973TIP3    H1 8925   4.756   1.070   2.657
 2973TIP3    H2 8926   4.684   1.204   2.654
 2974TIP3   OH2 8927   0.178   1.513   3.826
 2974TIP3    H1 8928   0.140   1.425   3.817
 2974TIP3    H2 8929   0.262   1.498   3.870
 2975TIP3   OH2 8930   3.086   3.927   3.854
 2975TIP3    H1 8931   3.076   3.832   3.847
 2975TIP3    H2 8932   2.999   3.958   3.881
 2976TIP3   OH2 8933   5.583   5.361   0.177
 2976TIP3    H1 8934   5.500   5.328   0.143
 2976TIP3    H2 8935   5.632   5.282   0.202
 2977TIP3   OH2 8936   1.314   5.965   0.364
 2977TIP3    H1 8937   1.223   5.978   0.391
 2977TIP3    H2 8938   1.309   5.932   0.275
 2978TIP3   OH2 8939   1.168   0.314   1.773
 2978TIP3    H1 8940   1.232   0.252   1.738
 2978TIP3    H2 8941   1.211   0.399   1.766
 2979TIP3   OH2 8942   4.486   2.402   3.639
 2979TIP3    H1 8943   4.410   2.436   3.592
 2979TIP3    H2 8944   4.451   2.376   3.724
 2980TIP3   OH2 8945   4.005   3.805   0.958
 2980TIP3    H1 8946   4.079   3.850   0.998
 2980TIP3    H2 8947   3.932   3.866   0.967
 2981TIP3   OH2 8948   1.624   0.301   2.960
 2981TIP3    H1 8949   1.595   0.304   2.869
 2981TIP3    H2 8950   1.676   0.381   2.971
 2982TIP3   OH2 8951   2.438   2.000   4.385
 2982TIP3    H1 8952   2.469   2.026   4.472
 2982TIP3    H2 8953   2.436   2.082   4.335
 2983TIP3   OH2 8954   0.263   1.575   1.592
 2983TIP3    H1 8955   0.351   1.543   1.610
 2983TIP3    H2 8956   0.239   1.626   1.670
 2984TIP3   OH2 8957   6.251   1.131   4.347
 2984TIP3    H1 8958   6.204   1.214   4.338
 2984TIP3    H2 8959   6.215   1.076   4.277
 2985TIP3   OH2 8960   0.430   4.788   1.796
 2985TIP3    H1 8961   0.480   4.707   1.790
 2985TIP3    H2 8962   0.478   4.843   1.857
 2986TIP3   OH2 8963   2.642   3.504   4.414
 2986TIP3    H1 8964   2.632   3.443   4.340
 2986TIP3    H2 8965   2.642   3.591   4.374
 2987TIP3   OH2 8966   2.579   1.464   1.267
 2987TIP3    H1 8967   2.544   1.489   1.353
 2987TIP3    H2 8968   2.627   1.382   1.284
 2988TIP3   OH2 8969   3.933   4.603   2.172
 2988TIP3    H1 8970   4.013   4.553   2.185
 2988TIP3    H2 8971   3.867   4.558   2.225
 2989TIP3   OH2 8972   6.103   5.579   3.339
 2989TIP3    H1 8973   6.193   5.549   3.326
 2989TIP3    H2 8974   6.112   5.671   3.361
 2990TIP3   OH2 8975   5.185   0.582   4.180
 2990TIP3    H1 8976   5.219   0.575   4.269
 2990TIP3    H2 8977   5.223   0.508   4.134
 2991TIP3   OH2 8978   2.686   0.244   5.056
 2991TIP3    H1 8979   2.603   0.262   5.100
 2991TIP3    H2 8980   2.682   0.294   4.975
 2992TIP3   OH2 8981   2.295   5.439   4.802
 2992TIP3    H1 8982   2.345   5.391   4.736
 2992TIP3    H2 8983   2.322   5.530   4.791
 2993TIP3   OH2 8984   0.284   4.940   3.629
 2993TIP3    H1 8985   0.273   4.899   3.715
 2993TIP3    H2 8986   0.314   5.029   3.648
 2994TIP3   OH2 8987   1.711   5.444   2.196
 2994TIP3    H1 8988   1.634   5.493   2.167
 2994TIP3    H2 8989   1.784   5.501   2.176
 2995TIP3   OH2 8990   1.825   0.567   3.963
 2995TIP3    H1 8991   1.877   0.494   3.929
 2995TIP3    H2 8992   1.887   0.639   3.970
 2996TIP3   OH2 8993   2.658   2.914   3.349
 2996TIP3    H1 8994   2.632   2.912   3.441
 2996TIP3    H2 8995   2.701   2.999   3.337
 2997TIP3   OH2 8996   4.762   4.806   3.891
 2997TIP3    H1 8997   4.781   4.714   3.910
 2997TIP3    H2 8998   4.677   4.822   3.933
 2998TIP3   OH2 8999   2.575   2.379   1.268
 2998TIP3    H1 9000   2.572   2.426   1.184
 2998TIP3    H2 9001   2.484   2.367   1.292
 2999TIP3   OH2 9002   2.217   5.857   4.128
 2999TIP3    H1 9003   2.240   5.795   4.197
 2999TIP3    H2 9004   2.268   5.935   4.147
 3000TIP3   OH2 9005   0.438   4.819   0.409
 3000TIP3    H1 9006   0.405   4.752   0.350
 3000TIP3    H2 9007   0.533   4.816   0.397
 3001TIP3   OH2 9008   2.595   4.410   4.985
 3001TIP3    H1 9009   2.685   4.440   4.990
 3001TIP3    H2 9010   2.600   4.317   5.010
 3002TIP3   OH2 9011   0.832   3.694   0.095
 3002TIP3    H1 9012   0.796   3.735   0.174
 3002TIP3    H2 9013   0.778   3.617   0.080
 3003TIP3   OH2 9014   3.817   3.129   4.998
 3003TIP3    H1 9015   3.896   3.182   4.989
 3003TIP3    H2 9016   3.815   3.075   4.919
 3004TIP3   OH2 9017   2.861   0.471   4.821
 3004TIP3    H1 9018   2.775   0.504   4.797
 3004TIP3    H2 9019   2.849   0.376   4.826
 3005TIP3   OH2 9020   0.344   1.560   5.195
 3005TIP3    H1 9021   0.339   1.609   5.113
 3005TIP3    H2 9022   0.375   1.473   5.169
 3006TIP3   OH2 9023   4.910   1.250   0.912
 3006TIP3    H1 9024   4.889   1.307   0.985
 3006TIP3    H2 9025   4.914   1.308   0.836
 3007TIP3   OH2 9026   5.903   4.790   4.549
 3007TIP3    H1 9027   5.894   4.864   4.488
 3007TIP3    H2 9028   5.969   4.818   4.612
 3008TIP3   OH2 9029   1.608   2.706   2.749
 3008TIP3    H1 9030   1.666   2.636   2.779
 3008TIP3    H2 9031   1.663   2.761   2.694
 3009TIP3   OH2 9032   6.140   4.848   0.448
 3009TIP3    H1 9033   6.148   4.809   0.361
 3009TIP3    H2 9034   6.118   4.776   0.506
 3010TIP3   OH2 9035   5.394   5.516   3.238
 3010TIP3    H1 9036   5.308   5.484   3.265
 3010TIP3    H2 9037   5.429   5.559   3.316
 3011TIP3   OH2 9038   5.465   1.911   0.498
 3011TIP3    H1 9039   5.536   1.885   0.441
 3011TIP3    H2 9040   5.473   2.006   0.505
 3012TIP3   OH2 9041   0.373   5.879   3.863
 3012TIP3    H1 9042   0.327   5.961   3.880
 3012TIP3    H2 9043   0.447   5.904   3.806
 3013TIP3   OH2 9044   0.099   3.744   2.583
 3013TIP3    H1 9045   0.153   3.746   2.504
 3013TIP3    H2 9046   0.156   3.776   2.653
 3014TIP3   OH2 9047   2.429   3.306   2.969
 3014TIP3    H1 9048   2.423   3.245   3.043
 3014TIP3    H2 9049   2.365   3.375   2.990
 3015TIP3   OH2 9050   2.046   1.003   0.797
 3015TIP3    H1 9051   2.065   1.092   0.767
 3015TIP3    H2 9052   1.965   1.012   0.848
 3016TIP3   OH2 9053   4.881   1.075   4.151
 3016TIP3    H1 9054   4.949   1.056   4.086
 3016TIP3    H2 9055   4.802   1.089   4.100
 3017TIP3   OH2 9056   0.408   0.139   5.150
 3017TIP3    H1 9057   0.385   0.212   5.093
 3017TIP3    H2 9058   0.411   0.178   5.238
 3018TIP3   OH2 9059   5.934   1.445   5.149
 3018TIP3    H1 9060   5.857   1.471   5.099
 3018TIP3    H2 9061   5.911   1.461   5.241
 3019TIP3   OH2 9062   1.938   2.812   0.666
 3019TIP3    H1 9063   2.029   2.795   0.643
 3019TIP3    H2 9064   1.889   2.795   0.586
 3020TIP3   OH2 9065   3.097   1.331   1.910
 3020TIP3    H1 9066   3.127   1.246   1.878
 3020TIP3    H2 9067   3.151   1.347   1.988
 3021TIP3   OH2 9068   0.710   0.100   1.999
 3021TIP3    H1 9069   0.782   0.037   1.989
 3021TIP3    H2 9070   0.646   0.072   1.934
 3022TIP3   OH2 9071   1.824   5.430   1.313
 3022TIP3    H1 9072   1.820   5.464   1.403
 3022TIP3    H2 9073   1.843   5.507   1.260
 3023TIP3   OH2 9074   0.732   1.062   0.114
 3023TIP3    H1 9075   0.814   1.037   0.155
 3023TIP3    H2 9076   0.717   1.152   0.143
 3024TIP3   OH2 9077   4.984   3.927   0.119
 3024TIP3    H1 9078   5.079   3.933   0.123
 3024TIP3    H2 9079   4.953   4.013   0.149
 3025TIP3   OH2 9080   0.932   3.221   2.753
 3025TIP3    H1 9081   0.995   3.179   2.695
 3025TIP3    H2 9082   0.893   3.149   2.803
 3026TIP3   OH2 9083   1.691   3.011   4.257
 3026TIP3    H1 9084   1.778   2.987   4.289
 3026TIP3    H2 9085   1.678   2.955   4.180
 3027TIP3   OH2 9086   2.996   1.302   0.787
 3027TIP3    H1 9087   2.931   1.234   0.802
 3027TIP3    H2 9088   3.054   1.265   0.720
 3028TIP3   OH2 9089   5.717   0.216   4.412
 3028TIP3    H1 9090   5.755   0.130   4.428
 3028TIP3    H2 9091   5.704   0.220   4.317
 3029TIP3   OH2 9092   1.690   1.875   3.914
 3029TIP3    H1 9093   1.778   1.897   3.884
 3029TIP3    H2 9094   1.687   1.779   3.914
 3030TIP3   OH2 9095   0.506   3.402   0.837
 3030TIP3    H1 9096   0.450   3.409   0.759
 3030TIP3    H2 9097   0.595   3.403   0.802
 3031TIP3   OH2 9098   0.525   4.754   3.835
 3031TIP3    H1 9099   0.506   4.666   3.869
 3031TIP3    H2 9100   0.595   4.740   3.770
 3032TIP3   OH2 9101   4.916   1.378   5.078
 3032TIP3    H1 9102   4.968   1.393   4.998
 3032TIP3    H2 9103   4.974   1.404   5.149
 3033TIP3   OH2 9104   0.498   4.507   1.844
 3033TIP3    H1 9105   0.543   4.432   1.805
 3033TIP3    H2 9106   0.405   4.492   1.828
 3034TIP3   OH2 9107   5.899   2.211   3.994
 3034TIP3    H1 9108   5.981   2.259   3.982
 3034TIP3    H2 9109   5.872   2.189   3.905
 3035TIP3   OH2 9110   4.568   4.918   4.753
 3035TIP3    H1 9111   4.569   4.864   4.832
 3035TIP3    H2 9112   4.561   4.856   4.681
 3036TIP3   OH2 9113   1.930   4.732   1.109
 3036TIP3    H1 9114   1.976   4.752   1.027
 3036TIP3    H2 9115   2.001   4.717   1.172
 3037TIP3   OH2 9116   4.965   0.178   2.638
 3037TIP3    H1 9117   4.985   0.146   2.550
 3037TIP3    H2 9118   5.009   0.263   2.643
 3038TIP3   OH2 9119   2.943   4.698   3.204
 3038TIP3    H1 9120   2.963   4.781   3.161
 3038TIP3    H2 9121   2.857   4.674   3.171
 3039TIP3   OH2 9122   1.050   2.983   5.081
 3039TIP3    H1 9123   0.959   2.963   5.101
 3039TIP3    H2 9124   1.064   3.071   5.115
 3040TIP3   OH2 9125   1.865   3.436   0.676
 3040TIP3    H1 9126   1.867   3.367   0.609
 3040TIP3    H2 9127   1.801   3.405   0.740
 3041TIP3   OH2 9128   4.492   4.955   1.042
 3041TIP3    H1 9129   4.469   5.048   1.041
 3041TIP3    H2 9130   4.446   4.919   0.966
 3042TIP3   OH2 9131   6.143   3.205   1.031
 3042TIP3    H1 9132   6.054   3.208   1.066
 3042TIP3    H2 9133   6.199   3.227   1.106
 3043TIP3   OH2 9134   1.817   1.038   3.702
 3043TIP3    H1 9135   1.855   1.099   3.638
 3043TIP3    H2 9136   1.820   1.085   3.785
 3044TIP3   OH2 9137   2.810   3.843   2.041
 3044TIP3    H1 9138   2.876   3.778   2.067
 3044TIP3    H2 9139   2.739   3.830   2.103
 3045TIP3   OH2 9140   3.029   3.022   1.690
 3045TIP3    H1 9141   2.984   2.951   1.644
 3045TIP3    H2 9142   2.964   3.093   1.695
 3046TIP3   OH2 9143   6.310   2.897   0.526
 3046TIP3    H1 9144   6.378   2.921   0.463
 3046TIP3    H2 9145   6.259   2.977   0.538
 3047TIP3   OH2 9146   2.062   0.903   3.181
 3047TIP3    H1 9147   1.973   0.874   3.158
 3047TIP3    H2 9148   2.050   0.987   3.223
 3048TIP3   OH2 9149   5.847   4.989   1.332
 3048TIP3    H1 9150   5.877   5.003   1.242
 3048TIP3    H2 9151   5.752   4.985   1.325
 3049TIP3   OH2 9152   1.661   5.060   5.044
 3049TIP3    H1 9153   1.614   5.074   5.126
 3049TIP3    H2 9154   1.751   5.085   5.063
 3050TIP3   OH2 9155   5.355   5.132   2.724
 3050TIP3    H1 9156   5.358   5.088   2.809
 3050TIP3    H2 9157   5.374   5.063   2.661
 3051TIP3   OH2 9158   5.943   0.612   2.733
 3051TIP3    H1 9159   5.911   0.551   2.666
 3051TIP3    H2 9160   6.030   0.578   2.756
 3052TIP3   OH2 9161   1.127   1.797   3.742
 3052TIP3    H1 9162   1.071   1.762   3.672
 3052TIP3    H2 9163   1.105   1.744   3.818
 3053TIP3   OH2 9164   0.871   1.338   1.173
 3053TIP3    H1 9165   0.780   1.368   1.170
 3053TIP3    H2 9166   0.887   1.317   1.265
 3054TIP3   OH2 9167   4.670   2.157   2.634
 3054TIP3    H1 9168   4.575   2.150   2.633
 3054TIP3    H2 9169   4.701   2.076   2.592
 3055TIP3   OH2 9170   1.284   2.416   0.861
 3055TIP3    H1 9171   1.281   2.422   0.766
 3055TIP3    H2 9172   1.302   2.323   0.879
 3056TIP3   OH2 9173   0.107   4.350   2.443
 3056TIP3    H1 9174   0.106   4.344   2.538
 3056TIP3    H2 9175   0.142   4.266   2.414
 3057TIP3   OH2 9176   1.481   2.403   4.002
 3057TIP3    H1 9177   1.547   2.443   3.945
 3057TIP3    H2 9178   1.472   2.314   3.969
 3058TIP3   OH2 9179   0.369   3.117   0.539
 3058TIP3    H1 9180   0.415   3.151   0.462
 3058TIP3    H2 9181   0.276   3.119   0.515
 3059TIP3   OH2 9182   5.894   1.551   0.849
 3059TIP3    H1 9183   5.961   1.605   0.891
 3059TIP3    H2 9184   5.860   1.496   0.920
 3060TIP3   OH2 9185   1.676   3.482   1.988
 3060TIP3    H1 9186   1.728   3.498   1.909
 3060TIP3    H2 9187   1.589   3.460   1.956
 3061TIP3   OH2 9188   1.582   1.002   0.564
 3061TIP3    H1 9189   1.532   1.071   0.606
 3061TIP3    H2 9190   1.604   0.941   0.634
 3062TIP3   OH2 9191   4.221   5.276   3.179
 3062TIP3    H1 9192   4.133   5.314   3.174
 3062TIP3    H2 9193   4.247   5.288   3.270
 3063TIP3   OH2 9194   0.853   2.093   2.483
 3063TIP3    H1 9195   0.843   2.001   2.460
 3063TIP3    H2 9196   0.930   2.095   2.540
 3064TIP3   OH2 9197   5.408   4.647   3.510
 3064TIP3    H1 9198   5.445   4.562   3.487
 3064TIP3    H2 9199   5.482   4.695   3.549
 3065TIP3   OH2 9200   5.484   2.321   3.249
 3065TIP3    H1 9201   5.411   2.298   3.307
 3065TIP3    H2 9202   5.469   2.269   3.170
 3066TIP3   OH2 9203   1.020   4.063   1.441
 3066TIP3    H1 9204   1.000   3.984   1.391
 3066TIP3    H2 9205   0.951   4.125   1.416
 3067TIP3   OH2 9206   4.618   2.100   1.224
 3067TIP3    H1 9207   4.707   2.130   1.243
 3067TIP3    H2 9208   4.596   2.143   1.141
 3068TIP3   OH2 9209   3.582   0.983   4.937
 3068TIP3    H1 9210   3.627   0.901   4.918
 3068TIP3    H2 9211   3.521   0.961   5.008
 3069TIP3   OH2 9212   4.970   3.849   1.995
 3069TIP3    H1 9213   4.901   3.816   1.937
 3069TIP3    H2 9214   5.046   3.793   1.977
 3070TIP3   OH2 9215   3.398   3.701   0.539
 3070TIP3    H1 9216   3.328   3.765   0.542
 3070TIP3    H2 9217   3.366   3.632   0.480
 3071TIP3   OH2 9218   0.234   1.993   1.158
 3071TIP3    H1 9219   0.300   2.015   1.092
 3071TIP3    H2 9220   0.277   1.928   1.213
 3072TIP3   OH2 9221   5.200   2.335   0.084
 3072TIP3    H1 9222   5.274   2.331   0.024
 3072TIP3    H2 9223   5.194   2.247   0.121
 3073TIP3   OH2 9224   2.407   5.856   0.155
 3073TIP3    H1 9225   2.347   5.927   0.176
 3073TIP3    H2 9226   2.480   5.869   0.217
 3074TIP3   OH2 9227   5.704   5.259   2.425
 3074TIP3    H1 9228   5.647   5.243   2.350
 3074TIP3    H2 9229   5.715   5.174   2.466
 3075TIP3   OH2 9230   3.951   3.303   4.620
 3075TIP3    H1 9231   3.883   3.254   4.575
 3075TIP3    H2 9232   3.982   3.366   4.555
 3076TIP3   OH2 9233   3.042   5.373   4.121
 3076TIP3    H1 9234   3.037   5.389   4.216
 3076TIP3    H2 9235   2.979   5.434   4.083
 3077TIP3   OH2 9236   4.465   2.063   1.715
 3077TIP3    H1 9237   4.419   2.144   1.738
 3077TIP3    H2 9238   4.446   2.051   1.622
 3078TIP3   OH2 9239   5.818   3.821   5.102
 3078TIP3    H1 9240   5.884   3.885   5.128
 3078TIP3    H2 9241   5.869   3.746   5.070
 3079TIP3   OH2 9242   6.072   0.388   1.199
 3079TIP3    H1 9243   5.991   0.405   1.150
 3079TIP3    H2 9244   6.046   0.329   1.270
 3080TIP3   OH2 9245   4.341   2.310   1.777
 3080TIP3    H1 9246   4.339   2.399   1.742
 3080TIP3    H2 9247   4.250   2.290   1.798
 3081TIP3   OH2 9248   1.815   5.115   3.194
 3081TIP3    H1 9249   1.839   5.098   3.103
 3081TIP3    H2 9250   1.794   5.028   3.230
 3082TIP3   OH2 9251   2.342   2.496   4.091
 3082TIP3    H1 9252   2.325   2.483   4.185
 3082TIP3    H2 9253   2.256   2.494   4.051
 3083TIP3   OH2 9254   6.285   3.458   0.462
 3083TIP3    H1 9255   6.293   3.396   0.533
 3083TIP3    H2 9256   6.269   3.542   0.505
 3084TIP3   OH2 9257   5.892   0.527   0.616
 3084TIP3    H1 9258   5.955   0.599   0.618
 3084TIP3    H2 9259   5.887   0.502   0.524
 3085TIP3   OH2 9260   3.692   0.140   1.073
 3085TIP3    H1 9261   3.656   0.164   0.987
 3085TIP3    H2 9262   3.619   0.156   1.134
 3086TIP3   OH2 9263   0.645   2.106   4.379
 3086TIP3    H1 9264   0.606   2.022   4.400
 3086TIP3    H2 9265   0.738   2.095   4.398
 3087TIP3   OH2 9266   5.117   1.357   4.646
 3087TIP3    H1 9267   5.088   1.402   4.725
 3087TIP3    H2 9268   5.202   1.319   4.669
 3088TIP3   OH2 9269   0.905   1.021   4.087
 3088TIP3    H1 9270   0.932   1.058   4.002
 3088TIP3    H2 9271   0.853   0.944   4.064
 3089TIP3   OH2 9272   0.533   2.546   1.498
 3089TIP3    H1 9273   0.620   2.560   1.461
 3089TIP3    H2 9274   0.491   2.631   1.495
 3090TIP3   OH2 9275   3.137   3.337   3.816
 3090TIP3    H1 9276   3.050   3.314   3.782
 3090TIP3    H2 9277   3.141   3.297   3.902
 3091TIP3   OH2 9278   4.112   1.910   3.405
 3091TIP3    H1 9279   4.175   1.944   3.469
 3091TIP3    H2 9280   4.068   1.838   3.450
 3092TIP3   OH2 9281   0.333   3.376   1.276
 3092TIP3    H1 9282   0.352   3.455   1.225
 3092TIP3    H2 9283   0.361   3.398   1.365
 3093TIP3   OH2 9284   1.762   4.843   4.823
 3093TIP3    H1 9285   1.775   4.830   4.917
 3093TIP3    H2 9286   1.799   4.929   4.805
 3094TIP3   OH2 9287   6.249   5.943   1.995
 3094TIP3    H1 9288   6.333   5.976   2.028
 3094TIP3    H2 9289   6.183   5.994   2.041
 3095TIP3   OH2 9290   5.243   0.497   4.435
 3095TIP3    H1 9291   5.238   0.409   4.474
 3095TIP3    H2 9292   5.319   0.537   4.477
 3096TIP3   OH2 9293   1.723   1.249   2.137
 3096TIP3    H1 9294   1.707   1.193   2.213
 3096TIP3    H2 9295   1.714   1.190   2.062
 3097TIP3   OH2 9296   0.033   2.096   4.527
 3097TIP3    H1 9297   0.025   2.085   4.622
 3097TIP3    H2 9298  -0.023   2.027   4.491
 3098TIP3   OH2 9299   4.402   3.838   2.383
 3098TIP3    H1 9300   4.475   3.892   2.412
 3098TIP3    H2 9301   4.387   3.864   2.293
 3099TIP3   OH2 9302   0.131   1.287   4.337
 3099TIP3    H1 9303   0.092   1.374   4.348
 3099TIP3    H2 9304   0.057   1.227   4.342
 3100TIP3   OH2 9305   0.904   1.586   0.284
 3100TIP3    H1 9306   0.923   1.556   0.373
 3100TIP3    H2 9307   0.962   1.534   0.228
 3101TIP3   OH2 9308   4.611   1.099   2.288
 3101TIP3    H1 9309   4.641   1.135   2.371
 3101TIP3    H2 9310   4.689   1.094   2.233
 3102TIP3   OH2 9311   1.376   1.597   0.941
 3102TIP3    H1 9312   1.451   1.631   0.988
 3102TIP3    H2 9313   1.413   1.538   0.875
 3103TIP3   OH2 9314   5.682   0.433   4.585
 3103TIP3    H1 9315   5.755   0.403   4.639
 3103TIP3    H2 9316   5.661   0.358   4.529
 3104TIP3   OH2 9317   2.055   1.188   0.378
 3104TIP3    H1 9318   2.062   1.257   0.312
 3104TIP3    H2 9319   1.974   1.142   0.354
 3105TIP3   OH2 9320   3.416   5.267   0.144
 3105TIP3    H1 9321   3.452   5.333   0.084
 3105TIP3    H2 9322   3.436   5.301   0.231
 3106TIP3   OH2 9323   4.971   2.761   1.825
 3106TIP3    H1 9324   4.989   2.745   1.733
 3106TIP3    H2 9325   5.031   2.831   1.850
 3107TIP3   OH2 9326   5.677   5.638   2.905
 3107TIP3    H1 9327   5.767   5.672   2.902
 3107TIP3    H2 9328   5.639   5.679   2.982
 3108TIP3   OH2 9329   6.125   1.959   1.633
 3108TIP3    H1 9330   6.220   1.950   1.645
 3108TIP3    H2 9331   6.116   2.036   1.576
 3109TIP3   OH2 9332   5.808   3.389   2.561
 3109TIP3    H1 9333   5.881   3.347   2.606
 3109TIP3    H2 9334   5.844   3.469   2.524
 3110TIP3   OH2 9335   6.032   5.976   1.754
 3110TIP3    H1 9336   6.022   5.885   1.727
 3110TIP3    H2 9337   5.975   5.984   1.831
 3111TIP3   OH2 9338   4.904   1.580   3.458
 3111TIP3    H1 9339   4.979   1.568   3.515
 3111TIP3    H2 9340   4.939   1.624   3.381
 3112TIP3   OH2 9341   3.054   4.076   2.519
 3112TIP3    H1 9342   3.137   4.029   2.510
 3112TIP3    H2 9343   3.070   4.140   2.589
 3113TIP3   OH2 9344   4.984   5.068   3.665
 3113TIP3    H1 9345   4.893   5.042   3.655
 3113TIP3    H2 9346   5.019   5.065   3.576
 3114TIP3   OH2 9347   1.899   0.735   2.801
 3114TIP3    H1 9348   1.829   0.738   2.736
 3114TIP3    H2 9349   1.961   0.671   2.767
 3115TIP3   OH2 9350   2.989   2.427   3.915
 3115TIP3    H1 9351   2.979   2.507   3.968
 3115TIP3    H2 9352   2.959   2.357   3.972
 3116TIP3   OH2 9353   4.828   4.561   3.988
 3116TIP3    H1 9354   4.785   4.476   3.994
 3116TIP3    H2 9355   4.895   4.550   3.920
 3117TIP3   OH2 9356   5.758   2.251   0.373
 3117TIP3    H1 9357   5.830   2.312   0.387
 3117TIP3    H2 9358   5.770   2.183   0.439
 3118TIP3   OH2 9359   4.329   3.801   0.838
 3118TIP3    H1 9360   4.259   3.778   0.777
 3118TIP3    H2 9361   4.384   3.723   0.842
 3119TIP3   OH2 9362   5.584   3.144   2.285
 3119TIP3    H1 9363   5.637   3.140   2.205
 3119TIP3    H2 9364   5.643   3.111   2.353
 3120TIP3   OH2 9365   1.545   2.280   4.422
 3120TIP3    H1 9366   1.516   2.190   4.409
 3120TIP3    H2 9367   1.588   2.280   4.507
 3121TIP3   OH2 9368   2.419   2.683   2.660
 3121TIP3    H1 9369   2.500   2.720   2.622
 3121TIP3    H2 9370   2.369   2.654   2.584
 3122TIP3   OH2 9371   5.256   2.247   1.475
 3122TIP3    H1 9372   5.172   2.215   1.508
 3122TIP3    H2 9373   5.291   2.300   1.546
 3123TIP3   OH2 9374   4.483   3.292   1.113
 3123TIP3    H1 9375   4.395   3.259   1.129
 3123TIP3    H2 9376   4.532   3.270   1.192
 3124TIP3   OH2 9377   2.596   2.335   4.472
 3124TIP3    H1 9378   2.586   2.277   4.548
 3124TIP3    H2 9379   2.550   2.289   4.402
 3125TIP3   OH2 9380   5.366   1.001   3.173
 3125TIP3    H1 9381   5.336   1.080   3.128
 3125TIP3    H2 9382   5.386   1.030   3.262
 3126TIP3   OH2 9383   1.125   5.659   2.339
 3126TIP3    H1 9384   1.201   5.662   2.398
 3126TIP3    H2 9385   1.083   5.744   2.352
 3127TIP3   OH2 9386   3.962   2.631   2.380
 3127TIP3    H1 9387   3.887   2.674   2.339
 3127TIP3    H2 9388   4.012   2.702   2.419
 3128TIP3   OH2 9389   2.680   1.153   2.715
 3128TIP3    H1 9390   2.759   1.102   2.694
 3128TIP3    H2 9391   2.638   1.104   2.785
 3129TIP3   OH2 9392   4.861   1.291   1.679
 3129TIP3    H1 9393   4.811   1.259   1.754
 3129TIP3    H2 9394   4.951   1.298   1.712
 3130TIP3   OH2 9395   1.105   4.929   2.676
 3130TIP3    H1 9396   1.046   5.004   2.685
 3130TIP3    H2 9397   1.061   4.858   2.724
 3131TIP3   OH2 9398   4.446   2.890   4.804
 3131TIP3    H1 9399   4.529   2.852   4.776
 3131TIP3    H2 9400   4.454   2.983   4.784
 3132TIP3   OH2 9401   2.986   4.517   2.873
 3132TIP3    H1 9402   3.002   4.429   2.839
 3132TIP3    H2 9403   2.919   4.505   2.940
 3133TIP3   OH2 9404   1.440   1.126   5.130
 3133TIP3    H1 9405   1.533   1.120   5.110
 3133TIP3    H2 9406   1.413   1.035   5.145
 3134TIP3   OH2 9407   3.792   2.170   0.653
 3134TIP3    H1 9408   3.808   2.262   0.632
 3134TIP3    H2 9409   3.818   2.162   0.744
 3135TIP3   OH2 9410   5.125   5.714   2.565
 3135TIP3    H1 9411   5.049   5.671   2.527
 3135TIP3    H2 9412   5.197   5.652   2.554
 3136TIP3   OH2 9413   0.257   3.844   2.997
 3136TIP3    H1 9414   0.333   3.897   2.974
 3136TIP3    H2 9415   0.280   3.804   3.081
 3137TIP3   OH2 9416   2.482   4.539   4.439
 3137TIP3    H1 9417   2.421   4.613   4.440
 3137TIP3    H2 9418   2.515   4.535   4.529
 3138TIP3   OH2 9419   4.687   1.830   3.310
 3138TIP3    H1 9420   4.703   1.903   3.250
 3138TIP3    H2 9421   4.658   1.872   3.391
 3139TIP3   OH2 9422   3.718   2.977   1.045
 3139TIP3    H1 9423   3.719   3.068   1.014
 3139TIP3    H2 9424   3.626   2.959   1.064
 3140TIP3   OH2 9425   4.312   1.548   1.963
 3140TIP3    H1 9426   4.355   1.619   1.916
 3140TIP3    H2 9427   4.227   1.584   1.990
 3141TIP3   OH2 9428   1.454   2.787   1.215
 3141TIP3    H1 9429   1.549   2.777   1.224
 3141TIP3    H2 9430   1.437   2.769   1.123
 3142TIP3   OH2 9431   4.245   5.134   3.685
 3142TIP3    H1 9432   4.220   5.108   3.774
 3142TIP3    H2 9433   4.162   5.151   3.641
 3143TIP3   OH2 9434   0.535   2.483   0.790
 3143TIP3    H1 9435   0.459   2.485   0.848
 3143TIP3    H2 9436   0.582   2.403   0.814
 3144TIP3   OH2 9437   5.608   4.706   4.192
 3144TIP3    H1 9438   5.599   4.614   4.214
 3144TIP3    H2 9439   5.593   4.752   4.275
 3145TIP3   OH2 9440   4.197   5.590   1.877
 3145TIP3    H1 9441   4.107   5.574   1.849
 3145TIP3    H2 9442   4.219   5.674   1.839
 3146TIP3   OH2 9443   2.324   3.906   0.798
 3146TIP3    H1 9444   2.237   3.933   0.828
 3146TIP3    H2 9445   2.377   3.985   0.804
 3147TIP3   OH2 9446   4.306   1.136   4.386
 3147TIP3    H1 9447   4.346   1.218   4.358
 3147TIP3    H2 9448   4.373   1.070   4.371
 3148TIP3   OH2 9449   2.768   3.343   5.154
 3148TIP3    H1 9450   2.752   3.401   5.080
 3148TIP3    H2 9451   2.706   3.372   5.221
 3149TIP3   OH2 9452   1.539   4.164   3.755
 3149TIP3    H1 9453   1.476   4.191   3.822
 3149TIP3    H2 9454   1.581   4.086   3.793
 3150TIP3   OH2 9455   6.310   2.097   4.071
 3150TIP3    H1 9456   6.384   2.038   4.080
 3150TIP3    H2 9457   6.289   2.123   4.161
 3151TIP3   OH2 9458   0.282   2.705   3.403
 3151TIP3    H1 9459   0.366   2.661   3.389
 3151TIP3    H2 9460   0.239   2.653   3.471
 3152TIP3   OH2 9461   5.861   4.073   4.260
 3152TIP3    H1 9462   5.827   4.070   4.349
 3152TIP3    H2 9463   5.932   4.137   4.263
 3153TIP3   OH2 9464   4.813   3.571   3.665
 3153TIP3    H1 9465   4.794   3.638   3.731
 3153TIP3    H2 9466   4.901   3.542   3.685
 3154TIP3   OH2 9467   4.515   4.241   4.846
 3154TIP3    H1 9468   4.470   4.161   4.873
 3154TIP3    H2 9469   4.547   4.279   4.928
 3155TIP3   OH2 9470   4.112   3.246   0.037
 3155TIP3    H1 9471   4.024   3.254   0.075
 3155TIP3    H2 9472   4.130   3.152   0.039
 3156TIP3   OH2 9473   5.531   1.564   3.399
 3156TIP3    H1 9474   5.572   1.589   3.316
 3156TIP3    H2 9475   5.440   1.546   3.377
 3157TIP3   OH2 9476   1.555   2.012   4.137
 3157TIP3    H1 9477   1.471   1.981   4.171
 3157TIP3    H2 9478   1.612   2.015   4.214
 3158TIP3   OH2 9479   5.366   5.562   2.349
 3158TIP3    H1 9480   5.289   5.595   2.303
 3158TIP3    H2 9481   5.377   5.472   2.318
 3159TIP3   OH2 9482   0.927   1.900   5.081
 3159TIP3    H1 9483   0.973   1.816   5.074
 3159TIP3    H2 9484   0.992   1.964   5.054
 3160TIP3   OH2 9485   5.246   0.546   5.081
 3160TIP3    H1 9486   5.171   0.574   5.134
 3160TIP3    H2 9487   5.273   0.463   5.121
 3161TIP3   OH2 9488   5.113   3.236   2.136
 3161TIP3    H1 9489   5.109   3.306   2.201
 3161TIP3    H2 9490   5.039   3.179   2.158
 3162TIP3   OH2 9491   0.525   1.466   1.591
 3162TIP3    H1 9492   0.583   1.541   1.588
 3162TIP3    H2 9493   0.580   1.394   1.623
 3163TIP3   OH2 9494   5.041   0.588   1.571
 3163TIP3    H1 9495   5.136   0.574   1.565
 3163TIP3    H2 9496   5.025   0.663   1.514
 3164TIP3   OH2 9497   1.111   2.597   1.009
 3164TIP3    H1 9498   1.170   2.534   0.969
 3164TIP3    H2 9499   1.072   2.550   1.083
 3165TIP3   OH2 9500   2.288   1.890   1.555
 3165TIP3    H1 9501   2.263   1.867   1.644
 3165TIP3    H2 9502   2.255   1.818   1.501
 3166TIP3   OH2 9503   5.400   0.729   3.420
 3166TIP3    H1 9504   5.458   0.730   3.343
 3166TIP3    H2 9505   5.312   0.718   3.384
 3167TIP3   OH2 9506   3.088   1.672   1.970
 3167TIP3    H1 9507   3.111   1.583   1.997
 3167TIP3    H2 9508   3.120   1.727   2.041
 3168TIP3   OH2 9509   2.321   0.924   4.338
 3168TIP3    H1 9510   2.407   0.897   4.369
 3168TIP3    H2 9511   2.278   0.843   4.312
 3169TIP3   OH2 9512   1.130   4.695   5.027
 3169TIP3    H1 9513   1.055   4.684   4.969
 3169TIP3    H2 9514   1.141   4.609   5.068
 3170TIP3   OH2 9515   2.404   5.790   2.663
 3170TIP3    H1 9516   2.361   5.874   2.644
 3170TIP3    H2 9517   2.431   5.797   2.755
 3171TIP3   OH2 9518   5.146   0.792   3.242
 3171TIP3    H1 9519   5.211   0.859   3.222
 3171TIP3    H2 9520   5.069   0.841   3.270
 3172TIP3   OH2 9521   0.906   4.680   4.406
 3172TIP3    H1 9522   0.816   4.647   4.404
 3172TIP3    H2 9523   0.913   4.737   4.330
 3173TIP3   OH2 9524   3.053   2.679   0.424
 3173TIP3    H1 9525   3.041   2.732   0.503
 3173TIP3    H2 9526   2.991   2.607   0.434
 3174TIP3   OH2 9527   0.451   1.863   1.636
 3174TIP3    H1 9528   0.519   1.817   1.586
 3174TIP3    H2 9529   0.498   1.900   1.711
 3175TIP3   OH2 9530   1.672   3.543   3.817
 3175TIP3    H1 9531   1.624   3.517   3.896
 3175TIP3    H2 9532   1.605   3.577   3.758
 3176TIP3   OH2 9533   0.401   1.320   2.437
 3176TIP3    H1 9534   0.378   1.359   2.522
 3176TIP3    H2 9535   0.494   1.341   2.427
 3177TIP3   OH2 9536   0.667   2.094   4.689
 3177TIP3    H1 9537   0.739   2.030   4.687
 3177TIP3    H2 9538   0.657   2.115   4.782
 3178TIP3   OH2 9539   4.051   5.853   3.128
 3178TIP3    H1 9540   4.038   5.786   3.060
 3178TIP3    H2 9541   4.143   5.876   3.122
 3179TIP3   OH2 9542   5.867   1.557   0.160
 3179TIP3    H1 9543   5.794   1.586   0.106
 3179TIP3    H2 9544   5.879   1.465   0.136
 3180TIP3   OH2 9545   1.348   2.204   2.775
 3180TIP3    H1 9546   1.414   2.195   2.844
 3180TIP3    H2 9547   1.338   2.298   2.763
 3181TIP3   OH2 9548   0.477   3.392   3.501
 3181TIP3    H1 9549   0.555   3.343   3.525
 3181TIP3    H2 9550   0.421   3.328   3.457
 3182TIP3   OH2 9551   6.015   4.254   4.699
 3182TIP3    H1 9552   5.920   4.256   4.709
 3182TIP3    H2 9553   6.030   4.290   4.611
 3183TIP3   OH2 9554   2.386   5.189   4.230
 3183TIP3    H1 9555   2.455   5.134   4.195
 3183TIP3    H2 9556   2.431   5.250   4.289
 3184TIP3   OH2 9557   0.461   0.184   0.523
 3184TIP3    H1 9558   0.508   0.113   0.480
 3184TIP3    H2 9559   0.390   0.141   0.570
 3185TIP3   OH2 9560   3.626   3.184   0.562
 3185TIP3    H1 9561   3.552   3.146   0.516
 3185TIP3    H2 9562   3.591   3.213   0.646
 3186TIP3   OH2 9563   6.261   4.294   1.779
 3186TIP3    H1 9564   6.279   4.204   1.808
 3186TIP3    H2 9565   6.207   4.283   1.701
 3187TIP3   OH2 9566   0.558   0.374   1.761
 3187TIP3    H1 9567   0.563   0.280   1.750
 3187TIP3    H2 9568   0.534   0.386   1.853
 3188TIP3   OH2 9569   5.292   2.361   1.232
 3188TIP3    H1 9570   5.272   2.329   1.320
 3188TIP3    H2 9571   5.332   2.286   1.188
 3189TIP3   OH2 9572   1.801   1.202   5.068
 3189TIP3    H1 9573   1.808   1.139   5.139
 3189TIP3    H2 9574   1.854   1.165   4.997
 3190TIP3   OH2 9575   5.471   1.198   2.944
 3190TIP3    H1 9576   5.559   1.161   2.955
 3190TIP3    H2 9577   5.480   1.289   2.972
 3191TIP3   OH2 9578   0.777   4.723   2.333
 3191TIP3    H1 9579   0.775   4.817   2.349
 3191TIP3    H2 9580   0.858   4.708   2.284
 3192TIP3   OH2 9581   4.268   1.152   2.904
 3192TIP3    H1 9582   4.255   1.075   2.958
 3192TIP3    H2 9583   4.350   1.135   2.857
 3193TIP3   OH2 9584   5.715   3.500   3.930
 3193TIP3    H1 9585   5.679   3.578   3.887
 3193TIP3    H2 9586   5.682   3.427   3.880
 3194TIP3   OH2 9587   3.819   1.123   3.764
 3194TIP3    H1 9588   3.896   1.144   3.711
 3194TIP3    H2 9589   3.846   1.142   3.854
 3195TIP3   OH2 9590   0.210   3.481   2.980
 3195TIP3    H1 9591   0.174   3.452   3.063
 3195TIP3    H2 9592   0.301   3.504   3.000
 3196TIP3   OH2 9593   6.077   4.985   4.921
 3196TIP3    H1 9594   6.120   5.065   4.951
 3196TIP3    H2 9595   6.108   4.972   4.832
 3197TIP3   OH2 9596   1.875   1.935   1.967
 3197TIP3    H1 9597   1.800   1.963   1.914
 3197TIP3    H2 9598   1.934   2.010   1.966
 3198TIP3   OH2 9599   4.495   3.492   4.296
 3198TIP3    H1 9600   4.417   3.493   4.241
 3198TIP3    H2 9601   4.472   3.548   4.371
 3199TIP3   OH2 9602   0.023   3.099   1.836
 3199TIP3    H1 9603  -0.063   3.123   1.869
 3199TIP3    H2 9604   0.084   3.127   1.905
 3200TIP3   OH2 9605   3.575   1.066   0.606
 3200TIP3    H1 9606   3.585   0.976   0.635
 3200TIP3    H2 9607   3.655   1.085   0.557
 3201TIP3   OH2 9608   1.404   5.159   4.041
 3201TIP3    H1 9609   1.427   5.073   4.008
 3201TIP3    H2 9610   1.468   5.218   4.001
 3202TIP3   OH2 9611   0.401   3.128   4.440
 3202TIP3    H1 9612   0.344   3.205   4.435
 3202TIP3    H2 9613   0.351   3.059   4.397
 3203TIP3   OH2 9614   3.807   5.781   1.634
 3203TIP3    H1 9615   3.803   5.809   1.542
 3203TIP3    H2 9616   3.774   5.856   1.683
 3204TIP3   OH2 9617   4.810   1.319   0.224
 3204TIP3    H1 9618   4.718   1.339   0.237
 3204TIP3    H2 9619   4.814   1.223   0.221
 3205TIP3   OH2 9620   0.362   2.698   4.966
 3205TIP3    H1 9621   0.343   2.778   5.015
 3205TIP3    H2 9622   0.377   2.632   5.034
 3206TIP3   OH2 9623   5.955   4.574   2.982
 3206TIP3    H1 9624   5.919   4.554   3.068
 3206TIP3    H2 9625   6.039   4.616   3.000
 3207TIP3   OH2 9626   2.956   4.998   3.389
 3207TIP3    H1 9627   2.870   4.968   3.418
 3207TIP3    H2 9628   2.965   4.964   3.300
 3208TIP3   OH2 9629   5.314   2.863   1.313
 3208TIP3    H1 9630   5.304   2.787   1.369
 3208TIP3    H2 9631   5.289   2.833   1.226
 3209TIP3   OH2 9632   5.485   2.549   1.202
 3209TIP3    H1 9633   5.406   2.506   1.234
 3209TIP3    H2 9634   5.522   2.488   1.139
 3210TIP3   OH2 9635   6.304   0.714   2.571
 3210TIP3    H1 9636   6.375   0.651   2.560
 3210TIP3    H2 9637   6.251   0.679   2.643
 3211TIP3   OH2 9638   1.079   5.315   3.057
 3211TIP3    H1 9639   1.093   5.398   3.012
 3211TIP3    H2 9640   0.984   5.305   3.060
 3212TIP3   OH2 9641   3.693   2.337   2.290
 3212TIP3    H1 9642   3.702   2.419   2.338
 3212TIP3    H2 9643   3.762   2.339   2.224
 3213TIP3   OH2 9644   1.086   5.395   3.575
 3213TIP3    H1 9645   1.037   5.421   3.497
 3213TIP3    H2 9646   1.175   5.381   3.543
 3214TIP3   OH2 9647   1.017   3.703   0.732
 3214TIP3    H1 9648   1.062   3.667   0.656
 3214TIP3    H2 9649   0.936   3.651   0.739
 3215TIP3   OH2 9650   2.082   5.456   3.427
 3215TIP3    H1 9651   1.989   5.479   3.420
 3215TIP3    H2 9652   2.084   5.361   3.411
 3216TIP3   OH2 9653   2.984   5.452   0.220
 3216TIP3    H1 9654   2.897   5.479   0.192
 3216TIP3    H2 9655   3.042   5.522   0.191
 3217TIP3   OH2 9656   1.396   3.982   4.112
 3217TIP3    H1 9657   1.460   3.972   4.182
 3217TIP3    H2 9658   1.448   3.997   4.033
 3218TIP3   OH2 9659   0.547   4.446   0.794
 3218TIP3    H1 9660   0.559   4.376   0.858
 3218TIP3    H2 9661   0.456   4.471   0.803
 3219TIP3   OH2 9662   2.816   1.245   3.439
 3219TIP3    H1 9663   2.894   1.190   3.444
 3219TIP3    H2 9664   2.810   1.269   3.346
 3220TIP3   OH2 9665   6.227   1.517   0.424
 3220TIP3    H1 9666   6.157   1.581   0.415
 3220TIP3    H2 9667   6.266   1.512   0.337
 3221TIP3   OH2 9668   3.220   0.669   4.403
 3221TIP3    H1 9669   3.252   0.579   4.405
 3221TIP3    H2 9670   3.232   0.697   4.312
 3222TIP3   OH2 9671   4.368   4.453   2.700
 3222TIP3    H1 9672   4.382   4.385   2.767
 3222TIP3    H2 9673   4.297   4.419   2.646
 3223TIP3   OH2 9674   0.353   5.454   4.964
 3223TIP3    H1 9675   0.402   5.469   4.883
 3223TIP3    H2 9676   0.263   5.477   4.942
 3224TIP3   OH2 9677   3.284   3.098   0.528
 3224TIP3    H1 9678   3.208   3.146   0.559
 3224TIP3    H2 9679   3.247   3.026   0.475
 3225TIP3   OH2 9680   0.245   4.600   2.618
 3225TIP3    H1 9681   0.269   4.692   2.622
 3225TIP3    H2 9682   0.150   4.599   2.615
 3226TIP3   OH2 9683   5.806   1.383   1.872
 3226TIP3    H1 9684   5.724   1.409   1.913
 3226TIP3    H2 9685   5.865   1.457   1.885
 3227TIP3   OH2 9686   6.207   1.784   4.977
 3227TIP3    H1 9687   6.183   1.746   4.893
 3227TIP3    H2 9688   6.285   1.735   5.004
 3228TIP3   OH2 9689   1.219   5.113   2.960
 3228TIP3    H1 9690   1.158   5.179   2.992
 3228TIP3    H2 9691   1.302   5.160   2.952
 3229TIP3   OH2 9692   2.094   1.389   4.606
 3229TIP3    H1 9693   2.070   1.359   4.518
 3229TIP3    H2 9694   2.185   1.416   4.597
 3230TIP3   OH2 9695   4.193   4.373   1.018
 3230TIP3    H1 9696   4.200   4.299   0.958
 3230TIP3    H2 9697   4.167   4.446   0.962
 3231TIP3   OH2 9698   0.341   3.285   2.240
 3231TIP3    H1 9699   0.329   3.299   2.334
 3231TIP3    H2 9700   0.409   3.218   2.235
 3232TIP3   OH2 9701   0.722   5.363   0.676
 3232TIP3    H1 9702   0.759   5.451   0.661
 3232TIP3    H2 9703   0.797   5.311   0.705
 3233TIP3   OH2 9704   0.467   4.495   3.880
 3233TIP3    H1 9705   0.440   4.509   3.789
 3233TIP3    H2 9706   0.479   4.401   3.888
 3234TIP3   OH2 9707   4.996   1.500   2.426
 3234TIP3    H1 9708   4.979   1.478   2.334
 3234TIP3    H2 9709   5.086   1.534   2.426
 3235TIP3   OH2 9710   2.952   2.798   5.098
 3235TIP3    H1 9711   2.893   2.747   5.154
 3235TIP3    H2 9712   2.922   2.780   5.009
 3236TIP3   OH2 9713   0.039   4.700   2.868
 3236TIP3    H1 9714  -0.032   4.730   2.925
 3236TIP3    H2 9715   0.118   4.735   2.908
 3237TIP3   OH2 9716   4.876   1.221   3.705
 3237TIP3    H1 9717   4.815   1.292   3.686
 3237TIP3    H2 9718   4.924   1.250   3.782
 3238TIP3   OH2 9719   5.076   3.545   0.282
 3238TIP3    H1 9720   5.143   3.492   0.324
 3238TIP3    H2 9721   5.065   3.506   0.195
 3239TIP3   OH2 9722   4.527   3.790   0.185
 3239TIP3    H1 9723   4.599   3.810   0.126
 3239TIP3    H2 9724   4.458   3.755   0.128
 3240TIP3   OH2 9725   3.442   5.340   1.853
 3240TIP3    H1 9726   3.445   5.262   1.797
 3240TIP3    H2 9727   3.486   5.408   1.802
 3241TIP3   OH2 9728   1.422   3.436   4.880
 3241TIP3    H1 9729   1.426   3.386   4.799
 3241TIP3    H2 9730   1.399   3.525   4.853
 3242TIP3   OH2 9731   0.293   1.163   2.935
 3242TIP3    H1 9732   0.269   1.242   2.983
 3242TIP3    H2 9733   0.272   1.184   2.844
 3243TIP3   OH2 9734   3.381   5.939   3.751
 3243TIP3    H1 9735   3.395   6.000   3.679
 3243TIP3    H2 9736   3.451   5.874   3.741
 3244TIP3   OH2 9737   0.491   4.362   2.866
 3244TIP3    H1 9738   0.526   4.312   2.940
 3244TIP3    H2 9739   0.552   4.344   2.794
 3245TIP3   OH2 9740   4.132   3.953   1.928
 3245TIP3    H1 9741   4.171   3.921   1.847
 3245TIP3    H2 9742   4.047   3.990   1.901
 3246TIP3   OH2 9743  -0.014   0.295   0.103
 3246TIP3    H1 9744   0.001   0.387   0.082
 3246TIP3    H2 9745   0.072   0.261   0.126
 3247TIP3   OH2 9746   4.564   1.488   0.992
 3247TIP3    H1 9747   4.541   1.535   1.072
 3247TIP3    H2 9748   4.542   1.397   1.011
 3248TIP3   OH2 9749   1.248   4.769   4.764
 3248TIP3    H1 9750   1.326   4.745   4.815
 3248TIP3    H2 9751   1.174   4.747   4.821
 3249TIP3   OH2 9752   3.339   4.423   3.715
 3249TIP3    H1 9753   3.286   4.465   3.783
 3249TIP3    H2 9754   3.392   4.359   3.761
 3250TIP3   OH2 9755   4.912   0.358   1.610
 3250TIP3    H1 9756   4.987   0.340   1.667
 3250TIP3    H2 9757   4.925   0.447   1.580
 3251TIP3   OH2 9758   0.840   2.433   2.676
 3251TIP3    H1 9759   0.847   2.445   2.581
 3251TIP3    H2 9760   0.778   2.500   2.704
 3252TIP3   OH2 9761   5.184   3.336   0.708
 3252TIP3    H1 9762   5.152   3.425   0.724
 3252TIP3    H2 9763   5.142   3.283   0.776
 3253TIP3   OH2 9764   2.220   3.265   0.019
 3253TIP3    H1 9765   2.170   3.339  -0.014
 3253TIP3    H2 9766   2.157   3.192   0.020
 3254TIP3   OH2 9767   3.796   0.203   4.482
 3254TIP3    H1 9768   3.769   0.284   4.437
 3254TIP3    H2 9769   3.868   0.230   4.539
 3255TIP3   OH2 9770   0.208   2.011   5.072
 3255TIP3    H1 9771   0.259   1.952   5.128
 3255TIP3    H2 9772   0.204   1.965   4.988
 3256TIP3   OH2 9773   1.888   0.608   1.338
 3256TIP3    H1 9774   1.805   0.638   1.374
 3256TIP3    H2 9775   1.863   0.541   1.274
 3257TIP3   OH2 9776   3.318   0.908   4.518
 3257TIP3    H1 9777   3.277   0.944   4.597
 3257TIP3    H2 9778   3.274   0.824   4.504
 3258TIP3   OH2 9779   3.066   1.181   3.513
 3258TIP3    H1 9780   3.047   1.146   3.601
 3258TIP3    H2 9781   3.142   1.131   3.484
 3259TIP3   OH2 9782   0.365   0.385   4.981
 3259TIP3    H1 9783   0.274   0.360   4.991
 3259TIP3    H2 9784   0.392   0.345   4.898
 3260TIP3   OH2 9785   6.081   0.580   4.620
 3260TIP3    H1 9786   6.058   0.614   4.706
 3260TIP3    H2 9787   6.141   0.645   4.584
 3261TIP3   OH2 9788   1.331   0.754   4.015
 3261TIP3    H1 9789   1.337   0.846   4.038
 3261TIP3    H2 9790   1.421   0.725   4.003
 3262TIP3   OH2 9791   1.437   2.659   4.564
 3262TIP3    H1 9792   1.485   2.605   4.501
 3262TIP3    H2 9793   1.494   2.735   4.578
 3263TIP3   OH2 9794   6.094   4.998   2.819
 3263TIP3    H1 9795   6.065   5.068   2.760
 3263TIP3    H2 9796   6.109   4.923   2.762
 3264TIP3   OH2 9797   2.781   5.280   2.386
 3264TIP3    H1 9798   2.782   5.375   2.398
 3264TIP3    H2 9799   2.780   5.244   2.474
 3265TIP3   OH2 9800   6.182   3.933   1.878
 3265TIP3    H1 9801   6.141   3.859   1.834
 3265TIP3    H2 9802   6.222   3.983   1.807
 3266TIP3   OH2 9803   0.701   3.532   2.390
 3266TIP3    H1 9804   0.750   3.577   2.459
 3266TIP3    H2 9805   0.658   3.459   2.434
 3267TIP3   OH2 9806   0.050   3.310   5.071
 3267TIP3    H1 9807   0.041   3.223   5.032
 3267TIP3    H2 9808   0.109   3.357   5.011
 3268TIP3   OH2 9809   2.187   5.475   0.117
 3268TIP3    H1 9810   2.135   5.547   0.083
 3268TIP3    H2 9811   2.190   5.411   0.045
 3269TIP3   OH2 9812   4.485   1.091   3.413
 3269TIP3    H1 9813   4.490   1.033   3.337
 3269TIP3    H2 9814   4.426   1.161   3.386
 3270TIP3   OH2 9815   2.968   1.622   4.958
 3270TIP3    H1 9816   2.884   1.637   4.914
 3270TIP3    H2 9817   3.033   1.650   4.895
 3271TIP3   OH2 9818   4.267   4.180   3.410
 3271TIP3    H1 9819   4.254   4.203   3.317
 3271TIP3    H2 9820   4.221   4.249   3.458
 3272TIP3   OH2 9821   2.402   1.809   4.914
 3272TIP3    H1 9822   2.368   1.735   4.963
 3272TIP3    H2 9823   2.329   1.837   4.859
 3273TIP3   OH2 9824   4.772   4.740   0.790
 3273TIP3    H1 9825   4.824   4.689   0.728
 3273TIP3    H2 9826   4.826   4.745   0.868
 3274TIP3   OH2 9827   4.697   0.268   3.653
 3274TIP3    H1 9828   4.665   0.279   3.742
 3274TIP3    H2 9829   4.709   0.173   3.643
 3275TIP3   OH2 9830   4.271   5.505   3.435
 3275TIP3    H1 9831   4.335   5.576   3.438
 3275TIP3    H2 9832   4.295   5.447   3.507
 3276TIP3   OH2 9833   4.520   4.454   0.201
 3276TIP3    H1 9834   4.503   4.449   0.295
 3276TIP3    H2 9835   4.462   4.389   0.162
 3277TIP3   OH2 9836   3.557   1.965   0.677
 3277TIP3    H1 9837   3.568   2.036   0.741
 3277TIP3    H2 9838   3.467   1.976   0.645
 3278TIP3   OH2 9839   0.350   4.255   5.167
 3278TIP3    H1 9840   0.402   4.216   5.097
 3278TIP3    H2 9841   0.368   4.202   5.244
 3279TIP3   OH2 9842   1.857   0.592   3.262
 3279TIP3    H1 9843   1.943   0.553   3.274
 3279TIP3    H2 9844   1.844   0.646   3.340
 3280TIP3   OH2 9845   5.372   4.012   2.438
 3280TIP3    H1 9846   5.437   3.978   2.500
 3280TIP3    H2 9847   5.423   4.034   2.360
 3281TIP3   OH2 9848   0.086   0.985   3.883
 3281TIP3    H1 9849   0.009   0.937   3.853
 3281TIP3    H2 9850   0.150   0.917   3.903
 3282TIP3   OH2 9851   0.057   4.506   3.176
 3282TIP3    H1 9852   0.043   4.563   3.252
 3282TIP3    H2 9853   0.151   4.513   3.158
 3283TIP3   OH2 9854   2.449   5.472   0.714
 3283TIP3    H1 9855   2.431   5.466   0.620
 3283TIP3    H2 9856   2.398   5.548   0.744
 3284TIP3   OH2 9857   5.825   5.955   3.246
 3284TIP3    H1 9858   5.781   5.952   3.331
 3284TIP3    H2 9859   5.762   6.002   3.189
 3285TIP3   OH2 9860   5.304   0.568   3.844
 3285TIP3    H1 9861   5.392   0.569   3.883
 3285TIP3    H2 9862   5.268   0.483   3.869
 3286TIP3   OH2 9863   0.213   5.867   0.376
 3286TIP3    H1 9864   0.165   5.923   0.437
 3286TIP3    H2 9865   0.262   5.807   0.432
 3287TIP3   OH2 9866   3.455   2.860   2.408
 3287TIP3    H1 9867   3.460   2.779   2.459
 3287TIP3    H2 9868   3.424   2.925   2.471
 3288TIP3   OH2 9869   6.363   3.045   1.372
 3288TIP3    H1 9870   6.313   3.040   1.453
 3288TIP3    H2 9871   6.323   3.117   1.323
 3289TIP3   OH2 9872   1.365   0.801   0.688
 3289TIP3    H1 9873   1.313   0.723   0.705
 3289TIP3    H2 9874   1.310   0.873   0.719
 3290TIP3   OH2 9875   6.123   2.607   0.340
 3290TIP3    H1 9876   6.194   2.670   0.351
 3290TIP3    H2 9877   6.144   2.562   0.258
 3291TIP3   OH2 9878   3.535   4.975   0.986
 3291TIP3    H1 9879   3.459   5.033   0.989
 3291TIP3    H2 9880   3.508   4.904   0.927
 3292TIP3   OH2 9881   3.234   1.699   2.189
 3292TIP3    H1 9882   3.314   1.682   2.239
 3292TIP3    H2 9883   3.191   1.770   2.235
 3293TIP3   OH2 9884   3.589   3.671   3.217
 3293TIP3    H1 9885   3.659   3.653   3.280
 3293TIP3    H2 9886   3.595   3.600   3.153
 3294TIP3   OH2 9887   5.512   2.075   0.997
 3294TIP3    H1 9888   5.605   2.057   0.987
 3294TIP3    H2 9889   5.485   2.022   1.072
 3295TIP3   OH2 9890   2.930   4.420   2.376
 3295TIP3    H1 9891   3.006   4.373   2.343
 3295TIP3    H2 9892   2.859   4.395   2.317
 3296TIP3   OH2 9893   5.865   0.616   3.325
 3296TIP3    H1 9894   5.830   0.677   3.260
 3296TIP3    H2 9895   5.958   0.610   3.304
 3297TIP3   OH2 9896   2.068   5.348   4.601
 3297TIP3    H1 9897   2.107   5.322   4.685
 3297TIP3    H2 9898   2.099   5.282   4.539
 3298TIP3   OH2 9899   1.231   0.124   4.647
 3298TIP3    H1 9900   1.157   0.087   4.600
 3298TIP3    H2 9901   1.229   0.218   4.626
 3299TIP3   OH2 9902   3.491   0.173   2.778
 3299TIP3    H1 9903   3.492   0.255   2.827
 3299TIP3    H2 9904   3.559   0.120   2.819
 3300TIP3   OH2 9905   5.498   4.027   3.820
 3300TIP3    H1 9906   5.440   4.094   3.856
 3300TIP3    H2 9907   5.443   3.948   3.816
 3301TIP3   OH2 9908   6.144   3.057   4.624
 3301TIP3    H1 9909   6.208   2.987   4.622
 3301TIP3    H2 9910   6.094   3.046   4.543
 3302TIP3   OH2 9911   5.493   3.941   0.587
 3302TIP3    H1 9912   5.538   3.862   0.616
 3302TIP3    H2 9913   5.525   3.955   0.497
 3303TIP3   OH2 9914   0.696   2.535   4.579
 3303TIP3    H1 9915   0.787   2.523   4.550
 3303TIP3    H2 9916   0.653   2.453   4.556
 3304TIP3   OH2 9917   5.568   5.584   0.708
 3304TIP3    H1 9918   5.621   5.663   0.702
 3304TIP3    H2 9919   5.545   5.563   0.617
 3305TIP3   OH2 9920   2.079   5.425   2.800
 3305TIP3    H1 9921   2.149   5.475   2.759
 3305TIP3    H2 9922   2.114   5.400   2.886
 3306TIP3   OH2 9923   2.864   3.158   2.219
 3306TIP3    H1 9924   2.925   3.096   2.259
 3306TIP3    H2 9925   2.779   3.115   2.225
 3307TIP3   OH2 9926   4.341   4.170   1.164
 3307TIP3    H1 9927   4.311   4.240   1.222
 3307TIP3    H2 9928   4.360   4.215   1.082
 3308TIP3   OH2 9929   5.627   5.504   2.608
 3308TIP3    H1 9930   5.603   5.472   2.695
 3308TIP3    H2 9931   5.669   5.428   2.566
 3309TIP3   OH2 9932   6.171   1.843   3.020
 3309TIP3    H1 9933   6.085   1.880   2.998
 3309TIP3    H2 9934   6.151   1.765   3.071
 3310TIP3   OH2 9935   5.731   5.620   4.073
 3310TIP3    H1 9936   5.737   5.707   4.114
 3310TIP3    H2 9937   5.654   5.625   4.017
 3311TIP3   OH2 9938   6.326   3.109   4.374
 3311TIP3    H1 9939   6.325   3.142   4.284
 3311TIP3    H2 9940   6.290   3.181   4.426
 3312TIP3   OH2 9941   2.018   2.302   1.471
 3312TIP3    H1 9942   2.062   2.223   1.503
 3312TIP3    H2 9943   2.020   2.362   1.545
 3313TIP3   OH2 9944   5.767   5.026   4.114
 3313TIP3    H1 9945   5.853   5.023   4.072
 3313TIP3    H2 9946   5.751   5.120   4.126
 3314TIP3   OH2 9947   4.573   1.220   1.048
 3314TIP3    H1 9948   4.582   1.125   1.060
 3314TIP3    H2 9949   4.525   1.229   0.965
 3315TIP3   OH2 9950   3.406   5.809   2.033
 3315TIP3    H1 9951   3.329   5.846   1.988
 3315TIP3    H2 9952   3.375   5.727   2.071
 3316TIP3   OH2 9953   4.984   3.382   1.941
 3316TIP3    H1 9954   4.927   3.332   1.882
 3316TIP3    H2 9955   5.008   3.321   2.010
 3317TIP3   OH2 9956   3.600   1.239   3.325
 3317TIP3    H1 9957   3.682   1.284   3.303
 3317TIP3    H2 9958   3.627   1.150   3.346
 3318TIP3   OH2 9959   0.095   1.194   0.300
 3318TIP3    H1 9960   0.081   1.259   0.369
 3318TIP3    H2 9961   0.102   1.111   0.346
 3319TIP3   OH2 9962   1.526   4.752   3.900
 3319TIP3    H1 9963   1.569   4.764   3.985
 3319TIP3    H2 9964   1.566   4.819   3.844
 3320TIP3   OH2 9965   2.537   1.796   3.857
 3320TIP3    H1 9966   2.448   1.815   3.888
 3320TIP3    H2 9967   2.567   1.878   3.818
 3321TIP3   OH2 9968   6.142   3.484   2.752
 3321TIP3    H1 9969   6.152   3.482   2.848
 3321TIP3    H2 9970   6.114   3.396   2.729
 3322TIP3   OH2 9971   1.980   2.496   3.578
 3322TIP3    H1 9972   2.060   2.511   3.529
 3322TIP3    H2 9973   1.913   2.545   3.530
 3323TIP3   OH2 9974   6.113   3.317   4.156
 3323TIP3    H1 9975   6.067   3.235   4.134
 3323TIP3    H2 9976   6.073   3.383   4.100
 3324TIP3   OH2 9977   4.608   3.644   3.162
 3324TIP3    H1 9978   4.632   3.630   3.254
 3324TIP3    H2 9979   4.682   3.608   3.112
 3325TIP3   OH2 9980   3.903   1.744   0.824
 3325TIP3    H1 9981   3.813   1.730   0.855
 3325TIP3    H2 9982   3.893   1.786   0.739
 3326TIP3   OH2 9983   1.374   4.563   4.087
 3326TIP3    H1 9984   1.434   4.619   4.136
 3326TIP3    H2 9985   1.424   4.534   4.011
 3327TIP3   OH2 9986   2.851   2.358   2.598
 3327TIP3    H1 9987   2.911   2.360   2.523
 3327TIP3    H2 9988   2.868   2.274   2.641
 3328TIP3   OH2 9989   5.672   2.032   2.337
 3328TIP3    H1 9990   5.742   2.027   2.272
 3328TIP3    H2 9991   5.593   2.006   2.291
 3329TIP3   OH2 9992   4.632   1.884   4.743
 3329TIP3    H1 9993   4.634   1.979   4.731
 3329TIP3    H2 9994   4.556   1.867   4.797
 3330TIP3   OH2 9995   2.379   0.121   1.017
 3330TIP3    H1 9996   2.370   0.074   1.099
 3330TIP3    H2 9997   2.313   0.191   1.023
 3331TIP3   OH2 9998   2.116   3.185   2.563
 3331TIP3    H1 9999   2.162   3.108   2.530
 3331TIP3    H210000   2.165   3.260   2.526
 3332TIP3   OH210001   1.894   1.124   4.605
 3332TIP3    H110002   1.923   1.165   4.687
 3332TIP3    H210003   1.950   1.161   4.538
 3333TIP3   OH210004   0.356   4.057   4.542
 3333TIP3    H110005   0.379   3.976   4.587
 3333TIP3    H210006   0.381   4.042   4.451
 3334TIP3   OH210007   3.334   0.815   1.641
 3334TIP3    H110008   3.326   0.909   1.655
 3334TIP3    H210009   3.272   0.776   1.702
 3335TIP3   OH210010   4.766   3.150   3.065
 3335TIP3    H110011   4.707   3.208   3.113
 3335TIP3    H210012   4.823   3.209   3.016
 3336TIP3   OH210013   4.051   2.554   1.657
 3336TIP3    H110014   4.002   2.472   1.654
 3336TIP3    H210015   4.143   2.527   1.658
 3337TIP3   OH210016   5.061   5.486   1.328
 3337TIP3    H110017   4.974   5.493   1.290
 3337TIP3    H210018   5.070   5.393   1.350
 3338TIP3   OH210019   0.706   2.429   1.942
 3338TIP3    H110020   0.640   2.387   1.996
 3338TIP3    H210021   0.756   2.357   1.903
 3339TIP3   OH210022   2.233   0.700   5.077
 3339TIP3    H110023   2.202   0.684   5.167
 3339TIP3    H210024   2.317   0.655   5.073
 3340TIP3   OH210025   2.124   3.897   0.539
 3340TIP3    H110026   2.132   3.987   0.571
 3340TIP3    H210027   2.108   3.846   0.618
 3341TIP3   OH210028   2.190   5.946   5.186
 3341TIP3    H110029   2.132   6.009   5.144
 3341TIP3    H210030   2.263   5.999   5.219
 3342TIP3   OH210031   0.058   5.200   2.586
 3342TIP3    H110032   0.147   5.182   2.556
 3342TIP3    H210033   0.034   5.124   2.638
 3343TIP3   OH210034   3.787   5.644   2.292
 3343TIP3    H110035   3.822   5.699   2.221
 3343TIP3    H210036   3.693   5.661   2.291
 3344TIP3   OH210037   4.032   4.787   1.046
 3344TIP3    H110038   4.075   4.749   1.122
 3344TIP3    H210039   3.953   4.827   1.081
 3345TIP3   OH210040   5.540   4.277   4.063
 3345TIP3    H110041   5.529   4.353   4.006
 3345TIP3    H210042   5.471   4.216   4.036
 3346TIP3   OH210043   5.901   3.081   0.109
 3346TIP3    H110044   5.943   3.165   0.127
 3346TIP3    H210045   5.905   3.033   0.192
 3347TIP3   OH210046   4.428   0.759   3.476
 3347TIP3    H110047   4.455   0.714   3.556
 3347TIP3    H210048   4.506   0.755   3.420
 3348TIP3   OH210049   3.705   3.367   4.237
 3348TIP3    H110050   3.708   3.450   4.190
 3348TIP3    H210051   3.760   3.308   4.186
 3349TIP3   OH210052   4.317   5.117   4.422
 3349TIP3    H110053   4.356   5.199   4.453
 3349TIP3    H210054   4.275   5.080   4.500
 3350TIP3   OH210055   2.739   2.407   0.672
 3350TIP3    H110056   2.657   2.388   0.626
 3350TIP3    H210057   2.731   2.499   0.699
 3351TIP3   OH210058   5.603   5.296   5.000
 3351TIP3    H110059   5.593   5.374   4.946
 3351TIP3    H210060   5.545   5.311   5.075
 3352TIP3   OH210061   3.549   3.127   3.922
 3352TIP3    H110062   3.560   3.221   3.913
 3352TIP3    H210063   3.622   3.089   3.872
 3353TIP3   OH210064   3.673   3.569   1.701
 3353TIP3    H110065   3.587   3.527   1.709
 3353TIP3    H210066   3.727   3.525   1.766
 3354TIP3   OH210067   1.271   5.675   2.575
 3354TIP3    H110068   1.190   5.646   2.616
 3354TIP3    H210069   1.340   5.641   2.631
 3355TIP3   OH210070   5.582   5.905   3.373
 3355TIP3    H110071   5.517   5.973   3.392
 3355TIP3    H210072   5.537   5.823   3.395
 3356TIP3   OH210073   1.822   1.068   1.232
 3356TIP3    H110074   1.832   1.075   1.138
 3356TIP3    H210075   1.790   1.154   1.259
 3357TIP3   OH210076   3.176   4.752   4.161
 3357TIP3    H110077   3.095   4.705   4.179
 3357TIP3    H210078   3.151   4.844   4.164
 3358TIP3   OH210079   3.608   4.897   0.440
 3358TIP3    H110080   3.663   4.842   0.384
 3358TIP3    H210081   3.668   4.927   0.509
 3359TIP3   OH210082   3.611   3.241   2.602
 3359TIP3    H110083   3.536   3.184   2.581
 3359TIP3    H210084   3.621   3.296   2.525
 3360TIP3   OH210085   6.203   3.486   4.969
 3360TIP3    H110086   6.263   3.420   5.004
 3360TIP3    H210087   6.260   3.561   4.948
 3361TIP3   OH210088   5.718   0.630   2.890
 3361TIP3    H110089   5.745   0.693   2.957
 3361TIP3    H210090   5.796   0.619   2.835
 3362TIP3   OH210091   5.683   2.886   4.678
 3362TIP3    H110092   5.773   2.862   4.698
 3362TIP3    H210093   5.654   2.821   4.613
 3363TIP3   OH210094   3.709   1.856   0.437
 3363TIP3    H110095   3.647   1.884   0.504
 3363TIP3    H210096   3.748   1.938   0.406
 3364TIP3   OH210097   6.304   5.854   1.153
 3364TIP3    H110098   6.370   5.803   1.105
 3364TIP3    H210099   6.277   5.922   1.090
 3365TIP3   OH210100   5.711   2.796   0.242
 3365TIP3    H110101   5.676   2.882   0.216
 3365TIP3    H210102   5.643   2.734   0.215
 3366TIP3   OH210103   5.957   5.673   3.762
 3366TIP3    H110104   5.881   5.676   3.703
 3366TIP3    H210105   5.946   5.750   3.818
 3367TIP3   OH210106   4.818   2.977   0.179
 3367TIP3    H110107   4.858   2.907   0.127
 3367TIP3    H210108   4.724   2.964   0.169
 3368TIP3   OH210109   1.108   2.909   2.289
 3368TIP3    H110110   1.072   2.821   2.291
 3368TIP3    H210111   1.180   2.908   2.353
 3369TIP3   OH210112   2.091   4.354   0.214
 3369TIP3    H110113   2.108   4.338   0.121
 3369TIP3    H210114   2.174   4.386   0.248
 3370TIP3   OH210115   4.251   5.258   2.004
 3370TIP3    H110116   4.297   5.175   2.006
 3370TIP3    H210117   4.183   5.250   2.071
 3371TIP3   OH210118   1.550   4.390   0.638
 3371TIP3    H110119   1.581   4.462   0.582
 3371TIP3    H210120   1.618   4.323   0.631
 3372TIP3   OH210121   6.008   4.439   0.668
 3372TIP3    H110122   5.918   4.437   0.635
 3372TIP3    H210123   6.030   4.347   0.683
 3373TIP3   OH210124   2.876   5.851   3.448
 3373TIP3    H110125   2.837   5.777   3.402
 3373TIP3    H210126   2.937   5.889   3.385
 3374TIP3   OH210127   0.911   5.193   0.993
 3374TIP3    H110128   0.831   5.191   1.045
 3374TIP3    H210129   0.883   5.173   0.904
 3375TIP3   OH210130   2.451   1.721   1.943
 3375TIP3    H110131   2.406   1.677   2.016
 3375TIP3    H210132   2.494   1.650   1.895
 3376TIP3   OH210133   4.596   5.298   1.404
 3376TIP3    H110134   4.509   5.259   1.416
 3376TIP3    H210135   4.577   5.387   1.372
 3377TIP3   OH210136   0.493   5.168   1.338
 3377TIP3    H110137   0.549   5.165   1.261
 3377TIP3    H210138   0.443   5.249   1.329
 3378TIP3   OH210139   1.700   5.694   3.783
 3378TIP3    H110140   1.779   5.675   3.732
 3378TIP3    H210141   1.692   5.789   3.780
 3379TIP3   OH210142   4.815   0.775   4.410
 3379TIP3    H110143   4.843   0.865   4.427
 3379TIP3    H210144   4.743   0.761   4.470
 3380TIP3   OH210145   4.078   4.380   1.440
 3380TIP3    H110146   4.057   4.288   1.459
 3380TIP3    H210147   4.144   4.376   1.371
 3381TIP3   OH210148   4.056   4.062   4.006
 3381TIP3    H110149   4.094   4.123   4.068
 3381TIP3    H210150   4.122   4.052   3.937
 3382TIP3   OH210151   0.985   2.249   0.412
 3382TIP3    H110152   1.065   2.196   0.415
 3382TIP3    H210153   1.006   2.321   0.353
 3383TIP3   OH210154   0.161   2.191   3.068
 3383TIP3    H110155   0.256   2.184   3.062
 3383TIP3    H210156   0.142   2.282   3.045
 3384TIP3   OH210157   0.653   5.117   1.119
 3384TIP3    H110158   0.665   5.022   1.118
 3384TIP3    H210159   0.612   5.137   1.035
 3385TIP3   OH210160   4.845   2.263   1.295
 3385TIP3    H110161   4.860   2.329   1.227
 3385TIP3    H210162   4.759   2.284   1.330
 3386TIP3   OH210163   3.814   1.803   4.298
 3386TIP3    H110164   3.790   1.731   4.356
 3386TIP3    H210165   3.785   1.882   4.344
 3387TIP3   OH210166   0.613   5.501   1.860
 3387TIP3    H110167   0.705   5.502   1.888
 3387TIP3    H210168   0.594   5.409   1.844
 3388TIP3   OH210169   1.850   5.842   2.034
 3388TIP3    H110170   1.929   5.893   2.017
 3388TIP3    H210171   1.851   5.774   1.967
 3389TIP3   OH210172   2.390   4.183   3.956
 3389TIP3    H110173   2.360   4.174   3.866
 3389TIP3    H210174   2.470   4.131   3.961
 3390TIP3   OH210175   0.485   5.465   4.154
 3390TIP3    H110176   0.531   5.393   4.113
 3390TIP3    H210177   0.406   5.476   4.102
 3391TIP3   OH210178   2.994   0.997   1.639
 3391TIP3    H110179   2.991   0.989   1.735
 3391TIP3    H210180   2.913   0.955   1.609
 3392TIP3   OH210181   5.095   4.153   2.272
 3392TIP3    H110182   5.143   4.143   2.190
 3392TIP3    H210183   5.050   4.069   2.283
 3393TIP3   OH210184   1.668   0.779   2.333
 3393TIP3    H110185   1.587   0.746   2.294
 3393TIP3    H210186   1.672   0.737   2.419
 3394TIP3   OH210187   0.716   2.053   1.573
 3394TIP3    H110188   0.699   2.063   1.667
 3394TIP3    H210189   0.791   1.994   1.569
 3395TIP3   OH210190   2.944   0.994   4.889
 3395TIP3    H110191   2.886   0.965   4.817
 3395TIP3    H210192   2.917   1.084   4.905
 3396TIP3   OH210193   3.747   0.515   3.326
 3396TIP3    H110194   3.786   0.603   3.320
 3396TIP3    H210195   3.786   0.477   3.405
 3397TIP3   OH210196   3.622   5.300   4.917
 3397TIP3    H110197   3.549   5.340   4.965
 3397TIP3    H210198   3.584   5.220   4.880
 3398TIP3   OH210199   3.234   2.951   2.999
 3398TIP3    H110200   3.196   2.878   2.950
 3398TIP3    H210201   3.175   3.025   2.983
 3399TIP3   OH210202   0.746   1.090   2.513
 3399TIP3    H110203   0.742   1.039   2.432
 3399TIP3    H210204   0.760   1.025   2.582
 3400TIP3   OH210205   6.236   3.369   4.433
 3400TIP3    H110206   6.247   3.416   4.350
 3400TIP3    H210207   6.155   3.406   4.470
 3401TIP3   OH210208   3.269   1.886   4.684
 3401TIP3    H110209   3.329   1.818   4.653
 3401TIP3    H210210   3.325   1.963   4.696
 3402TIP3   OH210211   0.768   0.410   4.352
 3402TIP3    H110212   0.824   0.488   4.348
 3402TIP3    H210213   0.827   0.340   4.382
 3403TIP3   OH210214   3.381   0.586   4.717
 3403TIP3    H110215   3.362   0.505   4.669
 3403TIP3    H210216   3.299   0.635   4.714
 3404TIP3   OH210217   3.121   2.591   4.131
 3404TIP3    H110218   3.058   2.643   4.181
 3404TIP3    H210219   3.207   2.621   4.162
 3405TIP3   OH210220   2.560   5.064   4.409
 3405TIP3    H110221   2.496   5.017   4.355
 3405TIP3    H210222   2.639   5.011   4.404
 3406TIP3   OH210223   1.146   3.372   3.568
 3406TIP3    H110224   1.082   3.428   3.613
 3406TIP3    H210225   1.100   3.342   3.490
 3407TIP3   OH210226   3.497   3.391   3.229
 3407TIP3    H110227   3.444   3.373   3.307
 3407TIP3    H210228   3.468   3.326   3.165
 3408TIP3   OH210229   3.043   1.476   2.364
 3408TIP3    H110230   3.085   1.561   2.352
 3408TIP3    H210231   3.081   1.421   2.296
 3409TIP3   OH210232   3.991   4.746   4.462
 3409TIP3    H110233   4.039   4.719   4.383
 3409TIP3    H210234   3.906   4.704   4.452
 3410TIP3   OH210235   5.997   2.966   2.522
 3410TIP3    H110236   6.072   3.023   2.539
 3410TIP3    H210237   6.035   2.889   2.481
 3411TIP3   OH210238   0.505   1.758   4.681
 3411TIP3    H110239   0.548   1.801   4.607
 3411TIP3    H210240   0.485   1.829   4.742
 3412TIP3   OH210241   2.474   3.135   3.175
 3412TIP3    H110242   2.471   3.133   3.271
 3412TIP3    H210243   2.496   3.046   3.150
 3413TIP3   OH210244   3.018   4.866   5.142
 3413TIP3    H110245   3.084   4.858   5.073
 3413TIP3    H210246   3.068   4.863   5.224
 3414TIP3   OH210247   1.611   2.487   0.680
 3414TIP3    H110248   1.698   2.522   0.700
 3414TIP3    H210249   1.565   2.561   0.640
 3415TIP3   OH210250   2.532   2.064   2.566
 3415TIP3    H110251   2.587   1.990   2.591
 3415TIP3    H210252   2.445   2.026   2.552
 3416TIP3   OH210253   0.215   2.547   1.963
 3416TIP3    H110254   0.181   2.621   2.014
 3416TIP3    H210255   0.297   2.524   2.006
 3417TIP3   OH210256   2.961   0.427   3.410
 3417TIP3    H110257   2.936   0.344   3.368
 3417TIP3    H210258   3.011   0.473   3.342
 3418TIP3   OH210259   3.520   4.736   3.272
 3418TIP3    H110260   3.467   4.765   3.198
 3418TIP3    H210261   3.491   4.646   3.288
 3419TIP3   OH210262   0.904   4.278   1.911
 3419TIP3    H110263   0.891   4.205   1.972
 3419TIP3    H210264   0.876   4.356   1.960
 3420TIP3   OH210265   3.867   5.053   2.120
 3420TIP3    H110266   3.921   5.120   2.161
 3420TIP3    H210267   3.921   4.974   2.122
 3421TIP3   OH210268   3.528   4.650   4.844
 3421TIP3    H110269   3.600   4.620   4.899
 3421TIP3    H210270   3.567   4.716   4.787
 3422TIP3   OH210271   3.349   1.650   1.754
 3422TIP3    H110272   3.268   1.682   1.792
 3422TIP3    H210273   3.335   1.556   1.742
 3423TIP3   OH210274   4.863   5.657   4.119
 3423TIP3    H110275   4.848   5.675   4.027
 3423TIP3    H210276   4.811   5.578   4.137
 3424TIP3   OH210277   3.516   0.244   1.255
 3424TIP3    H110278   3.501   0.322   1.309
 3424TIP3    H210279   3.433   0.229   1.211
 3425TIP3   OH210280   1.521   2.863   3.663
 3425TIP3    H110281   1.594   2.924   3.652
 3425TIP3    H210282   1.520   2.813   3.582
 3426TIP3   OH210283   5.678   5.915   4.102
 3426TIP3    H110284   5.735   5.985   4.135
 3426TIP3    H210285   5.614   5.960   4.047
 3427TIP3   OH210286   3.192   2.909   0.344
 3427TIP3    H110287   3.143   2.906   0.261
 3427TIP3    H210288   3.177   2.823   0.382
 3428TIP3   OH210289   2.959   5.448   1.416
 3428TIP3    H110290   2.895   5.457   1.486
 3428TIP3    H210291   2.940   5.362   1.377
 3429TIP3   OH210292   1.924   0.409   4.255
 3429TIP3    H110293   1.901   0.492   4.297
 3429TIP3    H210294   1.852   0.392   4.195
 3430TIP3   OH210295   2.845   1.700   3.623
 3430TIP3    H110296   2.838   1.784   3.579
 3430TIP3    H210297   2.905   1.716   3.697
 3431TIP3   OH210298   5.624   1.302   2.227
 3431TIP3    H110299   5.678   1.368   2.184
 3431TIP3    H210300   5.535   1.334   2.219
 3432TIP3   OH210301   1.137   3.403   1.733
 3432TIP3    H110302   1.123   3.314   1.766
 3432TIP3    H210303   1.128   3.395   1.638
 3433TIP3   OH210304   2.811   4.253   1.190
 3433TIP3    H110305   2.907   4.250   1.185
 3433TIP3    H210306   2.792   4.342   1.219
 3434TIP3   OH210307   3.871   2.851   4.503
 3434TIP3    H110308   3.902   2.811   4.422
 3434TIP3    H210309   3.877   2.781   4.568
 3435TIP3   OH210310   3.416   4.915   4.097
 3435TIP3    H110311   3.369   4.832   4.106
 3435TIP3    H210312   3.392   4.965   4.175
 3436TIP3   OH210313   2.157   5.332   5.033
 3436TIP3    H110314   2.158   5.421   5.067
 3436TIP3    H210315   2.171   5.342   4.939
 3437TIP3   OH210316   1.217   5.187   1.852
 3437TIP3    H110317   1.252   5.151   1.770
 3437TIP3    H210318   1.294   5.204   1.905
 3438TIP3   OH210319   4.957   5.623   0.110
 3438TIP3    H110320   4.864   5.639   0.125
 3438TIP3    H210321   4.974   5.540   0.156
 3439TIP3   OH210322   0.245   4.513   3.414
 3439TIP3    H110323   0.163   4.465   3.411
 3439TIP3    H210324   0.252   4.544   3.505
 3440TIP3   OH210325   5.896   3.075   3.607
 3440TIP3    H110326   5.887   3.016   3.533
 3440TIP3    H210327   5.838   3.039   3.674
 3441TIP3   OH210328   5.726   3.551   0.640
 3441TIP3    H110329   5.739   3.589   0.553
 3441TIP3    H210330   5.650   3.493   0.629
 3442TIP3   OH210331   1.068   0.215   5.213
 3442TIP3    H110332   1.090   0.278   5.144
 3442TIP3    H210333   0.979   0.187   5.192
 3443TIP3   OH210334   5.122   4.348   2.873
 3443TIP3    H110335   5.166   4.410   2.931
 3443TIP3    H210336   5.185   4.276   2.863
 3444TIP3   OH210337   2.265   3.056   3.999
 3444TIP3    H110338   2.349   3.013   4.015
 3444TIP3    H210339   2.215   2.993   3.948
 3445TIP3   OH210340   2.703   2.315   4.767
 3445TIP3    H110341   2.633   2.252   4.747
 3445TIP3    H210342   2.739   2.286   4.850
 3446TIP3   OH210343   2.828   2.667   3.413
 3446TIP3    H110344   2.851   2.715   3.492
 3446TIP3    H210345   2.762   2.722   3.370
 3447TIP3   OH210346   5.652   2.930   1.912
 3447TIP3    H110347   5.727   2.960   1.963
 3447TIP3    H210348   5.650   2.835   1.927
 3448TIP3   OH210349   1.282   4.045   3.610
 3448TIP3    H110350   1.359   4.102   3.615
 3448TIP3    H210351   1.211   4.103   3.584
 3449TIP3   OH210352   4.221   3.640   3.658
 3449TIP3    H110353   4.216   3.551   3.692
 3449TIP3    H210354   4.146   3.648   3.600
 3450TIP3   OH210355   5.932   1.947   2.996
 3450TIP3    H110356   5.902   1.906   2.914
 3450TIP3    H210357   5.859   1.932   3.057
 3451TIP3   OH210358   1.418   3.661   0.853
 3451TIP3    H110359   1.453   3.623   0.772
 3451TIP3    H210360   1.410   3.754   0.834
 3452TIP3   OH210361   5.544   4.350   1.836
 3452TIP3    H110362   5.498   4.375   1.755
 3452TIP3    H210363   5.576   4.433   1.872
 3453TIP3   OH210364   0.827   2.932   2.743
 3453TIP3    H110365   0.753   2.988   2.719
 3453TIP3    H210366   0.833   2.940   2.838
 3454TIP3   OH210367   4.793   0.939   2.762
 3454TIP3    H110368   4.836   0.854   2.756
 3454TIP3    H210369   4.856   0.994   2.809
 3455TIP3   OH210370   4.812   4.533   0.258
 3455TIP3    H110371   4.799   4.533   0.353
 3455TIP3    H210372   4.726   4.512   0.222
 3456TIP3   OH210373   1.340   3.833   3.779
 3456TIP3    H110374   1.307   3.904   3.724
 3456TIP3    H210375   1.434   3.829   3.759
 3457TIP3   OH210376   3.386   4.825   2.996
 3457TIP3    H110377   3.411   4.809   2.905
 3457TIP3    H210378   3.371   4.919   3.000
 3458TIP3   OH210379   3.231   2.142   1.608
 3458TIP3    H110380   3.145   2.183   1.620
 3458TIP3    H210381   3.292   2.200   1.655
 3459TIP3   OH210382   4.532   0.722   1.900
 3459TIP3    H110383   4.527   0.635   1.861
 3459TIP3    H210384   4.449   0.732   1.946
 3460TIP3   OH210385   0.202   1.957   4.061
 3460TIP3    H110386   0.158   1.879   4.026
 3460TIP3    H210387   0.280   1.968   4.007
 3461TIP3   OH210388   0.213   1.008   2.605
 3461TIP3    H110389   0.309   1.012   2.610
 3461TIP3    H210390   0.185   1.098   2.620
 3462TIP3   OH210391   5.838   4.866   5.158
 3462TIP3    H110392   5.903   4.801   5.131
 3462TIP3    H210393   5.756   4.817   5.163
 3463TIP3   OH210394   4.515   3.588   1.417
 3463TIP3    H110395   4.480   3.563   1.332
 3463TIP3    H210396   4.592   3.533   1.429
 3464TIP3   OH210397   1.157   1.298   4.360
 3464TIP3    H110398   1.094   1.305   4.432
 3464TIP3    H210399   1.241   1.319   4.401
 3465TIP3   OH210400   3.781   5.129   0.201
 3465TIP3    H110401   3.806   5.157   0.113
 3465TIP3    H210402   3.690   5.102   0.193
 3466TIP3   OH210403   1.827   2.120   1.333
 3466TIP3    H110404   1.747   2.136   1.382
 3466TIP3    H210405   1.892   2.179   1.371
 3467TIP3   OH210406   0.254   4.909   4.864
 3467TIP3    H110407   0.326   4.845   4.872
 3467TIP3    H210408   0.236   4.912   4.770
 3468TIP3   OH210409   2.901   5.652   1.221
 3468TIP3    H110410   2.942   5.608   1.146
 3468TIP3    H210411   2.910   5.589   1.293
 3469TIP3   OH210412   2.964   3.582   0.296
 3469TIP3    H110413   2.968   3.490   0.270
 3469TIP3    H210414   3.033   3.624   0.244
 3470TIP3   OH210415   2.522   1.400   4.052
 3470TIP3    H110416   2.504   1.326   4.109
 3470TIP3    H210417   2.612   1.387   4.023
 3471TIP3   OH210418   2.420   3.730   4.481
 3471TIP3    H110419   2.343   3.770   4.441
 3471TIP3    H210420   2.465   3.686   4.409
 3472TIP3   OH210421   1.097   5.005   1.175
 3472TIP3    H110422   1.070   5.040   1.089
 3472TIP3    H210423   1.033   4.936   1.193
 3473TIP3   OH210424   2.086   5.750   4.907
 3473TIP3    H110425   2.044   5.665   4.922
 3473TIP3    H210426   2.046   5.783   4.827
 3474TIP3   OH210427   0.142   2.696   0.302
 3474TIP3    H110428   0.160   2.789   0.313
 3474TIP3    H210429   0.113   2.667   0.388
 3475TIP3   OH210430   4.881   0.721   4.013
 3475TIP3    H110431   4.853   0.646   3.961
 3475TIP3    H210432   4.804   0.778   4.017
 3476TIP3   OH210433   1.232   2.833   0.987
 3476TIP3    H110434   1.176   2.762   1.019
 3476TIP3    H210435   1.236   2.819   0.892
 3477TIP3   OH210436   3.650   4.023   4.849
 3477TIP3    H110437   3.647   3.969   4.928
 3477TIP3    H210438   3.568   4.002   4.804
 3478TIP3   OH210439   5.511   3.029   0.987
 3478TIP3    H110440   5.483   2.950   0.940
 3478TIP3    H210441   5.591   3.056   0.943
 3479TIP3   OH210442   3.090   2.712   2.932
 3479TIP3    H110443   3.068   2.630   2.887
 3479TIP3    H210444   3.160   2.688   2.992
 3480TIP3   OH210445   4.591   2.482   3.218
 3480TIP3    H110446   4.677   2.477   3.261
 3480TIP3    H210447   4.600   2.428   3.139
 3481TIP3   OH210448   4.866   5.258   4.728
 3481TIP3    H110449   4.938   5.263   4.666
 3481TIP3    H210450   4.787   5.252   4.673
 3482TIP3   OH210451   3.169   5.151   1.874
 3482TIP3    H110452   3.190   5.061   1.849
 3482TIP3    H210453   3.248   5.184   1.916
 3483TIP3   OH210454   4.956   1.898   4.726
 3483TIP3    H110455   4.978   1.911   4.634
 3483TIP3    H210456   4.926   1.808   4.732
 3484TIP3   OH210457   2.700   1.314   4.709
 3484TIP3    H110458   2.747   1.389   4.671
 3484TIP3    H210459   2.631   1.294   4.646
 3485TIP3   OH210460   3.421   5.733   0.207
 3485TIP3    H110461   3.395   5.723   0.116
 3485TIP3    H210462   3.517   5.736   0.205
 3486TIP3   OH210463   4.025   1.395   0.791
 3486TIP3    H110464   4.023   1.431   0.879
 3486TIP3    H210465   4.084   1.452   0.742
 3487TIP3   OH210466   0.416   2.468   5.118
 3487TIP3    H110467   0.354   2.412   5.166
 3487TIP3    H210468   0.430   2.422   5.035
 3488TIP3   OH210469   0.570   2.664   0.012
 3488TIP3    H110470   0.524   2.590  -0.029
 3488TIP3    H210471   0.647   2.624   0.053
 3489TIP3   OH210472   2.715   3.633   1.794
 3489TIP3    H110473   2.758   3.597   1.872
 3489TIP3    H210474   2.627   3.595   1.796
 3490TIP3   OH210475   4.976   5.170   0.601
 3490TIP3    H110476   5.031   5.230   0.652
 3490TIP3    H210477   4.891   5.214   0.596
 3491TIP3   OH210478   0.758   2.549   0.172
 3491TIP3    H110479   0.708   2.475   0.208
 3491TIP3    H210480   0.841   2.547   0.221
 3492TIP3   OH210481   3.891   1.247   3.244
 3492TIP3    H110482   3.957   1.316   3.239
 3492TIP3    H210483   3.939   1.167   3.227
 3493TIP3   OH210484   1.930   2.617   1.522
 3493TIP3    H110485   1.973   2.676   1.584
 3493TIP3    H210486   1.935   2.531   1.563
 3494TIP3   OH210487   4.444   1.384   4.262
 3494TIP3    H110488   4.363   1.408   4.216
 3494TIP3    H210489   4.514   1.403   4.200
 3495TIP3   OH210490   2.431   3.185   1.393
 3495TIP3    H110491   2.524   3.180   1.415
 3495TIP3    H210492   2.396   3.098   1.412
 3496TIP3   OH210493   4.903   5.607   4.531
 3496TIP3    H110494   4.935   5.529   4.577
 3496TIP3    H210495   4.823   5.579   4.488
 3497TIP3   OH210496   3.906   4.542   0.681
 3497TIP3    H110497   3.962   4.545   0.603
 3497TIP3    H210498   3.819   4.567   0.649
 3498TIP3   OH210499   3.311   5.038   2.624
 3498TIP3    H110500   3.277   5.124   2.601
 3498TIP3    H210501   3.399   5.037   2.586
 3499TIP3   OH210502   0.747   1.870   0.851
 3499TIP3    H110503   0.749   1.963   0.875
 3499TIP3    H210504   0.838   1.846   0.838
 3500TIP3   OH210505   0.871   4.268   3.511
 3500TIP3    H110506   0.943   4.248   3.571
 3500TIP3    H210507   0.875   4.363   3.499
 3501TIP3   OH210508   2.566   5.103   3.397
 3501TIP3    H110509   2.473   5.122   3.413
 3501TIP3    H210510   2.613   5.161   3.457
 3502TIP3   OH210511   3.781   2.630   4.667
 3502TIP3    H110512   3.746   2.561   4.610
 3502TIP3    H210513   3.707   2.656   4.721
 3503TIP3   OH210514   3.863   4.576   4.834
 3503TIP3    H110515   3.879   4.518   4.909
 3503TIP3    H210516   3.933   4.555   4.772
 3504TIP3   OH210517   3.918   4.662   3.590
 3504TIP3    H110518   3.893   4.700   3.674
 3504TIP3    H210519   3.851   4.595   3.574
 3505TIP3   OH210520   1.919   3.788   1.746
 3505TIP3    H110521   1.928   3.854   1.815
 3505TIP3    H210522   1.992   3.806   1.686
 3506TIP3   OH210523   3.775   3.110   4.141
 3506TIP3    H110524   3.681   3.095   4.146
 3506TIP3    H210525   3.798   3.091   4.050
 3507TIP3   OH210526   2.660   3.895   3.202
 3507TIP3    H110527   2.694   3.926   3.285
 3507TIP3    H210528   2.572   3.862   3.222
 3508TIP3   OH210529   4.232   2.643   0.895
 3508TIP3    H110530   4.295   2.651   0.966
 3508TIP3    H210531   4.157   2.598   0.933
 3509TIP3   OH210532   5.892   5.260   3.420
 3509TIP3    H110533   5.825   5.306   3.469
 3509TIP3    H210534   5.850   5.237   3.337
 3510TIP3   OH210535   4.343   3.299   2.755
 3510TIP3    H110536   4.326   3.206   2.738
 3510TIP3    H210537   4.257   3.336   2.773
 3511TIP3   OH210538   1.033   0.446   3.479
 3511TIP3    H110539   1.121   0.466   3.449
 3511TIP3    H210540   1.046   0.402   3.564
 3512TIP3   OH210541   5.832   0.726   3.630
 3512TIP3    H110542   5.865   0.813   3.652
 3512TIP3    H210543   5.849   0.717   3.536
 3513TIP3   OH210544   2.289   4.666   3.023
 3513TIP3    H110545   2.374   4.622   3.031
 3513TIP3    H210546   2.288   4.699   2.933
 3514TIP3   OH210547   2.743   5.214   4.049
 3514TIP3    H110548   2.813   5.202   4.113
 3514TIP3    H210549   2.748   5.306   4.025
 3515TIP3   OH210550   2.378   4.639   4.127
 3515TIP3    H110551   2.301   4.642   4.071
 3515TIP3    H210552   2.375   4.552   4.167
 3516TIP3   OH210553   4.737   1.892   2.583
 3516TIP3    H110554   4.725   1.811   2.633
 3516TIP3    H210555   4.804   1.871   2.519
 3517TIP3   OH210556   5.835   2.544   1.428
 3517TIP3    H110557   5.824   2.565   1.336
 3517TIP3    H210558   5.846   2.628   1.472
 3518TIP3   OH210559   6.134   0.717   4.308
 3518TIP3    H110560   6.147   0.765   4.389
 3518TIP3    H210561   6.215   0.667   4.296
 3519TIP3   OH210562   3.659   5.374   3.588
 3519TIP3    H110563   3.605   5.375   3.668
 3519TIP3    H210564   3.673   5.282   3.570
 3520TIP3   OH210565   2.316   4.291   2.944
 3520TIP3    H110566   2.343   4.272   3.034
 3520TIP3    H210567   2.394   4.275   2.891
 3521TIP3   OH210568   4.035   4.105   4.902
 3521TIP3    H110569   4.127   4.083   4.892
 3521TIP3    H210570   4.033   4.175   4.967
 3522TIP3   OH210571   1.531   5.340   4.462
 3522TIP3    H110572   1.493   5.424   4.441
 3522TIP3    H210573   1.618   5.361   4.496
 3523TIP3   OH210574   1.057   3.551   3.961
 3523TIP3    H110575   1.099   3.465   3.966
 3523TIP3    H210576   0.997   3.552   4.035
 3524TIP3   OH210577   4.325   3.566   4.066
 3524TIP3    H110578   4.354   3.532   3.981
 3524TIP3    H210579   4.356   3.656   4.067
 3525TIP3   OH210580   0.323   5.638   2.452
 3525TIP3    H110581   0.332   5.691   2.372
 3525TIP3    H210582   0.231   5.645   2.476
 3526TIP3   OH210583   1.244   5.811   1.812
 3526TIP3    H110584   1.300   5.887   1.796
 3526TIP3    H210585   1.288   5.763   1.882
 3527TIP3   OH210586   5.900   2.328   2.448
 3527TIP3    H110587   5.909   2.293   2.360
 3527TIP3    H210588   5.892   2.251   2.504
 3528TIP3   OH210589   2.093   0.598   1.007
 3528TIP3    H110590   2.187   0.582   0.999
 3528TIP3    H210591   2.064   0.539   1.077
 3529TIP3   OH210592   5.361   4.482   0.064
 3529TIP3    H110593   5.415   4.538   0.120
 3529TIP3    H210594   5.380   4.393   0.094
 3530TIP3   OH210595   3.364   1.150   1.272
 3530TIP3    H110596   3.422   1.074   1.275
 3530TIP3    H210597   3.400   1.205   1.203
 3531TIP3   OH210598   1.901   2.849   3.298
 3531TIP3    H110599   1.907   2.942   3.317
 3531TIP3    H210600   1.967   2.834   3.230
 3532TIP3   OH210601   5.490   5.780   4.421
 3532TIP3    H110602   5.463   5.848   4.359
 3532TIP3    H210603   5.410   5.728   4.435
 3533TIP3   OH210604   4.389   1.939   3.145
 3533TIP3    H110605   4.372   1.981   3.229
 3533TIP3    H210606   4.346   1.854   3.151
 3534TIP3   OH210607   5.751   4.396   0.157
 3534TIP3    H110608   5.834   4.429   0.122
 3534TIP3    H210609   5.742   4.309   0.119
 3535TIP3   OH210610   4.105   2.499   2.852
 3535TIP3    H110611   4.093   2.593   2.840
 3535TIP3    H210612   4.166   2.473   2.782
 3536TIP3   OH210613   4.857   5.922   1.325
 3536TIP3    H110614   4.928   5.869   1.287
 3536TIP3    H210615   4.838   5.987   1.257
 3537TIP3   OH210616   3.872   5.659   4.072
 3537TIP3    H110617   3.942   5.719   4.048
 3537TIP3    H210618   3.822   5.645   3.991
 3538TIP3   OH210619   1.005   5.493   0.612
 3538TIP3    H110620   0.966   5.490   0.699
 3538TIP3    H210621   1.059   5.572   0.612
 3539TIP3   OH210622   2.313   1.048   1.734
 3539TIP3    H110623   2.323   1.098   1.815
 3539TIP3    H210624   2.220   1.056   1.713
 3540TIP3   OH210625   1.376   2.168   0.506
 3540TIP3    H110626   1.408   2.178   0.595
 3540TIP3    H210627   1.371   2.073   0.492
 3541TIP3   OH210628   5.733   5.616   1.461
 3541TIP3    H110629   5.763   5.544   1.517
 3541TIP3    H210630   5.667   5.577   1.404
 3542TIP3   OH210631   6.039   5.427   4.616
 3542TIP3    H110632   6.039   5.522   4.603
 3542TIP3    H210633   6.110   5.396   4.559
 3543TIP3   OH210634   3.234   1.275   4.856
 3543TIP3    H110635   3.259   1.367   4.865
 3543TIP3    H210636   3.166   1.262   4.922
 3544TIP3   OH210637   5.746   2.707   0.866
 3544TIP3    H110638   5.758   2.614   0.884
 3544TIP3    H210639   5.676   2.734   0.926
 3545TIP3   OH210640   3.913   3.368   2.373
 3545TIP3    H110641   4.002   3.343   2.346
 3545TIP3    H210642   3.925   3.450   2.421
 3546TIP3   OH210643   5.187   4.703   3.986
 3546TIP3    H110644   5.264   4.719   3.931
 3546TIP3    H210645   5.169   4.788   4.028
 3547TIP3   OH210646   4.894   3.070   2.191
 3547TIP3    H110647   4.934   3.012   2.256
 3547TIP3    H210648   4.806   3.086   2.223
 3548TIP3   OH210649   3.903   3.968   4.334
 3548TIP3    H110650   3.973   4.019   4.375
 3548TIP3    H210651   3.840   3.953   4.404
 3549TIP3   OH210652   5.236   1.231   0.716
 3549TIP3    H110653   5.298   1.275   0.658
 3549TIP3    H210654   5.151   1.268   0.693
 3550TIP3   OH210655   3.128   3.034   1.963
 3550TIP3    H110656   3.117   2.990   1.879
 3550TIP3    H210657   3.222   3.043   1.974
 3551TIP3   OH210658   4.958   3.201   0.394
 3551TIP3    H110659   4.985   3.148   0.470
 3551TIP3    H210660   4.910   3.274   0.433
 3552TIP3   OH210661   0.042   4.884   0.778
 3552TIP3    H110662   0.114   4.865   0.718
 3552TIP3    H210663   0.062   4.970   0.813
 3553TIP3   OH210664   1.725   5.369   2.888
 3553TIP3    H110665   1.690   5.281   2.899
 3553TIP3    H210666   1.655   5.418   2.844
 3554TIP3   OH210667   3.358   3.068   3.369
 3554TIP3    H110668   3.280   3.108   3.330
 3554TIP3    H210669   3.325   2.994   3.418
 3555TIP3   OH210670   1.046   2.558   1.561
 3555TIP3    H110671   1.070   2.619   1.491
 3555TIP3    H210672   0.989   2.494   1.519
 3556TIP3   OH210673   0.068   4.658   1.950
 3556TIP3    H110674   0.026   4.618   2.026
 3556TIP3    H210675   0.009   4.638   1.877
 3557TIP3   OH210676   0.807   0.465   3.346
 3557TIP3    H110677   0.895   0.450   3.380
 3557TIP3    H210678   0.822   0.492   3.255
 3558TIP3   OH210679   1.275   0.483   4.643
 3558TIP3    H110680   1.314   0.516   4.562
 3558TIP3    H210681   1.181   0.477   4.624
 3559TIP3   OH210682   1.966   1.753   0.198
 3559TIP3    H110683   1.907   1.802   0.256
 3559TIP3    H210684   2.049   1.748   0.246
 3560TIP3   OH210685   5.058   3.537   3.175
 3560TIP3    H110686   5.015   3.612   3.134
 3560TIP3    H210687   4.986   3.484   3.209
 3561TIP3   OH210688   0.897   1.928   3.318
 3561TIP3    H110689   0.984   1.967   3.325
 3561TIP3    H210690   0.837   2.002   3.332
 3562TIP3   OH210691   0.120   3.233   2.062
 3562TIP3    H110692   0.049   3.289   2.095
 3562TIP3    H210693   0.192   3.247   2.123
 3563TIP3   OH210694   4.875   3.453   0.436
 3563TIP3    H110695   4.817   3.527   0.419
 3563TIP3    H210696   4.951   3.469   0.380
 3564TIP3   OH210697   0.297   4.409   4.418
 3564TIP3    H110698   0.293   4.333   4.360
 3564TIP3    H210699   0.280   4.374   4.505
 3565TIP3   OH210700   4.954   0.987   3.269
 3565TIP3    H110701   5.026   1.033   3.312
 3565TIP3    H210702   4.885   0.982   3.335
 3566TIP3   OH210703   5.892   3.303   1.475
 3566TIP3    H110704   5.964   3.256   1.519
 3566TIP3    H210705   5.813   3.268   1.516
 3567TIP3   OH210706   5.935   1.264   1.580
 3567TIP3    H110707   6.000   1.213   1.532
 3567TIP3    H210708   5.965   1.354   1.573
 3568TIP3   OH210709   3.681   4.619   0.182
 3568TIP3    H110710   3.602   4.670   0.200
 3568TIP3    H210711   3.648   4.537   0.146
 3569TIP3   OH210712   3.758   4.596   4.431
 3569TIP3    H110713   3.711   4.603   4.348
 3569TIP3    H210714   3.691   4.606   4.498
 3570TIP3   OH210715   3.605   2.910   1.333
 3570TIP3    H110716   3.598   2.982   1.396
 3570TIP3    H210717   3.548   2.936   1.261
 3571TIP3   OH210718   1.941   3.697   2.060
 3571TIP3    H110719   1.882   3.753   2.010
 3571TIP3    H210720   1.883   3.645   2.116
 3572TIP3   OH210721   0.689   4.639   0.944
 3572TIP3    H110722   0.656   4.593   0.866
 3572TIP3    H210723   0.618   4.633   1.008
 3573TIP3   OH210724   0.084   4.728   4.935
 3573TIP3    H110725   0.036   4.758   5.012
 3573TIP3    H210726   0.142   4.801   4.912
 3574TIP3   OH210727   4.066   5.385   1.296
 3574TIP3    H110728   3.973   5.396   1.315
 3574TIP3    H210729   4.108   5.386   1.382
 3575TIP3   OH210730   2.506   0.518   3.667
 3575TIP3    H110731   2.486   0.606   3.636
 3575TIP3    H210732   2.575   0.487   3.609
 3576TIP3   OH210733   3.459   2.502   4.972
 3576TIP3    H110734   3.511   2.560   5.028
 3576TIP3    H210735   3.380   2.486   5.023
 3577TIP3   OH210736   2.560   0.813   4.894
 3577TIP3    H110737   2.616   0.878   4.850
 3577TIP3    H210738   2.596   0.729   4.866
 3578TIP3   OH210739   5.810   0.257   2.355
 3578TIP3    H110740   5.719   0.253   2.325
 3578TIP3    H210741   5.834   0.165   2.367
 3579TIP3   OH210742   3.526   5.480   0.822
 3579TIP3    H110743   3.545   5.566   0.784
 3579TIP3    H210744   3.434   5.484   0.847
 3580TIP3   OH210745   4.839   3.137   4.353
 3580TIP3    H110746   4.803   3.110   4.438
 3580TIP3    H210747   4.769   3.190   4.314
 3581TIP3   OH210748   3.670   3.863   3.031
 3581TIP3    H110749   3.614   3.794   3.066
 3581TIP3    H210750   3.630   3.887   2.948
 3582TIP3   OH210751   4.734   1.724   5.090
 3582TIP3    H110752   4.771   1.648   5.134
 3582TIP3    H210753   4.640   1.704   5.082
 3583TIP3   OH210754   0.082   1.909   1.630
 3583TIP3    H110755   0.163   1.858   1.633
 3583TIP3    H210756   0.110   2.000   1.627
 3584TIP3   OH210757   6.077   1.973   3.355
 3584TIP3    H110758   6.167   2.002   3.340
 3584TIP3    H210759   6.033   1.986   3.271
 3585TIP3   OH210760   2.864   4.584   3.754
 3585TIP3    H110761   2.773   4.579   3.725
 3585TIP3    H210762   2.915   4.555   3.678
 3586TIP3   OH210763   3.172   1.299   0.322
 3586TIP3    H110764   3.130   1.240   0.385
 3586TIP3    H210765   3.173   1.384   0.365
 3587TIP3   OH210766   0.811   2.188   1.231
 3587TIP3    H110767   0.817   2.268   1.179
 3587TIP3    H210768   0.733   2.144   1.199
 3588TIP3   OH210769   1.741   1.745   4.160
 3588TIP3    H110770   1.741   1.818   4.098
 3588TIP3    H210771   1.773   1.670   4.110
 3589TIP3   OH210772   5.056   1.334   3.303
 3589TIP3    H110773   4.962   1.334   3.322
 3589TIP3    H210774   5.092   1.265   3.360
 3590TIP3   OH210775   4.495   0.467   1.844
 3590TIP3    H110776   4.502   0.407   1.770
 3590TIP3    H210777   4.401   0.475   1.859
 3591TIP3   OH210778   0.666   3.756   3.146
 3591TIP3    H110779   0.624   3.732   3.064
 3591TIP3    H210780   0.642   3.848   3.160
 3592TIP3   OH210781   1.676   2.397   4.181
 3592TIP3    H110782   1.651   2.359   4.266
 3592TIP3    H210783   1.601   2.378   4.124
 3593TIP3   OH210784   1.230   4.944   2.402
 3593TIP3    H110785   1.313   4.992   2.394
 3593TIP3    H210786   1.220   4.928   2.496
 3594TIP3   OH210787   3.448   4.577   1.787
 3594TIP3    H110788   3.458   4.622   1.703
 3594TIP3    H210789   3.433   4.647   1.850
 3595TIP3   OH210790   0.090   1.904   0.276
 3595TIP3    H110791   0.182   1.927   0.263
 3595TIP3    H210792   0.077   1.828   0.220
 3596TIP3   OH210793   3.353   1.786   5.014
 3596TIP3    H110794   3.278   1.845   5.013
 3596TIP3    H210795   3.429   1.843   5.022
 3597TIP3   OH210796   5.813   3.343   3.416
 3597TIP3    H110797   5.818   3.399   3.493
 3597TIP3    H210798   5.767   3.264   3.445
 3598TIP3   OH210799   5.525   2.067   4.605
 3598TIP3    H110800   5.556   2.146   4.562
 3598TIP3    H210801   5.464   2.028   4.542
 3599TIP3   OH210802   4.885   4.897   4.979
 3599TIP3    H110803   4.935   4.863   4.904
 3599TIP3    H210804   4.914   4.987   4.989
 3600TIP3   OH210805   6.245   5.505   1.936
 3600TIP3    H110806   6.333   5.536   1.957
 3600TIP3    H210807   6.228   5.436   2.000
 3601TIP3   OH210808   3.147   5.828   2.625
 3601TIP3    H110809   3.099   5.867   2.552
 3601TIP3    H210810   3.207   5.897   2.655
 3602TIP3   OH210811   1.300   2.439   3.347
 3602TIP3    H110812   1.359   2.379   3.302
 3602TIP3    H210813   1.326   2.435   3.439
 3603TIP3   OH210814   3.514   4.020   2.100
 3603TIP3    H110815   3.477   3.932   2.102
 3603TIP3    H210816   3.605   4.008   2.127
 3604TIP3   OH210817   6.014   1.128   2.900
 3604TIP3    H110818   6.062   1.175   2.968
 3604TIP3    H210819   5.928   1.111   2.939
 3605TIP3   OH210820   0.848   1.738   0.597
 3605TIP3    H110821   0.904   1.816   0.597
 3605TIP3    H210822   0.762   1.771   0.623
 3606TIP3   OH210823   3.259   3.390   3.393
 3606TIP3    H110824   3.171   3.374   3.427
 3606TIP3    H210825   3.263   3.485   3.382
 3607TIP3   OH210826   5.675   4.047   0.976
 3607TIP3    H110827   5.672   4.126   0.922
 3607TIP3    H210828   5.588   4.008   0.966
 3608TIP3   OH210829   4.482   0.201   3.400
 3608TIP3    H110830   4.447   0.126   3.351
 3608TIP3    H210831   4.547   0.163   3.459
 3609TIP3   OH210832   0.876   4.673   3.147
 3609TIP3    H110833   0.818   4.606   3.111
 3609TIP3    H210834   0.858   4.752   3.096
 3610TIP3   OH210835   5.510   0.161   2.031
 3610TIP3    H110836   5.605   0.165   2.037
 3610TIP3    H210837   5.493   0.101   1.958
 3611TIP3   OH210838   2.247   5.833   3.860
 3611TIP3    H110839   2.239   5.825   3.955
 3611TIP3    H210840   2.341   5.843   3.846
 3612TIP3   OH210841   1.632   0.450   3.518
 3612TIP3    H110842   1.603   0.472   3.606
 3612TIP3    H210843   1.628   0.354   3.514
 3613TIP3   OH210844   2.893   2.746   2.350
 3613TIP3    H110845   2.973   2.793   2.375
 3613TIP3    H210846   2.897   2.664   2.399
 3614TIP3   OH210847   2.181   5.572   1.488
 3614TIP3    H110848   2.134   5.491   1.510
 3614TIP3    H210849   2.113   5.639   1.486
 3615TIP3   OH210850   2.135   3.199   1.232
 3615TIP3    H110851   2.139   3.164   1.143
 3615TIP3    H210852   2.125   3.294   1.221
 3616TIP3   OH210853   1.360   3.730   4.847
 3616TIP3    H110854   1.388   3.818   4.874
 3616TIP3    H210855   1.295   3.745   4.778
 3617TIP3   OH210856   5.654   1.592   3.819
 3617TIP3    H110857   5.736   1.640   3.815
 3617TIP3    H210858   5.597   1.646   3.874
 3618TIP3   OH210859   0.040   5.778   2.217
 3618TIP3    H110860  -0.052   5.773   2.191
 3618TIP3    H210861   0.082   5.830   2.148
 3619TIP3   OH210862   5.862   4.929   0.575
 3619TIP3    H110863   5.939   4.908   0.521
 3619TIP3    H210864   5.811   4.848   0.575
 3620TIP3   OH210865   5.556   4.441   4.278
 3620TIP3    H110866   5.513   4.407   4.356
 3620TIP3    H210867   5.561   4.366   4.218
 3621TIP3   OH210868   1.769   2.256   4.868
 3621TIP3    H110869   1.827   2.325   4.834
 3621TIP3    H210870   1.687   2.267   4.820
 3622TIP3   OH210871   1.008   3.889   3.017
 3622TIP3    H110872   0.979   3.877   2.927
 3622TIP3    H210873   1.100   3.913   3.010
 3623TIP3   OH210874   1.839   5.749   4.697
 3623TIP3    H110875   1.795   5.829   4.668
 3623TIP3    H210876   1.772   5.699   4.742
 3624TIP3   OH210877   3.844   5.649   0.480
 3624TIP3    H110878   3.893   5.703   0.543
 3624TIP3    H210879   3.899   5.572   0.467
 3625TIP3   OH210880   2.592   3.642   3.538
 3625TIP3    H110881   2.637   3.578   3.594
 3625TIP3    H210882   2.538   3.589   3.480
 3626TIP3   OH210883   4.033   0.124   0.231
 3626TIP3    H110884   4.023   0.159   0.320
 3626TIP3    H210885   3.986   0.186   0.175
 3627TIP3   OH210886   1.339   2.076   1.623
 3627TIP3    H110887   1.303   2.060   1.536
 3627TIP3    H210888   1.341   1.989   1.664
 3628TIP3   OH210889   1.934   0.840   2.452
 3628TIP3    H110890   1.893   0.758   2.480
 3628TIP3    H210891   1.892   0.861   2.369
 3629TIP3   OH210892   2.349   3.575   3.035
 3629TIP3    H110893   2.347   3.582   2.940
 3629TIP3    H210894   2.441   3.587   3.058
 3630TIP3   OH210895   5.688   4.707   4.649
 3630TIP3    H110896   5.653   4.722   4.561
 3630TIP3    H210897   5.783   4.713   4.638
 3631TIP3   OH210898   0.515   1.003   0.749
 3631TIP3    H110899   0.453   0.930   0.752
 3631TIP3    H210900   0.474   1.066   0.689
 3632TIP3   OH210901   4.435   5.832   2.088
 3632TIP3    H110902   4.406   5.796   2.171
 3632TIP3    H210903   4.511   5.886   2.110
 3633TIP3   OH210904   0.079   0.383   4.557
 3633TIP3    H110905   0.101   0.294   4.531
 3633TIP3    H210906   0.048   0.424   4.476
 3634TIP3   OH210907   0.136   0.158   2.661
 3634TIP3    H110908   0.152   0.064   2.665
 3634TIP3    H210909   0.091   0.171   2.577
 3635TIP3   OH210910   1.248   0.555   0.746
 3635TIP3    H110911   1.245   0.553   0.842
 3635TIP3    H210912   1.156   0.552   0.719
 3636TIP3   OH210913   0.707   4.601   1.599
 3636TIP3    H110914   0.677   4.635   1.683
 3636TIP3    H210915   0.657   4.521   1.585
 3637TIP3   OH210916   3.678   3.937   0.894
 3637TIP3    H110917   3.752   3.933   0.955
 3637TIP3    H210918   3.612   3.879   0.931
 3638TIP3   OH210919   2.222   0.688   0.100
 3638TIP3    H110920   2.260   0.626   0.163
 3638TIP3    H210921   2.176   0.634   0.037
 3639TIP3   OH210922   1.037   3.992   0.725
 3639TIP3    H110923   1.036   3.897   0.735
 3639TIP3    H210924   1.062   4.007   0.634
 3640TIP3   OH210925   5.588   0.829   4.169
 3640TIP3    H110926   5.553   0.740   4.169
 3640TIP3    H210927   5.544   0.872   4.242
 3641TIP3   OH210928   0.456   5.841   4.941
 3641TIP3    H110929   0.401   5.865   5.016
 3641TIP3    H210930   0.543   5.829   4.978
 3642TIP3   OH210931   1.612   1.861   2.295
 3642TIP3    H110932   1.530   1.826   2.329
 3642TIP3    H210933   1.635   1.931   2.356
 3643TIP3   OH210934   4.403   0.060   1.264
 3643TIP3    H110935   4.385  -0.022   1.217
 3643TIP3    H210936   4.340   0.060   1.335
 3644TIP3   OH210937   5.359   3.783   2.126
 3644TIP3    H110938   5.428   3.849   2.124
 3644TIP3    H210939   5.329   3.784   2.217
 3645TIP3   OH210940   2.570   0.250   0.240
 3645TIP3    H110941   2.476   0.235   0.240
 3645TIP3    H210942   2.599   0.225   0.153
 3646TIP3   OH210943   4.123   3.878   2.469
 3646TIP3    H110944   4.193   3.836   2.420
 3646TIP3    H210945   4.142   3.857   2.561
 3647TIP3   OH210946   3.728   0.201   0.787
 3647TIP3    H110947   3.742   0.135   0.720
 3647TIP3    H210948   3.809   0.203   0.837
 3648TIP3   OH210949   3.986   2.392   0.307
 3648TIP3    H110950   3.941   2.401   0.391
 3648TIP3    H210951   4.049   2.464   0.306
 3649TIP3   OH210952   3.966   5.476   2.130
 3649TIP3    H110953   3.916   5.536   2.186
 3649TIP3    H210954   4.056   5.509   2.135
 3650TIP3   OH210955   1.496   0.092   4.694
 3650TIP3    H110956   1.401   0.092   4.700
 3650TIP3    H210957   1.525   0.045   4.772
 3651TIP3   OH210958   1.075   3.736   1.033
 3651TIP3    H110959   1.048   3.662   1.087
 3651TIP3    H210960   1.054   3.710   0.943
 3652TIP3   OH210961   0.319   2.376   2.327
 3652TIP3    H110962   0.306   2.296   2.378
 3652TIP3    H210963   0.232   2.414   2.318
 3653TIP3   OH210964  -0.022   0.895   0.853
 3653TIP3    H110965   0.012   0.851   0.775
 3653TIP3    H210966   0.050   0.950   0.883
 3654TIP3   OH210967   3.467   0.132   3.220
 3654TIP3    H110968   3.513   0.077   3.156
 3654TIP3    H210969   3.535   0.163   3.279
 3655TIP3   OH210970   5.991   3.919   0.456
 3655TIP3    H110971   6.031   3.997   0.416
 3655TIP3    H210972   5.994   3.936   0.550
 3656TIP3   OH210973   5.611   5.873   2.071
 3656TIP3    H110974   5.567   5.931   2.010
 3656TIP3    H210975   5.548   5.859   2.142
 3657TIP3   OH210976   4.890   5.081   0.895
 3657TIP3    H110977   4.928   5.150   0.841
 3657TIP3    H210978   4.956   5.065   0.963
 3658TIP3   OH210979   6.011   4.513   1.542
 3658TIP3    H110980   6.025   4.433   1.492
 3658TIP3    H210981   5.995   4.484   1.631
 3659TIP3   OH210982   4.636   0.487   1.061
 3659TIP3    H110983   4.602   0.413   1.111
 3659TIP3    H210984   4.625   0.562   1.120
 3660TIP3   OH210985   0.880   0.731   2.011
 3660TIP3    H110986   0.904   0.693   1.927
 3660TIP3    H210987   0.801   0.782   1.993
 3661TIP3   OH210988   5.600   4.589   1.952
 3661TIP3    H110989   5.522   4.644   1.950
 3661TIP3    H210990   5.673   4.650   1.943
 3662TIP3   OH210991   3.616   1.324   2.446
 3662TIP3    H110992   3.698   1.360   2.481
 3662TIP3    H210993   3.640   1.293   2.358
 3663TIP3   OH210994   1.226   5.701   3.906
 3663TIP3    H110995   1.148   5.746   3.936
 3663TIP3    H210996   1.210   5.609   3.926
 3664TIP3   OH210997   0.282   4.134   2.381
 3664TIP3    H110998   0.283   4.148   2.286
 3664TIP3    H210999   0.372   4.111   2.403
 3665TIP3   OH211000   4.486   0.536   0.581
 3665TIP3    H111001   4.513   0.479   0.509
 3665TIP3    H211002   4.513   0.489   0.660
 3666TIP3   OH211003   0.757   5.769   4.465
 3666TIP3    H111004   0.821   5.834   4.438
 3666TIP3    H211005   0.713   5.808   4.541
 3667TIP3   OH211006   3.040   2.798   4.306
 3667TIP3    H111007   3.104   2.856   4.348
 3667TIP3    H211008   2.968   2.793   4.369
 3668TIP3   OH211009   3.032   1.403   1.631
 3668TIP3    H111010   3.105   1.371   1.683
 3668TIP3    H211011   3.033   1.498   1.644
 3669TIP3   OH211012   4.045   4.555   3.858
 3669TIP3    H111013   4.099   4.634   3.848
 3669TIP3    H211014   4.108   4.483   3.860
 3670TIP3   OH211015   1.613   0.656   4.107
 3670TIP3    H111016   1.695   0.641   4.060
 3670TIP3    H211017   1.619   0.602   4.186
 3671TIP3   OH211018   0.072   1.932   2.340
 3671TIP3    H111019   0.092   1.855   2.393
 3671TIP3    H211020   0.033   1.897   2.261
 3672TIP3   OH211021   3.416   3.747   0.241
 3672TIP3    H111022   3.399   3.829   0.286
 3672TIP3    H211023   3.489   3.766   0.182
 3673TIP3   OH211024   6.101   5.977   1.307
 3673TIP3    H111025   6.051   5.917   1.363
 3673TIP3    H211026   6.155   5.920   1.253
 3674TIP3   OH211027   3.031   5.594   4.494
 3674TIP3    H111028   3.018   5.608   4.588
 3674TIP3    H211029   3.082   5.512   4.489
 3675TIP3   OH211030   2.938   2.454   2.315
 3675TIP3    H111031   2.919   2.465   2.222
 3675TIP3    H211032   3.027   2.419   2.317
 3676TIP3   OH211033   0.050   3.014   2.853
 3676TIP3    H111034   0.060   2.947   2.785
 3676TIP3    H211035   0.110   2.987   2.922
 3677TIP3   OH211036   1.116   4.607   2.583
 3677TIP3    H111037   1.144   4.686   2.537
 3677TIP3    H211038   1.123   4.629   2.676
 3678TIP3   OH211039   5.648   4.842   1.053
 3678TIP3    H111040   5.636   4.830   1.147
 3678TIP3    H211041   5.740   4.866   1.043
 3679TIP3   OH211042   0.262   3.754   0.653
 3679TIP3    H111043   0.226   3.784   0.569
 3679TIP3    H211044   0.247   3.660   0.653
 3680TIP3   OH211045   0.822   4.194   1.293
 3680TIP3    H111046   0.748   4.255   1.298
 3680TIP3    H211047   0.781   4.108   1.287
 3681TIP3   OH211048   3.129   5.626   1.991
 3681TIP3    H111049   3.180   5.653   1.915
 3681TIP3    H211050   3.068   5.560   1.958
 3682TIP3   OH211051   1.395   1.899   0.435
 3682TIP3    H111052   1.467   1.896   0.371
 3682TIP3    H211053   1.366   1.808   0.443
 3683TIP3   OH211054   1.427   5.072   1.096
 3683TIP3    H111055   1.496   5.137   1.078
 3683TIP3    H211056   1.382   5.061   1.012
 3684TIP3   OH211057   0.683   0.597   2.219
 3684TIP3    H111058   0.690   0.556   2.305
 3684TIP3    H211059   0.590   0.587   2.195
 3685TIP3   OH211060   4.648   3.277   4.247
 3685TIP3    H111061   4.630   3.271   4.153
 3685TIP3    H211062   4.572   3.322   4.283
 3686TIP3   OH211063   4.050   5.196   0.599
 3686TIP3    H111064   3.983   5.237   0.654
 3686TIP3    H211065   4.059   5.255   0.524
 3687TIP3   OH211066   5.250   1.977   1.387
 3687TIP3    H111067   5.227   1.943   1.474
 3687TIP3    H211068   5.255   2.072   1.399
 3688TIP3   OH211069   3.304   0.794   1.095
 3688TIP3    H111070   3.240   0.829   1.158
 3688TIP3    H211071   3.370   0.750   1.150
 3689TIP3   OH211072   3.341   3.617   4.307
 3689TIP3    H111073   3.431   3.650   4.318
 3689TIP3    H211074   3.352   3.522   4.295
 3690TIP3   OH211075   2.491   2.388   0.491
 3690TIP3    H111076   2.442   2.383   0.573
 3690TIP3    H211077   2.439   2.446   0.435
 3691TIP3   OH211078   6.007   4.974   3.993
 3691TIP3    H111079   6.055   4.933   4.066
 3691TIP3    H211080   6.065   5.043   3.963
 3692TIP3   OH211081   3.879   3.872   0.636
 3692TIP3    H111082   3.830   3.898   0.714
 3692TIP3    H211083   3.816   3.822   0.584
 3693TIP3   OH211084   3.957   5.828   0.673
 3693TIP3    H111085   4.023   5.887   0.710
 3693TIP3    H211086   3.905   5.884   0.615
 3694TIP3   OH211087   4.657   1.088   0.218
 3694TIP3    H111088   4.574   1.041   0.212
 3694TIP3    H211089   4.698   1.053   0.297
 3695TIP3   OH211090   0.024   0.575   0.080
 3695TIP3    H111091   0.026   0.620   0.165
 3695TIP3    H211092   0.075   0.632   0.022
 3696TIP3   OH211093   3.189   2.447   1.540
 3696TIP3    H111094   3.232   2.400   1.469
 3696TIP3    H211095   3.245   2.431   1.616
 3697TIP3   OH211096   2.663   2.462   1.881
 3697TIP3    H111097   2.593   2.398   1.898
 3697TIP3    H211098   2.624   2.522   1.818
 3698TIP3   OH211099   4.393   5.628   1.573
 3698TIP3    H111100   4.349   5.545   1.553
 3698TIP3    H211101   4.322   5.692   1.577
 3699TIP3   OH211102   3.805   2.721   3.059
 3699TIP3    H111103   3.866   2.780   3.104
 3699TIP3    H211104   3.719   2.759   3.075
 3700TIP3   OH211105   6.286   6.015   4.214
 3700TIP3    H111106   6.211   6.003   4.272
 3700TIP3    H211107   6.304   5.928   4.179
 3701TIP3   OH211108   3.683   0.125   0.376
 3701TIP3    H111109   3.705   0.075   0.454
 3701TIP3    H211110   3.604   0.084   0.341
 3702TIP3   OH211111   6.134   3.832   3.003
 3702TIP3    H111112   6.219   3.874   2.990
 3702TIP3    H211113   6.156   3.740   3.022
 3703TIP3   OH211114   3.298   0.284   2.251
 3703TIP3    H111115   3.279   0.369   2.291
 3703TIP3    H211116   3.390   0.269   2.270
 3704TIP3   OH211117   0.609   2.685   1.806
 3704TIP3    H111118   0.520   2.705   1.835
 3704TIP3    H211119   0.628   2.600   1.844
 3705TIP3   OH211120   1.852   3.173   2.461
 3705TIP3    H111121   1.884   3.237   2.397
 3705TIP3    H211122   1.907   3.186   2.538
 3706TIP3   OH211123   1.353   3.055   0.795
 3706TIP3    H111124   1.413   2.983   0.815
 3706TIP3    H211125   1.283   3.047   0.860
 3707TIP3   OH211126   1.345   0.312   2.451
 3707TIP3    H111127   1.271   0.257   2.423
 3707TIP3    H211128   1.418   0.281   2.399
 3708TIP3   OH211129   0.154   3.434   3.373
 3708TIP3    H111130   0.131   3.366   3.437
 3708TIP3    H211131   0.128   3.397   3.288
 3709TIP3   OH211132   2.199   3.683   1.889
 3709TIP3    H111133   2.223   3.765   1.932
 3709TIP3    H211134   2.106   3.671   1.912
 3710TIP3   OH211135   2.560   1.966   0.719
 3710TIP3    H111136   2.492   2.015   0.672
 3710TIP3    H211137   2.522   1.879   0.731
 3711TIP3   OH211138   1.796   1.038   2.853
 3711TIP3    H111139   1.744   1.092   2.913
 3711TIP3    H211140   1.854   0.987   2.910
 3712TIP3   OH211141   2.124   4.138   4.293
 3712TIP3    H111142   2.198   4.193   4.265
 3712TIP3    H211143   2.148   4.110   4.381
 3713TIP3   OH211144   1.367   2.972   3.877
 3713TIP3    H111145   1.425   2.934   3.810
 3713TIP3    H211146   1.414   3.048   3.909
 3714TIP3   OH211147   2.097   0.398   1.230
 3714TIP3    H111148   2.041   0.378   1.305
 3714TIP3    H211149   2.089   0.322   1.173
 3715TIP3   OH211150   1.055   2.122   1.640
 3715TIP3    H111151   1.033   2.028   1.643
 3715TIP3    H211152   1.082   2.142   1.729
 3716TIP3   OH211153   3.689   1.450   2.749
 3716TIP3    H111154   3.643   1.523   2.709
 3716TIP3    H211155   3.779   1.481   2.759
 3717TIP3   OH211156   1.605   5.193   4.804
 3717TIP3    H111157   1.512   5.178   4.821
 3717TIP3    H211158   1.650   5.130   4.860
 3718TIP3   OH211159   2.919   5.234   1.209
 3718TIP3    H111160   2.855   5.286   1.160
 3718TIP3    H211161   3.004   5.268   1.181
 3719TIP3   OH211162   0.021   1.164   2.218
 3719TIP3    H111163   0.095   1.180   2.159
 3719TIP3    H211164  -0.055   1.198   2.171
 3720TIP3   OH211165   5.638   1.842   4.748
 3720TIP3    H111166   5.594   1.916   4.707
 3720TIP3    H211167   5.644   1.776   4.679
 3721TIP3   OH211168   2.600   2.802   4.739
 3721TIP3    H111169   2.531   2.852   4.695
 3721TIP3    H211170   2.596   2.715   4.699
 3722TIP3   OH211171   1.769   2.863   1.503
 3722TIP3    H111172   1.752   2.915   1.581
 3722TIP3    H211173   1.808   2.925   1.441
 3723TIP3   OH211174   0.286   4.243   4.159
 3723TIP3    H111175   0.203   4.196   4.149
 3723TIP3    H211176   0.286   4.306   4.087
 3724TIP3   OH211177   1.307   5.134   2.615
 3724TIP3    H111178   1.275   5.110   2.702
 3724TIP3    H211179   1.401   5.117   2.618
 3725TIP3   OH211180   2.767   4.474   1.870
 3725TIP3    H111181   2.806   4.412   1.932
 3725TIP3    H211182   2.833   4.483   1.801
 3726TIP3   OH211183   0.395   0.216   1.464
 3726TIP3    H111184   0.424   0.273   1.392
 3726TIP3    H211185   0.369   0.277   1.533
 3727TIP3   OH211186   3.756   1.781   3.053
 3727TIP3    H111187   3.769   1.748   3.141
 3727TIP3    H211188   3.821   1.735   3.000
 3728TIP3   OH211189   0.588   5.150   0.856
 3728TIP3    H111190   0.619   5.108   0.775
 3728TIP3    H211191   0.492   5.144   0.851
 3729TIP3   OH211192   5.766   4.185   2.623
 3729TIP3    H111193   5.802   4.254   2.568
 3729TIP3    H211194   5.738   4.230   2.703
 3730TIP3   OH211195   3.451   0.039   1.517
 3730TIP3    H111196   3.452   0.040   1.613
 3730TIP3    H211197   3.444   0.131   1.492
 3731TIP3   OH211198   5.349   4.594   0.745
 3731TIP3    H111199   5.404   4.669   0.723
 3731TIP3    H211200   5.346   4.542   0.665
 3732TIP3   OH211201   2.139   4.042   2.653
 3732TIP3    H111202   2.227   4.007   2.669
 3732TIP3    H211203   2.111   4.001   2.571
 3733TIP3   OH211204   3.258   1.382   1.369
 3733TIP3    H111205   3.164   1.369   1.351
 3733TIP3    H211206   3.299   1.303   1.334
 3734TIP3   OH211207   4.735   0.106   0.517
 3734TIP3    H111208   4.705   0.064   0.597
 3734TIP3    H211209   4.716   0.199   0.529
 3735TIP3   OH211210   5.634   3.727   4.161
 3735TIP3    H111211   5.577   3.777   4.219
 3735TIP3    H211212   5.615   3.636   4.180
 3736TIP3   OH211213   4.240   3.839   2.755
 3736TIP3    H111214   4.212   3.787   2.830
 3736TIP3    H211215   4.253   3.927   2.789
 3737TIP3   OH211216   1.472   5.823   0.774
 3737TIP3    H111217   1.415   5.888   0.732
 3737TIP3    H211218   1.411   5.762   0.816
 3738TIP3   OH211219   1.867   3.875   4.214
 3738TIP3    H111220   1.883   3.969   4.215
 3738TIP3    H211221   1.864   3.852   4.121
 3739TIP3   OH211222   2.600   2.280   5.041
 3739TIP3    H111223   2.571   2.366   5.010
 3739TIP3    H211224   2.525   2.222   5.026
 3740TIP3   OH211225   1.064   5.529   2.895
 3740TIP3    H111226   1.056   5.623   2.883
 3740TIP3    H211227   1.014   5.491   2.823
 3741TIP3   OH211228   5.602   5.718   5.075
 3741TIP3    H111229   5.650   5.799   5.092
 3741TIP3    H211230   5.558   5.699   5.158
 3742TIP3   OH211231   3.632   3.988   1.521
 3742TIP3    H111232   3.627   4.080   1.548
 3742TIP3    H211233   3.683   3.946   1.590
 3743TIP3   OH211234   5.999   1.748   1.756
 3743TIP3    H111235   5.982   1.752   1.850
 3743TIP3    H211236   6.053   1.825   1.738
 3744TIP3   OH211237   4.938   3.281   2.915
 3744TIP3    H111238   4.965   3.201   2.871
 3744TIP3    H211239   4.997   3.348   2.882
 3745TIP3   OH211240   6.301   4.201   4.385
 3745TIP3    H111241   6.337   4.253   4.457
 3745TIP3    H211242   6.292   4.113   4.421
 3746TIP3   OH211243   3.046   5.752   1.728
 3746TIP3    H111244   2.986   5.683   1.758
 3746TIP3    H211245   3.019   5.830   1.775
 3747TIP3   OH211246   1.302   5.798   2.889
 3747TIP3    H111247   1.342   5.827   2.807
 3747TIP3    H211248   1.352   5.842   2.957
 3748TIP3   OH211249   2.374   2.109   4.954
 3748TIP3    H111250   2.292   2.149   4.925
 3748TIP3    H211251   2.424   2.095   4.874
 3749TIP3   OH211252   1.948   1.721   2.303
 3749TIP3    H111253   1.866   1.770   2.292
 3749TIP3    H211254   1.920   1.630   2.311
 3750TIP3   OH211255   0.999   4.884   2.235
 3750TIP3    H111256   1.087   4.879   2.271
 3750TIP3    H211257   0.965   4.968   2.266
 3751TIP3   OH211258   1.434   3.254   2.363
 3751TIP3    H111259   1.463   3.325   2.420
 3751TIP3    H211260   1.359   3.215   2.409
 3752TIP3   OH211261   4.250   2.778   2.802
 3752TIP3    H111262   4.240   2.814   2.890
 3752TIP3    H211263   4.345   2.775   2.788
 3753TIP3   OH211264   1.745   2.194   3.000
 3753TIP3    H111265   1.680   2.125   2.985
 3753TIP3    H211266   1.803   2.159   3.067
 3754TIP3   OH211267   2.436   0.454   0.629
 3754TIP3    H111268   2.475   0.497   0.553
 3754TIP3    H211269   2.507   0.450   0.693
 3755TIP3   OH211270   1.114   2.347   2.054
 3755TIP3    H111271   1.135   2.284   1.985
 3755TIP3    H211272   1.151   2.430   2.023
 3756TIP3   OH211273   5.271   5.694   4.780
 3756TIP3    H111274   5.210   5.734   4.842
 3756TIP3    H211275   5.346   5.753   4.778
 3757TIP3   OH211276   4.145   0.413   0.094
 3757TIP3    H111277   4.211   0.376   0.035
 3757TIP3    H211278   4.069   0.356   0.084
 3758TIP3   OH211279   0.161   3.487   2.715
 3758TIP3    H111280   0.181   3.501   2.808
 3758TIP3    H211281   0.110   3.563   2.690
 3759TIP3   OH211282   4.031   4.549   3.005
 3759TIP3    H111283   4.048   4.640   3.030
 3759TIP3    H211284   3.971   4.516   3.072
 3760TIP3   OH211285   2.762   2.767   1.874
 3760TIP3    H111286   2.779   2.700   1.807
 3760TIP3    H211287   2.839   2.763   1.932
 3761TIP3   OH211288   4.757   0.779   2.047
 3761TIP3    H111289   4.765   0.689   2.081
 3761TIP3    H211290   4.675   0.779   1.999
 3762TIP3   OH211291   1.614   0.461   2.430
 3762TIP3    H111292   1.564   0.503   2.360
 3762TIP3    H211293   1.637   0.375   2.395
 3763TIP3   OH211294   1.588   5.442   3.799
 3763TIP3    H111295   1.627   5.525   3.771
 3763TIP3    H211296   1.576   5.452   3.894
 3764TIP3   OH211297   1.502   1.502   2.601
 3764TIP3    H111298   1.594   1.515   2.579
 3764TIP3    H211299   1.463   1.589   2.596
 3765TIP3   OH211300   1.198   1.835   4.044
 3765TIP3    H111301   1.268   1.893   4.014
 3765TIP3    H211302   1.165   1.877   4.124
 3766TIP3   OH211303   0.634   5.675   0.893
 3766TIP3    H111304   0.638   5.682   0.798
 3766TIP3    H211305   0.702   5.734   0.925
 3767TIP3   OH211306   5.771   5.866   4.862
 3767TIP3    H111307   5.745   5.808   4.791
 3767TIP3    H211308   5.828   5.812   4.917
 3768TIP3   OH211309   4.930   1.912   4.997
 3768TIP3    H111310   4.859   1.855   5.025
 3768TIP3    H211311   4.923   1.915   4.902
 3769TIP3   OH211312   3.939   4.419   5.048
 3769TIP3    H111313   3.997   4.346   5.069
 3769TIP3    H211314   3.993   4.497   5.057
 3770TIP3   OH211315   0.071   4.341   2.742
 3770TIP3    H111316   0.131   4.365   2.813
 3770TIP3    H211317   0.001   4.293   2.785
 3771TIP3   OH211318   5.446   3.641   0.245
 3771TIP3    H111319   5.387   3.590   0.301
 3771TIP3    H211320   5.387   3.685   0.183
 3772TIP3   OH211321   5.401   5.860   1.562
 3772TIP3    H111322   5.480   5.813   1.587
 3772TIP3    H211323   5.353   5.798   1.506
 3773TIP3   OH211324   5.700   2.028   1.198
 3773TIP3    H111325   5.744   1.999   1.118
 3773TIP3    H211326   5.619   1.977   1.201
 3774TIP3   OH211327   6.083   1.704   4.747
 3774TIP3    H111328   6.159   1.654   4.717
 3774TIP3    H211329   6.019   1.637   4.772
 3775TIP3   OH211330   3.320   2.373   0.139
 3775TIP3    H111331   3.322   2.430   0.216
 3775TIP3    H211332   3.233   2.333   0.141
 3776TIP3   OH211333   3.221   5.065   3.332
 3776TIP3    H111334   3.134   5.037   3.358
 3776TIP3    H211335   3.246   5.006   3.261
 3777TIP3   OH211336   5.733   3.166   0.907
 3777TIP3    H111337   5.759   3.242   0.856
 3777TIP3    H211338   5.733   3.197   0.998
 3778TIP3   OH211339   3.081   2.645   0.147
 3778TIP3    H111340   3.027   2.656   0.225
 3778TIP3    H211341   3.021   2.657   0.074
 3779TIP3   OH211342   0.616   0.789   3.146
 3779TIP3    H111343   0.693   0.833   3.108
 3779TIP3    H211344   0.543   0.848   3.126
 3780TIP3   OH211345   0.482   2.335   3.820
 3780TIP3    H111346   0.443   2.419   3.844
 3780TIP3    H211347   0.427   2.270   3.865
 3781TIP3   OH211348   4.747   3.070   4.627
 3781TIP3    H111349   4.836   3.091   4.654
 3781TIP3    H211350   4.715   3.010   4.694
 3782TIP3   OH211351   1.113   2.630   2.297
 3782TIP3    H111352   1.101   2.650   2.204
 3782TIP3    H211353   1.131   2.536   2.299
 3783TIP3   OH211354   1.269   1.660   0.244
 3783TIP3    H111355   1.198   1.724   0.249
 3783TIP3    H211356   1.283   1.647   0.150
 3784TIP3   OH211357   5.908   0.575   4.332
 3784TIP3    H111358   5.902   0.656   4.383
 3784TIP3    H211359   6.001   0.566   4.313
 3785TIP3   OH211360   1.734   3.785   4.924
 3785TIP3    H111361   1.783   3.742   4.854
 3785TIP3    H211362   1.675   3.718   4.958
 3786TIP3   OH211363   4.134   2.643   1.372
 3786TIP3    H111364   4.155   2.732   1.399
 3786TIP3    H211365   4.102   2.601   1.452
 3787TIP3   OH211366  -0.004   0.053   2.193
 3787TIP3    H111367   0.033   0.037   2.106
 3787TIP3    H211368  -0.014  -0.034   2.230
 3788TIP3   OH211369   3.348   4.979   5.127
 3788TIP3    H111370   3.347   4.898   5.075
 3788TIP3    H211371   3.439   5.006   5.128
 3789TIP3   OH211372   0.180   1.183   0.011
 3789TIP3    H111373   0.232   1.130  -0.049
 3789TIP3    H211374   0.189   1.138   0.095
 3790TIP3   OH211375   2.470   4.820   3.640
 3790TIP3    H111376   2.512   4.891   3.688
 3790TIP3    H211377   2.485   4.742   3.693
 3791TIP3   OH211378   4.916   5.118   4.317
 3791TIP3    H111379   4.821   5.118   4.327
 3791TIP3    H211380   4.931   5.145   4.226
 3792TIP3   OH211381   4.271   5.175   0.088
 3792TIP3    H111382   4.209   5.112   0.050
 3792TIP3    H211383   4.259   5.255   0.035
 3793TIP3   OH211384   5.463   1.196   0.196
 3793TIP3    H111385   5.372   1.197   0.225
 3793TIP3    H211386   5.508   1.139   0.259
 3794TIP3   OH211387   1.836   4.729   3.854
 3794TIP3    H111388   1.830   4.647   3.805
 3794TIP3    H211389   1.863   4.794   3.789
 3795TIP3   OH211390   0.706   4.237   4.784
 3795TIP3    H111391   0.697   4.272   4.696
 3795TIP3    H211392   0.679   4.145   4.777
 3796TIP3   OH211393   0.394   2.054   2.909
 3796TIP3    H111394   0.412   1.961   2.922
 3796TIP3    H211395   0.430   2.097   2.986
 3797TIP3   OH211396   6.073   3.962   3.656
 3797TIP3    H111397   6.052   4.004   3.573
 3797TIP3    H211398   5.995   3.973   3.709
 3798TIP3   OH211399   4.320   0.952   4.062
 3798TIP3    H111400   4.367   0.877   4.097
 3798TIP3    H211401   4.238   0.956   4.112
 3799TIP3   OH211402   6.089   5.098   3.553
 3799TIP3    H111403   6.012   5.147   3.525
 3799TIP3    H211404   6.156   5.120   3.489
 3800TIP3   OH211405   0.140   4.233   3.149
 3800TIP3    H111406   0.086   4.309   3.173
 3800TIP3    H211407   0.181   4.258   3.067
 3801TIP3   OH211408   0.369   1.882   0.206
 3801TIP3    H111409   0.379   1.844   0.294
 3801TIP3    H211410   0.459   1.890   0.173
 3802TIP3   OH211411   4.794   2.727   2.123
 3802TIP3    H111412   4.871   2.765   2.081
 3802TIP3    H211413   4.778   2.647   2.074
 3803TIP3   OH211414   3.576   0.855   2.476
 3803TIP3    H111415   3.569   0.855   2.572
 3803TIP3    H211416   3.558   0.946   2.451
 3804TIP3   OH211417   6.379   4.926   4.040
 3804TIP3    H111418   6.300   4.915   4.094
 3804TIP3    H211419   6.360   5.004   3.988
 3805TIP3   OH211420   1.649   4.585   2.025
 3805TIP3    H111421   1.698   4.651   1.976
 3805TIP3    H211422   1.665   4.608   2.117
 3806TIP3   OH211423   2.714   5.152   4.858
 3806TIP3    H111424   2.658   5.217   4.815
 3806TIP3    H211425   2.676   5.142   4.945
 3807TIP3   OH211426   2.805   5.039   1.447
 3807TIP3    H111427   2.894   5.073   1.452
 3807TIP3    H211428   2.762   5.075   1.525
 3808TIP3   OH211429   6.334   5.244   4.758
 3808TIP3    H111430   6.419   5.216   4.724
 3808TIP3    H211431   6.274   5.235   4.683
 3809TIP3   OH211432   3.563   4.155   3.535
 3809TIP3    H111433   3.654   4.140   3.562
 3809TIP3    H211434   3.511   4.105   3.597
 3810TIP3   OH211435   4.812   2.299   4.062
 3810TIP3    H111436   4.844   2.236   3.998
 3810TIP3    H211437   4.838   2.384   4.028
 3811TIP3   OH211438   2.362   2.627   0.823
 3811TIP3    H111439   2.278   2.665   0.850
 3811TIP3    H211440   2.337   2.551   0.770
 3812TIP3   OH211441   2.685   0.011   0.793
 3812TIP3    H111442   2.599   0.031   0.755
 3812TIP3    H211443   2.665  -0.020   0.882
 3813TIP3   OH211444   5.418   2.778   0.846
 3813TIP3    H111445   5.419   2.684   0.832
 3813TIP3    H211446   5.464   2.814   0.770
 3814TIP3   OH211447   0.381   1.797   3.045
 3814TIP3    H111448   0.403   1.709   3.076
 3814TIP3    H211449   0.286   1.794   3.031
 3815TIP3   OH211450   4.765   0.904   0.396
 3815TIP3    H111451   4.738   0.838   0.460
 3815TIP3    H211452   4.801   0.853   0.323
 3816TIP3   OH211453   0.845   4.180   3.964
 3816TIP3    H111454   0.853   4.167   4.059
 3816TIP3    H211455   0.811   4.268   3.955
 3817TIP3   OH211456   0.627   2.034   2.105
 3817TIP3    H111457   0.655   2.122   2.132
 3817TIP3    H211458   0.640   1.980   2.183
 3818TIP3   OH211459   5.223   4.195   4.499
 3818TIP3    H111460   5.230   4.273   4.554
 3818TIP3    H211461   5.232   4.122   4.560
 3819TIP3   OH211462   5.747   5.779   4.335
 3819TIP3    H111463   5.662   5.774   4.380
 3819TIP3    H211464   5.735   5.847   4.268
 3820TIP3   OH211465   2.591   1.286   0.847
 3820TIP3    H111466   2.593   1.379   0.869
 3820TIP3    H211467   2.641   1.280   0.765
 3821TIP3   OH211468   0.554   4.057   0.497
 3821TIP3    H111469   0.628   4.057   0.558
 3821TIP3    H211470   0.478   4.037   0.552
 3822TIP3   OH211471   6.016   2.919   0.351
 3822TIP3    H111472   6.063   3.000   0.372
 3822TIP3    H211473   6.075   2.872   0.292
 3823TIP3   OH211474   5.093   0.729   2.573
 3823TIP3    H111475   5.060   0.718   2.483
 3823TIP3    H211476   5.130   0.817   2.574
 3824TIP3   OH211477   0.181   5.132   1.233
 3824TIP3    H111478   0.091   5.166   1.234
 3824TIP3    H211479   0.208   5.134   1.325
 3825TIP3   OH211480   3.143   3.828   2.806
 3825TIP3    H111481   3.075   3.842   2.740
 3825TIP3    H211482   3.168   3.737   2.796
 3826TIP3   OH211483   2.576   4.475   2.148
 3826TIP3    H111484   2.500   4.418   2.138
 3826TIP3    H211485   2.651   4.416   2.144
 3827TIP3   OH211486   1.653   3.955   3.429
 3827TIP3    H111487   1.605   3.874   3.415
 3827TIP3    H211488   1.720   3.933   3.494
 3828TIP3   OH211489   3.838   1.283   0.597
 3828TIP3    H111490   3.885   1.271   0.514
 3828TIP3    H211491   3.902   1.326   0.654
 3829TIP3   OH211492   3.012   2.148   2.808
 3829TIP3    H111493   3.049   2.118   2.891
 3829TIP3    H211494   3.057   2.231   2.791
 3830TIP3   OH211495   3.546   2.771   4.412
 3830TIP3    H111496   3.498   2.783   4.493
 3830TIP3    H211497   3.637   2.755   4.439
 3831TIP3   OH211498   4.914   2.338   3.416
 3831TIP3    H111499   4.899   2.423   3.374
 3831TIP3    H211500   4.835   2.324   3.469
 3832TIP3   OH211501   0.048   0.562   1.420
 3832TIP3    H111502   0.133   0.587   1.455
 3832TIP3    H211503  -0.004   0.642   1.422
 3833TIP3   OH211504   1.090   1.398   1.481
 3833TIP3    H111505   1.018   1.342   1.451
 3833TIP3    H211506   1.090   1.388   1.577
 3834TIP3   OH211507   2.681   5.636   0.429
 3834TIP3    H111508   2.769   5.615   0.460
 3834TIP3    H211509   2.651   5.556   0.385
 3835TIP3   OH211510   2.708   0.520   3.191
 3835TIP3    H111511   2.747   0.578   3.126
 3835TIP3    H211512   2.729   0.432   3.160
 3836TIP3   OH211513   0.181   1.268   2.007
 3836TIP3    H111514   0.219   1.216   1.935
 3836TIP3    H211515   0.091   1.286   1.978
 3837TIP3   OH211516   0.005   1.357   2.466
 3837TIP3    H111517   0.051   1.332   2.386
 3837TIP3    H211518   0.016   1.282   2.525
 3838TIP3   OH211519   4.708   3.714   0.806
 3838TIP3    H111520   4.734   3.740   0.718
 3838TIP3    H211521   4.736   3.788   0.861
 3839TIP3   OH211522   1.667   4.177   4.990
 3839TIP3    H111523   1.723   4.254   4.982
 3839TIP3    H211524   1.585   4.211   5.025
 3840TIP3   OH211525   5.448   4.219   0.096
 3840TIP3    H111526   5.516   4.195   0.033
 3840TIP3    H211527   5.376   4.159   0.077
 3841TIP3   OH211528   5.461   4.688   1.680
 3841TIP3    H111529   5.553   4.663   1.677
 3841TIP3    H211530   5.441   4.696   1.774
 3842TIP3   OH211531   5.016   3.741   3.780
 3842TIP3    H111532   5.063   3.661   3.757
 3842TIP3    H211533   5.033   3.802   3.708
 3843TIP3   OH211534   2.173   5.622   2.500
 3843TIP3    H111535   2.101   5.672   2.460
 3843TIP3    H211536   2.208   5.680   2.567
 3844TIP3   OH211537   2.885   0.327   2.466
 3844TIP3    H111538   2.838   0.399   2.509
 3844TIP3    H211539   2.950   0.371   2.411
 3845TIP3   OH211540   0.878   0.323   1.818
 3845TIP3    H111541   0.875   0.290   1.908
 3845TIP3    H211542   0.971   0.321   1.796
 3846TIP3   OH211543   1.930   5.395   2.509
 3846TIP3    H111544   1.892   5.423   2.593
 3846TIP3    H211545   1.994   5.463   2.489
 3847TIP3   OH211546   5.069   0.008   3.234
 3847TIP3    H111547   5.106  -0.026   3.153
 3847TIP3    H211548   5.013   0.082   3.207
 3848TIP3   OH211549   6.117   4.039   4.834
 3848TIP3    H111550   6.087   4.111   4.777
 3848TIP3    H211551   6.056   3.967   4.816
 3849TIP3   OH211552   2.757   1.290   1.693
 3849TIP3    H111553   2.721   1.203   1.677
 3849TIP3    H211554   2.845   1.287   1.654
 3850TIP3   OH211555   2.257   2.977   2.449
 3850TIP3    H111556   2.348   2.946   2.449
 3850TIP3    H211557   2.244   3.013   2.361
 3851TIP3   OH211558   0.134   3.494   0.898
 3851TIP3    H111559   0.134   3.589   0.900
 3851TIP3    H211560   0.042   3.469   0.888
 3852TIP3   OH211561   0.251   3.550   0.383
 3852TIP3    H111562   0.222   3.637   0.356
 3852TIP3    H211563   0.323   3.529   0.323
 3853TIP3   OH211564   0.785   1.405   1.602
 3853TIP3    H111565   0.844   1.397   1.677
 3853TIP3    H211566   0.826   1.352   1.534
 3854TIP3   OH211567   1.654   1.695   3.650
 3854TIP3    H111568   1.564   1.714   3.676
 3854TIP3    H211569   1.683   1.773   3.604
 3855TIP3   OH211570   0.645   5.330   3.782
 3855TIP3    H111571   0.660   5.324   3.876
 3855TIP3    H211572   0.683   5.250   3.746
 3856TIP3   OH211573   3.738   2.627   2.812
 3856TIP3    H111574   3.763   2.679   2.889
 3856TIP3    H211575   3.758   2.537   2.836
 3857TIP3   OH211576   2.729   1.276   4.968
 3857TIP3    H111577   2.679   1.197   4.989
 3857TIP3    H211578   2.712   1.292   4.875
 3858TIP3   OH211579   4.903   1.065   5.034
 3858TIP3    H111580   4.881   1.121   4.959
 3858TIP3    H211581   4.999   1.065   5.037
 3859TIP3   OH211582   5.214   0.747   0.867
 3859TIP3    H111583   5.156   0.681   0.904
 3859TIP3    H211584   5.163   0.828   0.868
 3860TIP3   OH211585   3.202   1.806   1.307
 3860TIP3    H111586   3.251   1.811   1.389
 3860TIP3    H211587   3.237   1.729   1.263
 3861TIP3   OH211588   3.108   4.319   3.607
 3861TIP3    H111589   3.197   4.351   3.617
 3861TIP3    H211590   3.081   4.293   3.695
 3862TIP3   OH211591   0.508   1.904   2.414
 3862TIP3    H111592   0.533   1.963   2.485
 3862TIP3    H211593   0.590   1.882   2.371
 3863TIP3   OH211594   4.859   0.687   2.696
 3863TIP3    H111595   4.950   0.681   2.667
 3863TIP3    H211596   4.831   0.597   2.708
 3864TIP3   OH211597   2.620   2.447   4.042
 3864TIP3    H111598   2.541   2.488   4.078
 3864TIP3    H211599   2.620   2.472   3.949
 3865TIP3   OH211600   1.901   0.746   0.540
 3865TIP3    H111601   1.849   0.812   0.587
 3865TIP3    H211602   1.836   0.697   0.489
 3866TIP3   OH211603   2.579   0.143   1.848
 3866TIP3    H111604   2.540   0.062   1.814
 3866TIP3    H211605   2.655   0.113   1.898
 3867TIP3   OH211606   1.388   4.789   0.851
 3867TIP3    H111607   1.309   4.830   0.817
 3867TIP3    H211608   1.457   4.814   0.789
 3868TIP3   OH211609   2.110   1.584   3.772
 3868TIP3    H111610   2.019   1.556   3.781
 3868TIP3    H211611   2.149   1.569   3.858
 3869TIP3   OH211612   4.091   2.068   0.735
 3869TIP3    H111613   4.116   1.984   0.773
 3869TIP3    H211614   4.000   2.057   0.709
 3870TIP3   OH211615   2.088   3.801   5.009
 3870TIP3    H111616   2.040   3.823   5.088
 3870TIP3    H211617   2.064   3.868   4.945
 3871TIP3   OH211618   2.160   2.363   4.369
 3871TIP3    H111619   2.151   2.296   4.302
 3871TIP3    H211620   2.191   2.316   4.446
 3872TIP3   OH211621   1.104   3.208   0.688
 3872TIP3    H111622   1.023   3.179   0.646
 3872TIP3    H211623   1.088   3.197   0.782
 3873TIP3   OH211624   0.629   2.244   2.396
 3873TIP3    H111625   0.722   2.266   2.392
 3873TIP3    H211626   0.623   2.171   2.457
 3874TIP3   OH211627   1.252   0.963   3.239
 3874TIP3    H111628   1.279   1.055   3.242
 3874TIP3    H211629   1.315   0.922   3.181
 3875TIP3   OH211630   1.288   4.108   1.092
 3875TIP3    H111631   1.296   4.013   1.097
 3875TIP3    H211632   1.202   4.127   1.129
 3876TIP3   OH211633   0.332   3.861   2.708
 3876TIP3    H111634   0.309   3.865   2.800
 3876TIP3    H211635   0.340   3.953   2.681
 3877TIP3   OH211636   3.956   5.393   3.192
 3877TIP3    H111637   3.961   5.461   3.124
 3877TIP3    H211638   3.949   5.442   3.274
 3878TIP3   OH211639   5.595   2.343   2.281
 3878TIP3    H111640   5.628   2.408   2.344
 3878TIP3    H211641   5.588   2.262   2.332
 3879TIP3   OH211642   4.222   3.665   2.962
 3879TIP3    H111643   4.199   3.722   3.035
 3879TIP3    H211644   4.181   3.581   2.984
 3880TIP3   OH211645   3.105   2.326   1.946
 3880TIP3    H111646   3.040   2.387   1.981
 3880TIP3    H211647   3.114   2.260   2.015
 3881TIP3   OH211648   6.144   0.499   0.337
 3881TIP3    H111649   6.193   0.569   0.294
 3881TIP3    H211650   6.177   0.499   0.427
 3882TIP3   OH211651   3.217   4.787   0.942
 3882TIP3    H111652   3.202   4.880   0.922
 3882TIP3    H211653   3.307   4.771   0.914
 3883TIP3   OH211654   5.949   5.876   0.774
 3883TIP3    H111655   5.930   5.949   0.832
 3883TIP3    H211656   6.044   5.867   0.776
 3884TIP3   OH211657   2.539   0.035   2.732
 3884TIP3    H111658   2.534   0.081   2.816
 3884TIP3    H211659   2.569   0.101   2.670
 3885TIP3   OH211660   4.381   2.333   3.879
 3885TIP3    H111661   4.314   2.385   3.924
 3885TIP3    H211662   4.427   2.287   3.950
 3886TIP3   OH211663   1.305   3.448   2.852
 3886TIP3    H111664   1.332   3.517   2.912
 3886TIP3    H211665   1.347   3.470   2.769
 3887TIP3   OH211666   3.222   1.570   4.457
 3887TIP3    H111667   3.265   1.615   4.385
 3887TIP3    H211668   3.139   1.540   4.420
 3888TIP3   OH211669   3.323   1.119   1.541
 3888TIP3    H111670   3.307   1.106   1.448
 3888TIP3    H211671   3.418   1.111   1.550
 3889TIP3   OH211672   4.527   2.532   0.802
 3889TIP3    H111673   4.489   2.604   0.751
 3889TIP3    H211674   4.594   2.495   0.745
 3890TIP3   OH211675   2.093   4.935   5.072
 3890TIP3    H111676   2.115   4.956   4.981
 3890TIP3    H211677   2.032   5.003   5.099
 3891TIP3   OH211678   2.712   0.463   2.162
 3891TIP3    H111679   2.780   0.521   2.196
 3891TIP3    H211680   2.754   0.377   2.155
 3892TIP3   OH211681   5.143   2.635   2.244
 3892TIP3    H111682   5.220   2.654   2.298
 3892TIP3    H211683   5.088   2.713   2.251
 3893TIP3   OH211684   4.477   3.541   2.319
 3893TIP3    H111685   4.416   3.480   2.361
 3893TIP3    H211686   4.431   3.569   2.240
 3894TIP3   OH211687   2.084   3.108   4.558
 3894TIP3    H111688   1.995   3.103   4.594
 3894TIP3    H211689   2.072   3.100   4.464
 3895TIP3   OH211690   0.178   2.446   1.723
 3895TIP3    H111691   0.177   2.529   1.675
 3895TIP3    H211692   0.191   2.471   1.815
 3896TIP3   OH211693   4.628   3.781   2.663
 3896TIP3    H111694   4.678   3.748   2.588
 3896TIP3    H211695   4.674   3.860   2.690
 3897TIP3   OH211696   3.979   5.079   4.184
 3897TIP3    H111697   3.895   5.124   4.174
 3897TIP3    H211698   3.981   5.051   4.275
 3898TIP3   OH211699   3.305   0.359   4.005
 3898TIP3    H111700   3.350   0.439   3.982
 3898TIP3    H211701   3.329   0.343   4.096
 3899TIP3   OH211702   1.212   5.300   5.114
 3899TIP3    H111703   1.250   5.242   5.048
 3899TIP3    H211704   1.255   5.274   5.195
 3900TIP3   OH211705   0.169   2.796   2.061
 3900TIP3    H111706   0.220   2.838   2.130
 3900TIP3    H211707   0.078   2.816   2.084
 3901TIP3   OH211708   2.976   2.934   0.131
 3901TIP3    H111709   2.958   2.880   0.054
 3901TIP3    H211710   2.936   3.018   0.112
 3902TIP3   OH211711   0.515   4.771   3.058
 3902TIP3    H111712   0.573   4.836   3.098
 3902TIP3    H211713   0.574   4.711   3.012
 3903TIP3   OH211714   6.298   2.828   1.824
 3903TIP3    H111715   6.266   2.809   1.913
 3903TIP3    H211716   6.316   2.921   1.825
 3904TIP3   OH211717   3.949   3.841   4.982
 3904TIP3    H111718   3.945   3.934   4.958
 3904TIP3    H211719   3.942   3.794   4.898
 3905TIP3   OH211720   2.074   4.152   0.612
 3905TIP3    H111721   2.039   4.128   0.698
 3905TIP3    H211722   2.089   4.246   0.618
 3906TIP3   OH211723   4.772   0.434   2.728
 3906TIP3    H111724   4.735   0.384   2.801
 3906TIP3    H211725   4.854   0.389   2.707
 3907TIP3   OH211726   5.684   3.162   1.602
 3907TIP3    H111727   5.614   3.133   1.661
 3907TIP3    H211728   5.708   3.083   1.553
 3908TIP3   OH211729   5.798   4.936   3.078
 3908TIP3    H111730   5.770   4.963   2.991
 3908TIP3    H211731   5.730   4.875   3.107
 3909TIP3   OH211732   3.531   1.813   1.333
 3909TIP3    H111733   3.474   1.749   1.290
 3909TIP3    H211734   3.483   1.838   1.411
 3910TIP3   OH211735   3.955   1.316   4.402
 3910TIP3    H111736   4.005   1.380   4.453
 3910TIP3    H211737   3.933   1.362   4.321
 3911TIP3   OH211738   2.571   0.177   1.391
 3911TIP3    H111739   2.530   0.190   1.476
 3911TIP3    H211740   2.650   0.127   1.410
 3912TIP3   OH211741   1.474   5.827   4.463
 3912TIP3    H111742   1.450   5.840   4.555
 3912TIP3    H211743   1.394   5.792   4.423
 3913TIP3   OH211744   2.619   0.652   1.013
 3913TIP3    H111745   2.551   0.695   1.064
 3913TIP3    H211746   2.684   0.625   1.079
 3914TIP3   OH211747   2.881   5.510   2.227
 3914TIP3    H111748   2.902   5.463   2.146
 3914TIP3    H211749   2.953   5.572   2.238
 3915TIP3   OH211750   1.722   5.646   2.583
 3915TIP3    H111751   1.646   5.644   2.641
 3915TIP3    H211752   1.716   5.730   2.538
 3916TIP3   OH211753   3.494   2.345   1.206
 3916TIP3    H111754   3.440   2.278   1.248
 3916TIP3    H211755   3.457   2.428   1.236
 3917TIP3   OH211756   0.345   2.799   2.293
 3917TIP3    H111757   0.264   2.747   2.298
 3917TIP3    H211758   0.403   2.759   2.358
 3918TIP3   OH211759   0.710   5.703   0.616
 3918TIP3    H111760   0.619   5.727   0.598
 3918TIP3    H211761   0.759   5.785   0.609
 3919TIP3   OH211762   1.774   3.346   3.257
 3919TIP3    H111763   1.778   3.441   3.269
 3919TIP3    H211764   1.734   3.334   3.171
 3920TIP3   OH211765   5.533   0.566   2.088
 3920TIP3    H111766   5.463   0.631   2.078
 3920TIP3    H211767   5.532   0.544   2.182
 3921TIP3   OH211768   2.786   1.807   0.790
 3921TIP3    H111769   2.746   1.724   0.765
 3921TIP3    H211770   2.717   1.872   0.779
 3922TIP3   OH211771   4.052   0.246   1.740
 3922TIP3    H111772   4.106   0.178   1.700
 3922TIP3    H211773   4.080   0.327   1.696
 3923TIP3   OH211774   2.938   0.572   1.765
 3923TIP3    H111775   2.851   0.591   1.730
 3923TIP3    H211776   2.930   0.485   1.804
 3924TIP3   OH211777   4.793   5.049   2.620
 3924TIP3    H111778   4.736   5.063   2.544
 3924TIP3    H211779   4.737   5.004   2.684
 3925TIP3   OH211780   2.834   2.179   3.252
 3925TIP3    H111781   2.769   2.205   3.317
 3925TIP3    H211782   2.849   2.086   3.269
 3926TIP3   OH211783   6.221   2.870   0.179
 3926TIP3    H111784   6.221   2.779   0.150
 3926TIP3    H211785   6.294   2.911   0.131
 3927TIP3   OH211786   6.289   3.420   2.165
 3927TIP3    H111787   6.239   3.471   2.228
 3927TIP3    H211788   6.346   3.484   2.122
 3928TIP3   OH211789   2.816   0.208   4.782
 3928TIP3    H111790   2.785   0.191   4.693
 3928TIP3    H211791   2.838   0.121   4.817
 3929TIP3   OH211792   0.114   0.773   0.662
 3929TIP3    H111793   0.075   0.686   0.672
 3929TIP3    H211794   0.207   0.757   0.655
 3930TIP3   OH211795   0.568   1.128   5.000
 3930TIP3    H111796   0.655   1.104   4.967
 3930TIP3    H211797   0.515   1.050   4.986
 3931TIP3   OH211798   3.392   1.601   1.229
 3931TIP3    H111799   3.391   1.540   1.155
 3931TIP3    H211800   3.334   1.562   1.294
 3932TIP3   OH211801   4.069   5.629   2.933
 3932TIP3    H111802   4.119   5.653   2.855
 3932TIP3    H211803   4.010   5.560   2.904
 3933TIP3   OH211804   1.978   3.264   0.228
 3933TIP3    H111805   1.929   3.303   0.156
 3933TIP3    H211806   2.033   3.335   0.261
 3934TIP3   OH211807   0.992   2.794   2.552
 3934TIP3    H111808   1.044   2.732   2.604
 3934TIP3    H211809   0.943   2.844   2.617
 3935TIP3   OH211810   1.308   2.416   0.157
 3935TIP3    H111811   1.234   2.447   0.209
 3935TIP3    H211812   1.344   2.495   0.117
 3936TIP3   OH211813   0.354   1.052   2.328
 3936TIP3    H111814   0.378   1.132   2.374
 3936TIP3    H211815   0.366   0.982   2.392
 3937TIP3   OH211816   4.546   0.291   3.875
 3937TIP3    H111817   4.583   0.256   3.956
 3937TIP3    H211818   4.481   0.226   3.849
 3938TIP3   OH211819   4.568   4.820   3.475
 3938TIP3    H111820   4.566   4.853   3.565
 3938TIP3    H211821   4.481   4.840   3.441
 3939TIP3   OH211822   0.264   1.194   4.079
 3939TIP3    H111823   0.225   1.223   4.162
 3939TIP3    H211824   0.356   1.221   4.085
 3940TIP3   OH211825   4.007   1.167   5.116
 3940TIP3    H111826   4.087   1.209   5.085
 3940TIP3    H211827   3.942   1.187   5.048
 3941TIP3   OH211828   6.180   2.810   1.313
 3941TIP3    H111829   6.198   2.873   1.383
 3941TIP3    H211830   6.261   2.806   1.263
 3942TIP3   OH211831   2.123   3.025   2.153
 3942TIP3    H111832   2.192   3.010   2.088
 3942TIP3    H211833   2.042   3.030   2.101
 3943TIP3   OH211834   4.751   1.921   1.742
 3943TIP3    H111835   4.705   1.936   1.825
 3943TIP3    H211836   4.684   1.935   1.675
 3944TIP3   OH211837   0.572   5.952   3.700
 3944TIP3    H111838   0.651   6.001   3.676
 3944TIP3    H211839   0.572   5.876   3.642
 3945TIP3   OH211840   0.452   0.708   4.969
 3945TIP3    H111841   0.379   0.686   5.027
 3945TIP3    H211842   0.430   0.666   4.885
 3946TIP3   OH211843   5.551   0.124   3.535
 3946TIP3    H111844   5.559   0.187   3.464
 3946TIP3    H211845   5.477   0.069   3.511
 3947TIP3   OH211846   4.099   4.956   0.027
 3947TIP3    H111847   4.048   4.936   0.106
 3947TIP3    H211848   4.080   4.884  -0.032
 3948TIP3   OH211849   0.331   2.921   2.908
 3948TIP3    H111850   0.251   2.891   2.865
 3948TIP3    H211851   0.377   2.971   2.840
 3949TIP3   OH211852   1.024   5.675   1.374
 3949TIP3    H111853   0.969   5.633   1.441
 3949TIP3    H211854   0.976   5.755   1.351
 3950TIP3   OH211855   4.416   1.941   0.120
 3950TIP3    H111856   4.468   1.877   0.169
 3950TIP3    H211857   4.477   2.012   0.101
 3951TIP3   OH211858   2.176   4.395   4.037
 3951TIP3    H111859   2.222   4.316   4.011
 3951TIP3    H211860   2.196   4.406   4.130
 3952TIP3   OH211861   0.196   2.944   4.381
 3952TIP3    H111862   0.168   2.884   4.451
 3952TIP3    H211863   0.119   2.998   4.365
 3953TIP3   OH211864   1.973   1.725   5.056
 3953TIP3    H111865   1.971   1.661   4.985
 3953TIP3    H211866   1.895   1.705   5.108
 3954TIP3   OH211867   1.405   0.402   3.824
 3954TIP3    H111868   1.388   0.371   3.735
 3954TIP3    H211869   1.464   0.476   3.812
 3955TIP3   OH211870   2.867   5.309   3.470
 3955TIP3    H111871   2.960   5.293   3.483
 3955TIP3    H211872   2.862   5.359   3.389
 3956TIP3   OH211873   5.691   4.440   4.802
 3956TIP3    H111874   5.722   4.474   4.717
 3956TIP3    H211875   5.651   4.516   4.844
 3957TIP3   OH211876   2.513   5.318   2.610
 3957TIP3    H111877   2.604   5.295   2.590
 3957TIP3    H211878   2.493   5.266   2.688
 3958TIP3   OH211879   2.272   2.111   1.175
 3958TIP3    H111880   2.274   2.184   1.237
 3958TIP3    H211881   2.361   2.074   1.180
 3959TIP3   OH211882   3.131   1.794   3.453
 3959TIP3    H111883   3.085   1.836   3.526
 3959TIP3    H211884   3.115   1.700   3.465
 3960TIP3   OH211885   4.302   3.765   4.843
 3960TIP3    H111886   4.323   3.678   4.808
 3960TIP3    H211887   4.243   3.748   4.916
 3961TIP3   OH211888   3.076   5.073   1.449
 3961TIP3    H111889   3.125   5.139   1.498
 3961TIP3    H211890   3.127   5.060   1.369
 3962TIP3   OH211891   3.822   2.105   0.390
 3962TIP3    H111892   3.815   2.118   0.485
 3962TIP3    H211893   3.913   2.125   0.369
 3963TIP3   OH211894   0.292   1.632   4.488
 3963TIP3    H111895   0.304   1.664   4.578
 3963TIP3    H211896   0.207   1.588   4.490
 3964TIP3   OH211897   3.913   4.285   1.700
 3964TIP3    H111898   3.830   4.332   1.701
 3964TIP3    H211899   3.916   4.244   1.614
 3965TIP3   OH211900   5.896   2.958   0.955
 3965TIP3    H111901   5.861   2.876   0.922
 3965TIP3    H211902   5.828   3.023   0.935
 3966TIP3   OH211903   5.451   2.316   4.200
 3966TIP3    H111904   5.472   2.233   4.156
 3966TIP3    H211905   5.480   2.383   4.139
 3967TIP3   OH211906   3.875   2.736   3.721
 3967TIP3    H111907   3.914   2.702   3.641
 3967TIP3    H211908   3.823   2.811   3.693
 3968TIP3   OH211909   4.647   2.704   0.037
 3968TIP3    H111910   4.553   2.706   0.019
 3968TIP3    H211911   4.654   2.699   0.132
 3969TIP3   OH211912   5.681   3.893   3.672
 3969TIP3    H111913   5.616   3.949   3.714
 3969TIP3    H211914   5.732   3.952   3.616
 3970TIP3   OH211915   1.370   3.835   3.420
 3970TIP3    H111916   1.364   3.914   3.474
 3970TIP3    H211917   1.279   3.807   3.408
 3971TIP3   OH211918   4.271   0.266   0.358
 3971TIP3    H111919   4.209   0.292   0.290
 3971TIP3    H211920   4.253   0.325   0.431
 3972TIP3   OH211921   4.509   0.003   4.361
 3972TIP3    H111922   4.531   0.089   4.327
 3972TIP3    H211923   4.531   0.006   4.454
 3973TIP3   OH211924   3.818   0.962   2.642
 3973TIP3    H111925   3.875   1.013   2.586
 3973TIP3    H211926   3.845   0.871   2.627
 3974TIP3   OH211927   2.248   5.724   4.365
 3974TIP3    H111928   2.292   5.774   4.434
 3974TIP3    H211929   2.169   5.690   4.407
 3975TIP3   OH211930   3.578   4.868   4.671
 3975TIP3    H111931   3.613   4.897   4.587
 3975TIP3    H211932   3.526   4.791   4.650
 3976TIP3   OH211933   1.162   2.597   3.084
 3976TIP3    H111934   1.141   2.516   3.038
 3976TIP3    H211935   1.207   2.568   3.164
 3977TIP3   OH211936   1.485   1.900   0.036
 3977TIP3    H111937   1.564   1.863  -0.002
 3977TIP3    H211938   1.503   1.904   0.130
 3978TIP3   OH211939   0.089   4.606   0.333
 3978TIP3    H111940   0.170   4.561   0.355
 3978TIP3    H211941   0.108   4.699   0.348
 3979TIP3   OH211942   3.861   1.437   2.488
 3979TIP3    H111943   3.871   1.475   2.575
 3979TIP3    H211944   3.859   1.513   2.429
 3980TIP3   OH211945   3.047   3.863   3.360
 3980TIP3    H111946   3.104   3.810   3.417
 3980TIP3    H211947   3.099   3.941   3.340
 3981TIP3   OH211948   0.791   3.322   5.096
 3981TIP3    H111949   0.788   3.416   5.078
 3981TIP3    H211950   0.798   3.281   5.010
 3982TIP3   OH211951   4.604   3.396   3.701
 3982TIP3    H111952   4.618   3.330   3.634
 3982TIP3    H211953   4.667   3.465   3.680
 3983TIP3   OH211954   3.464   5.939   2.938
 3983TIP3    H111955   3.545   5.897   2.966
 3983TIP3    H211956   3.432   5.985   3.016
 3984TIP3   OH211957   4.566   1.707   0.220
 3984TIP3    H111958   4.648   1.675   0.258
 3984TIP3    H211959   4.541   1.638   0.158
 3985TIP3   OH211960   3.519   5.436   2.536
 3985TIP3    H111961   3.452   5.479   2.589
 3985TIP3    H211962   3.534   5.496   2.464
 3986TIP3   OH211963   3.409   0.403   3.686
 3986TIP3    H111964   3.319   0.394   3.717
 3986TIP3    H211965   3.432   0.494   3.708
 3987TIP3   OH211966   1.075   4.340   3.899
 3987TIP3    H111967   1.060   4.398   3.973
 3987TIP3    H211968   0.996   4.286   3.894
 3988TIP3   OH211969   3.502   0.612   0.795
 3988TIP3    H111970   3.547   0.643   0.873
 3988TIP3    H211971   3.570   0.569   0.743
 3989TIP3   OH211972   5.034   0.831   1.472
 3989TIP3    H111973   4.974   0.809   1.401
 3989TIP3    H211974   5.032   0.927   1.477
 3990TIP3   OH211975   5.186   2.642   1.450
 3990TIP3    H111976   5.104   2.599   1.427
 3990TIP3    H211977   5.241   2.572   1.485
 3991TIP3   OH211978   5.583   1.575   0.340
 3991TIP3    H111979   5.634   1.511   0.390
 3991TIP3    H211980   5.588   1.655   0.392
 3992TIP3   OH211981   0.909   5.924   3.481
 3992TIP3    H111982   0.872   5.904   3.395
 3992TIP3    H211983   0.940   5.839   3.514
 3993TIP3   OH211984   0.896   4.755   3.461
 3993TIP3    H111985   0.985   4.771   3.432
 3993TIP3    H211986   0.855   4.707   3.389
 3994TIP3   OH211987   5.812   4.980   1.710
 3994TIP3    H111988   5.803   5.055   1.769
 3994TIP3    H211989   5.744   4.992   1.645
 3995TIP3   OH211990   2.195   3.061   0.257
 3995TIP3    H111991   2.108   3.090   0.285
 3995TIP3    H211992   2.248   3.065   0.337
 3996TIP3   OH211993   5.733   5.452   0.415
 3996TIP3    H111994   5.759   5.378   0.360
 3996TIP3    H211995   5.668   5.499   0.362
 3997TIP3   OH211996   6.198   3.551   3.510
 3997TIP3    H111997   6.131   3.491   3.475
 3997TIP3    H211998   6.207   3.525   3.602
 3998TIP3   OH211999   3.437   5.098   4.779
 3998TIP3    H112000   3.388   5.145   4.713
 3998TIP3    H212001   3.452   5.011   4.741
 3999TIP3   OH212002   2.161   5.567   3.762
 3999TIP3    H112003   2.127   5.518   3.837
 3999TIP3    H212004   2.187   5.652   3.799
 4000TIP3   OH212005   5.249   3.949   1.214
 4000TIP3    H112006   5.265   3.899   1.294
 4000TIP3    H212007   5.254   4.041   1.243
 4001TIP3   OH212008   0.047   3.668   4.965
 4001TIP3    H112009   0.113   3.672   5.034
 4001TIP3    H212010   0.043   3.757   4.930
 4002TIP3   OH212011   3.352   1.329   3.256
 4002TIP3    H112012   3.346   1.367   3.168
 4002TIP3    H212013   3.435   1.281   3.257
 4003TIP3   OH212014   2.937   0.816   3.520
 4003TIP3    H112015   2.974   0.730   3.537
 4003TIP3    H212016   3.009   0.877   3.536
 4004TIP3   OH212017   3.579   3.868   5.070
 4004TIP3    H112018   3.512   3.926   5.107
 4004TIP3    H212019   3.570   3.786   5.120
 4005TIP3   OH212020   4.524   5.560   1.357
 4005TIP3    H112021   4.551   5.634   1.302
 4005TIP3    H212022   4.484   5.601   1.434
 4006TIP3   OH212023   2.448   1.519   5.028
 4006TIP3    H112024   2.384   1.561   5.086
 4006TIP3    H212025   2.397   1.456   4.978
 4007TIP3   OH212026   6.147   4.427   0.097
 4007TIP3    H112027   6.075   4.395   0.043
 4007TIP3    H212028   6.223   4.424   0.040
 4008TIP3   OH212029   0.412   1.640   2.443
 4008TIP3    H112030   0.443   1.627   2.353
 4008TIP3    H212031   0.458   1.718   2.474
 4009TIP3   OH212032   6.039   5.274   4.887
 4009TIP3    H112033   6.076   5.347   4.937
 4009TIP3    H212034   6.033   5.307   4.797
 4010TIP3   OH212035   1.292   2.063   1.331
 4010TIP3    H112036   1.228   2.075   1.261
 4010TIP3    H212037   1.377   2.079   1.290
 4011TIP3   OH212038   6.016   3.543   4.280
 4011TIP3    H112039   6.009   3.557   4.186
 4011TIP3    H212040   6.068   3.462   4.288
 4012TIP3   OH212041   5.719   1.842   0.737
 4012TIP3    H112042   5.645   1.833   0.797
 4012TIP3    H212043   5.746   1.752   0.719
 4013TIP3   OH212044   0.028   2.140   1.286
 4013TIP3    H112045   0.057   2.231   1.282
 4013TIP3    H212046   0.104   2.088   1.259
 4014TIP3   OH212047   4.607   5.974   2.469
 4014TIP3    H112048   4.523   5.958   2.511
 4014TIP3    H212049   4.672   5.953   2.536
 4015TIP3   OH212050   5.272   5.448   1.657
 4015TIP3    H112051   5.248   5.357   1.640
 4015TIP3    H212052   5.200   5.499   1.622
 4016TIP3   OH212053   2.343   2.906   1.359
 4016TIP3    H112054   2.408   2.902   1.289
 4016TIP3    H212055   2.277   2.842   1.334
 4017TIP3   OH212056   1.131   3.631   3.404
 4017TIP3    H112057   1.063   3.641   3.337
 4017TIP3    H212058   1.082   3.611   3.484
 4018TIP3   OH212059   5.469   0.967   4.383
 4018TIP3    H112060   5.381   1.001   4.367
 4018TIP3    H212061   5.474   0.957   4.478
 4019TIP3   OH212062   3.901   2.354   2.109
 4019TIP3    H112063   3.936   2.379   2.024
 4019TIP3    H212064   3.968   2.380   2.172
 4020TIP3   OH212065   0.945   0.902   4.345
 4020TIP3    H112066   0.856   0.894   4.380
 4020TIP3    H212067   0.935   0.955   4.266
 4021TIP3   OH212068   4.173   1.399   2.314
 4021TIP3    H112069   4.107   1.379   2.247
 4021TIP3    H212070   4.223   1.472   2.278
 4022TIP3   OH212071   1.249   3.991   3.011
 4022TIP3    H112072   1.287   4.057   3.069
 4022TIP3    H212073   1.263   4.025   2.923
 4023TIP3   OH212074   5.315   5.115   4.211
 4023TIP3    H112075   5.328   5.025   4.180
 4023TIP3    H212076   5.303   5.106   4.306
 4024TIP3   OH212077   6.182   0.955   3.495
 4024TIP3    H112078   6.235   0.919   3.424
 4024TIP3    H212079   6.093   0.957   3.460
 4025TIP3   OH212080   6.304   4.877   1.767
 4025TIP3    H112081   6.232   4.940   1.770
 4025TIP3    H212082   6.264   4.793   1.792
 4026TIP3   OH212083   0.440   4.871   2.658
 4026TIP3    H112084   0.387   4.848   2.734
 4026TIP3    H212085   0.377   4.877   2.586
 4027TIP3   OH212086   1.268   1.763   2.000
 4027TIP3    H112087   1.339   1.709   2.035
 4027TIP3    H212088   1.251   1.827   2.069
 4028TIP3   OH212089   3.615   5.609   5.087
 4028TIP3    H112090   3.615   5.695   5.128
 4028TIP3    H212091   3.527   5.599   5.052
 4029TIP3   OH212092   5.625   1.928   2.619
 4029TIP3    H112093   5.601   1.836   2.613
 4029TIP3    H212094   5.626   1.959   2.529
 4030TIP3   OH212095   3.785   3.129   0.345
 4030TIP3    H112096   3.771   3.034   0.345
 4030TIP3    H212097   3.742   3.159   0.426
 4031TIP3   OH212098   0.688   0.268   2.221
 4031TIP3    H112099   0.658   0.230   2.139
 4031TIP3    H212100   0.611   0.310   2.259
 4032TIP3   OH212101   4.099   1.427   3.205
 4032TIP3    H112102   4.109   1.521   3.222
 4032TIP3    H212103   4.093   1.421   3.110
 4033TIP3   OH212104   4.562   3.120   0.541
 4033TIP3    H112105   4.494   3.115   0.609
 4033TIP3    H212106   4.643   3.136   0.590
 4034TIP3   OH212107   2.886   2.463   2.052
 4034TIP3    H112108   2.922   2.552   2.051
 4034TIP3    H212109   2.809   2.468   1.996
 4035TIP3   OH212110   4.771   0.410   0.637
 4035TIP3    H112111   4.712   0.376   0.704
 4035TIP3    H212112   4.729   0.386   0.554
 4036TIP3   OH212113   3.288   4.156   2.042
 4036TIP3    H112114   3.287   4.199   1.956
 4036TIP3    H212115   3.378   4.128   2.053
 4037TIP3   OH212116   0.879   4.916   4.203
 4037TIP3    H112117   0.850   4.869   4.125
 4037TIP3    H212118   0.799   4.939   4.249
 4038TIP3   OH212119   0.944   4.665   4.802
 4038TIP3    H112120   0.860   4.645   4.843
 4038TIP3    H212121   0.963   4.588   4.749
 4039TIP3   OH212122   4.466   2.566   1.418
 4039TIP3    H112123   4.440   2.656   1.397
 4039TIP3    H212124   4.418   2.512   1.356
 4040TIP3   OH212125   4.309   5.954   3.044
 4040TIP3    H112126   4.277   5.985   2.959
 4040TIP3    H212127   4.395   5.918   3.025
 4041TIP3   OH212128   1.940   4.822   0.146
 4041TIP3    H112129   1.856   4.776   0.154
 4041TIP3    H212130   1.962   4.815   0.053
 4042TIP3   OH212131   2.388   4.881   5.110
 4042TIP3    H112132   2.410   4.878   5.203
 4042TIP3    H212133   2.292   4.882   5.108
 4043TIP3   OH212134   2.721   1.030   4.003
 4043TIP3    H112135   2.780   1.102   3.983
 4043TIP3    H212136   2.696   0.995   3.918
 4044TIP3   OH212137   4.018   2.499   4.185
 4044TIP3    H112138   3.965   2.579   4.184
 4044TIP3    H212139   4.033   2.482   4.277
 4045TIP3   OH212140   4.843   4.419   1.354
 4045TIP3    H112141   4.804   4.371   1.427
 4045TIP3    H212142   4.898   4.355   1.309
 4046TIP3   OH212143   3.137   0.190   3.490
 4046TIP3    H112144   3.078   0.261   3.465
 4046TIP3    H212145   3.089   0.110   3.469
 4047TIP3   OH212146   2.278   0.581   1.288
 4047TIP3    H112147   2.335   0.525   1.235
 4047TIP3    H212148   2.196   0.532   1.295
 4048TIP3   OH212149   4.873   2.026   0.003
 4048TIP3    H112150   4.805   2.081   0.042
 4048TIP3    H212151   4.856   1.939   0.037
 4049TIP3   OH212152   2.741   4.460   1.351
 4049TIP3    H112153   2.725   4.552   1.331
 4049TIP3    H212154   2.720   4.452   1.444
 4050TIP3   OH212155   1.269   0.563   1.717
 4050TIP3    H112156   1.223   0.644   1.740
 4050TIP3    H212157   1.348   0.593   1.672
 4051TIP3   OH212158   3.113   5.457   5.150
 4051TIP3    H112159   3.177   5.385   5.150
 4051TIP3    H212160   3.107   5.484   5.241
 4052TIP3   OH212161   4.526   5.088   0.035
 4052TIP3    H112162   4.517   5.085  -0.061
 4052TIP3    H212163   4.439   5.113   0.066
 4053TIP3   OH212164   0.176   2.374   1.259
 4053TIP3    H112165   0.258   2.344   1.297
 4053TIP3    H212166   0.166   2.464   1.289
 4054TIP3   OH212167   2.721   5.169   0.529
 4054TIP3    H112168   2.686   5.229   0.463
 4054TIP3    H212169   2.812   5.195   0.539
 4055TIP3   OH212170   5.577   0.804   2.459
 4055TIP3    H112171   5.634   0.795   2.383
 4055TIP3    H212172   5.526   0.723   2.461
 4056TIP3   OH212173   2.235   0.379   0.003
 4056TIP3    H112174   2.258   0.356   0.093
 4056TIP3    H212175   2.222   0.295  -0.041
 4057TIP3   OH212176   0.632   4.566   4.469
 4057TIP3    H112177   0.552   4.539   4.424
 4057TIP3    H212178   0.674   4.485   4.495
 4058TIP3   OH212179   3.094   5.718   4.104
 4058TIP3    H112180   3.014   5.760   4.071
 4058TIP3    H212181   3.076   5.703   4.197
 4059TIP3   OH212182   6.061   4.712   1.996
 4059TIP3    H112183   6.036   4.769   1.923
 4059TIP3    H212184   5.988   4.721   2.058
 4060TIP3   OH212185   4.664   3.185   2.282
 4060TIP3    H112186   4.709   3.261   2.320
 4060TIP3    H212187   4.606   3.223   2.216
 4061TIP3   OH212188   5.744   2.411   0.823
 4061TIP3    H112189   5.712   2.341   0.765
 4061TIP3    H212190   5.816   2.451   0.774
 4062TIP3   OH212191   3.471   1.148   1.923
 4062TIP3    H112192   3.377   1.137   1.909
 4062TIP3    H212193   3.501   1.062   1.951
 4063TIP3   OH212194   4.581   5.754   3.959
 4063TIP3    H112195   4.535   5.811   4.021
 4063TIP3    H212196   4.594   5.809   3.881
 4064TIP3   OH212197   5.859   0.877   2.709
 4064TIP3    H112198   5.859   0.915   2.797
 4064TIP3    H212199   5.887   0.787   2.723
 4065TIP3   OH212200   3.891   5.117   2.426
 4065TIP3    H112201   3.797   5.121   2.439
 4065TIP3    H212202   3.909   5.025   2.406
 4066TIP3   OH212203   4.112   3.375   0.404
 4066TIP3    H112204   4.098   3.431   0.328
 4066TIP3    H212205   4.207   3.360   0.406
 4067TIP3   OH212206   3.480   4.237   3.880
 4067TIP3    H112207   3.420   4.187   3.935
 4067TIP3    H212208   3.547   4.271   3.940
 4068TIP3   OH212209   0.579   1.709   0.484
 4068TIP3    H112210   0.516   1.697   0.554
 4068TIP3    H212211   0.571   1.630   0.431
 4069TIP3   OH212212   2.048   1.679   2.025
 4069TIP3    H112213   2.105   1.663   2.100
 4069TIP3    H212214   1.972   1.724   2.063
 4070TIP3   OH212215   5.583   4.552   1.136
 4070TIP3    H112216   5.534   4.601   1.070
 4070TIP3    H212217   5.522   4.484   1.165
 4071TIP3   OH212218   5.229   5.490   3.868
 4071TIP3    H112219   5.263   5.416   3.918
 4071TIP3    H212220   5.184   5.544   3.932
 4072TIP3   OH212221   1.957   4.925   1.969
 4072TIP3    H112222   1.923   5.008   1.935
 4072TIP3    H212223   1.933   4.861   1.902
 4073TIP3   OH212224   2.323   3.650   5.004
 4073TIP3    H112225   2.357   3.667   4.916
 4073TIP3    H212226   2.243   3.702   5.009
 4074TIP3   OH212227   0.789   2.414   1.035
 4074TIP3    H112228   0.702   2.436   1.068
 4074TIP3    H212229   0.807   2.480   0.968
 4075TIP3   OH212230   0.564   5.793   0.278
 4075TIP3    H112231   0.502   5.865   0.288
 4075TIP3    H212232   0.518   5.717   0.313
 4076TIP3   OH212233   5.278   1.292   3.542
 4076TIP3    H112234   5.317   1.293   3.630
 4076TIP3    H212235   5.218   1.367   3.542
 4077TIP3   OH212236   2.101   5.028   1.116
 4077TIP3    H112237   2.061   5.083   1.183
 4077TIP3    H212238   2.060   5.055   1.034
 4078TIP3   OH212239   1.282   2.837   1.572
 4078TIP3    H112240   1.290   2.799   1.485
 4078TIP3    H212241   1.187   2.842   1.587
 4079TIP3   OH212242   5.958   0.944   4.831
 4079TIP3    H112243   5.989   0.868   4.879
 4079TIP3    H212244   5.947   1.012   4.897
 4080TIP3   OH212245   1.677   1.111   1.619
 4080TIP3    H112246   1.639   1.159   1.692
 4080TIP3    H212247   1.604   1.099   1.558
 4081TIP3   OH212248   1.567   5.152   2.596
 4081TIP3    H112249   1.595   5.231   2.551
 4081TIP3    H212250   1.642   5.092   2.588
 4082TIP3   OH212251   4.459   3.625   3.788
 4082TIP3    H112252   4.478   3.534   3.767
 4082TIP3    H212253   4.411   3.658   3.712
 4083TIP3   OH212254   6.220   3.145   2.503
 4083TIP3    H112255   6.245   3.061   2.465
 4083TIP3    H212256   6.290   3.165   2.566
 4084TIP3   OH212257   5.611   2.573   0.545
 4084TIP3    H112258   5.703   2.545   0.536
 4084TIP3    H212259   5.616   2.661   0.581
 4085TIP3   OH212260   0.830   3.614   1.417
 4085TIP3    H112261   0.762   3.676   1.440
 4085TIP3    H212262   0.784   3.542   1.374
 4086TIP3   OH212263   1.367   3.344   3.739
 4086TIP3    H112264   1.294   3.341   3.677
 4086TIP3    H212265   1.414   3.424   3.718
 4087TIP3   OH212266   4.283   1.807   4.557
 4087TIP3    H112267   4.239   1.852   4.630
 4087TIP3    H212268   4.212   1.760   4.512
 4088TIP3   OH212269   3.498   3.123   4.521
 4088TIP3    H112270   3.459   3.060   4.461
 4088TIP3    H212271   3.436   3.127   4.594
 4089TIP3   OH212272   5.789   0.036   1.186
 4089TIP3    H112273   5.713   0.061   1.135
 4089TIP3    H212274   5.862   0.081   1.144
 4090TIP3   OH212275   1.311   5.172   0.553
 4090TIP3    H112276   1.324   5.263   0.577
 4090TIP3    H212277   1.219   5.168   0.525
 4091TIP3   OH212278   1.915   5.881   0.384
 4091TIP3    H112279   1.925   5.954   0.324
 4091TIP3    H212280   1.923   5.919   0.471
 4092TIP3   OH212281   0.808   5.529   1.559
 4092TIP3    H112282   0.789   5.456   1.499
 4092TIP3    H212283   0.892   5.506   1.598
 4093TIP3   OH212284   5.032   0.101   0.850
 4093TIP3    H112285   5.038   0.174   0.789
 4093TIP3    H212286   5.031   0.142   0.936
 4094TIP3   OH212287   2.674   0.008   2.344
 4094TIP3    H112288   2.618   0.084   2.356
 4094TIP3    H212289   2.614  -0.064   2.327
 4095TIP3   OH212290   4.636   0.787   4.619
 4095TIP3    H112291   4.650   0.725   4.691
 4095TIP3    H212292   4.565   0.749   4.567
 4096TIP3   OH212293   3.827   3.619   0.802
 4096TIP3    H112294   3.890   3.669   0.853
 4096TIP3    H212295   3.873   3.596   0.722
 4097TIP3   OH212296   0.176   1.612   1.138
 4097TIP3    H112297   0.102   1.604   1.079
 4097TIP3    H212298   0.150   1.681   1.200
 4098TIP3   OH212299   4.239   4.324   3.830
 4098TIP3    H112300   4.261   4.282   3.914
 4098TIP3    H212301   4.309   4.297   3.771
 4099TIP3   OH212302   2.130   0.269   4.644
 4099TIP3    H112303   2.186   0.347   4.644
 4099TIP3    H212304   2.150   0.224   4.726
 4100TIP3   OH212305   3.991   4.053   3.124
 4100TIP3    H112306   3.912   4.000   3.124
 4100TIP3    H212307   4.011   4.069   3.216
 4101TIP3   OH212308   5.179   2.845   2.821
 4101TIP3    H112309   5.176   2.769   2.762
 4101TIP3    H212310   5.268   2.843   2.856
 4102TIP3   OH212311   4.558   0.981   1.746
 4102TIP3    H112312   4.564   0.906   1.805
 4102TIP3    H212313   4.604   1.051   1.792
 4103TIP3   OH212314   0.152   1.652   0.126
 4103TIP3    H112315   0.216   1.637   0.056
 4103TIP3    H212316   0.194   1.616   0.204
 4104TIP3   OH212317   2.340   3.880   2.836
 4104TIP3    H112318   2.430   3.900   2.810
 4104TIP3    H212319   2.311   3.958   2.884
 4105TIP3   OH212320   2.833   4.333   0.074
 4105TIP3    H112321   2.866   4.252   0.113
 4105TIP3    H212322   2.901   4.361   0.013
 4106TIP3   OH212323   2.542   3.665   1.532
 4106TIP3    H112324   2.539   3.756   1.563
 4106TIP3    H212325   2.535   3.613   1.611
 4107TIP3   OH212326   2.487   0.276   1.629
 4107TIP3    H112327   2.523   0.230   1.705
 4107TIP3    H212328   2.421   0.335   1.665
 4108TIP3   OH212329   0.237   1.709   1.817
 4108TIP3    H112330   0.220   1.663   1.899
 4108TIP3    H212331   0.308   1.770   1.839
 4109TIP3   OH212332   2.136   1.754   2.939
 4109TIP3    H112333   2.087   1.693   2.885
 4109TIP3    H212334   2.096   1.839   2.922
 4110TIP3   OH212335   5.235   3.169   3.718
 4110TIP3    H112336   5.300   3.100   3.713
 4110TIP3    H212337   5.151   3.123   3.721
 4111TIP3   OH212338   1.827   2.576   2.575
 4111TIP3    H112339   1.854   2.486   2.595
 4111TIP3    H212340   1.821   2.579   2.480
 4112TIP3   OH212341   2.487   0.379   3.958
 4112TIP3    H112342   2.484   0.422   3.872
 4112TIP3    H212343   2.480   0.286   3.939
 4113TIP3   OH212344   2.166   2.116   4.563
 4113TIP3    H112345   2.260   2.098   4.566
 4113TIP3    H212346   2.131   2.079   4.644
 4114TIP3   OH212347   0.393   1.383   4.254
 4114TIP3    H112348   0.405   1.305   4.308
 4114TIP3    H212349   0.308   1.418   4.280
 4115TIP3   OH212350   3.274   2.621   2.471
 4115TIP3    H112351   3.234   2.610   2.557
 4115TIP3    H212352   3.325   2.541   2.457
 4116TIP3   OH212353   1.730   4.026   1.247
 4116TIP3    H112354   1.763   4.115   1.262
 4116TIP3    H212355   1.795   3.969   1.287
 4117TIP3   OH212356   0.683   4.713   1.855
 4117TIP3    H112357   0.631   4.636   1.878
 4117TIP3    H212358   0.764   4.703   1.906
 4118TIP3   OH212359   0.073   2.757   3.208
 4118TIP3    H112360   0.155   2.713   3.227
 4118TIP3    H212361   0.021   2.749   3.288
 4119TIP3   OH212362   1.560   5.773   1.777
 4119TIP3    H112363   1.628   5.812   1.722
 4119TIP3    H212364   1.503   5.846   1.800
 4120TIP3   OH212365   1.763   4.767   1.850
 4120TIP3    H112366   1.766   4.705   1.777
 4120TIP3    H212367   1.730   4.848   1.812
 4121TIP3   OH212368   2.214   3.306   3.443
 4121TIP3    H112369   2.152   3.316   3.370
 4121TIP3    H212370   2.163   3.326   3.521
 4122TIP3   OH212371   2.517   2.954   3.990
 4122TIP3    H112372   2.511   2.866   4.027
 4122TIP3    H212373   2.589   2.948   3.927
 4123TIP3   OH212374   0.060   1.730   3.993
 4123TIP3    H112375   0.132   1.675   3.961
 4123TIP3    H212376  -0.015   1.706   3.939
 4124TIP3   OH212377   5.589   3.991   2.712
 4124TIP3    H112378   5.631   4.064   2.667
 4124TIP3    H212379   5.607   4.005   2.804
 4125TIP3   OH212380   4.427   1.966   0.807
 4125TIP3    H112381   4.364   1.896   0.792
 4125TIP3    H212382   4.508   1.921   0.830
 4126TIP3   OH212383   4.303   1.125   2.192
 4126TIP3    H112384   4.362   1.051   2.206
 4126TIP3    H212385   4.282   1.155   2.281
 4127TIP3   OH212386   5.984   5.367   1.370
 4127TIP3    H112387   5.904   5.372   1.423
 4127TIP3    H212388   5.975   5.437   1.306
 4128TIP3   OH212389   3.767   3.877   2.715
 4128TIP3    H112390   3.838   3.830   2.760
 4128TIP3    H212391   3.789   3.970   2.727
 4129TIP3   OH212392   3.588   4.783   2.359
 4129TIP3    H112393   3.598   4.690   2.378
 4129TIP3    H212394   3.677   4.815   2.346
 4130TIP3   OH212395   4.353   3.937   2.111
 4130TIP3    H112396   4.268   3.932   2.066
 4130TIP3    H212397   4.417   3.935   2.040
 4131TIP3   OH212398   3.818   2.108   2.037
 4131TIP3    H112399   3.851   2.130   1.950
 4131TIP3    H212400   3.855   2.175   2.094
 4132TIP3   OH212401   4.350   3.011   2.408
 4132TIP3    H112402   4.427   3.026   2.354
 4132TIP3    H212403   4.287   2.967   2.350
 4133TIP3   OH212404   3.381   4.352   1.038
 4133TIP3    H112405   3.372   4.376   1.130
 4133TIP3    H212406   3.458   4.295   1.035
 4134TIP3   OH212407   2.400   3.831   1.052
 4134TIP3    H112408   2.408   3.737   1.066
 4134TIP3    H212409   2.389   3.841   0.958
 4135TIP3   OH212410   6.364   0.528   5.049
 4135TIP3    H112411   6.279   0.570   5.065
 4135TIP3    H212412   6.397   0.572   4.970
 4136TIP3   OH212413   0.606   1.545   4.338
 4136TIP3    H112414   0.598   1.509   4.426
 4136TIP3    H212415   0.527   1.516   4.293
 4137TIP3   OH212416   2.408   0.293   4.233
 4137TIP3    H112417   2.436   0.204   4.209
 4137TIP3    H212418   2.313   0.289   4.229
 4138TIP3   OH212419   3.128   4.406   0.474
 4138TIP3    H112420   3.066   4.409   0.402
 4138TIP3    H212421   3.083   4.450   0.547
 4139TIP3   OH212422   4.384   1.682   4.123
 4139TIP3    H112423   4.329   1.604   4.119
 4139TIP3    H212424   4.423   1.688   4.035
 4140TIP3   OH212425   5.887   1.755   0.426
 4140TIP3    H112426   5.947   1.742   0.353
 4140TIP3    H212427   5.935   1.723   0.503
 4141TIP3   OH212428   2.227   5.442   3.064
 4141TIP3    H112429   2.213   5.348   3.073
 4141TIP3    H212430   2.282   5.465   3.139
 4142TIP3   OH212431   4.456   3.495   4.956
 4142TIP3    H112432   4.491   3.578   4.990
 4142TIP3    H212433   4.414   3.454   5.031
 4143TIP3   OH212434   5.102   2.245   4.195
 4143TIP3    H112435   5.088   2.151   4.182
 4143TIP3    H212436   5.131   2.277   4.110
 4144TIP3   OH212437   3.249   2.185   0.896
 4144TIP3    H112438   3.266   2.240   0.819
 4144TIP3    H212439   3.191   2.239   0.950
 4145TIP3   OH212440   2.148   3.687   4.094
 4145TIP3    H112441   2.184   3.770   4.063
 4145TIP3    H212442   2.071   3.672   4.039
 4146TIP3   OH212443   3.867   3.412   3.086
 4146TIP3    H112444   3.834   3.367   3.163
 4146TIP3    H212445   3.860   3.505   3.107
 4147TIP3   OH212446   1.178   3.454   4.644
 4147TIP3    H112447   1.256   3.400   4.661
 4147TIP3    H212448   1.104   3.394   4.657
 4148TIP3   OH212449   4.165   5.154   3.987
 4148TIP3    H112450   4.131   5.244   3.988
 4148TIP3    H212451   4.103   5.105   4.041
 4149TIP3   OH212452   4.351   1.321   4.781
 4149TIP3    H112453   4.262   1.294   4.759
 4149TIP3    H212454   4.406   1.250   4.747
 4150TIP3   OH212455   2.677   5.143   1.678
 4150TIP3    H112456   2.732   5.101   1.745
 4150TIP3    H212457   2.602   5.177   1.727
 4151TIP3   OH212458   3.933   0.933   0.623
 4151TIP3    H112459   3.875   0.924   0.547
 4151TIP3    H212460   4.020   0.947   0.586
 4152TIP3   OH212461   3.224   4.228   2.846
 4152TIP3    H112462   3.269   4.144   2.854
 4152TIP3    H212463   3.131   4.207   2.861
 4153TIP3   OH212464   6.137   5.080   1.057
 4153TIP3    H112465   6.118   5.157   1.003
 4153TIP3    H212466   6.211   5.107   1.112
 4154TIP3   OH212467   2.556   1.450   3.442
 4154TIP3    H112468   2.566   1.425   3.350
 4154TIP3    H212469   2.571   1.545   3.442
 4155TIP3   OH212470   0.387   5.480   3.721
 4155TIP3    H112471   0.341   5.468   3.638
 4155TIP3    H212472   0.477   5.456   3.702
 4156TIP3   OH212473   0.596   2.197   1.817
 4156TIP3    H112474   0.540   2.230   1.746
 4156TIP3    H212475   0.539   2.196   1.894
 4157TIP3   OH212476   1.241   1.016   2.843
 4157TIP3    H112477   1.159   0.973   2.821
 4157TIP3    H212478   1.267   1.060   2.762
 4158TIP3   OH212479   5.046   0.295   0.183
 4158TIP3    H112480   5.028   0.305   0.089
 4158TIP3    H212481   5.047   0.384   0.217
 4159TIP3   OH212482   2.190   0.336   0.948
 4159TIP3    H112483   2.257   0.403   0.957
 4159TIP3    H212484   2.191   0.313   0.855
 4160TIP3   OH212485   1.661   4.598   2.308
 4160TIP3    H112486   1.669   4.512   2.350
 4160TIP3    H212487   1.632   4.656   2.378
 4161TIP3   OH212488   0.958   4.027   2.165
 4161TIP3    H112489   1.002   3.958   2.115
 4161TIP3    H212490   1.027   4.091   2.183
 4162TIP3   OH212491   2.591   4.804   4.937
 4162TIP3    H112492   2.522   4.840   4.993
 4162TIP3    H212493   2.545   4.738   4.883
 4163TIP3   OH212494   1.186   2.015   1.076
 4163TIP3    H112495   1.132   1.962   1.018
 4163TIP3    H212496   1.262   2.040   1.022
 4164TIP3   OH212497   4.400   5.912   4.925
 4164TIP3    H112498   4.312   5.876   4.935
 4164TIP3    H212499   4.432   5.922   5.014
 4165TIP3   OH212500   5.040   4.686   1.045
 4165TIP3    H112501   5.120   4.636   1.062
 4165TIP3    H212502   4.969   4.623   1.053
 4166TIP3   OH212503   0.776   4.899   0.569
 4166TIP3    H112504   0.811   4.836   0.633
 4166TIP3    H212505   0.815   4.872   0.486
 4167TIP3   OH212506   2.952   0.645   4.084
 4167TIP3    H112507   2.941   0.600   4.167
 4167TIP3    H212508   2.881   0.709   4.081
 4168TIP3   OH212509   3.039   4.062   4.152
 4168TIP3    H112510   3.070   3.980   4.191
 4168TIP3    H212511   2.946   4.065   4.173
 4169TIP3   OH212512   0.225   2.992   3.924
 4169TIP3    H112513   0.219   2.906   3.882
 4169TIP3    H212514   0.243   2.972   4.016
 4170TIP3   OH212515   2.075   4.674   0.387
 4170TIP3    H112516   2.021   4.739   0.343
 4170TIP3    H212517   2.159   4.677   0.342
 4171TIP3   OH212518   2.498   2.229   4.241
 4171TIP3    H112519   2.486   2.273   4.157
 4171TIP3    H212520   2.564   2.163   4.225
 4172TIP3   OH212521   0.550   1.186   4.065
 4172TIP3    H112522   0.621   1.207   4.126
 4172TIP3    H212523   0.593   1.139   3.993
 4173TIP3   OH212524   4.401   2.124   1.428
 4173TIP3    H112525   4.354   2.203   1.402
 4173TIP3    H212526   4.474   2.118   1.366
 4174TIP3   OH212527   2.511   2.412   3.274
 4174TIP3    H112528   2.595   2.455   3.261
 4174TIP3    H212529   2.478   2.397   3.186
 4175TIP3   OH212530   2.004   1.268   4.027
 4175TIP3    H112531   2.072   1.242   4.089
 4175TIP3    H212532   2.047   1.265   3.942
 4176TIP3   OH212533   1.304   1.586   4.017
 4176TIP3    H112534   1.330   1.602   3.926
 4176TIP3    H212535   1.246   1.659   4.039
 4177TIP3   OH212536   3.271   3.033   0.871
 4177TIP3    H112537   3.249   3.070   0.786
 4177TIP3    H212538   3.277   3.108   0.930
 4178TIP3   OH212539   3.287   3.180   5.042
 4178TIP3    H112540   3.358   3.244   5.043
 4178TIP3    H212541   3.305   3.122   5.116
 4179TIP3   OH212542   5.734   0.198   0.693
 4179TIP3    H112543   5.691   0.125   0.736
 4179TIP3    H212544   5.666   0.239   0.640
 4180TIP3   OH212545   4.550   3.225   0.013
 4180TIP3    H112546   4.604   3.215   0.092
 4180TIP3    H212547   4.469   3.265   0.044
 4181TIP3   OH212548   1.936   4.523   2.523
 4181TIP3    H112549   1.880   4.556   2.593
 4181TIP3    H212550   1.996   4.462   2.567
 4182TIP3   OH212551   1.811   3.842   3.621
 4182TIP3    H112552   1.817   3.748   3.608
 4182TIP3    H212553   1.902   3.869   3.639
 4183TIP3   OH212554   4.148   3.250   2.370
 4183TIP3    H112555   4.110   3.180   2.422
 4183TIP3    H212556   4.242   3.245   2.388
 4184TIP3   OH212557   2.460   4.142   0.869
 4184TIP3    H112558   2.507   4.192   0.802
 4184TIP3    H212559   2.524   4.129   0.938
 4185TIP3   OH212560   5.468   3.652   1.042
 4185TIP3    H112561   5.523   3.607   0.978
 4185TIP3    H212562   5.400   3.588   1.063
 4186TIP3   OH212563   1.409   1.241   0.348
 4186TIP3    H112564   1.451   1.326   0.335
 4186TIP3    H212565   1.482   1.180   0.361
 4187TIP3   OH212566   1.931   2.284   3.394
 4187TIP3    H112567   1.893   2.340   3.462
 4187TIP3    H212568   1.890   2.199   3.407
 4188TIP3   OH212569   5.229   4.532   4.914
 4188TIP3    H112570   5.261   4.600   4.855
 4188TIP3    H212571   5.275   4.453   4.887
 4189TIP3   OH212572   3.488   0.642   3.790
 4189TIP3    H112573   3.479   0.711   3.856
 4189TIP3    H212574   3.579   0.612   3.800
 4190TIP3   OH212575   0.501   0.837   2.041
 4190TIP3    H112576   0.478   0.794   1.959
 4190TIP3    H212577   0.579   0.888   2.020
 4191TIP3   OH212578   2.829   4.972   4.460
 4191TIP3    H112579   2.805   4.979   4.552
 4191TIP3    H212580   2.851   4.879   4.449
 4192TIP3   OH212581   2.285   4.062   4.519
 4192TIP3    H112582   2.205   4.018   4.549
 4192TIP3    H212583   2.353   4.030   4.578
 4193TIP3   OH212584   6.162   3.188   3.005
 4193TIP3    H112585   6.203   3.198   2.919
 4193TIP3    H212586   6.192   3.103   3.036
 4194TIP3   OH212587   5.962   3.275   0.718
 4194TIP3    H112588   5.930   3.364   0.699
 4194TIP3    H212589   5.896   3.217   0.680
 4195TIP3   OH212590   1.794   0.371   0.061
 4195TIP3    H112591   1.872   0.336   0.105
 4195TIP3    H212592   1.740   0.293   0.043
 4196TIP3   OH212593   3.147   1.151   4.357
 4196TIP3    H112594   3.177   1.079   4.412
 4196TIP3    H212595   3.129   1.223   4.417
 4197TIP3   OH212596   5.627   2.963   3.218
 4197TIP3    H112597   5.657   2.932   3.132
 4197TIP3    H212598   5.657   3.053   3.223
 4198TIP3   OH212599   4.000   0.970   4.098
 4198TIP3    H112600   3.959   1.053   4.075
 4198TIP3    H212601   4.015   0.977   4.192
 4199TIP3   OH212602   5.011   5.298   4.501
 4199TIP3    H112603   4.989   5.217   4.454
 4199TIP3    H212604   5.080   5.338   4.448
 4200TIP3   OH212605   6.085   0.716   0.661
 4200TIP3    H112606   6.076   0.801   0.704
 4200TIP3    H212607   6.101   0.654   0.733
 4201TIP3   OH212608   2.244   4.924   3.492
 4201TIP3    H112609   2.328   4.898   3.532
 4201TIP3    H212610   2.197   4.967   3.563
 4202TIP3   OH212611   3.195   4.654   2.499
 4202TIP3    H112612   3.205   4.572   2.547
 4202TIP3    H212613   3.214   4.632   2.408
 4203TIP3   OH212614   2.113   5.956   0.084
 4203TIP3    H112615   2.034   6.011   0.088
 4203TIP3    H212616   2.154   5.968   0.169
 4204TIP3   OH212617   4.505   1.347   1.378
 4204TIP3    H112618   4.436   1.287   1.408
 4204TIP3    H212619   4.584   1.292   1.375
 4205TIP3   OH212620   2.971   1.500   5.203
 4205TIP3    H112621   2.961   1.545   5.119
 4205TIP3    H212622   3.064   1.511   5.225
 4206TIP3   OH212623   6.228   4.063   0.164
 4206TIP3    H112624   6.163   4.102   0.105
 4206TIP3    H212625   6.212   4.105   0.249
 4207TIP3   OH212626   1.054   3.058   4.226
 4207TIP3    H112627   1.103   3.140   4.232
 4207TIP3    H212628   1.100   2.997   4.284
 4208TIP3   OH212629   0.870   3.678   4.750
 4208TIP3    H112630   0.781   3.664   4.781
 4208TIP3    H212631   0.860   3.714   4.662
 4209TIP3   OH212632   0.063   4.011   2.508
 4209TIP3    H112633   0.067   3.928   2.556
 4209TIP3    H212634   0.151   4.021   2.472
 4210TIP3   OH212635   4.627   5.153   4.030
 4210TIP3    H112636   4.694   5.214   4.062
 4210TIP3    H212637   4.605   5.186   3.943
 4211TIP3   OH212638   1.449   4.839   2.255
 4211TIP3    H112639   1.387   4.851   2.184
 4211TIP3    H212640   1.533   4.866   2.219
 4212TIP3   OH212641   2.231   1.372   3.235
 4212TIP3    H112642   2.281   1.453   3.225
 4212TIP3    H212643   2.296   1.302   3.224
 4213TIP3   OH212644   6.233   0.774   5.134
 4213TIP3    H112645   6.188   0.777   5.218
 4213TIP3    H212646   6.271   0.862   5.124
 4214TIP3   OH212647   5.647   0.947   3.794
 4214TIP3    H112648   5.556   0.916   3.803
 4214TIP3    H212649   5.675   0.911   3.709
 4215TIP3   OH212650   2.286   3.786   3.201
 4215TIP3    H112651   2.304   3.705   3.154
 4215TIP3    H212652   2.362   3.799   3.257
 4216TIP3   OH212653   3.291   3.580   2.268
 4216TIP3    H112654   3.308   3.489   2.243
 4216TIP3    H212655   3.281   3.577   2.363
 4217TIP3   OH212656   5.690   1.550   0.688
 4217TIP3    H112657   5.632   1.488   0.731
 4217TIP3    H212658   5.778   1.527   0.719
 4218TIP3   OH212659   1.050   2.016   2.666
 4218TIP3    H112660   1.057   2.080   2.737
 4218TIP3    H212661   1.043   1.932   2.711
 4219TIP3   OH212662   4.785   3.208   3.539
 4219TIP3    H112663   4.779   3.173   3.628
 4219TIP3    H212664   4.865   3.168   3.504
 4220TIP3   OH212665   6.146   0.310   4.468
 4220TIP3    H112666   6.077   0.292   4.405
 4220TIP3    H212667   6.224   0.324   4.415
 4221TIP3   OH212668   2.964   3.209   1.011
 4221TIP3    H112669   3.056   3.185   0.998
 4221TIP3    H212670   2.960   3.302   0.988
 4222TIP3   OH212671   5.796   1.123   3.974
 4222TIP3    H112672   5.745   1.077   3.908
 4222TIP3    H212673   5.851   1.056   4.013
 4223TIP3   OH212674   2.148   1.818   2.464
 4223TIP3    H112675   2.228   1.766   2.457
 4223TIP3    H212676   2.083   1.768   2.416
 4224TIP3   OH212677   0.561   5.042   1.565
 4224TIP3    H112678   0.478   5.056   1.612
 4224TIP3    H212679   0.553   5.096   1.486
 4225TIP3   OH212680   4.193   0.345   0.591
 4225TIP3    H112681   4.119   0.296   0.556
 4225TIP3    H212682   4.161   0.380   0.675
 4226TIP3   OH212683   1.539   3.229   1.431
 4226TIP3    H112684   1.482   3.195   1.499
 4226TIP3    H212685   1.574   3.310   1.467
 4227TIP3   OH212686   4.907   1.234   4.805
 4227TIP3    H112687   4.836   1.295   4.823
 4227TIP3    H212688   4.869   1.167   4.749
 4228TIP3   OH212689   3.775   0.271   1.744
 4228TIP3    H112690   3.748   0.363   1.752
 4228TIP3    H212691   3.870   0.273   1.758
 4229TIP3   OH212692   0.716   0.466   5.072
 4229TIP3    H112693   0.676   0.443   5.156
 4229TIP3    H212694   0.647   0.512   5.024
 4230TIP3   OH212695   5.983   5.695   2.017
 4230TIP3    H112696   6.043   5.655   1.955
 4230TIP3    H212697   5.965   5.782   1.981
 4231TIP3   OH212698   1.003   5.895   2.342
 4231TIP3    H112699   1.072   5.961   2.349
 4231TIP3    H212700   0.923   5.941   2.366
 4232TIP3   OH212701   5.568   3.660   3.736
 4232TIP3    H112702   5.606   3.745   3.712
 4232TIP3    H212703   5.491   3.651   3.680
 4233TIP3   OH212704   4.080   1.004   4.798
 4233TIP3    H112705   4.064   1.096   4.781
 4233TIP3    H212706   3.994   0.962   4.788
 4234TIP3   OH212707   1.159   1.828   1.335
 4234TIP3    H112708   1.174   1.798   1.246
 4234TIP3    H212709   1.178   1.922   1.332
 4235TIP3   OH212710   1.398   1.250   3.866
 4235TIP3    H112711   1.385   1.324   3.806
 4235TIP3    H212712   1.368   1.174   3.817
 4236TIP3   OH212713   2.145   1.609   4.285
 4236TIP3    H112714   2.089   1.556   4.342
 4236TIP3    H212715   2.187   1.671   4.344
 4237TIP3   OH212716   4.809   0.970   3.807
 4237TIP3    H112717   4.849   1.055   3.789
 4237TIP3    H212718   4.867   0.907   3.764
 4238TIP3   OH212719   1.964   3.213   3.564
 4238TIP3    H112720   2.014   3.147   3.612
 4238TIP3    H212721   1.968   3.184   3.473
 4239TIP3   OH212722   4.867   1.493   2.667
 4239TIP3    H112723   4.869   1.410   2.715
 4239TIP3    H212724   4.915   1.476   2.586
 4240TIP3   OH212725   1.574   0.211   1.632
 4240TIP3    H112726   1.613   0.145   1.689
 4240TIP3    H212727   1.637   0.222   1.562
 4241TIP3   OH212728   0.481   2.711   2.564
 4241TIP3    H112729   0.532   2.700   2.644
 4241TIP3    H212730   0.511   2.640   2.507
 4242TIP3   OH212731   5.882   0.689   0.106
 4242TIP3    H112732   5.797   0.732   0.118
 4242TIP3    H212733   5.879   0.655   0.017
 4243TIP3   OH212734   6.053   0.681   1.895
 4243TIP3    H112735   6.008   0.724   1.822
 4243TIP3    H212736   6.036   0.587   1.882
 4244TIP3   OH212737   4.602   4.970   2.422
 4244TIP3    H112738   4.511   4.940   2.423
 4244TIP3    H212739   4.596   5.065   2.419
 4245TIP3   OH212740   4.494   1.289   2.714
 4245TIP3    H112741   4.520   1.357   2.652
 4245TIP3    H212742   4.513   1.327   2.800
 4246TIP3   OH212743   4.886   0.720   0.228
 4246TIP3    H112744   4.902   0.628   0.207
 4246TIP3    H212745   4.966   0.765   0.202
 4247TIP3   OH212746   2.139   5.192   3.130
 4247TIP3    H112747   2.113   5.207   3.221
 4247TIP3    H212748   2.126   5.098   3.117
 4248TIP3   OH212749   4.113   3.658   5.053
 4248TIP3    H112750   4.062   3.577   5.052
 4248TIP3    H212751   4.049   3.727   5.031
 4249TIP3   OH212752   1.141   0.391   2.704
 4249TIP3    H112753   1.063   0.335   2.705
 4249TIP3    H212754   1.213   0.330   2.687
 4250TIP3   OH212755   0.571   5.581   1.277
 4250TIP3    H112756   0.475   5.589   1.275
 4250TIP3    H212757   0.591   5.526   1.202
 4251TIP3   OH212758   5.345   3.491   1.761
 4251TIP3    H112759   5.362   3.412   1.710
 4251TIP3    H212760   5.386   3.562   1.711
 4252TIP3   OH212761   3.009   2.137   2.433
 4252TIP3    H112762   2.991   2.174   2.347
 4252TIP3    H212763   2.926   2.100   2.461
 4253TIP3   OH212764   6.203   3.535   3.040
 4253TIP3    H112765   6.290   3.546   3.079
 4253TIP3    H212766   6.149   3.500   3.110
 4254TIP3   OH212767   1.939   3.595   3.927
 4254TIP3    H112768   1.999   3.544   3.872
 4254TIP3    H212769   1.851   3.570   3.897
 4255TIP3   OH212770   1.289   3.128   0.018
 4255TIP3    H112771   1.226   3.197   0.039
 4255TIP3    H212772   1.341   3.118   0.097
 4256TIP3   OH212773   1.857   4.238   4.103
 4256TIP3    H112774   1.807   4.185   4.165
 4256TIP3    H212775   1.936   4.261   4.151
 4257TIP3   OH212776   3.421   1.981   4.202
 4257TIP3    H112777   3.397   2.062   4.247
 4257TIP3    H212778   3.467   2.010   4.123
 4258TIP3   OH212779   3.309   4.329   1.310
 4258TIP3    H112780   3.332   4.290   1.395
 4258TIP3    H212781   3.278   4.255   1.258
 4259TIP3   OH212782   3.051   1.334   3.281
 4259TIP3    H112783   3.143   1.343   3.253
 4259TIP3    H212784   3.054   1.271   3.353
 4260TIP3   OH212785   1.823   3.199   4.615
 4260TIP3    H112786   1.868   3.280   4.590
 4260TIP3    H212787   1.731   3.224   4.625
 4261TIP3   OH212788   0.538   3.967   4.316
 4261TIP3    H112789   0.586   4.044   4.284
 4261TIP3    H212790   0.589   3.892   4.286
 4262TIP3   OH212791   1.198   1.070   1.316
 4262TIP3    H112792   1.203   1.100   1.406
 4262TIP3    H212793   1.108   1.087   1.289
 4263TIP3   OH212794   4.891   4.168   2.610
 4263TIP3    H112795   4.860   4.145   2.698
 4263TIP3    H212796   4.911   4.084   2.568
 4264TIP3   OH212797   5.823   4.391   1.125
 4264TIP3    H112798   5.757   4.461   1.120
 4264TIP3    H212799   5.780   4.315   1.085
 4265TIP3   OH212800   4.797   4.902   3.315
 4265TIP3    H112801   4.724   4.881   3.374
 4265TIP3    H212802   4.756   4.943   3.239
 4266TIP3   OH212803   1.157   2.689   2.003
 4266TIP3    H112804   1.176   2.630   1.930
 4266TIP3    H212805   1.085   2.744   1.971
 4267TIP3   OH212806   4.843   4.341   2.187
 4267TIP3    H112807   4.883   4.310   2.106
 4267TIP3    H212808   4.917   4.354   2.247
 4268TIP3   OH212809   5.540   4.502   3.914
 4268TIP3    H112810   5.614   4.556   3.888
 4268TIP3    H212811   5.465   4.540   3.868
 4269TIP3   OH212812   3.293   2.154   4.379
 4269TIP3    H112813   3.210   2.188   4.345
 4269TIP3    H212814   3.347   2.231   4.393
 4270TIP3   OH212815   5.732   1.811   4.096
 4270TIP3    H112816   5.817   1.841   4.063
 4270TIP3    H212817   5.753   1.735   4.149
 4271TIP3   OH212818   0.881   2.059   3.730
 4271TIP3    H112819   0.842   1.981   3.768
 4271TIP3    H212820   0.813   2.126   3.738
 4272TIP3   OH212821   4.177   4.418   0.030
 4272TIP3    H112822   4.097   4.427  -0.021
 4272TIP3    H212823   4.148   4.418   0.121
 4273TIP3   OH212824   6.221   4.383   3.967
 4273TIP3    H112825   6.243   4.314   4.030
 4273TIP3    H212826   6.149   4.347   3.916
 4274TIP3   OH212827   0.246   3.768   2.354
 4274TIP3    H112828   0.205   3.802   2.274
 4274TIP3    H212829   0.340   3.778   2.338
 4275TIP3   OH212830   1.500   0.345   3.231
 4275TIP3    H112831   1.541   0.354   3.145
 4275TIP3    H212832   1.530   0.261   3.263
 4276TIP3   OH212833   2.047   4.667   4.670
 4276TIP3    H112834   1.959   4.681   4.634
 4276TIP3    H212835   2.035   4.669   4.765
 4277TIP3   OH212836   4.662   1.565   1.515
 4277TIP3    H112837   4.581   1.513   1.516
 4277TIP3    H212838   4.632   1.655   1.505
 4278TIP3   OH212839   1.385   5.676   2.069
 4278TIP3    H112840   1.377   5.634   2.155
 4278TIP3    H212841   1.391   5.603   2.007
 4279TIP3   OH212842   2.154   5.060   0.135
 4279TIP3    H112843   2.059   5.049   0.135
 4279TIP3    H212844   2.183   5.025   0.051
 4280TIP3   OH212845   5.465   0.589   0.507
 4280TIP3    H112846   5.421   0.546   0.580
 4280TIP3    H212847   5.429   0.546   0.429
 4281TIP3   OH212848   1.337   0.933   2.302
 4281TIP3    H112849   1.392   0.856   2.289
 4281TIP3    H212850   1.276   0.932   2.228
 4282TIP3   OH212851   1.774   3.051   2.170
 4282TIP3    H112852   1.805   3.000   2.246
 4282TIP3    H212853   1.685   3.076   2.193
 4283TIP3   OH212854   2.947   0.291   0.179
 4283TIP3    H112855   2.936   0.259   0.269
 4283TIP3    H212856   2.937   0.213   0.125
 4284TIP3   OH212857   0.349   5.010   2.288
 4284TIP3    H112858   0.409   4.936   2.290
 4284TIP3    H212859   0.283   4.986   2.224
 4285TIP3   OH212860   3.409   2.315   4.145
 4285TIP3    H112861   3.392   2.392   4.198
 4285TIP3    H212862   3.325   2.269   4.141
 4286TIP3   OH212863   4.643   0.717   1.353
 4286TIP3    H112864   4.623   0.796   1.403
 4286TIP3    H212865   4.584   0.650   1.388
 4287TIP3   OH212866   5.206   5.279   0.787
 4287TIP3    H112867   5.267   5.206   0.795
 4287TIP3    H212868   5.207   5.320   0.873
 4288TIP3   OH212869   4.274   5.846   0.127
 4288TIP3    H112870   4.316   5.761   0.116
 4288TIP3    H212871   4.347   5.908   0.137
 4289TIP3   OH212872   3.418   0.360   1.986
 4289TIP3    H112873   3.471   0.281   1.975
 4289TIP3    H212874   3.329   0.328   1.999
 4290TIP3   OH212875   3.082   1.701   3.048
 4290TIP3    H112876   3.113   1.773   3.103
 4290TIP3    H212877   3.073   1.739   2.961
 4291TIP3   OH212878   3.143   2.125   3.285
 4291TIP3    H112879   3.140   2.165   3.372
 4291TIP3    H212880   3.064   2.072   3.280
 4292TIP3   OH212881   5.250   1.857   2.001
 4292TIP3    H112882   5.275   1.838   1.911
 4292TIP3    H212883   5.180   1.922   1.994
 4293TIP3   OH212884   0.300   2.946   1.074
 4293TIP3    H112885   0.345   3.029   1.057
 4293TIP3    H212886   0.271   2.916   0.988
 4294TIP3   OH212887   2.708   2.998   4.227
 4294TIP3    H112888   2.739   2.989   4.317
 4294TIP3    H212889   2.614   3.015   4.235
 4295TIP3   OH212890   0.959   1.019   0.240
 4295TIP3    H112891   1.039   1.040   0.193
 4295TIP3    H212892   0.987   1.001   0.329
 4296TIP3   OH212893   2.099   5.652   1.746
 4296TIP3    H112894   2.164   5.590   1.781
 4296TIP3    H212895   2.128   5.668   1.656
 4297TIP3   OH212896   3.981   3.553   0.568
 4297TIP3    H112897   3.999   3.487   0.502
 4297TIP3    H212898   3.950   3.629   0.519
 4298TIP3   OH212899   5.070   1.608   4.227
 4298TIP3    H112900   4.991   1.554   4.221
 4298TIP3    H212901   5.118   1.571   4.301
 4299TIP3   OH212902   0.597   4.295   3.092
 4299TIP3    H112903   0.590   4.349   3.170
 4299TIP3    H212904   0.615   4.207   3.125
 4300TIP3   OH212905   5.636   3.953   1.449
 4300TIP3    H112906   5.696   3.941   1.522
 4300TIP3    H212907   5.550   3.957   1.489
 4301TIP3   OH212908   5.804   3.675   2.111
 4301TIP3    H112909   5.810   3.680   2.016
 4301TIP3    H212910   5.846   3.754   2.143
 4302TIP3   OH212911   0.523   0.132   0.128
 4302TIP3    H112912   0.533   0.081   0.209
 4302TIP3    H212913   0.533   0.223   0.155
 4303TIP3   OH212914   3.310   5.947   1.293
 4303TIP3    H112915   3.317   5.906   1.379
 4303TIP3    H212916   3.218   5.935   1.269
 4304TIP3   OH212917   5.416   1.238   4.286
 4304TIP3    H112918   5.447   1.187   4.211
 4304TIP3    H212919   5.472   1.211   4.358
 4305TIP3   OH212920   4.187   4.242   1.742
 4305TIP3    H112921   4.200   4.156   1.702
 4305TIP3    H212922   4.099   4.268   1.716
 4306TIP3   OH212923   6.190   5.720   0.570
 4306TIP3    H112924   6.112   5.666   0.578
 4306TIP3    H212925   6.226   5.723   0.659
 4307TIP3   OH212926   4.446   4.818   2.138
 4307TIP3    H112927   4.413   4.884   2.077
 4307TIP3    H212928   4.542   4.823   2.128
 4308TIP3   OH212929   3.014   3.587   3.216
 4308TIP3    H112930   3.095   3.550   3.251
 4308TIP3    H212931   3.025   3.681   3.223
 4309TIP3   OH212932   3.108   5.271   0.692
 4309TIP3    H112933   3.083   5.280   0.600
 4309TIP3    H212934   3.026   5.281   0.741
 4310TIP3   OH212935   2.345   0.470   1.771
 4310TIP3    H112936   2.350   0.537   1.703
 4310TIP3    H212937   2.426   0.481   1.822
 4311TIP3   OH212938   4.985   4.886   0.256
 4311TIP3    H112939   4.963   4.917   0.344
 4311TIP3    H212940   4.906   4.901   0.205
 4312TIP3   OH212941   4.024   2.880   4.973
 4312TIP3    H112942   4.041   2.972   4.991
 4312TIP3    H212943   3.968   2.851   5.045
 4313TIP3   OH212944   2.950   3.514   1.917
 4313TIP3    H112945   2.997   3.543   1.995
 4313TIP3    H212946   3.013   3.460   1.870
 4314TIP3   OH212947   2.289   5.362   3.666
 4314TIP3    H112948   2.234   5.435   3.693
 4314TIP3    H212949   2.356   5.355   3.734
 4315TIP3   OH212950   3.526   3.962   0.658
 4315TIP3    H112951   3.509   3.869   0.648
 4315TIP3    H212952   3.594   3.967   0.725
 4316TIP3   OH212953   0.383   4.746   1.544
 4316TIP3    H112954   0.402   4.787   1.628
 4316TIP3    H212955   0.288   4.741   1.539
 4317TIP3   OH212956   2.947   0.135   0.854
 4317TIP3    H112957   2.988   0.215   0.823
 4317TIP3    H212958   2.858   0.139   0.820
 4318TIP3   OH212959   4.701   5.615   0.843
 4318TIP3    H112960   4.742   5.694   0.878
 4318TIP3    H212961   4.617   5.610   0.889
 4319TIP3   OH212962   2.048   3.993   3.631
 4319TIP3    H112963   2.043   4.010   3.725
 4319TIP3    H212964   2.017   4.073   3.589
 4320TIP3   OH212965   3.761   2.001   3.632
 4320TIP3    H112966   3.737   2.003   3.539
 4320TIP3    H212967   3.703   1.936   3.670
 4321TIP3   OH212968   2.317   2.532   0.301
 4321TIP3    H112969   2.333   2.506   0.210
 4321TIP3    H212970   2.368   2.612   0.312
 4322TIP3   OH212971   1.247   4.264   1.391
 4322TIP3    H112972   1.217   4.354   1.400
 4322TIP3    H212973   1.169   4.214   1.368
 4323TIP3   OH212974   2.969   2.873   0.620
 4323TIP3    H112975   2.952   2.915   0.704
 4323TIP3    H212976   2.921   2.927   0.556
 4324TIP3   OH212977   3.183   5.192   4.658
 4324TIP3    H112978   3.199   5.098   4.651
 4324TIP3    H212979   3.092   5.200   4.687
 4325TIP3   OH212980   0.203   0.107   1.247
 4325TIP3    H112981   0.109   0.092   1.239
 4325TIP3    H212982   0.223   0.084   1.338
 4326TIP3   OH212983   6.005   4.092   1.377
 4326TIP3    H112984   5.995   4.056   1.289
 4326TIP3    H212985   6.000   4.187   1.365
 4327TIP3   OH212986   3.965   2.860   1.204
 4327TIP3    H112987   3.936   2.885   1.116
 4327TIP3    H212988   3.892   2.808   1.238
 4328TIP3   OH212989   0.489   0.834   1.234
 4328TIP3    H112990   0.536   0.854   1.315
 4328TIP3    H212991   0.476   0.739   1.237
 4329TIP3   OH212992   2.633   5.762   1.553
 4329TIP3    H112993   2.541   5.788   1.562
 4329TIP3    H212994   2.640   5.682   1.606
 4330TIP3   OH212995   2.662   0.805   1.957
 4330TIP3    H112996   2.628   0.814   1.868
 4330TIP3    H212997   2.591   0.764   2.006
 4331TIP3   OH212998   0.799   0.271   0.697
 4331TIP3    H112999   0.872   0.234   0.647
 4331TIP3    H213000   0.742   0.196   0.714
 4332TIP3   OH213001   5.064   5.175   2.307
 4332TIP3    H113002   5.050   5.094   2.356
 4332TIP3    H213003   4.982   5.189   2.260
 4333TIP3   OH213004   6.299   4.205   0.400
 4333TIP3    H113005   6.384   4.218   0.358
 4333TIP3    H213006   6.295   4.272   0.468
 4334TIP3   OH213007   2.472   2.961   0.803
 4334TIP3    H113008   2.427   2.916   0.875
 4334TIP3    H213009   2.519   3.033   0.846
 4335TIP3   OH213010   4.975   4.933   2.444
 4335TIP3    H113011   4.891   4.967   2.474
 4335TIP3    H213012   4.990   4.856   2.498
 4336TIP3   OH213013   0.110   1.996   0.537
 4336TIP3    H113014   0.098   2.013   0.444
 4336TIP3    H213015   0.204   1.981   0.547
 4337TIP3   OH213016   5.552   2.948   2.631
 4337TIP3    H113017   5.608   2.989   2.565
 4337TIP3    H213018   5.519   3.021   2.683
 4338TIP3   OH213019   1.140   1.244   2.986
 4338TIP3    H113020   1.198   1.252   3.062
 4338TIP3    H213021   1.171   1.165   2.941
 4339TIP3   OH213022   2.896   0.034   4.308
 4339TIP3    H113023   2.892   0.010   4.216
 4339TIP3    H213024   2.989   0.029   4.330
 4340TIP3   OH213025   4.950   4.563   4.939
 4340TIP3    H113026   4.937   4.590   5.030
 4340TIP3    H213027   5.044   4.568   4.926
 4341TIP3   OH213028   2.476   0.381   1.226
 4341TIP3    H113029   2.543   0.382   1.158
 4341TIP3    H213030   2.491   0.298   1.273
 4342TIP3   OH213031   0.837   2.165   0.854
 4342TIP3    H113032   0.784   2.191   0.778
 4342TIP3    H213033   0.817   2.231   0.920
 4343TIP3   OH213034   6.154   4.863   4.198
 4343TIP3    H113035   6.081   4.805   4.219
 4343TIP3    H213036   6.181   4.899   4.282
 4344TIP3   OH213037   2.396   0.800   0.697
 4344TIP3    H113038   2.365   0.888   0.673
 4344TIP3    H213039   2.316   0.750   0.713
 4345TIP3   OH213040   5.886   2.015   3.825
 4345TIP3    H113041   5.940   2.011   3.746
 4345TIP3    H213042   5.797   2.021   3.793
 4346TIP3   OH213043   4.555   2.251   0.453
 4346TIP3    H113044   4.474   2.209   0.482
 4346TIP3    H213045   4.602   2.182   0.406
 4347TIP3   OH213046   5.345   2.830   0.161
 4347TIP3    H113047   5.411   2.899   0.162
 4347TIP3    H213048   5.387   2.756   0.205
 4348TIP3   OH213049   5.404   0.822   3.884
 4348TIP3    H113050   5.358   0.749   3.842
 4348TIP3    H213051   5.437   0.786   3.966
 4349TIP3   OH213052   4.455   2.095   4.902
 4349TIP3    H113053   4.402   2.047   4.965
 4349TIP3    H213054   4.536   2.115   4.950
 4350TIP3   OH213055   4.026   2.163   3.306
 4350TIP3    H113056   4.005   2.153   3.213
 4350TIP3    H213057   4.048   2.075   3.335
 4351TIP3   OH213058   5.374   0.933   5.095
 4351TIP3    H113059   5.412   0.847   5.114
 4351TIP3    H213060   5.336   0.923   5.008
 4352TIP3   OH213061   1.015   2.869   1.604
 4352TIP3    H113062   0.976   2.951   1.634
 4352TIP3    H213063   0.940   2.817   1.576
 4353TIP3   OH213064   4.108   1.676   3.844
 4353TIP3    H113065   4.192   1.630   3.849
 4353TIP3    H213066   4.102   1.724   3.927
 4354TIP3   OH213067   0.284   1.361   0.798
 4354TIP3    H113068   0.342   1.415   0.852
 4354TIP3    H213069   0.218   1.423   0.765
 4355TIP3   OH213070   6.106   2.620   4.499
 4355TIP3    H113071   6.175   2.599   4.562
 4355TIP3    H213072   6.058   2.538   4.487
 4356TIP3   OH213073   4.271   2.897   1.698
 4356TIP3    H113074   4.322   2.817   1.684
 4356TIP3    H213075   4.324   2.949   1.758
 4357TIP3   OH213076   5.890   4.955   1.000
 4357TIP3    H113077   5.971   4.999   1.028
 4357TIP3    H213078   5.863   5.003   0.922
 4358TIP3   OH213079   2.801   0.344   3.638
 4358TIP3    H113080   2.864   0.377   3.573
 4358TIP3    H213081   2.834   0.378   3.721
 4359TIP3   OH213082   0.117   0.230   0.730
 4359TIP3    H113083   0.161   0.296   0.675
 4359TIP3    H213084   0.126   0.263   0.819
 4360TIP3   OH213085   1.310   4.644   3.569
 4360TIP3    H113086   1.300   4.553   3.597
 4360TIP3    H213087   1.255   4.652   3.491
 4361TIP3   OH213088   1.510   4.109   2.352
 4361TIP3    H113089   1.493   4.074   2.265
 4361TIP3    H213090   1.518   4.031   2.408
 4362TIP3   OH213091   2.096   2.428   2.946
 4362TIP3    H113092   2.099   2.439   3.041
 4362TIP3    H213093   2.052   2.343   2.934
 4363TIP3   OH213094   3.062   0.731   0.176
 4363TIP3    H113095   3.133   0.719   0.239
 4363TIP3    H213096   3.104   0.721   0.091
 4364TIP3   OH213097   1.800   4.901   2.954
 4364TIP3    H113098   1.862   4.887   2.882
 4364TIP3    H213099   1.743   4.971   2.923
 4365TIP3   OH213100   6.309   2.693   5.188
 4365TIP3    H113101   6.322   2.787   5.204
 4365TIP3    H213102   6.219   2.687   5.155
 4366TIP3   OH213103   2.633   1.102   1.061
 4366TIP3    H113104   2.543   1.126   1.085
 4366TIP3    H213105   2.648   1.147   0.978
 4367TIP3   OH213106   4.634   4.163   2.178
 4367TIP3    H113107   4.695   4.237   2.182
 4367TIP3    H213108   4.550   4.201   2.203
 4368TIP3   OH213109   6.269   1.607   1.035
 4368TIP3    H113110   6.183   1.647   1.024
 4368TIP3    H213111   6.251   1.514   1.044
 4369TIP3   OH213112   3.268   0.929   0.236
 4369TIP3    H113113   3.236   0.885   0.315
 4369TIP3    H213114   3.188   0.951   0.188
 4370TIP3   OH213115   3.137   5.727   0.378
 4370TIP3    H113116   3.201   5.736   0.308
 4370TIP3    H213117   3.141   5.810   0.425
 4371TIP3   OH213118   1.953   2.466   4.837
 4371TIP3    H113119   1.942   2.503   4.749
 4371TIP3    H213120   1.988   2.538   4.889
 4372TIP3   OH213121   3.861   0.575   0.404
 4372TIP3    H113122   3.769   0.597   0.384
 4372TIP3    H213123   3.910   0.651   0.373
 4373TIP3   OH213124   5.109   5.871   4.596
 4373TIP3    H113125   5.158   5.874   4.678
 4373TIP3    H213126   5.017   5.866   4.623
 4374TIP3   OH213127   1.758   5.709   0.517
 4374TIP3    H113128   1.783   5.767   0.446
 4374TIP3    H213129   1.787   5.622   0.489
 4375TIP3   OH213130   5.331   5.871   3.761
 4375TIP3    H113131   5.398   5.924   3.718
 4375TIP3    H213132   5.296   5.927   3.829
 4376TIP3   OH213133   4.691   2.495   4.506
 4376TIP3    H113134   4.609   2.470   4.464
 4376TIP3    H213135   4.758   2.443   4.463
 4377TIP3   OH213136   0.808   2.852   3.585
 4377TIP3    H113137   0.762   2.882   3.506
 4377TIP3    H213138   0.747   2.869   3.657
 4378TIP3   OH213139   1.181   4.777   0.506
 4378TIP3    H113140   1.104   4.747   0.553
 4378TIP3    H213141   1.149   4.798   0.418
 4379TIP3   OH213142   5.232   3.908   0.557
 4379TIP3    H113143   5.320   3.944   0.566
 4379TIP3    H213144   5.190   3.964   0.491
 4380TIP3   OH213145   1.835   3.305   4.255
 4380TIP3    H113146   1.842   3.337   4.345
 4380TIP3    H213147   1.919   3.328   4.215
 4381TIP3   OH213148   0.333   1.104   3.806
 4381TIP3    H113149   0.341   1.019   3.761
 4381TIP3    H213150   0.421   1.139   3.806
 4382TIP3   OH213151   5.548   5.062   3.340
 4382TIP3    H113152   5.480   5.098   3.282
 4382TIP3    H213153   5.627   5.111   3.318
 4383TIP3   OH213154   3.216   2.466   5.090
 4383TIP3    H113155   3.235   2.376   5.118
 4383TIP3    H213156   3.136   2.458   5.038
 4384TIP3   OH213157   0.713   3.777   2.150
 4384TIP3    H113158   0.802   3.789   2.184
 4384TIP3    H213159   0.702   3.682   2.146
 4385TIP3   OH213160   6.261   5.334   4.464
 4385TIP3    H113161   6.245   5.349   4.370
 4385TIP3    H213162   6.332   5.395   4.485
 4386TIP3   OH213163   3.673   5.643   0.204
 4386TIP3    H113164   3.753   5.688   0.174
 4386TIP3    H213165   3.693   5.617   0.294
 4387TIP3   OH213166   0.256   5.543   1.712
 4387TIP3    H113167   0.350   5.549   1.701
 4387TIP3    H213168   0.222   5.621   1.669
 4388TIP3   OH213169   5.763   3.460   2.858
 4388TIP3    H113170   5.779   3.542   2.905
 4388TIP3    H213171   5.785   3.479   2.767
 4389TIP3   OH213172   2.635   0.276   1.036
 4389TIP3    H113173   2.566   0.210   1.045
 4389TIP3    H213174   2.716   0.225   1.027
 4390TIP3   OH213175   2.166   1.581   1.566
 4390TIP3    H113176   2.145   1.514   1.500
 4390TIP3    H213177   2.160   1.534   1.650
 4391TIP3   OH213178   3.726   5.513   4.350
 4391TIP3    H113179   3.809   5.531   4.394
 4391TIP3    H213180   3.706   5.594   4.304
 4392TIP3   OH213181   2.420   0.728   3.890
 4392TIP3    H113182   2.438   0.822   3.887
 4392TIP3    H213183   2.507   0.686   3.889
 4393TIP3   OH213184   6.194   5.363   3.112
 4393TIP3    H113185   6.224   5.273   3.099
 4393TIP3    H213186   6.139   5.381   3.036
 4394TIP3   OH213187   0.788   5.972   0.278
 4394TIP3    H113188   0.818   5.991   0.367
 4394TIP3    H213189   0.748   5.885   0.284
 4395TIP3   OH213190   3.247   5.467   0.893
 4395TIP3    H113191   3.216   5.396   0.837
 4395TIP3    H213192   3.231   5.546   0.842
 4396TIP3   OH213193   0.737   3.477   1.855
 4396TIP3    H113194   0.804   3.519   1.801
 4396TIP3    H213195   0.756   3.507   1.944
 4397TIP3   OH213196   5.468   1.408   2.745
 4397TIP3    H113197   5.410   1.355   2.799
 4397TIP3    H213198   5.538   1.347   2.720
 4398TIP3   OH213199   2.709   2.549   3.711
 4398TIP3    H113200   2.798   2.584   3.698
 4398TIP3    H213201   2.723   2.463   3.751
 4399TIP3   OH213202   2.300   2.468   1.665
 4399TIP3    H113203   2.380   2.418   1.649
 4399TIP3    H213204   2.286   2.519   1.585
 4400TIP3   OH213205   2.088   3.763   3.415
 4400TIP3    H113206   2.106   3.819   3.490
 4400TIP3    H213207   2.135   3.804   3.343
 4401TIP3   OH213208   5.375   1.946   4.387
 4401TIP3    H113209   5.281   1.934   4.404
 4401TIP3    H213210   5.409   1.857   4.376
 4402TIP3   OH213211   4.253   4.191   4.678
 4402TIP3    H113212   4.298   4.249   4.738
 4402TIP3    H213213   4.301   4.109   4.682
 4403TIP3   OH213214   4.624   5.744   5.108
 4403TIP3    H113215   4.689   5.812   5.088
 4403TIP3    H213216   4.581   5.775   5.188
 4404TIP3   OH213217   3.732   2.074   2.405
 4404TIP3    H113218   3.705   2.166   2.393
 4404TIP3    H213219   3.710   2.055   2.496
 4405TIP3   OH213220   2.037   2.328   2.605
 4405TIP3    H113221   1.962   2.269   2.602
 4405TIP3    H213222   2.094   2.292   2.672
 4406TIP3   OH213223   0.524   3.391   4.611
 4406TIP3    H113224   0.504   3.300   4.632
 4406TIP3    H213225   0.448   3.422   4.561
 4407TIP3   OH213226   5.338   0.202   1.494
 4407TIP3    H113227   5.309   0.120   1.453
 4407TIP3    H213228   5.430   0.211   1.467
 4408TIP3   OH213229   0.077   2.414   2.628
 4408TIP3    H113230   0.089   2.399   2.534
 4408TIP3    H213231   0.162   2.391   2.667
 4409TIP3   OH213232   1.929   0.293   0.783
 4409TIP3    H113233   1.866   0.246   0.727
 4409TIP3    H213234   1.891   0.380   0.793
 4410TIP3   OH213235   1.955   3.144   3.303
 4410TIP3    H113236   1.985   3.134   3.212
 4410TIP3    H213237   1.892   3.216   3.299
 4411TIP3   OH213238   0.788   3.710   0.881
 4411TIP3    H113239   0.838   3.787   0.909
 4411TIP3    H213240   0.718   3.703   0.947
 4412TIP3   OH213241   2.921   1.925   3.304
 4412TIP3    H113242   2.992   1.877   3.347
 4412TIP3    H213243   2.877   1.860   3.249
 4413TIP3   OH213244   0.677   2.062   4.069
 4413TIP3    H113245   0.655   2.056   4.162
 4413TIP3    H213246   0.742   1.994   4.055
 4414TIP3   OH213247   5.748   1.734   1.070
 4414TIP3    H113248   5.753   1.716   1.164
 4414TIP3    H213249   5.665   1.695   1.042
 4415TIP3   OH213250   3.230   2.933   4.504
 4415TIP3    H113251   3.299   2.882   4.546
 4415TIP3    H213252   3.152   2.917   4.557
 4416TIP3   OH213253   3.587   4.395   0.550
 4416TIP3    H113254   3.658   4.342   0.514
 4416TIP3    H213255   3.516   4.389   0.486
 4417TIP3   OH213256   4.922   2.088   2.737
 4417TIP3    H113257   4.840   2.112   2.693
 4417TIP3    H213258   4.894   2.037   2.813
 4418TIP3   OH213259   1.234   1.087   3.680
 4418TIP3    H113260   1.166   1.135   3.632
 4418TIP3    H213261   1.293   1.055   3.611
 4419TIP3   OH213262   4.113   3.563   1.052
 4419TIP3    H113263   4.032   3.515   1.070
 4419TIP3    H213264   4.086   3.654   1.046
 4420TIP3   OH213265   0.727   0.793   4.062
 4420TIP3    H113266   0.768   0.712   4.031
 4420TIP3    H213267   0.665   0.764   4.129
 4421TIP3   OH213268   4.412   2.944   5.086
 4421TIP3    H113269   4.445   2.940   4.996
 4421TIP3    H213270   4.370   3.030   5.092
 4422TIP3   OH213271   3.898   3.497   5.023
 4422TIP3    H113272   3.908   3.459   5.110
 4422TIP3    H213273   3.804   3.514   5.015
 4423TIP3   OH213274   0.135   1.794   3.514
 4423TIP3    H113275   0.195   1.745   3.570
 4423TIP3    H213276   0.188   1.868   3.482
 4424TIP3   OH213277   2.034   0.652   4.407
 4424TIP3    H113278   2.093   0.682   4.338
 4424TIP3    H213279   2.088   0.594   4.461
 4425TIP3   OH213280   4.443   4.420   1.812
 4425TIP3    H113281   4.457   4.514   1.811
 4425TIP3    H213282   4.498   4.387   1.740
 4426TIP3   OH213283   5.132   2.048   0.162
 4426TIP3    H113284   5.129   1.955   0.184
 4426TIP3    H213285   5.089   2.054   0.077
 4427TIP3   OH213286   1.086   3.876   2.717
 4427TIP3    H113287   1.180   3.893   2.708
 4427TIP3    H213288   1.044   3.957   2.689
 4428TIP3   OH213289   3.602   1.562   0.596
 4428TIP3    H113290   3.552   1.530   0.522
 4428TIP3    H213291   3.693   1.539   0.576
 4429TIP3   OH213292   4.813   5.363   0.832
 4429TIP3    H113293   4.788   5.454   0.821
 4429TIP3    H213294   4.746   5.326   0.889
 4430TIP3   OH213295   4.172   1.697   3.234
 4430TIP3    H113296   4.132   1.732   3.154
 4430TIP3    H213297   4.157   1.765   3.300
 4431TIP3   OH213298   3.205   1.847   0.337
 4431TIP3    H113299   3.231   1.894   0.258
 4431TIP3    H213300   3.113   1.825   0.323
 4432TIP3   OH213301   5.557   3.636   1.643
 4432TIP3    H113302   5.633   3.687   1.671
 4432TIP3    H213303   5.553   3.650   1.548
 4433TIP3   OH213304   1.699   3.303   5.122
 4433TIP3    H113305   1.780   3.310   5.070
 4433TIP3    H213306   1.687   3.209   5.133
 4434TIP3   OH213307   0.772   1.580   3.587
 4434TIP3    H113308   0.748   1.658   3.635
 4434TIP3    H213309   0.694   1.558   3.536
 4435TIP3   OH213310   2.844   1.063   0.791
 4435TIP3    H113311   2.762   1.019   0.812
 4435TIP3    H213312   2.885   1.078   0.876
 4436TIP3   OH213313   0.305   3.140   3.719
 4436TIP3    H113314   0.336   3.061   3.675
 4436TIP3    H213315   0.248   3.108   3.788
 4437TIP3   OH213316   1.046   3.586   3.679
 4437TIP3    H113317   1.073   3.552   3.764
 4437TIP3    H213318   0.961   3.627   3.694
 4438TIP3   OH213319   2.251   2.416   0.649
 4438TIP3    H113320   2.186   2.470   0.604
 4438TIP3    H213321   2.205   2.383   0.726
 4439TIP3   OH213322   3.274   0.375   5.146
 4439TIP3    H113323   3.342   0.385   5.213
 4439TIP3    H213324   3.294   0.442   5.081
 4440TIP3   OH213325   1.686   1.572   1.549
 4440TIP3    H113326   1.641   1.492   1.575
 4440TIP3    H213327   1.757   1.582   1.613
 4441TIP3   OH213328   5.145   4.519   3.437
 4441TIP3    H113329   5.232   4.554   3.456
 4441TIP3    H213330   5.093   4.596   3.412
 4442TIP3   OH213331   4.654   0.884   4.003
 4442TIP3    H113332   4.565   0.907   3.974
 4442TIP3    H213333   4.711   0.919   3.935
 4443TIP3   OH213334   2.605   4.341   0.735
 4443TIP3    H113335   2.683   4.392   0.756
 4443TIP3    H213336   2.553   4.396   0.677
 4444TIP3   OH213337   4.848   1.386   4.207
 4444TIP3    H113338   4.881   1.340   4.285
 4444TIP3    H213339   4.828   1.316   4.145
 4445TIP3   OH213340   5.995   3.934   3.246
 4445TIP3    H113341   6.057   3.867   3.277
 4445TIP3    H213342   6.045   3.988   3.186
 4446TIP3   OH213343   5.685   4.640   1.362
 4446TIP3    H113344   5.650   4.599   1.283
 4446TIP3    H213345   5.650   4.729   1.360
 4447TIP3   OH213346   4.499   2.748   1.694
 4447TIP3    H113347   4.578   2.760   1.640
 4447TIP3    H213348   4.515   2.801   1.772
 4448TIP3   OH213349   2.996   0.347   4.379
 4448TIP3    H113350   3.011   0.270   4.324
 4448TIP3    H213351   3.075   0.354   4.432
 4449TIP3   OH213352   2.195   5.977   3.166
 4449TIP3    H113353   2.140   5.934   3.100
 4449TIP3    H213354   2.175   5.931   3.247
 4450TIP3   OH213355   2.267   0.517   4.564
 4450TIP3    H113356   2.354   0.502   4.526
 4450TIP3    H213357   2.280   0.590   4.625
 4451TIP3   OH213358   0.558   4.308   4.183
 4451TIP3    H113359   0.624   4.259   4.233
 4451TIP3    H213360   0.475   4.264   4.203
 4452TIP3   OH213361   1.835   2.319   3.756
 4452TIP3    H113362   1.751   2.329   3.711
 4452TIP3    H213363   1.898   2.361   3.698
 4453TIP3   OH213364   5.339   0.425   0.320
 4453TIP3    H113365   5.330   0.473   0.237
 4453TIP3    H213366   5.366   0.337   0.294
 4454TIP3   OH213367   5.265   2.268   3.403
 4454TIP3    H113368   5.253   2.356   3.367
 4454TIP3    H213369   5.199   2.261   3.472
 4455TIP3   OH213370   6.303   4.634   2.614
 4455TIP3    H113371   6.322   4.603   2.702
 4455TIP3    H213372   6.255   4.563   2.573
 4456TIP3   OH213373   2.607   4.926   2.378
 4456TIP3    H113374   2.592   4.841   2.336
 4456TIP3    H213375   2.660   4.974   2.315
 4457TIP3   OH213376   0.477   4.094   4.958
 4457TIP3    H113377   0.485   4.030   4.887
 4457TIP3    H213378   0.537   4.062   5.025
 4458TIP3   OH213379   3.818   0.164   1.402
 4458TIP3    H113380   3.727   0.191   1.390
 4458TIP3    H213381   3.823   0.078   1.360
 4459TIP3   OH213382   4.995   0.676   2.298
 4459TIP3    H113383   5.008   0.582   2.288
 4459TIP3    H213384   5.046   0.715   2.228
 4460TIP3   OH213385   4.561   4.910   3.741
 4460TIP3    H113386   4.501   4.882   3.810
 4460TIP3    H213387   4.648   4.888   3.774
 4461TIP3   OH213388   4.077   3.064   0.306
 4461TIP3    H113389   3.987   3.095   0.307
 4461TIP3    H213390   4.129   3.144   0.294
 4462TIP3   OH213391   2.181   2.807   3.875
 4462TIP3    H113392   2.141   2.793   3.961
 4462TIP3    H213393   2.196   2.719   3.841
 4463TIP3   OH213394   2.119   0.858   2.868
 4463TIP3    H113395   2.103   0.887   2.958
 4463TIP3    H213396   2.035   0.824   2.838
 4464TIP3   OH213397   1.429   4.452   2.632
 4464TIP3    H113398   1.465   4.528   2.588
 4464TIP3    H213399   1.433   4.473   2.725
 4465TIP3   OH213400   0.394   4.159   1.723
 4465TIP3    H113401   0.397   4.194   1.634
 4465TIP3    H213402   0.486   4.158   1.752
 4466TIP3   OH213403   4.405   2.042   2.547
 4466TIP3    H113404   4.433   1.954   2.522
 4466TIP3    H213405   4.363   2.077   2.469
 4467TIP3   OH213406   1.623   2.881   4.530
 4467TIP3    H113407   1.631   2.948   4.463
 4467TIP3    H213408   1.655   2.924   4.610
 4468TIP3   OH213409   1.779   4.117   0.159
 4468TIP3    H113410   1.837   4.061   0.211
 4468TIP3    H213411   1.715   4.150   0.223
 4469TIP3   OH213412   3.420   4.227   0.664
 4469TIP3    H113413   3.451   4.138   0.681
 4469TIP3    H213414   3.499   4.276   0.641
 4470TIP3   OH213415   2.338   1.278   0.271
 4470TIP3    H113416   2.368   1.319   0.190
 4470TIP3    H213417   2.392   1.200   0.280
 4471TIP3   OH213418   2.528   4.188   3.094
 4471TIP3    H113419   2.522   4.266   3.040
 4471TIP3    H213420   2.580   4.215   3.170
 4472TIP3   OH213421   2.781   4.937   3.733
 4472TIP3    H113422   2.853   4.878   3.754
 4472TIP3    H213423   2.775   4.935   3.637
 4473TIP3   OH213424   2.610   4.443   3.228
 4473TIP3    H113425   2.544   4.460   3.294
 4473TIP3    H213426   2.592   4.506   3.159
 4474TIP3   OH213427   2.340   0.005   5.094
 4474TIP3    H113428   2.407   0.072   5.107
 4474TIP3    H213429   2.295   0.000   5.178
 4475TIP3   OH213430   0.778   3.136   1.435
 4475TIP3    H113431   0.771   3.090   1.351
 4475TIP3    H213432   0.867   3.172   1.434
 4476TIP3   OH213433   3.733   5.239   4.476
 4476TIP3    H113434   3.753   5.312   4.418
 4476TIP3    H213435   3.782   5.257   4.556
 4477TIP3   OH213436   4.235   5.659   2.677
 4477TIP3    H113437   4.169   5.625   2.616
 4477TIP3    H213438   4.297   5.587   2.688
 4478TIP3   OH213439   2.607   1.586   3.682
 4478TIP3    H113440   2.697   1.607   3.659
 4478TIP3    H213441   2.573   1.667   3.721
 4479TIP3   OH213442   1.458   5.721   0.144
 4479TIP3    H113443   1.467   5.666   0.222
 4479TIP3    H213444   1.543   5.762   0.133
 4480TIP3   OH213445   4.817   1.596   0.298
 4480TIP3    H113446   4.821   1.503   0.278
 4480TIP3    H213447   4.895   1.613   0.351
 4481TIP3   OH213448   1.816   3.898   4.584
 4481TIP3    H113449   1.756   3.963   4.621
 4481TIP3    H213450   1.893   3.947   4.558
 4482TIP3   OH213451   1.788   5.151   3.995
 4482TIP3    H113452   1.725   5.136   3.924
 4482TIP3    H213453   1.734   5.159   4.073
 4483TIP3   OH213454   0.266   0.684   5.166
 4483TIP3    H113455   0.196   0.739   5.202
 4483TIP3    H213456   0.223   0.601   5.146
 4484TIP3   OH213457   0.294   5.488   3.976
 4484TIP3    H113458   0.226   5.422   3.962
 4484TIP3    H213459   0.328   5.507   3.888
 4485TIP3   OH213460   3.328   1.391   1.645
 4485TIP3    H113461   3.326   1.296   1.657
 4485TIP3    H213462   3.343   1.403   1.551
 4486TIP3   OH213463   4.365   2.627   0.050
 4486TIP3    H113464   4.275   2.622   0.085
 4486TIP3    H213465   4.374   2.549  -0.004
 4487TIP3   OH213466   4.531   0.045   4.657
 4487TIP3    H113467   4.438   0.039   4.681
 4487TIP3    H213468   4.571   0.094   4.729
 4488TIP3   OH213469   3.929   2.698   5.161
 4488TIP3    H113470   3.994   2.632   5.136
 4488TIP3    H213471   3.909   2.680   5.252
 4489TIP3   OH213472   2.391   1.171   1.450
 4489TIP3    H113473   2.302   1.138   1.464
 4489TIP3    H213474   2.386   1.263   1.472
 4490TIP3   OH213475   3.940   4.286   2.922
 4490TIP3    H113476   3.990   4.364   2.946
 4490TIP3    H213477   3.974   4.217   2.978
 4491TIP3   OH213478   2.608   0.898   0.123
 4491TIP3    H113479   2.532   0.938   0.168
 4491TIP3    H213480   2.666   0.871   0.194
 4492TIP3   OH213481   0.449   3.956   0.730
 4492TIP3    H113482   0.438   3.974   0.823
 4492TIP3    H213483   0.396   3.878   0.714
 4493TIP3   OH213484   3.320   5.444   2.081
 4493TIP3    H113485   3.243   5.493   2.054
 4493TIP3    H213486   3.354   5.406   2.000
 4494TIP3   OH213487   2.735   1.269   0.618
 4494TIP3    H113488   2.777   1.184   0.629
 4494TIP3    H213489   2.746   1.289   0.525
 4495TIP3   OH213490   5.930   4.503   4.091
 4495TIP3    H113491   5.986   4.512   4.014
 4495TIP3    H213492   5.885   4.420   4.079
 4496TIP3   OH213493   2.235   4.855   1.907
 4496TIP3    H113494   2.151   4.879   1.947
 4496TIP3    H213495   2.298   4.917   1.944
 4497TIP3   OH213496   1.313   5.271   2.370
 4497TIP3    H113497   1.360   5.229   2.298
 4497TIP3    H213498   1.337   5.219   2.447
 4498TIP3   OH213499   0.261   3.993   1.886
 4498TIP3    H113500   0.309   4.066   1.846
 4498TIP3    H213501   0.176   3.993   1.842
 4499TIP3   OH213502   3.706   3.956   3.941
 4499TIP3    H113503   3.625   3.984   3.899
 4499TIP3    H213504   3.753   3.906   3.873
 4500TIP3   OH213505   5.011   3.147   1.141
 4500TIP3    H113506   5.010   3.237   1.174
 4500TIP3    H213507   5.104   3.127   1.129
 4501TIP3   OH213508   4.546   4.584   3.684
 4501TIP3    H113509   4.627   4.533   3.673
 4501TIP3    H213510   4.572   4.674   3.666
 4502TIP3   OH213511   4.982   5.830   0.353
 4502TIP3    H113512   5.071   5.862   0.340
 4502TIP3    H213513   4.963   5.779   0.274
 4503TIP3   OH213514   3.688   4.950   4.435
 4503TIP3    H113515   3.720   5.038   4.455
 4503TIP3    H213516   3.674   4.952   4.340
 4504TIP3   OH213517   5.719   4.480   0.416
 4504TIP3    H113518   5.729   4.470   0.321
 4504TIP3    H213519   5.670   4.402   0.443
 4505TIP3   OH213520   2.280   2.534   1.936
 4505TIP3    H113521   2.330   2.452   1.935
 4505TIP3    H213522   2.267   2.556   1.844
 4506TIP3   OH213523   1.921   4.225   3.514
 4506TIP3    H113524   1.895   4.190   3.428
 4506TIP3    H213525   1.843   4.270   3.547
 4507TIP3   OH213526   4.865   2.596   3.284
 4507TIP3    H113527   4.923   2.645   3.226
 4507TIP3    H213528   4.827   2.663   3.342
 4508TIP3   OH213529   4.750   2.600   3.751
 4508TIP3    H113530   4.689   2.615   3.823
 4508TIP3    H213531   4.806   2.678   3.751
 4509TIP3   OH213532   4.567   4.463   0.965
 4509TIP3    H113533   4.524   4.527   0.907
 4509TIP3    H213534   4.539   4.378   0.932
 4510TIP3   OH213535   6.222   0.193   5.091
 4510TIP3    H113536   6.199   0.118   5.037
 4510TIP3    H213537   6.256   0.258   5.029
 4511TIP3   OH213538   3.303   0.593   2.758
 4511TIP3    H113539   3.230   0.531   2.767
 4511TIP3    H213540   3.290   0.633   2.672
 4512TIP3   OH213541   2.180   5.173   4.420
 4512TIP3    H113542   2.252   5.165   4.357
 4512TIP3    H213543   2.151   5.082   4.434
 4513TIP3   OH213544   0.806   3.571   5.016
 4513TIP3    H113545   0.895   3.599   4.996
 4513TIP3    H213546   0.752   3.647   4.999
 4514TIP3   OH213547   3.693   2.266   4.247
 4514TIP3    H113548   3.763   2.266   4.181
 4514TIP3    H213549   3.612   2.274   4.196
 4515TIP3   OH213550   3.531   5.415   3.271
 4515TIP3    H113551   3.507   5.370   3.190
 4515TIP3    H213552   3.590   5.354   3.315
 4516TIP3   OH213553   5.533   5.059   4.867
 4516TIP3    H113554   5.585   5.139   4.880
 4516TIP3    H213555   5.598   4.993   4.842
 4517TIP3   OH213556   4.322   4.464   4.772
 4517TIP3    H113557   4.359   4.441   4.687
 4517TIP3    H213558   4.233   4.493   4.753
 4518TIP3   OH213559   2.504   0.565   3.370
 4518TIP3    H113560   2.564   0.582   3.297
 4518TIP3    H213561   2.484   0.653   3.404
 4519TIP3   OH213562   5.696   0.276   1.420
 4519TIP3    H113563   5.735   0.361   1.401
 4519TIP3    H213564   5.635   0.260   1.347
 4520TIP3   OH213565   3.508   5.998   0.250
 4520TIP3    H113566   3.600   5.976   0.264
 4520TIP3    H213567   3.461   5.916   0.266
 4521TIP3   OH213568   2.021   3.162   4.984
 4521TIP3    H113569   2.115   3.147   4.968
 4521TIP3    H213570   2.013   3.162   5.079
 4522TIP3   OH213571   4.310   1.517   0.290
 4522TIP3    H113572   4.358   1.556   0.363
 4522TIP3    H213573   4.274   1.592   0.242
 4523TIP3   OH213574   4.283   3.048   2.679
 4523TIP3    H113575   4.308   3.037   2.588
 4523TIP3    H213576   4.294   2.961   2.718
 4524TIP3   OH213577   6.255   1.315   2.795
 4524TIP3    H113578   6.197   1.288   2.724
 4524TIP3    H213579   6.254   1.411   2.790
 4525TIP3   OH213580   1.294   2.239   1.821
 4525TIP3    H113581   1.356   2.200   1.882
 4525TIP3    H213582   1.301   2.185   1.742
 4526TIP3   OH213583   0.671   2.769   5.123
 4526TIP3    H113584   0.578   2.787   5.115
 4526TIP3    H213585   0.710   2.805   5.043
 4527TIP3   OH213586   3.435   2.840   4.672
 4527TIP3    H113587   3.530   2.843   4.685
 4527TIP3    H213588   3.398   2.849   4.759
 4528TIP3   OH213589   5.319   3.526   4.225
 4528TIP3    H113590   5.400   3.476   4.209
 4528TIP3    H213591   5.296   3.563   4.140
 4529TIP3   OH213592   0.373   1.560   0.960
 4529TIP3    H113593   0.382   1.648   0.923
 4529TIP3    H213594   0.316   1.571   1.036
 4530TIP3   OH213595   4.766   3.108   5.176
 4530TIP3    H113596   4.815   3.026   5.173
 4530TIP3    H213597   4.775   3.144   5.088
 4531TIP3   OH213598   3.455   1.118   2.504
 4531TIP3    H113599   3.525   1.165   2.459
 4531TIP3    H213600   3.461   1.147   2.595
 4532TIP3   OH213601   3.960   4.902   0.252
 4532TIP3    H113602   4.001   4.918   0.337
 4532TIP3    H213603   3.917   4.985   0.230
 4533TIP3   OH213604   4.572   0.321   5.033
 4533TIP3    H113605   4.535   0.303   5.120
 4533TIP3    H213606   4.539   0.408   5.011
 4534TIP3   OH213607   2.829   3.221   4.440
 4534TIP3    H113608   2.771   3.251   4.510
 4534TIP3    H213609   2.826   3.290   4.374
 4535TIP3   OH213610   1.578   4.042   0.563
 4535TIP3    H113611   1.644   4.065   0.628
 4535TIP3    H213612   1.496   4.080   0.596
 4536TIP3   OH213613   2.968   2.971   4.602
 4536TIP3    H113614   2.954   2.991   4.694
 4536TIP3    H213615   2.935   3.048   4.556
 4537TIP3   OH213616   3.108   1.662   4.685
 4537TIP3    H113617   3.137   1.752   4.696
 4537TIP3    H213618   3.149   1.634   4.603
 4538TIP3   OH213619   1.031   4.241   0.834
 4538TIP3    H113620   1.030   4.158   0.787
 4538TIP3    H213621   1.029   4.216   0.927
 4539TIP3   OH213622   2.703   2.859   3.782
 4539TIP3    H113623   2.792   2.887   3.806
 4539TIP3    H213624   2.697   2.769   3.813
 4540TIP3   OH213625   1.809   3.563   0.442
 4540TIP3    H113626   1.800   3.546   0.536
 4540TIP3    H213627   1.783   3.654   0.431
 4541TIP3   OH213628   2.568   5.097   1.275
 4541TIP3    H113629   2.647   5.064   1.317
 4541TIP3    H213630   2.522   5.019   1.245
 4542TIP3   OH213631   2.431   4.498   0.563
 4542TIP3    H113632   2.426   4.590   0.539
 4542TIP3    H213633   2.340   4.473   0.582
 4543TIP3   OH213634   5.594   3.905  -0.012
 4543TIP3    H113635   5.506   3.870   0.003
 4543TIP3    H213636   5.651   3.846   0.037
 4544TIP3   OH213637   0.520   1.011   4.645
 4544TIP3    H113638   0.455   1.040   4.709
 4544TIP3    H213639   0.603   1.016   4.693
 4545TIP3   OH213640   6.162   3.473   1.782
 4545TIP3    H113641   6.246   3.441   1.750
 4545TIP3    H213642   6.180   3.502   1.871
 4546TIP3   OH213643   0.474   3.994   1.026
 4546TIP3    H113644   0.543   3.931   1.008
 4546TIP3    H213645   0.467   3.995   1.122
 4547TIP3   OH213646   2.476   1.010   2.906
 4547TIP3    H113647   2.430   0.941   2.860
 4547TIP3    H213648   2.497   0.973   2.992
 4548TIP3   OH213649   2.866   1.501   4.607
 4548TIP3    H113650   2.880   1.588   4.570
 4548TIP3    H213651   2.916   1.502   4.689
 4549TIP3   OH213652   3.714   4.787   4.074
 4549TIP3    H113653   3.640   4.731   4.096
 4549TIP3    H213654   3.707   4.860   4.135
 4550TIP3   OH213655   2.228   1.973   2.663
 4550TIP3    H113656   2.277   1.915   2.720
 4550TIP3    H213657   2.186   1.915   2.600
 4551TIP3   OH213658   2.188   4.691   1.244
 4551TIP3    H113659   2.258   4.628   1.263
 4551TIP3    H213660   2.222   4.745   1.173
 4552TIP3   OH213661   5.233   2.662   4.970
 4552TIP3    H113662   5.232   2.572   4.936
 4552TIP3    H213663   5.319   2.671   5.011
 4553TIP3   OH213664   5.093   5.436   2.560
 4553TIP3    H113665   5.178   5.392   2.560
 4553TIP3    H213666   5.036   5.379   2.611
 4554TIP3   OH213667   5.104   3.427   0.017
 4554TIP3    H113668   5.186   3.425  -0.032
 4554TIP3    H213669   5.081   3.335   0.030
 4555TIP3   OH213670   5.557   4.308   2.301
 4555TIP3    H113671   5.491   4.245   2.274
 4555TIP3    H213672   5.572   4.290   2.394
 4556TIP3   OH213673   5.464   2.484   4.658
 4556TIP3    H113674   5.411   2.412   4.626
 4556TIP3    H213675   5.518   2.445   4.727
 4557TIP3   OH213676   4.999   3.804   4.720
 4557TIP3    H113677   4.987   3.827   4.628
 4557TIP3    H213678   5.091   3.822   4.737
 4558TIP3   OH213679   0.882   1.635   4.674
 4558TIP3    H113680   0.937   1.564   4.706
 4558TIP3    H213681   0.847   1.602   4.591
 4559TIP3   OH213682   2.636   3.289   2.478
 4559TIP3    H113683   2.613   3.212   2.427
 4559TIP3    H213684   2.594   3.276   2.563
 4560TIP3   OH213685   6.159   2.298   3.919
 4560TIP3    H113686   6.237   2.250   3.947
 4560TIP3    H213687   6.160   2.378   3.972
 4561TIP3   OH213688   6.034   4.185   1.658
 4561TIP3    H113689   5.967   4.176   1.590
 4561TIP3    H213690   5.987   4.216   1.735
 4562TIP3   OH213691   4.443   2.534   1.118
 4562TIP3    H113692   4.414   2.478   1.047
 4562TIP3    H213693   4.538   2.541   1.106
 4563TIP3   OH213694   0.498   1.608   2.180
 4563TIP3    H113695   0.522   1.517   2.198
 4563TIP3    H213696   0.575   1.644   2.136
 4564TIP3   OH213697   3.751   3.754   3.464
 4564TIP3    H113698   3.735   3.835   3.416
 4564TIP3    H213699   3.668   3.735   3.508
 4565TIP3   OH213700   1.734   5.141   0.760
 4565TIP3    H113701   1.710   5.071   0.821
 4565TIP3    H213702   1.710   5.222   0.806
 4566TIP3   OH213703   0.394   5.837   2.182
 4566TIP3    H113704   0.404   5.746   2.154
 4566TIP3    H213705   0.310   5.864   2.146
 4567TIP3   OH213706   4.629   3.996   2.445
 4567TIP3    H113707   4.703   3.938   2.426
 4567TIP3    H213708   4.628   4.058   2.372
 4568TIP3   OH213709   3.137   4.307   2.222
 4568TIP3    H113710   3.196   4.313   2.297
 4568TIP3    H213711   3.176   4.240   2.166
 4569TIP3   OH213712   3.198   3.449   0.605
 4569TIP3    H113713   3.257   3.464   0.531
 4569TIP3    H213714   3.151   3.532   0.616
 4570TIP3   OH213715   2.918   4.632   4.202
 4570TIP3    H113716   2.936   4.554   4.150
 4570TIP3    H213717   2.824   4.628   4.221
 4571TIP3   OH213718   3.199   2.403   3.724
 4571TIP3    H113719   3.283   2.376   3.760
 4571TIP3    H213720   3.140   2.405   3.799
 4572TIP3   OH213721   5.889   0.065   2.568
 4572TIP3    H113722   5.864  -0.021   2.603
 4572TIP3    H213723   5.816   0.122   2.591
 4573TIP3   OH213724   2.913   2.508   1.730
 4573TIP3    H113725   2.820   2.485   1.731
 4573TIP3    H213726   2.958   2.427   1.708
 4574TIP3   OH213727   3.685   1.617   1.175
 4574TIP3    H113728   3.699   1.694   1.231
 4574TIP3    H213729   3.589   1.606   1.173
 4575TIP3   OH213730   2.974   5.600   3.737
 4575TIP3    H113731   3.012   5.688   3.738
 4575TIP3    H213732   2.891   5.610   3.691
 4576TIP3   OH213733   5.044   3.348   1.585
 4576TIP3    H113734   5.085   3.262   1.581
 4576TIP3    H213735   4.971   3.338   1.645
 4577TIP3   OH213736   0.268   1.594   0.360
 4577TIP3    H113737   0.234   1.597   0.450
 4577TIP3    H213738   0.359   1.569   0.370
 4578TIP3   OH213739   4.869   0.114   4.178
 4578TIP3    H113740   4.940   0.179   4.176
 4578TIP3    H213741   4.790   0.165   4.164
 4579TIP3   OH213742   2.702   3.364   0.108
 4579TIP3    H113743   2.644   3.431   0.145
 4579TIP3    H213744   2.738   3.319   0.185
 4580TIP3   OH213745   4.023   3.284   2.746
 4580TIP3    H113746   3.950   3.269   2.686
 4580TIP3    H213747   4.036   3.200   2.790
 4581TIP3   OH213748   4.378   3.245   0.357
 4581TIP3    H113749   4.412   3.206   0.437
 4581TIP3    H213750   4.456   3.282   0.314
 4582TIP3   OH213751   2.891   3.525   4.055
 4582TIP3    H113752   2.855   3.444   4.019
 4582TIP3    H213753   2.894   3.511   4.149
 4583TIP3   OH213754   6.078   4.818   1.416
 4583TIP3    H113755   6.070   4.730   1.380
 4583TIP3    H213756   6.000   4.864   1.385
 4584TIP3   OH213757   3.461   2.772   0.663
 4584TIP3    H113758   3.376   2.731   0.651
 4584TIP3    H213759   3.445   2.843   0.725
 4585TIP3   OH213760   5.967   0.287   0.850
 4585TIP3    H113761   5.887   0.269   0.799
 4585TIP3    H213762   6.038   0.283   0.785
 4586TIP3   OH213763   3.482   4.649   3.784
 4586TIP3    H113764   3.526   4.669   3.701
 4586TIP3    H213765   3.416   4.584   3.761
 4587TIP3   OH213766   1.504   5.274   1.984
 4587TIP3    H113767   1.417   5.308   2.009
 4587TIP3    H213768   1.547   5.348   1.943
 4588TIP3   OH213769   1.042   3.865   1.950
 4588TIP3    H113770   1.079   3.777   1.944
 4588TIP3    H213771   1.048   3.899   1.861
 4589TIP3   OH213772   3.792   0.549   2.387
 4589TIP3    H113773   3.796   0.641   2.361
 4589TIP3    H213774   3.704   0.538   2.423
 4590TIP3   OH213775   3.631   4.139   1.828
 4590TIP3    H113776   3.587   4.202   1.772
 4590TIP3    H213777   3.570   4.066   1.834
 4591TIP3   OH213778   6.154   0.396   0.618
 4591TIP3    H113779   6.143   0.313   0.572
 4591TIP3    H213780   6.064   0.428   0.632
 4592TIP3   OH213781   2.576   5.507   1.689
 4592TIP3    H113782   2.538   5.484   1.605
 4592TIP3    H213783   2.501   5.527   1.745
 4593TIP3   OH213784   2.374   0.523   0.979
 4593TIP3    H113785   2.375   0.504   1.073
 4593TIP3    H213786   2.439   0.592   0.968
 4594TIP3   OH213787   3.701   5.768   4.691
 4594TIP3    H113788   3.628   5.711   4.668
 4594TIP3    H213789   3.748   5.783   4.608
 4595TIP3   OH213790   0.537   4.395   1.558
 4595TIP3    H113791   0.586   4.346   1.492
 4595TIP3    H213792   0.463   4.432   1.510
 4596TIP3   OH213793   4.651   3.180   1.320
 4596TIP3    H113794   4.586   3.139   1.376
 4596TIP3    H213795   4.692   3.106   1.273
 4597TIP3   OH213796   1.428   4.313   0.974
 4597TIP3    H113797   1.385   4.360   0.902
 4597TIP3    H213798   1.357   4.274   1.024
 4598TIP3   OH213799   2.285   4.330   1.026
 4598TIP3    H113800   2.197   4.292   1.028
 4598TIP3    H213801   2.341   4.259   0.993
 4599TIP3   OH213802   2.814   5.944   4.402
 4599TIP3    H113803   2.790   5.969   4.313
 4599TIP3    H213804   2.751   5.989   4.458
 4600TIP3   OH213805   4.329   2.269   3.044
 4600TIP3    H113806   4.370   2.208   3.105
 4600TIP3    H213807   4.277   2.212   2.986
 4601TIP3   OH213808   1.091   4.964   3.148
 4601TIP3    H113809   1.002   4.956   3.114
 4601TIP3    H213810   1.137   5.016   3.082
 4602TIP3   OH213811   5.538   2.434   3.541
 4602TIP3    H113812   5.511   2.359   3.487
 4602TIP3    H213813   5.476   2.435   3.614
 4603TIP3   OH213814   4.928   1.460   1.469
 4603TIP3    H113815   4.931   1.415   1.554
 4603TIP3    H213816   4.844   1.507   1.471
 4604TIP3   OH213817   3.954   1.145   2.490
 4604TIP3    H113818   3.897   1.222   2.497
 4604TIP3    H213819   3.966   1.133   2.396
 4605TIP3   OH213820   4.544   0.800   2.487
 4605TIP3    H113821   4.554   0.855   2.564
 4605TIP3    H213822   4.631   0.798   2.447
 4606TIP3   OH213823   2.437   2.111   3.605
 4606TIP3    H113824   2.346   2.121   3.577
 4606TIP3    H213825   2.449   2.016   3.614
 4607TIP3   OH213826   1.795   3.553   3.521
 4607TIP3    H113827   1.843   3.568   3.439
 4607TIP3    H213828   1.711   3.598   3.508
 4608TIP3   OH213829   1.403   0.432   4.904
 4608TIP3    H113830   1.353   0.461   4.827
 4608TIP3    H213831   1.387   0.338   4.909
 4609TIP3   OH213832   1.353   3.169   4.172
 4609TIP3    H113833   1.366   3.254   4.214
 4609TIP3    H213834   1.441   3.143   4.144
 4610TIP3   OH213835   5.411   5.462   4.266
 4610TIP3    H113836   5.492   5.430   4.306
 4610TIP3    H213837   5.420   5.558   4.268
 4611TIP3   OH213838   1.439   0.850   5.163
 4611TIP3    H113839   1.526   0.809   5.164
 4611TIP3    H213840   1.384   0.788   5.115
 4612TIP3   OH213841   6.123   0.964   3.178
 4612TIP3    H113842   6.129   1.056   3.153
 4612TIP3    H213843   6.046   0.932   3.131
 4613TIP3   OH213844   4.991   4.566   4.450
 4613TIP3    H113845   4.981   4.584   4.357
 4613TIP3    H213846   4.936   4.631   4.494
 4614TIP3   OH213847   4.799   5.823   1.009
 4614TIP3    H113848   4.728   5.867   1.056
 4614TIP3    H213849   4.868   5.889   1.004
 4615TIP3   OH213850   2.585   4.713   2.761
 4615TIP3    H113851   2.506   4.748   2.719
 4615TIP3    H213852   2.631   4.667   2.691
 4616TIP3   OH213853   0.691   1.893   1.825
 4616TIP3    H113854   0.768   1.950   1.831
 4616TIP3    H213855   0.623   1.938   1.875
 4617TIP3   OH213856   4.771   5.497   1.733
 4617TIP3    H113857   4.734   5.410   1.745
 4617TIP3    H213858   4.696   5.551   1.707
 4618TIP3   OH213859   0.796   3.691   3.647
 4618TIP3    H113860   0.727   3.651   3.700
 4618TIP3    H213861   0.769   3.675   3.556
 4619TIP3   OH213862   3.323   3.667   3.278
 4619TIP3    H113863   3.301   3.676   3.185
 4619TIP3    H213864   3.418   3.670   3.280
 4620TIP3   OH213865   2.012   5.236   1.297
 4620TIP3    H113866   1.939   5.294   1.280
 4620TIP3    H213867   2.035   5.252   1.389
 4621TIP3   OH213868   0.233   5.133   0.112
 4621TIP3    H113869   0.308   5.131   0.170
 4621TIP3    H213870   0.241   5.217   0.065
 4622TIP3   OH213871   4.886   3.756   4.326
 4622TIP3    H113872   4.913   3.666   4.345
 4622TIP3    H213873   4.903   3.767   4.233
 4623TIP3   OH213874   2.682   2.751   2.797
 4623TIP3    H113875   2.767   2.744   2.840
 4623TIP3    H213876   2.694   2.819   2.730
 4624TIP3   OH213877   5.203   5.085   1.875
 4624TIP3    H113878   5.237   5.054   1.791
 4624TIP3    H213879   5.111   5.105   1.857
 4625TIP3   OH213880   0.321   5.141   1.654
 4625TIP3    H113881   0.281   5.216   1.610
 4625TIP3    H213882   0.255   5.111   1.716
 4626TIP3   OH213883   2.983   5.388   1.979
 4626TIP3    H113884   2.974   5.296   2.006
 4626TIP3    H213885   2.898   5.409   1.940
 4627TIP3   OH213886   4.540   5.538   3.051
 4627TIP3    H113887   4.499   5.544   3.138
 4627TIP3    H213888   4.622   5.586   3.060
 4628TIP3   OH213889   3.246   0.170   1.197
 4628TIP3    H113890   3.151   0.166   1.197
 4628TIP3    H213891   3.273   0.089   1.242
 4629TIP3   OH213892   1.934   4.432   0.419
 4629TIP3    H113893   1.973   4.382   0.348
 4629TIP3    H213894   1.986   4.513   0.423
 4630TIP3   OH213895   4.106   5.391   0.397
 4630TIP3    H113896   4.174   5.324   0.395
 4630TIP3    H213897   4.040   5.361   0.335
 4631TIP3   OH213898   6.219   5.021  -0.002
 4631TIP3    H113899   6.245   5.113   0.002
 4631TIP3    H213900   6.187   5.001   0.086
 4632TIP3   OH213901   1.884   0.886   4.959
 4632TIP3    H113902   1.943   0.833   4.905
 4632TIP3    H213903   1.799   0.879   4.917
 4633TIP3   OH213904   0.298   5.891   1.817
 4633TIP3    H113905   0.257   5.891   1.731
 4633TIP3    H213906   0.366   5.824   1.811
 4634TIP3   OH213907   1.240   4.425   0.475
 4634TIP3    H113908   1.156   4.463   0.450
 4634TIP3    H213909   1.289   4.420   0.393
 4635TIP3   OH213910   2.981   2.198   4.663
 4635TIP3    H113911   2.915   2.206   4.733
 4635TIP3    H213912   3.064   2.187   4.710
 4636TIP3   OH213913   5.940   3.945   0.067
 4636TIP3    H113914   6.000   3.961  -0.006
 4636TIP3    H213915   5.976   3.995   0.140
 4637TIP3   OH213916   0.045   0.711   3.983
 4637TIP3    H113917   0.113   0.651   4.013
 4637TIP3    H213918   0.027   0.685   3.893
 4638TIP3   OH213919   3.961   0.611   3.592
 4638TIP3    H113920   3.930   0.525   3.618
 4638TIP3    H213921   4.053   0.597   3.569
 4639TIP3   OH213922   2.634   4.640   0.861
 4639TIP3    H113923   2.688   4.625   0.939
 4639TIP3    H213924   2.686   4.701   0.808
 4640TIP3   OH213925   2.152   4.462   1.675
 4640TIP3    H113926   2.219   4.420   1.621
 4640TIP3    H213927   2.182   4.552   1.686
 4641TIP3   OH213928   1.122   0.221   3.189
 4641TIP3    H113929   1.146   0.308   3.223
 4641TIP3    H213930   1.144   0.226   3.096
 4642TIP3   OH213931   0.031   5.602   2.872
 4642TIP3    H113932  -0.023   5.600   2.951
 4642TIP3    H213933   0.044   5.510   2.850
 4643TIP3   OH213934   0.610   1.778   3.435
 4643TIP3    H113935   0.543   1.747   3.374
 4643TIP3    H213936   0.693   1.753   3.394
 4644TIP3   OH213937   3.126   4.228   3.863
 4644TIP3    H113938   3.217   4.236   3.894
 4644TIP3    H213939   3.097   4.143   3.896
 4645TIP3   OH213940   5.151   5.420   3.159
 4645TIP3    H113941   5.065   5.394   3.127
 4645TIP3    H213942   5.182   5.484   3.094
 4646TIP3   OH213943   1.602   1.555   0.008
 4646TIP3    H113944   1.669   1.538  -0.059
 4646TIP3    H213945   1.632   1.507   0.085
 4647TIP3   OH213946   0.116   5.146   0.815
 4647TIP3    H113947   0.158   5.209   0.873
 4647TIP3    H213948   0.158   5.160   0.730
 4648TIP3   OH213949   1.213   5.776   4.349
 4648TIP3    H113950   1.147   5.725   4.303
 4648TIP3    H213951   1.194   5.761   4.442
 4649TIP3   OH213952   1.242   0.500   1.040
 4649TIP3    H113953   1.213   0.579   1.087
 4649TIP3    H213954   1.335   0.494   1.057
 4650TIP3   OH213955   4.997   2.771   3.101
 4650TIP3    H113956   5.083   2.806   3.125
 4650TIP3    H213957   4.984   2.800   3.011
 4651TIP3   OH213958   4.900   0.421   4.423
 4651TIP3    H113959   4.900   0.399   4.516
 4651TIP3    H213960   4.985   0.391   4.391
 4652TIP3   OH213961   5.787   1.052   2.502
 4652TIP3    H113962   5.768   0.987   2.434
 4652TIP3    H213963   5.816   0.999   2.577
 4653TIP3   OH213964   4.266   2.926   0.162
 4653TIP3    H113965   4.233   2.844   0.125
 4653TIP3    H213966   4.191   2.963   0.209
 4654TIP3   OH213967   5.229   3.773   2.385
 4654TIP3    H113968   5.220   3.719   2.464
 4654TIP3    H213969   5.266   3.855   2.417
 4655TIP3   OH213970   4.058   5.236   2.250
 4655TIP3    H113971   4.016   5.314   2.214
 4655TIP3    H213972   4.009   5.216   2.329
 4656TIP3   OH213973   2.626   0.872   0.827
 4656TIP3    H113974   2.634   0.817   0.905
 4656TIP3    H213975   2.537   0.854   0.794
 4657TIP3   OH213976   4.259   3.751   1.346
 4657TIP3    H113977   4.296   3.715   1.265
 4657TIP3    H213978   4.312   3.828   1.365
 4658TIP3   OH213979   0.337   4.514   0.272
 4658TIP3    H113980   0.331   4.526   0.177
 4658TIP3    H213981   0.421   4.471   0.285
 4659TIP3   OH213982   2.819   3.170   1.777
 4659TIP3    H113983   2.751   3.108   1.804
 4659TIP3    H213984   2.838   3.221   1.856
 4660TIP3   OH213985   4.294   0.979   1.602
 4660TIP3    H113986   4.284   0.895   1.556
 4660TIP3    H213987   4.370   0.966   1.659
 4661TIP3   OH213988   0.487   2.702   0.400
 4661TIP3    H113989   0.469   2.620   0.354
 4661TIP3    H213990   0.544   2.676   0.473
 4662TIP3   OH213991   3.078   5.844   5.158
 4662TIP3    H113992   3.157   5.804   5.194
 4662TIP3    H213993   3.040   5.776   5.102
 4663TIP3   OH213994   5.666   2.987   5.080
 4663TIP3    H113995   5.711   3.041   5.146
 4663TIP3    H213996   5.733   2.927   5.049
 4664TIP3   OH213997   1.140   0.316   3.856
 4664TIP3    H113998   1.076   0.276   3.914
 4664TIP3    H213999   1.114   0.408   3.851
 4665TIP3   OH214000   4.858   1.118   1.468
 4665TIP3    H114001   4.857   1.180   1.541
 4665TIP3    H214002   4.801   1.158   1.402
 4666TIP3   OH214003   0.233   0.114   4.498
 4666TIP3    H114004   0.268   0.071   4.577
 4666TIP3    H214005   0.311   0.138   4.448
 4667TIP3   OH214006   4.968   5.583   2.811
 4667TIP3    H114007   4.909   5.651   2.778
 4667TIP3    H214008   4.994   5.535   2.732
 4668TIP3   OH214009   2.556   1.649   4.558
 4668TIP3    H114010   2.598   1.675   4.641
 4668TIP3    H214011   2.605   1.697   4.491
 4669TIP3   OH214012   3.724   1.591   4.433
 4669TIP3    H114013   3.728   1.523   4.500
 4669TIP3    H214014   3.636   1.582   4.396
 4670TIP3   OH214015   0.559   1.269   3.718
 4670TIP3    H114016   0.592   1.216   3.646
 4670TIP3    H214017   0.636   1.281   3.775
 4671TIP3   OH214018   0.979  -0.002   0.302
 4671TIP3    H114019   0.988  -0.063   0.228
 4671TIP3    H214020   0.941   0.077   0.263
 4672TIP3   OH214021   0.947   2.872   1.933
 4672TIP3    H114022   0.896   2.797   1.965
 4672TIP3    H214023   0.891   2.912   1.865
 4673TIP3   OH214024   2.079   0.910   4.578
 4673TIP3    H114025   2.007   0.876   4.525
 4673TIP3    H214026   2.063   1.004   4.583
 4674TIP3   OH214027   3.410   0.448   1.425
 4674TIP3    H114028   3.480   0.495   1.471
 4674TIP3    H214029   3.331   0.467   1.476
 4675TIP3   OH214030   3.935   2.418   3.857
 4675TIP3    H114031   3.995   2.382   3.793
 4675TIP3    H214032   3.931   2.512   3.837
 4676TIP3   OH214033   2.759   3.257   2.836
 4676TIP3    H114034   2.712   3.338   2.815
 4676TIP3    H214035   2.757   3.252   2.932
 4677TIP3   OH214036   2.298   5.478   4.531
 4677TIP3    H114037   2.204   5.481   4.552
 4677TIP3    H214038   2.329   5.567   4.546
 4678TIP3   OH214039   2.521   2.893   3.578
 4678TIP3    H114040   2.502   2.805   3.545
 4678TIP3    H214041   2.577   2.878   3.654
 4679TIP3   OH214042   1.582   3.878   4.292
 4679TIP3    H114043   1.676   3.898   4.287
 4679TIP3    H214044   1.560   3.888   4.384
 4680TIP3   OH214045   1.580   1.380   1.087
 4680TIP3    H114046   1.533   1.362   1.005
 4680TIP3    H214047   1.536   1.327   1.153
 4681TIP3   OH214048   2.911   2.176   0.390
 4681TIP3    H114049   2.834   2.130   0.356
 4681TIP3    H214050   2.923   2.139   0.478
 4682TIP3   OH214051   1.983   2.583   1.965
 4682TIP3    H114052   1.972   2.668   2.009
 4682TIP3    H214053   1.997   2.521   2.036
 4683TIP3   OH214054   5.367   5.429   4.771
 4683TIP3    H114055   5.334   5.517   4.753
 4683TIP3    H214056   5.458   5.442   4.798
 4684TIP3   OH214057   3.311   5.119   3.625
 4684TIP3    H114058   3.309   5.049   3.691
 4684TIP3    H214059   3.275   5.078   3.546
 4685TIP3   OH214060   3.112   2.862   2.442
 4685TIP3    H114061   3.166   2.783   2.441
 4685TIP3    H214062   3.152   2.920   2.377
 4686TIP3   OH214063   5.894   2.258   4.665
 4686TIP3    H114064   5.807   2.229   4.636
 4686TIP3    H214065   5.944   2.176   4.674
 4687TIP3   OH214066   0.149   4.369   3.941
 4687TIP3    H114067   0.158   4.288   3.892
 4687TIP3    H214068   0.058   4.396   3.927
 4688TIP3   OH214069   1.048   4.258   1.120
 4688TIP3    H114070   0.972   4.238   1.175
 4688TIP3    H214071   1.035   4.350   1.095
 4689TIP3   OH214072   0.856   0.608   1.743
 4689TIP3    H114073   0.866   0.514   1.756
 4689TIP3    H214074   0.780   0.617   1.686
 4690TIP3   OH214075   3.352   0.504   0.339
 4690TIP3    H114076   3.341   0.465   0.252
 4690TIP3    H214077   3.392   0.434   0.391
 4691TIP3   OH214078   1.664   3.342   0.328
 4691TIP3    H114079   1.698   3.408   0.387
 4691TIP3    H214080   1.642   3.268   0.385
 4692TIP3   OH214081   0.335   1.488   1.324
 4692TIP3    H114082   0.263   1.534   1.280
 4692TIP3    H214083   0.329   1.515   1.415
 4693TIP3   OH214084   1.852   0.809   2.111
 4693TIP3    H114085   1.933   0.761   2.124
 4693TIP3    H214086   1.792   0.772   2.176
 4694TIP3   OH214087   4.862   3.630   2.818
 4694TIP3    H114088   4.836   3.716   2.853
 4694TIP3    H214089   4.782   3.578   2.824
 4695TIP3   OH214090   0.589   2.629   2.998
 4695TIP3    H114091   0.521   2.576   2.956
 4695TIP3    H214092   0.645   2.566   3.042
 4696TIP3   OH214093   5.123   1.242   1.706
 4696TIP3    H114094   5.217   1.258   1.711
 4696TIP3    H214095   5.112   1.183   1.631
 4697TIP3   OH214096   3.437   2.996   1.111
 4697TIP3    H114097   3.417   3.066   1.048
 4697TIP3    H214098   3.383   2.922   1.083
 4698TIP3   OH214099   1.610   4.992   0.295
 4698TIP3    H114100   1.619   4.898   0.283
 4698TIP3    H214101   1.690   5.018   0.341
 4699TIP3   OH214102   1.924   4.630   3.364
 4699TIP3    H114103   1.893   4.609   3.276
 4699TIP3    H214104   2.009   4.670   3.351
 4700TIP3   OH214105   2.905   2.042   0.051
 4700TIP3    H114106   2.812   2.019   0.054
 4700TIP3    H214107   2.910   2.113  -0.013
 4701TIP3   OH214108   5.553   1.219   0.893
 4701TIP3    H114109   5.483   1.157   0.874
 4701TIP3    H214110   5.626   1.190   0.838
 4702TIP3   OH214111   1.584   1.315   1.781
 4702TIP3    H114112   1.497   1.355   1.786
 4702TIP3    H214113   1.644   1.387   1.800
 4703TIP3   OH214114   5.712   1.230   0.666
 4703TIP3    H114115   5.773   1.159   0.646
 4703TIP3    H214116   5.740   1.302   0.610
 4704TIP3   OH214117   5.707   0.698   4.640
 4704TIP3    H114118   5.736   0.728   4.554
 4704TIP3    H214119   5.739   0.608   4.645
 4705TIP3   OH214120   3.672   5.831   1.959
 4705TIP3    H114121   3.577   5.845   1.968
 4705TIP3    H214122   3.703   5.905   1.907
 4706TIP3   OH214123   0.828   5.077   2.677
 4706TIP3    H114124   0.737   5.099   2.698
 4706TIP3    H214125   0.821   5.016   2.603
 4707TIP3   OH214126   4.660   4.232   0.866
 4707TIP3    H114127   4.655   4.307   0.807
 4707TIP3    H214128   4.577   4.185   0.853
 4708TIP3   OH214129   4.019   2.069   2.257
 4708TIP3    H114130   4.055   1.992   2.300
 4708TIP3    H214131   3.945   2.036   2.206
 4709TIP3   OH214132   1.273   0.586   2.427
 4709TIP3    H114133   1.332   0.608   2.355
 4709TIP3    H214134   1.288   0.493   2.442
 4710TIP3   OH214135   4.710   5.682   0.214
 4710TIP3    H114136   4.652   5.692   0.289
 4710TIP3    H214137   4.673   5.740   0.148
 4711TIP3   OH214138   5.130   1.631   0.788
 4711TIP3    H114139   5.154   1.555   0.841
 4711TIP3    H214140   5.139   1.706   0.847
 4712TIP3   OH214141   4.333   4.907   4.208
 4712TIP3    H114142   4.324   4.988   4.258
 4712TIP3    H214143   4.247   4.893   4.170
 4713TIP3   OH214144   1.857   3.513   1.496
 4713TIP3    H114145   1.952   3.515   1.506
 4713TIP3    H214146   1.835   3.419   1.498
 4714TIP3   OH214147   5.896   1.691   3.838
 4714TIP3    H114148   5.931   1.752   3.904
 4714TIP3    H214149   5.946   1.611   3.851
 4715TIP3   OH214150   5.892   5.898   4.525
 4715TIP3    H114151   5.829   5.950   4.576
 4715TIP3    H214152   5.839   5.856   4.458
 4716TIP3   OH214153   5.946   4.493   2.236
 4716TIP3    H114154   5.886   4.446   2.179
 4716TIP3    H214155   5.904   4.578   2.251
 4717TIP3   OH214156   0.592   2.049   3.806
 4717TIP3    H114157   0.608   2.072   3.898
 4717TIP3    H214158   0.505   2.009   3.806
 4718TIP3   OH214159   0.943   1.207   3.574
 4718TIP3    H114160   0.854   1.182   3.550
 4718TIP3    H214161   0.966   1.277   3.514
 4719TIP3   OH214162   0.917   4.663   3.714
 4719TIP3    H114163   0.840   4.619   3.751
 4719TIP3    H214164   0.889   4.693   3.628
 4720TIP3   OH214165   4.418   5.145   4.717
 4720TIP3    H114166   4.356   5.156   4.789
 4720TIP3    H214167   4.454   5.057   4.730
 4721TIP3   OH214168   4.241   5.777   2.338
 4721TIP3    H114169   4.245   5.712   2.268
 4721TIP3    H214170   4.149   5.777   2.366
 4722TIP3   OH214171   1.720   2.953   0.138
 4722TIP3    H114172   1.786   3.013   0.174
 4722TIP3    H214173   1.682   2.911   0.215
 4723TIP3   OH214174   0.900   3.947   1.115
 4723TIP3    H114175   0.990   3.917   1.128
 4723TIP3    H214176   0.851   3.908   1.187
 4724TIP3   OH214177   1.307   0.694   4.980
 4724TIP3    H114178   1.350   0.608   4.980
 4724TIP3    H214179   1.219   0.677   5.014
 4725TIP3   OH214180   1.574   1.535   0.686
 4725TIP3    H114181   1.537   1.554   0.600
 4725TIP3    H214182   1.586   1.621   0.727
 4726TIP3   OH214183   5.042   5.848   4.868
 4726TIP3    H114184   4.969   5.786   4.859
 4726TIP3    H214185   5.000   5.934   4.867
 4727TIP3   OH214186   5.864   2.112   5.128
 4727TIP3    H114187   5.805   2.187   5.118
 4727TIP3    H214188   5.805   2.039   5.148
 4728TIP3   OH214189   3.471   1.823   3.027
 4728TIP3    H114190   3.566   1.832   3.031
 4728TIP3    H214191   3.442   1.828   3.118
 4729TIP3   OH214192   3.352   0.899   3.224
 4729TIP3    H114193   3.344   0.868   3.133
 4729TIP3    H214194   3.445   0.891   3.243
 4730TIP3   OH214195   3.988   1.239   2.755
 4730TIP3    H114196   3.980   1.213   2.663
 4730TIP3    H214197   4.068   1.291   2.759
 4731TIP3   OH214198   3.026   2.185   1.400
 4731TIP3    H114199   2.941   2.151   1.428
 4731TIP3    H214200   3.040   2.145   1.314
 4732TIP3   OH214201   3.285   0.530   2.387
 4732TIP3    H114202   3.374   0.496   2.398
 4732TIP3    H214203   3.292   0.622   2.413
 4733TIP3   OH214204   4.421   2.030   4.059
 4733TIP3    H114205   4.498   2.013   4.005
 4733TIP3    H214206   4.435   2.118   4.094
 4734TIP3   OH214207   4.628   0.973   0.790
 4734TIP3    H114208   4.590   1.056   0.820
 4734TIP3    H214209   4.556   0.910   0.797
 4735TIP3   OH214210   0.520   5.095   4.224
 4735TIP3    H114211   0.529   5.017   4.170
 4735TIP3    H214212   0.426   5.114   4.221
 4736TIP3   OH214213   5.082   3.582   1.409
 4736TIP3    H114214   5.050   3.551   1.324
 4736TIP3    H214215   5.104   3.503   1.457
 4737TIP3   OH214216   2.541   1.148   4.182
 4737TIP3    H114217   2.602   1.111   4.118
 4737TIP3    H214218   2.594   1.161   4.261
 4738TIP3   OH214219   5.657   2.871   2.965
 4738TIP3    H114220   5.580   2.900   2.915
 4738TIP3    H214221   5.710   2.824   2.901
 4739TIP3   OH214222   3.005   2.229   1.713
 4739TIP3    H114223   3.025   2.261   1.801
 4739TIP3    H214224   2.961   2.145   1.728
 4740TIP3   OH214225   2.522   4.129   1.996
 4740TIP3    H114226   2.564   4.105   1.913
 4740TIP3    H214227   2.513   4.046   2.043
 4741TIP3   OH214228   0.330   5.295   2.879
 4741TIP3    H114229   0.364   5.355   2.945
 4741TIP3    H214230   0.341   5.343   2.796
 4742TIP3   OH214231   1.420   4.742   4.317
 4742TIP3    H114232   1.472   4.668   4.348
 4742TIP3    H214233   1.330   4.721   4.344
 4743TIP3   OH214234   1.628   5.532   1.069
 4743TIP3    H114235   1.672   5.617   1.071
 4743TIP3    H214236   1.545   5.548   1.114
 4744TIP3   OH214237   2.204   4.651   4.898
 4744TIP3    H114238   2.242   4.729   4.939
 4744TIP3    H214239   2.220   4.581   4.961
 4745TIP3   OH214240   1.142   0.098   3.432
 4745TIP3    H114241   1.069   0.141   3.477
 4745TIP3    H214242   1.130   0.121   3.340
 4746TIP3   OH214243   5.412   1.530   4.038
 4746TIP3    H114244   5.421   1.618   4.073
 4746TIP3    H214245   5.320   1.508   4.054
 4747TIP3   OH214246   0.567   2.508   2.402
 4747TIP3    H114247   0.488   2.477   2.357
 4747TIP3    H214248   0.611   2.428   2.431
 4748TIP3   OH214249   5.885   3.658   2.505
 4748TIP3    H114250   5.800   3.694   2.481
 4748TIP3    H214251   5.909   3.705   2.585
 4749TIP3   OH214252   3.959   1.488   1.454
 4749TIP3    H114253   3.998   1.405   1.428
 4749TIP3    H214254   3.867   1.467   1.472
 4750TIP3   OH214255   3.647   0.981   4.037
 4750TIP3    H114256   3.728   1.010   3.993
 4750TIP3    H214257   3.577   1.017   3.983
 4751TIP3   OH214258   3.015   0.791   2.587
 4751TIP3    H114259   2.997   0.734   2.662
 4751TIP3    H214260   2.991   0.878   2.617
 4752TIP3   OH214261   3.090   2.226   0.184
 4752TIP3    H114262   3.054   2.254   0.268
 4752TIP3    H214263   3.018   2.179   0.142
 4753TIP3   OH214264   3.599   1.116   1.550
 4753TIP3    H114265   3.631   1.082   1.466
 4753TIP3    H214266   3.663   1.086   1.614
 4754TIP3   OH214267   6.217   4.560   2.147
 4754TIP3    H114268   6.149   4.537   2.211
 4754TIP3    H214269   6.169   4.600   2.075
 4755TIP3   OH214270   5.806   2.598   1.170
 4755TIP3    H114271   5.869   2.620   1.101
 4755TIP3    H214272   5.760   2.680   1.187
 4756TIP3   OH214273   4.478   3.046   1.510
 4756TIP3    H114274   4.391   3.064   1.545
 4756TIP3    H214275   4.531   3.023   1.587
 4757TIP3   OH214276   4.964   2.251   1.836
 4757TIP3    H114277   4.945   2.341   1.864
 4757TIP3    H214278   4.971   2.256   1.741
 4758TIP3   OH214279   5.746   5.350   0.706
 4758TIP3    H114280   5.780   5.361   0.618
 4758TIP3    H214281   5.731   5.439   0.738
 4759TIP3   OH214282   4.125   4.029   0.319
 4759TIP3    H114283   4.174   4.019   0.238
 4759TIP3    H214284   4.134   3.945   0.364
 4760TIP3   OH214285   0.424   1.452   3.948
 4760TIP3    H114286   0.512   1.484   3.925
 4760TIP3    H214287   0.431   1.426   4.040
 4761TIP3   OH214288   5.076   1.367   3.031
 4761TIP3    H114289   5.052   1.365   3.124
 4761TIP3    H214290   5.145   1.432   3.025
 4762TIP3   OH214291   2.202   0.303   0.655
 4762TIP3    H114292   2.128   0.356   0.625
 4762TIP3    H214293   2.279   0.355   0.631
 4763TIP3   OH214294   2.523   1.052   3.744
 4763TIP3    H114295   2.480   1.048   3.830
 4763TIP3    H214296   2.502   1.139   3.710
 4764TIP3   OH214297   2.440   4.946   1.582
 4764TIP3    H114298   2.512   4.894   1.545
 4764TIP3    H214299   2.479   4.989   1.659
 4765TIP3   OH214300   3.453   3.864   3.818
 4765TIP3    H114301   3.380   3.895   3.765
 4765TIP3    H214302   3.414   3.843   3.903
 4766TIP3   OH214303   1.705   0.321   4.073
 4766TIP3    H114304   1.650   0.399   4.082
 4766TIP3    H214305   1.695   0.294   3.982
 4767TIP3   OH214306   4.698   3.413   1.472
 4767TIP3    H114307   4.713   3.394   1.565
 4767TIP3    H214308   4.679   3.327   1.433
 4768TIP3   OH214309   2.284   2.367   1.282
 4768TIP3    H114310   2.235   2.370   1.364
 4768TIP3    H214311   2.264   2.450   1.239
 4769TIP3   OH214312   4.718   4.309   1.581
 4769TIP3    H114313   4.782   4.302   1.651
 4769TIP3    H214314   4.679   4.222   1.575
 4770TIP3   OH214315   4.536   4.098   3.354
 4770TIP3    H114316   4.461   4.100   3.414
 4770TIP3    H214317   4.574   4.185   3.361
 4771TIP3   OH214318   2.407   4.031   2.344
 4771TIP3    H114319   2.392   3.972   2.418
 4771TIP3    H214320   2.447   3.975   2.277
 4772TIP3   OH214321   3.235   0.161   0.482
 4772TIP3    H114322   3.318   0.210   0.476
 4772TIP3    H214323   3.167   0.229   0.478
 4773TIP3   OH214324   2.171   0.332   2.741
 4773TIP3    H114325   2.264   0.346   2.756
 4773TIP3    H214326   2.163   0.238   2.724
 4774TIP3   OH214327   0.995   0.180   4.495
 4774TIP3    H114328   0.949   0.101   4.469
 4774TIP3    H214329   0.936   0.223   4.558
 4775TIP3   OH214330   3.756   3.368   3.632
 4775TIP3    H114331   3.798   3.342   3.714
 4775TIP3    H214332   3.676   3.317   3.628
 4776TIP3   OH214333   1.147   2.799   3.870
 4776TIP3    H114334   1.204   2.861   3.916
 4776TIP3    H214335   1.191   2.715   3.880
 4777TIP3   OH214336   6.004   0.265   1.532
 4777TIP3    H114337   5.938   0.319   1.575
 4777TIP3    H214338   5.960   0.182   1.514
 4778TIP3   OH214339   5.982   3.077   4.129
 4778TIP3    H114340   6.013   2.993   4.095
 4778TIP3    H214341   5.959   3.127   4.050
 4779TIP3   OH214342   0.608   3.614   4.802
 4779TIP3    H114343   0.542   3.595   4.869
 4779TIP3    H214344   0.619   3.531   4.755
 4780TIP3   OH214345   2.442   3.252   2.698
 4780TIP3    H114346   2.461   3.280   2.787
 4780TIP3    H214347   2.383   3.177   2.708
 4781TIP3   OH214348   5.091   5.763   3.664
 4781TIP3    H114349   5.123   5.696   3.604
 4781TIP3    H214350   5.170   5.793   3.710
 4782TIP3   OH214351   2.259   1.049   0.517
 4782TIP3    H114352   2.328   1.053   0.450
 4782TIP3    H214353   2.185   1.095   0.478
 4783TIP3   OH214354   3.688   5.811   2.672
 4783TIP3    H114355   3.638   5.777   2.746
 4783TIP3    H214356   3.749   5.741   2.650
 4784TIP3   OH214357   0.592   5.972   2.035
 4784TIP3    H114358   0.544   5.943   2.113
 4784TIP3    H214359   0.560   5.915   1.965
 4785TIP3   OH214360   4.125   4.451   2.294
 4785TIP3    H114361   4.216   4.429   2.274
 4785TIP3    H214362   4.110   4.413   2.381
 4786TIP3   OH214363   5.308   3.048   2.213
 4786TIP3    H114364   5.384   3.071   2.266
 4786TIP3    H214365   5.272   3.132   2.185
 4787TIP3   OH214366   3.368   5.306   0.428
 4787TIP3    H114367   3.383   5.212   0.439
 4787TIP3    H214368   3.272   5.314   0.428
 4788TIP3   OH214369   0.394   2.759   0.867
 4788TIP3    H114370   0.324   2.694   0.865
 4788TIP3    H214371   0.400   2.790   0.776
 4789TIP3   OH214372   3.918   0.803   1.239
 4789TIP3    H114373   3.940   0.745   1.166
 4789TIP3    H214374   3.826   0.784   1.257
 4790TIP3   OH214375   2.879   5.372   2.718
 4790TIP3    H114376   2.809   5.307   2.707
 4790TIP3    H214377   2.879   5.422   2.637
 4791TIP3   OH214378   1.818   3.336   1.222
 4791TIP3    H114379   1.733   3.380   1.231
 4791TIP3    H214380   1.796   3.245   1.205
 4792TIP3   OH214381   2.759   1.757   3.158
 4792TIP3    H114382   2.724   1.840   3.125
 4792TIP3    H214383   2.739   1.693   3.090
 4793TIP3   OH214384   4.627   2.232   3.478
 4793TIP3    H114385   4.588   2.291   3.542
 4793TIP3    H214386   4.673   2.167   3.530
 4794TIP3   OH214387   1.264   3.939   4.516
 4794TIP3    H114388   1.244   3.881   4.589
 4794TIP3    H214389   1.211   3.904   4.444
 4795TIP3   OH214390   3.035   4.643   0.206
 4795TIP3    H114391   2.975   4.569   0.218
 4795TIP3    H214392   3.066   4.635   0.116
 4796TIP3   OH214393   1.663   2.930   3.956
 4796TIP3    H114394   1.754   2.937   3.925
 4796TIP3    H214395   1.628   3.019   3.945
 4797TIP3   OH214396   0.026   4.870   3.520
 4797TIP3    H114397  -0.014   4.930   3.457
 4797TIP3    H214398   0.106   4.915   3.548
 4798TIP3   OH214399   2.863   4.727   4.975
 4798TIP3    H114400   2.779   4.759   5.008
 4798TIP3    H214401   2.928   4.764   5.036
 4799TIP3   OH214402  -0.021   5.627   0.883
 4799TIP3    H114403   0.029   5.633   0.965
 4799TIP3    H214404   0.043   5.644   0.815
 4800TIP3   OH214405   4.104   0.182   3.005
 4800TIP3    H114406   4.171   0.116   3.025
 4800TIP3    H214407   4.076   0.215   3.090
 4801TIP3   OH214408   4.990   4.660   2.514
 4801TIP3    H114409   4.905   4.677   2.475
 4801TIP3    H214410   4.981   4.574   2.556
 4802TIP3   OH214411   0.178   2.417   3.366
 4802TIP3    H114412   0.262   2.377   3.344
 4802TIP3    H214413   0.118   2.383   3.300
 4803TIP3   OH214414   1.271   5.890   5.042
 4803TIP3    H114415   1.353   5.840   5.042
 4803TIP3    H214416   1.299   5.981   5.033
 4804TIP3   OH214417   3.132   5.284   3.463
 4804TIP3    H114418   3.163   5.251   3.547
 4804TIP3    H214419   3.171   5.225   3.398
 4805TIP3   OH214420   2.456   1.675   1.084
 4805TIP3    H114421   2.362   1.660   1.076
 4805TIP3    H214422   2.482   1.619   1.158
 4806TIP3   OH214423   5.765   4.062   4.503
 4806TIP3    H114424   5.778   4.084   4.595
 4806TIP3    H214425   5.671   4.072   4.489
 4807TIP3   OH214426   4.661   4.299   3.988
 4807TIP3    H114427   4.621   4.229   4.040
 4807TIP3    H214428   4.726   4.255   3.934
 4808TIP3   OH214429   1.417   2.384   1.357
 4808TIP3    H114430   1.463   2.378   1.274
 4808TIP3    H214431   1.409   2.293   1.387
 4809TIP3   OH214432   2.475   5.919   5.042
 4809TIP3    H114433   2.569   5.902   5.040
 4809TIP3    H214434   2.436   5.845   4.996
 4810TIP3   OH214435   5.180   5.934   1.982
 4810TIP3    H114436   5.179   5.893   1.895
 4810TIP3    H214437   5.232   5.874   2.036
 4811TIP3   OH214438   5.128   2.893   0.804
 4811TIP3    H114439   5.062   2.824   0.796
 4811TIP3    H214440   5.211   2.848   0.794
 4812TIP3   OH214441   3.565   0.449   2.553
 4812TIP3    H114442   3.637   0.432   2.614
 4812TIP3    H214443   3.493   0.396   2.587
 4813TIP3   OH214444   2.604   3.024   2.398
 4813TIP3    H114445   2.597   3.047   2.306
 4813TIP3    H214446   2.601   2.928   2.399
 4814TIP3   OH214447   4.096   3.095   1.733
 4814TIP3    H114448   4.168   3.033   1.744
 4814TIP3    H214449   4.020   3.050   1.769
 4815TIP3   OH214450   3.435   0.582   1.834
 4815TIP3    H114451   3.441   0.508   1.894
 4815TIP3    H214452   3.341   0.603   1.832
 4816TIP3   OH214453   4.001   3.388   4.087
 4816TIP3    H114454   4.075   3.358   4.138
 4816TIP3    H214455   3.992   3.481   4.109
 4817TIP3   OH214456   0.979   5.156   2.432
 4817TIP3    H114457   0.993   5.248   2.455
 4817TIP3    H214458   1.064   5.114   2.443
 4818TIP3   OH214459   0.203   1.756   1.394
 4818TIP3    H114460   0.117   1.799   1.388
 4818TIP3    H214461   0.193   1.694   1.467
 4819TIP3   OH214462   3.514   0.910   1.337
 4819TIP3    H114463   3.523   0.819   1.366
 4819TIP3    H214464   3.590   0.925   1.281
 4820TIP3   OH214465   2.457   4.820   3.262
 4820TIP3    H114466   2.549   4.831   3.238
 4820TIP3    H214467   2.425   4.909   3.275
 4821TIP3   OH214468   3.511   3.768   1.060
 4821TIP3    H114469   3.527   3.735   1.149
 4821TIP3    H214470   3.504   3.863   1.071
 4822TIP3   OH214471   2.482   3.321   1.919
 4822TIP3    H114472   2.469   3.272   1.837
 4822TIP3    H214473   2.573   3.304   1.943
 4823TIP3   OH214474   5.293   5.930   2.779
 4823TIP3    H114475   5.341   5.850   2.756
 4823TIP3    H214476   5.220   5.933   2.716
 4824TIP3   OH214477   1.357   0.451   1.454
 4824TIP3    H114478   1.315   0.372   1.419
 4824TIP3    H214479   1.314   0.465   1.539
 4825TIP3   OH214480   5.574   1.207   5.072
 4825TIP3    H114481   5.488   1.242   5.095
 4825TIP3    H214482   5.581   1.125   5.121
 4826TIP3   OH214483   4.246   5.591   2.142
 4826TIP3    H114484   4.247   5.569   2.048
 4826TIP3    H214485   4.312   5.533   2.181
 4827TIP3   OH214486   2.387   0.634   1.552
 4827TIP3    H114487   2.332   0.581   1.496
 4827TIP3    H214488   2.472   0.637   1.508
 4828TIP3   OH214489   4.471   5.922   0.487
 4828TIP3    H114490   4.488   5.834   0.454
 4828TIP3    H214491   4.404   5.909   0.555
 4829TIP3   OH214492   6.235   3.136   0.358
 4829TIP3    H114493   6.300   3.080   0.316
 4829TIP3    H214494   6.286   3.188   0.421
 4830TIP3   OH214495   5.567   3.420   4.189
 4830TIP3    H114496   5.644   3.394   4.239
 4830TIP3    H214497   5.600   3.438   4.101
 4831TIP3   OH214498   3.599   3.150   5.161
 4831TIP3    H114499   3.544   3.228   5.155
 4831TIP3    H214500   3.660   3.158   5.088
 4832TIP3   OH214501   3.253   3.250   1.025
 4832TIP3    H114502   3.295   3.257   1.110
 4832TIP3    H214503   3.283   3.327   0.976
 4833TIP3   OH214504   0.797   0.332   4.665
 4833TIP3    H114505   0.733   0.373   4.607
 4833TIP3    H214506   0.859   0.402   4.686
 4834TIP3   OH214507   1.596   1.628   3.966
 4834TIP3    H114508   1.527   1.655   3.906
 4834TIP3    H214509   1.551   1.577   4.033
 4835TIP3   OH214510   2.926   1.956   1.691
 4835TIP3    H114511   2.839   1.921   1.675
 4835TIP3    H214512   2.964   1.967   1.604
 4836TIP3   OH214513   4.241   1.703   2.937
 4836TIP3    H114514   4.332   1.691   2.964
 4836TIP3    H214515   4.247   1.720   2.843
 4837TIP3   OH214516   4.191   2.348   0.067
 4837TIP3    H114517   4.107   2.390   0.087
 4837TIP3    H214518   4.177   2.307  -0.018
 4838TIP3   OH214519   1.007   1.211   0.603
 4838TIP3    H114520   1.086   1.260   0.583
 4838TIP3    H214521   0.938   1.277   0.607
 4839TIP3   OH214522   0.072   3.225   0.618
 4839TIP3    H114523   0.131   3.199   0.689
 4839TIP3    H214524  -0.002   3.165   0.626
 4840TIP3   OH214525   5.495   2.729   4.263
 4840TIP3    H114526   5.496   2.676   4.343
 4840TIP3    H214527   5.504   2.819   4.294
 4841TIP3   OH214528   2.368   1.418   4.634
 4841TIP3    H114529   2.428   1.488   4.607
 4841TIP3    H214530   2.403   1.339   4.593
 4842TIP3   OH214531   1.837   1.590   0.436
 4842TIP3    H114532   1.932   1.582   0.430
 4842TIP3    H214533   1.822   1.647   0.512
 4843TIP3   OH214534   5.541   3.986   2.191
 4843TIP3    H114535   5.630   4.017   2.205
 4843TIP3    H214536   5.520   4.013   2.102
 4844TIP3   OH214537   2.171   4.196   1.288
 4844TIP3    H114538   2.247   4.141   1.270
 4844TIP3    H214539   2.140   4.167   1.373
 4845TIP3   OH214540   4.005   0.403   2.583
 4845TIP3    H114541   4.064   0.348   2.635
 4845TIP3    H214542   4.051   0.419   2.501
 4846TIP3   OH214543   0.204   0.620   3.309
 4846TIP3    H114544   0.245   0.541   3.272
 4846TIP3    H214545   0.252   0.692   3.270
 4847TIP3   OH214546   4.174   4.683   2.622
 4847TIP3    H114547   4.249   4.635   2.656
 4847TIP3    H214548   4.173   4.662   2.529
 4848TIP3   OH214549   4.569   5.589   3.634
 4848TIP3    H114550   4.500   5.527   3.661
 4848TIP3    H214551   4.645   5.533   3.615
 4849TIP3   OH214552   6.358   5.196   1.839
 4849TIP3    H114553   6.273   5.238   1.856
 4849TIP3    H214554   6.365   5.128   1.905
 4850TIP3   OH214555   3.227   2.608   3.166
 4850TIP3    H114556   3.169   2.594   3.241
 4850TIP3    H214557   3.267   2.522   3.150
 4851TIP3   OH214558   1.897   4.347   0.793
 4851TIP3    H114559   1.900   4.438   0.763
 4851TIP3    H214560   1.867   4.353   0.883
 4852TIP3   OH214561   2.892   2.203   2.146
 4852TIP3    H114562   2.928   2.152   2.074
 4852TIP3    H214563   2.889   2.293   2.112
 4853TIP3   OH214564   3.041   1.706   4.231
 4853TIP3    H114565   2.955   1.679   4.262
 4853TIP3    H214566   3.059   1.788   4.276
 4854TIP3   OH214567   3.396   5.167   2.136
 4854TIP3    H114568   3.386   5.261   2.124
 4854TIP3    H214569   3.313   5.138   2.174
 4855TIP3   OH214570   3.404   5.582   0.484
 4855TIP3    H114571   3.408   5.486   0.490
 4855TIP3    H214572   3.346   5.599   0.410
 4856TIP3   OH214573   5.400   0.057   2.730
 4856TIP3    H114574   5.351   0.106   2.796
 4856TIP3    H214575   5.480   0.030   2.774
 4857TIP3   OH214576   0.322   1.188   0.599
 4857TIP3    H114577   0.262   1.201   0.525
 4857TIP3    H214578   0.293   1.252   0.664
 4858TIP3   OH214579   4.180   3.789   3.200
 4858TIP3    H114580   4.186   3.704   3.243
 4858TIP3    H214581   4.158   3.850   3.271
 4859TIP3   OH214582   5.618   3.481   0.099
 4859TIP3    H114583   5.582   3.530   0.173
 4859TIP3    H214584   5.701   3.525   0.079
 4860TIP3   OH214585   0.726   4.760   2.637
 4860TIP3    H114586   0.756   4.736   2.549
 4860TIP3    H214587   0.632   4.740   2.636
 4861TIP3   OH214588   4.935   5.036   1.783
 4861TIP3    H114589   4.840   5.035   1.792
 4861TIP3    H214590   4.951   5.000   1.695
 4862TIP3   OH214591   1.553   2.428   2.564
 4862TIP3    H114592   1.624   2.412   2.502
 4862TIP3    H214593   1.587   2.496   2.622
 4863TIP3   OH214594   5.028   0.097   5.181
 4863TIP3    H114595   5.099   0.048   5.139
 4863TIP3    H214596   4.948   0.059   5.146
 4864TIP3   OH214597   5.862   2.332   0.073
 4864TIP3    H114598   5.947   2.303   0.108
 4864TIP3    H214599   5.852   2.421   0.108
 4865TIP3   OH214600   1.608   1.100   0.032
 4865TIP3    H114601   1.599   1.041   0.106
 4865TIP3    H214602   1.648   1.047  -0.037
 4866TIP3   OH214603   5.364   4.704   2.953
 4866TIP3    H114604   5.432   4.709   2.885
 4866TIP3    H214605   5.398   4.641   3.016
 4867TIP3   OH214606   4.425   1.632   4.744
 4867TIP3    H114607   4.416   1.688   4.667
 4867TIP3    H214608   4.347   1.577   4.744
 4868TIP3   OH214609   2.645   5.993   0.770
 4868TIP3    H114610   2.737   5.994   0.798
 4868TIP3    H214611   2.611   5.909   0.802
 4869TIP3   OH214612   2.485   4.898   4.178
 4869TIP3    H114613   2.444   4.812   4.168
 4869TIP3    H214614   2.512   4.922   4.089
 4870TIP3   OH214615   4.811   3.932   0.922
 4870TIP3    H114616   4.847   3.953   0.835
 4870TIP3    H214617   4.816   4.015   0.970
 4871TIP3   OH214618   5.749   5.041   2.548
 4871TIP3    H114619   5.729   4.948   2.543
 4871TIP3    H214620   5.836   5.045   2.587
 4872TIP3   OH214621   1.068   3.064   2.091
 4872TIP3    H114622   1.028   3.014   2.020
 4872TIP3    H214623   1.081   3.001   2.162
 4873TIP3   OH214624   2.215   2.586   3.451
 4873TIP3    H114625   2.219   2.682   3.455
 4873TIP3    H214626   2.295   2.557   3.496
 4874TIP3   OH214627   2.482   0.193   2.319
 4874TIP3    H114628   2.395   0.192   2.358
 4874TIP3    H214629   2.470   0.235   2.234
 4875TIP3   OH214630   6.151   0.137   1.765
 4875TIP3    H114631   6.193   0.184   1.693
 4875TIP3    H214632   6.224   0.109   1.821
 4876TIP3   OH214633   1.518   0.676   3.408
 4876TIP3    H114634   1.597   0.712   3.368
 4876TIP3    H214635   1.546   0.593   3.447
 4877TIP3   OH214636   0.872   2.276   1.773
 4877TIP3    H114637   0.824   2.347   1.731
 4877TIP3    H214638   0.912   2.227   1.701
 4878TIP3   OH214639   0.068   3.585   1.974
 4878TIP3    H114640   0.138   3.597   1.910
 4878TIP3    H214641   0.034   3.673   1.991
 4879TIP3   OH214642   5.733   1.047   2.106
 4879TIP3    H114643   5.721   1.129   2.154
 4879TIP3    H214644   5.824   1.050   2.076
 4880TIP3   OH214645   0.234   4.374   2.062
 4880TIP3    H114646   0.153   4.410   2.100
 4880TIP3    H214647   0.242   4.417   1.977
 4881TIP3   OH214648   6.154   4.781   2.997
 4881TIP3    H114649   6.141   4.820   3.084
 4881TIP3    H214650   6.102   4.836   2.938
 4882TIP3   OH214651   1.924   3.605   3.283
 4882TIP3    H114652   1.982   3.670   3.322
 4882TIP3    H214653   1.877   3.653   3.215
 4883TIP3   OH214654   5.918   0.726   0.435
 4883TIP3    H114655   5.977   0.729   0.511
 4883TIP3    H214656   5.971   0.692   0.364
 4884TIP3   OH214657   1.686   1.211   3.044
 4884TIP3    H114658   1.738   1.286   3.015
 4884TIP3    H214659   1.600   1.226   3.005
 4885TIP3   OH214660   6.264   1.792   2.616
 4885TIP3    H114661   6.354   1.819   2.634
 4885TIP3    H214662   6.272   1.723   2.550
 4886TIP3   OH214663   0.267   2.135   3.657
 4886TIP3    H114664   0.236   2.125   3.567
 4886TIP3    H214665   0.244   2.225   3.681
 4887TIP3   OH214666   2.610   2.477   2.487
 4887TIP3    H114667   2.694   2.466   2.531
 4887TIP3    H214668   2.585   2.388   2.461
 4888TIP3   OH214669   3.611   3.347   2.858
 4888TIP3    H114670   3.692   3.309   2.893
 4888TIP3    H214671   3.604   3.311   2.770
 4889TIP3   OH214672   3.211   3.146   4.043
 4889TIP3    H114673   3.135   3.091   4.063
 4889TIP3    H214674   3.232   3.187   4.127
 4890TIP3   OH214675   1.410   3.584   3.083
 4890TIP3    H114676   1.440   3.673   3.101
 4890TIP3    H214677   1.490   3.534   3.069
 4891TIP3   OH214678   1.085   2.230   4.873
 4891TIP3    H114679   1.121   2.216   4.785
 4891TIP3    H214680   0.993   2.250   4.858
 4892TIP3   OH214681   1.841   5.109   0.443
 4892TIP3    H114682   1.927   5.106   0.485
 4892TIP3    H214683   1.779   5.118   0.516
 4893TIP3   OH214684   3.815   2.768   0.916
 4893TIP3    H114685   3.775   2.691   0.956
 4893TIP3    H214686   3.775   2.842   0.962
 4894TIP3   OH214687   4.955   0.253   3.881
 4894TIP3    H114688   5.034   0.203   3.903
 4894TIP3    H214689   4.884   0.189   3.888
 4895TIP3   OH214690   1.639   3.513   1.321
 4895TIP3    H114691   1.726   3.502   1.361
 4895TIP3    H214692   1.618   3.606   1.336
 4896TIP3   OH214693   1.133   3.762   4.685
 4896TIP3    H114694   1.115   3.691   4.623
 4896TIP3    H214695   1.059   3.759   4.746
 4897TIP3   OH214696   1.456   0.358   0.266
 4897TIP3    H114697   1.384   0.300   0.243
 4897TIP3    H214698   1.509   0.308   0.328
 4898TIP3   OH214699   4.636   4.065   0.549
 4898TIP3    H114700   4.606   4.138   0.604
 4898TIP3    H214701   4.555   4.023   0.519
 4899TIP3   OH214702   4.102   1.290   3.914
 4899TIP3    H114703   4.137   1.205   3.887
 4899TIP3    H214704   4.102   1.342   3.833
 4900TIP3   OH214705   6.228   5.075   0.557
 4900TIP3    H114706   6.318   5.065   0.587
 4900TIP3    H214707   6.210   4.994   0.509
 4901TIP3   OH214708   3.091   1.178   2.896
 4901TIP3    H114709   3.097   1.136   2.982
 4901TIP3    H214710   3.060   1.267   2.915
 4902TIP3   OH214711   5.640   4.165   1.217
 4902TIP3    H114712   5.643   4.121   1.132
 4902TIP3    H214713   5.652   4.094   1.280
 4903TIP3   OH214714   1.833   1.520   3.759
 4903TIP3    H114715   1.832   1.561   3.846
 4903TIP3    H214716   1.784   1.581   3.704
 4904TIP3   OH214717   6.050   3.318   3.610
 4904TIP3    H114718   5.985   3.386   3.628
 4904TIP3    H214719   6.000   3.247   3.571
 4905TIP3   OH214720   4.028   0.997   1.707
 4905TIP3    H114721   4.103   0.998   1.648
 4905TIP3    H214722   4.064   1.021   1.792
 4906TIP3   OH214723   1.632   0.349   4.648
 4906TIP3    H114724   1.571   0.275   4.653
 4906TIP3    H214725   1.717   0.311   4.672
 4907TIP3   OH214726   5.514   1.339   1.471
 4907TIP3    H114727   5.584   1.404   1.476
 4907TIP3    H214728   5.554   1.257   1.498
 4908TIP3   OH214729   3.614   3.607   2.911
 4908TIP3    H114730   3.610   3.511   2.906
 4908TIP3    H214731   3.705   3.628   2.893
 4909TIP3   OH214732   2.171   0.747   1.803
 4909TIP3    H114733   2.123   0.825   1.775
 4909TIP3    H214734   2.135   0.676   1.749
 4910TIP3   OH214735   5.504   3.284   4.672
 4910TIP3    H114736   5.432   3.277   4.609
 4910TIP3    H214737   5.506   3.199   4.715
 4911TIP3   OH214738   4.042   4.600   1.270
 4911TIP3    H114739   4.120   4.617   1.324
 4911TIP3    H214740   4.004   4.520   1.308
 4912TIP3   OH214741   0.690   5.433   2.132
 4912TIP3    H114742   0.654   5.357   2.086
 4912TIP3    H214743   0.685   5.409   2.225
 4913TIP3   OH214744   4.598   0.983   4.834
 4913TIP3    H114745   4.580   0.896   4.800
 4913TIP3    H214746   4.515   1.030   4.826
 4914TIP3   OH214747   0.234   5.308   2.368
 4914TIP3    H114748   0.297   5.270   2.307
 4914TIP3    H214749   0.163   5.340   2.312
 4915TIP3   OH214750   4.149   5.303   5.096
 4915TIP3    H114751   4.067   5.339   5.063
 4915TIP3    H214752   4.176   5.363   5.165
 4916TIP3   OH214753   5.382   0.046   1.718
 4916TIP3    H114754   5.397  -0.033   1.667
 4916TIP3    H214755   5.373   0.115   1.653
 4917TIP3   OH214756   4.543   0.941   4.411
 4917TIP3    H114757   4.535   0.947   4.506
 4917TIP3    H214758   4.630   0.975   4.391
 4918TIP3   OH214759   1.300   5.382   0.780
 4918TIP3    H114760   1.318   5.291   0.804
 4918TIP3    H214761   1.208   5.383   0.756
 4919TIP3   OH214762   1.368   5.126   4.612
 4919TIP3    H114763   1.429   5.060   4.580
 4919TIP3    H214764   1.389   5.205   4.562
 4920TIP3   OH214765   5.743   2.269   3.741
 4920TIP3    H114766   5.764   2.343   3.684
 4920TIP3    H214767   5.721   2.198   3.680
 4921TIP3   OH214768   0.087   2.453   0.198
 4921TIP3    H114769   0.039   2.396   0.259
 4921TIP3    H214770   0.111   2.529   0.250
 4922TIP3   OH214771   3.764   3.840   1.728
 4922TIP3    H114772   3.717   3.851   1.810
 4922TIP3    H214773   3.729   3.760   1.690
 4923TIP3   OH214774   3.272   4.754   4.960
 4923TIP3    H114775   3.222   4.717   4.887
 4923TIP3    H214776   3.363   4.734   4.940
 4924TIP3   OH214777   1.676   2.081   2.450
 4924TIP3    H114778   1.770   2.065   2.461
 4924TIP3    H214779   1.638   2.064   2.536
 4925TIP3   OH214780   5.254   1.436   1.933
 4925TIP3    H114781   5.282   1.384   1.857
 4925TIP3    H214782   5.239   1.523   1.897
 4926TIP3   OH214783   4.157   1.070   1.934
 4926TIP3    H114784   4.195   0.995   1.979
 4926TIP3    H214785   4.221   1.141   1.948
 4927TIP3   OH214786   6.209   2.943   1.561
 4927TIP3    H114787   6.141   2.912   1.621
 4927TIP3    H214788   6.290   2.934   1.611
 4928TIP3   OH214789   0.113   4.903   0.368
 4928TIP3    H114790   0.062   4.966   0.318
 4928TIP3    H214791   0.200   4.944   0.376
 4929TIP3   OH214792   2.079   2.127   1.892
 4929TIP3    H114793   2.115   2.111   1.804
 4929TIP3    H214794   2.020   2.201   1.881
 4930TIP3   OH214795   1.881   0.583   0.796
 4930TIP3    H114796   1.958   0.602   0.851
 4930TIP3    H214797   1.898   0.629   0.714
 4931TIP3   OH214798   6.085   1.556   3.099
 4931TIP3    H114799   6.038   1.475   3.076
 4931TIP3    H214800   6.059   1.573   3.190
 4932TIP3   OH214801   1.981   4.469   3.857
 4932TIP3    H114802   2.026   4.512   3.784
 4932TIP3    H214803   2.050   4.445   3.918
 4933TIP3   OH214804   5.246   3.932   4.549
 4933TIP3    H114805   5.286   3.873   4.614
 4933TIP3    H214806   5.258   3.886   4.466
 4934TIP3   OH214807   5.339   2.777   3.901
 4934TIP3    H114808   5.396   2.704   3.925
 4934TIP3    H214809   5.265   2.771   3.962
 4935TIP3   OH214810   5.305   2.385   4.936
 4935TIP3    H114811   5.396   2.363   4.914
 4935TIP3    H214812   5.279   2.320   5.000
 4936TIP3   OH214813   3.560   5.727   4.245
 4936TIP3    H114814   3.496   5.780   4.292
 4936TIP3    H214815   3.523   5.639   4.244
 4937TIP3   OH214816   1.644   4.927   3.730
 4937TIP3    H114817   1.722   4.915   3.675
 4937TIP3    H214818   1.639   5.022   3.744
 4938TIP3   OH214819   2.390   1.796   2.854
 4938TIP3    H114820   2.446   1.743   2.911
 4938TIP3    H214821   2.308   1.746   2.849
 4939TIP3   OH214822   5.418   4.331   1.197
 4939TIP3    H114823   5.494   4.275   1.214
 4939TIP3    H214824   5.413   4.334   1.102
 4940TIP3   OH214825   4.821   4.500   1.060
 4940TIP3    H114826   4.850   4.446   1.134
 4940TIP3    H214827   4.727   4.485   1.055
 4941TIP3   OH214828   4.790   1.311   3.361
 4941TIP3    H114829   4.779   1.363   3.441
 4941TIP3    H214830   4.743   1.230   3.378
 4942TIP3   OH214831   5.898   3.920   2.930
 4942TIP3    H114832   5.985   3.895   2.962
 4942TIP3    H214833   5.850   3.838   2.921
 4943TIP3   OH214834   3.825   2.714   1.563
 4943TIP3    H114835   3.749   2.698   1.619
 4943TIP3    H214836   3.898   2.672   1.609
 4944TIP3   OH214837   1.365   4.001   1.770
 4944TIP3    H114838   1.444   3.978   1.721
 4944TIP3    H214839   1.366   3.942   1.846
 4945TIP3   OH214840   0.542   4.235   3.905
 4945TIP3    H114841   0.578   4.258   3.991
 4945TIP3    H214842   0.485   4.160   3.921
 4946TIP3   OH214843   5.492   0.100   3.986
 4946TIP3    H114844   5.496   0.045   3.908
 4946TIP3    H214845   5.485   0.190   3.953
 4947TIP3   OH214846   2.715   2.037   3.832
 4947TIP3    H114847   2.795   2.011   3.877
 4947TIP3    H214848   2.730   2.128   3.806
 4948TIP3   OH214849   4.240   3.867   3.833
 4948TIP3    H114850   4.244   3.782   3.788
 4948TIP3    H214851   4.252   3.845   3.925
 4949TIP3   OH214852   3.669   3.828   1.314
 4949TIP3    H114853   3.675   3.735   1.337
 4949TIP3    H214854   3.644   3.871   1.396
 4950TIP3   OH214855   0.607   5.986   1.073
 4950TIP3    H114856   0.621   5.962   1.165
 4950TIP3    H214857   0.678   5.941   1.027
 4951TIP3   OH214858   0.746   1.627   5.133
 4951TIP3    H114859   0.711   1.648   5.046
 4951TIP3    H214860   0.841   1.624   5.120
 4952TIP3   OH214861   2.200   1.830   1.798
 4952TIP3    H114862   2.269   1.784   1.846
 4952TIP3    H214863   2.119   1.787   1.825
 4953TIP3   OH214864   3.826   0.415   4.279
 4953TIP3    H114865   3.903   0.469   4.258
 4953TIP3    H214866   3.754   0.478   4.285
 4954TIP3   OH214867   4.118   4.882   2.082
 4954TIP3    H114868   4.173   4.921   2.014
 4954TIP3    H214869   4.173   4.816   2.123
 4955TIP3   OH214870   4.504   1.090   0.520
 4955TIP3    H114871   4.483   0.998   0.534
 4955TIP3    H214872   4.449   1.116   0.446
 4956TIP3   OH214873   2.687   1.563   2.222
 4956TIP3    H114874   2.742   1.486   2.210
 4956TIP3    H214875   2.686   1.606   2.136
 4957TIP3   OH214876   5.296   4.187   3.930
 4957TIP3    H114877   5.256   4.231   4.006
 4957TIP3    H214878   5.227   4.186   3.864
 4958TIP3   OH214879   2.495   5.093   3.716
 4958TIP3    H114880   2.441   5.138   3.780
 4958TIP3    H214881   2.583   5.127   3.731
 4959TIP3   OH214882   5.162   4.241   2.529
 4959TIP3    H114883   5.153   4.167   2.468
 4959TIP3    H214884   5.076   4.248   2.570
 4960TIP3   OH214885   2.741   3.855   3.664
 4960TIP3    H114886   2.679   3.783   3.647
 4960TIP3    H214887   2.740   3.866   3.759
 4961TIP3   OH214888   0.363   3.585   4.936
 4961TIP3    H114889   0.318   3.517   4.887
 4961TIP3    H214890   0.323   3.583   5.023
 4962TIP3   OH214891   1.810   4.909   4.330
 4962TIP3    H114892   1.805   4.990   4.382
 4962TIP3    H214893   1.803   4.839   4.394
 4963TIP3   OH214894   1.622   3.044   2.409
 4963TIP3    H114895   1.562   3.117   2.397
 4963TIP3    H214896   1.702   3.084   2.443
 4964TIP3   OH214897   0.533   4.540   2.132
 4964TIP3    H114898   0.468   4.485   2.175
 4964TIP3    H214899   0.513   4.531   2.038
 4965TIP3   OH214900   4.182   5.918   1.051
 4965TIP3    H114901   4.132   5.838   1.035
 4965TIP3    H214902   4.128   5.966   1.114
 4966TIP3   OH214903   6.370   0.239   3.441
 4966TIP3    H114904   6.389   0.247   3.347
 4966TIP3    H214905   6.275   0.248   3.446
 4967TIP3   OH214906   4.467   2.364   2.043
 4967TIP3    H114907   4.393   2.349   1.984
 4967TIP3    H214908   4.429   2.411   2.118
 4968TIP3   OH214909   3.906   3.482   1.209
 4968TIP3    H114910   3.917   3.389   1.231
 4968TIP3    H214911   3.814   3.491   1.184
 4969TIP3   OH214912   0.714   2.898   2.196
 4969TIP3    H114913   0.736   2.830   2.132
 4969TIP3    H214914   0.714   2.852   2.280
 4970TIP3   OH214915   1.781   5.095   1.210
 4970TIP3    H114916   1.776   5.008   1.248
 4970TIP3    H214917   1.856   5.136   1.254
 4971TIP3   OH214918   4.902   1.683   3.188
 4971TIP3    H114919   4.873   1.597   3.157
 4971TIP3    H214920   4.822   1.735   3.194
 4972TIP3   OH214921   1.036   4.829   1.935
 4972TIP3    H114922   1.033   4.840   2.030
 4972TIP3    H214923   0.969   4.763   1.916
 4973TIP3   OH214924   3.174   4.026   0.016
 4973TIP3    H114925   3.201   4.098  -0.041
 4973TIP3    H214926   3.127   4.068   0.087
 4974TIP3   OH214927   0.924   4.897   4.684
 4974TIP3    H114928   0.951   4.819   4.733
 4974TIP3    H214929   0.916   4.867   4.593
 4975TIP3   OH214930   3.363   3.391   2.935
 4975TIP3    H114931   3.450   3.379   2.896
 4975TIP3    H214932   3.352   3.315   2.991
 4976TIP3   OH214933   4.538   3.298   2.957
 4976TIP3    H114934   4.490   3.293   2.875
 4976TIP3    H214935   4.472   3.325   3.021
 4977TIP3   OH214936   0.933   3.762   3.255
 4977TIP3    H114937   0.972   3.799   3.176
 4977TIP3    H214938   0.840   3.786   3.250
 4978TIP3   OH214939   3.212   1.319   0.985
 4978TIP3    H114940   3.153   1.321   0.910
 4978TIP3    H214941   3.160   1.353   1.058
 4979TIP3   OH214942   0.166   0.922   2.885
 4979TIP3    H114943   0.152   0.945   2.794
 4979TIP3    H214944   0.205   1.000   2.924
 4980TIP3   OH214945   0.051   2.666   4.191
 4980TIP3    H114946   0.085   2.592   4.241
 4980TIP3    H214947   0.017   2.726   4.258
 4981TIP3   OH214948   3.736   0.659   4.354
 4981TIP3    H114949   3.673   0.709   4.406
 4981TIP3    H214950   3.819   0.673   4.400
 4982TIP3   OH214951   5.576   2.441   5.132
 4982TIP3    H114952   5.542   2.528   5.112
 4982TIP3    H214953   5.535   2.418   5.215
 4983TIP3   OH214954   1.136   3.579   2.522
 4983TIP3    H114955   1.087   3.546   2.447
 4983TIP3    H214956   1.073   3.632   2.570
 4984TIP3   OH214957   0.763   2.811   4.587
 4984TIP3    H114958   0.791   2.797   4.496
 4984TIP3    H214959   0.696   2.745   4.602
 4985TIP3   OH214960   2.926   1.806   0.298
 4985TIP3    H114961   2.871   1.884   0.307
 4985TIP3    H214962   2.873   1.736   0.336
 4986TIP3   OH214963   6.014   2.672   0.988
 4986TIP3    H114964   6.042   2.587   0.954
 4986TIP3    H214965   6.093   2.709   1.029
 4987TIP3   OH214966   4.530   4.706   4.573
 4987TIP3    H114967   4.521   4.696   4.478
 4987TIP3    H214968   4.439   4.712   4.604
 4988TIP3   OH214969   4.326   1.537   3.439
 4988TIP3    H114970   4.289   1.560   3.524
 4988TIP3    H214971   4.287   1.601   3.378
 4989TIP3   OH214972   3.854   4.674   1.900
 4989TIP3    H114973   3.874   4.623   1.979
 4989TIP3    H214974   3.940   4.703   1.868
 4990TIP3   OH214975   4.184   0.470   0.865
 4990TIP3    H114976   4.222   0.522   0.936
 4990TIP3    H214977   4.172   0.383   0.902
 4991TIP3   OH214978   5.510   2.979   4.390
 4991TIP3    H114979   5.470   2.966   4.476
 4991TIP3    H214980   5.587   3.034   4.408
 4992TIP3   OH214981   3.728   5.911   4.398
 4992TIP3    H114982   3.820   5.895   4.377
 4992TIP3    H214983   3.679   5.880   4.322
 4993TIP3   OH214984   4.161   1.809   0.832
 4993TIP3    H114985   4.215   1.782   0.906
 4993TIP3    H214986   4.072   1.784   0.856
 4994TIP3   OH214987   1.547   2.275   4.720
 4994TIP3    H114988   1.459   2.311   4.731
 4994TIP3    H214989   1.536   2.181   4.732
 4995TIP3   OH214990   2.273   5.002   0.361
 4995TIP3    H114991   2.360   4.986   0.325
 4995TIP3    H214992   2.222   5.034   0.286
 4996TIP3   OH214993   3.200   0.138   3.166
 4996TIP3    H114994   3.205   0.093   3.081
 4996TIP3    H214995   3.288   0.130   3.203
 4997TIP3   OH214996   5.007   1.629   0.556
 4997TIP3    H114997   4.953   1.700   0.589
 4997TIP3    H214998   5.061   1.603   0.630
 4998TIP3   OH214999   3.114   0.582   0.960
 4998TIP3    H115000   3.178   0.643   0.922
 4998TIP3    H215001   3.164   0.533   1.025
 4999TIP3   OH215002   3.845   0.920   4.640
 4999TIP3    H115003   3.769   0.877   4.680
 4999TIP3    H215004   3.813   1.007   4.618
 5000TIP3   OH215005   1.257   0.169   4.967
 5000TIP3    H115006   1.196   0.243   4.977
 5000TIP3    H215007   1.209   0.104   4.917
 5001TIP3   OH215008   1.968   4.543   0.039
 5001TIP3    H115009   1.887   4.507   0.004
 5001TIP3    H215010   1.982   4.496   0.121
 5002TIP3   OH215011   3.221   0.097   3.911
 5002TIP3    H115012   3.310   0.062   3.919
 5002TIP3    H215013   3.228   0.188   3.941
 5003TIP3   OH215014   5.049   3.113   3.464
 5003TIP3    H115015   5.077   3.070   3.545
 5003TIP3    H215016   5.130   3.146   3.425
 5004TIP3   OH215017   0.448   2.340   3.357
 5004TIP3    H115018   0.467   2.307   3.445
 5004TIP3    H215019   0.490   2.426   3.355
 5005TIP3   OH215020   1.077   4.692   1.011
 5005TIP3    H115021   1.022   4.638   1.068
 5005TIP3    H215022   1.093   4.638   0.934
 5006TIP3   OH215023   0.734   2.878   0.700
 5006TIP3    H115024   0.820   2.905   0.730
 5006TIP3    H215025   0.678   2.954   0.716
 5007TIP3   OH215026   0.977   3.371   1.503
 5007TIP3    H115027   0.923   3.428   1.448
 5007TIP3    H215028   1.041   3.333   1.442
 5008TIP3   OH215029   3.239   2.859   3.922
 5008TIP3    H115030   3.329   2.830   3.939
 5008TIP3    H215031   3.243   2.954   3.927
 5009TIP3   OH215032   4.808   3.673   1.856
 5009TIP3    H115033   4.883   3.630   1.815
 5009TIP3    H215034   4.794   3.624   1.937
 5010TIP3   OH215035   3.962   1.710   1.167
 5010TIP3    H115036   3.875   1.670   1.168
 5010TIP3    H215037   3.945   1.803   1.150
 5011TIP3   OH215038   4.605   2.140   0.061
 5011TIP3    H115039   4.547   2.135  -0.015
 5011TIP3    H215040   4.612   2.234   0.080
 5012TIP3   OH215041   2.717   5.252   3.728
 5012TIP3    H115042   2.783   5.259   3.658
 5012TIP3    H215043   2.767   5.262   3.809
 5013TIP3   OH215044   3.560   3.780   4.111
 5013TIP3    H115045   3.465   3.778   4.102
 5013TIP3    H215046   3.583   3.872   4.097
 5014TIP3   OH215047   3.863   3.268   3.866
 5014TIP3    H115048   3.937   3.227   3.821
 5014TIP3    H215049   3.899   3.296   3.950
 5015TIP3   OH215050   5.466   1.245   3.354
 5015TIP3    H115051   5.540   1.198   3.393
 5015TIP3    H215052   5.416   1.278   3.428
 5016TIP3   OH215053   5.024   0.423   0.725
 5016TIP3    H115054   4.992   0.464   0.805
 5016TIP3    H215055   4.945   0.395   0.679
 5017TIP3   OH215056   4.826   1.085   0.583
 5017TIP3    H115057   4.788   1.040   0.507
 5017TIP3    H215058   4.772   1.056   0.656
 5018TIP3   OH215059   1.068   2.464   3.928
 5018TIP3    H115060   1.032   2.408   3.997
 5018TIP3    H215061   1.146   2.503   3.967
 5019TIP3   OH215062   3.174   5.008   1.207
 5019TIP3    H115063   3.085   4.979   1.186
 5019TIP3    H215064   3.217   4.929   1.241
 5020TIP3   OH215065   2.426   4.994   2.054
 5020TIP3    H115066   2.497   4.930   2.050
 5020TIP3    H215067   2.467   5.072   2.090
 5021TIP3   OH215068   1.739   4.952   0.963
 5021TIP3    H115069   1.793   4.892   1.015
 5021TIP3    H215070   1.712   5.020   1.024
 5022TIP3   OH215071   3.983   4.829   4.074
 5022TIP3    H115072   3.890   4.806   4.071
 5022TIP3    H215073   3.984   4.922   4.098
 5023TIP3   OH215074   5.687   0.284   2.782
 5023TIP3    H115075   5.748   0.331   2.839
 5023TIP3    H215076   5.666   0.205   2.831
 5024TIP3   OH215077   5.043   3.667   2.229
 5024TIP3    H115078   5.009   3.745   2.186
 5024TIP3    H215079   5.107   3.700   2.292
 5025TIP3   OH215080   4.417   3.975   1.352
 5025TIP3    H115081   4.383   4.052   1.306
 5025TIP3    H215082   4.473   3.932   1.288
 5026TIP3   OH215083   3.229   4.474   4.838
 5026TIP3    H115084   3.239   4.386   4.801
 5026TIP3    H215085   3.314   4.493   4.878
 5027TIP3   OH215086   4.202   3.431   0.827
 5027TIP3    H115087   4.285   3.474   0.804
 5027TIP3    H215088   4.165   3.486   0.896
 5028TIP3   OH215089   1.797   4.453   4.732
 5028TIP3    H115090   1.815   4.483   4.821
 5028TIP3    H215091   1.702   4.464   4.722
 5029TIP3   OH215092   5.629   1.275   2.570
 5029TIP3    H115093   5.655   1.196   2.523
 5029TIP3    H215094   5.577   1.325   2.507
 5030TIP3   OH215095   0.287   2.085   1.587
 5030TIP3    H115096   0.347   2.152   1.620
 5030TIP3    H215097   0.342   2.007   1.576
 5031TIP3   OH215098   3.779   5.521   3.860
 5031TIP3    H115099   3.810   5.519   3.769
 5031TIP3    H215100   3.684   5.529   3.853
 5032TIP3   OH215101   4.914   4.570   1.878
 5032TIP3    H115102   4.853   4.614   1.937
 5032TIP3    H215103   4.877   4.585   1.791
 5033TIP3   OH215104   0.672   3.547   0.445
 5033TIP3    H115105   0.664   3.633   0.487
 5033TIP3    H215106   0.661   3.484   0.516
 5034TIP3   OH215107   0.321   0.781   3.056
 5034TIP3    H115108   0.267   0.823   2.989
 5034TIP3    H215109   0.293   0.690   3.056
 5035TIP3   OH215110   2.296   1.462   3.577
 5035TIP3    H115111   2.230   1.526   3.604
 5035TIP3    H215112   2.254   1.414   3.505
 5036TIP3   OH215113   4.657   2.131   4.670
 5036TIP3    H115114   4.693   2.200   4.725
 5036TIP3    H215115   4.566   2.157   4.655
 5037TIP3   OH215116   4.075   2.343   0.840
 5037TIP3    H115117   4.068   2.266   0.783
 5037TIP3    H215118   4.089   2.416   0.779
 5038TIP3   OH215119   5.721   3.560   4.850
 5038TIP3    H115120   5.816   3.555   4.842
 5038TIP3    H215121   5.687   3.525   4.768
 5039TIP3   OH215122   2.850   3.137   3.384
 5039TIP3    H115123   2.935   3.102   3.358
 5039TIP3    H215124   2.814   3.174   3.303
 5040TIP3   OH215125   2.628   3.651   0.624
 5040TIP3    H115126   2.652   3.558   0.619
 5040TIP3    H215127   2.711   3.698   0.626
 5041TIP3   OH215128   5.327   0.215   4.842
 5041TIP3    H115129   5.259   0.242   4.904
 5041TIP3    H215130   5.350   0.126   4.869
 5042TIP3   OH215131   0.646   1.977   0.462
 5042TIP3    H115132   0.648   1.882   0.460
 5042TIP3    H215133   0.705   2.004   0.392
 5043TIP3   OH215134   4.115   4.332   3.235
 5043TIP3    H115135   4.033   4.320   3.187
 5043TIP3    H215136   4.094   4.394   3.304
 5044TIP3   OH215137   1.650   3.406   2.993
 5044TIP3    H115138   1.569   3.356   3.001
 5044TIP3    H215139   1.706   3.352   2.937
 5045TIP3   OH215140   5.581   5.397   3.087
 5045TIP3    H115141   5.640   5.472   3.077
 5045TIP3    H215142   5.498   5.435   3.117
 5046TIP3   OH215143   4.281   3.903   3.493
 5046TIP3    H115144   4.246   3.990   3.471
 5046TIP3    H215145   4.240   3.881   3.576
 5047TIP3   OH215146   5.243   5.556   3.559
 5047TIP3    H115147   5.245   5.468   3.521
 5047TIP3    H215148   5.243   5.540   3.654
 5048TIP3   OH215149   1.443   1.421   4.203
 5048TIP3    H115150   1.389   1.477   4.148
 5048TIP3    H215151   1.415   1.332   4.182
 5049TIP3   OH215152   1.700   4.305   1.017
 5049TIP3    H115153   1.608   4.307   0.992
 5049TIP3    H215154   1.726   4.214   1.006
 5050TIP3   OH215155   1.159   3.216   2.290
 5050TIP3    H115156   1.219   3.276   2.245
 5050TIP3    H215157   1.111   3.172   2.219
 5051TIP3   OH215158   0.782   0.032   0.945
 5051TIP3    H115159   0.734   0.028   0.862
 5051TIP3    H215160   0.859  -0.024   0.931
 5052TIP3   OH215161   2.409   4.737   4.708
 5052TIP3    H115162   2.323   4.708   4.741
 5052TIP3    H215163   2.395   4.828   4.683
 5053TIP3   OH215164   3.601   1.165   5.174
 5053TIP3    H115165   3.574   1.073   5.171
 5053TIP3    H215166   3.680   1.169   5.120
 5054TIP3   OH215167   4.887   2.513   1.916
 5054TIP3    H115168   4.810   2.515   1.859
 5054TIP3    H215169   4.941   2.586   1.887
 5055TIP3   OH215170   0.435   5.772   4.117
 5055TIP3    H115171   0.408   5.771   4.025
 5055TIP3    H215172   0.418   5.683   4.148
 5056TIP3   OH215173   4.235   0.674   1.180
 5056TIP3    H115174   4.172   0.744   1.163
 5056TIP3    H215175   4.181   0.597   1.200
 5057TIP3   OH215176   1.707   5.978   5.058
 5057TIP3    H115177   1.696   6.012   5.146
 5057TIP3    H215178   1.675   5.888   5.063
 5058TIP3   OH215179   3.572   5.007   2.563
 5058TIP3    H115180   3.575   4.922   2.519
 5058TIP3    H215181   3.577   5.071   2.491
 5059TIP3   OH215182   4.771   2.925   3.234
 5059TIP3    H115183   4.857   2.885   3.221
 5059TIP3    H215184   4.766   2.994   3.169
 5060TIP3   OH215185   4.238   3.753   0.129
 5060TIP3    H115186   4.173   3.764   0.198
 5060TIP3    H215187   4.248   3.840   0.091
 5061TIP3   OH215188   2.783   3.211   0.583
 5061TIP3    H115189   2.772   3.273   0.655
 5061TIP3    H215190   2.719   3.142   0.601
 5062TIP3   OH215191   0.220   2.214   0.100
 5062TIP3    H115192   0.207   2.295   0.148
 5062TIP3    H215193   0.272   2.238   0.024
 5063TIP3   OH215194   6.240   2.747   3.784
 5063TIP3    H115195   6.177   2.813   3.756
 5063TIP3    H215196   6.186   2.678   3.823
 5064TIP3   OH215197   6.030   2.648   3.047
 5064TIP3    H115198   6.026   2.700   3.126
 5064TIP3    H215199   5.946   2.603   3.042
 5065TIP3   OH215200   4.252   2.769   3.767
 5065TIP3    H115201   4.318   2.838   3.757
 5065TIP3    H215202   4.276   2.704   3.701
 5066TIP3   OH215203   0.090   5.535   4.165
 5066TIP3    H115204   0.120   5.466   4.224
 5066TIP3    H215205   0.151   5.532   4.092
 5067TIP3   OH215206   5.172   1.139   4.916
 5067TIP3    H115207   5.104   1.115   4.852
 5067TIP3    H215208   5.224   1.205   4.871
 5068TIP3   OH215209   0.604   1.427   1.219
 5068TIP3    H115210   0.511   1.424   1.243
 5068TIP3    H215211   0.614   1.512   1.175
 5069TIP3   OH215212   4.215   2.378   3.494
 5069TIP3    H115213   4.150   2.438   3.530
 5069TIP3    H215214   4.210   2.391   3.399
 5070TIP3   OH215215   2.950   4.196   2.958
 5070TIP3    H115216   2.887   4.166   2.893
 5070TIP3    H215217   2.900   4.250   3.018
 5071TIP3   OH215218   2.421   5.932   1.582
 5071TIP3    H115219   2.480   6.006   1.569
 5071TIP3    H215220   2.339   5.959   1.541
 5072TIP3   OH215221   2.775   3.467   0.735
 5072TIP3    H115222   2.752   3.527   0.806
 5072TIP3    H215223   2.870   3.465   0.736
 5073TIP3   OH215224   2.638   4.347   0.381
 5073TIP3    H115225   2.662   4.404   0.453
 5073TIP3    H215226   2.565   4.392   0.337
 5074TIP3   OH215227   2.720   4.142   5.077
 5074TIP3    H115228   2.777   4.112   5.147
 5074TIP3    H215229   2.762   4.110   4.997
 5075TIP3   OH215230   1.102   3.633   0.448
 5075TIP3    H115231   1.058   3.549   0.455
 5075TIP3    H215232   1.035   3.692   0.414
 5076TIP3   OH215233   3.874   1.505   3.929
 5076TIP3    H115234   3.805   1.496   3.863
 5076TIP3    H215235   3.934   1.570   3.893
 5077TIP3   OH215236   4.403   0.162   2.967
 5077TIP3    H115237   4.392   0.113   3.048
 5077TIP3    H215238   4.402   0.096   2.898
 5078TIP3   OH215239   0.574   0.539   3.834
 5078TIP3    H115240   0.627   0.518   3.757
 5078TIP3    H215241   0.628   0.511   3.908
 5079TIP3   OH215242   4.897   3.429   3.354
 5079TIP3    H115243   4.887   3.338   3.380
 5079TIP3    H215244   4.809   3.459   3.333
 5080TIP3   OH215245   3.726   4.458   2.319
 5080TIP3    H115246   3.645   4.469   2.368
 5080TIP3    H215247   3.743   4.364   2.319
 5081TIP3   OH215248   3.439   3.751   2.108
 5081TIP3    H115249   3.409   3.721   2.022
 5081TIP3    H215250   3.391   3.696   2.170
 5082TIP3   OH215251   5.100   5.720   0.782
 5082TIP3    H115252   5.147   5.690   0.704
 5082TIP3    H215253   5.014   5.746   0.749
 5083TIP3   OH215254   4.349   0.782   4.276
 5083TIP3    H115255   4.422   0.816   4.328
 5083TIP3    H215256   4.292   0.740   4.340
 5084TIP3   OH215257   5.408   1.301   3.807
 5084TIP3    H115258   5.438   1.384   3.845
 5084TIP3    H215259   5.364   1.256   3.880
 5085TIP3   OH215260   3.623   1.941   4.879
 5085TIP3    H115261   3.637   2.031   4.908
 5085TIP3    H215262   3.549   1.946   4.819
 5086TIP3   OH215263   4.282   0.807   2.014
 5086TIP3    H115264   4.345   0.835   2.080
 5086TIP3    H215265   4.202   0.789   2.063
 5087TIP3   OH215266   5.500   3.005   3.843
 5087TIP3    H115267   5.572   3.007   3.906
 5087TIP3    H215268   5.444   2.933   3.872
 5088TIP3   OH215269   0.165   2.281   0.990
 5088TIP3    H115270   0.223   2.205   0.982
 5088TIP3    H215271   0.166   2.303   1.083
 5089TIP3   OH215272   3.364  -0.022   0.676
 5089TIP3    H115273   3.319   0.019   0.750
 5089TIP3    H215274   3.348   0.037   0.603
 5090TIP3   OH215275   1.937   4.118   3.259
 5090TIP3    H115276   1.902   4.154   3.177
 5090TIP3    H215277   2.024   4.087   3.235
 5091TIP3   OH215278   0.040   5.601   0.008
 5091TIP3    H115279   0.043   5.692   0.037
 5091TIP3    H215280   0.085   5.552   0.077
 5092TIP3   OH215281   4.094   5.278   4.350
 5092TIP3    H115282   4.104   5.276   4.445
 5092TIP3    H215283   4.096   5.186   4.323
 5093TIP3   OH215284   3.571   5.210   2.366
 5093TIP3    H115285   3.522   5.265   2.426
 5093TIP3    H215286   3.525   5.219   2.282
 5094TIP3   OH215287   0.050   4.055   1.684
 5094TIP3    H115288   0.090   4.121   1.627
 5094TIP3    H215289   0.008   3.993   1.624
 5095TIP3   OH215290   2.432   2.547   4.974
 5095TIP3    H115291   2.364   2.611   4.954
 5095TIP3    H215292   2.418   2.477   4.911
 5096TIP3   OH215293   3.578   0.236   2.291
 5096TIP3    H115294   3.608   0.183   2.217
 5096TIP3    H215295   3.651   0.234   2.353
 5097TIP3   OH215296   2.514   3.974   0.473
 5097TIP3    H115297   2.455   3.920   0.525
 5097TIP3    H215298   2.495   3.950   0.382
 5098TIP3   OH215299   0.045   1.860   0.969
 5098TIP3    H115300  -0.007   1.799   1.021
 5098TIP3    H215301   0.115   1.888   1.028
 5099TIP3   OH215302   5.533   4.086   1.902
 5099TIP3    H115303   5.477   4.066   1.827
 5099TIP3    H215304   5.539   4.182   1.903
 5100TIP3   OH215305   4.193   4.578   1.577
 5100TIP3    H115306   4.148   4.501   1.541
 5100TIP3    H215307   4.149   4.595   1.660
 5101TIP3   OH215308   5.926   4.274   2.406
 5101TIP3    H115309   5.945   4.356   2.361
 5101TIP3    H215310   6.012   4.237   2.427
 5102TIP3   OH215311   2.164   3.837   1.608
 5102TIP3    H115312   2.236   3.791   1.651
 5102TIP3    H215313   2.176   3.818   1.515
 5103TIP3   OH215314   3.277   5.320   4.887
 5103TIP3    H115315   3.349   5.260   4.870
 5103TIP3    H215316   3.225   5.319   4.807
 5104TIP3   OH215317   2.688   3.814   5.029
 5104TIP3    H115318   2.729   3.735   4.993
 5104TIP3    H215319   2.761   3.873   5.048
 5105TIP3   OH215320   2.195   4.411   0.661
 5105TIP3    H115321   2.232   4.406   0.749
 5105TIP3    H215322   2.121   4.471   0.670
 5106TIP3   OH215323   2.306   1.265   0.939
 5106TIP3    H115324   2.381   1.243   0.883
 5106TIP3    H215325   2.317   1.212   1.017
 5107TIP3   OH215326   1.930   2.901   0.915
 5107TIP3    H115327   1.856   2.961   0.927
 5107TIP3    H215328   1.914   2.859   0.830
 5108TIP3   OH215329   5.369   0.782   2.123
 5108TIP3    H115330   5.381   0.838   2.200
 5108TIP3    H215331   5.282   0.805   2.090
 5109TIP3   OH215332   1.604   3.225   0.058
 5109TIP3    H115333   1.668   3.157   0.036
 5109TIP3    H215334   1.630   3.299   0.004
 5110TIP3   OH215335   5.548   3.673   2.301
 5110TIP3    H115336   5.471   3.620   2.321
 5110TIP3    H215337   5.577   3.706   2.387
 5111TIP3   OH215338   4.116   0.873   1.000
 5111TIP3    H115339   4.183   0.896   0.935
 5111TIP3    H215340   4.048   0.827   0.949
 5112TIP3   OH215341   4.265   0.398   3.727
 5112TIP3    H115342   4.212   0.422   3.803
 5112TIP3    H215343   4.301   0.312   3.749
 5113TIP3   OH215344   4.462   3.575   0.754
 5113TIP3    H115345   4.499   3.487   0.751
 5113TIP3    H215346   4.536   3.632   0.776
 5114TIP3   OH215347   2.837   3.476   1.180
 5114TIP3    H115348   2.911   3.461   1.120
 5114TIP3    H215349   2.789   3.549   1.141
 5115TIP3   OH215350   3.455   4.682   0.306
 5115TIP3    H115351   3.471   4.728   0.388
 5115TIP3    H215352   3.430   4.593   0.333
 5116TIP3   OH215353   4.841   3.646   1.480
 5116TIP3    H115354   4.813   3.554   1.480
 5116TIP3    H215355   4.934   3.642   1.460
 5117TIP3   OH215356   5.882   3.910   1.549
 5117TIP3    H115357   5.965   3.863   1.555
 5117TIP3    H215358   5.892   3.966   1.472
 5118TIP3   OH215359   1.566   0.980   0.283
 5118TIP3    H115360   1.588   1.006   0.373
 5118TIP3    H215361   1.484   0.933   0.291
 5119TIP3   OH215362   5.375   2.970   3.015
 5119TIP3    H115363   5.415   3.028   3.080
 5119TIP3    H215364   5.282   2.967   3.039
 5120TIP3   OH215365   1.821   2.315   1.890
 5120TIP3    H115366   1.749   2.366   1.928
 5120TIP3    H215367   1.854   2.371   1.819
 5121TIP3   OH215368   4.677   3.027   1.704
 5121TIP3    H115369   4.728   3.023   1.784
 5121TIP3    H215370   4.742   3.032   1.634
 5122TIP3   OH215371   0.292   3.903   4.025
 5122TIP3    H115372   0.229   3.846   3.982
 5122TIP3    H215373   0.243   3.945   4.095
 5123TIP3   OH215374   1.579   4.475   4.307
 5123TIP3    H115375   1.643   4.508   4.245
 5123TIP3    H215376   1.600   4.382   4.317
 5124TIP3   OH215377   1.340   2.712   2.647
 5124TIP3    H115378   1.350   2.764   2.568
 5124TIP3    H215379   1.430   2.693   2.674
 5125TIP3   OH215380   3.290   1.174   0.734
 5125TIP3    H115381   3.349   1.113   0.776
 5125TIP3    H215382   3.346   1.226   0.676
 5126TIP3   OH215383   2.301   3.665   1.413
 5126TIP3    H115384   2.314   3.634   1.323
 5126TIP3    H215385   2.389   3.672   1.450
 5127TIP3   OH215386   6.187   3.696   0.565
 5127TIP3    H115387   6.193   3.790   0.546
 5127TIP3    H215388   6.104   3.686   0.612
 5128TIP3   OH215389   5.790   4.944   4.895
 5128TIP3    H115390   5.807   4.948   4.989
 5128TIP3    H215391   5.865   4.990   4.856
 5129TIP3   OH215392   5.093   4.271   4.880
 5129TIP3    H115393   5.183   4.242   4.896
 5129TIP3    H215394   5.100   4.365   4.863
 5130TIP3   OH215395   5.470   4.377   4.552
 5130TIP3    H115396   5.564   4.380   4.571
 5130TIP3    H215397   5.428   4.387   4.637
 5131TIP3   OH215398   2.643   5.450   4.959
 5131TIP3    H115399   2.587   5.461   5.036
 5131TIP3    H215400   2.704   5.381   4.984
 5132TIP3   OH215401   2.726   1.425   3.217
 5132TIP3    H115402   2.731   1.352   3.155
 5132TIP3    H215403   2.807   1.473   3.202
 5133TIP3   OH215404   2.824   1.436   2.792
 5133TIP3    H115405   2.863   1.435   2.880
 5133TIP3    H215406   2.741   1.391   2.802
 5134TIP3   OH215407   5.042   5.371   0.187
 5134TIP3    H115408   5.016   5.327   0.106
 5134TIP3    H215409   5.099   5.309   0.231
 5135TIP3   OH215410   5.606   0.343   3.175
 5135TIP3    H115411   5.639   0.370   3.261
 5135TIP3    H215412   5.538   0.406   3.153
 5136TIP3   OH215413   1.153   1.657   1.091
 5136TIP3    H115414   1.233   1.630   1.047
 5136TIP3    H215415   1.113   1.576   1.122
 5137TIP3   OH215416   1.368   5.378   3.564
 5137TIP3    H115417   1.388   5.304   3.621
 5137TIP3    H215418   1.379   5.455   3.620
 5138TIP3   OH215419   0.379   2.481   0.002
 5138TIP3    H115420   0.402   2.470   0.094
 5138TIP3    H215421   0.313   2.550   0.002
 5139TIP3   OH215422   4.792   1.438   3.116
 5139TIP3    H115423   4.755   1.365   3.067
 5139TIP3    H215424   4.808   1.403   3.204
 5140TIP3   OH215425   4.690   2.387   0.661
 5140TIP3    H115426   4.774   2.402   0.618
 5140TIP3    H215427   4.640   2.335   0.597
 5141TIP3   OH215428   2.996   0.409   0.783
 5141TIP3    H115429   2.911   0.453   0.778
 5141TIP3    H215430   3.056   0.475   0.818
 5142TIP3   OH215431   2.409   3.200   1.680
 5142TIP3    H115432   2.484   3.168   1.631
 5142TIP3    H215433   2.348   3.231   1.613
 5143TIP3   OH215434   0.404   0.817   2.479
 5143TIP3    H115435   0.475   0.754   2.493
 5143TIP3    H215436   0.326   0.762   2.466
 5144TIP3   OH215437   5.210   1.061   1.492
 5144TIP3    H115438   5.232   1.148   1.457
 5144TIP3    H215439   5.285   1.006   1.469
 5145TIP3   OH215440   4.827   2.827   3.517
 5145TIP3    H115441   4.818   2.902   3.458
 5145TIP3    H215442   4.784   2.854   3.597
 5146TIP3   OH215443   0.308   2.232   2.679
 5146TIP3    H115444   0.303   2.203   2.587
 5146TIP3    H215445   0.362   2.166   2.721
 5147TIP3   OH215446   3.157   0.530   1.518
 5147TIP3    H115447   3.144   0.596   1.450
 5147TIP3    H215448   3.105   0.562   1.592
 5148TIP3   OH215449   0.446   5.847   1.547
 5148TIP3    H115450   0.457   5.761   1.589
 5148TIP3    H215451   0.522   5.897   1.575
 5149TIP3   OH215452   1.420   4.017   0.825
 5149TIP3    H115453   1.363   4.040   0.751
 5149TIP3    H215454   1.405   4.086   0.889
 5150TIP3   OH215455   5.194   3.105   0.549
 5150TIP3    H115456   5.204   3.163   0.625
 5150TIP3    H215457   5.164   3.022   0.586
 5151TIP3   OH215458   4.568   5.312   3.292
 5151TIP3    H115459   4.563   5.253   3.216
 5151TIP3    H215460   4.499   5.280   3.351
 5152TIP3   OH215461   5.299   4.523   4.195
 5152TIP3    H115462   5.394   4.512   4.197
 5152TIP3    H215463   5.281   4.569   4.113
 5153TIP3   OH215464   2.782   0.855   3.751
 5153TIP3    H115465   2.831   0.812   3.682
 5153TIP3    H215466   2.713   0.904   3.705
 5154TIP3   OH215467   5.382   2.608   2.395
 5154TIP3    H115468   5.367   2.518   2.422
 5154TIP3    H215469   5.451   2.640   2.454
 5155TIP3   OH215470   3.332   4.707   2.267
 5155TIP3    H115471   3.362   4.619   2.246
 5155TIP3    H215472   3.410   4.753   2.297
 5156TIP3   OH215473   0.487   0.577   1.316
 5156TIP3    H115474   0.451   0.493   1.287
 5156TIP3    H215475   0.551   0.553   1.383
 5157TIP3   OH215476   5.836   2.197   1.906
 5157TIP3    H115477   5.844   2.135   1.979
 5157TIP3    H215478   5.836   2.283   1.948
 5158TIP3   OH215479   4.023   0.667   1.452
 5158TIP3    H115480   4.115   0.692   1.446
 5158TIP3    H215481   3.981   0.715   1.380
 5159TIP3   OH215482   2.363   1.123   1.170
 5159TIP3    H115483   2.305   1.048   1.157
 5159TIP3    H215484   2.382   1.121   1.264
 5160TIP3   OH215485   5.536   5.643   3.879
 5160TIP3    H115486   5.460   5.696   3.903
 5160TIP3    H215487   5.595   5.704   3.836
 5161TIP3   OH215488   4.407   2.783   2.176
 5161TIP3    H115489   4.338   2.759   2.237
 5161TIP3    H215490   4.473   2.715   2.186
 5162TIP3   OH215491   3.828   1.483   3.485
 5162TIP3    H115492   3.762   1.508   3.550
 5162TIP3    H215493   3.820   1.387   3.478
 5163TIP3   OH215494   0.142   4.301   1.515
 5163TIP3    H115495   0.059   4.348   1.504
 5163TIP3    H215496   0.204   4.351   1.462
 5164TIP3   OH215497   2.206   1.630   1.148
 5164TIP3    H115498   2.187   1.537   1.162
 5164TIP3    H215499   2.167   1.673   1.224
 5165TIP3   OH215500   1.358   4.364   3.621
 5165TIP3    H115501   1.399   4.349   3.536
 5165TIP3    H215502   1.431   4.380   3.681
 5166TIP3   OH215503   3.413   0.907   0.862
 5166TIP3    H115504   3.506   0.886   0.875
 5166TIP3    H215505   3.373   0.892   0.947
 5167TIP3   OH215506   3.753   4.845   1.068
 5167TIP3    H115507   3.739   4.817   1.158
 5167TIP3    H215508   3.679   4.902   1.048
 5168TIP3   OH215509   2.198   4.027   3.180
 5168TIP3    H115510   2.247   3.945   3.180
 5168TIP3    H215511   2.171   4.039   3.088
 5169TIP3   OH215512   0.349   2.946   5.083
 5169TIP3    H115513   0.416   3.014   5.087
 5169TIP3    H215514   0.342   2.914   5.173
 5170TIP3   OH215515   0.394   0.120   3.592
 5170TIP3    H115516   0.484   0.138   3.619
 5170TIP3    H215517   0.359   0.206   3.569
 5171TIP3   OH215518   4.119   5.947   4.619
 5171TIP3    H115519   4.067   5.963   4.541
 5171TIP3    H215520   4.170   5.869   4.599
 5172TIP3   OH215521   4.281   0.749   2.433
 5172TIP3    H115522   4.372   0.742   2.461
 5172TIP3    H215523   4.244   0.819   2.488
 5173TIP3   OH215524   0.714   0.660   0.551
 5173TIP3    H115525   0.670   0.712   0.484
 5173TIP3    H215526   0.795   0.631   0.508
 5174TIP3   OH215527   5.814   3.705   0.083
 5174TIP3    H115528   5.848   3.663   0.004
 5174TIP3    H215529   5.871   3.781   0.096
 5175TIP3   OH215530   5.755   1.172   3.074
 5175TIP3    H115531   5.783   1.082   3.084
 5175TIP3    H215532   5.741   1.203   3.164
 5176TIP3   OH215533   2.650   4.429   1.617
 5176TIP3    H115534   2.723   4.478   1.656
 5176TIP3    H215535   2.673   4.337   1.632
 5177TIP3   OH215536   4.581   2.898   1.008
 5177TIP3    H115537   4.536   2.928   1.087
 5177TIP3    H215538   4.651   2.962   0.994
 5178TIP3   OH215539   3.774   1.177   4.949
 5178TIP3    H115540   3.771   1.257   4.896
 5178TIP3    H215541   3.686   1.140   4.942
 5179TIP3   OH215542   4.020   1.124   1.171
 5179TIP3    H115543   4.054   1.050   1.122
 5179TIP3    H215544   3.945   1.154   1.121
 5180TIP3   OH215545   3.035   5.172   3.727
 5180TIP3    H115546   3.055   5.112   3.800
 5180TIP3    H215547   3.002   5.116   3.658
 5181TIP3   OH215548   4.910   2.475   0.371
 5181TIP3    H115549   4.982   2.480   0.434
 5181TIP3    H215550   4.902   2.382   0.351
 5182TIP3   OH215551   2.113   3.116   0.982
 5182TIP3    H115552   2.108   3.178   0.910
 5182TIP3    H215553   2.058   3.042   0.954
 5183TIP3   OH215554   5.838   1.100   5.028
 5183TIP3    H115555   5.747   1.118   5.053
 5183TIP3    H215556   5.887   1.106   5.110
 5184TIP3   OH215557   2.866   2.781   4.843
 5184TIP3    H115558   2.826   2.861   4.809
 5184TIP3    H215559   2.844   2.714   4.779
 5185TIP3   OH215560   1.203   2.524   1.787
 5185TIP3    H115561   1.153   2.554   1.711
 5185TIP3    H215562   1.197   2.429   1.784
 5186TIP3   OH215563   4.103   2.124   0.282
 5186TIP3    H115564   4.081   2.212   0.252
 5186TIP3    H215565   4.197   2.115   0.264
 5187TIP3   OH215566   3.521   2.201   1.942
 5187TIP3    H115567   3.569   2.122   1.918
 5187TIP3    H215568   3.456   2.171   2.005
 5188TIP3   OH215569   6.272   5.324   3.721
 5188TIP3    H115570   6.345   5.356   3.668
 5188TIP3    H215571   6.194   5.341   3.667
 5189TIP3   OH215572   5.025   4.084   3.631
 5189TIP3    H115573   5.106   4.041   3.603
 5189TIP3    H215574   4.962   4.064   3.562
 5190TIP3   OH215575   3.253   4.413   2.607
 5190TIP3    H115576   3.286   4.425   2.696
 5190TIP3    H215577   3.174   4.361   2.618
 5191TIP3   OH215578   2.488   0.696   4.521
 5191TIP3    H115579   2.548   0.770   4.506
 5191TIP3    H215580   2.463   0.704   4.613
 5192TIP3   OH215581   3.065   1.177   4.102
 5192TIP3    H115582   3.092   1.183   4.194
 5192TIP3    H215583   3.080   1.265   4.067
 5193TIP3   OH215584   6.269   1.190   4.618
 5193TIP3    H115585   6.259   1.141   4.536
 5193TIP3    H215586   6.243   1.128   4.686
 5194TIP3   OH215587   6.190   0.459   4.061
 5194TIP3    H115588   6.236   0.540   4.041
 5194TIP3    H215589   6.143   0.438   3.980
 5195TIP3   OH215590   3.225   1.029   2.708
 5195TIP3    H115591   3.189   1.100   2.761
 5195TIP3    H215592   3.270   0.972   2.771
 5196TIP3   OH215593   4.212   3.564   2.008
 5196TIP3    H115594   4.294   3.586   1.964
 5196TIP3    H215595   4.198   3.471   1.990
 5197TIP3   OH215596   5.101   4.650   3.064
 5197TIP3    H115597   5.188   4.668   3.029
 5197TIP3    H215598   5.102   4.556   3.084
 5198TIP3   OH215599   2.285   0.438   0.275
 5198TIP3    H115600   2.293   0.343   0.274
 5198TIP3    H215601   2.218   0.456   0.341
 5199TIP3   OH215602   5.139   0.008   1.831
 5199TIP3    H115603   5.228   0.025   1.801
 5199TIP3    H215604   5.100   0.094   1.843
 5200TIP3   OH215605   0.791   2.115   0.250
 5200TIP3    H115606   0.823   2.028   0.229
 5200TIP3    H215607   0.867   2.161   0.287
 5201TIP3   OH215608   3.265   4.578   3.049
 5201TIP3    H115609   3.313   4.653   3.016
 5201TIP3    H215610   3.175   4.591   3.017
 5202TIP3   OH215611   2.649   1.195   2.296
 5202TIP3    H115612   2.737   1.232   2.301
 5202TIP3    H215613   2.663   1.101   2.282
 5203TIP3   OH215614   2.397   5.199   4.948
 5203TIP3    H115615   2.329   5.251   4.991
 5203TIP3    H215616   2.424   5.252   4.873
 5204TIP3   OH215617   0.488   0.084   4.390
 5204TIP3    H115618   0.508   0.047   4.476
 5204TIP3    H215619   0.541   0.033   4.329
 5205TIP3   OH215620   2.656   0.442   0.814
 5205TIP3    H115621   2.634   0.501   0.887
 5205TIP3    H215622   2.626   0.356   0.843
 5206TIP3   OH215623   2.596   0.473   1.877
 5206TIP3    H115624   2.620   0.536   1.808
 5206TIP3    H215625   2.677   0.462   1.927
 5207TIP3   OH215626   3.015   0.323   0.475
 5207TIP3    H115627   2.998   0.348   0.565
 5207TIP3    H215628   2.966   0.386   0.422
 5208TIP3   OH215629   1.571   2.060   1.869
 5208TIP3    H115630   1.520   1.989   1.831
 5208TIP3    H215631   1.638   2.079   1.803
 5209TIP3   OH215632   2.477   5.570   1.075
 5209TIP3    H115633   2.423   5.647   1.092
 5209TIP3    H215634   2.417   5.496   1.085
 5210TIP3   OH215635   3.895   1.060   2.972
 5210TIP3    H115636   3.934   1.112   2.902
 5210TIP3    H215637   3.804   1.048   2.946
 5211TIP3   OH215638   3.368   2.975   0.090
 5211TIP3    H115639   3.319   2.899   0.121
 5211TIP3    H215640   3.306   3.024   0.037
 5212TIP3   OH215641   5.902   5.009   0.029
 5212TIP3    H115642   5.874   4.922   0.002
 5212TIP3    H215643   5.936   4.997   0.117
 5213TIP3   OH215644   0.053   4.964   2.755
 5213TIP3    H115645   0.138   4.921   2.747
 5213TIP3    H215646  -0.008   4.893   2.776
 5214TIP3   OH215647   0.116   2.336   3.825
 5214TIP3    H115648   0.065   2.398   3.878
 5214TIP3    H215649   0.169   2.289   3.889
 5215TIP3   OH215650   4.194   3.140   5.103
 5215TIP3    H115651   4.138   3.198   5.050
 5215TIP3    H215652   4.132   3.087   5.153
 5216TIP3   OH215653   5.027   2.536   0.095
 5216TIP3    H115654   4.976   2.526   0.175
 5216TIP3    H215655   5.103   2.479   0.108
 5217TIP3   OH215656   4.049   0.267   5.094
 5217TIP3    H115657   4.073   0.190   5.042
 5217TIP3    H215658   4.027   0.231   5.180
 5218TIP3   OH215659   2.367   5.198   1.451
 5218TIP3    H115660   2.335   5.287   1.435
 5218TIP3    H215661   2.462   5.204   1.441
 5219TIP3   OH215662   1.264   5.411   2.701
 5219TIP3    H115663   1.296   5.334   2.655
 5219TIP3    H215664   1.173   5.390   2.722
 5220TIP3   OH215665   1.227   4.864   1.747
 5220TIP3    H115666   1.303   4.828   1.793
 5220TIP3    H215667   1.158   4.868   1.814
 5221TIP3   OH215668   5.362   0.358   1.075
 5221TIP3    H115669   5.272   0.388   1.057
 5221TIP3    H215670   5.415   0.437   1.065
 5222TIP3   OH215671   2.486   4.440   1.848
 5222TIP3    H115672   2.517   4.451   1.758
 5222TIP3    H215673   2.565   4.451   1.901
 5223TIP3   OH215674   2.906   1.973   4.017
 5223TIP3    H115675   2.889   1.888   3.977
 5223TIP3    H215676   3.001   1.983   4.014
 5224TIP3   OH215677   5.607   2.346   4.878
 5224TIP3    H115678   5.600   2.252   4.896
 5224TIP3    H215679   5.604   2.387   4.964
 5225TIP3   OH215680   0.401   2.310   1.390
 5225TIP3    H115681   0.454   2.363   1.450
 5225TIP3    H215682   0.452   2.230   1.377
 5226TIP3   OH215683   2.682   0.633   1.660
 5226TIP3    H115684   2.650   0.580   1.587
 5226TIP3    H215685   2.669   0.723   1.631
 5227TIP3   OH215686   1.107   1.170   4.628
 5227TIP3    H115687   1.035   1.130   4.675
 5227TIP3    H215688   1.095   1.264   4.640
 5228TIP3   OH215689   3.387   3.665   4.927
 5228TIP3    H115690   3.393   3.760   4.919
 5228TIP3    H215691   3.316   3.650   4.990
 5229TIP3   OH215692   2.861   0.211   2.123
 5229TIP3    H115693   2.820   0.192   2.038
 5229TIP3    H215694   2.834   0.137   2.179
 5230TIP3   OH215695   5.922   1.619   2.529
 5230TIP3    H115696   6.013   1.610   2.502
 5230TIP3    H215697   5.871   1.603   2.450
 5231TIP3   OH215698   0.208   4.645   1.184
 5231TIP3    H115699   0.268   4.679   1.118
 5231TIP3    H215700   0.140   4.711   1.191
 5232TIP3   OH215701   4.245   1.804   5.067
 5232TIP3    H115702   4.224   1.895   5.088
 5232TIP3    H215703   4.161   1.758   5.072
 5233TIP3   OH215704   0.090   0.157   1.772
 5233TIP3    H115705   0.132   0.238   1.802
 5233TIP3    H215706   0.103   0.157   1.677
 5234TIP3   OH215707   0.143   1.570   4.206
 5234TIP3    H115708   0.092   1.628   4.150
 5234TIP3    H215709   0.198   1.628   4.259
 5235TIP3   OH215710   2.796   2.111   0.660
 5235TIP3    H115711   2.714   2.060   0.658
 5235TIP3    H215712   2.767   2.202   0.665
 5236TIP3   OH215713   3.777   2.828   2.324
 5236TIP3    H115714   3.748   2.853   2.412
 5236TIP3    H215715   3.719   2.878   2.266
 5237TIP3   OH215716   0.546   0.221   2.489
 5237TIP3    H115717   0.516   0.149   2.545
 5237TIP3    H215718   0.480   0.226   2.419
 5238TIP3   OH215719   6.263   5.887   3.685
 5238TIP3    H115720   6.214   5.857   3.609
 5238TIP3    H215721   6.284   5.978   3.667
 5239TIP3   OH215722   2.601   4.000   4.426
 5239TIP3    H115723   2.560   3.918   4.399
 5239TIP3    H215724   2.560   4.022   4.509
 5240TIP3   OH215725   4.961   1.083   2.464
 5240TIP3    H115726   4.917   1.014   2.414
 5240TIP3    H215727   4.891   1.123   2.516
 5241TIP3   OH215728   5.916   0.585   2.333
 5241TIP3    H115729   5.886   0.541   2.412
 5241TIP3    H215730   5.840   0.637   2.305
 5242TIP3   OH215731   1.055   5.102   4.420
 5242TIP3    H115732   1.109   5.033   4.458
 5242TIP3    H215733   1.062   5.175   4.481
 5243TIP3   OH215734   3.442   1.465   0.334
 5243TIP3    H115735   3.347   1.476   0.337
 5243TIP3    H215736   3.455   1.372   0.316
 5244TIP3   OH215737   0.728   3.332   4.114
 5244TIP3    H115738   0.651   3.282   4.088
 5244TIP3    H215739   0.769   3.279   4.182
 5245TIP3   OH215740   2.569   4.419   3.996
 5245TIP3    H115741   2.504   4.350   4.013
 5245TIP3    H215742   2.557   4.441   3.904
 5246TIP3   OH215743   2.207   3.389   3.843
 5246TIP3    H115744   2.139   3.345   3.894
 5246TIP3    H215745   2.160   3.426   3.768
 5247TIP3   OH215746   5.496   2.705   5.095
 5247TIP3    H115747   5.586   2.707   5.063
 5247TIP3    H215748   5.488   2.783   5.149
 5248TIP3   OH215749   2.230   1.656   5.131
 5248TIP3    H115750   2.198   1.608   5.207
 5248TIP3    H215751   2.153   1.705   5.100
 5249TIP3   OH215752   6.270   3.653   0.009
 5249TIP3    H115753   6.307   3.565   0.019
 5249TIP3    H215754   6.227   3.670   0.093
 5250TIP3   OH215755   4.101   5.676   1.546
 5250TIP3    H115756   4.041   5.750   1.553
 5250TIP3    H215757   4.049   5.600   1.572
 5251TIP3   OH215758   3.015   1.290   5.028
 5251TIP3    H115759   2.932   1.327   4.995
 5251TIP3    H215760   3.027   1.332   5.113
 5252TIP3   OH215761   4.926   3.675   4.030
 5252TIP3    H115762   4.932   3.715   3.944
 5252TIP3    H215763   4.836   3.643   4.036
 5253TIP3   OH215764   6.370   0.864   3.273
 5253TIP3    H115765   6.285   0.898   3.243
 5253TIP3    H215766   6.375   0.777   3.235
 5254TIP3   OH215767   3.113   4.208   4.499
 5254TIP3    H115768   3.120   4.194   4.594
 5254TIP3    H215769   3.204   4.223   4.471
 5255TIP3   OH215770   3.829   3.960   1.108
 5255TIP3    H115771   3.879   4.039   1.130
 5255TIP3    H215772   3.776   3.943   1.185
 5256TIP3   OH215773   1.515   3.962   2.586
 5256TIP3    H115774   1.605   3.971   2.615
 5256TIP3    H215775   1.500   3.868   2.580
 5257TIP3   OH215776   3.963   4.114   1.484
 5257TIP3    H115777   3.914   4.153   1.412
 5257TIP3    H215778   3.999   4.033   1.448
 5258TIP3   OH215779   3.446   0.810   2.183
 5258TIP3    H115780   3.410   0.786   2.268
 5258TIP3    H215781   3.506   0.738   2.162
 5259TIP3   OH215782   2.833   5.156   3.030
 5259TIP3    H115783   2.830   5.137   2.937
 5259TIP3    H215784   2.751   5.202   3.048
 5260TIP3   OH215785   2.116   5.083   0.577
 5260TIP3    H115786   2.163   5.075   0.494
 5260TIP3    H215787   2.157   5.158   0.621
 5261TIP3   OH215788   0.879   0.432   1.361
 5261TIP3    H115789   0.909   0.515   1.398
 5261TIP3    H215790   0.957   0.393   1.321
 5262TIP3   OH215791   0.547   2.092   1.325
 5262TIP3    H115792   0.530   2.008   1.284
 5262TIP3    H215793   0.579   2.070   1.413
 5263TIP3   OH215794   3.814   1.211   4.622
 5263TIP3    H115795   3.720   1.215   4.601
 5263TIP3    H215796   3.858   1.236   4.542
 5264TIP3   OH215797   0.125   0.162   0.300
 5264TIP3    H115798   0.119   0.242   0.351
 5264TIP3    H215799   0.192   0.110   0.344
 5265TIP3   OH215800   0.945   0.617   3.724
 5265TIP3    H115801   0.898   0.637   3.643
 5265TIP3    H215802   1.022   0.673   3.721
 5266TIP3   OH215803   5.947   3.537   0.815
 5266TIP3    H115804   5.867   3.556   0.767
 5266TIP3    H215805   5.920   3.535   0.907
 5267TIP3   OH215806   2.765   0.211   4.507
 5267TIP3    H115807   2.830   0.276   4.479
 5267TIP3    H215808   2.778   0.137   4.448
 5268TIP3   OH215809   1.884   0.564   2.414
 5268TIP3    H115810   1.796   0.530   2.396
 5268TIP3    H215811   1.927   0.565   2.328
 5269TIP3   OH215812   4.930   4.102   1.608
 5269TIP3    H115813   4.972   4.018   1.629
 5269TIP3    H215814   4.847   4.099   1.655
 5270TIP3   OH215815   4.995   5.605   1.616
 5270TIP3    H115816   4.912   5.586   1.658
 5270TIP3    H215817   4.987   5.569   1.528
 5271TIP3   OH215818   0.977   5.874   1.799
 5271TIP3    H115819   1.067   5.843   1.794
 5271TIP3    H215820   0.954   5.865   1.892
 5272TIP3   OH215821   2.047   0.165   3.651
 5272TIP3    H115822   2.000   0.224   3.592
 5272TIP3    H215823   2.091   0.224   3.712
 5273TIP3   OH215824   6.302   3.944   4.481
 5273TIP3    H115825   6.299   3.863   4.430
 5273TIP3    H215826   6.357   3.922   4.556
 5274TIP3   OH215827   5.154   1.088   3.419
 5274TIP3    H115828   5.210   1.160   3.446
 5274TIP3    H215829   5.123   1.049   3.501
 5275TIP3   OH215830   5.447   1.455   2.405
 5275TIP3    H115831   5.394   1.399   2.347
 5275TIP3    H215832   5.382   1.511   2.448
 5276TIP3   OH215833   1.715   4.545   1.619
 5276TIP3    H115834   1.756   4.479   1.674
 5276TIP3    H215835   1.671   4.496   1.550
 5277TIP3   OH215836   6.183   1.574   2.794
 5277TIP3    H115837   6.227   1.657   2.775
 5277TIP3    H215838   6.090   1.597   2.798
 5278TIP3   OH215839   1.561   5.017   1.859
 5278TIP3    H115840   1.523   5.032   1.772
 5278TIP3    H215841   1.572   5.104   1.896
 5279TIP3   OH215842   0.188   0.839   1.199
 5279TIP3    H115843   0.268   0.834   1.250
 5279TIP3    H215844   0.131   0.898   1.249
 5280TIP3   OH215845   4.648   1.730   4.515
 5280TIP3    H115846   4.627   1.775   4.597
 5280TIP3    H215847   4.593   1.774   4.450
 5281TIP3   OH215848   5.823   5.886   1.527
 5281TIP3    H115849   5.804   5.803   1.483
 5281TIP3    H215850   5.852   5.860   1.615
 5282TIP3   OH215851   1.454   3.001   4.739
 5282TIP3    H115852   1.449   2.994   4.834
 5282TIP3    H215853   1.386   2.942   4.707
 5283TIP3   OH215854   4.197   5.961   2.789
 5283TIP3    H115855   4.159   5.881   2.754
 5283TIP3    H215856   4.155   6.031   2.741
 5284TIP3   OH215857   1.316   0.744   1.390
 5284TIP3    H115858   1.361   0.659   1.393
 5284TIP3    H215859   1.226   0.725   1.417
 5285TIP3   OH215860   4.613   0.937   1.105
 5285TIP3    H115861   4.626   0.920   1.199
 5285TIP3    H215862   4.559   0.863   1.075
 5286TIP3   OH215863   5.580   5.365   1.914
 5286TIP3    H115864   5.597   5.455   1.941
 5286TIP3    H215865   5.523   5.374   1.837
 5287TIP3   OH215866   2.775   0.929   2.185
 5287TIP3    H115867   2.724   0.901   2.108
 5287TIP3    H215868   2.775   0.853   2.243
 5288TIP3   OH215869   3.574   3.412   0.417
 5288TIP3    H115870   3.594   3.344   0.480
 5288TIP3    H215871   3.584   3.370   0.332
 5289TIP3   OH215872   4.691   1.459   5.202
 5289TIP3    H115873   4.624   1.392   5.191
 5289TIP3    H215874   4.759   1.437   5.138
 5290TIP3   OH215875   5.755   2.571   3.047
 5290TIP3    H115876   5.715   2.503   2.992
 5290TIP3    H215877   5.704   2.570   3.128
 5291TIP3   OH215878   3.604   1.188   2.199
 5291TIP3    H115879   3.675   1.133   2.167
 5291TIP3    H215880   3.542   1.193   2.126
 5292TIP3   OH215881   0.223   1.650   2.093
 5292TIP3    H115882   0.317   1.636   2.107
 5292TIP3    H215883   0.180   1.591   2.155
 5293TIP3   OH215884   4.637   4.555   2.615
 5293TIP3    H115885   4.548   4.521   2.624
 5293TIP3    H215886   4.677   4.540   2.701
 5294TIP3   OH215887   5.980   5.613   1.195
 5294TIP3    H115888   5.997   5.583   1.106
 5294TIP3    H215889   5.927   5.692   1.185
 5295TIP3   OH215890   5.725   2.079   0.095
 5295TIP3    H115891   5.712   2.020   0.170
 5295TIP3    H215892   5.749   2.162   0.135
 5296TIP3   OH215893   5.567   4.886   3.948
 5296TIP3    H115894   5.612   4.951   4.003
 5296TIP3    H215895   5.629   4.815   3.940
 5297TIP3   OH215896   2.022   5.789   1.439
 5297TIP3    H115897   2.057   5.878   1.434
 5297TIP3    H215898   1.950   5.788   1.375
 5298TIP3   OH215899   3.762   1.886   2.217
 5298TIP3    H115900   3.756   1.962   2.276
 5298TIP3    H215901   3.773   1.924   2.130
 5299TIP3   OH215902   1.598   0.368   2.690
 5299TIP3    H115903   1.687   0.335   2.697
 5299TIP3    H215904   1.586   0.385   2.596
 5300TIP3   OH215905   2.182   2.587   4.642
 5300TIP3    H115906   2.197   2.503   4.686
 5300TIP3    H215907   2.182   2.565   4.549
 5301TIP3   OH215908   5.903   4.608   2.545
 5301TIP3    H115909   5.931   4.565   2.464
 5301TIP3    H215910   5.925   4.546   2.614
 5302TIP3   OH215911   2.796   0.863   4.181
 5302TIP3    H115912   2.758   0.895   4.263
 5302TIP3    H215913   2.773   0.929   4.116
 5303TIP3   OH215914   3.526   1.673   3.464
 5303TIP3    H115915   3.550   1.709   3.549
 5303TIP3    H215916   3.475   1.594   3.484
 5304TIP3   OH215917   3.842   5.928   3.741
 5304TIP3    H115918   3.869   5.929   3.833
 5304TIP3    H215919   3.809   6.017   3.725
 5305TIP3   OH215920   2.975   3.433   2.336
 5305TIP3    H115921   2.914   3.478   2.393
 5305TIP3    H215922   2.931   3.352   2.312
 5306TIP3   OH215923   2.036   4.200   1.050
 5306TIP3    H115924   1.955   4.245   1.075
 5306TIP3    H215925   2.086   4.196   1.132
 5307TIP3   OH215926   3.332   5.517   3.459
 5307TIP3    H115927   3.377   5.468   3.527
 5307TIP3    H215928   3.246   5.476   3.453
 5308TIP3   OH215929   1.489   2.796   4.107
 5308TIP3    H115930   1.492   2.857   4.034
 5308TIP3    H215931   1.575   2.753   4.105
 5309TIP3   OH215932   4.943   0.777   5.007
 5309TIP3    H115933   4.892   0.858   4.997
 5309TIP3    H215934   4.971   0.778   5.099
 5310TIP3   OH215935   2.663   5.835   1.868
 5310TIP3    H115936   2.574   5.801   1.873
 5310TIP3    H215937   2.680   5.847   1.775
 5311TIP3   OH215938   5.777   0.945   0.262
 5311TIP3    H115939   5.741   0.883   0.325
 5311TIP3    H215940   5.726   0.932   0.182
 5312TIP3   OH215941   0.368   0.244   2.770
 5312TIP3    H115942   0.425   0.169   2.752
 5312TIP3    H215943   0.282   0.217   2.739
 5313TIP3   OH215944   2.676   0.306   4.149
 5313TIP3    H115945   2.728   0.289   4.070
 5313TIP3    H215946   2.696   0.232   4.207
 5314TIP3   OH215947   3.565   5.773   0.638
 5314TIP3    H115948   3.508   5.727   0.577
 5314TIP3    H215949   3.647   5.785   0.591
 5315TIP3   OH215950   1.453   5.264   3.012
 5315TIP3    H115951   1.508   5.269   3.090
 5315TIP3    H215952   1.400   5.343   3.015
 5316TIP3   OH215953   2.751   4.173   2.758
 5316TIP3    H115954   2.688   4.227   2.710
 5316TIP3    H215955   2.699   4.102   2.794
 5317TIP3   OH215956   0.850   0.839   3.032
 5317TIP3    H115957   0.923   0.822   2.972
 5317TIP3    H215958   0.890   0.845   3.118
 5318TIP3   OH215959   3.780   0.303   3.155
 5318TIP3    H115960   3.745   0.382   3.196
 5318TIP3    H215961   3.856   0.333   3.105
 5319TIP3   OH215962   1.482   2.399   2.955
 5319TIP3    H115963   1.494   2.441   3.040
 5319TIP3    H215964   1.484   2.305   2.974
 5320TIP3   OH215965  -0.013   1.404   0.170
 5320TIP3    H115966   0.034   1.449   0.100
 5320TIP3    H215967   0.042   1.330   0.193
 5321TIP3   OH215968   1.846   0.976   0.274
 5321TIP3    H115969   1.825   0.929   0.193
 5321TIP3    H215970   1.898   0.914   0.325
 5322TIP3   OH215971   4.706   3.904   3.256
 5322TIP3    H115972   4.639   3.965   3.288
 5322TIP3    H215973   4.657   3.823   3.239
 5323TIP3   OH215974   1.855   1.515   1.841
 5323TIP3    H115975   1.816   1.575   1.905
 5323TIP3    H215976   1.921   1.568   1.796
 5324TIP3   OH215977   5.083   0.434   2.644
 5324TIP3    H115978   5.085   0.520   2.603
 5324TIP3    H215979   5.102   0.451   2.737
 5325TIP3   OH215980   1.876   3.299   2.131
 5325TIP3    H115981   1.840   3.212   2.148
 5325TIP3    H215982   1.828   3.330   2.055
 5326TIP3   OH215983   1.307   4.305   1.664
 5326TIP3    H115984   1.311   4.397   1.688
 5326TIP3    H215985   1.290   4.305   1.569
 5327TIP3   OH215986   6.260   5.069   4.422
 5327TIP3    H115987   6.336   5.075   4.365
 5327TIP3    H215988   6.245   5.160   4.451
 5328TIP3   OH215989   2.477   0.235   3.710
 5328TIP3    H115990   2.422   0.313   3.718
 5328TIP3    H215991   2.496   0.228   3.617
 5329TIP3   OH215992   1.441   4.655   5.149
 5329TIP3    H115993   1.414   4.747   5.143
 5329TIP3    H215994   1.366   4.611   5.189
 5330TIP3   OH215995   2.409   4.179   0.169
 5330TIP3    H115996   2.482   4.210   0.116
 5330TIP3    H215997   2.436   4.196   0.259
 5331TIP3   OH215998   3.780   3.698   3.827
 5331TIP3    H115999   3.785   3.627   3.892
 5331TIP3    H216000   3.728   3.661   3.756
 5332TIP3   OH216001   0.434   2.351   1.670
 5332TIP3    H116002   0.477   2.420   1.620
 5332TIP3    H216003   0.355   2.391   1.705
 5333TIP3   OH216004   4.532   4.888   4.033
 5333TIP3    H116005   4.592   4.952   4.071
 5333TIP3    H216006   4.452   4.896   4.085
 5334TIP3   OH216007   4.236   1.974   3.838
 5334TIP3    H116008   4.308   2.000   3.895
 5334TIP3    H216009   4.166   1.947   3.898
 5335TIP3   OH216010   2.137   3.362   1.845
 5335TIP3    H116011   2.169   3.423   1.911
 5335TIP3    H216012   2.196   3.287   1.850
 5336TIP3   OH216013   4.931   4.426   2.711
 5336TIP3    H116014   4.883   4.348   2.683
 5336TIP3    H216015   5.013   4.391   2.747
 5337TIP3   OH216016   0.853   0.870   5.060
 5337TIP3    H116017   0.876   0.910   4.976
 5337TIP3    H216018   0.898   0.924   5.125
 5338TIP3   OH216019   4.531   5.278   2.074
 5338TIP3    H116020   4.450   5.234   2.099
 5338TIP3    H216021   4.501   5.359   2.033
 5339TIP3   OH216022   6.008   5.803   3.149
 5339TIP3    H116023   6.079   5.868   3.145
 5339TIP3    H216024   5.937   5.849   3.193
 5340TIP3   OH216025   1.735   0.246   1.368
 5340TIP3    H116026   1.817   0.294   1.363
 5340TIP3    H216027   1.761   0.154   1.374
 5341TIP3   OH216028   3.379   5.560   2.796
 5341TIP3    H116029   3.348   5.638   2.841
 5341TIP3    H216030   3.300   5.519   2.761
 5342TIP3   OH216031   2.917   5.985   0.019
 5342TIP3    H116032   2.869   6.020   0.094
 5342TIP3    H216033   2.874   5.902   0.000
 5343TIP3   OH216034   0.299   0.563   4.706
 5343TIP3    H116035   0.220   0.521   4.671
 5343TIP3    H216036   0.368   0.498   4.693
 5344TIP3   OH216037   3.967   1.658   4.581
 5344TIP3    H116038   3.908   1.712   4.633
 5344TIP3    H216039   3.923   1.648   4.496
 5345TIP3   OH216040   1.569   3.646   0.157
 5345TIP3    H116041   1.531   3.596   0.229
 5345TIP3    H216042   1.528   3.609   0.078
 5346TIP3   OH216043   2.843   0.701   2.368
 5346TIP3    H116044   2.909   0.727   2.433
 5346TIP3    H216045   2.885   0.631   2.319
 5347TIP3   OH216046   0.843   1.483   4.440
 5347TIP3    H116047   0.833   1.391   4.466
 5347TIP3    H216048   0.763   1.504   4.392
 5348TIP3   OH216049   5.093   0.675   3.711
 5348TIP3    H116050   5.147   0.643   3.783
 5348TIP3    H216051   5.023   0.610   3.702
 5349TIP3   OH216052   1.982   5.411   0.670
 5349TIP3    H116053   1.911   5.383   0.612
 5349TIP3    H216054   1.940   5.471   0.731
 5350TIP3   OH216055   1.646   2.009   2.716
 5350TIP3    H116056   1.728   1.963   2.699
 5350TIP3    H216057   1.639   2.009   2.811
 5351TIP3   OH216058   2.391   5.868   3.462
 5351TIP3    H116059   2.301   5.902   3.459
 5351TIP3    H216060   2.382   5.774   3.448
 5352TIP3   OH216061   1.329   4.219   0.627
 5352TIP3    H116062   1.249   4.252   0.586
 5352TIP3    H216063   1.392   4.292   0.618
 5353TIP3   OH216064   6.069   2.824   4.085
 5353TIP3    H116065   6.058   2.776   4.167
 5353TIP3    H216066   6.096   2.757   4.022
 5354TIP3   OH216067   0.458   4.977   3.951
 5354TIP3    H116068   0.482   4.901   3.898
 5354TIP3    H216069   0.394   4.944   4.013
 5355TIP3   OH216070   4.918   3.496   0.768
 5355TIP3    H116071   4.876   3.581   0.761
 5355TIP3    H216072   4.853   3.433   0.736
 5356TIP3   OH216073   1.712   0.836   1.361
 5356TIP3    H116074   1.771   0.897   1.317
 5356TIP3    H216075   1.637   0.889   1.386
 5357TIP3   OH216076   3.397   5.646   3.130
 5357TIP3    H116077   3.461   5.695   3.079
 5357TIP3    H216078   3.320   5.641   3.074
 5358TIP3   OH216079   1.256   0.286   0.547
 5358TIP3    H116080   1.352   0.288   0.547
 5358TIP3    H216081   1.231   0.365   0.595
 5359TIP3   OH216082   4.998   2.420   2.182
 5359TIP3    H116083   4.940   2.450   2.112
 5359TIP3    H216084   5.049   2.498   2.206
 5360TIP3   OH216085   4.218   2.900   0.722
 5360TIP3    H116086   4.226   2.823   0.779
 5360TIP3    H216087   4.132   2.891   0.682
 5361TIP3   OH216088   3.088   2.293   3.501
 5361TIP3    H116089   3.047   2.368   3.459
 5361TIP3    H216090   3.115   2.325   3.587
 5362TIP3   OH216091   3.974   0.775   4.424
 5362TIP3    H116092   3.954   0.783   4.517
 5362TIP3    H216093   3.956   0.863   4.389
 5363TIP3   OH216094   0.217   0.415   0.943
 5363TIP3    H116095   0.180   0.491   0.898
 5363TIP3    H216096   0.163   0.406   1.022
 5364TIP3   OH216097   1.627   2.567   1.594
 5364TIP3    H116098   1.619   2.477   1.625
 5364TIP3    H216099   1.563   2.616   1.645
 5365TIP3   OH216100   4.770   1.490   0.818
 5365TIP3    H116101   4.693   1.484   0.875
 5365TIP3    H216102   4.753   1.429   0.747
 5366TIP3   OH216103   4.847   2.734   4.502
 5366TIP3    H116104   4.784   2.662   4.505
 5366TIP3    H216105   4.907   2.711   4.431
 5367TIP3   OH216106   2.999   0.724   1.407
 5367TIP3    H116107   3.026   0.765   1.325
 5367TIP3    H216108   2.907   0.748   1.417
 5368TIP3   OH216109   3.158   5.011   3.936
 5368TIP3    H116110   3.221   4.954   3.891
 5368TIP3    H216111   3.092   4.950   3.971
 5369TIP3   OH216112   0.910   3.243   3.804
 5369TIP3    H116113   0.906   3.148   3.802
 5369TIP3    H216114   0.998   3.263   3.837
 5370TIP3   OH216115   1.542   5.509   0.807
 5370TIP3    H116116   1.454   5.470   0.804
 5370TIP3    H216117   1.568   5.503   0.899
 5371TIP3   OH216118   0.058   2.681   1.626
 5371TIP3    H116119   0.034   2.724   1.708
 5371TIP3    H216120  -0.020   2.632   1.601
 5372TIP3   OH216121   1.251   3.517   0.159
 5372TIP3    H116122   1.260   3.505   0.253
 5372TIP3    H216123   1.209   3.602   0.150
 5373TIP3   OH216124   4.450   1.777   2.716
 5373TIP3    H116125   4.483   1.858   2.754
 5373TIP3    H216126   4.525   1.718   2.714
 5374TIP3   OH216127   1.273   5.092   3.664
 5374TIP3    H116128   1.183   5.071   3.641
 5374TIP3    H216129   1.282   5.065   3.756
 5375TIP3   OH216130   0.458   4.278   1.001
 5375TIP3    H116131   0.478   4.185   0.996
 5375TIP3    H216132   0.370   4.282   1.039
 5376TIP3   OH216133   0.215   4.188   1.127
 5376TIP3    H116134   0.133   4.233   1.147
 5376TIP3    H216135   0.192   4.126   1.058
 5377TIP3   OH216136   2.965   1.413   4.351
 5377TIP3    H116137   2.950   1.453   4.437
 5377TIP3    H216138   2.934   1.322   4.361
 5378TIP3   OH216139   4.999   4.655   4.194
 5378TIP3    H116140   5.084   4.664   4.150
 5378TIP3    H216141   4.943   4.615   4.128
 5379TIP3   OH216142   3.571   5.284   3.024
 5379TIP3    H116143   3.614   5.341   2.961
 5379TIP3    H216144   3.643   5.243   3.072
 5380TIP3   OH216145   2.376   3.565   2.768
 5380TIP3    H116146   2.302   3.551   2.709
 5380TIP3    H216147   2.391   3.659   2.767
 5381TIP3   OH216148   3.383   3.650   1.854
 5381TIP3    H116149   3.388   3.556   1.869
 5381TIP3    H216150   3.292   3.666   1.829
 5382TIP3   OH216151   2.600   0.852   3.128
 5382TIP3    H116152   2.669   0.838   3.062
 5382TIP3    H216153   2.539   0.780   3.114
 5383TIP3   OH216154   0.052   4.372   4.590
 5383TIP3    H116155   0.125   4.332   4.638
 5383TIP3    H216156   0.001   4.418   4.657
 5384TIP3   OH216157   5.172   2.481   4.002
 5384TIP3    H116158   5.206   2.562   4.040
 5384TIP3    H216159   5.211   2.477   3.915
 5385TIP3   OH216160   3.215   5.300   2.540
 5385TIP3    H116161   3.154   5.288   2.613
 5385TIP3    H216162   3.216   5.395   2.525
 5386TIP3   OH216163   4.837   5.256   2.127
 5386TIP3    H116164   4.762   5.292   2.080
 5386TIP3    H216165   4.887   5.208   2.061
 5387TIP3   OH216166   3.565   0.735   4.577
 5387TIP3    H116167   3.500   0.674   4.611
 5387TIP3    H216168   3.513   0.810   4.546
 5388TIP3   OH216169   4.652   3.608   0.350
 5388TIP3    H116170   4.590   3.673   0.318
 5388TIP3    H216171   4.658   3.625   0.444
 5389TIP3   OH216172   2.780   5.945   1.405
 5389TIP3    H116173   2.713   5.948   1.336
 5389TIP3    H216174   2.747   5.881   1.468
 5390TIP3   OH216175   1.128   1.831   4.367
 5390TIP3    H116176   1.144   1.741   4.339
 5390TIP3    H216177   1.033   1.842   4.359
 5391TIP3   OH216178   5.070   4.824   0.776
 5391TIP3    H116179   5.009   4.891   0.809
 5391TIP3    H216180   5.138   4.818   0.844
 5392TIP3   OH216181   3.253   3.908   3.625
 5392TIP3    H116182   3.195   3.910   3.701
 5392TIP3    H216183   3.219   3.975   3.566
 5393TIP3   OH216184   0.738   1.706   2.057
 5393TIP3    H116185   0.723   1.777   1.994
 5393TIP3    H216186   0.823   1.670   2.033
 5394TIP3   OH216187   2.621   1.804   4.332
 5394TIP3    H116188   2.547   1.864   4.325
 5394TIP3    H216189   2.606   1.739   4.263
 5395TIP3   OH216190   0.013   4.007   3.008
 5395TIP3    H116191   0.099   3.967   3.003
 5395TIP3    H216192   0.022   4.076   3.074
 5396TIP3   OH216193   3.204   0.730   0.429
 5396TIP3    H116194   3.243   0.778   0.502
 5396TIP3    H216195   3.252   0.647   0.427
 5397TIP3   OH216196   2.752   3.820   1.609
 5397TIP3    H116197   2.763   3.743   1.665
 5397TIP3    H216198   2.838   3.834   1.570
 5398TIP3   OH216199   0.087   1.832   2.974
 5398TIP3    H116200  -0.005   1.813   2.994
 5398TIP3    H216201   0.084   1.909   2.917
 5399TIP3   OH216202   1.637   1.250   0.731
 5399TIP3    H116203   1.627   1.345   0.724
 5399TIP3    H216204   1.699   1.227   0.663
 5400TIP3   OH216205   3.903   3.631   2.815
 5400TIP3    H116206   3.951   3.562   2.769
 5400TIP3    H216207   3.941   3.632   2.903
 5401TIP3   OH216208   6.123   5.387   2.849
 5401TIP3    H116209   6.214   5.360   2.835
 5401TIP3    H216210   6.130   5.476   2.884
 5402TIP3   OH216211   5.770   3.869   0.759
 5402TIP3    H116212   5.792   3.947   0.710
 5402TIP3    H216213   5.783   3.893   0.851
 5403TIP3   OH216214   5.364   5.209   3.775
 5403TIP3    H116215   5.378   5.276   3.708
 5403TIP3    H216216   5.384   5.253   3.858
 5404TIP3   OH216217   0.720   0.116   1.514
 5404TIP3    H116218   0.696   0.035   1.468
 5404TIP3    H216219   0.816   0.120   1.507
 5405TIP3   OH216220   1.592   3.704   2.848
 5405TIP3    H116221   1.535   3.668   2.780
 5405TIP3    H216222   1.568   3.796   2.853
 5406TIP3   OH216223   5.076   0.802   2.031
 5406TIP3    H116224   5.082   0.830   1.940
 5406TIP3    H216225   5.045   0.879   2.078
 5407TIP3   OH216226   5.592   2.780   1.096
 5407TIP3    H116227   5.561   2.696   1.131
 5407TIP3    H216228   5.519   2.840   1.111
 5408TIP3   OH216229   2.400   1.834   3.588
 5408TIP3    H116230   2.309   1.848   3.615
 5408TIP3    H216231   2.411   1.739   3.589
 5409TIP3   OH216232   3.982   1.690   5.042
 5409TIP3    H116233   3.976   1.609   5.093
 5409TIP3    H216234   3.903   1.739   5.066
 5410TIP3   OH216235   5.849   1.430   3.002
 5410TIP3    H116236   5.873   1.411   2.911
 5410TIP3    H216237   5.827   1.344   3.039
 5411TIP3   OH216238   0.960   0.598   0.453
 5411TIP3    H116239   1.004   0.533   0.398
 5411TIP3    H216240   0.976   0.681   0.408
 5412TIP3   OH216241   4.698   0.495   3.123
 5412TIP3    H116242   4.743   0.500   3.207
 5412TIP3    H216243   4.763   0.526   3.059
 5413TIP3   OH216244   4.703   3.767   3.843
 5413TIP3    H116245   4.678   3.860   3.842
 5413TIP3    H216246   4.621   3.720   3.850
 5414TIP3   OH216247   0.926   3.731   2.328
 5414TIP3    H116248   0.897   3.640   2.334
 5414TIP3    H216249   1.022   3.725   2.321
 5415TIP3   OH216250   6.121   4.795   0.775
 5415TIP3    H116251   6.210   4.829   0.778
 5415TIP3    H216252   6.072   4.862   0.727
 5416TIP3   OH216253   1.333   3.934   0.316
 5416TIP3    H116254   1.329   3.935   0.221
 5416TIP3    H216255   1.274   4.004   0.344
 5417TIP3   OH216256   5.415   4.938   0.927
 5417TIP3    H116257   5.433   4.996   0.853
 5417TIP3    H216258   5.501   4.920   0.964
 5418TIP3   OH216259   5.027   5.369   1.015
 5418TIP3    H116260   4.953   5.372   0.954
 5418TIP3    H216261   5.052   5.460   1.027
 5419TIP3   OH216262   5.463   4.844   2.686
 5419TIP3    H116263   5.404   4.805   2.623
 5419TIP3    H216264   5.549   4.807   2.664
 5420TIP3   OH216265   5.669   4.587   0.834
 5420TIP3    H116266   5.719   4.652   0.884
 5420TIP3    H216267   5.602   4.639   0.789
 5421TIP3   OH216268   4.133   0.035   4.510
 5421TIP3    H116269   4.122   0.106   4.447
 5421TIP3    H216270   4.053   0.038   4.564
 5422TIP3   OH216271   2.753   4.264   3.494
 5422TIP3    H116272   2.737   4.300   3.406
 5422TIP3    H216273   2.804   4.185   3.478
 5423TIP3   OH216274   4.089   5.349   4.634
 5423TIP3    H116275   4.126   5.408   4.699
 5423TIP3    H216276   3.995   5.349   4.651
 5424TIP3   OH216277   0.710   0.081   3.224
 5424TIP3    H116278   0.759   0.090   3.142
 5424TIP3    H216279   0.762   0.019   3.276
 5425TIP3   OH216280   4.025   0.698   0.771
 5425TIP3    H116281   4.098   0.664   0.721
 5425TIP3    H216282   3.995   0.774   0.722
 5426TIP3   OH216283   1.914   0.507   1.926
 5426TIP3    H116284   1.971   0.433   1.903
 5426TIP3    H216285   1.847   0.508   1.858
 5427TIP3   OH216286   2.242   2.770   5.024
 5427TIP3    H116287   2.291   2.765   5.106
 5427TIP3    H216288   2.157   2.729   5.044
 5428TIP3   OH216289   1.370   3.496   3.357
 5428TIP3    H116290   1.363   3.526   3.267
 5428TIP3    H216291   1.281   3.502   3.392
 5429TIP3   OH216292   1.074   1.428   4.748
 5429TIP3    H116293   1.062   1.399   4.839
 5429TIP3    H216294   1.145   1.492   4.753
 5430TIP3   OH216295   2.978   1.036   3.216
 5430TIP3    H116296   2.970   0.941   3.217
 5430TIP3    H216297   3.069   1.052   3.188
 5431TIP3   OH216298   5.580   0.203   0.438
 5431TIP3    H116299   5.613   0.129   0.387
 5431TIP3    H216300   5.575   0.275   0.376
 5432TIP3   OH216301   6.291   3.706   4.323
 5432TIP3    H116302   6.354   3.644   4.287
 5432TIP3    H216303   6.250   3.746   4.246
 5433TIP3   OH216304   5.238   5.787   0.126
 5433TIP3    H116305   5.191   5.777   0.043
 5433TIP3    H216306   5.243   5.699   0.162
 5434TIP3   OH216307   0.764   2.764   1.360
 5434TIP3    H116308   0.681   2.791   1.321
 5434TIP3    H216309   0.754   2.783   1.453
 5435TIP3   OH216310   5.823   1.598   4.287
 5435TIP3    H116311   5.790   1.593   4.376
 5435TIP3    H216312   5.758   1.551   4.235
 5436TIP3   OH216313   2.985   1.539   0.223
 5436TIP3    H116314   3.003   1.629   0.250
 5436TIP3    H216315   3.013   1.536   0.131
 5437TIP3   OH216316   0.712   4.071   2.881
 5437TIP3    H116317   0.781   4.116   2.930
 5437TIP3    H216318   0.689   4.131   2.811
 5438TIP3   OH216319   5.115   2.459   0.572
 5438TIP3    H116320   5.199   2.477   0.531
 5438TIP3    H216321   5.100   2.366   0.559
 5439TIP3   OH216322   5.072   1.634   1.310
 5439TIP3    H116323   5.034   1.591   1.386
 5439TIP3    H216324   5.166   1.622   1.320
 5440TIP3   OH216325   3.744   5.284   0.627
 5440TIP3    H116326   3.734   5.189   0.624
 5440TIP3    H216327   3.667   5.315   0.673
 5441TIP3   OH216328   5.907   3.606   1.451
 5441TIP3    H116329   6.002   3.605   1.435
 5441TIP3    H216330   5.883   3.513   1.448
 5442TIP3   OH216331   3.918   2.856   0.679
 5442TIP3    H116332   3.908   2.952   0.681
 5442TIP3    H216333   3.894   2.828   0.767
 5443TIP3   OH216334   0.512   2.301   4.569
 5443TIP3    H116335   0.572   2.227   4.558
 5443TIP3    H216336   0.504   2.312   4.663
 5444TIP3   OH216337   1.278   1.809   0.793
 5444TIP3    H116338   1.303   1.727   0.836
 5444TIP3    H216339   1.329   1.877   0.837
 5445TIP3   OH216340   3.377   3.449   3.715
 5445TIP3    H116341   3.436   3.444   3.790
 5445TIP3    H216342   3.292   3.421   3.749
 5446TIP3   OH216343   5.648   3.814   4.764
 5446TIP3    H116344   5.556   3.792   4.749
 5446TIP3    H216345   5.684   3.737   4.809
 5447TIP3   OH216346   3.301   4.136   4.067
 5447TIP3    H116347   3.340   4.112   4.151
 5447TIP3    H216348   3.207   4.140   4.085
 5448TIP3   OH216349   2.701   3.639   0.275
 5448TIP3    H116350   2.733   3.668   0.190
 5448TIP3    H216351   2.780   3.613   0.323
 5449TIP3   OH216352   0.874   5.938   3.016
 5449TIP3    H116353   0.907   6.012   2.966
 5449TIP3    H216354   0.785   5.962   3.039
 5450TIP3   OH216355   4.096   2.620   1.974
 5450TIP3    H116356   4.076   2.627   1.881
 5450TIP3    H216357   4.076   2.707   2.009
 5451TIP3   OH216358   5.234   4.865   2.258
 5451TIP3    H116359   5.198   4.928   2.321
 5451TIP3    H216360   5.217   4.780   2.298
 5452TIP3   OH216361   1.247   2.418   0.514
 5452TIP3    H116362   1.197   2.453   0.440
 5452TIP3    H216363   1.273   2.331   0.487
 5453TIP3   OH216364   3.004   4.932   3.082
 5453TIP3    H116365   2.959   5.016   3.089
 5453TIP3    H216366   3.045   4.934   2.995
 5454TIP3   OH216367   3.808   5.338   1.662
 5454TIP3    H116368   3.816   5.338   1.757
 5454TIP3    H216369   3.860   5.263   1.633
 5455TIP3   OH216370   1.312   5.121   0.853
 5455TIP3    H116371   1.352   5.074   0.779
 5455TIP3    H216372   1.223   5.085   0.859
 5456TIP3   OH216373   5.305   1.789   4.670
 5456TIP3    H116374   5.252   1.816   4.595
 5456TIP3    H216375   5.326   1.870   4.715
 5457TIP3   OH216376   1.917   4.260   3.023
 5457TIP3    H116377   1.979   4.321   3.063
 5457TIP3    H216378   1.861   4.315   2.968
 5458TIP3   OH216379   5.848   1.763   4.915
 5458TIP3    H116380   5.784   1.818   4.871
 5458TIP3    H216381   5.933   1.799   4.891
 5459TIP3   OH216382   4.902   4.194   1.024
 5459TIP3    H116383   4.817   4.230   1.001
 5459TIP3    H216384   4.963   4.267   1.016
 5460TIP3   OH216385   4.225   3.935   1.053
 5460TIP3    H116386   4.297   3.892   1.007
 5460TIP3    H216387   4.267   4.008   1.100
 5461TIP3   OH216388   5.476   2.180   0.564
 5461TIP3    H116389   5.548   2.228   0.524
 5461TIP3    H216390   5.435   2.242   0.624
 5462TIP3   OH216391   4.562   4.759   1.210
 5462TIP3    H116392   4.506   4.699   1.160
 5462TIP3    H216393   4.551   4.843   1.166
 5463TIP3   OH216394   5.833   1.217   1.311
 5463TIP3    H116395   5.808   1.137   1.267
 5463TIP3    H216396   5.811   1.202   1.403
 5464TIP3   OH216397   3.907   0.281   0.066
 5464TIP3    H116398   3.835   0.337   0.095
 5464TIP3    H216399   3.891   0.269  -0.028
 5465TIP3   OH216400   0.943   3.493   3.110
 5465TIP3    H116401   0.934   3.578   3.152
 5465TIP3    H216402   0.955   3.513   3.017
 5466TIP3   OH216403   2.068   2.718   4.124
 5466TIP3    H116404   1.975   2.735   4.139
 5466TIP3    H216405   2.095   2.665   4.198
 5467TIP3   OH216406   0.547   4.686   3.393
 5467TIP3    H116407   0.579   4.730   3.314
 5467TIP3    H216408   0.523   4.598   3.364
 5468TIP3   OH216409   2.671   5.295   0.300
 5468TIP3    H116410   2.637   5.349   0.229
 5468TIP3    H216411   2.728   5.231   0.257
 5469TIP3   OH216412   3.282   5.589   4.334
 5469TIP3    H116413   3.250   5.525   4.398
 5469TIP3    H216414   3.331   5.536   4.271
 5470TIP3   OH216415   3.459   0.411   2.916
 5470TIP3    H116416   3.528   0.462   2.958
 5470TIP3    H216417   3.413   0.473   2.860
 5471TIP3   OH216418   4.689   3.633   2.445
 5471TIP3    H116419   4.609   3.623   2.393
 5471TIP3    H216420   4.753   3.575   2.403
 5472TIP3   OH216421   5.865   2.375   2.718
 5472TIP3    H116422   5.802   2.368   2.790
 5472TIP3    H216423   5.880   2.285   2.690
 5473TIP3   OH216424   5.113   5.249   1.540
 5473TIP3    H116425   5.129   5.161   1.507
 5473TIP3    H216426   5.024   5.270   1.511
 5474TIP3   OH216427   6.161   2.291   3.624
 5474TIP3    H116428   6.157   2.302   3.719
 5474TIP3    H216429   6.229   2.226   3.610
 5475TIP3   OH216430   6.120   0.541   3.340
 5475TIP3    H116431   6.207   0.556   3.376
 5475TIP3    H216432   6.085   0.468   3.392
 5476TIP3   OH216433   4.335   1.704   3.667
 5476TIP3    H116434   4.361   1.646   3.739
 5476TIP3    H216435   4.250   1.739   3.695
 5477TIP3   OH216436   5.923   0.322   4.743
 5477TIP3    H116437   5.941   0.312   4.836
 5477TIP3    H216438   5.882   0.240   4.716
 5478TIP3   OH216439   0.919   1.273   5.086
 5478TIP3    H116440   0.919   1.231   5.000
 5478TIP3    H216441   0.934   1.366   5.067
 5479TIP3   OH216442   3.883   0.799   3.388
 5479TIP3    H116443   3.946   0.796   3.316
 5479TIP3    H216444   3.932   0.770   3.465
 5480TIP3   OH216445   2.233   3.394   4.566
 5480TIP3    H116446   2.263   3.311   4.603
 5480TIP3    H216447   2.140   3.381   4.549
 5481TIP3   OH216448   0.446   4.871   1.286
 5481TIP3    H116449   0.433   4.819   1.365
 5481TIP3    H216450   0.401   4.954   1.303
 5482TIP3   OH216451   1.742   0.547   2.999
 5482TIP3    H116452   1.786   0.577   3.078
 5482TIP3    H216453   1.804   0.567   2.928
 5483TIP3   OH216454   6.243   5.635   3.861
 5483TIP3    H116455   6.277   5.722   3.842
 5483TIP3    H216456   6.160   5.631   3.814
 5484TIP3   OH216457   4.381   5.227   1.056
 5484TIP3    H116458   4.460   5.280   1.054
 5484TIP3    H216459   4.310   5.288   1.040
 5485TIP3   OH216460   1.649   4.322   3.574
 5485TIP3    H116461   1.673   4.402   3.621
 5485TIP3    H216462   1.629   4.259   3.643
 5486TIP3   OH216463   4.416   3.311   2.443
 5486TIP3    H116464   4.398   3.360   2.523
 5486TIP3    H216465   4.497   3.264   2.462
 5487TIP3   OH216466   1.375   2.866   2.047
 5487TIP3    H116467   1.293   2.839   2.004
 5487TIP3    H216468   1.400   2.790   2.100
 5488TIP3   OH216469   6.038   3.286   0.238
 5488TIP3    H116470   6.052   3.380   0.238
 5488TIP3    H216471   6.123   3.249   0.259
 5489TIP3   OH216472   2.190   2.708   2.162
 5489TIP3    H116473   2.243   2.673   2.090
 5489TIP3    H216474   2.184   2.802   2.142
 5490TIP3   OH216475   2.957   0.771   1.097
 5490TIP3    H116476   2.968   0.863   1.077
 5490TIP3    H216477   3.003   0.725   1.028
 5491TIP3   OH216478   0.605   2.901   3.074
 5491TIP3    H116479   0.635   2.810   3.082
 5491TIP3    H216480   0.542   2.899   3.002
 5492TIP3   OH216481   5.746   5.213   3.737
 5492TIP3    H116482   5.674   5.273   3.720
 5492TIP3    H216483   5.780   5.239   3.823
 5493TIP3   OH216484   3.866   4.541   0.994
 5493TIP3    H116485   3.919   4.531   1.073
 5493TIP3    H216486   3.817   4.622   1.008
 5494TIP3   OH216487   6.064   5.838   3.441
 5494TIP3    H116488   6.076   5.933   3.444
 5494TIP3    H216489   5.973   5.824   3.465
 5495TIP3   OH216490   5.732   0.371   3.849
 5495TIP3    H116491   5.756   0.362   3.942
 5495TIP3    H216492   5.763   0.458   3.825
 5496TIP3   OH216493   0.685   5.883   4.690
 5496TIP3    H116494   0.715   5.827   4.762
 5496TIP3    H216495   0.605   5.923   4.723
 5497TIP3   OH216496   3.006   1.375   3.843
 5497TIP3    H116497   3.002   1.461   3.802
 5497TIP3    H216498   3.099   1.353   3.844
 5498TIP3   OH216499   6.047   1.953   4.648
 5498TIP3    H116500   6.033   1.873   4.699
 5498TIP3    H216501   5.976   1.953   4.584
 5499TIP3   OH216502   3.535   1.056   4.630
 5499TIP3    H116503   3.458   1.009   4.599
 5499TIP3    H216504   3.534   1.044   4.725
 5500TIP3   OH216505   0.324   0.735   0.991
 5500TIP3    H116506   0.400   0.775   1.033
 5500TIP3    H216507   0.252   0.749   1.052
 5501TIP3   OH216508   4.613   4.380   3.391
 5501TIP3    H116509   4.610   4.452   3.328
 5501TIP3    H216510   4.698   4.340   3.377
 5502TIP3   OH216511   5.391   1.291   1.722
 5502TIP3    H116512   5.441   1.303   1.641
 5502TIP3    H216513   5.456   1.270   1.788
 5503TIP3   OH216514   6.329   4.636   3.396
 5503TIP3    H116515   6.333   4.723   3.435
 5503TIP3    H216516   6.339   4.576   3.470
 5504TIP3   OH216517   5.503   1.877   4.995
 5504TIP3    H116518   5.421   1.830   5.012
 5504TIP3    H216519   5.536   1.838   4.914
 5505TIP3   OH216520   1.120   3.951   4.137
 5505TIP3    H116521   1.091   3.928   4.049
 5505TIP3    H216522   1.212   3.975   4.127
 5506TIP3   OH216523   6.230   2.179   4.765
 5506TIP3    H116524   6.191   2.113   4.822
 5506TIP3    H216525   6.163   2.247   4.757
 5507TIP3   OH216526   3.544   2.285   3.013
 5507TIP3    H116527   3.571   2.357   3.069
 5507TIP3    H216528   3.610   2.217   3.027
 5508TIP3   OH216529   0.580   3.909   0.233
 5508TIP3    H116530   0.586   3.977   0.166
 5508TIP3    H216531   0.579   3.957   0.316
 5509TIP3   OH216532   2.343   2.376   0.045
 5509TIP3    H116533   2.385   2.320   0.111
 5509TIP3    H216534   2.306   2.315  -0.019
 5510TIP3   OH216535   3.240   4.718   1.250
 5510TIP3    H116536   3.224   4.713   1.155
 5510TIP3    H216537   3.202   4.637   1.285
 5511TIP3   OH216538   1.859   1.115   0.956
 5511TIP3    H116539   1.882   1.203   0.985
 5511TIP3    H216540   1.767   1.121   0.930
 5512TIP3   OH216541   1.332   5.762   4.779
 5512TIP3    H116542   1.297   5.770   4.868
 5512TIP3    H216543   1.308   5.844   4.736
 5513TIP3   OH216544   1.635   3.364   4.085
 5513TIP3    H116545   1.624   3.438   4.145
 5513TIP3    H216546   1.710   3.316   4.121
 5514TIP3   OH216547   3.411   2.620   1.003
 5514TIP3    H116548   3.358   2.699   0.989
 5514TIP3    H216549   3.373   2.555   0.945
 5515TIP3   OH216550   5.861   1.509   2.263
 5515TIP3    H116551   5.893   1.424   2.293
 5515TIP3    H216552   5.922   1.535   2.194
 5516TIP3   OH216553   5.995   2.096   1.034
 5516TIP3    H116554   6.073   2.127   0.988
 5516TIP3    H216555   5.984   2.159   1.106
 5517TIP3   OH216556   3.540   2.391   1.515
 5517TIP3    H116557   3.492   2.407   1.434
 5517TIP3    H216558   3.561   2.478   1.549
 5518TIP3   OH216559   5.681   5.704   4.668
 5518TIP3    H116560   5.701   5.622   4.623
 5518TIP3    H216561   5.636   5.757   4.603
 5519TIP3   OH216562   3.598   1.490   4.668
 5519TIP3    H116563   3.579   1.417   4.609
 5519TIP3    H216564   3.532   1.556   4.646
 5520TIP3   OH216565   5.502   5.723   2.533
 5520TIP3    H116566   5.553   5.678   2.600
 5520TIP3    H216567   5.452   5.653   2.491
 5521TIP3   OH216568   1.383   1.263   2.697
 5521TIP3    H116569   1.446   1.318   2.651
 5521TIP3    H216570   1.370   1.188   2.638
 5522TIP3   OH216571   1.809   5.175   2.145
 5522TIP3    H116572   1.750   5.247   2.172
 5522TIP3    H216573   1.787   5.160   2.053
 5523TIP3   OH216574   3.486   0.483   3.414
 5523TIP3    H116575   3.575   0.503   3.387
 5523TIP3    H216576   3.491   0.395   3.452
 5524TIP3   OH216577   1.424   1.560   0.455
 5524TIP3    H116578   1.365   1.607   0.396
 5524TIP3    H216579   1.498   1.535   0.400
 5525TIP3   OH216580   1.979   0.021   3.066
 5525TIP3    H116581   1.937   0.073   3.134
 5525TIP3    H216582   2.066   0.058   3.057
 5526TIP3   OH216583   4.900   5.889   4.237
 5526TIP3    H116584   4.879   5.804   4.198
 5526TIP3    H216585   4.995   5.885   4.253
 5527TIP3   OH216586   2.606   0.280   3.451
 5527TIP3    H116587   2.611   0.356   3.393
 5527TIP3    H216588   2.683   0.288   3.508
 5528TIP3   OH216589   3.769   4.255   0.237
 5528TIP3    H116590   3.705   4.299   0.182
 5528TIP3    H216591   3.718   4.203   0.298
 5529TIP3   OH216592   6.232   0.023   0.797
 5529TIP3    H116593   6.260   0.023   0.889
 5529TIP3    H216594   6.243   0.114   0.770
 5530TIP3   OH216595   0.956   5.744   2.745
 5530TIP3    H116596   0.885   5.705   2.694
 5530TIP3    H216597   0.913   5.798   2.811
 5531TIP3   OH216598   6.314   5.771   1.787
 5531TIP3    H116599   6.323   5.691   1.839
 5531TIP3    H216600   6.264   5.830   1.843
 5532TIP3   OH216601   4.094   0.124   3.620
 5532TIP3    H116602   4.053   0.166   3.696
 5532TIP3    H216603   4.020   0.100   3.564
 5533TIP3   OH216604   1.098   1.565   4.324
 5533TIP3    H116605   1.005   1.572   4.345
 5533TIP3    H216606   1.115   1.471   4.320
 5534TIP3   OH216607   1.421   3.428   1.883
 5534TIP3    H116608   1.450   3.363   1.820
 5534TIP3    H216609   1.325   3.431   1.873
 5535TIP3   OH216610   3.555   5.479  -0.004
 5535TIP3    H116611   3.576   5.543   0.065
 5535TIP3    H216612   3.640   5.458  -0.043
 5536TIP3   OH216613   3.807   2.356   0.881
 5536TIP3    H116614   3.770   2.426   0.935
 5536TIP3    H216615   3.900   2.377   0.875
 5537TIP3   OH216616   3.937   5.447   0.113
 5537TIP3    H116617   3.908   5.414   0.198
 5537TIP3    H216618   3.967   5.536   0.131
 5538TIP3   OH216619   6.236   0.924   4.135
 5538TIP3    H116620   6.196   0.845   4.171
 5538TIP3    H216621   6.294   0.892   4.066
 5539TIP3   OH216622   6.147   5.300   4.200
 5539TIP3    H116623   6.102   5.289   4.116
 5539TIP3    H216624   6.228   5.250   4.190
 5540TIP3   OH216625   6.072   4.527   3.406
 5540TIP3    H116626   6.148   4.554   3.354
 5540TIP3    H216627   6.093   4.555   3.495
 5541TIP3   OH216628   5.084   5.987   2.610
 5541TIP3    H116629   5.102   5.894   2.596
 5541TIP3    H216630   5.062   6.020   2.523
 5542TIP3   OH216631   0.374   2.006   0.529
 5542TIP3    H116632   0.379   2.100   0.545
 5542TIP3    H216633   0.466   1.978   0.523
 5543TIP3   OH216634   5.767   3.145   0.577
 5543TIP3    H116635   5.720   3.146   0.494
 5543TIP3    H216636   5.806   3.057   0.582
 5544TIP3   OH216637   4.244   0.682   0.101
 5544TIP3    H116638   4.213   0.595   0.129
 5544TIP3    H216639   4.165   0.730   0.077
 5545TIP3   OH216640   2.571   0.036   4.733
 5545TIP3    H116641   2.535  -0.022   4.800
 5545TIP3    H216642   2.542   0.124   4.758
 5546TIP3   OH216643   1.407   1.750   3.788
 5546TIP3    H116644   1.417   1.837   3.827
 5546TIP3    H216645   1.321   1.752   3.746
 5547TIP3   OH216646   1.335   5.382   0.242
 5547TIP3    H116647   1.284   5.450   0.286
 5547TIP3    H216648   1.426   5.410   0.249
 5548TIP3   OH216649   6.155   3.234   1.558
 5548TIP3    H116650   6.158   3.285   1.640
 5548TIP3    H216651   6.163   3.143   1.587
 5549TIP3   OH216652   3.442   1.709   0.205
 5549TIP3    H116653   3.385   1.761   0.261
 5549TIP3    H216654   3.437   1.751   0.120
 5550TIP3   OH216655   1.507   2.172   2.249
 5550TIP3    H116656   1.524   2.085   2.212
 5550TIP3    H216657   1.532   2.164   2.341
 5551TIP3   OH216658   1.898   2.821   4.324
 5551TIP3    H116659   1.950   2.744   4.351
 5551TIP3    H216660   1.809   2.800   4.353
 5552TIP3   OH216661   4.824   1.873   4.167
 5552TIP3    H116662   4.766   1.927   4.221
 5552TIP3    H216663   4.797   1.783   4.185
 5553TIP3   OH216664   4.077   5.076   1.210
 5553TIP3    H116665   4.129   5.003   1.242
 5553TIP3    H216666   4.141   5.146   1.194
 5554TIP3   OH216667   1.661   1.499   3.265
 5554TIP3    H116668   1.627   1.576   3.220
 5554TIP3    H216669   1.695   1.444   3.194
 5555TIP3   OH216670   3.210   5.298   1.223
 5555TIP3    H116671   3.302   5.322   1.233
 5555TIP3    H216672   3.212   5.203   1.206
 5556TIP3   OH216673   5.773   4.181   4.770
 5556TIP3    H116674   5.773   4.138   4.856
 5556TIP3    H216675   5.729   4.264   4.784
 5557TIP3   OH216676   3.357   2.772   2.138
 5557TIP3    H116677   3.389   2.775   2.228
 5557TIP3    H216678   3.342   2.864   2.115
 5558TIP3   OH216679   4.381   4.901   1.548
 5558TIP3    H116680   4.473   4.910   1.523
 5558TIP3    H216681   4.381   4.902   1.644
 5559TIP3   OH216682   2.256   0.946   4.973
 5559TIP3    H116683   2.250   0.857   5.009
 5559TIP3    H216684   2.336   0.981   5.011
 5560TIP3   OH216685   5.569   3.019   0.141
 5560TIP3    H116686   5.614   3.090   0.188
 5560TIP3    H216687   5.571   3.046   0.049
 5561TIP3   OH216688   3.013   1.877   0.971
 5561TIP3    H116689   2.942   1.847   0.914
 5561TIP3    H216690   3.091   1.874   0.916
 5562TIP3   OH216691   2.258   4.760   4.375
 5562TIP3    H116692   2.281   4.778   4.283
 5562TIP3    H216693   2.216   4.674   4.372
 5563TIP3   OH216694   0.590   0.483   0.730
 5563TIP3    H116695   0.646   0.420   0.776
 5563TIP3    H216696   0.650   0.551   0.700
 5564TIP3   OH216697   2.325   2.935   1.987
 5564TIP3    H116698   2.342   2.949   1.894
 5564TIP3    H216699   2.403   2.890   2.019
 5565TIP3   OH216700   2.985   4.698   2.657
 5565TIP3    H116701   3.062   4.680   2.603
 5565TIP3    H216702   2.990   4.633   2.728
 5566TIP3   OH216703   3.415   5.320   3.763
 5566TIP3    H116704   3.329   5.350   3.792
 5566TIP3    H216705   3.397   5.259   3.691
 5567TIP3   OH216706   2.331   5.247   3.433
 5567TIP3    H116707   2.323   5.298   3.514
 5567TIP3    H216708   2.241   5.237   3.402
 5568TIP3   OH216709   0.559   1.368   4.571
 5568TIP3    H116710   0.541   1.375   4.665
 5568TIP3    H216711   0.493   1.307   4.539
 5569TIP3   OH216712   5.207   1.480   0.116
 5569TIP3    H116713   5.130   1.441   0.077
 5569TIP3    H216714   5.200   1.460   0.210
 5570TIP3   OH216715   2.691   3.983   1.811
 5570TIP3    H116716   2.683   3.924   1.737
 5570TIP3    H216717   2.695   3.926   1.888
 5571TIP3   OH216718   1.959   1.855   3.931
 5571TIP3    H116719   1.988   1.880   4.019
 5571TIP3    H216720   1.988   1.764   3.922
 5572TIP3   OH216721   1.550   4.530   1.183
 5572TIP3    H116722   1.602   4.488   1.115
 5572TIP3    H216723   1.481   4.577   1.135
 5573TIP3   OH216724   5.242   1.453   0.967
 5573TIP3    H116725   5.205   1.365   0.977
 5573TIP3    H216726   5.270   1.477   1.055
 5574TIP3   OH216727   1.953   3.794   2.821
 5574TIP3    H116728   2.012   3.865   2.849
 5574TIP3    H216729   1.869   3.837   2.805
 5575TIP3   OH216730   1.557   1.299   4.819
 5575TIP3    H116731   1.469   1.261   4.816
 5575TIP3    H216732   1.600   1.253   4.892
 5576TIP3   OH216733   1.619   1.562   4.771
 5576TIP3    H116734   1.638   1.603   4.855
 5576TIP3    H216735   1.601   1.470   4.792
 5577TIP3   OH216736   0.196   1.156   4.642
 5577TIP3    H116737   0.208   1.188   4.732
 5577TIP3    H216738   0.105   1.175   4.621
 5578TIP3   OH216739   3.196   3.266   2.401
 5578TIP3    H116740   3.120   3.324   2.397
 5578TIP3    H216741   3.176   3.206   2.473
 5579TIP3   OH216742   0.756   3.132   4.339
 5579TIP3    H116743   0.680   3.093   4.382
 5579TIP3    H216744   0.829   3.116   4.398
 5580TIP3   OH216745   0.905   3.008   3.022
 5580TIP3    H116746   0.870   2.927   3.058
 5580TIP3    H216747   0.855   3.077   3.066
 5581TIP3   OH216748   6.203   2.466   2.918
 5581TIP3    H116749   6.151   2.509   2.985
 5581TIP3    H216750   6.173   2.375   2.919
 5582TIP3   OH216751   2.717   2.007   0.303
 5582TIP3    H116752   2.680   2.008   0.215
 5582TIP3    H216753   2.650   1.966   0.357
 5583TIP3   OH216754   4.318   0.098   3.793
 5583TIP3    H116755   4.245   0.108   3.732
 5583TIP3    H216756   4.331   0.003   3.799
 5584TIP3   OH216757   2.209   5.932   0.601
 5584TIP3    H116758   2.172   5.852   0.638
 5584TIP3    H216759   2.283   5.902   0.548
 5585TIP3   OH216760   1.864   2.708   2.988
 5585TIP3    H116761   1.833   2.621   2.963
 5585TIP3    H216762   1.818   2.728   3.069
 5586TIP3   OH216763   4.277   3.466   4.755
 5586TIP3    H116764   4.286   3.376   4.722
 5586TIP3    H216765   4.323   3.465   4.839
 5587TIP3   OH216766   4.085   3.935   1.313
 5587TIP3    H116767   4.111   3.980   1.232
 5587TIP3    H216768   4.145   3.861   1.320
 5588TIP3   OH216769   5.730   1.607   3.171
 5588TIP3    H116770   5.740   1.552   3.093
 5588TIP3    H216771   5.808   1.663   3.170
 5589TIP3   OH216772   2.135   3.417   3.161
 5589TIP3    H116773   2.197   3.478   3.122
 5589TIP3    H216774   2.053   3.466   3.167
 5590TIP3   OH216775   3.371   4.005   0.325
 5590TIP3    H116776   3.287   4.049   0.316
 5590TIP3    H216777   3.436   4.069   0.295
 5591TIP3   OH216778   0.124   3.550   3.930
 5591TIP3    H116779   0.136   3.619   3.865
 5591TIP3    H216780   0.197   3.489   3.915
 5592TIP3   OH216781   2.682   5.747   2.219
 5592TIP3    H116782   2.732   5.675   2.181
 5592TIP3    H216783   2.731   5.825   2.194
 5593TIP3   OH216784   5.599   0.737   5.092
 5593TIP3    H116785   5.608   0.792   5.014
 5593TIP3    H216786   5.564   0.655   5.059
 5594TIP3   OH216787   0.065   1.538   0.750
 5594TIP3    H116788  -0.005   1.498   0.803
 5594TIP3    H216789   0.026   1.620   0.718
 5595TIP3   OH216790   1.976   0.527   2.669
 5595TIP3    H116791   1.964   0.547   2.576
 5595TIP3    H216792   2.018   0.441   2.670
 5596TIP3   OH216793   4.533   2.943   3.385
 5596TIP3    H116794   4.516   2.854   3.417
 5596TIP3    H216795   4.599   2.931   3.316
 5597TIP3   OH216796   3.533   3.214   0.826
 5597TIP3    H116797   3.605   3.236   0.884
 5597TIP3    H216798   3.464   3.278   0.847
 5598TIP3   OH216799   4.413   3.050   3.762
 5598TIP3    H116800   4.492   3.011   3.800
 5598TIP3    H216801   4.441   3.080   3.675
 5599TIP3   OH216802   4.067   2.910   3.933
 5599TIP3    H116803   4.107   2.888   4.017
 5599TIP3    H216804   4.113   2.855   3.870
 5600TIP3   OH216805   1.498   2.160   1.148
 5600TIP3    H116806   1.577   2.182   1.097
 5600TIP3    H216807   1.434   2.133   1.082
 5601TIP3   OH216808   4.510   2.875   1.286
 5601TIP3    H116809   4.418   2.859   1.263
 5601TIP3    H216810   4.505   2.930   1.364
 5602TIP3   OH216811   4.291   2.541   4.804
 5602TIP3    H116812   4.319   2.632   4.794
 5602TIP3    H216813   4.198   2.547   4.824
 5603TIP3   OH216814   2.581   4.635   3.024
 5603TIP3    H116815   2.565   4.685   2.944
 5603TIP3    H216816   2.612   4.700   3.087
 5604TIP3   OH216817   3.735   0.578   2.893
 5604TIP3    H116818   3.681   0.576   2.972
 5604TIP3    H216819   3.803   0.642   2.912
 5605TIP3   OH216820   4.002   5.849   1.951
 5605TIP3    H116821   3.973   5.762   1.924
 5605TIP3    H216822   4.087   5.860   1.908
 5606TIP3   OH216823   4.615   5.035   4.355
 5606TIP3    H116824   4.683   4.978   4.321
 5606TIP3    H216825   4.536   4.981   4.354
 5607TIP3   OH216826   4.173   2.826   4.749
 5607TIP3    H116827   4.107   2.860   4.809
 5607TIP3    H216828   4.251   2.879   4.766
 5608TIP3   OH216829   3.386   1.848   3.299
 5608TIP3    H116830   3.453   1.795   3.343
 5608TIP3    H216831   3.304   1.823   3.342
 5609TIP3   OH216832   4.978   1.356   0.002
 5609TIP3    H116833   4.918   1.387  -0.065
 5609TIP3    H216834   4.921   1.337   0.077
 5610TIP3   OH216835   6.130   0.980   2.595
 5610TIP3    H116836   6.083   0.934   2.664
 5610TIP3    H216837   6.109   1.072   2.610
 5611TIP3   OH216838   4.612   5.443   2.528
 5611TIP3    H116839   4.601   5.435   2.623
 5611TIP3    H216840   4.707   5.452   2.516
 5612TIP3   OH216841   3.695   0.729   0.956
 5612TIP3    H116842   3.758   0.671   0.999
 5612TIP3    H216843   3.748   0.799   0.918
 5613TIP3   OH216844   1.390   4.914   5.068
 5613TIP3    H116845   1.434   4.968   5.134
 5613TIP3    H216846   1.331   4.974   5.022
 5614TIP3   OH216847   5.800   1.004   0.563
 5614TIP3    H116848   5.818   0.988   0.470
 5614TIP3    H216849   5.710   0.974   0.575
 5615TIP3   OH216850   0.617   4.314   3.618
 5615TIP3    H116851   0.614   4.281   3.708
 5615TIP3    H216852   0.674   4.252   3.572
 5616TIP3   OH216853   5.064   3.148   0.853
 5616TIP3    H116854   5.086   3.060   0.823
 5616TIP3    H216855   5.040   3.137   0.945
 5617TIP3   OH216856   4.903   1.743   2.002
 5617TIP3    H116857   4.935   1.832   1.986
 5617TIP3    H216858   4.920   1.697   1.920
 5618TIP3   OH216859   4.935   2.510   1.433
 5618TIP3    H116860   4.911   2.524   1.341
 5618TIP3    H216861   4.856   2.533   1.482
 5619TIP3   OH216862   4.464   2.782   0.673
 5619TIP3    H116863   4.530   2.789   0.742
 5619TIP3    H216864   4.392   2.837   0.704
 5620TIP3   OH216865   6.196   0.849   1.301
 5620TIP3    H116866   6.268   0.904   1.270
 5620TIP3    H216867   6.151   0.821   1.222
 5621TIP3   OH216868   4.520   3.779   3.510
 5621TIP3    H116869   4.432   3.808   3.483
 5621TIP3    H216870   4.556   3.854   3.558
 5622TIP3   OH216871   0.838   4.993   1.534
 5622TIP3    H116872   0.889   5.000   1.615
 5622TIP3    H216873   0.767   4.932   1.554
 5623TIP3   OH216874   2.119   1.270   2.296
 5623TIP3    H116875   2.067   1.236   2.369
 5623TIP3    H216876   2.061   1.333   2.253
 5624TIP3   OH216877   1.290   4.935   3.887
 5624TIP3    H116878   1.218   4.876   3.867
 5624TIP3    H216879   1.366   4.896   3.843
 5625TIP3   OH216880   5.137   2.474   1.028
 5625TIP3    H116881   5.128   2.404   0.963
 5625TIP3    H216882   5.207   2.445   1.086
 5626TIP3   OH216883   1.073   3.339   0.057
 5626TIP3    H116884   1.125   3.410   0.096
 5626TIP3    H216885   1.038   3.292   0.132
 5627TIP3   OH216886   2.474   0.813   1.761
 5627TIP3    H116887   2.404   0.870   1.791
 5627TIP3    H216888   2.434   0.760   1.692
 5628TIP3   OH216889   1.005   3.454   2.308
 5628TIP3    H116890   1.066   3.456   2.234
 5628TIP3    H216891   0.994   3.361   2.327
 5629TIP3   OH216892   2.941   1.834   1.396
 5629TIP3    H116893   3.034   1.825   1.376
 5629TIP3    H216894   2.913   1.745   1.418
 5630TIP3   OH216895   0.519   3.032   1.535
 5630TIP3    H116896   0.595   3.090   1.521
 5630TIP3    H216897   0.461   3.050   1.461
 5631TIP3   OH216898   3.962   0.752   3.931
 5631TIP3    H116899   4.005   0.824   3.977
 5631TIP3    H216900   3.879   0.740   3.978
 5632TIP3   OH216901   4.832   1.010   4.664
 5632TIP3    H116902   4.757   0.987   4.719
 5632TIP3    H216903   4.794   1.030   4.578
 5633TIP3   OH216904   5.906   0.021   0.545
 5633TIP3    H116905   5.835   0.060   0.594
 5633TIP3    H216906   5.901   0.062   0.458
 5634TIP3   OH216907   4.927   2.647   4.834
 5634TIP3    H116908   4.875   2.572   4.865
 5634TIP3    H216909   5.006   2.608   4.798
 5635TIP3   OH216910   5.921   4.413   2.771
 5635TIP3    H116911   5.918   4.482   2.837
 5635TIP3    H216912   5.947   4.334   2.820
 5636TIP3   OH216913   5.298   4.426   0.525
 5636TIP3    H116914   5.275   4.334   0.530
 5636TIP3    H216915   5.244   4.461   0.454
 5637TIP3   OH216916   0.155   0.323   4.155
 5637TIP3    H116917   0.122   0.269   4.083
 5637TIP3    H216918   0.108   0.291   4.232
 5638TIP3   OH216919   5.996   4.015   0.713
 5638TIP3    H116920   6.036   4.100   0.730
 5638TIP3    H216921   6.052   3.953   0.761
 5639TIP3   OH216922   3.298   3.851   0.891
 5639TIP3    H116923   3.364   3.789   0.922
 5639TIP3    H216924   3.244   3.869   0.968
 5640TIP3   OH216925   4.836   3.400   2.325
 5640TIP3    H116926   4.931   3.415   2.319
 5640TIP3    H216927   4.826   3.348   2.405
 5641TIP3   OH216928   3.966   0.249   4.700
 5641TIP3    H116929   3.920   0.234   4.783
 5641TIP3    H216930   4.058   0.228   4.719
 5642TIP3   OH216931   3.823   4.180   4.722
 5642TIP3    H116932   3.904   4.167   4.772
 5642TIP3    H216933   3.756   4.133   4.773
 5643TIP3   OH216934   2.101   5.885   1.943
 5643TIP3    H116935   2.127   5.808   1.893
 5643TIP3    H216936   2.162   5.953   1.915
 5644TIP3   OH216937   5.327   5.742   4.073
 5644TIP3    H116938   5.271   5.667   4.053
 5644TIP3    H216939   5.278   5.818   4.044
 5645TIP3   OH216940   1.730   3.037   3.626
 5645TIP3    H116941   1.825   3.053   3.627
 5645TIP3    H216942   1.691   3.124   3.638
 5646TIP3   OH216943   5.508   0.239   2.562
 5646TIP3    H116944   5.572   0.275   2.622
 5646TIP3    H216945   5.447   0.191   2.618
 5647TIP3   OH216946   2.268   3.047   4.980
 5647TIP3    H116947   2.355   3.073   5.009
 5647TIP3    H216948   2.264   2.953   4.995
 5648TIP3   OH216949   5.993   2.397   0.440
 5648TIP3    H116950   5.988   2.368   0.531
 5648TIP3    H216951   6.016   2.489   0.446
 5649TIP3   OH216952   5.635   3.380   1.819
 5649TIP3    H116953   5.695   3.312   1.789
 5649TIP3    H216954   5.564   3.381   1.755
 5650TIP3   OH216955   1.645   1.122   4.340
 5650TIP3    H116956   1.696   1.093   4.416
 5650TIP3    H216957   1.615   1.210   4.364
 5651TIP3   OH216958   1.199   2.661   0.025
 5651TIP3    H116959   1.160   2.638   0.109
 5651TIP3    H216960   1.256   2.735   0.045
 5652TIP3   OH216961   2.524   2.568   2.218
 5652TIP3    H116962   2.501   2.482   2.182
 5652TIP3    H216963   2.545   2.550   2.310
 5653TIP3   OH216964   1.520   5.304   3.288
 5653TIP3    H116965   1.452   5.342   3.344
 5653TIP3    H216966   1.599   5.352   3.309
 5654TIP3   OH216967   0.742   3.484   2.130
 5654TIP3    H116968   0.738   3.514   2.221
 5654TIP3    H216969   0.758   3.390   2.136
 5655TIP3   OH216970   4.110   0.195   4.253
 5655TIP3    H116971   4.096   0.281   4.214
 5655TIP3    H216972   4.138   0.139   4.180
 5656TIP3   OH216973   3.131   5.681   0.772
 5656TIP3    H116974   3.163   5.759   0.817
 5656TIP3    H216975   3.100   5.713   0.687
 5657TIP3   OH216976   6.241   3.517   3.829
 5657TIP3    H116977   6.191   3.497   3.907
 5657TIP3    H216978   6.332   3.521   3.859
 5658TIP3   OH216979   2.550   5.146   2.818
 5658TIP3    H116980   2.495   5.069   2.806
 5658TIP3    H216981   2.534   5.172   2.909
 5659TIP3   OH216982   3.934   2.760   4.201
 5659TIP3    H116983   4.021   2.796   4.185
 5659TIP3    H216984   3.876   2.809   4.143
 5660TIP3   OH216985   5.858   2.028   2.119
 5660TIP3    H116986   5.922   2.016   2.189
 5660TIP3    H216987   5.858   1.944   2.073
 5661TIP3   OH216988   0.651   0.825   1.451
 5661TIP3    H116989   0.704   0.904   1.456
 5661TIP3    H216990   0.714   0.755   1.431
 5662TIP3   OH216991   1.142   5.745   0.566
 5662TIP3    H116992   1.213   5.710   0.512
 5662TIP3    H216993   1.181   5.820   0.610
 5663TIP3   OH216994   1.547   4.525   4.676
 5663TIP3    H116995   1.467   4.512   4.626
 5663TIP3    H216996   1.527   4.597   4.736
 5664TIP3   OH216997   2.308   4.285   2.552
 5664TIP3    H116998   2.379   4.349   2.540
 5664TIP3    H216999   2.338   4.207   2.507
 5665TIP3   OH217000   0.775   3.880   4.938
 5665TIP3    H117001   0.870   3.884   4.927
 5665TIP3    H217002   0.759   3.919   5.024
 5666TIP3   OH217003   4.430   4.920   0.404
 5666TIP3    H117004   4.503   4.974   0.434
 5666TIP3    H217005   4.460   4.884   0.321
 5667TIP3   OH217006   0.044   0.417   1.142
 5667TIP3    H117007  -0.043   0.440   1.109
 5667TIP3    H217008   0.041   0.437   1.235
 5668TIP3   OH217009   0.613   3.112   0.660
 5668TIP3    H117010   0.534   3.083   0.614
 5668TIP3    H217011   0.600   3.205   0.674
 5669TIP3   OH217012   3.036   2.038   3.618
 5669TIP3    H117013   3.127   2.038   3.650
 5669TIP3    H217014   3.024   2.125   3.580
 5670TIP3   OH217015   6.020   1.097   2.113
 5670TIP3    H117016   6.062   1.164   2.059
 5670TIP3    H217017   6.076   1.020   2.102
 5671TIP3   OH217018   4.191   5.427   1.058
 5671TIP3    H117019   4.141   5.400   1.135
 5671TIP3    H217020   4.126   5.435   0.988
 5672TIP3   OH217021   4.621   5.919   1.447
 5672TIP3    H117022   4.606   6.013   1.454
 5672TIP3    H217023   4.709   5.911   1.412
 5673TIP3   OH217024   1.472   5.929   3.039
 5673TIP3    H117025   1.538   5.864   3.065
 5673TIP3    H217026   1.522   6.008   3.021
 5674TIP3   OH217027   1.714   2.670   1.282
 5674TIP3    H117028   1.687   2.591   1.236
 5674TIP3    H217029   1.774   2.714   1.222
 5675TIP3   OH217030   0.686   4.975   3.240
 5675TIP3    H117031   0.722   5.018   3.162
 5675TIP3    H217032   0.745   5.003   3.311
 5676TIP3   OH217033   3.967   1.490   1.820
 5676TIP3    H117034   3.944   1.440   1.742
 5676TIP3    H217035   4.054   1.458   1.845
 5677TIP3   OH217036   4.666   5.703   1.984
 5677TIP3    H117037   4.694   5.727   1.895
 5677TIP3    H217038   4.575   5.731   1.989
 5678TIP3   OH217039   4.046   0.575   4.231
 5678TIP3    H117040   4.038   0.613   4.319
 5678TIP3    H217041   4.073   0.649   4.175
 5679TIP3   OH217042   4.155   2.994   2.204
 5679TIP3    H117043   4.102   3.068   2.174
 5679TIP3    H217044   4.103   2.917   2.182
 5680TIP3   OH217045   4.828   1.746   0.049
 5680TIP3    H117046   4.742   1.714   0.076
 5680TIP3    H217047   4.882   1.737   0.127
 5681TIP3   OH217048   2.776   4.894   2.850
 5681TIP3    H117049   2.720   4.821   2.823
 5681TIP3    H217050   2.854   4.887   2.795
 5682TIP3   OH217051   0.572   3.366   2.756
 5682TIP3    H117052   0.555   3.455   2.725
 5682TIP3    H217053   0.633   3.329   2.693
 5683TIP3   OH217054   1.018   4.470   4.642
 5683TIP3    H117055   1.046   4.527   4.570
 5683TIP3    H217056   1.087   4.404   4.649
 5684TIP3   OH217057   1.079   4.501   0.804
 5684TIP3    H117058   1.054   4.409   0.812
 5684TIP3    H217059   1.174   4.499   0.792
 5685TIP3   OH217060   5.726   2.973   4.019
 5685TIP3    H117061   5.712   2.887   4.059
 5685TIP3    H217062   5.794   3.013   4.073
 5686TIP3   OH217063   0.399   1.214   3.266
 5686TIP3    H117064   0.327   1.177   3.317
 5686TIP3    H217065   0.465   1.144   3.263
 5687TIP3   OH217066   1.164   5.122   0.217
 5687TIP3    H117067   1.212   5.191   0.263
 5687TIP3    H217068   1.225   5.048   0.216
 5688TIP3   OH217069   1.263   5.682   1.542
 5688TIP3    H117070   1.328   5.745   1.573
 5688TIP3    H217071   1.188   5.736   1.517
 5689TIP3   OH217072   0.987   5.517   4.711
 5689TIP3    H117073   0.972   5.507   4.805
 5689TIP3    H217074   1.005   5.610   4.700
 5690TIP3   OH217075   3.631   3.498   4.954
 5690TIP3    H117076   3.657   3.480   4.864
 5690TIP3    H217077   3.567   3.569   4.947
 5691TIP3   OH217078   4.278   0.918   3.081
 5691TIP3    H117079   4.371   0.900   3.096
 5691TIP3    H217080   4.264   0.891   2.990
 5692TIP3   OH217081   4.549   4.542   4.060
 5692TIP3    H117082   4.639   4.572   4.051
 5692TIP3    H217083   4.553   4.448   4.041
 5693TIP3   OH217084   4.347   1.032   4.656
 5693TIP3    H117085   4.334   1.061   4.566
 5693TIP3    H217086   4.258   1.018   4.690
 5694TIP3   OH217087   2.318   1.085   2.250
 5694TIP3    H117088   2.275   1.042   2.176
 5694TIP3    H217089   2.259   1.158   2.272
 5695TIP3   OH217090   5.867   1.709   1.353
 5695TIP3    H117091   5.827   1.788   1.389
 5695TIP3    H217092   5.943   1.740   1.304
 5696TIP3   OH217093   2.952   0.053   3.734
 5696TIP3    H117094   3.031   0.096   3.765
 5696TIP3    H217095   2.980   0.004   3.656
 5697TIP3   OH217096   3.575   5.698   3.433
 5697TIP3    H117097   3.666   5.672   3.444
 5697TIP3    H217098   3.551   5.741   3.515
 5698TIP3   OH217099   4.889   2.110   3.876
 5698TIP3    H117100   4.888   2.118   3.781
 5698TIP3    H217101   4.835   2.033   3.894
 5699TIP3   OH217102   3.160   0.382   2.733
 5699TIP3    H117103   3.109   0.303   2.750
 5699TIP3    H217104   3.215   0.359   2.658
 5700TIP3   OH217105   3.060   5.023   4.265
 5700TIP3    H117106   2.973   5.038   4.302
 5700TIP3    H217107   3.100   5.110   4.261
 5701TIP3   OH217108   1.589   1.063   0.916
 5701TIP3    H117109   1.499   1.064   0.946
 5701TIP3    H217110   1.597   1.143   0.862
 5702TIP3   OH217111   1.835   5.127   2.455
 5702TIP3    H117112   1.845   5.222   2.454
 5702TIP3    H217113   1.884   5.097   2.379
 5703TIP3   OH217114   4.008   1.142   3.561
 5703TIP3    H117115   4.072   1.072   3.564
 5703TIP3    H217116   3.957   1.125   3.482
 5704TIP3   OH217117   6.091   3.617   2.036
 5704TIP3    H117118   6.174   3.637   2.079
 5704TIP3    H217119   6.024   3.645   2.099
 5705TIP3   OH217120   4.726   1.351   0.577
 5705TIP3    H117121   4.658   1.366   0.512
 5705TIP3    H217122   4.738   1.256   0.579
 5706TIP3   OH217123   5.788   3.625   1.841
 5706TIP3    H117124   5.729   3.561   1.800
 5706TIP3    H217125   5.752   3.710   1.816
 5707TIP3   OH217126   5.884   2.608   0.624
 5707TIP3    H117127   5.977   2.634   0.624
 5707TIP3    H217128   5.840   2.677   0.673
 5708TIP3   OH217129   3.747   2.512   4.415
 5708TIP3    H117130   3.841   2.496   4.418
 5708TIP3    H217131   3.715   2.455   4.345
 5709TIP3   OH217132   2.410   5.747   4.601
 5709TIP3    H117133   2.499   5.711   4.599
 5709TIP3    H217134   2.421   5.837   4.631
 5710TIP3   OH217135   1.790   4.729   4.564
 5710TIP3    H117136   1.755   4.641   4.551
 5710TIP3    H217137   1.765   4.752   4.654
 5711TIP3   OH217138   2.801   1.352   4.045
 5711TIP3    H117139   2.842   1.313   4.122
 5711TIP3    H217140   2.874   1.383   3.991
 5712TIP3   OH217141   1.495   4.374   1.906
 5712TIP3    H117142   1.549   4.426   1.965
 5712TIP3    H217143   1.452   4.437   1.850
 5713TIP3   OH217144   1.656   0.823   3.744
 5713TIP3    H117145   1.632   0.847   3.833
 5713TIP3    H217146   1.698   0.902   3.709
 5714TIP3   OH217147   2.855   4.727   1.153
 5714TIP3    H117148   2.761   4.746   1.149
 5714TIP3    H217149   2.897   4.804   1.114
 5715TIP3   OH217150   6.226   1.545   3.780
 5715TIP3    H117151   6.202   1.608   3.712
 5715TIP3    H217152   6.313   1.515   3.755
 5716TIP3   OH217153   3.578   2.255   4.925
 5716TIP3    H117154   3.670   2.252   4.951
 5716TIP3    H217155   3.553   2.347   4.938
 5717TIP3   OH217156   2.623   5.723   1.265
 5717TIP3    H117157   2.703   5.688   1.225
 5717TIP3    H217158   2.635   5.710   1.359
 5718TIP3   OH217159   2.456   4.054   5.006
 5718TIP3    H117160   2.536   4.050   5.058
 5718TIP3    H217161   2.448   3.966   4.968
 5719TIP3   OH217162   4.487   1.163   3.991
 5719TIP3    H117163   4.492   1.163   3.896
 5719TIP3    H217164   4.412   1.107   4.011
 5720TIP3   OH217165   6.109   0.884   1.056
 5720TIP3    H117166   6.189   0.906   1.008
 5720TIP3    H217167   6.039   0.923   1.003
 5721TIP3   OH217168   1.609   4.353   2.418
 5721TIP3    H117169   1.545   4.367   2.488
 5721TIP3    H217170   1.602   4.260   2.397
 5722TIP3   OH217171   5.090   2.634   4.333
 5722TIP3    H117172   5.166   2.576   4.323
 5722TIP3    H217173   5.116   2.696   4.401
 5723TIP3   OH217174   3.086   4.892   3.621
 5723TIP3    H117175   3.038   4.927   3.546
 5723TIP3    H217176   3.169   4.861   3.585
 5724TIP3   OH217177   6.234   5.708   2.664
 5724TIP3    H117178   6.293   5.680   2.733
 5724TIP3    H217179   6.176   5.633   2.648
 5725TIP3   OH217180   5.102   3.616   1.834
 5725TIP3    H117181   5.090   3.540   1.892
 5725TIP3    H217182   5.185   3.598   1.789
 5726TIP3   OH217183   3.720   5.021   0.672
 5726TIP3    H117184   3.807   5.011   0.709
 5726TIP3    H217185   3.667   4.955   0.716
 5727TIP3   OH217186   3.501   2.624   3.760
 5727TIP3    H117187   3.488   2.532   3.780
 5727TIP3    H217188   3.472   2.671   3.838
 5728TIP3   OH217189   1.615   4.065   1.619
 5728TIP3    H117190   1.565   4.088   1.541
 5728TIP3    H217191   1.706   4.080   1.594
 5729TIP3   OH217192   3.428   3.392   1.882
 5729TIP3    H117193   3.508   3.339   1.878
 5729TIP3    H217194   3.363   3.333   1.920
 5730TIP3   OH217195   3.022   4.574   0.979
 5730TIP3    H117196   2.970   4.588   1.059
 5730TIP3    H217197   3.103   4.622   0.995
 5731TIP3   OH217198   6.215   2.472   0.773
 5731TIP3    H117199   6.147   2.430   0.826
 5731TIP3    H217200   6.259   2.531   0.834
 5732TIP3   OH217201   1.021   5.012   3.594
 5732TIP3    H117202   1.019   4.917   3.593
 5732TIP3    H217203   0.998   5.037   3.504
 5733TIP3   OH217204   6.219   1.929   3.846
 5733TIP3    H117205   6.138   1.893   3.883
 5733TIP3    H217206   6.257   1.980   3.918
 5734TIP3   OH217207   1.960   0.164   0.257
 5734TIP3    H117208   1.903   0.129   0.326
 5734TIP3    H217209   1.931   0.121   0.177
 5735TIP3   OH217210   5.344   1.285   4.767
 5735TIP3    H117211   5.367   1.378   4.767
 5735TIP3    H217212   5.429   1.240   4.771
 5736TIP3   OH217213   0.419   3.734   1.304
 5736TIP3    H117214   0.358   3.726   1.231
 5736TIP3    H217215   0.373   3.787   1.369
 5737TIP3   OH217216   1.061   3.836   3.861
 5737TIP3    H117217   1.153   3.846   3.837
 5737TIP3    H217218   1.056   3.751   3.904
 5738TIP3   OH217219   4.131   3.122   3.745
 5738TIP3    H117220   4.218   3.084   3.740
 5738TIP3    H217221   4.077   3.055   3.786
 5739TIP3   OH217222   5.804   4.740   3.441
 5739TIP3    H117223   5.725   4.739   3.495
 5739TIP3    H217224   5.874   4.768   3.500
 5740TIP3   OH217225   0.114   5.504   3.292
 5740TIP3    H117226   0.173   5.468   3.225
 5740TIP3    H217227   0.046   5.438   3.301
 5741TIP3   OH217228   2.647   3.292   4.233
 5741TIP3    H117229   2.559   3.269   4.202
 5741TIP3    H217230   2.692   3.207   4.241
 5742TIP3   OH217231   2.097   0.956   2.081
 5742TIP3    H117232   2.120   0.896   2.009
 5742TIP3    H217233   2.005   0.936   2.099
 5743TIP3   OH217234   3.765   3.501   4.715
 5743TIP3    H117235   3.811   3.424   4.684
 5743TIP3    H217236   3.709   3.527   4.642
 5744TIP3   OH217237   0.085   5.359   0.416
 5744TIP3    H117238   0.069   5.444   0.457
 5744TIP3    H217239   0.132   5.308   0.482
 5745TIP3   OH217240   4.663   4.982   1.868
 5745TIP3    H117241   4.680   4.973   1.962
 5745TIP3    H217242   4.572   5.011   1.863
 5746TIP3   OH217243   6.298   4.740   4.559
 5746TIP3    H117244   6.309   4.682   4.484
 5746TIP3    H217245   6.270   4.683   4.631
 5747TIP3   OH217246   5.237   0.108   0.272
 5747TIP3    H117247   5.313   0.128   0.218
 5747TIP3    H217248   5.165   0.158   0.232
 5748TIP3   OH217249   0.585   3.054   2.738
 5748TIP3    H117250   0.530   3.047   2.660
 5748TIP3    H217251   0.569   3.142   2.771
 5749TIP3   OH217252   0.104   1.385   3.446
 5749TIP3    H117253   0.081   1.301   3.486
 5749TIP3    H217254   0.062   1.383   3.360
 5750TIP3   OH217255   0.225   5.285   4.393
 5750TIP3    H117256   0.197   5.357   4.448
 5750TIP3    H217257   0.317   5.273   4.413
 5751TIP3   OH217258   6.236   0.107   4.041
 5751TIP3    H117259   6.317   0.139   4.002
 5751TIP3    H217260   6.238   0.141   4.130
 5752TIP3   OH217261   1.094   4.493   4.115
 5752TIP3    H117262   1.036   4.565   4.093
 5752TIP3    H217263   1.181   4.533   4.123
 5753TIP3   OH217264   6.238   1.350   0.979
 5753TIP3    H117265   6.208   1.325   1.066
 5753TIP3    H217266   6.325   1.311   0.971
 5754TIP3   OH217267   0.407   0.338   2.226
 5754TIP3    H117268   0.334   0.350   2.286
 5754TIP3    H217269   0.384   0.391   2.149
 5755TIP3   OH217270   0.548   4.404   4.954
 5755TIP3    H117271   0.471   4.356   4.983
 5755TIP3    H217272   0.594   4.343   4.895
 5756TIP3   OH217273   1.113   2.717   2.812
 5756TIP3    H117274   1.197   2.749   2.776
 5756TIP3    H217275   1.137   2.674   2.894
 5757TIP3   OH217276   5.380   0.779   3.025
 5757TIP3    H117277   5.373   0.856   3.081
 5757TIP3    H217278   5.437   0.807   2.953
 5758TIP3   OH217279   3.801   5.268   4.073
 5758TIP3    H117280   3.721   5.304   4.036
 5758TIP3    H217281   3.857   5.345   4.088
 5759TIP3   OH217282   1.841   5.169   1.856
 5759TIP3    H117283   1.798   5.186   1.772
 5759TIP3    H217284   1.927   5.210   1.847
 5760TIP3   OH217285   4.412   4.317   2.929
 5760TIP3    H117286   4.505   4.336   2.939
 5760TIP3    H217287   4.370   4.367   2.999
 5761TIP3   OH217288   2.230   0.102   2.425
 5761TIP3    H117289   2.201   0.030   2.369
 5761TIP3    H217290   2.193   0.082   2.511
 5762TIP3   OH217291   0.241   4.379   2.940
 5762TIP3    H117292   0.331   4.371   2.907
 5762TIP3    H217293   0.246   4.449   3.005
 5763TIP3   OH217294  -0.020   5.162   0.246
 5763TIP3    H117295   0.069   5.143   0.216
 5763TIP3    H217296  -0.011   5.241   0.299
 5764TIP3   OH217297   0.530   1.344   4.836
 5764TIP3    H117298   0.548   1.268   4.891
 5764TIP3    H217299   0.594   1.409   4.863
 5765TIP3   OH217300   2.739   1.135   0.341
 5765TIP3    H117301   2.797   1.210   0.353
 5765TIP3    H217302   2.766   1.098   0.256
 5766TIP3   OH217303   4.640   3.846   4.748
 5766TIP3    H117304   4.717   3.903   4.750
 5766TIP3    H217305   4.576   3.891   4.803
 5767TIP3   OH217306   4.212   4.086   2.863
 5767TIP3    H117307   4.204   4.103   2.957
 5767TIP3    H217308   4.304   4.102   2.843
 5768TIP3   OH217309   1.363   4.503   0.800
 5768TIP3    H117310   1.389   4.595   0.810
 5768TIP3    H217311   1.422   4.468   0.733
 5769TIP3   OH217312   5.279   0.006   3.552
 5769TIP3    H117313   5.228   0.080   3.520
 5769TIP3    H217314   5.219  -0.043   3.608
 5770TIP3   OH217315   0.381   2.598   3.896
 5770TIP3    H117316   0.297   2.641   3.882
 5770TIP3    H217317   0.382   2.577   3.989
 5771TIP3   OH217318   2.898   5.863   4.038
 5771TIP3    H117319   2.885   5.937   4.097
 5771TIP3    H217320   2.813   5.817   4.039
 5772TIP3   OH217321   4.906   5.701   3.858
 5772TIP3    H117322   4.831   5.712   3.801
 5772TIP3    H217323   4.982   5.718   3.803
 5773TIP3   OH217324   5.458   0.493   1.454
 5773TIP3    H117325   5.533   0.515   1.399
 5773TIP3    H217326   5.419   0.417   1.412
 5774TIP3   OH217327   1.680   2.253   0.511
 5774TIP3    H117328   1.613   2.209   0.460
 5774TIP3    H217329   1.635   2.326   0.553
 5775TIP3   OH217330   5.577   2.401   1.602
 5775TIP3    H117331   5.528   2.337   1.551
 5775TIP3    H217332   5.663   2.405   1.561
 5776TIP3   OH217333   1.782   4.136   4.331
 5776TIP3    H117334   1.708   4.094   4.373
 5776TIP3    H217335   1.819   4.195   4.397
 5777TIP3   OH217336   1.113   5.555   1.142
 5777TIP3    H117337   1.083   5.594   1.224
 5777TIP3    H217338   1.125   5.462   1.163
 5778TIP3   OH217339   2.143   2.857   4.754
 5778TIP3    H117340   2.152   2.778   4.701
 5778TIP3    H217341   2.192   2.838   4.834
 5779TIP3   OH217342   6.261   2.105   2.470
 5779TIP3    H117343   6.302   2.036   2.419
 5779TIP3    H217344   6.178   2.068   2.499
 5780TIP3   OH217345   1.249   5.773   3.228
 5780TIP3    H117346   1.230   5.774   3.322
 5780TIP3    H217347   1.330   5.822   3.219
 5781TIP3   OH217348   4.396   3.080   3.160
 5781TIP3    H117349   4.407   3.070   3.255
 5781TIP3    H217350   4.451   3.010   3.123
 5782TIP3   OH217351   1.345   1.568   2.985
 5782TIP3    H117352   1.331   1.626   2.910
 5782TIP3    H217353   1.260   1.562   3.028
 5783TIP3   OH217354   0.991   5.375   2.683
 5783TIP3    H117355   0.911   5.327   2.703
 5783TIP3    H217356   0.985   5.393   2.589
 5784TIP3   OH217357   3.237   4.893   1.786
 5784TIP3    H117358   3.266   4.945   1.712
 5784TIP3    H217359   3.316   4.875   1.837
 5785TIP3   OH217360   1.619   0.201   2.447
 5785TIP3    H117361   1.620   0.121   2.395
 5785TIP3    H217362   1.698   0.196   2.501
 5786TIP3   OH217363   0.665   0.874   0.988
 5786TIP3    H117364   0.748   0.832   1.009
 5786TIP3    H217365   0.618   0.876   1.071
 5787TIP3   OH217366   1.681   2.444   3.188
 5787TIP3    H117367   1.752   2.417   3.130
 5787TIP3    H217368   1.723   2.499   3.254
 5788TIP3   OH217369   0.171   2.963   0.317
 5788TIP3    H117370   0.250   2.922   0.281
 5788TIP3    H217371   0.188   3.057   0.307
 5789TIP3   OH217372   2.416   4.529   2.509
 5789TIP3    H117373   2.334   4.556   2.551
 5789TIP3    H217374   2.427   4.591   2.437
 5790TIP3   OH217375   2.033   4.711   1.474
 5790TIP3    H117376   2.089   4.705   1.552
 5790TIP3    H217377   2.083   4.665   1.406
 5791TIP3   OH217378   2.759   4.229   3.762
 5791TIP3    H117379   2.714   4.312   3.777
 5791TIP3    H217380   2.763   4.220   3.667
 5792TIP3   OH217381   5.458   2.158   3.021
 5792TIP3    H117382   5.491   2.069   3.011
 5792TIP3    H217383   5.384   2.163   2.961
 5793TIP3   OH217384   4.484   4.585   1.566
 5793TIP3    H117385   4.391   4.579   1.589
 5793TIP3    H217386   4.485   4.581   1.470
 5794TIP3   OH217387   2.137   1.288   1.454
 5794TIP3    H117388   2.088   1.337   1.388
 5794TIP3    H217389   2.116   1.196   1.437
 5795TIP3   OH217390   3.761   1.954   1.238
 5795TIP3    H117391   3.805   1.934   1.321
 5795TIP3    H217392   3.674   1.916   1.247
 5796TIP3   OH217393   3.373   4.297   2.392
 5796TIP3    H117394   3.439   4.233   2.419
 5796TIP3    H217395   3.338   4.331   2.474
 5797TIP3   OH217396   3.233   0.974   3.455
 5797TIP3    H117397   3.253   0.922   3.377
 5797TIP3    H217398   3.300   0.949   3.519
 5798TIP3   OH217399   0.884   5.539   1.940
 5798TIP3    H117400   0.914   5.479   2.009
 5798TIP3    H217401   0.871   5.622   1.986
 5799TIP3   OH217402   5.185   4.448   4.637
 5799TIP3    H117403   5.263   4.491   4.600
 5799TIP3    H217404   5.113   4.479   4.583
 5800TIP3   OH217405   0.335   5.769   3.049
 5800TIP3    H117406   0.274   5.831   3.009
 5800TIP3    H217407   0.417   5.818   3.059
 5801TIP3   OH217408   3.949   3.101   2.523
 5801TIP3    H117409   3.878   3.144   2.477
 5801TIP3    H217410   3.907   3.055   2.596
 5802TIP3   OH217411   3.604   1.619   4.170
 5802TIP3    H117412   3.595   1.527   4.146
 5802TIP3    H217413   3.618   1.664   4.087
 5803TIP3   OH217414   3.744   3.184   4.490
 5803TIP3    H117415   3.658   3.146   4.509
 5803TIP3    H217416   3.731   3.235   4.410
 5804TIP3   OH217417   5.527   0.213   1.236
 5804TIP3    H117418   5.477   0.131   1.236
 5804TIP3    H217419   5.483   0.268   1.171
 5805TIP3   OH217420   4.928   5.269   2.700
 5805TIP3    H117421   4.902   5.267   2.793
 5805TIP3    H217422   4.883   5.194   2.661
 5806TIP3   OH217423   2.437   3.559   1.749
 5806TIP3    H117424   2.354   3.594   1.780
 5806TIP3    H217425   2.447   3.476   1.796
 5807TIP3   OH217426   5.857   5.158   5.066
 5807TIP3    H117427   5.771   5.191   5.041
 5807TIP3    H217428   5.916   5.195   5.001
 5808TIP3   OH217429   4.041   1.027   3.207
 5808TIP3    H117430   4.135   1.023   3.187
 5808TIP3    H217431   3.998   1.029   3.122
 5809TIP3   OH217432   4.960   5.400   5.091
 5809TIP3    H117433   5.052   5.424   5.098
 5809TIP3    H217434   4.915   5.459   5.152
 5810TIP3   OH217435   5.000   4.641   0.590
 5810TIP3    H117436   5.023   4.557   0.630
 5810TIP3    H217437   5.039   4.707   0.647
 5811TIP3   OH217438   1.266   1.688   2.728
 5811TIP3    H117439   1.238   1.603   2.695
 5811TIP3    H217440   1.186   1.729   2.760
 5812TIP3   OH217441   4.281   2.316   1.292
 5812TIP3    H117442   4.327   2.370   1.227
 5812TIP3    H217443   4.189   2.326   1.270
 5813TIP3   OH217444   2.973   2.404   4.476
 5813TIP3    H117445   3.002   2.327   4.524
 5813TIP3    H217446   2.895   2.375   4.429
 5814TIP3   OH217447   0.890   1.232   2.856
 5814TIP3    H117448   0.966   1.247   2.913
 5814TIP3    H217449   0.927   1.223   2.769
 5815TIP3   OH217450   2.157   5.062   1.631
 5815TIP3    H117451   2.070   5.021   1.635
 5815TIP3    H217452   2.170   5.097   1.719
 5816TIP3   OH217453   0.149   0.951   0.405
 5816TIP3    H117454   0.223   0.892   0.386
 5816TIP3    H217455   0.140   0.947   0.500
 5817TIP3   OH217456   4.750   4.211   4.331
 5817TIP3    H117457   4.721   4.208   4.422
 5817TIP3    H217458   4.846   4.213   4.336
 5818TIP3   OH217459   2.475   3.459   5.115
 5818TIP3    H117460   2.407   3.504   5.065
 5818TIP3    H217461   2.508   3.524   5.176
 5819TIP3   OH217462   5.273   3.743   4.765
 5819TIP3    H117463   5.297   3.654   4.738
 5819TIP3    H217464   5.340   3.767   4.830
 5820TIP3   OH217465   4.628   1.393   3.708
 5820TIP3    H117466   4.572   1.323   3.675
 5820TIP3    H217467   4.626   1.460   3.640
 5821TIP3   OH217468   5.859   4.742   2.207
 5821TIP3    H117469   5.821   4.818   2.163
 5821TIP3    H217470   5.932   4.777   2.257
 5822TIP3   OH217471   6.000   2.967   4.908
 5822TIP3    H117472   6.039   3.054   4.903
 5822TIP3    H217473   5.988   2.940   4.817
 5823TIP3   OH217474   4.731   2.956   2.428
 5823TIP3    H117475   4.662   2.911   2.479
 5823TIP3    H217476   4.690   3.037   2.399
 5824TIP3   OH217477   6.184   1.988   0.221
 5824TIP3    H117478   6.134   1.912   0.251
 5824TIP3    H217479   6.275   1.966   0.240
 5825TIP3   OH217480   3.205   5.830   3.287
 5825TIP3    H117481   3.201   5.924   3.269
 5825TIP3    H217482   3.200   5.824   3.383
 5826TIP3   OH217483   4.039   0.516   1.674
 5826TIP3    H117484   4.022   0.530   1.580
 5826TIP3    H217485   3.954   0.526   1.716
 5827TIP3   OH217486   4.852   1.892   0.617
 5827TIP3    H117487   4.867   1.894   0.711
 5827TIP3    H217488   4.893   1.972   0.584
 5828TIP3   OH217489   0.084   4.037   4.172
 5828TIP3    H117490   0.095   4.071   4.261
 5828TIP3    H217491  -0.009   4.013   4.167
 5829TIP3   OH217492   1.800   4.110   0.711
 5829TIP3    H117493   1.814   4.073   0.798
 5829TIP3    H217494   1.826   4.202   0.720
 5830TIP3   OH217495   4.893   1.727   0.980
 5830TIP3    H117496   4.837   1.653   0.955
 5830TIP3    H217497   4.980   1.703   0.949
 5831TIP3   OH217498   4.345   1.293   3.714
 5831TIP3    H117499   4.259   1.328   3.694
 5831TIP3    H217500   4.332   1.198   3.718
 5832TIP3   OH217501   3.324   1.483   3.533
 5832TIP3    H117502   3.235   1.491   3.499
 5832TIP3    H217503   3.359   1.405   3.490
 5833TIP3   OH217504   6.099   1.369   4.359
 5833TIP3    H117505   6.045   1.330   4.428
 5833TIP3    H217506   6.046   1.360   4.279
 5834TIP3   OH217507   2.429   3.241   0.202
 5834TIP3    H117508   2.351   3.247   0.147
 5834TIP3    H217509   2.420   3.314   0.264
 5835TIP3   OH217510   2.112   4.930   3.052
 5835TIP3    H117511   2.098   4.851   3.106
 5835TIP3    H217512   2.071   4.908   2.968
 5836TIP3   OH217513   5.230   1.501   0.399
 5836TIP3    H117514   5.303   1.508   0.461
 5836TIP3    H217515   5.157   1.543   0.445
 5837TIP3   OH217516   2.586   1.331   2.526
 5837TIP3    H117517   2.595   1.299   2.436
 5837TIP3    H217518   2.586   1.253   2.580
 5838TIP3   OH217519   0.221   4.595   4.080
 5838TIP3    H117520   0.130   4.611   4.105
 5838TIP3    H217521   0.215   4.537   4.004
 5839TIP3   OH217522   1.541   2.841   0.859
 5839TIP3    H117523   1.522   2.765   0.914
 5839TIP3    H217524   1.596   2.897   0.914
 5840TIP3   OH217525   2.152   3.761   2.233
 5840TIP3    H117526   2.157   3.697   2.304
 5840TIP3    H217527   2.088   3.724   2.173
 5841TIP3   OH217528   6.255   3.272   1.284
 5841TIP3    H117529   6.312   3.349   1.284
 5841TIP3    H217530   6.190   3.290   1.351
 5842TIP3   OH217531   4.068   5.465   2.530
 5842TIP3    H117532   4.145   5.409   2.519
 5842TIP3    H217533   3.994   5.411   2.500
 5843TIP3   OH217534   4.639   5.541   4.514
 5843TIP3    H117535   4.606   5.451   4.513
 5843TIP3    H217536   4.594   5.583   4.587
 5844TIP3   OH217537   0.494   2.158   5.169
 5844TIP3    H117538   0.537   2.141   5.253
 5844TIP3    H217539   0.486   2.073   5.128
 5845TIP3   OH217540   3.203   1.106   1.811
 5845TIP3    H117541   3.189   1.083   1.719
 5845TIP3    H217542   3.227   1.023   1.853
 5846TIP3   OH217543   3.940   1.784   1.477
 5846TIP3    H117544   3.996   1.755   1.550
 5846TIP3    H217545   3.989   1.759   1.399
 5847TIP3   OH217546   4.690   5.257   1.835
 5847TIP3    H117547   4.677   5.162   1.834
 5847TIP3    H217548   4.610   5.292   1.876
 5848TIP3   OH217549   5.049   4.512   3.815
 5848TIP3    H117550   5.119   4.483   3.756
 5848TIP3    H217551   5.089   4.583   3.866
 5849TIP3   OH217552   2.634   4.357   4.279
 5849TIP3    H117553   2.621   4.397   4.192
 5849TIP3    H217554   2.590   4.417   4.339
 5850TIP3   OH217555   2.794   4.128   0.252
 5850TIP3    H117556   2.744   4.201   0.288
 5850TIP3    H217557   2.729   4.063   0.226
 5851TIP3   OH217558   5.558   0.539   0.088
 5851TIP3    H117559   5.464   0.561   0.089
 5851TIP3    H217560   5.601   0.619   0.059
 5852TIP3   OH217561   0.128   0.908   1.522
 5852TIP3    H117562   0.193   0.841   1.544
 5852TIP3    H217563   0.054   0.889   1.580
 5853TIP3   OH217564   2.482   0.630   2.157
 5853TIP3    H117565   2.474   0.684   2.235
 5853TIP3    H217566   2.564   0.581   2.170
 5854TIP3   OH217567   4.638   3.058   2.835
 5854TIP3    H117568   4.731   3.048   2.858
 5854TIP3    H217569   4.600   3.103   2.911
 5855TIP3   OH217570   3.541   2.766   3.111
 5855TIP3    H117571   3.550   2.733   3.201
 5855TIP3    H217572   3.447   2.763   3.094
 5856TIP3   OH217573   3.341   1.916   1.933
 5856TIP3    H117574   3.418   1.905   1.876
 5856TIP3    H217575   3.367   1.876   2.016
 5857TIP3   OH217576   5.632   3.484   0.900
 5857TIP3    H117577   5.605   3.421   0.833
 5857TIP3    H217578   5.662   3.431   0.973
 5858TIP3   OH217579   0.707   2.144   3.045
 5858TIP3    H117580   0.718   2.162   2.952
 5858TIP3    H217581   0.793   2.161   3.084
 5859TIP3   OH217582   4.749   3.250   4.938
 5859TIP3    H117583   4.657   3.231   4.925
 5859TIP3    H217584   4.751   3.333   4.985
 5860TIP3   OH217585   1.616   0.596   0.119
 5860TIP3    H117586   1.590   0.506   0.103
 5860TIP3    H217587   1.534   0.643   0.135
 5861TIP3   OH217588   2.125   4.672   3.675
 5861TIP3    H117589   2.114   4.706   3.763
 5861TIP3    H217590   2.122   4.749   3.618
 5862TIP3   OH217591   5.542   2.353   1.027
 5862TIP3    H117592   5.617   2.362   0.968
 5862TIP3    H217593   5.513   2.263   1.015
 5863TIP3   OH217594   0.355   3.410   0.591
 5863TIP3    H117595   0.329   3.323   0.560
 5863TIP3    H217596   0.325   3.470   0.522
 5864TIP3   OH217597   3.305   2.014   0.595
 5864TIP3    H117598   3.215   2.044   0.606
 5864TIP3    H217599   3.298   1.938   0.538
 5865TIP3   OH217600   2.828   3.849   0.475
 5865TIP3    H117601   2.804   3.939   0.456
 5865TIP3    H217602   2.770   3.796   0.420
 5866TIP3   OH217603   0.783   5.305   0.018
 5866TIP3    H117604   0.706   5.326  -0.035
 5866TIP3    H217605   0.816   5.390   0.046
 5867TIP3   OH217606   1.310   0.134   1.661
 5867TIP3    H117607   1.289   0.122   1.568
 5867TIP3    H217608   1.405   0.144   1.663
 5868TIP3   OH217609   0.522   0.458   0.185
 5868TIP3    H117610   0.568   0.476   0.267
 5868TIP3    H217611   0.430   0.471   0.206
 5869TIP3   OH217612   4.631   1.772   2.131
 5869TIP3    H117613   4.725   1.761   2.113
 5869TIP3    H217614   4.601   1.830   2.061
 5870TIP3   OH217615   1.536   1.761   2.739
 5870TIP3    H117616   1.442   1.750   2.731
 5870TIP3    H217617   1.554   1.847   2.701
 5871TIP3   OH217618   1.295   2.012   4.238
 5871TIP3    H117619   1.247   2.094   4.241
 5871TIP3    H217620   1.243   1.951   4.291
 5872TIP3   OH217621   6.045   4.200   0.310
 5872TIP3    H117622   5.992   4.279   0.324
 5872TIP3    H217623   6.133   4.225   0.339
 5873TIP3   OH217624   4.297   5.727   5.119
 5873TIP3    H117625   4.367   5.673   5.080
 5873TIP3    H217626   4.343   5.799   5.161
 5874TIP3   OH217627   3.725   2.390   1.884
 5874TIP3    H117628   3.670   2.314   1.900
 5874TIP3    H217629   3.704   2.451   1.955
 5875TIP3   OH217630   3.172   5.671   1.113
 5875TIP3    H117631   3.198   5.607   1.047
 5875TIP3    H217632   3.128   5.740   1.064
 5876TIP3   OH217633   5.290   0.579   0.098
 5876TIP3    H117634   5.240   0.641   0.152
 5876TIP3    H217635   5.303   0.624   0.015
 5877TIP3   OH217636   3.874   4.518   3.213
 5877TIP3    H117637   3.833   4.595   3.254
 5877TIP3    H217638   3.849   4.445   3.270
 5878TIP3   OH217639   3.610   4.349   4.464
 5878TIP3    H117640   3.684   4.309   4.419
 5878TIP3    H217641   3.608   4.439   4.431
 5879TIP3   OH217642   0.531   4.825   2.235
 5879TIP3    H117643   0.510   4.737   2.202
 5879TIP3    H217644   0.626   4.824   2.246
 5880TIP3   OH217645   4.051   5.416   4.082
 5880TIP3    H117646   4.077   5.366   4.159
 5880TIP3    H217647   4.013   5.496   4.117
 5881TIP3   OH217648   4.412   4.254   2.291
 5881TIP3    H117649   4.361   4.193   2.345
 5881TIP3    H217650   4.460   4.308   2.355
 5882TIP3   OH217651   4.701   4.422   4.976
 5882TIP3    H117652   4.751   4.498   4.945
 5882TIP3    H217653   4.755   4.347   4.954
 5883TIP3   OH217654   0.828   1.330   3.870
 5883TIP3    H117655   0.796   1.248   3.908
 5883TIP3    H217656   0.903   1.353   3.925
 5884TIP3   OH217657   0.184   3.725   1.176
 5884TIP3    H117658   0.121   3.791   1.205
 5884TIP3    H217659   0.167   3.715   1.082
 5885TIP3   OH217660   1.471   0.244   1.148
 5885TIP3    H117661   1.492   0.325   1.193
 5885TIP3    H217662   1.483   0.176   1.215
 5886TIP3   OH217663   5.404   3.400   1.308
 5886TIP3    H117664   5.347   3.376   1.234
 5886TIP3    H217665   5.391   3.329   1.372
 5887TIP3   OH217666   6.311   2.960   4.123
 5887TIP3    H117667   6.366   2.889   4.089
 5887TIP3    H217668   6.221   2.929   4.109
 5888TIP3   OH217669   2.463   5.341   3.873
 5888TIP3    H117670   2.551   5.365   3.843
 5888TIP3    H217671   2.465   5.358   3.968
 5889TIP3   OH217672   2.768   3.514   2.511
 5889TIP3    H117673   2.730   3.536   2.596
 5889TIP3    H217674   2.742   3.423   2.496
 5890TIP3   OH217675   1.361   1.446   3.377
 5890TIP3    H117676   1.448   1.483   3.359
 5890TIP3    H217677   1.300   1.516   3.354
 5891TIP3   OH217678   0.420   0.944   3.415
 5891TIP3    H117679   0.426   0.863   3.466
 5891TIP3    H217680   0.482   0.932   3.343
 5892TIP3   OH217681   5.987   2.622   1.831
 5892TIP3    H117682   6.012   2.702   1.786
 5892TIP3    H217683   5.896   2.636   1.857
 5893TIP3   OH217684   1.883   2.530   0.746
 5893TIP3    H117685   1.920   2.575   0.670
 5893TIP3    H217686   1.957   2.520   0.806
 5894TIP3   OH217687   5.002   2.266   1.574
 5894TIP3    H117688   4.962   2.195   1.523
 5894TIP3    H217689   4.994   2.343   1.517
 5895TIP3   OH217690   4.958   1.408   2.112
 5895TIP3    H117691   4.947   1.317   2.085
 5895TIP3    H217692   4.919   1.459   2.041
 5896TIP3   OH217693   1.793   5.444   4.536
 5896TIP3    H117694   1.863   5.418   4.476
 5896TIP3    H217695   1.773   5.534   4.511
 5897TIP3   OH217696   4.051   2.858   3.495
 5897TIP3    H117697   4.050   2.876   3.589
 5897TIP3    H217698   4.101   2.777   3.486
 5898TIP3   OH217699   6.289   5.037   3.752
 5898TIP3    H117700   6.314   4.977   3.681
 5898TIP3    H217701   6.255   5.115   3.707
 5899TIP3   OH217702   5.516   3.609   1.968
 5899TIP3    H117703   5.474   3.552   1.903
 5899TIP3    H217704   5.474   3.694   1.957
 5900TIP3   OH217705   5.139   4.500   1.236
 5900TIP3    H117706   5.121   4.456   1.153
 5900TIP3    H217707   5.226   4.470   1.261
 5901TIP3   OH217708   0.669   0.331   0.445
 5901TIP3    H117709   0.739   0.353   0.507
 5901TIP3    H217710   0.590   0.328   0.498
 5902TIP3   OH217711   1.039   5.231   0.485
 5902TIP3    H117712   0.973   5.222   0.416
 5902TIP3    H217713   1.037   5.324   0.509
 5903TIP3   OH217714   0.529   1.437   3.347
 5903TIP3    H117715   0.466   1.433   3.419
 5903TIP3    H217716   0.527   1.349   3.310
 5904TIP3   OH217717   1.005   0.814   0.732
 5904TIP3    H117718   1.028   0.863   0.810
 5904TIP3    H217719   0.926   0.766   0.755
 5905TIP3   OH217720   5.308   1.985   3.434
 5905TIP3    H117721   5.223   1.942   3.425
 5905TIP3    H217722   5.288   2.079   3.431
 5906TIP3   OH217723   5.874   0.771   5.094
 5906TIP3    H117724   5.929   0.760   5.172
 5906TIP3    H217725   5.786   0.751   5.124
 5907TIP3   OH217726   2.633   3.964   2.902
 5907TIP3    H117727   2.714   3.924   2.933
 5907TIP3    H217728   2.594   4.002   2.981
 5908TIP3   OH217729   4.261   0.894   5.062
 5908TIP3    H117730   4.258   0.824   5.127
 5908TIP3    H217731   4.314   0.963   5.103
 5909TIP3   OH217732   0.980   2.565   4.545
 5909TIP3    H117733   1.010   2.567   4.454
 5909TIP3    H217734   1.061   2.558   4.596
 5910TIP3   OH217735   0.973   2.672   0.572
 5910TIP3    H117736   0.966   2.624   0.490
 5910TIP3    H217737   0.941   2.610   0.638
 5911TIP3   OH217738   0.278   1.662   4.952
 5911TIP3    H117739   0.288   1.746   4.908
 5911TIP3    H217740   0.184   1.649   4.957
 5912TIP3   OH217741   1.588   1.742   1.055
 5912TIP3    H117742   1.631   1.827   1.063
 5912TIP3    H217743   1.613   1.695   1.135
 5913TIP3   OH217744   0.188   1.388   3.030
 5913TIP3    H117745   0.146   1.395   3.115
 5913TIP3    H217746   0.150   1.459   2.978
 5914TIP3   OH217747   4.445   5.514   5.000
 5914TIP3    H117748   4.452   5.463   5.081
 5914TIP3    H217749   4.535   5.538   4.979
 5915TIP3   OH217750   1.776   2.119   5.113
 5915TIP3    H117751   1.799   2.124   5.021
 5915TIP3    H217752   1.842   2.062   5.152
 5916TIP3   OH217753   6.013   4.214   5.065
 5916TIP3    H117754   5.927   4.187   5.032
 5916TIP3    H217755   6.067   4.220   4.986
 5917TIP3   OH217756   1.562   3.624   4.180
 5917TIP3    H117757   1.566   3.716   4.206
 5917TIP3    H217758   1.514   3.625   4.097
 5918TIP3   OH217759   1.801   1.470   5.114
 5918TIP3    H117760   1.720   1.507   5.078
 5918TIP3    H217761   1.790   1.376   5.104
 5919TIP3   OH217762   5.939   2.255   0.684
 5919TIP3    H117763   5.895   2.187   0.633
 5919TIP3    H217764   6.014   2.211   0.724
 5920TIP3   OH217765   4.187   1.344   1.747
 5920TIP3    H117766   4.267   1.355   1.799
 5920TIP3    H217767   4.218   1.306   1.664
 5921TIP3   OH217768   2.115   3.299   0.783
 5921TIP3    H117769   2.196   3.331   0.743
 5921TIP3    H217770   2.045   3.333   0.728
 5922TIP3   OH217771   0.693   5.240   4.620
 5922TIP3    H117772   0.713   5.230   4.713
 5922TIP3    H217773   0.737   5.321   4.594
 5923TIP3   OH217774   1.645   4.727   0.238
 5923TIP3    H117775   1.666   4.675   0.316
 5923TIP3    H217776   1.627   4.663   0.170
 5924TIP3   OH217777   1.574   2.520   0.376
 5924TIP3    H117778   1.621   2.506   0.294
 5924TIP3    H217779   1.522   2.441   0.388
 5925TIP3   OH217780   0.846   4.510   2.807
 5925TIP3    H117781   0.857   4.420   2.838
 5925TIP3    H217782   0.858   4.504   2.713
 5926TIP3   OH217783   0.295   3.783   4.418
 5926TIP3    H117784   0.320   3.772   4.327
 5926TIP3    H217785   0.378   3.789   4.466
 5927TIP3   OH217786   5.919   2.334   1.179
 5927TIP3    H117787   5.940   2.381   1.259
 5927TIP3    H217788   5.830   2.363   1.156
 5928TIP3   OH217789   0.591   4.133   0.092
 5928TIP3    H117790   0.556   4.218   0.118
 5928TIP3    H217791   0.609   4.141  -0.001
 5929TIP3   OH217792   0.642   4.258   1.805
 5929TIP3    H117793   0.653   4.226   1.716
 5929TIP3    H217794   0.729   4.255   1.844
 5930TIP3   OH217795   0.425   3.336   1.518
 5930TIP3    H117796   0.363   3.281   1.566
 5930TIP3    H217797   0.464   3.393   1.585
 5931TIP3   OH217798   3.093   3.627   1.449
 5931TIP3    H117799   3.001   3.623   1.422
 5931TIP3    H217800   3.118   3.535   1.463
 5932TIP3   OH217801   4.920   4.273   5.158
 5932TIP3    H117802   4.960   4.309   5.080
 5932TIP3    H217803   4.903   4.181   5.136
 5933TIP3   OH217804   4.927   0.569   0.957
 5933TIP3    H117805   4.835   0.563   0.984
 5933TIP3    H217806   4.974   0.597   1.036
 5934TIP3   OH217807   0.418   5.500   4.443
 5934TIP3    H117808   0.459   5.522   4.359
 5934TIP3    H217809   0.491   5.502   4.506
 5935TIP3   OH217810   1.707   0.939   4.018
 5935TIP3    H117811   1.651   0.914   4.092
 5935TIP3    H217812   1.682   1.030   3.999
 5936TIP3   OH217813   1.082   1.367   4.017
 5936TIP3    H117814   1.155   1.428   4.025
 5936TIP3    H217815   1.123   1.281   4.006
 5937TIP3   OH217816   4.409   0.775   0.980
 5937TIP3    H117817   4.339   0.775   1.046
 5937TIP3    H217818   4.363   0.771   0.897
 5938TIP3   OH217819   2.820   4.917   0.013
 5938TIP3    H117820   2.901   4.927  -0.037
 5938TIP3    H217821   2.810   4.822   0.025
 5939TIP3   OH217822   6.174   2.615   1.533
 5939TIP3    H117823   6.088   2.586   1.502
 5939TIP3    H217824   6.196   2.689   1.476
 5940TIP3   OH217825   0.127   5.275   3.908
 5940TIP3    H117826   0.168   5.220   3.843
 5940TIP3    H217827   0.036   5.284   3.878
 5941TIP3   OH217828   4.292   4.410   1.276
 5941TIP3    H117829   4.388   4.411   1.272
 5941TIP3    H217830   4.264   4.414   1.185
 5942TIP3   OH217831   4.282   2.679   2.425
 5942TIP3    H117832   4.211   2.737   2.452
 5942TIP3    H217833   4.285   2.611   2.492
 5943TIP3   OH217834   0.049   3.643   3.220
 5943TIP3    H117835   0.124   3.697   3.199
 5943TIP3    H217836   0.079   3.587   3.292
 5944TIP3   OH217837   1.034   5.468   2.167
 5944TIP3    H117838   1.061   5.530   2.235
 5944TIP3    H217839   0.987   5.400   2.215
 5945TIP3   OH217840   2.014   2.425   1.724
 5945TIP3    H117841   2.020   2.498   1.785
 5945TIP3    H217842   2.101   2.387   1.723
 5946TIP3   OH217843   2.189   3.024   1.713
 5946TIP3    H117844   2.163   3.093   1.652
 5946TIP3    H217845   2.274   2.995   1.681
 5947TIP3   OH217846   3.636   4.824   1.355
 5947TIP3    H117847   3.545   4.848   1.369
 5947TIP3    H217848   3.686   4.888   1.405
 5948TIP3   OH217849   4.047   1.124   2.186
 5948TIP3    H117850   4.131   1.113   2.140
 5948TIP3    H217851   4.021   1.214   2.167
 5949TIP3   OH217852   6.036   3.250   4.976
 5949TIP3    H117853   6.102   3.305   4.934
 5949TIP3    H217854   5.955   3.270   4.930
 5950TIP3   OH217855   4.768   3.384   1.140
 5950TIP3    H117856   4.758   3.475   1.167
 5950TIP3    H217857   4.749   3.333   1.218
 5951TIP3   OH217858   5.786   4.325   3.594
 5951TIP3    H117859   5.792   4.378   3.674
 5951TIP3    H217860   5.877   4.312   3.567
 5952TIP3   OH217861   1.598   5.524   1.899
 5952TIP3    H117862   1.547   5.598   1.864
 5952TIP3    H217863   1.689   5.550   1.885
 5953TIP3   OH217864   0.475   3.470   3.058
 5953TIP3    H117865   0.522   3.391   3.082
 5953TIP3    H217866   0.526   3.509   2.988
 5954TIP3   OH217867   2.067   1.524   0.090
 5954TIP3    H117868   2.016   1.604   0.101
 5954TIP3    H217869   2.134   1.529   0.158
 5955TIP3   OH217870   1.742   2.025   4.455
 5955TIP3    H117871   1.780   1.937   4.446
 5955TIP3    H217872   1.688   2.020   4.533
 5956TIP3   OH217873   2.890   0.174   5.217
 5956TIP3    H117874   2.939   0.118   5.156
 5956TIP3    H217875   2.817   0.207   5.166
 5957TIP3   OH217876   0.326   0.517   0.372
 5957TIP3    H117877   0.329   0.609   0.349
 5957TIP3    H217878   0.306   0.516   0.466
 5958TIP3   OH217879   1.518   0.156   5.106
 5958TIP3    H117880   1.532   0.063   5.128
 5958TIP3    H217881   1.437   0.156   5.054
 5959TIP3   OH217882   5.019   0.136   0.506
 5959TIP3    H117883   5.055   0.092   0.429
 5959TIP3    H217884   4.925   0.122   0.500
 5960TIP3   OH217885   4.746   1.637   4.243
 5960TIP3    H117886   4.785   1.551   4.228
 5960TIP3    H217887   4.735   1.643   4.338
 5961TIP3   OH217888   1.752   2.861   2.595
 5961TIP3    H117889   1.830   2.820   2.558
 5961TIP3    H217890   1.710   2.904   2.521
 5962TIP3   OH217891   5.774   3.678   3.006
 5962TIP3    H117892   5.728   3.754   3.040
 5962TIP3    H217893   5.789   3.622   3.082
 5963TIP3   OH217894   0.635   3.772   1.558
 5963TIP3    H117895   0.641   3.824   1.639
 5963TIP3    H217896   0.579   3.698   1.581
 5964TIP3   OH217897   5.191   3.322   2.681
 5964TIP3    H117898   5.166   3.382   2.751
 5964TIP3    H217899   5.268   3.276   2.715
 5965TIP3   OH217900   4.912   2.540   1.175
 5965TIP3    H117901   4.862   2.589   1.110
 5965TIP3    H217902   4.987   2.505   1.127
 5966TIP3   OH217903   3.595   2.368   0.391
 5966TIP3    H117904   3.516   2.402   0.433
 5966TIP3    H217905   3.638   2.315   0.458
 5967TIP3   OH217906   0.706   3.898   3.911
 5967TIP3    H117907   0.730   3.989   3.897
 5967TIP3    H217908   0.761   3.849   3.850
 5968TIP3   OH217909   1.151   4.717   3.852
 5968TIP3    H117910   1.225   4.662   3.878
 5968TIP3    H217911   1.097   4.660   3.797
 5969TIP3   OH217912   4.710   2.811   4.732
 5969TIP3    H117913   4.745   2.751   4.798
 5969TIP3    H217914   4.766   2.798   4.656
 5970TIP3   OH217915   4.534   5.809   1.192
 5970TIP3    H117916   4.546   5.878   1.257
 5970TIP3    H217917   4.511   5.855   1.111
 5971TIP3   OH217918   1.549   4.258   4.650
 5971TIP3    H117919   1.559   4.351   4.629
 5971TIP3    H217920   1.495   4.223   4.579
 5972TIP3   OH217921   5.408   4.985   2.944
 5972TIP3    H117922   5.371   4.897   2.947
 5972TIP3    H217923   5.493   4.974   2.902
 5973TIP3   OH217924   6.051   4.268   3.515
 5973TIP3    H117925   6.069   4.345   3.462
 5973TIP3    H217926   6.132   4.216   3.510
 5974TIP3   OH217927   2.127   0.752   0.714
 5974TIP3    H117928   2.074   0.722   0.640
 5974TIP3    H217929   2.087   0.835   0.740
 5975TIP3   OH217930   2.515   1.067   5.014
 5975TIP3    H117931   2.532   1.004   5.083
 5975TIP3    H217932   2.546   1.025   4.934
 5976TIP3   OH217933   3.918   0.200   1.991
 5976TIP3    H117934   3.921   0.286   2.033
 5976TIP3    H217935   3.958   0.213   1.905
 5977TIP3   OH217936   0.055   2.965   4.769
 5977TIP3    H117937   0.092   3.043   4.728
 5977TIP3    H217938   0.057   2.984   4.863
 5978TIP3   OH217939   3.408   5.982   0.741
 5978TIP3    H117940   3.329   6.021   0.702
 5978TIP3    H217941   3.409   5.892   0.708
 5979TIP3   OH217942   3.675   5.044   4.179
 5979TIP3    H117943   3.676   5.131   4.139
 5979TIP3    H217944   3.594   5.003   4.147
 5980TIP3   OH217945   0.652   3.364   1.358
 5980TIP3    H117946   0.702   3.297   1.405
 5980TIP3    H217947   0.566   3.363   1.398
 5981TIP3   OH217948   0.811   4.006   3.386
 5981TIP3    H117949   0.831   4.081   3.329
 5981TIP3    H217950   0.880   4.008   3.453
 5982TIP3   OH217951   4.016   4.810   2.817
 5982TIP3    H117952   3.931   4.767   2.812
 5982TIP3    H217953   4.076   4.750   2.773
 5983TIP3   OH217954   4.404   1.698   0.508
 5983TIP3    H117955   4.403   1.791   0.484
 5983TIP3    H217956   4.492   1.683   0.542
 5984TIP3   OH217957   5.061   1.992   4.076
 5984TIP3    H117958   5.023   2.048   4.008
 5984TIP3    H217959   4.987   1.942   4.111
 5985TIP3   OH217960   0.365   3.173   3.375
 5985TIP3    H117961   0.301   3.126   3.322
 5985TIP3    H217962   0.438   3.190   3.315
 5986TIP3   OH217963   4.668   3.757   4.494
 5986TIP3    H117964   4.676   3.783   4.586
 5986TIP3    H217965   4.757   3.762   4.460
 5987TIP3   OH217966   1.412   4.862   2.973
 5987TIP3    H117967   1.341   4.914   3.010
 5987TIP3    H217968   1.463   4.834   3.049
 5988TIP3   OH217969   0.036   5.833   4.762
 5988TIP3    H117970   0.095   5.758   4.769
 5988TIP3    H217971   0.042   5.860   4.670
 5989TIP3   OH217972   5.334   4.446   2.587
 5989TIP3    H117973   5.303   4.468   2.675
 5989TIP3    H217974   5.286   4.367   2.563
 5990TIP3   OH217975   1.989   4.257   4.940
 5990TIP3    H117976   1.955   4.176   4.978
 5990TIP3    H217977   2.084   4.249   4.949
 5991TIP3   OH217978   2.486   1.050   0.324
 5991TIP3    H117979   2.567   1.101   0.321
 5991TIP3    H217980   2.508   0.974   0.378
 5992TIP3   OH217981   3.153   5.404   3.805
 5992TIP3    H117982   3.121   5.320   3.772
 5992TIP3    H217983   3.084   5.467   3.782
 5993TIP3   OH217984   0.561   5.771   1.839
 5993TIP3    H117985   0.565   5.675   1.844
 5993TIP3    H217986   0.631   5.795   1.779
 5994TIP3   OH217987   2.187   4.922   2.309
 5994TIP3    H117988   2.153   4.980   2.242
 5994TIP3    H217989   2.233   4.979   2.370
 5995TIP3   OH217990   5.142   5.632   1.046
 5995TIP3    H117991   5.102   5.646   0.960
 5995TIP3    H217992   5.236   5.629   1.028
 5996TIP3   OH217993   5.466   5.318   1.483
 5996TIP3    H117994   5.451   5.336   1.390
 5996TIP3    H217995   5.416   5.386   1.528
 5997TIP3   OH217996   3.416   0.154   3.535
 5997TIP3    H117997   3.422   0.225   3.599
 5997TIP3    H217998   3.328   0.164   3.497
 5998TIP3   OH217999   5.051   0.311   1.071
 5998TIP3    H118000   5.035   0.302   1.165
 5998TIP3    H218001   5.019   0.399   1.050
 5999TIP3   OH218002   2.539   4.083   4.674
 5999TIP3    H118003   2.484   4.151   4.714
 5999TIP3    H218004   2.628   4.107   4.698
 6000TIP3   OH218005   0.004   4.406   0.884
 6000TIP3    H118006   0.012   4.501   0.878
 6000TIP3    H218007   0.008   4.388   0.978
 6001TIP3   OH218008   2.446   1.979   1.912
 6001TIP3    H118009   2.354   1.963   1.890
 6001TIP3    H218010   2.473   1.901   1.960
 6002TIP3   OH218011   4.989   0.509   2.014
 6002TIP3    H118012   4.899   0.497   2.046
 6002TIP3    H218013   5.012   0.598   2.040
 6003TIP3   OH218014   1.016   3.496   2.813
 6003TIP3    H118015   0.975   3.411   2.799
 6003TIP3    H218016   1.109   3.482   2.794
 6004TIP3   OH218017   3.806   5.979   4.097
 6004TIP3    H118018   3.891   6.018   4.117
 6004TIP3    H218019   3.824   5.886   4.086
 6005TIP3   OH218020   0.100   0.963   4.905
 6005TIP3    H118021   0.018   0.999   4.870
 6005TIP3    H218022   0.094   0.978   4.999
 6006TIP3   OH218023   2.001   4.609   0.687
 6006TIP3    H118024   2.026   4.659   0.609
 6006TIP3    H218025   2.027   4.664   0.760
 6007TIP3   OH218026   5.142   1.802   3.295
 6007TIP3    H118027   5.195   1.843   3.227
 6007TIP3    H218028   5.055   1.793   3.256
 6008TIP3   OH218029   4.873   3.184   2.595
 6008TIP3    H118030   4.927   3.135   2.533
 6008TIP3    H218031   4.886   3.139   2.678
 6009TIP3   OH218032   0.874   4.804   2.871
 6009TIP3    H118033   0.822   4.795   2.791
 6009TIP3    H218034   0.948   4.745   2.858
 6010TIP3   OH218035   3.335   3.016   1.637
 6010TIP3    H118036   3.247   3.042   1.664
 6010TIP3    H218037   3.330   2.920   1.628
 6011TIP3   OH218038   3.375   5.546   4.975
 6011TIP3    H118039   3.324   5.469   4.949
 6011TIP3    H218040   3.328   5.582   5.050
 6012TIP3   OH218041   3.604   4.294   4.960
 6012TIP3    H118042   3.690   4.324   4.991
 6012TIP3    H218043   3.623   4.211   4.916
 6013TIP3   OH218044   4.269   2.028   1.932
 6013TIP3    H118045   4.342   2.015   1.871
 6013TIP3    H218046   4.308   2.014   2.019
 6014TIP3   OH218047   1.506   5.130   2.231
 6014TIP3    H118048   1.494   5.166   2.143
 6014TIP3    H218049   1.590   5.084   2.227
 6015TIP3   OH218050   4.282   4.975   2.492
 6015TIP3    H118051   4.281   4.958   2.587
 6015TIP3    H218052   4.267   4.889   2.453
 6016TIP3   OH218053   5.002   2.013   1.986
 6016TIP3    H118054   5.008   2.050   2.074
 6016TIP3    H218055   4.987   2.089   1.929
 6017TIP3   OH218056   1.089   2.173   2.886
 6017TIP3    H118057   1.179   2.175   2.852
 6017TIP3    H218058   1.075   2.260   2.922
 6018TIP3   OH218059   5.163   4.977   4.806
 6018TIP3    H118060   5.137   5.033   4.879
 6018TIP3    H218061   5.196   5.039   4.740
 6019TIP3   OH218062   1.445   5.529   2.321
 6019TIP3    H118063   1.377   5.469   2.351
 6019TIP3    H218064   1.527   5.490   2.350
 6020TIP3   OH218065   2.974   2.477   4.922
 6020TIP3    H118066   2.900   2.441   4.973
 6020TIP3    H218067   2.933   2.516   4.845
 6021TIP3   OH218068   2.895   4.988   1.061
 6021TIP3    H118069   2.887   5.049   0.987
 6021TIP3    H218070   2.883   5.043   1.138
 6022TIP3   OH218071   4.970   3.947   4.497
 6022TIP3    H118072   4.926   3.906   4.423
 6022TIP3    H218073   5.054   3.977   4.461
 6023TIP3   OH218074   4.485   1.664   5.003
 6023TIP3    H118075   4.461   1.650   4.911
 6023TIP3    H218076   4.403   1.690   5.045
 6024TIP3   OH218077   1.375   0.186   3.995
 6024TIP3    H118078   1.370   0.246   3.921
 6024TIP3    H218079   1.297   0.205   4.047
 6025TIP3   OH218080   4.005   5.549   3.399
 6025TIP3    H118081   4.100   5.539   3.395
 6025TIP3    H218082   3.989   5.592   3.483
 6026TIP3   OH218083   0.546   1.526   0.291
 6026TIP3    H118084   0.529   1.434   0.312
 6026TIP3    H218085   0.612   1.523   0.222
 6027TIP3   OH218086   1.906   5.073   4.787
 6027TIP3    H118087   1.993   5.052   4.819
 6027TIP3    H218088   1.890   5.162   4.817
 6028TIP3   OH218089   1.069   4.139   0.452
 6028TIP3    H118090   1.006   4.138   0.380
 6028TIP3    H218091   1.068   4.230   0.484
 6029TIP3   OH218092   0.863   0.622   2.723
 6029TIP3    H118093   0.810   0.556   2.766
 6029TIP3    H218094   0.919   0.573   2.662
 6030TIP3   OH218095   5.908   1.307   0.111
 6030TIP3    H118096   5.920   1.275   0.022
 6030TIP3    H218097   5.944   1.238   0.167
 6031TIP3   OH218098   1.048   5.752   5.102
 6031TIP3    H118099   1.135   5.775   5.068
 6031TIP3    H218100   1.051   5.775   5.195
 6032TIP3   OH218101   3.595   2.817   3.369
 6032TIP3    H118102   3.599   2.733   3.413
 6032TIP3    H218103   3.530   2.867   3.418
 6033TIP3   OH218104   5.777   1.352   1.025
 6033TIP3    H118105   5.780   1.387   1.114
 6033TIP3    H218106   5.705   1.288   1.027
 6034TIP3   OH218107   0.004   0.500   4.315
 6034TIP3    H118108   0.020   0.456   4.231
 6034TIP3    H218109   0.073   0.566   4.321
 6035TIP3   OH218110   0.704   2.489   4.043
 6035TIP3    H118111   0.611   2.481   4.065
 6035TIP3    H218112   0.718   2.583   4.034
 6036TIP3   OH218113   4.008   1.456   1.050
 6036TIP3    H118114   4.062   1.438   1.127
 6036TIP3    H218115   3.984   1.548   1.058
 6037TIP3   OH218116   3.585   1.361   4.081
 6037TIP3    H118117   3.601   1.338   3.989
 6037TIP3    H218118   3.518   1.299   4.110
 6038TIP3   OH218119   0.540   3.193   3.116
 6038TIP3    H118120   0.590   3.113   3.102
 6038TIP3    H218121   0.453   3.174   3.080
 6039TIP3   OH218122   2.580   5.016   0.707
 6039TIP3    H118123   2.624   4.933   0.725
 6039TIP3    H218124   2.646   5.069   0.663
 6040TIP3   OH218125   4.346   3.383   0.102
 6040TIP3    H118126   4.263   3.347   0.071
 6040TIP3    H218127   4.329   3.408   0.193
 6041TIP3   OH218128   1.467   3.599   3.635
 6041TIP3    H118129   1.480   3.551   3.553
 6041TIP3    H218130   1.411   3.673   3.611
 6042TIP3   OH218131   4.272   0.271   4.777
 6042TIP3    H118132   4.257   0.346   4.835
 6042TIP3    H218133   4.319   0.208   4.832
 6043TIP3   OH218134   0.700   3.786   0.582
 6043TIP3    H118135   0.630   3.843   0.613
 6043TIP3    H218136   0.756   3.773   0.659
 6044TIP3   OH218137   2.052   5.331   1.570
 6044TIP3    H118138   2.088   5.288   1.647
 6044TIP3    H218139   1.961   5.350   1.593
 6045TIP3   OH218140   2.275   5.417   0.498
 6045TIP3    H118141   2.222   5.360   0.442
 6045TIP3    H218142   2.315   5.479   0.438
 6046TIP3   OH218143   1.914   5.161   5.087
 6046TIP3    H118144   1.995   5.212   5.075
 6046TIP3    H218145   1.881   5.189   5.172
 6047TIP3   OH218146   2.539   2.166   2.871
 6047TIP3    H118147   2.606   2.234   2.876
 6047TIP3    H218148   2.520   2.158   2.778
 6048TIP3   OH218149   3.043   3.187   2.983
 6048TIP3    H118150   3.033   3.282   2.980
 6048TIP3    H218151   3.028   3.158   2.894
 6049TIP3   OH218152   5.467   1.798   4.022
 6049TIP3    H118153   5.561   1.794   4.038
 6049TIP3    H218154   5.439   1.880   4.062
 6050TIP3   OH218155   2.063   3.428   4.180
 6050TIP3    H118156   2.029   3.514   4.157
 6050TIP3    H218157   2.147   3.446   4.223
 6051TIP3   OH218158   2.999   1.659   1.700
 6051TIP3    H118159   3.035   1.649   1.788
 6051TIP3    H218160   2.988   1.754   1.690
 6052TIP3   OH218161   3.350   4.484   0.798
 6052TIP3    H118162   3.335   4.422   0.727
 6052TIP3    H218163   3.324   4.437   0.877
 6053TIP3   OH218164   5.179   3.697   5.090
 6053TIP3    H118165   5.186   3.602   5.080
 6053TIP3    H218166   5.087   3.716   5.070
 6054TIP3   OH218167   1.816   4.186   2.675
 6054TIP3    H118168   1.911   4.184   2.680
 6054TIP3    H218169   1.794   4.275   2.648
 6055TIP3   OH218170   2.135   1.004   4.116
 6055TIP3    H118171   2.205   0.992   4.180
 6055TIP3    H218172   2.054   0.989   4.165
 6056TIP3   OH218173   3.094   3.409   4.818
 6056TIP3    H118174   3.075   3.396   4.911
 6056TIP3    H218175   3.022   3.463   4.786
 6057TIP3   OH218176   5.974   2.344   3.148
 6057TIP3    H118177   5.984   2.302   3.063
 6057TIP3    H218178   5.894   2.306   3.184
 6058TIP3   OH218179   4.104   1.381   3.637
 6058TIP3    H118180   4.067   1.457   3.591
 6058TIP3    H218181   4.062   1.305   3.596
 6059TIP3   OH218182   4.791   3.307   1.730
 6059TIP3    H118183   4.796   3.222   1.774
 6059TIP3    H218184   4.708   3.344   1.760
 6060TIP3   OH218185   0.684   5.809   3.249
 6060TIP3    H118186   0.660   5.874   3.183
 6060TIP3    H218187   0.765   5.771   3.216
 6061TIP3   OH218188   2.191   5.417   1.101
 6061TIP3    H118189   2.265   5.359   1.117
 6061TIP3    H218190   2.114   5.362   1.113
 6062TIP3   OH218191   0.215   0.606   2.523
 6062TIP3    H118192   0.266   0.596   2.604
 6062TIP3    H218193   0.255   0.543   2.463
 6063TIP3   OH218194   4.964   2.929   0.563
 6063TIP3    H118195   4.886   2.949   0.511
 6063TIP3    H218196   4.950   2.839   0.594
 6064TIP3   OH218197   0.699   0.146   4.833
 6064TIP3    H118198   0.619   0.187   4.865
 6064TIP3    H218199   0.737   0.210   4.774
 6065TIP3   OH218200   2.176   3.300   2.206
 6065TIP3    H118201   2.162   3.205   2.206
 6065TIP3    H218202   2.092   3.337   2.179
 6066TIP3   OH218203   3.887   2.263   3.563
 6066TIP3    H118204   3.891   2.175   3.599
 6066TIP3    H218205   3.887   2.251   3.468
 6067TIP3   OH218206   0.433   4.933   0.091
 6067TIP3    H118207   0.371   5.004   0.075
 6067TIP3    H218208   0.435   4.883   0.010
 6068TIP3   OH218209   0.027   3.210   4.061
 6068TIP3    H118210   0.005   3.118   4.051
 6068TIP3    H218211   0.119   3.216   4.036
 6069TIP3   OH218212   5.868   3.532   3.218
 6069TIP3    H118213   5.956   3.499   3.199
 6069TIP3    H218214   5.841   3.486   3.297
 6070TIP3   OH218215   1.716   1.215   0.279
 6070TIP3    H118216   1.763   1.136   0.304
 6070TIP3    H218217   1.700   1.205   0.185
 6071TIP3   OH218218   3.984   3.824   4.129
 6071TIP3    H118219   3.951   3.875   4.203
 6071TIP3    H218220   4.023   3.888   4.070
 6072TIP3   OH218221   2.663   1.650   4.129
 6072TIP3    H118222   2.643   1.687   4.043
 6072TIP3    H218223   2.634   1.559   4.122
 6073TIP3   OH218224   4.354   3.129   0.704
 6073TIP3    H118225   4.320   3.040   0.708
 6073TIP3    H218226   4.278   3.183   0.683
 6074TIP3   OH218227   2.975   3.944   1.209
 6074TIP3    H118228   2.914   3.905   1.146
 6074TIP3    H218229   2.973   4.038   1.189
 6075TIP3   OH218230   3.291   3.931   2.492
 6075TIP3    H118231   3.334   3.850   2.519
 6075TIP3    H218232   3.360   3.997   2.496
 6076TIP3   OH218233   6.196   0.901   3.771
 6076TIP3    H118234   6.107   0.872   3.791
 6076TIP3    H218235   6.192   0.927   3.679
 6077TIP3   OH218236   3.369   5.180   0.986
 6077TIP3    H118237   3.275   5.166   0.980
 6077TIP3    H218238   3.380   5.275   0.979
 6078TIP3   OH218239   4.414   3.054   2.116
 6078TIP3    H118240   4.400   2.960   2.125
 6078TIP3    H218241   4.330   3.093   2.141
 6079TIP3   OH218242   4.296   1.839   1.520
 6079TIP3    H118243   4.258   1.761   1.478
 6079TIP3    H218244   4.239   1.911   1.492
 6080TIP3   OH218245   5.504   2.323   0.276
 6080TIP3    H118246   5.595   2.294   0.285
 6080TIP3    H218247   5.455   2.241   0.265
 6081TIP3   OH218248   1.140   4.651   3.129
 6081TIP3    H118249   1.059   4.690   3.162
 6081TIP3    H218250   1.173   4.599   3.203
 6082TIP3   OH218251   3.955   2.075   0.039
 6082TIP3    H118252   4.024   2.115  -0.013
 6082TIP3    H218253   3.984   2.084   0.129
 6083TIP3   OH218254   0.905   4.220   0.219
 6083TIP3    H118255   0.923   4.314   0.209
 6083TIP3    H218256   0.866   4.195   0.135
 6084TIP3   OH218257   1.152   0.474   0.298
 6084TIP3    H118258   1.194   0.388   0.298
 6084TIP3    H218259   1.224   0.536   0.295
 6085TIP3   OH218260   6.163   5.985   3.923
 6085TIP3    H118261   6.226   6.016   3.988
 6085TIP3    H218262   6.217   5.956   3.849
 6086TIP3   OH218263   4.131   5.158   2.914
 6086TIP3    H118264   4.078   5.152   2.834
 6086TIP3    H218265   4.072   5.194   2.980
 6087TIP3   OH218266   0.971   3.137   2.445
 6087TIP3    H118267   0.987   3.044   2.435
 6087TIP3    H218268   1.051   3.179   2.415
 6088TIP3   OH218269   2.507   2.939   1.132
 6088TIP3    H118270   2.442   2.898   1.074
 6088TIP3    H218271   2.522   3.025   1.094
 6089TIP3   OH218272   4.720   5.480   4.952
 6089TIP3    H118273   4.749   5.501   5.041
 6089TIP3    H218274   4.759   5.394   4.934
 6090TIP3   OH218275   2.685   5.648   3.373
 6090TIP3    H118276   2.730   5.582   3.321
 6090TIP3    H218277   2.647   5.708   3.308
 6091TIP3   OH218278   2.402   5.024   4.621
 6091TIP3    H118279   2.480   5.023   4.566
 6091TIP3    H218280   2.332   5.053   4.563
 6092TIP3   OH218281   2.931   0.859   1.858
 6092TIP3    H118282   2.848   0.884   1.899
 6092TIP3    H218283   2.912   0.778   1.812
 6093TIP3   OH218284   4.986   1.843   2.910
 6093TIP3    H118285   4.920   1.775   2.893
 6093TIP3    H218286   4.936   1.916   2.947
 6094TIP3   OH218287   6.146   3.634   4.557
 6094TIP3    H118288   6.202   3.671   4.488
 6094TIP3    H218289   6.060   3.673   4.541
 6095TIP3   OH218290   2.514   5.795   3.761
 6095TIP3    H118291   2.452   5.810   3.690
 6095TIP3    H218292   2.578   5.733   3.725
 6096TIP3   OH218293   6.292   1.765   1.837
 6096TIP3    H118294   6.349   1.793   1.765
 6096TIP3    H218295   6.264   1.676   1.812
 6097TIP3   OH218296   3.991   5.730   0.163
 6097TIP3    H118297   3.957   5.817   0.182
 6097TIP3    H218298   4.086   5.742   0.154
 6098TIP3   OH218299   1.194   0.763   1.067
 6098TIP3    H118300   1.203   0.780   0.973
 6098TIP3    H218301   1.220   0.845   1.109
 6099TIP3   OH218302   5.350   4.144   3.132
 6099TIP3    H118303   5.439   4.128   3.164
 6099TIP3    H218304   5.352   4.115   3.041
 6100TIP3   OH218305   1.966   0.793   1.155
 6100TIP3    H118306   2.023   0.740   1.100
 6100TIP3    H218307   1.925   0.731   1.215
 6101TIP3   OH218308   2.902   5.768   2.741
 6101TIP3    H118309   2.981   5.780   2.688
 6101TIP3    H218310   2.830   5.784   2.681
 6102TIP3   OH218311   2.148   1.459   1.831
 6102TIP3    H118312   2.194   1.382   1.865
 6102TIP3    H218313   2.113   1.502   1.908
 6103TIP3   OH218314   3.780   0.552   4.677
 6103TIP3    H118315   3.719   0.617   4.640
 6103TIP3    H218316   3.864   0.573   4.636
 6104TIP3   OH218317   1.025   3.816   1.356
 6104TIP3    H118318   0.956   3.754   1.380
 6104TIP3    H218319   1.105   3.763   1.351
 6105TIP3   OH218320   3.318   1.363   2.401
 6105TIP3    H118321   3.386   1.300   2.422
 6105TIP3    H218322   3.268   1.373   2.482
 6106TIP3   OH218323   0.659   3.231   1.732
 6106TIP3    H118324   0.587   3.205   1.790
 6106TIP3    H218325   0.691   3.313   1.770
 6107TIP3   OH218326   5.048   2.924   4.891
 6107TIP3    H118327   5.090   2.844   4.924
 6107TIP3    H218328   4.967   2.894   4.851
 6108TIP3   OH218329   0.201   1.680   2.783
 6108TIP3    H118330   0.159   1.709   2.864
 6108TIP3    H218331   0.217   1.760   2.734
 6109TIP3   OH218332   6.012   5.411   2.417
 6109TIP3    H118333   5.971   5.433   2.333
 6109TIP3    H218334   5.982   5.479   2.477
 6110TIP3   OH218335   3.662   2.212   4.514
 6110TIP3    H118336   3.756   2.227   4.524
 6110TIP3    H218337   3.647   2.218   4.419
 6111TIP3   OH218338   4.313   5.450   4.373
 6111TIP3    H118339   4.244   5.384   4.371
 6111TIP3    H218340   4.379   5.417   4.311
 6112TIP3   OH218341   0.730   4.678   4.962
 6112TIP3    H118342   0.663   4.609   4.958
 6112TIP3    H218343   0.719   4.716   5.050
 6113TIP3   OH218344   1.622   1.844   0.270
 6113TIP3    H118345   1.702   1.885   0.302
 6113TIP3    H218346   1.650   1.756   0.243
 6114TIP3   OH218347   0.994   2.422   2.894
 6114TIP3    H118348   0.906   2.434   2.859
 6114TIP3    H218349   1.052   2.454   2.825
 6115TIP3   OH218350   0.754   2.356   3.796
 6115TIP3    H118351   0.665   2.322   3.796
 6115TIP3    H218352   0.757   2.417   3.870
 6116TIP3   OH218353   0.629   0.878   3.668
 6116TIP3    H118354   0.559   0.817   3.695
 6116TIP3    H218355   0.702   0.821   3.644
 6117TIP3   OH218356   0.503   2.369   4.848
 6117TIP3    H118357   0.555   2.449   4.848
 6117TIP3    H218358   0.562   2.302   4.882
 6118TIP3   OH218359   6.178   0.239   0.373
 6118TIP3    H118360   6.181   0.333   0.355
 6118TIP3    H218361   6.270   0.211   0.369
 6119TIP3   OH218362   1.873   3.674   4.408
 6119TIP3    H118363   1.836   3.722   4.483
 6119TIP3    H218364   1.885   3.740   4.340
 6120TIP3   OH218365   4.503   3.978   3.719
 6120TIP3    H118366   4.425   3.935   3.753
 6120TIP3    H218367   4.483   4.072   3.723
 6121TIP3   OH218368   2.995   3.011   4.143
 6121TIP3    H118369   2.907   2.974   4.143
 6121TIP3    H218370   3.050   2.943   4.182
 6122TIP3   OH218371   2.818   5.482   3.972
 6122TIP3    H118372   2.889   5.525   3.923
 6122TIP3    H218373   2.773   5.554   4.016
 6123TIP3   OH218374   3.113   3.094   3.242
 6123TIP3    H118375   3.083   3.141   3.164
 6123TIP3    H218376   3.094   3.002   3.223
 6124TIP3   OH218377   3.704   2.890   0.014
 6124TIP3    H118378   3.793   2.915  -0.010
 6124TIP3    H218379   3.714   2.806   0.060
 6125TIP3   OH218380   1.162   1.865   2.452
 6125TIP3    H118381   1.076   1.823   2.454
 6125TIP3    H218382   1.157   1.932   2.521
 6126TIP3   OH218383   5.649   2.709   4.039
 6126TIP3    H118384   5.664   2.614   4.040
 6126TIP3    H218385   5.580   2.722   4.104
 6127TIP3   OH218386   5.160   0.757   0.274
 6127TIP3    H118387   5.147   0.720   0.361
 6127TIP3    H218388   5.224   0.827   0.287
 6128TIP3   OH218389   4.556   3.540   0.007
 6128TIP3    H118390   4.611   3.473  -0.034
 6128TIP3    H218391   4.495   3.490   0.062
 6129TIP3   OH218392   3.646   0.260   3.747
 6129TIP3    H118393   3.616   0.243   3.836
 6129TIP3    H218394   3.575   0.309   3.706
 6130TIP3   OH218395   2.183   3.592   0.922
 6130TIP3    H118396   2.109   3.651   0.906
 6130TIP3    H218397   2.234   3.595   0.841
 6131TIP3   OH218398   0.443   3.607   2.657
 6131TIP3    H118399   0.352   3.579   2.658
 6131TIP3    H218400   0.440   3.702   2.668
 6132TIP3   OH218401   4.419   1.301   1.975
 6132TIP3    H118402   4.377   1.275   2.057
 6132TIP3    H218403   4.409   1.396   1.973
 6133TIP3   OH218404   0.112   4.672   1.558
 6133TIP3    H118405   0.098   4.760   1.524
 6133TIP3    H218406   0.056   4.667   1.635
 6134TIP3   OH218407   1.896   1.926   2.627
 6134TIP3    H118408   1.890   1.831   2.622
 6134TIP3    H218409   1.950   1.951   2.552
 6135TIP3   OH218410   0.546   2.523   1.107
 6135TIP3    H118411   0.475   2.562   1.157
 6135TIP3    H218412   0.570   2.591   1.043
 6136TIP3   OH218413   5.109   0.302   4.633
 6136TIP3    H118414   5.160   0.222   4.640
 6136TIP3    H218415   5.123   0.347   4.716
 6137TIP3   OH218416   2.977   0.213   1.241
 6137TIP3    H118417   2.994   0.243   1.330
 6137TIP3    H218418   2.897   0.259   1.215
 6138TIP3   OH218419   2.029   5.122   0.878
 6138TIP3    H118420   2.108   5.124   0.824
 6138TIP3    H218421   1.968   5.180   0.833
 6139TIP3   OH218422   6.101   5.497   0.924
 6139TIP3    H118423   6.149   5.425   0.882
 6139TIP3    H218424   6.166   5.566   0.935
 6140TIP3   OH218425   5.234   3.874   2.825
 6140TIP3    H118426   5.263   3.960   2.796
 6140TIP3    H218427   5.222   3.824   2.744
 6141TIP3   OH218428   3.097   2.849   3.492
 6141TIP3    H118429   3.154   2.773   3.486
 6141TIP3    H218430   3.051   2.851   3.408
 6142TIP3   OH218431   5.392   0.823   1.498
 6142TIP3    H118432   5.344   0.746   1.528
 6142TIP3    H218433   5.473   0.821   1.549
 6143TIP3   OH218434   3.205   4.078   3.429
 6143TIP3    H118435   3.186   4.149   3.490
 6143TIP3    H218436   3.152   4.098   3.352
 6144TIP3   OH218437   6.100   1.724   0.245
 6144TIP3    H118438   6.043   1.656   0.210
 6144TIP3    H218439   6.178   1.720   0.190
 6145TIP3   OH218440   5.493   0.547   3.598
 6145TIP3    H118441   5.466   0.616   3.538
 6145TIP3    H218442   5.434   0.554   3.672
 6146TIP3   OH218443   4.787   3.203   0.731
 6146TIP3    H118444   4.866   3.194   0.785
 6146TIP3    H218445   4.719   3.233   0.791
 6147TIP3   OH218446   3.112   4.352   4.232
 6147TIP3    H118447   3.083   4.371   4.142
 6147TIP3    H218448   3.083   4.262   4.247
 6148TIP3   OH218449   5.770   4.425   4.530
 6148TIP3    H118450   5.858   4.462   4.521
 6148TIP3    H218451   5.755   4.377   4.449
 6149TIP3   OH218452   4.112   4.875   1.555
 6149TIP3    H118453   4.075   4.862   1.468
 6149TIP3    H218454   4.207   4.878   1.541
 6150TIP3   OH218455   0.011   2.535   3.963
 6150TIP3    H118456   0.053   2.592   3.898
 6150TIP3    H218457   0.027   2.577   4.047
 6151TIP3   OH218458   5.961   0.048   3.065
 6151TIP3    H118459   6.035   0.100   3.032
 6151TIP3    H218460   5.996  -0.041   3.073
 6152TIP3   OH218461   2.687   1.902   2.089
 6152TIP3    H118462   2.782   1.912   2.086
 6152TIP3    H218463   2.668   1.832   2.027
 6153TIP3   OH218464   2.166   1.446   2.901
 6153TIP3    H118465   2.207   1.513   2.846
 6153TIP3    H218466   2.201   1.364   2.869
 6154TIP3   OH218467   3.933   3.949   0.033
 6154TIP3    H118468   3.961   3.933  -0.057
 6154TIP3    H218469   3.875   3.876   0.054
 6155TIP3   OH218470   2.304   2.970  -0.003
 6155TIP3    H118471   2.257   3.019   0.064
 6155TIP3    H218472   2.384   3.021  -0.017
 6156TIP3   OH218473   3.334   2.164   1.325
 6156TIP3    H118474   3.242   2.171   1.299
 6156TIP3    H218475   3.331   2.158   1.421
 6157TIP3   OH218476   4.163   2.310   2.231
 6157TIP3    H118477   4.244   2.259   2.231
 6157TIP3    H218478   4.094   2.245   2.239
 6158TIP3   OH218479   4.767   2.857   4.071
 6158TIP3    H118480   4.696   2.917   4.095
 6158TIP3    H218481   4.771   2.863   3.975
 6159TIP3   OH218482   5.332   3.388   1.041
 6159TIP3    H118483   5.342   3.300   1.006
 6159TIP3    H218484   5.264   3.428   0.988
 6160TIP3   OH218485   1.513   2.898   0.605
 6160TIP3    H118486   1.498   2.820   0.551
 6160TIP3    H218487   1.512   2.864   0.695
 6161TIP3   OH218488   5.930   0.992   3.674
 6161TIP3    H118489   5.955   0.981   3.582
 6161TIP3    H218490   5.939   1.086   3.690
 6162TIP3   OH218491   3.752   5.351   2.680
 6162TIP3    H118492   3.804   5.351   2.600
 6162TIP3    H218493   3.662   5.363   2.650
 6163TIP3   OH218494   4.592   1.460   4.501
 6163TIP3    H118495   4.589   1.554   4.519
 6163TIP3    H218496   4.544   1.450   4.419
 6164TIP3   OH218497   0.739   5.485   2.836
 6164TIP3    H118498   0.705   5.569   2.867
 6164TIP3    H218499   0.714   5.481   2.744
 6165TIP3   OH218500   0.732   3.552   4.503
 6165TIP3    H118501   0.810   3.542   4.558
 6165TIP3    H218502   0.667   3.495   4.543
 6166TIP3   OH218503   5.168   0.379   2.175
 6166TIP3    H118504   5.246   0.355   2.125
 6166TIP3    H218505   5.119   0.436   2.116
 6167TIP3   OH218506   4.924   4.011   3.140
 6167TIP3    H118507   4.989   4.024   3.209
 6167TIP3    H218508   4.842   3.995   3.187
 6168TIP3   OH218509   4.244   2.888   1.252
 6168TIP3    H118510   4.170   2.860   1.198
 6168TIP3    H218511   4.215   2.971   1.291
 6169TIP3   OH218512   1.901   0.054   4.438
 6169TIP3    H118513   1.992   0.036   4.462
 6169TIP3    H218514   1.865   0.100   4.514
 6170TIP3   OH218515   4.462   0.262   1.662
 6170TIP3    H118516   4.502   0.218   1.737
 6170TIP3    H218517   4.408   0.194   1.621
 6171TIP3   OH218518   3.853   5.703   3.240
 6171TIP3    H118519   3.885   5.626   3.286
 6171TIP3    H218520   3.927   5.763   3.239
 6172TIP3   OH218521   6.137   0.157   2.667
 6172TIP3    H118522   6.056   0.109   2.685
 6172TIP3    H218523   6.131   0.180   2.574
 6173TIP3   OH218524   6.154   1.751   2.209
 6173TIP3    H118525   6.231   1.697   2.191
 6173TIP3    H218526   6.140   1.800   2.128
 6174TIP3   OH218527   4.733   0.200   3.209
 6174TIP3    H118528   4.646   0.200   3.171
 6174TIP3    H218529   4.738   0.119   3.260
 6175TIP3   OH218530   2.805   1.956   2.446
 6175TIP3    H118531   2.756   1.945   2.364
 6175TIP3    H218532   2.748   1.918   2.513
 6176TIP3   OH218533   0.299   5.702   4.769
 6176TIP3    H118534   0.367   5.645   4.732
 6176TIP3    H218535   0.339   5.739   4.848
 6177TIP3   OH218536   3.558   1.572   5.107
 6177TIP3    H118537   3.479   1.590   5.057
 6177TIP3    H218538   3.527   1.537   5.190
 6178TIP3   OH218539   5.849   1.510   4.778
 6178TIP3    H118540   5.775   1.507   4.717
 6178TIP3    H218541   5.842   1.596   4.820
 6179TIP3   OH218542   4.642   2.035   4.280
 6179TIP3    H118543   4.606   2.120   4.256
 6179TIP3    H218544   4.566   1.978   4.286
 6180TIP3   OH218545   4.399   2.268   4.666
 6180TIP3    H118546   4.377   2.358   4.691
 6180TIP3    H218547   4.400   2.219   4.748
 6181TIP3   OH218548   2.664   1.695   4.948
 6181TIP3    H118549   2.627   1.613   4.980
 6181TIP3    H218550   2.587   1.747   4.923
 6182TIP3   OH218551   1.443   3.743   1.944
 6182TIP3    H118552   1.372   3.679   1.952
 6182TIP3    H218553   1.510   3.696   1.894
 6183TIP3   OH218554   1.704   4.076   4.738
 6183TIP3    H118555   1.634   4.122   4.693
 6183TIP3    H218556   1.714   4.123   4.822
 6184TIP3   OH218557   3.589   3.646   3.651
 6184TIP3    H118558   3.507   3.598   3.651
 6184TIP3    H218559   3.574   3.719   3.712
 6185TIP3   OH218560   3.990   1.388   2.113
 6185TIP3    H118561   3.994   1.472   2.067
 6185TIP3    H218562   3.931   1.334   2.060
 6186TIP3   OH218563   5.742   5.253   1.018
 6186TIP3    H118564   5.765   5.194   0.946
 6186TIP3    H218565   5.809   5.321   1.016
 6187TIP3   OH218566   1.956   2.246   0.441
 6187TIP3    H118567   2.011   2.324   0.448
 6187TIP3    H218568   1.868   2.276   0.464
 6188TIP3   OH218569   0.763   5.682   2.567
 6188TIP3    H118570   0.671   5.702   2.587
 6188TIP3    H218571   0.787   5.746   2.501
 6189TIP3   OH218572   3.286   0.725   0.687
 6189TIP3    H118573   3.316   0.797   0.742
 6189TIP3    H218574   3.324   0.647   0.727
 6190TIP3   OH218575   2.144   5.943   3.462
 6190TIP3    H118576   2.091   6.002   3.517
 6190TIP3    H218577   2.080   5.888   3.418
 6191TIP3   OH218578   1.745   1.918   3.543
 6191TIP3    H118579   1.704   1.999   3.513
 6191TIP3    H218580   1.822   1.947   3.593
 6192TIP3   OH218581   4.819   0.081   4.608
 6192TIP3    H118582   4.874   0.105   4.683
 6192TIP3    H218583   4.729   0.087   4.641
 6193TIP3   OH218584   1.246   4.735   0.091
 6193TIP3    H118585   1.266   4.812   0.145
 6193TIP3    H218586   1.327   4.717   0.044
 6194TIP3   OH218587   1.643   1.459   0.328
 6194TIP3    H118588   1.722   1.495   0.368
 6194TIP3    H218589   1.663   1.367   0.312
 6195TIP3   OH218590   2.393   4.771   0.502
 6195TIP3    H118591   2.344   4.840   0.456
 6195TIP3    H218592   2.398   4.802   0.593
 6196TIP3   OH218593   1.659   0.793   0.726
 6196TIP3    H118594   1.701   0.808   0.810
 6196TIP3    H218595   1.566   0.797   0.744
 6197TIP3   OH218596   0.070   5.223   4.174
 6197TIP3    H118597   0.127   5.221   4.251
 6197TIP3    H218598   0.128   5.249   4.102
 6198TIP3   OH218599   4.680   1.199   1.876
 6198TIP3    H118600   4.726   1.166   1.953
 6198TIP3    H218601   4.597   1.233   1.910
 6199TIP3   OH218602   4.462   4.249   3.693
 6199TIP3    H118603   4.468   4.292   3.608
 6199TIP3    H218604   4.531   4.289   3.746
 6200TIP3   OH218605   0.121   0.176   3.931
 6200TIP3    H118606   0.163   0.257   3.901
 6200TIP3    H218607   0.112   0.123   3.852
 6201TIP3   OH218608   1.114   4.212   3.327
 6201TIP3    H118609   1.029   4.222   3.369
 6201TIP3    H218610   1.134   4.119   3.335
 6202TIP3   OH218611   3.450   0.580   4.088
 6202TIP3    H118612   3.380   0.644   4.102
 6202TIP3    H218613   3.435   0.512   4.154
 6203TIP3   OH218614   5.127   2.187   0.488
 6203TIP3    H118615   5.190   2.119   0.466
 6203TIP3    H218616   5.058   2.178   0.422
 6204TIP3   OH218617   4.925   4.925   1.525
 6204TIP3    H118618   4.938   4.830   1.521
 6204TIP3    H218619   4.931   4.954   1.434
 6205TIP3   OH218620   2.552   5.178   3.121
 6205TIP3    H118621   2.467   5.137   3.106
 6205TIP3    H218622   2.562   5.177   3.216
 6206TIP3   OH218623   2.135   2.416   2.126
 6206TIP3    H118624   2.182   2.416   2.210
 6206TIP3    H218625   2.186   2.473   2.069
 6207TIP3   OH218626   4.571   4.070   1.577
 6207TIP3    H118627   4.613   3.995   1.619
 6207TIP3    H218628   4.530   4.034   1.498
 6208TIP3   OH218629   5.471   1.518   0.077
 6208TIP3    H118630   5.504   1.517   0.166
 6208TIP3    H218631   5.380   1.490   0.084
 6209TIP3   OH218632   3.305   2.562   0.345
 6209TIP3    H118633   3.333   2.580   0.435
 6209TIP3    H218634   3.211   2.578   0.345
 6210TIP3   OH218635   5.898   0.078   0.266
 6210TIP3    H118636   5.989   0.077   0.237
 6210TIP3    H218637   5.878   0.170   0.279
 6211TIP3   OH218638   2.932   3.628   4.784
 6211TIP3    H118639   2.884   3.600   4.862
 6211TIP3    H218640   2.866   3.671   4.730
 6212TIP3   OH218641   2.649   2.549   0.021
 6212TIP3    H118642   2.579   2.615   0.021
 6212TIP3    H218643   2.640   2.503   0.104
 6213TIP3   OH218644   2.363   3.659   0.704
 6213TIP3    H118645   2.451   3.658   0.666
 6213TIP3    H218646   2.345   3.752   0.718
 6214TIP3   OH218647   3.465   4.152   5.157
 6214TIP3    H118648   3.550   4.109   5.157
 6214TIP3    H218649   3.473   4.222   5.093
 6215TIP3   OH218650   4.041   2.082   2.610
 6215TIP3    H118651   4.017   2.124   2.527
 6215TIP3    H218652   3.966   2.098   2.667
 6216TIP3   OH218653   1.173   4.401   2.957
 6216TIP3    H118654   1.256   4.369   2.992
 6216TIP3    H218655   1.137   4.457   3.025
 6217TIP3   OH218656   1.079   4.125   1.741
 6217TIP3    H118657   1.025   4.088   1.671
 6217TIP3    H218658   1.021   4.185   1.787
 6218TIP3   OH218659   4.285   0.892   0.756
 6218TIP3    H118660   4.336   0.862   0.681
 6218TIP3    H218661   4.220   0.951   0.719
 6219TIP3   OH218662   3.872   3.308   2.071
 6219TIP3    H118663   3.859   3.396   2.034
 6219TIP3    H218664   3.880   3.322   2.165
 6220TIP3   OH218665   0.419   4.049   1.283
 6220TIP3    H118666   0.367   4.109   1.229
 6220TIP3    H218667   0.354   4.000   1.334
 6221TIP3   OH218668   5.630   2.656   4.506
 6221TIP3    H118669   5.694   2.619   4.444
 6221TIP3    H218670   5.585   2.581   4.543
 6222TIP3   OH218671   2.468   3.776   3.777
 6222TIP3    H118672   2.475   3.722   3.698
 6222TIP3    H218673   2.391   3.831   3.761
 6223TIP3   OH218674   5.360   4.284   0.918
 6223TIP3    H118675   5.324   4.235   0.844
 6223TIP3    H218676   5.452   4.299   0.894
 6224TIP3   OH218677   0.344   1.673   0.651
 6224TIP3    H118678   0.370   1.730   0.724
 6224TIP3    H218679   0.261   1.634   0.679
 6225TIP3   OH218680   2.977   3.975   4.567
 6225TIP3    H118681   3.010   4.047   4.513
 6225TIP3    H218682   2.905   3.938   4.516
 6226TIP3   OH218683   4.014   5.551   4.363
 6226TIP3    H118684   4.052   5.463   4.353
 6226TIP3    H218685   4.082   5.601   4.408
 6227TIP3   OH218686   5.379   0.471   3.064
 6227TIP3    H118687   5.343   0.539   3.008
 6227TIP3    H218688   5.304   0.437   3.113
 6228TIP3   OH218689   4.973   4.975   2.055
 6228TIP3    H118690   5.042   4.924   2.097
 6228TIP3    H218691   5.000   4.982   1.963
 6229TIP3   OH218692   5.587   2.150   1.763
 6229TIP3    H118693   5.561   2.232   1.722
 6229TIP3    H218694   5.679   2.164   1.788
 6230TIP3   OH218695   5.083   2.707   3.521
 6230TIP3    H118696   5.106   2.634   3.464
 6230TIP3    H218697   5.015   2.754   3.473
 6231TIP3   OH218698   6.207   4.106   1.083
 6231TIP3    H118699   6.191   4.193   1.120
 6231TIP3    H218700   6.120   4.075   1.057
 6232TIP3   OH218701   2.718   5.427   0.812
 6232TIP3    H118702   2.632   5.432   0.770
 6232TIP3    H218703   2.765   5.503   0.778
 6233TIP3   OH218704   0.670   1.341   2.353
 6233TIP3    H118705   0.743   1.396   2.323
 6233TIP3    H218706   0.701   1.302   2.434
 6234TIP3   OH218707   0.654   2.858   3.347
 6234TIP3    H118708   0.598   2.864   3.269
 6234TIP3    H218709   0.704   2.939   3.348
 6235TIP3   OH218710   0.215   3.232   2.504
 6235TIP3    H118711   0.166   3.245   2.423
 6235TIP3    H218712   0.177   3.294   2.566
 6236TIP3   OH218713   1.554   2.781   0.313
 6236TIP3    H118714   1.572   2.688   0.319
 6236TIP3    H218715   1.459   2.789   0.328
 6237TIP3   OH218716   2.658   1.564   0.904
 6237TIP3    H118717   2.735   1.556   0.960
 6237TIP3    H218718   2.594   1.612   0.956
 6238TIP3   OH218719   6.198   1.938   4.421
 6238TIP3    H118720   6.149   1.922   4.502
 6238TIP3    H218721   6.187   1.857   4.370
 6239TIP3   OH218722   2.562   4.252   2.371
 6239TIP3    H118723   2.517   4.173   2.340
 6239TIP3    H218724   2.534   4.321   2.311
 6240TIP3   OH218725   4.612   2.239   0.947
 6240TIP3    H118726   4.634   2.296   0.874
 6240TIP3    H218727   4.516   2.233   0.944
 6241TIP3   OH218728   5.861   0.849   4.074
 6241TIP3    H118729   5.923   0.792   4.120
 6241TIP3    H218730   5.788   0.859   4.134
 6242TIP3   OH218731   1.330   3.427   1.533
 6242TIP3    H118732   1.380   3.463   1.607
 6242TIP3    H218733   1.382   3.353   1.502
 6243TIP3   OH218734   3.322   0.237   2.576
 6243TIP3    H118735   3.336   0.175   2.504
 6243TIP3    H218736   3.358   0.194   2.653
 6244TIP3   OH218737   2.561   5.739   0.861
 6244TIP3    H118738   2.616   5.677   0.814
 6244TIP3    H218739   2.546   5.698   0.946
 6245TIP3   OH218740   4.346  -0.003   0.338
 6245TIP3    H118741   4.330   0.091   0.348
 6245TIP3    H218742   4.307  -0.043   0.416
 6246TIP3   OH218743   4.114   3.759   0.680
 6246TIP3    H118744   4.051   3.828   0.702
 6246TIP3    H218745   4.061   3.686   0.651
 6247TIP3   OH218746   0.996   1.075   3.844
 6247TIP3    H118747   1.084   1.048   3.816
 6247TIP3    H218748   0.955   1.111   3.765
 6248TIP3   OH218749   1.820   2.235   2.756
 6248TIP3    H118750   1.817   2.218   2.850
 6248TIP3    H218751   1.771   2.163   2.717
 6249TIP3   OH218752   2.198   2.149   3.461
 6249TIP3    H118753   2.207   2.147   3.366
 6249TIP3    H218754   2.104   2.149   3.476
 6250TIP3   OH218755   1.087   3.644   5.022
 6250TIP3    H118756   1.174   3.645   4.981
 6250TIP3    H218757   1.066   3.737   5.035
 6251TIP3   OH218758   0.015   0.651   3.723
 6251TIP3    H118759  -0.026   0.728   3.684
 6251TIP3    H218760   0.024   0.589   3.651
 6252TIP3   OH218761   0.334   0.388   1.212
 6252TIP3    H118762   0.285   0.430   1.142
 6252TIP3    H218763   0.274   0.322   1.248
 6253TIP3   OH218764   5.836   0.453   1.073
 6253TIP3    H118765   5.775   0.485   1.005
 6253TIP3    H218766   5.873   0.373   1.036
 6254TIP3   OH218767   0.257   0.538   4.024
 6254TIP3    H118768   0.222   0.465   4.075
 6254TIP3    H218769   0.273   0.500   3.937
 6255TIP3   OH218770   4.363   3.696   0.538
 6255TIP3    H118771   4.412   3.652   0.607
 6255TIP3    H218772   4.276   3.710   0.576
 6256TIP3   OH218773   5.125   0.543   3.462
 6256TIP3    H118774   5.168   0.577   3.540
 6256TIP3    H218775   5.092   0.457   3.488
 6257TIP3   OH218776   2.519   5.490   2.221
 6257TIP3    H118777   2.570   5.485   2.302
 6257TIP3    H218778   2.551   5.568   2.177
 6258TIP3   OH218779   1.250   0.482   4.091
 6258TIP3    H118780   1.245   0.570   4.053
 6258TIP3    H218781   1.324   0.441   4.045
 6259TIP3   OH218782   2.597   3.276   4.572
 6259TIP3    H118783   2.601   3.365   4.536
 6259TIP3    H218784   2.513   3.273   4.618
 6260TIP3   OH218785   1.134   0.267   1.189
 6260TIP3    H118786   1.162   0.348   1.146
 6260TIP3    H218787   1.045   0.252   1.155
 6261TIP3   OH218788   4.294   4.210   4.073
 6261TIP3    H118789   4.260   4.271   4.138
 6261TIP3    H218790   4.368   4.167   4.117
 6262TIP3   OH218791   1.641   2.813   1.972
 6262TIP3    H118792   1.553   2.850   1.966
 6262TIP3    H218793   1.630   2.721   1.946
 6263TIP3   OH218794   1.884   1.040   4.262
 6263TIP3    H118795   1.808   1.083   4.224
 6263TIP3    H218796   1.848   0.966   4.310
 6264TIP3   OH218797   4.990   5.171   4.947
 6264TIP3    H118798   5.011   5.254   4.990
 6264TIP3    H218799   4.952   5.197   4.863
 6265TIP3   OH218800   3.058   1.524   3.505
 6265TIP3    H118801   3.042   1.451   3.445
 6265TIP3    H218802   2.973   1.542   3.545
 6266TIP3   OH218803   3.217   2.803   1.010
 6266TIP3    H118804   3.123   2.787   1.019
 6266TIP3    H218805   3.223   2.871   0.943
 6267TIP3   OH218806   4.307   0.765   4.802
 6267TIP3    H118807   4.316   0.852   4.840
 6267TIP3    H218808   4.246   0.720   4.860
 6268TIP3   OH218809   6.120   1.300   3.335
 6268TIP3    H118810   6.193   1.339   3.288
 6268TIP3    H218811   6.082   1.372   3.385
 6269TIP3   OH218812   0.093   0.672   4.845
 6269TIP3    H118813   0.100   0.765   4.864
 6269TIP3    H218814   0.177   0.649   4.806
 6270TIP3   OH218815   1.998   0.100   1.013
 6270TIP3    H118816   2.057   0.169   0.982
 6270TIP3    H218817   1.910   0.136   0.999
 6271TIP3   OH218818   3.479   5.455   4.216
 6271TIP3    H118819   3.467   5.393   4.144
 6271TIP3    H218820   3.559   5.426   4.260
 6272TIP3   OH218821   4.982   2.859   2.342
 6272TIP3    H118822   4.890   2.841   2.364
 6272TIP3    H218823   5.018   2.901   2.420
 6273TIP3   OH218824   1.271   3.014   0.522
 6273TIP3    H118825   1.354   2.997   0.567
 6273TIP3    H218826   1.217   3.059   0.587
 6274TIP3   OH218827   0.543   3.788   2.365
 6274TIP3    H118828   0.578   3.701   2.384
 6274TIP3    H218829   0.580   3.811   2.280
 6275TIP3   OH218830   0.690   1.168   0.981
 6275TIP3    H118831   0.684   1.165   1.076
 6275TIP3    H218832   0.636   1.243   0.956
 6276TIP3   OH218833   5.546   4.689   4.868
 6276TIP3    H118834   5.453   4.693   4.846
 6276TIP3    H218835   5.591   4.723   4.791
 6277TIP3   OH218836   2.522   0.021   3.368
 6277TIP3    H118837   2.535   0.111   3.397
 6277TIP3    H218838   2.568   0.015   3.284
 6278TIP3   OH218839   4.868   5.415   2.410
 6278TIP3    H118840   4.948   5.386   2.453
 6278TIP3    H218841   4.884   5.400   2.317
 6279TIP3   OH218842   4.914   5.508   0.516
 6279TIP3    H118843   5.009   5.493   0.521
 6279TIP3    H218844   4.899   5.537   0.425
 6280TIP3   OH218845   3.640   4.861   3.558
 6280TIP3    H118846   3.682   4.832   3.477
 6280TIP3    H218847   3.700   4.834   3.627
 6281TIP3   OH218848   5.727   5.822   0.634
 6281TIP3    H118849   5.799   5.818   0.696
 6281TIP3    H218850   5.727   5.913   0.603
 6282TIP3   OH218851   0.134   4.302   0.627
 6282TIP3    H118852   0.196   4.353   0.681
 6282TIP3    H218853   0.076   4.368   0.589
 6283TIP3   OH218854   4.595   1.860   1.150
 6283TIP3    H118855   4.683   1.845   1.115
 6283TIP3    H218856   4.601   1.946   1.193
 6284TIP3   OH218857   3.112   3.813   4.296
 6284TIP3    H118858   3.168   3.888   4.318
 6284TIP3    H218859   3.173   3.740   4.287
 6285TIP3   OH218860   2.735   2.114   1.396
 6285TIP3    H118861   2.640   2.125   1.400
 6285TIP3    H218862   2.748   2.027   1.359
 6286TIP3   OH218863   6.171   2.940   0.901
 6286TIP3    H118864   6.077   2.927   0.916
 6286TIP3    H218865   6.197   3.002   0.969
 6287TIP3   OH218866   6.205   5.905   0.794
 6287TIP3    H118867   6.207   5.868   0.882
 6287TIP3    H218868   6.284   5.960   0.790
 6288TIP3   OH218869   5.957   2.874   2.251
 6288TIP3    H118870   5.932   2.931   2.324
 6288TIP3    H218871   5.934   2.786   2.280
 6289TIP3   OH218872   4.271   2.460   2.616
 6289TIP3    H118873   4.193   2.412   2.588
 6289TIP3    H218874   4.327   2.393   2.655
 6290TIP3   OH218875   1.338   3.320   0.686
 6290TIP3    H118876   1.246   3.296   0.673
 6290TIP3    H218877   1.374   3.249   0.739
 6291TIP3   OH218878   5.681   1.877   0.267
 6291TIP3    H118879   5.749   1.817   0.298
 6291TIP3    H218880   5.608   1.820   0.242
 6292TIP3   OH218881   6.099   5.976   0.497
 6292TIP3    H118882   6.151   5.899   0.471
 6292TIP3    H218883   6.051   5.946   0.575
 6293TIP3   OH218884   4.363   4.456   3.205
 6293TIP3    H118885   4.350   4.529   3.266
 6293TIP3    H218886   4.282   4.405   3.210
 6294TIP3   OH218887   2.566   4.705   3.901
 6294TIP3    H118888   2.568   4.799   3.923
 6294TIP3    H218889   2.566   4.660   3.985
 6295TIP3   OH218890   6.058   1.672   0.643
 6295TIP3    H118891   6.016   1.695   0.726
 6295TIP3    H218892   6.148   1.701   0.652
 6296TIP3   OH218893   4.951   2.480   2.618
 6296TIP3    H118894   4.947   2.407   2.555
 6296TIP3    H218895   4.861   2.491   2.647
 6297TIP3   OH218896   4.210   3.285   1.945
 6297TIP3    H118897   4.143   3.287   1.878
 6297TIP3    H218898   4.292   3.269   1.898
 6298TIP3   OH218899   2.423   1.752   2.471
 6298TIP3    H118900   2.453   1.797   2.392
 6298TIP3    H218901   2.502   1.709   2.505
 6299TIP3   OH218902   3.022   1.373   1.174
 6299TIP3    H118903   2.976   1.304   1.221
 6299TIP3    H218904   2.954   1.436   1.150
 6300TIP3   OH218905   5.175   3.803   4.111
 6300TIP3    H118906   5.199   3.771   4.198
 6300TIP3    H218907   5.090   3.763   4.094
 6301TIP3   OH218908   0.563   0.087   1.736
 6301TIP3    H118909   0.622   0.112   1.665
 6301TIP3    H218910   0.481   0.063   1.693
 6302TIP3   OH218911   1.039   0.672   5.077
 6302TIP3    H118912   1.047   0.686   5.171
 6302TIP3    H218913   0.968   0.731   5.050
 6303TIP3   OH218914   1.783   0.750   3.474
 6303TIP3    H118915   1.740   0.769   3.557
 6303TIP3    H218916   1.863   0.803   3.474
 6304TIP3   OH218917   5.923   5.547   4.323
 6304TIP3    H118918   6.013   5.545   4.290
 6304TIP3    H218919   5.889   5.632   4.296
 6305TIP3   OH218920   0.656   0.405   2.733
 6305TIP3    H118921   0.631   0.422   2.642
 6305TIP3    H218922   0.577   0.424   2.784
 6306TIP3   OH218923   5.350   4.694   0.996
 6306TIP3    H118924   5.331   4.643   0.917
 6306TIP3    H218925   5.369   4.782   0.963
 6307TIP3   OH218926   0.967   4.238   2.887
 6307TIP3    H118927   1.045   4.290   2.906
 6307TIP3    H218928   0.992   4.185   2.811
 6308TIP3   OH218929   3.565   4.652   0.620
 6308TIP3    H118930   3.554   4.557   0.609
 6308TIP3    H218931   3.648   4.672   0.576
 6309TIP3   OH218932   5.852   0.463   1.650
 6309TIP3    H118933   5.857   0.551   1.612
 6309TIP3    H218934   5.781   0.468   1.714
 6310TIP3   OH218935   2.812   2.304   1.161
 6310TIP3    H118936   2.732   2.320   1.211
 6310TIP3    H218937   2.868   2.254   1.221
 6311TIP3   OH218938   1.198   5.644   0.246
 6311TIP3    H118939   1.131   5.713   0.244
 6311TIP3    H218940   1.263   5.672   0.182
 6312TIP3   OH218941   3.533   4.063   2.453
 6312TIP3    H118942   3.547   3.970   2.469
 6312TIP3    H218943   3.617   4.095   2.421
 6313TIP3   OH218944   1.884   5.844   4.354
 6313TIP3    H118945   1.908   5.853   4.262
 6313TIP3    H218946   1.936   5.910   4.400
 6314TIP3   OH218947   2.449   0.035   4.488
 6314TIP3    H118948   2.498   0.026   4.570
 6314TIP3    H218949   2.511   0.011   4.420
 6315TIP3   OH218950   3.952   3.568   3.532
 6315TIP3    H118951   3.873   3.614   3.504
 6315TIP3    H218952   3.922   3.509   3.601
 6316TIP3   OH218953   2.783   0.623   5.152
 6316TIP3    H118954   2.872   0.592   5.167
 6316TIP3    H218955   2.730   0.576   5.217
 6317TIP3   OH218956   5.533   0.544   3.985
 6317TIP3    H118957   5.615   0.578   3.952
 6317TIP3    H218958   5.554   0.512   4.073
 6318TIP3   OH218959   6.025   5.789   2.373
 6318TIP3    H118960   5.976   5.733   2.433
 6318TIP3    H218961   6.017   5.747   2.288
 6319TIP3   OH218962   5.843   0.305   3.022
 6319TIP3    H118963   5.775   0.335   3.082
 6319TIP3    H218964   5.843   0.210   3.032
 6320TIP3   OH218965   4.922   3.466   2.601
 6320TIP3    H118966   4.956   3.380   2.622
 6320TIP3    H218967   4.921   3.513   2.684
 6321TIP3   OH218968   0.379   0.697   3.554
 6321TIP3    H118969   0.309   0.683   3.490
 6321TIP3    H218970   0.459   0.671   3.508
 6322TIP3   OH218971   3.051   4.402   1.960
 6322TIP3    H118972   3.061   4.496   1.949
 6322TIP3    H218973   3.076   4.385   2.051
 6323TIP3   OH218974   3.525   0.056   1.791
 6323TIP3    H118975   3.609   0.077   1.751
 6323TIP3    H218976   3.527   0.100   1.875
 6324TIP3   OH218977   2.379   4.920   1.047
 6324TIP3    H118978   2.414   4.908   0.959
 6324TIP3    H218979   2.316   4.992   1.038
 6325TIP3   OH218980   1.434   3.117   0.240
 6325TIP3    H118981   1.466   3.121   0.330
 6325TIP3    H218982   1.503   3.159   0.188
 6326TIP3   OH218983   0.631   1.066   3.222
 6326TIP3    H118984   0.603   1.049   3.132
 6326TIP3    H218985   0.724   1.089   3.215
 6327TIP3   OH218986   1.802   0.272   3.191
 6327TIP3    H118987   1.750   0.353   3.185
 6327TIP3    H218988   1.881   0.291   3.141
 6328TIP3   OH218989  -0.012   3.264   2.764
 6328TIP3    H118990   0.010   3.178   2.801
 6328TIP3    H218991   0.062   3.320   2.788
 6329TIP3   OH218992   5.213   1.939   1.663
 6329TIP3    H118993   5.125   1.975   1.650
 6329TIP3    H218994   5.257   2.001   1.720
 6330TIP3   OH218995   0.400   1.247   0.332
 6330TIP3    H118996   0.417   1.163   0.375
 6330TIP3    H218997   0.317   1.234   0.287
 6331TIP3   OH218998   1.817   3.783   0.181
 6331TIP3    H118999   1.845   3.818   0.266
 6331TIP3    H219000   1.728   3.752   0.196
 6332TIP3   OH219001   5.684   5.884   0.014
 6332TIP3    H119002   5.697   5.978  -0.001
 6332TIP3    H219003   5.645   5.879   0.101
 6333TIP3   OH219004   2.087   2.543   0.463
 6333TIP3    H119005   2.163   2.550   0.405
 6333TIP3    H219006   2.027   2.611   0.432
 6334TIP3   OH219007   0.563   2.042   2.661
 6334TIP3    H119008   0.501   2.038   2.734
 6334TIP3    H219009   0.645   2.072   2.702
 6335TIP3   OH219010   5.763   2.040   0.920
 6335TIP3    H119011   5.772   1.978   0.848
 6335TIP3    H219012   5.853   2.063   0.943
 6336TIP3   OH219013   5.342   2.428   3.735
 6336TIP3    H119014   5.248   2.438   3.724
 6336TIP3    H219015   5.355   2.337   3.761
 6337TIP3   OH219016   6.007   3.484   2.313
 6337TIP3    H119017   5.996   3.534   2.232
 6337TIP3    H219018   6.003   3.549   2.383
 6338TIP3   OH219019   0.453   2.261   1.075
 6338TIP3    H119020   0.446   2.354   1.100
 6338TIP3    H219021   0.512   2.223   1.140
 6339TIP3   OH219022   4.076   1.262   0.090
 6339TIP3    H119023   4.161   1.268   0.045
 6339TIP3    H219024   4.012   1.252   0.020
 6340TIP3   OH219025   4.285   5.265   2.556
 6340TIP3    H119026   4.228   5.190   2.573
 6340TIP3    H219027   4.361   5.251   2.613
 6341TIP3   OH219028   4.319   3.555   0.299
 6341TIP3    H119029   4.337   3.607   0.377
 6341TIP3    H219030   4.306   3.620   0.230
 6342TIP3   OH219031   3.837   3.017   4.739
 6342TIP3    H119032   3.850   2.969   4.657
 6342TIP3    H219033   3.814   3.105   4.712
 6343TIP3   OH219034   0.089   5.642   0.470
 6343TIP3    H119035  -0.004   5.665   0.482
 6343TIP3    H219036   0.122   5.709   0.410
 6344TIP3   OH219037   3.336   4.883   4.438
 6344TIP3    H119038   3.368   4.955   4.383
 6344TIP3    H219039   3.241   4.895   4.441
 6345TIP3   OH219040   4.130   4.171   0.846
 6345TIP3    H119041   4.065   4.131   0.903
 6345TIP3    H219042   4.086   4.184   0.763
 6346TIP3   OH219043   4.972   4.198   1.311
 6346TIP3    H119044   4.952   4.158   1.396
 6346TIP3    H219045   4.920   4.148   1.248
 6347TIP3   OH219046   3.351   1.887   1.539
 6347TIP3    H119047   3.293   1.962   1.552
 6347TIP3    H219048   3.344   1.837   1.621
 6348TIP3   OH219049   0.163   5.942   0.838
 6348TIP3    H119050   0.207   5.998   0.901
 6348TIP3    H219051   0.205   5.856   0.848
 6349TIP3   OH219052   5.931   2.151   4.258
 6349TIP3    H119053   6.027   2.151   4.250
 6349TIP3    H219054   5.899   2.168   4.170
 6350TIP3   OH219055   1.000   0.389   2.465
 6350TIP3    H119056   1.047   0.410   2.546
 6350TIP3    H219057   1.042   0.309   2.433
 6351TIP3   OH219058   3.039   0.092   2.762
 6351TIP3    H119059   3.125   0.063   2.792
 6351TIP3    H219060   3.018   0.033   2.689
 6352TIP3   OH219061   1.188   2.097   0.268
 6352TIP3    H119062   1.278   2.096   0.301
 6352TIP3    H219063   1.188   2.167   0.203
 6353TIP3   OH219064   0.766   3.314   2.536
 6353TIP3    H119065   0.829   3.365   2.588
 6353TIP3    H219066   0.816   3.238   2.507
 6354TIP3   OH219067   3.897   0.149   3.424
 6354TIP3    H119068   3.869   0.087   3.357
 6354TIP3    H219069   3.942   0.218   3.376
 6355TIP3   OH219070   3.209   3.025   1.377
 6355TIP3    H119071   3.246   3.069   1.301
 6355TIP3    H219072   3.273   3.040   1.447
 6356TIP3   OH219073   4.497   5.654   0.467
 6356TIP3    H119074   4.422   5.660   0.526
 6356TIP3    H219075   4.549   5.581   0.502
 6357TIP3   OH219076   5.159   5.356   4.292
 6357TIP3    H119077   5.127   5.283   4.239
 6357TIP3    H219078   5.251   5.365   4.266
 6358TIP3   OH219079   0.438   2.650   4.452
 6358TIP3    H119080   0.483   2.692   4.378
 6358TIP3    H219081   0.506   2.594   4.491
 6359TIP3   OH219082   1.391   2.661   4.937
 6359TIP3    H119083   1.403   2.680   5.030
 6359TIP3    H219084   1.360   2.571   4.934
 6360TIP3   OH219085   5.010   4.651   1.427
 6360TIP3    H119086   5.010   4.569   1.377
 6360TIP3    H219087   5.102   4.668   1.445
 6361TIP3   OH219088   5.645   0.111   0.971
 6361TIP3    H119089   5.605   0.068   0.896
 6361TIP3    H219090   5.584   0.181   0.995
 6362TIP3   OH219091   2.648   4.592   4.668
 6362TIP3    H119092   2.702   4.668   4.646
 6362TIP3    H219093   2.563   4.629   4.690
 6363TIP3   OH219094   4.347   4.720   2.390
 6363TIP3    H119095   4.419   4.657   2.402
 6363TIP3    H219096   4.355   4.748   2.299
 6364TIP3   OH219097   3.504   5.536   2.292
 6364TIP3    H119098   3.413   5.517   2.271
 6364TIP3    H219099   3.550   5.529   2.208
 6365TIP3   OH219100   3.566   4.584   2.593
 6365TIP3    H119101   3.537   4.523   2.660
 6365TIP3    H219102   3.534   4.670   2.622
 6366TIP3   OH219103   0.910   3.823   0.367
 6366TIP3    H119104   0.915   3.917   0.347
 6366TIP3    H219105   0.837   3.816   0.429
 6367TIP3   OH219106   4.459   0.044   1.861
 6367TIP3    H119107   4.478  -0.043   1.896
 6367TIP3    H219108   4.465   0.032   1.766
 6368TIP3   OH219109   0.913   5.904   0.532
 6368TIP3    H119110   0.972   5.829   0.535
 6368TIP3    H219111   0.968   5.979   0.556
 6369TIP3   OH219112   2.426   5.482   4.109
 6369TIP3    H119113   2.486   5.486   4.184
 6369TIP3    H219114   2.339   5.477   4.149
 6370TIP3   OH219115   3.312   5.619   1.779
 6370TIP3    H119116   3.255   5.580   1.713
 6370TIP3    H219117   3.392   5.640   1.732
 6371TIP3   OH219118   3.531   3.653   0.771
 6371TIP3    H119119   3.623   3.668   0.747
 6371TIP3    H219120   3.484   3.658   0.688
 6372TIP3   OH219121   6.317   2.028   3.169
 6372TIP3    H119122   6.280   1.982   3.093
 6372TIP3    H219123   6.402   2.060   3.138
 6373TIP3   OH219124   0.385   5.259   3.483
 6373TIP3    H119125   0.293   5.259   3.510
 6373TIP3    H219126   0.389   5.195   3.412
 6374TIP3   OH219127   3.793   4.689   0.421
 6374TIP3    H119128   3.880   4.649   0.421
 6374TIP3    H219129   3.750   4.654   0.343
 6375TIP3   OH219130   1.071   3.361   5.043
 6375TIP3    H119131   1.080   3.452   5.014
 6375TIP3    H219132   0.993   3.361   5.098
 6376TIP3   OH219133   0.286   3.655   1.829
 6376TIP3    H119134   0.324   3.658   1.916
 6376TIP3    H219135   0.266   3.746   1.807
 6377TIP3   OH219136   0.539   2.350   2.141
 6377TIP3    H119137   0.558   2.328   2.233
 6377TIP3    H219138   0.444   2.344   2.134
 6378TIP3   OH219139   1.546   3.226   4.419
 6378TIP3    H119140   1.516   3.305   4.374
 6378TIP3    H219141   1.622   3.197   4.369
 6379TIP3   OH219142   5.639   0.780   0.687
 6379TIP3    H119143   5.696   0.704   0.701
 6379TIP3    H219144   5.582   0.753   0.614
 6380TIP3   OH219145   2.469   1.184   4.556
 6380TIP3    H119146   2.524   1.128   4.501
 6380TIP3    H219147   2.419   1.122   4.609
 6381TIP3   OH219148   0.923   5.432   3.325
 6381TIP3    H119149   0.829   5.419   3.310
 6381TIP3    H219150   0.939   5.523   3.299
 6382TIP3   OH219151   1.831   2.765   0.422
 6382TIP3    H119152   1.864   2.737   0.337
 6382TIP3    H219153   1.736   2.757   0.415
 6383TIP3   OH219154   3.431   0.172   5.051
 6383TIP3    H119155   3.373   0.229   5.100
 6383TIP3    H219156   3.416   0.195   4.959
 6384TIP3   OH219157   0.250   0.966   2.089
 6384TIP3    H119158   0.270   1.014   2.169
 6384TIP3    H219159   0.333   0.927   2.062
 6385TIP3   OH219160   4.683   2.111   3.227
 6385TIP3    H119161   4.688   2.173   3.300
 6385TIP3    H219162   4.590   2.096   3.214
 6386TIP3   OH219163   5.908   3.946   3.893
 6386TIP3    H119164   5.822   3.928   3.857
 6386TIP3    H219165   5.917   3.886   3.967
 6387TIP3   OH219166   3.734   2.160   1.513
 6387TIP3    H119167   3.652   2.207   1.529
 6387TIP3    H219168   3.710   2.068   1.514
 6388TIP3   OH219169   3.744   3.386   3.365
 6388TIP3    H119170   3.777   3.396   3.454
 6388TIP3    H219171   3.653   3.358   3.375
 6389TIP3   OH219172   4.995   5.311   1.870
 6389TIP3    H119173   4.906   5.343   1.888
 6389TIP3    H219174   4.987   5.266   1.786
 6390TIP3   OH219175   1.825   3.550   2.258
 6390TIP3    H119176   1.791   3.467   2.224
 6390TIP3    H219177   1.891   3.525   2.322
 6391TIP3   OH219178   2.518   1.666   0.068
 6391TIP3    H119179   2.538   1.729   0.137
 6391TIP3    H219180   2.587   1.600   0.074
 6392TIP3   OH219181   2.004   1.990   0.982
 6392TIP3    H119182   1.942   1.958   1.048
 6392TIP3    H219183   1.981   2.082   0.972
 6393TIP3   OH219184   5.008   0.442   0.409
 6393TIP3    H119185   5.012   0.376   0.479
 6393TIP3    H219186   4.981   0.522   0.453
 6394TIP3   OH219187   3.438   2.424   2.401
 6394TIP3    H119188   3.515   2.479   2.410
 6394TIP3    H219189   3.472   2.339   2.372
 6395TIP3   OH219190   1.943   5.779   3.382
 6395TIP3    H119191   1.877   5.839   3.347
 6395TIP3    H219192   1.973   5.730   3.306
 6396TIP3   OH219193   4.962   0.628   3.071
 6396TIP3    H119194   5.036   0.661   3.122
 6396TIP3    H219195   4.901   0.702   3.067
 6397TIP3   OH219196   4.170   1.924   4.811
 6397TIP3    H119197   4.105   1.994   4.814
 6397TIP3    H219198   4.186   1.902   4.902
 6398TIP3   OH219199   4.907   5.998   3.946
 6398TIP3    H119200   4.873   5.910   3.935
 6398TIP3    H219201   4.873   6.028   4.030
 6399TIP3   OH219202   1.358   1.280   0.888
 6399TIP3    H119203   1.275   1.294   0.932
 6399TIP3    H219204   1.346   1.317   0.801
 6400TIP3   OH219205   0.235   5.355   1.502
 6400TIP3    H119206   0.235   5.415   1.577
 6400TIP3    H219207   0.191   5.404   1.433
 6401TIP3   OH219208   0.758   1.228   4.221
 6401TIP3    H119209   0.778   1.195   4.309
 6401TIP3    H219210   0.826   1.189   4.166
 6402TIP3   OH219211   4.494   5.778   4.347
 6402TIP3    H119212   4.540   5.744   4.423
 6402TIP3    H219213   4.543   5.857   4.323
 6403TIP3   OH219214   1.450   3.843   3.165
 6403TIP3    H119215   1.425   3.867   3.254
 6403TIP3    H219216   1.372   3.860   3.113
 6404TIP3   OH219217   2.753   4.788   0.668
 6404TIP3    H119218   2.713   4.796   0.582
 6404TIP3    H219219   2.847   4.780   0.650
 6405TIP3   OH219220   3.732   3.105   3.017
 6405TIP3    H119221   3.729   3.064   3.104
 6405TIP3    H219222   3.640   3.120   2.995
 6406TIP3   OH219223   1.684   2.851   3.149
 6406TIP3    H119224   1.752   2.867   3.214
 6406TIP3    H219225   1.613   2.910   3.173
 6407TIP3   OH219226   4.029   3.288   4.886
 6407TIP3    H119227   4.002   3.291   4.794
 6407TIP3    H219228   4.002   3.373   4.921
 6408TIP3   OH219229   4.100   3.227   0.636
 6408TIP3    H119230   4.079   3.304   0.688
 6408TIP3    H219231   4.095   3.257   0.545
 6409TIP3   OH219232   2.142   0.277   4.155
 6409TIP3    H119233   2.121   0.189   4.187
 6409TIP3    H219234   2.073   0.333   4.191
 6410TIP3   OH219235   4.819   5.778   3.473
 6410TIP3    H119236   4.868   5.697   3.478
 6410TIP3    H219237   4.885   5.846   3.457
 6411TIP3   OH219238   3.220   0.726   4.142
 6411TIP3    H119239   3.132   0.710   4.108
 6411TIP3    H219240   3.238   0.818   4.120
 6412TIP3   OH219241   4.017   2.585   4.865
 6412TIP3    H119242   3.956   2.576   4.792
 6412TIP3    H219243   4.019   2.678   4.884
 6413TIP3   OH219244   5.083   1.998   1.160
 6413TIP3    H119245   5.153   1.959   1.213
 6413TIP3    H219246   5.002   1.970   1.202
 6414TIP3   OH219247   1.082   1.900   0.621
 6414TIP3    H119248   1.162   1.861   0.657
 6414TIP3    H219249   1.079   1.987   0.659
 6415TIP3   OH219250   2.018   2.071   4.354
 6415TIP3    H119251   2.064   2.075   4.438
 6415TIP3    H219252   1.927   2.094   4.376
 6416TIP3   OH219253   0.807   2.657   2.066
 6416TIP3    H119254   0.810   2.624   2.156
 6416TIP3    H219255   0.779   2.581   2.014
 6417TIP3   OH219256   0.626   0.665   2.544
 6417TIP3    H119257   0.648   0.580   2.504
 6417TIP3    H219258   0.702   0.685   2.599
 6418TIP3   OH219259   4.699   3.834   1.640
 6418TIP3    H119260   4.741   3.801   1.561
 6418TIP3    H219261   4.736   3.781   1.711
 6419TIP3   OH219262   2.200   5.651   0.666
 6419TIP3    H119263   2.200   5.562   0.631
 6419TIP3    H219264   2.175   5.641   0.758
 6420TIP3   OH219265   3.637   0.126   2.032
 6420TIP3    H119266   3.726   0.151   2.007
 6420TIP3    H219267   3.647   0.041   2.075
 6421TIP3   OH219268   0.800   3.256   3.124
 6421TIP3    H119269   0.706   3.272   3.123
 6421TIP3    H219270   0.839   3.341   3.145
 6422TIP3   OH219271   4.519   2.684   3.558
 6422TIP3    H119272   4.576   2.731   3.618
 6422TIP3    H219273   4.555   2.596   3.554
 6423TIP3   OH219274   3.930   2.812   2.096
 6423TIP3    H119275   3.870   2.818   2.170
 6423TIP3    H219276   3.899   2.737   2.046
 6424TIP3   OH219277   0.780   2.689   2.358
 6424TIP3    H119278   0.847   2.702   2.425
 6424TIP3    H219279   0.716   2.631   2.400
 6425TIP3   OH219280   5.314   2.179   5.150
 6425TIP3    H119281   5.324   2.161   5.243
 6425TIP3    H219282   5.239   2.126   5.122
 6426TIP3   OH219283   0.649   4.234   2.679
 6426TIP3    H119284   0.721   4.292   2.655
 6426TIP3    H219285   0.586   4.244   2.609
 6427TIP3   OH219286   2.389   2.121   0.538
 6427TIP3    H119287   2.387   2.214   0.514
 6427TIP3    H219288   2.306   2.107   0.584
 6428TIP3   OH219289   0.788   4.472   3.950
 6428TIP3    H119290   0.816   4.564   3.946
 6428TIP3    H219291   0.693   4.477   3.951
 6429TIP3   OH219292   1.936   2.226   2.136
 6429TIP3    H119293   1.898   2.234   2.048
 6429TIP3    H219294   2.009   2.288   2.137
 6430TIP3   OH219295   0.174   3.829   0.347
 6430TIP3    H119296   0.158   3.819   0.253
 6430TIP3    H219297   0.172   3.923   0.362
 6431TIP3   OH219298   5.052   3.068   5.184
 6431TIP3    H119299   5.017   3.018   5.258
 6431TIP3    H219300   5.016   3.025   5.107
 6432TIP3   OH219301   2.581   4.744   1.160
 6432TIP3    H119302   2.530   4.671   1.194
 6432TIP3    H219303   2.521   4.789   1.101
 6433TIP3   OH219304   5.797   0.855   4.415
 6433TIP3    H119305   5.860   0.896   4.475
 6433TIP3    H219306   5.744   0.927   4.382
 6434TIP3   OH219307   5.926   3.211   1.189
 6434TIP3    H119308   5.958   3.202   1.279
 6434TIP3    H219309   5.904   3.122   1.162
 6435TIP3   OH219310   4.637   1.776   0.825
 6435TIP3    H119311   4.654   1.730   0.744
 6435TIP3    H219312   4.653   1.712   0.894
 6436TIP3   OH219313   2.443   0.296   2.065
 6436TIP3    H119314   2.499   0.237   2.015
 6436TIP3    H219315   2.487   0.381   2.058
 6437TIP3   OH219316   5.703   4.772   2.549
 6437TIP3    H119317   5.679   4.775   2.456
 6437TIP3    H219318   5.787   4.727   2.552
 6438TIP3   OH219319   1.346   0.991   1.092
 6438TIP3    H119320   1.432   0.973   1.131
 6438TIP3    H219321   1.290   1.013   1.167
 6439TIP3   OH219322   5.558   4.309   2.836
 6439TIP3    H119323   5.599   4.351   2.912
 6439TIP3    H219324   5.553   4.379   2.770
 6440TIP3   OH219325   4.408   2.173   2.256
 6440TIP3    H119326   4.392   2.087   2.217
 6440TIP3    H219327   4.497   2.196   2.229
 6441TIP3   OH219328   4.126   4.616   4.966
 6441TIP3    H119329   4.218   4.640   4.966
 6441TIP3    H219330   4.100   4.617   4.874
 6442TIP3   OH219331   3.670   0.434   0.645
 6442TIP3    H119332   3.748   0.483   0.618
 6442TIP3    H219333   3.703   0.370   0.709
 6443TIP3   OH219334   2.833   3.020   0.806
 6443TIP3    H119335   2.886   3.076   0.863
 6443TIP3    H219336   2.785   2.964   0.867
 6444TIP3   OH219337   3.806   4.983   2.716
 6444TIP3    H119338   3.781   4.891   2.710
 6444TIP3    H219339   3.728   5.031   2.689
 6445TIP3   OH219340   3.042   4.661   4.762
 6445TIP3    H119341   3.095   4.582   4.764
 6445TIP3    H219342   2.981   4.652   4.835
 6446TIP3   OH219343   2.053   3.927   2.424
 6446TIP3    H119344   2.094   3.860   2.370
 6446TIP3    H219345   2.067   4.008   2.375
 6447TIP3   OH219346   1.535   0.651   1.656
 6447TIP3    H119347   1.615   0.645   1.603
 6447TIP3    H219348   1.561   0.704   1.732
 6448TIP3   OH219349   4.559   0.799   2.778
 6448TIP3    H119350   4.548   0.732   2.846
 6448TIP3    H219351   4.649   0.829   2.791
 6449TIP3   OH219352   6.261   4.025   2.268
 6449TIP3    H119353   6.319   4.023   2.344
 6449TIP3    H219354   6.179   3.985   2.299
 6450TIP3   OH219355   3.477   1.329   1.026
 6450TIP3    H119356   3.520   1.304   0.944
 6450TIP3    H219357   3.384   1.337   1.003
 6451TIP3   OH219358   2.868   4.422   3.096
 6451TIP3    H119359   2.915   4.425   3.179
 6451TIP3    H219360   2.775   4.416   3.121
 6452TIP3   OH219361   2.410   2.900   4.570
 6452TIP3    H119362   2.335   2.920   4.626
 6452TIP3    H219363   2.412   2.971   4.506
 6453TIP3   OH219364   5.501   1.052   1.132
 6453TIP3    H119365   5.428   1.010   1.177
 6453TIP3    H219366   5.479   1.045   1.039
 6454TIP3   OH219367   0.670   1.582   3.877
 6454TIP3    H119368   0.660   1.656   3.817
 6454TIP3    H219369   0.755   1.545   3.855
 6455TIP3   OH219370   6.202   3.931   1.561
 6455TIP3    H119371   6.139   4.000   1.540
 6455TIP3    H219372   6.148   3.854   1.580
 6456TIP3   OH219373   5.019   2.186   4.597
 6456TIP3    H119374   4.963   2.108   4.599
 6456TIP3    H219375   4.993   2.231   4.516
 6457TIP3   OH219376   5.888   1.813   3.588
 6457TIP3    H119377   5.895   1.780   3.677
 6457TIP3    H219378   5.805   1.861   3.586
 6458TIP3   OH219379   3.217   0.371   0.133
 6458TIP3    H119380   3.223   0.288   0.085
 6458TIP3    H219381   3.122   0.386   0.142
 6459TIP3   OH219382   1.496   0.784   4.622
 6459TIP3    H119383   1.477   0.753   4.534
 6459TIP3    H219384   1.410   0.809   4.658
 6460TIP3   OH219385   3.760   0.377   2.734
 6460TIP3    H119386   3.764   0.455   2.790
 6460TIP3    H219387   3.841   0.379   2.684
 6461TIP3   OH219388   1.509   3.234   3.387
 6461TIP3    H119389   1.467   3.307   3.342
 6461TIP3    H219390   1.588   3.272   3.427
 6462TIP3   OH219391   0.752   0.895   2.728
 6462TIP3    H119392   0.662   0.870   2.750
 6462TIP3    H219393   0.806   0.841   2.785
 6463TIP3   OH219394   5.872   4.510   3.230
 6463TIP3    H119395   5.821   4.587   3.256
 6463TIP3    H219396   5.951   4.515   3.284
 6464TIP3   OH219397   3.052   0.725   3.855
 6464TIP3    H119398   2.996   0.683   3.921
 6464TIP3    H219399   3.068   0.656   3.790
 6465TIP3   OH219400   1.735   1.677   2.925
 6465TIP3    H119401   1.797   1.744   2.954
 6465TIP3    H219402   1.665   1.727   2.882
 6466TIP3   OH219403   0.220   4.064   3.406
 6466TIP3    H119404   0.287   4.000   3.430
 6466TIP3    H219405   0.224   4.067   3.310
 6467TIP3   OH219406   0.742   4.400   0.567
 6467TIP3    H119407   0.783   4.316   0.584
 6467TIP3    H219408   0.681   4.413   0.639
 6468TIP3   OH219409   3.986   1.502   0.254
 6468TIP3    H119410   4.030   1.417   0.256
 6468TIP3    H219411   4.008   1.539   0.169
 6469TIP3   OH219412   2.438   2.393   2.716
 6469TIP3    H119413   2.428   2.446   2.637
 6469TIP3    H219414   2.490   2.447   2.775
 6470TIP3   OH219415   2.350   4.247   3.696
 6470TIP3    H119416   2.420   4.253   3.631
 6470TIP3    H219417   2.275   4.290   3.654
 6471TIP3   OH219418   3.731   4.660   1.644
 6471TIP3    H119419   3.770   4.627   1.725
 6471TIP3    H219420   3.790   4.730   1.616
 6472TIP3   OH219421   5.097   3.402   5.027
 6472TIP3    H119422   5.042   3.326   5.046
 6472TIP3    H219423   5.060   3.438   4.946
 6473TIP3   OH219424   5.058   1.768   0.241
 6473TIP3    H119425   5.106   1.685   0.233
 6473TIP3    H219426   5.096   1.810   0.318
 6474TIP3   OH219427   0.339   0.070   2.171
 6474TIP3    H119428   0.347   0.165   2.178
 6474TIP3    H219429   0.385   0.036   2.248
 6475TIP3   OH219430   1.613   1.316   3.500
 6475TIP3    H119431   1.665   1.394   3.480
 6475TIP3    H219432   1.529   1.350   3.529
 6476TIP3   OH219433   5.847   2.117   2.661
 6476TIP3    H119434   5.930   2.072   2.675
 6476TIP3    H219435   5.781   2.048   2.665
 6477TIP3   OH219436   0.211   5.119   3.051
 6477TIP3    H119437   0.271   5.108   3.125
 6477TIP3    H219438   0.256   5.181   2.993
 6478TIP3   OH219439   1.142   3.820   1.653
 6478TIP3    H119440   1.218   3.775   1.691
 6478TIP3    H219441   1.177   3.869   1.579
 6479TIP3   OH219442   1.291   3.951   1.465
 6479TIP3    H119443   1.210   3.999   1.480
 6479TIP3    H219444   1.348   4.013   1.421
 6480TIP3   OH219445   4.183   3.516   2.311
 6480TIP3    H119446   4.160   3.539   2.221
 6480TIP3    H219447   4.173   3.420   2.315
 6481TIP3   OH219448   2.157   4.724   3.269
 6481TIP3    H119449   2.183   4.783   3.340
 6481TIP3    H219450   2.237   4.708   3.220
 6482TIP3   OH219451   1.114   4.275   3.645
 6482TIP3    H119452   1.116   4.310   3.734
 6482TIP3    H219453   1.196   4.305   3.605
 6483TIP3   OH219454   4.549   1.085   3.699
 6483TIP3    H119455   4.634   1.041   3.692
 6483TIP3    H219456   4.504   1.063   3.617
 6484TIP3   OH219457   3.881   1.010   0.074
 6484TIP3    H119458   3.894   1.091   0.024
 6484TIP3    H219459   3.959   0.958   0.055
 6485TIP3   OH219460   2.641   1.045   4.747
 6485TIP3    H119461   2.666   1.137   4.762
 6485TIP3    H219462   2.650   1.033   4.653
 6486TIP3   OH219463   4.228   1.332   0.574
 6486TIP3    H119464   4.246   1.423   0.599
 6486TIP3    H219465   4.233   1.332   0.479
 6487TIP3   OH219466   4.807   2.069   2.984
 6487TIP3    H119467   4.862   2.147   2.971
 6487TIP3    H219468   4.749   2.093   3.057
 6488TIP3   OH219469   4.336   4.522   0.451
 6488TIP3    H119470   4.367   4.593   0.507
 6488TIP3    H219471   4.263   4.560   0.402
 6489TIP3   OH219472   5.467   1.886   2.233
 6489TIP3    H119473   5.510   1.801   2.225
 6489TIP3    H219474   5.442   1.908   2.143
 6490TIP3   OH219475   2.836   3.978   2.387
 6490TIP3    H119476   2.826   3.986   2.292
 6490TIP3    H219477   2.897   4.048   2.410
 6491TIP3   OH219478   5.445   0.639   4.560
 6491TIP3    H119479   5.524   0.607   4.604
 6491TIP3    H219480   5.445   0.734   4.577
 6492TIP3   OH219481   0.856   0.254   0.224
 6492TIP3    H119482   0.803   0.285   0.296
 6492TIP3    H219483   0.925   0.320   0.214
 6493TIP3   OH219484   4.310   0.180   0.798
 6493TIP3    H119485   4.356   0.112   0.749
 6493TIP3    H219486   4.284   0.244   0.731
 6494TIP3   OH219487   4.376   5.487   2.348
 6494TIP3    H119488   4.311   5.425   2.382
 6494TIP3    H219489   4.452   5.475   2.405
 6495TIP3   OH219490   5.364   1.657   0.605
 6495TIP3    H119491   5.417   1.631   0.680
 6495TIP3    H219492   5.396   1.744   0.581
 6496TIP3   OH219493   2.386   4.000   1.269
 6496TIP3    H119494   2.394   3.940   1.195
 6496TIP3    H219495   2.470   3.994   1.314
 6497TIP3   OH219496   0.440   2.170   3.139
 6497TIP3    H119497   0.533   2.171   3.117
 6497TIP3    H219498   0.434   2.221   3.219
 6498TIP3   OH219499   3.971   5.882   2.429
 6498TIP3    H119500   3.915   5.944   2.474
 6498TIP3    H219501   3.928   5.866   2.345
 6499TIP3   OH219502   1.615   1.597   1.260
 6499TIP3    H119503   1.622   1.525   1.197
 6499TIP3    H219504   1.628   1.556   1.345
 6500TIP3   OH219505   5.642   1.983   4.294
 6500TIP3    H119506   5.667   1.920   4.227
 6500TIP3    H219507   5.554   1.957   4.321
 6501TIP3   OH219508   3.789   4.829   3.796
 6501TIP3    H119509   3.729   4.811   3.868
 6501TIP3    H219510   3.825   4.915   3.816
 6502TIP3   OH219511   5.620   0.828   0.035
 6502TIP3    H119512   5.640   0.848  -0.056
 6502TIP3    H219513   5.529   0.856   0.047
 6503TIP3   OH219514   1.112   1.902   2.173
 6503TIP3    H119515   1.057   1.980   2.174
 6503TIP3    H219516   1.139   1.890   2.265
 6504TIP3   OH219517   1.867   5.615   1.878
 6504TIP3    H119518   1.933   5.608   1.809
 6504TIP3    H219519   1.905   5.568   1.952
 6505TIP3   OH219520   0.168   2.126   2.117
 6505TIP3    H119521   0.139   2.176   2.193
 6505TIP3    H219522   0.103   2.057   2.107
 6506TIP3   OH219523   3.465   0.894   3.621
 6506TIP3    H119524   3.553   0.859   3.637
 6506TIP3    H219525   3.445   0.945   3.699
 6507TIP3   OH219526   1.231   0.112   3.722
 6507TIP3    H119527   1.236   0.139   3.630
 6507TIP3    H219528   1.208   0.192   3.769
 6508TIP3   OH219529   2.969   2.799   3.912
 6508TIP3    H119530   3.060   2.787   3.940
 6508TIP3    H219531   2.917   2.768   3.986
 6509TIP3   OH219532   0.879   1.898   4.015
 6509TIP3    H119533   0.841   1.826   4.065
 6509TIP3    H219534   0.947   1.857   3.961
 6510TIP3   OH219535   6.018   3.695   5.000
 6510TIP3    H119536   6.066   3.612   5.001
 6510TIP3    H219537   6.021   3.723   4.909
 6511TIP3   OH219538   1.595   3.686   3.358
 6511TIP3    H119539   1.605   3.710   3.266
 6511TIP3    H219540   1.501   3.692   3.375
 6512TIP3   OH219541   0.928   3.333   0.871
 6512TIP3    H119542   0.887   3.367   0.951
 6512TIP3    H219543   1.013   3.376   0.867
 6513TIP3   OH219544   3.411   4.799   1.989
 6513TIP3    H119545   3.425   4.771   2.079
 6513TIP3    H219546   3.485   4.857   1.970
 6514TIP3   OH219547   0.539   2.590   3.677
 6514TIP3    H119548   0.551   2.495   3.679
 6514TIP3    H219549   0.479   2.608   3.749
 6515TIP3   OH219550   2.911   3.347   1.404
 6515TIP3    H119551   2.833   3.348   1.460
 6515TIP3    H219552   2.882   3.386   1.322
 6516TIP3   OH219553   3.711   3.959   3.283
 6516TIP3    H119554   3.703   3.899   3.209
 6516TIP3    H219555   3.627   4.005   3.286
 6517TIP3   OH219556   2.888   4.575   1.630
 6517TIP3    H119557   2.910   4.654   1.582
 6517TIP3    H219558   2.971   4.543   1.665
 6518TIP3   OH219559   5.690   0.513   0.804
 6518TIP3    H119560   5.642   0.431   0.789
 6518TIP3    H219561   5.771   0.502   0.753
 6519TIP3   OH219562   6.204   3.422   0.854
 6519TIP3    H119563   6.121   3.447   0.814
 6519TIP3    H219564   6.185   3.342   0.903
 6520TIP3   OH219565   4.132   2.712   4.494
 6520TIP3    H119566   4.127   2.744   4.585
 6520TIP3    H219567   4.213   2.749   4.460
 6521TIP3   OH219568   4.110   1.662   2.109
 6521TIP3    H119569   4.099   1.724   2.036
 6521TIP3    H219570   4.074   1.709   2.185
 6522TIP3   OH219571   5.331   5.174   4.699
 6522TIP3    H119572   5.349   5.267   4.711
 6522TIP3    H219573   5.397   5.130   4.753
 6523TIP3   OH219574   0.168   1.077   3.424
 6523TIP3    H119575   0.244   1.036   3.465
 6523TIP3    H219576   0.134   1.011   3.363
 6524TIP3   OH219577   3.025   0.521   2.282
 6524TIP3    H119578   3.117   0.519   2.307
 6524TIP3    H219579   3.023   0.569   2.199
 6525TIP3   OH219580   2.466   5.827   0.549
 6525TIP3    H119581   2.503   5.764   0.610
 6525TIP3    H219582   2.446   5.775   0.471
 6526TIP3   OH219583   5.183   0.365   3.220
 6526TIP3    H119584   5.124   0.435   3.248
 6526TIP3    H219585   5.180   0.301   3.291
 6527TIP3   OH219586   2.079   3.938   4.646
 6527TIP3    H119587   2.085   3.845   4.666
 6527TIP3    H219588   2.049   3.978   4.727
 6528TIP3   OH219589   6.247   0.341   4.764
 6528TIP3    H119590   6.328   0.380   4.730
 6528TIP3    H219591   6.277   0.272   4.822
 6529TIP3   OH219592   5.504   1.624   1.203
 6529TIP3    H119593   5.571   1.597   1.265
 6529TIP3    H219594   5.481   1.544   1.156
 6530TIP3   OH219595   0.833   2.714   4.327
 6530TIP3    H119596   0.897   2.644   4.317
 6530TIP3    H219597   0.849   2.772   4.254
 6531TIP3   OH219598   4.432   0.478   4.234
 6531TIP3    H119599   4.484   0.558   4.224
 6531TIP3    H219600   4.358   0.503   4.288
 6532TIP3   OH219601   3.280   5.956   4.966
 6532TIP3    H119602   3.227   5.893   5.015
 6532TIP3    H219603   3.316   6.014   5.034
 6533TIP3   OH219604   2.293  -0.010   2.070
 6533TIP3    H119605   2.275   0.084   2.073
 6533TIP3    H219606   2.347  -0.022   1.993
 6534TIP3   OH219607   0.472   1.820   0.875
 6534TIP3    H119608   0.566   1.837   0.871
 6534TIP3    H219609   0.431   1.905   0.857
 6535TIP3   OH219610   0.563   0.612   4.250
 6535TIP3    H119611   0.592   0.629   4.340
 6535TIP3    H219612   0.606   0.530   4.226
 6536TIP3   OH219613   0.775   5.120   4.340
 6536TIP3    H119614   0.785   5.155   4.428
 6536TIP3    H219615   0.681   5.122   4.323
 6537TIP3   OH219616   0.801   2.187   2.795
 6537TIP3    H119617   0.889   2.187   2.831
 6537TIP3    H219618   0.800   2.258   2.732
 6538TIP3   OH219619   0.629   2.994   0.358
 6538TIP3    H119620   0.558   2.934   0.382
 6538TIP3    H219621   0.682   2.944   0.296
 6539TIP3   OH219622   2.824   3.988   0.971
 6539TIP3    H119623   2.753   4.033   1.017
 6539TIP3    H219624   2.854   4.051   0.905
 6540TIP3   OH219625   5.489   1.472   0.868
 6540TIP3    H119626   5.409   1.481   0.920
 6540TIP3    H219627   5.517   1.382   0.884
 6541TIP3   OH219628   4.265   3.378   3.712
 6541TIP3    H119629   4.330   3.343   3.652
 6541TIP3    H219630   4.229   3.301   3.756
 6542TIP3   OH219631   0.779   5.105   3.722
 6542TIP3    H119632   0.866   5.086   3.686
 6542TIP3    H219633   0.721   5.045   3.675
 6543TIP3   OH219634   5.008   2.864   1.157
 6543TIP3    H119635   5.099   2.838   1.146
 6543TIP3    H219636   4.989   2.920   1.082
 6544TIP3   OH219637   0.997   1.639   1.702
 6544TIP3    H119638   0.991   1.546   1.722
 6544TIP3    H219639   0.980   1.684   1.785
 6545TIP3   OH219640   4.422   3.633   1.858
 6545TIP3    H119641   4.404   3.689   1.783
 6545TIP3    H219642   4.501   3.670   1.898
 6546TIP3   OH219643   5.040   3.442   3.799
 6546TIP3    H119644   5.029   3.469   3.890
 6546TIP3    H219645   5.014   3.350   3.798
 6547TIP3   OH219646   5.375   2.462   0.485
 6547TIP3    H119647   5.455   2.514   0.498
 6547TIP3    H219648   5.396   2.403   0.413
 6548TIP3   OH219649   4.083   4.879   5.070
 6548TIP3    H119650   4.084   4.807   5.006
 6548TIP3    H219651   4.127   4.843   5.147
 6549TIP3   OH219652   5.434   0.894   1.783
 6549TIP3    H119653   5.344   0.863   1.792
 6549TIP3    H219654   5.436   0.979   1.827
 6550TIP3   OH219655   1.979   3.112   1.873
 6550TIP3    H119656   1.961   3.201   1.844
 6550TIP3    H219657   2.060   3.087   1.828
 6551TIP3   OH219658   1.628   3.972   2.893
 6551TIP3    H119659   1.685   4.006   2.824
 6551TIP3    H219660   1.656   4.018   2.972
 6552TIP3   OH219661   3.961   5.407   0.912
 6552TIP3    H119662   3.981   5.440   0.825
 6552TIP3    H219663   3.881   5.454   0.938
 6553TIP3   OH219664   4.353   1.769   1.041
 6553TIP3    H119665   4.376   1.732   1.126
 6553TIP3    H219666   4.417   1.839   1.027
 6554TIP3   OH219667   5.987   5.542   0.522
 6554TIP3    H119668   5.912   5.559   0.465
 6554TIP3    H219669   6.004   5.448   0.511
 6555TIP3   OH219670   2.795   4.879   2.183
 6555TIP3    H119671   2.872   4.837   2.221
 6555TIP3    H219672   2.826   4.967   2.160
 6556TIP3   OH219673   3.802   2.268   2.651
 6556TIP3    H119674   3.859   2.325   2.598
 6556TIP3    H219675   3.788   2.316   2.732
 6557TIP3   OH219676   5.765   2.401   2.078
 6557TIP3    H119677   5.834   2.349   2.120
 6557TIP3    H219678   5.696   2.406   2.144
 6558TIP3   OH219679   4.767   5.386   3.875
 6558TIP3    H119680   4.793   5.478   3.880
 6558TIP3    H219681   4.843   5.342   3.838
 6559TIP3   OH219682   0.128   0.597   2.974
 6559TIP3    H119683   0.038   0.586   3.004
 6559TIP3    H219684   0.120   0.610   2.879
 6560TIP3   OH219685   6.258   1.197   3.062
 6560TIP3    H119686   6.308   1.264   3.109
 6560TIP3    H219687   6.270   1.218   2.970
 6561TIP3   OH219688   4.932   3.804   0.368
 6561TIP3    H119689   4.932   3.863   0.293
 6561TIP3    H219690   4.976   3.725   0.336
 6562TIP3   OH219691   0.450   5.410   0.637
 6562TIP3    H119692   0.543   5.391   0.653
 6562TIP3    H219693   0.413   5.419   0.725
 6563TIP3   OH219694   6.014   4.283   3.806
 6563TIP3    H119695   6.027   4.255   3.715
 6563TIP3    H219696   5.951   4.220   3.841
 6564TIP3   OH219697   0.714   5.629   4.122
 6564TIP3    H119698   0.692   5.722   4.119
 6564TIP3    H219699   0.630   5.585   4.135
 6565TIP3   OH219700   5.323   2.085   2.400
 6565TIP3    H119701   5.248   2.078   2.458
 6565TIP3    H219702   5.345   1.994   2.377
 6566TIP3   OH219703   6.150   4.720   3.809
 6566TIP3    H119704   6.081   4.757   3.753
 6566TIP3    H219705   6.212   4.792   3.821
 6567TIP3   OH219706   3.728   0.184   4.050
 6567TIP3    H119707   3.766   0.168   4.136
 6567TIP3    H219708   3.707   0.277   4.051
 6568TIP3   OH219709   0.131   0.436   1.895
 6568TIP3    H119710   0.070   0.393   1.956
 6568TIP3    H219711   0.120   0.529   1.912
 6569TIP3   OH219712   2.840   4.028   4.843
 6569TIP3    H119713   2.913   4.039   4.781
 6569TIP3    H219714   2.801   3.944   4.819
 6570TIP3   OH219715   2.867   0.323   1.846
 6570TIP3    H119716   2.950   0.275   1.842
 6570TIP3    H219717   2.817   0.289   1.773
 6571TIP3   OH219718   2.386   4.466   0.269
 6571TIP3    H119719   2.380   4.547   0.219
 6571TIP3    H219720   2.372   4.493   0.360
 6572TIP3   OH219721   0.713   2.658   2.734
 6572TIP3    H119722   0.762   2.735   2.707
 6572TIP3    H219723   0.697   2.670   2.827
 6573TIP3   OH219724   5.202   0.990   3.880
 6573TIP3    H119725   5.282   0.947   3.849
 6573TIP3    H219726   5.168   0.931   3.947
 6574TIP3   OH219727   2.080   2.888   3.050
 6574TIP3    H119728   2.088   2.984   3.056
 6574TIP3    H219729   2.167   2.855   3.074
 6575TIP3   OH219730   2.814   2.689   4.110
 6575TIP3    H119731   2.759   2.745   4.166
 6575TIP3    H219732   2.788   2.600   4.132
 6576TIP3   OH219733   3.832   0.948   0.884
 6576TIP3    H119734   3.826   1.033   0.926
 6576TIP3    H219735   3.857   0.967   0.793
 6577TIP3   OH219736   0.254   4.499   0.765
 6577TIP3    H119737   0.231   4.580   0.719
 6577TIP3    H219738   0.193   4.495   0.839
 6578TIP3   OH219739   0.530   4.291   0.339
 6578TIP3    H119740   0.530   4.232   0.414
 6578TIP3    H219741   0.622   4.296   0.312
 6579TIP3   OH219742   1.611   5.416   0.004
 6579TIP3    H119743   1.644   5.393   0.090
 6579TIP3    H219744   1.536   5.472   0.021
 6580TIP3   OH219745   2.720   0.660   0.657
 6580TIP3    H119746   2.701   0.594   0.723
 6580TIP3    H219747   2.680   0.740   0.691
 6581TIP3   OH219748   6.191   4.217   0.738
 6581TIP3    H119749   6.241   4.284   0.784
 6581TIP3    H219750   6.248   4.190   0.666
 6582TIP3   OH219751   0.993   3.270   4.652
 6582TIP3    H119752   0.973   3.216   4.575
 6582TIP3    H219753   1.037   3.210   4.712
 6583TIP3   OH219754   0.829   0.549   3.076
 6583TIP3    H119755   0.903   0.517   3.024
 6583TIP3    H219756   0.837   0.645   3.074
 6584TIP3   OH219757   5.836   2.857   3.464
 6584TIP3    H119758   5.778   2.841   3.539
 6584TIP3    H219759   5.777   2.861   3.389
 6585TIP3   OH219760   4.295   4.857   3.381
 6585TIP3    H119761   4.241   4.900   3.315
 6585TIP3    H219762   4.236   4.843   3.455
 6586TIP3   OH219763   4.788   4.843   4.260
 6586TIP3    H119764   4.869   4.832   4.211
 6586TIP3    H219765   4.793   4.777   4.329
 6587TIP3   OH219766   0.044   2.358   4.472
 6587TIP3    H119767  -0.012   2.369   4.549
 6587TIP3    H219768   0.076   2.268   4.479
 6588TIP3   OH219769   6.217   2.574   0.088
 6588TIP3    H119770   6.290   2.513   0.103
 6588TIP3    H219771   6.185   2.552   0.001
 6589TIP3   OH219772   5.288   0.410   0.601
 6589TIP3    H119773   5.276   0.432   0.509
 6589TIP3    H219774   5.200   0.414   0.638
 6590TIP3   OH219775   5.843   2.748   2.795
 6590TIP3    H119776   5.898   2.704   2.859
 6590TIP3    H219777   5.844   2.689   2.719
 6591TIP3   OH219778   1.857   2.955   4.731
 6591TIP3    H119779   1.942   2.914   4.744
 6591TIP3    H219780   1.875   3.049   4.735
 6592TIP3   OH219781   1.978   5.950   4.009
 6592TIP3    H119782   1.905   5.888   4.012
 6592TIP3    H219783   2.048   5.907   4.057
 6593TIP3   OH219784   0.137   0.717   1.846
 6593TIP3    H119785   0.056   0.717   1.797
 6593TIP3    H219786   0.128   0.791   1.907
 6594TIP3   OH219787   3.880   0.676   2.634
 6594TIP3    H119788   3.939   0.627   2.692
 6594TIP3    H219789   3.874   0.623   2.555
 6595TIP3   OH219790   3.008   1.726   3.832
 6595TIP3    H119791   3.034   1.760   3.918
 6595TIP3    H219792   3.086   1.736   3.778
 6596TIP3   OH219793   0.680   1.028   3.907
 6596TIP3    H119794   0.692   0.955   3.968
 6596TIP3    H219795   0.644   0.987   3.828
 6597TIP3   OH219796   5.014   1.317   0.617
 6597TIP3    H119797   4.959   1.254   0.570
 6597TIP3    H219798   4.957   1.393   0.630
 6598TIP3   OH219799   1.348   1.834   4.531
 6598TIP3    H119800   1.273   1.853   4.474
 6598TIP3    H219801   1.414   1.796   4.472
 6599TIP3   OH219802   2.885   3.253   4.009
 6599TIP3    H119803   2.944   3.187   4.044
 6599TIP3    H219804   2.802   3.207   3.996
 6600TIP3   OH219805   4.004   2.781   0.379
 6600TIP3    H119806   3.919   2.787   0.422
 6600TIP3    H219807   4.013   2.863   0.331
 6601TIP3   OH219808   3.537   3.408   3.935
 6601TIP3    H119809   3.475   3.427   4.006
 6601TIP3    H219810   3.599   3.480   3.939
 6602TIP3   OH219811   5.674   1.974   3.645
 6602TIP3    H119812   5.675   2.038   3.573
 6602TIP3    H219813   5.582   1.969   3.670
 6603TIP3   OH219814   0.191   3.695   0.107
 6603TIP3    H119815   0.185   3.647   0.025
 6603TIP3    H219816   0.280   3.730   0.107
 6604TIP3   OH219817   3.364   3.427   0.841
 6604TIP3    H119818   3.304   3.414   0.767
 6604TIP3    H219819   3.403   3.513   0.825
 6605TIP3   OH219820   3.252   1.378   2.682
 6605TIP3    H119821   3.179   1.318   2.665
 6605TIP3    H219822   3.317   1.324   2.726
 6606TIP3   OH219823   2.520   2.573   4.603
 6606TIP3    H119824   2.447   2.528   4.645
 6606TIP3    H219825   2.571   2.504   4.563
 6607TIP3   OH219826   0.771   1.628   0.990
 6607TIP3    H119827   0.751   1.713   0.951
 6607TIP3    H219828   0.783   1.646   1.084
 6608TIP3   OH219829   5.090   3.501   2.873
 6608TIP3    H119830   5.152   3.537   2.937
 6608TIP3    H219831   5.021   3.567   2.866
 6609TIP3   OH219832   1.638   0.489   4.314
 6609TIP3    H119833   1.679   0.484   4.400
 6609TIP3    H219834   1.562   0.431   4.321
 6610TIP3   OH219835   5.268   3.780   3.269
 6610TIP3    H119836   5.188   3.757   3.222
 6610TIP3    H219837   5.334   3.787   3.200
 6611TIP3   OH219838   2.013   1.413   3.426
 6611TIP3    H119839   2.066   1.429   3.348
 6611TIP3    H219840   1.974   1.498   3.447
 6612TIP3   OH219841   5.366   0.961   2.371
 6612TIP3    H119842   5.310   0.992   2.443
 6612TIP3    H219843   5.444   0.928   2.414
 6613TIP3   OH219844   5.535   2.595   0.183
 6613TIP3    H119845   5.550   2.567   0.093
 6613TIP3    H219846   5.505   2.516   0.228
 6614TIP3   OH219847   1.328   1.154   4.794
 6614TIP3    H119848   1.257   1.159   4.730
 6614TIP3    H219849   1.320   1.066   4.832
 6615TIP3   OH219850   5.682   5.664   1.906
 6615TIP3    H119851   5.606   5.649   1.850
 6615TIP3    H219852   5.650   5.719   1.977
 6616TIP3   OH219853   3.129   0.939   2.236
 6616TIP3    H119854   3.211   0.976   2.205
 6616TIP3    H219855   3.120   0.973   2.325
 6617TIP3   OH219856   4.425   3.972   4.564
 6617TIP3    H119857   4.438   3.909   4.635
 6617TIP3    H219858   4.514   4.002   4.543
 6618TIP3   OH219859   5.969   0.352   3.503
 6618TIP3    H119860   5.988   0.404   3.581
 6618TIP3    H219861   5.875   0.362   3.489
 6619TIP3   OH219862   2.056   4.067   3.900
 6619TIP3    H119863   1.988   4.080   3.965
 6619TIP3    H219864   2.130   4.030   3.949
 6620TIP3   OH219865   5.809   5.866   3.530
 6620TIP3    H119866   5.779   5.895   3.616
 6620TIP3    H219867   5.732   5.826   3.490
 6621TIP3   OH219868   4.658   5.854   3.721
 6621TIP3    H119869   4.627   5.931   3.674
 6621TIP3    H219870   4.662   5.786   3.653
 6622TIP3   OH219871   0.512   5.981   4.269
 6622TIP3    H119872   0.607   5.972   4.273
 6622TIP3    H219873   0.484   5.915   4.207
 6623TIP3   OH219874   0.826   5.253   0.269
 6623TIP3    H119875   0.778   5.333   0.291
 6623TIP3    H219876   0.798   5.231   0.180
 6624TIP3   OH219877   0.206   3.213   0.838
 6624TIP3    H119878   0.195   3.308   0.841
 6624TIP3    H219879   0.272   3.195   0.905
 6625TIP3   OH219880   0.671   3.958   1.341
 6625TIP3    H119881   0.668   3.890   1.408
 6625TIP3    H219882   0.581   3.990   1.334
 6626TIP3   OH219883   1.102   3.945   3.390
 6626TIP3    H119884   1.037   3.896   3.340
 6626TIP3    H219885   1.069   3.945   3.480
 6627TIP3   OH219886   3.536   0.617   3.095
 6627TIP3    H119887   3.591   0.618   3.174
 6627TIP3    H219888   3.447   0.624   3.128
 6628TIP3   OH219889   1.619   3.562   5.029
 6628TIP3    H119890   1.540   3.511   5.011
 6628TIP3    H219891   1.681   3.499   5.064
 6629TIP3   OH219892   3.158   5.363   4.444
 6629TIP3    H119893   3.096   5.292   4.426
 6629TIP3    H219894   3.220   5.326   4.506
 6630TIP3   OH219895   3.033   5.897   0.604
 6630TIP3    H119896   3.099   5.967   0.605
 6630TIP3    H219897   2.953   5.939   0.636
 6631TIP3   OH219898   1.318   3.011   4.424
 6631TIP3    H119899   1.349   3.022   4.334
 6631TIP3    H219900   1.368   3.075   4.474
 6632TIP3   OH219901   5.570   2.859   0.626
 6632TIP3    H119902   5.525   2.940   0.600
 6632TIP3    H219903   5.663   2.880   0.620
 6633TIP3   OH219904   2.522   0.805   0.450
 6633TIP3    H119905   2.448   0.821   0.509
 6633TIP3    H219906   2.568   0.731   0.489
 6634TIP3   OH219907   6.248   4.979   3.269
 6634TIP3    H119908   6.160   4.942   3.276
 6634TIP3    H219909   6.248   5.025   3.185
 6635TIP3   OH219910   5.862   2.896   0.579
 6635TIP3    H119911   5.920   2.834   0.624
 6635TIP3    H219912   5.873   2.876   0.486
 6636TIP3   OH219913   1.597   4.894   4.112
 6636TIP3    H119914   1.541   4.856   4.180
 6636TIP3    H219915   1.685   4.893   4.150
 6637TIP3   OH219916   1.240   2.805   5.127
 6637TIP3    H119917   1.165   2.862   5.113
 6637TIP3    H219918   1.311   2.845   5.077
 6638TIP3   OH219919   6.111   0.927  -0.001
 6638TIP3    H119920   6.094   1.019   0.022
 6638TIP3    H219921   6.023   0.888  -0.007
 6639TIP3   OH219922   5.755   0.998   1.194
 6639TIP3    H119923   5.665   1.027   1.180
 6639TIP3    H219924   5.780   0.957   1.111
 6640TIP3   OH219925   5.271   4.682   1.476
 6640TIP3    H119926   5.336   4.725   1.421
 6640TIP3    H219927   5.314   4.672   1.561
 6641TIP3   OH219928   5.586   5.427   3.687
 6641TIP3    H119929   5.546   5.493   3.743
 6641TIP3    H219930   5.610   5.474   3.607
 6642TIP3   OH219931   2.861   0.548   0.451
 6642TIP3    H119932   2.872   0.625   0.395
 6642TIP3    H219933   2.774   0.557   0.488
 6643TIP3   OH219934   3.171   1.907   3.953
 6643TIP3    H119935   3.245   1.911   4.013
 6643TIP3    H219936   3.203   1.949   3.873
 6644TIP3   OH219937   4.229   3.216   4.650
 6644TIP3    H119938   4.151   3.252   4.690
 6644TIP3    H219939   4.197   3.144   4.596
 6645TIP3   OH219940   2.994   1.199   1.444
 6645TIP3    H119941   2.994   1.123   1.502
 6645TIP3    H219942   3.012   1.274   1.502
   6.34980   5.98665   5.18459   0.00000   0.00000  -2.11661   0.00000  -2.11661  -2.99332
