Generated by CHARMM-GUI FF-Converter
68182
    1GLY      N    1   7.576   5.314   4.080
    1GLY    HT1    2   7.670   5.353   4.105
    1GLY    HT2    3   7.516   5.392   4.047
    1GLY    HT3    4   7.591   5.257   3.992
    1GLY     CA    5   7.510   5.239   4.186
    1GLY    HA1    6   7.494   5.307   4.269
    1GLY    HA2    7   7.576   5.157   4.209
    1GLY      C    8   7.373   5.186   4.145
    1GLY      O    9   7.319   5.225   4.042
    2PRO      N   10   7.306   5.091   4.218
    2PRO     CD   11   7.380   5.015   4.302
    2PRO    HD1   12   7.405   5.073   4.393
    2PRO    HD2   13   7.473   4.975   4.255
    2PRO     CA   14   7.171   5.042   4.188
    2PRO     HA   15   7.168   5.011   4.085
    2PRO     CB   16   7.154   4.926   4.287
    2PRO    HB1   17   7.105   4.839   4.242
    2PRO    HB2   18   7.090   4.957   4.374
    2PRO     CG   19   7.292   4.899   4.339
    2PRO    HG1   20   7.292   4.880   4.448
    2PRO    HG2   21   7.330   4.807   4.288
    2PRO      C   22   7.064   5.148   4.210
    2PRO      O   23   7.086   5.246   4.282
    3GLY      N   24   6.949   5.130   4.124
    3GLY     HN   25   6.934   5.045   4.074
    3GLY     CA   26   6.836   5.219   4.142
    3GLY    HA1   27   6.759   5.188   4.073
    3GLY    HA2   28   6.869   5.321   4.128
    3GLY      C   29   6.772   5.208   4.279
    3GLY      O   30   6.799   5.113   4.353
    4ASP      N   31   6.696   5.304   4.309
    4ASP     HN   32   6.675   5.380   4.249
    4ASP     CA   33   6.616   5.301   4.432
    4ASP     HA   34   6.686   5.284   4.513
    4ASP     CB   35   6.547   5.436   4.454
    4ASP    HB1   36   6.473   5.431   4.537
    4ASP    HB2   37   6.493   5.466   4.362
    4ASP     CG   38   6.643   5.547   4.490
    4ASP    OD1   39   6.756   5.518   4.535
    4ASP    OD2   40   6.606   5.666   4.475
    4ASP      C   41   6.513   5.189   4.429
    4ASP      O   42   6.461   5.156   4.322
    5PRO      N   43   6.469   5.127   4.542
    5PRO     CD   44   6.532   5.151   4.665
    5PRO    HD1   45   6.504   5.254   4.697
    5PRO    HD2   46   6.642   5.141   4.658
    5PRO     CA   47   6.360   5.029   4.544
    5PRO     HA   48   6.389   4.946   4.482
    5PRO     CB   49   6.347   4.995   4.693
    5PRO    HB1   50   6.333   4.886   4.709
    5PRO    HB2   51   6.261   5.048   4.740
    5PRO     CG   52   6.474   5.046   4.755
    5PRO    HG1   53   6.458   5.082   4.859
    5PRO    HG2   54   6.546   4.961   4.760
    5PRO      C   55   6.229   5.086   4.490
    5PRO      O   56   6.207   5.207   4.494
    6GLY      N   57   6.155   4.998   4.435
    6GLY     HN   58   6.183   4.902   4.430
    6GLY     CA   59   6.023   5.036   4.387
    6GLY    HA1   60   5.977   4.948   4.344
    6GLY    HA2   61   6.036   5.116   4.316
    6GLY      C   62   5.932   5.086   4.498
    6GLY      O   63   5.963   5.071   4.616
    7SER      N   64   5.828   5.128   4.450
    7SER     HN   65   5.810   5.137   4.353
    7SER     CA   66   5.724   5.169   4.544
    7SER     HA   67   5.767   5.229   4.623
    7SER     CB   68   5.618   5.254   4.473
    7SER    HB1   69   5.535   5.282   4.543
    7SER    HB2   70   5.572   5.195   4.390
    7SER     OG   71   5.676   5.371   4.418
    7SER    HG1   72   5.674   5.437   4.489
    7SER      C   73   5.658   5.048   4.610
    7SER      O   74   5.660   4.938   4.554
    8GLY      N   75   5.613   5.070   4.736
    8GLY     HN   76   5.617   5.160   4.780
    8GLY     CA   77   5.540   4.963   4.803
    8GLY    HA1   78   5.526   4.997   4.905
    8GLY    HA2   79   5.602   4.874   4.795
    8GLY      C   80   5.404   4.936   4.743
    8GLY      O   81   5.359   5.009   4.654
    9PRO      N   82   5.346   4.847   4.784
    9PRO     CD   83   5.392   4.765   4.901
    9PRO    HD1   84   5.416   4.827   4.990
    9PRO    HD2   85   5.478   4.703   4.869
    9PRO     CA   86   5.210   4.814   4.741
    9PRO     HA   87   5.206   4.808   4.633
    9PRO     CB   88   5.184   4.678   4.808
    9PRO    HB1   89   5.215   4.598   4.739
    9PRO    HB2   90   5.077   4.663   4.835
    9PRO     CG   91   5.272   4.678   4.929
    9PRO    HG1   92   5.215   4.724   5.013
    9PRO    HG2   93   5.300   4.575   4.960
    9PRO      C   94   5.107   4.917   4.785
    9PRO      O   95   5.131   4.992   4.880
   10GLY      N   96   5.000   4.915   4.717
   10GLY     HN   97   4.986   4.851   4.642
   10GLY     CA   98   4.892   5.005   4.752
   10GLY    HA1   99   4.819   4.996   4.673
   10GLY    HA2  100   4.929   5.106   4.763
   10GLY      C  101   4.821   4.966   4.880
   10GLY      O  102   4.841   4.856   4.932
   11ASP      N  103   4.746   5.057   4.931
   11ASP     HN  104   4.734   5.146   4.889
   11ASP     CA  105   4.662   5.033   5.048
   11ASP     HA  106   4.727   4.996   5.125
   11ASP     CB  107   4.595   5.163   5.094
   11ASP    HB1  108   4.517   5.144   5.171
   11ASP    HB2  109   4.546   5.212   5.008
   11ASP     CG  110   4.693   5.261   5.155
   11ASP    OD1  111   4.801   5.219   5.202
   11ASP    OD2  112   4.661   5.383   5.156
   11ASP      C  113   4.556   4.927   5.018
   11ASP      O  114   4.508   4.916   4.905
   12PRO      N  115   4.505   4.851   5.128
   12PRO     CD  116   4.560   4.850   5.254
   12PRO    HD1  117   4.536   4.945   5.305
   12PRO    HD2  118   4.670   4.836   5.249
   12PRO     CA  119   4.394   4.758   5.105
   12PRO     HA  120   4.424   4.690   5.027
   12PRO     CB  121   4.376   4.691   5.242
   12PRO    HB1  122   4.366   4.581   5.233
   12PRO    HB2  123   4.286   4.729   5.295
   12PRO     CG  124   4.497   4.731   5.320
   12PRO    HG1  125   4.473   4.750   5.427
   12PRO    HG2  126   4.570   4.646   5.317
   12PRO      C  127   4.266   4.828   5.061
   12PRO      O  128   4.247   4.946   5.091
   13GLY      N  129   4.187   4.753   4.984
   13GLY     HN  130   4.209   4.658   4.964
   13GLY     CA  131   4.058   4.806   4.943
   13GLY    HA1  132   4.010   4.730   4.885
   13GLY    HA2  133   4.075   4.897   4.887
   13GLY      C  134   3.967   4.838   5.059
   13GLY      O  135   3.992   4.796   5.173
   14SER      N  136   3.860   4.893   5.024
   14SER     HN  137   3.842   4.925   4.932
   14SER     CA  138   3.757   4.918   5.125
   14SER     HA  139   3.804   4.954   5.215
   14SER     CB  140   3.656   5.021   5.074
   14SER    HB1  141   3.578   5.040   5.151
   14SER    HB2  142   3.606   4.983   4.982
   14SER     OG  143   3.721   5.143   5.042
   14SER    HG1  144   3.758   5.176   5.125
   14SER      C  145   3.685   4.789   5.162
   14SER      O  146   3.680   4.695   5.083
   15GLY      N  147   3.647   4.771   5.294
   15GLY     HN  148   3.666   4.841   5.363
   15GLY     CA  149   3.570   4.656   5.337
   15GLY    HA1  150   3.554   4.667   5.443
   15GLY    HA2  151   3.629   4.569   5.310
   15GLY      C  152   3.434   4.647   5.271
   15GLY      O  153   3.392   4.740   5.202
   16PRO      N  154   3.363   4.555   5.275
   16PRO     CD  155   3.408   4.443   5.362
   16PRO    HD1  156   3.435   4.475   5.465
   16PRO    HD2  157   3.492   4.388   5.315
   16PRO     CA  158   3.226   4.541   5.228
   16PRO     HA  159   3.221   4.566   5.124
   16PRO     CB  160   3.194   4.394   5.257
   16PRO    HB1  161   3.221   4.335   5.166
   16PRO    HB2  162   3.087   4.374   5.279
   16PRO     CG  163   3.286   4.356   5.369
   16PRO    HG1  164   3.233   4.377   5.465
   16PRO    HG2  165   3.312   4.248   5.366
   16PRO      C  166   3.128   4.632   5.302
   16PRO      O  167   3.156   4.676   5.413
   17GLY      N  168   3.009   4.674   5.238
   17GLY     HN  169   2.986   4.634   5.149
   17GLY     CA  170   2.903   4.753   5.298
   17GLY    HA1  171   2.830   4.774   5.222
   17GLY    HA2  172   2.946   4.842   5.342
   17GLY      C  173   2.831   4.681   5.411
   17GLY      O  174   2.845   4.560   5.425
   18ASP      N  175   2.771   4.738   5.488
   18ASP     HN  176   2.772   4.837   5.489
   18ASP     CA  177   2.688   4.684   5.595
   18ASP     HA  178   2.753   4.619   5.651
   18ASP     CB  179   2.641   4.796   5.689
   18ASP    HB1  180   2.564   4.757   5.760
   18ASP    HB2  181   2.595   4.878   5.630
   18ASP     CG  182   2.753   4.853   5.774
   18ASP    OD1  183   2.857   4.786   5.791
   18ASP    OD2  184   2.737   4.966   5.825
   18ASP      C  185   2.568   4.609   5.539
   18ASP      O  186   2.514   4.646   5.435
   19PRO      N  187   2.545   4.471   5.593
   19PRO     CD  188   2.618   4.420   5.699
   19PRO    HD1  189   2.591   4.476   5.791
   19PRO    HD2  190   2.727   4.425   5.680
   19PRO     CA  191   2.432   4.389   5.548
   19PRO     HA  192   2.442   4.371   5.442
   19PRO     CB  193   2.442   4.264   5.635
   19PRO    HB1  194   2.435   4.172   5.573
   19PRO    HB2  195   2.360   4.261   5.710
   19PRO     CG  196   2.574   4.276   5.705
   19PRO    HG1  197   2.572   4.236   5.808
   19PRO    HG2  198   2.649   4.216   5.648
   19PRO      C  199   2.298   4.459   5.569
   19PRO    OT1  200   2.298   4.574   5.620
   19PRO    OT2  201   2.193   4.397   5.534
   20LIT    LIT  202   2.171   9.027   3.089
   21LIT    LIT  203   4.360   7.612   7.175
   22LIT    LIT  204   8.502   6.319   7.233
   23LIT    LIT  205   6.809   3.421   7.522
   24LIT    LIT  206   5.850   2.495   4.053
   25LIT    LIT  207   5.760   9.438   2.612
   26LIT    LIT  208   5.621   1.417   0.785
   27LIT    LIT  209   3.751   3.100   7.609
   28LIT    LIT  210   0.924   6.361   1.197
   29LIT    LIT  211   4.232   3.877   4.287
   30LIT    LIT  212   5.094   2.767   5.634
   31LIT    LIT  213   3.455   9.039   7.560
   32LIT    LIT  214   3.184   1.886   8.432
   33LIT    LIT  215   6.517   7.921   4.040
   34LIT    LIT  216   7.147   1.813   1.038
   35LIT    LIT  217   2.740   0.413   5.159
   36LIT    LIT  218   9.161   3.144   6.908
   37LIT    LIT  219   8.306   5.434   9.362
   38LIT    LIT  220   7.201   7.948   6.339
   39LIT    LIT  221   8.592   8.395   4.162
   40LIT    LIT  222   7.582   7.918   1.328
   41LIT    LIT  223   1.155   1.861   8.076
   42LIT    LIT  224   3.303   2.155   3.682
   43LIT    LIT  225   5.762   5.139   3.295
   44LIT    LIT  226   2.327   6.435   3.537
   45LIT    LIT  227   9.344   4.476   4.720
   46LIT    LIT  228   6.494   8.278   6.644
   47LIT    LIT  229   3.157   3.505   4.007
   48LIT    LIT  230   4.404   0.576   4.537
   49LIT    LIT  231   6.363   4.670   0.840
   50LIT    LIT  232   4.563   2.138   9.080
   51LIT    LIT  233   6.159   3.104   0.336
   52LIT    LIT  234   3.796   7.418   3.844
   53LIT    LIT  235   8.587   5.536   4.690
   54LIT    LIT  236   4.165   9.900   7.570
   55LIT    LIT  237   8.603   4.330   3.583
   56LIT    LIT  238   7.184   2.195   4.102
   57LIT    LIT  239   9.845   5.950   4.430
   58LIT    LIT  240   0.627   2.148   4.928
   59LIT    LIT  241   2.626   1.674   4.978
   60LIT    LIT  242   6.795   8.863   2.583
   61LIT    LIT  243   5.868   5.390   9.168
   62LIT    LIT  244   4.938   4.657   0.545
   63LIT    LIT  245   7.073   9.048   4.569
   64LIT    LIT  246   2.756   4.784   9.573
   65LIT    LIT  247   3.198   5.739   7.221
   66LIT    LIT  248   3.423   1.479   2.460
   67LIT    LIT  249   5.116   0.170   2.156
   68LIT    LIT  250   8.406   1.522   2.038
   69LIT    LIT  251   5.743   8.518   3.053
   70LIT    LIT  252   6.922   5.442   1.349
   71LIT    LIT  253   0.480   2.447   4.206
   72LIT    LIT  254   1.798   7.592   6.974
   73LIT    LIT  255   3.413   4.747  -0.282
   74LIT    LIT  256   0.792   5.513   3.572
   75LIT    LIT  257   9.507   5.400   6.989
   76LIT    LIT  258   2.459   9.050   4.770
   77LIT    LIT  259   4.082   4.414   6.592
   78LIT    LIT  260   4.195   1.559   4.327
   79LIT    LIT  261   4.797   5.155   5.877
   80LIT    LIT  262   1.771   3.022   4.050
   81LIT    LIT  263   6.106   6.886   5.804
   82LIT    LIT  264  -0.194   6.055   3.512
   83LIT    LIT  265   2.497   2.788   2.778
   84LIT    LIT  266   4.257   9.527   4.088
   85LIT    LIT  267  10.141   5.119   5.545
   86LIT    LIT  268   2.067   8.890   7.715
   87LIT    LIT  269   1.672   6.885   4.485
   88CLA    CLA  270   2.756   4.877   2.307
   89CLA    CLA  271   3.811   1.352   2.780
   90CLA    CLA  272   3.962   5.144   1.997
   91CLA    CLA  273   7.491   8.150   3.379
   92CLA    CLA  274   1.883   5.703   8.039
   93CLA    CLA  275   9.953   5.600   6.087
   94CLA    CLA  276   2.076   3.186   4.110
   95CLA    CLA  277   1.755   7.028   4.341
   96CLA    CLA  278   3.786   8.465   6.624
   97CLA    CLA  279   2.507   2.902   1.214
   98CLA    CLA  280   5.558   1.483   8.543
   99CLA    CLA  281   8.911   3.131   6.113
  100CLA    CLA  282   6.998   9.832   4.082
  101CLA    CLA  283   5.037   5.134   8.365
  102CLA    CLA  284   4.336   0.134   2.299
  103CLA    CLA  285   6.593   1.521   8.085
  104CLA    CLA  286   5.296   5.378   3.663
  105CLA    CLA  287   7.657   1.496   3.308
  106CLA    CLA  288   4.968   5.454   9.546
  107CLA    CLA  289   2.335   1.595   2.998
  108CLA    CLA  290   4.511   3.481   6.892
  109CLA    CLA  291   5.595   2.011   0.471
  110CLA    CLA  292   9.136   3.490   2.132
  111CLA    CLA  293   4.751   2.433   5.423
  112CLA    CLA  294   5.220   4.543   7.453
  113CLA    CLA  295   2.984   5.568   7.518
  114CLA    CLA  296   2.015   7.903   2.552
  115CLA    CLA  297   2.768   9.050   7.920
  116CLA    CLA  298   4.625   9.055   8.706
  117CLA    CLA  299   3.073   8.238   5.221
  118CLA    CLA  300   4.833   6.450   0.694
  119CLA    CLA  301   0.646   2.745   6.747
  120CLA    CLA  302   7.149   2.688   7.924
  121CLA    CLA  303   3.449  -0.439   5.070
  122CLA    CLA  304   5.193   9.437   2.607
  123CLA    CLA  305   9.780   7.364   4.142
  124CLA    CLA  306   4.079   5.044   5.986
  125CLA    CLA  307   5.609   2.745   5.624
  126CLA    CLA  308   6.880   7.814   6.626
  127CLA    CLA  309   3.580   3.402   3.666
  128CLA    CLA  310   3.722   1.401   4.596
  129CLA    CLA  311   6.633   6.778   5.609
  130CLA    CLA  312   8.041   5.392   5.113
  131CLA    CLA  313   2.904   6.837   9.952
  132CLA    CLA  314   0.297   4.432   3.127
  133CLA    CLA  315   1.228   2.495   3.810
  134CLA    CLA  316   8.326   4.830   3.877
  135CLA    CLA  317   3.001   5.424   3.164
  136CLA    CLA  318  -0.021   5.433   2.863
  137CLA    CLA  319   0.764   2.290   5.024
  138CLA    CLA  320   6.165   5.971   7.608
  139CLA    CLA  321   2.620   2.389   5.312
  140CLA    CLA  322   2.473   0.969   5.590
  141CLA    CLA  323   6.399   8.056   0.817
  142CLA    CLA  324   7.093   5.116   0.777
  143CLA    CLA  325   8.633   3.940   7.467
  144CLA    CLA  326   5.336   4.600   0.473
  145CLA    CLA  327   5.060   0.890   2.518
  146CLA    CLA  328   8.974   4.971   8.768
  147CLA    CLA  329   1.431   2.950   3.520
  148CLA    CLA  330   5.711   3.795   3.608
  149CLA    CLA  331   2.365   4.796   9.036
  150CLA    CLA  332   5.742   8.595   3.258
  151CLA    CLA  333   6.240   5.793   9.246
  152CLA    CLA  334   6.689   6.136   3.292
  153TIP3   OH2  335   4.586   0.075   1.707
  153TIP3    H1  336   4.496   0.043   1.723
  153TIP3    H2  337   4.566   0.151   1.648
  154TIP3   OH2  338   4.818   0.000   2.022
  154TIP3    H1  339   4.776  -0.069   1.968
  154TIP3    H2  340   4.789   0.079   1.973
  155TIP3   OH2  341   4.941  -0.308   1.917
  155TIP3    H1  342   4.857  -0.259   1.909
  155TIP3    H2  343   4.951  -0.343   1.826
  156TIP3   OH2  344   4.665  -0.510   2.168
  156TIP3    H1  345   4.654  -0.436   2.232
  156TIP3    H2  346   4.576  -0.549   2.168
  157TIP3   OH2  347   4.980   0.270   2.062
  157TIP3    H1  348   4.923   0.227   1.994
  157TIP3    H2  349   4.910   0.324   2.107
  158TIP3   OH2  350   4.899  -0.558   2.332
  158TIP3    H1  351   4.819  -0.531   2.283
  158TIP3    H2  352   4.917  -0.645   2.292
  159TIP3   OH2  353   4.402  -0.567   2.551
  159TIP3    H1  354   4.393  -0.657   2.585
  159TIP3    H2  355   4.499  -0.555   2.550
  160TIP3   OH2  356   4.682   0.668   2.141
  160TIP3    H1  357   4.680   0.699   2.049
  160TIP3    H2  358   4.766   0.709   2.172
  161TIP3   OH2  359   4.697  -0.189   1.875
  161TIP3    H1  360   4.728  -0.217   1.787
  161TIP3    H2  361   4.623  -0.252   1.889
  162TIP3   OH2  362   4.253  -0.146   2.206
  162TIP3    H1  363   4.276  -0.183   2.292
  162TIP3    H2  364   4.266  -0.050   2.224
  163TIP3   OH2  365   4.527   0.361   1.980
  163TIP3    H1  366   4.443   0.313   1.976
  163TIP3    H2  367   4.511   0.431   1.912
  164TIP3   OH2  368   4.555   0.321   1.581
  164TIP3    H1  369   4.510   0.380   1.516
  164TIP3    H2  370   4.647   0.349   1.564
  165TIP3   OH2  371   3.362   0.378   2.509
  165TIP3    H1  372   3.438   0.383   2.571
  165TIP3    H2  373   3.306   0.312   2.557
  166TIP3   OH2  374   3.802   0.330   2.600
  166TIP3    H1  375   3.894   0.312   2.624
  166TIP3    H2  376   3.799   0.288   2.513
  167TIP3   OH2  377   4.056  -0.150   2.545
  167TIP3    H1  378   4.024  -0.161   2.453
  167TIP3    H2  379   4.139  -0.199   2.542
  168TIP3   OH2  380   4.547  -0.151   2.140
  168TIP3    H1  381   4.599  -0.078   2.103
  168TIP3    H2  382   4.463  -0.107   2.161
  169TIP3   OH2  383   4.395  -0.252   2.509
  169TIP3    H1  384   4.463  -0.184   2.500
  169TIP3    H2  385   4.414  -0.288   2.597
  170TIP3   OH2  386   4.665  -0.538   2.592
  170TIP3    H1  387   4.722  -0.612   2.616
  170TIP3    H2  388   4.727  -0.468   2.567
  171TIP3   OH2  389   4.690  -0.286   2.324
  171TIP3    H1  390   4.626  -0.233   2.271
  171TIP3    H2  391   4.775  -0.255   2.284
  172TIP3   OH2  392   4.807   0.416   1.541
  172TIP3    H1  393   4.823   0.464   1.625
  172TIP3    H2  394   4.842   0.479   1.476
  173TIP3   OH2  395   4.834   0.466   1.809
  173TIP3    H1  396   4.794   0.377   1.819
  173TIP3    H2  397   4.908   0.461   1.870
  174TIP3   OH2  398   4.882   0.126   2.378
  174TIP3    H1  399   4.803   0.130   2.437
  174TIP3    H2  400   4.917   0.217   2.392
  175TIP3   OH2  401   4.913  -0.051   1.682
  175TIP3    H1  402   4.920  -0.118   1.614
  175TIP3    H2  403   4.896   0.029   1.630
  176TIP3   OH2  404   4.737   0.220   1.878
  176TIP3    H1  405   4.659   0.265   1.919
  176TIP3    H2  406   4.690   0.162   1.813
  177TIP3   OH2  407   4.926  -0.208   2.212
  177TIP3    H1  408   4.997  -0.274   2.198
  177TIP3    H2  409   4.917  -0.167   2.124
  178TIP3   OH2  410   5.110  -0.410   2.238
  178TIP3    H1  411   5.042  -0.469   2.277
  178TIP3    H2  412   5.190  -0.464   2.249
  179TIP3   OH2  413   4.875  -0.566   1.998
  179TIP3    H1  414   4.808  -0.519   2.051
  179TIP3    H2  415   4.920  -0.491   1.954
  180TIP3   OH2  416   4.100   0.404   2.270
  180TIP3    H1  417   4.147   0.354   2.338
  180TIP3    H2  418   4.172   0.419   2.207
  181TIP3   OH2  419   4.298   0.523   2.103
  181TIP3    H1  420   4.376   0.466   2.101
  181TIP3    H2  421   4.328   0.588   2.171
  182TIP3   OH2  422   4.275   0.348   1.809
  182TIP3    H1  423   4.185   0.323   1.837
  182TIP3    H2  424   4.282   0.438   1.846
  183TIP3   OH2  425   4.499   0.540   1.772
  183TIP3    H1  426   4.471   0.622   1.726
  183TIP3    H2  427   4.506   0.477   1.699
  184TIP3   OH2  428   4.762   0.409   2.139
  184TIP3    H1  429   4.678   0.376   2.104
  184TIP3    H2  430   4.740   0.504   2.151
  185TIP3   OH2  431   5.494   0.124   1.659
  185TIP3    H1  432   5.462   0.214   1.638
  185TIP3    H2  433   5.424   0.096   1.722
  186TIP3   OH2  434   5.708   0.240   1.809
  186TIP3    H1  435   5.649   0.303   1.855
  186TIP3    H2  436   5.644   0.184   1.762
  187TIP3   OH2  437   5.429  -0.146   1.876
  187TIP3    H1  438   5.440  -0.097   1.959
  187TIP3    H2  439   5.371  -0.219   1.908
  188TIP3   OH2  440   5.499   0.407   1.894
  188TIP3    H1  441   5.472   0.412   1.800
  188TIP3    H2  442   5.423   0.365   1.936
  189TIP3   OH2  443   5.105  -0.048   1.873
  189TIP3    H1  444   5.028  -0.060   1.813
  189TIP3    H2  445   5.124  -0.140   1.901
  190TIP3   OH2  446   4.939   0.168   1.508
  190TIP3    H1  447   5.023   0.200   1.548
  190TIP3    H2  448   4.883   0.247   1.524
  191TIP3   OH2  449   5.892   0.385   1.650
  191TIP3    H1  450   5.892   0.470   1.700
  191TIP3    H2  451   5.846   0.326   1.712
  192TIP3   OH2  452   5.291   0.138   1.842
  192TIP3    H1  453   5.342   0.111   1.921
  192TIP3    H2  454   5.224   0.066   1.843
  193TIP3   OH2  455   6.489   0.933   1.640
  193TIP3    H1  456   6.477   0.952   1.544
  193TIP3    H2  457   6.566   0.988   1.662
  194TIP3   OH2  458   5.432   0.044   2.082
  194TIP3    H1  459   5.517   0.086   2.106
  194TIP3    H2  460   5.422  -0.017   2.157
  195TIP3   OH2  461   5.212  -0.277   1.991
  195TIP3    H1  462   5.251  -0.283   2.081
  195TIP3    H2  463   5.128  -0.325   2.002
  196TIP3   OH2  464   6.189   0.396   1.631
  196TIP3    H1  465   6.098   0.423   1.611
  196TIP3    H2  466   6.209   0.455   1.707
  197TIP3   OH2  467   5.666   0.496   1.514
  197TIP3    H1  468   5.703   0.553   1.443
  197TIP3    H2  469   5.748   0.458   1.550
  198TIP3   OH2  470   6.322   0.682   1.517
  198TIP3    H1  471   6.295   0.596   1.477
  198TIP3    H2  472   6.307   0.739   1.439
  199TIP3   OH2  473   5.141   0.304   1.633
  199TIP3    H1  474   5.193   0.247   1.693
  199TIP3    H2  475   5.159   0.392   1.670
  200TIP3   OH2  476   5.130   0.612   2.033
  200TIP3    H1  477   5.205   0.630   2.093
  200TIP3    H2  478   5.076   0.550   2.083
  201TIP3   OH2  479   5.595   0.588   2.088
  201TIP3    H1  480   5.690   0.575   2.100
  201TIP3    H2  481   5.578   0.532   2.010
  202TIP3   OH2  482   6.233   0.522   1.863
  202TIP3    H1  483   6.230   0.442   1.921
  202TIP3    H2  484   6.318   0.563   1.888
  203TIP3   OH2  485   5.849   0.111   2.015
  203TIP3    H1  486   5.820   0.135   1.925
  203TIP3    H2  487   5.917   0.044   1.997
  204TIP3   OH2  488   5.382  -0.243   2.215
  204TIP3    H1  489   5.456  -0.306   2.212
  204TIP3    H2  490   5.389  -0.211   2.308
  205TIP3   OH2  491   6.201   0.045   2.014
  205TIP3    H1  492   6.273   0.073   1.956
  205TIP3    H2  493   6.243   0.032   2.102
  206TIP3   OH2  494   5.617  -0.422   2.233
  206TIP3    H1  495   5.565  -0.504   2.236
  206TIP3    H2  496   5.656  -0.427   2.145
  207TIP3   OH2  497   4.860   0.301   1.256
  207TIP3    H1  498   4.891   0.217   1.293
  207TIP3    H2  499   4.924   0.364   1.296
  208TIP3   OH2  500   6.683   0.369   1.965
  208TIP3    H1  501   6.596   0.379   2.009
  208TIP3    H2  502   6.720   0.459   1.972
  209TIP3   OH2  503   5.251   0.297   2.105
  209TIP3    H1  504   5.203   0.356   2.044
  209TIP3    H2  505   5.305   0.359   2.158
  210TIP3   OH2  506   5.443   0.394   1.624
  210TIP3    H1  507   5.394   0.463   1.576
  210TIP3    H2  508   5.533   0.418   1.590
  211TIP3   OH2  509   5.905   0.639   1.753
  211TIP3    H1  510   5.946   0.640   1.842
  211TIP3    H2  511   5.971   0.689   1.701
  212TIP3   OH2  512   6.080   0.788   1.607
  212TIP3    H1  513   6.159   0.744   1.569
  212TIP3    H2  514   6.125   0.848   1.670
  213TIP3   OH2  515   5.134   0.638   1.641
  213TIP3    H1  516   5.045   0.671   1.615
  213TIP3    H2  517   5.149   0.691   1.720
  214TIP3   OH2  518   5.365   0.623   1.487
  214TIP3    H1  519   5.281   0.638   1.535
  214TIP3    H2  520   5.345   0.661   1.399
  215TIP3   OH2  521   5.765   0.660   1.318
  215TIP3    H1  522   5.702   0.684   1.247
  215TIP3    H2  523   5.788   0.748   1.353
  216TIP3   OH2  524   6.016   0.623   1.216
  216TIP3    H1  525   5.936   0.627   1.272
  216TIP3    H2  526   6.083   0.669   1.271
  217TIP3   OH2  527   6.234   0.799   1.283
  217TIP3    H1  528   6.216   0.889   1.250
  217TIP3    H2  529   6.307   0.773   1.223
  218TIP3   OH2  530   5.053   0.453   1.387
  218TIP3    H1  531   5.084   0.427   1.475
  218TIP3    H2  532   5.120   0.409   1.330
  219TIP3   OH2  533   5.235   0.338   1.229
  219TIP3    H1  534   5.262   0.245   1.225
  219TIP3    H2  535   5.322   0.382   1.235
  220TIP3   OH2  536   5.489   0.444   1.268
  220TIP3    H1  537   5.505   0.353   1.301
  220TIP3    H2  538   5.512   0.495   1.348
  221TIP3   OH2  539   6.568   0.668   1.659
  221TIP3    H1  540   6.498   0.633   1.600
  221TIP3    H2  541   6.546   0.763   1.652
  222TIP3   OH2  542   6.900   0.887   1.564
  222TIP3    H1  543   6.987   0.894   1.609
  222TIP3    H2  544   6.882   0.793   1.579
  223TIP3   OH2  545   2.629   1.577   2.163
  223TIP3    H1  546   2.573   1.503   2.133
  223TIP3    H2  547   2.610   1.644   2.095
  224TIP3   OH2  548   2.848   1.885   2.200
  224TIP3    H1  549   2.844   1.789   2.216
  224TIP3    H2  550   2.763   1.912   2.240
  225TIP3   OH2  551   2.533   2.233   2.292
  225TIP3    H1  552   2.531   2.256   2.197
  225TIP3    H2  553   2.612   2.282   2.322
  226TIP3   OH2  554   2.874   1.598   2.264
  226TIP3    H1  555   2.777   1.597   2.245
  226TIP3    H2  556   2.908   1.564   2.179
  227TIP3   OH2  557   2.364   1.923   2.156
  227TIP3    H1  558   2.274   1.886   2.149
  227TIP3    H2  559   2.362   1.996   2.089
  228TIP3   OH2  560   1.652   1.880   2.714
  228TIP3    H1  561   1.730   1.887   2.771
  228TIP3    H2  562   1.687   1.819   2.648
  229TIP3   OH2  563   2.297   1.783   2.480
  229TIP3    H1  564   2.278   1.731   2.560
  229TIP3    H2  565   2.364   1.845   2.512
  230TIP3   OH2  566   2.333   1.328   2.762
  230TIP3    H1  567   2.329   1.346   2.668
  230TIP3    H2  568   2.246   1.357   2.794
  231TIP3   OH2  569   2.548   1.049   2.792
  231TIP3    H1  570   2.530   0.980   2.727
  231TIP3    H2  571   2.580   1.124   2.740
  232TIP3   OH2  572   2.529   1.306   2.452
  232TIP3    H1  573   2.475   1.362   2.393
  232TIP3    H2  574   2.620   1.335   2.428
  233TIP3   OH2  575   2.694   1.940   1.696
  233TIP3    H1  576   2.646   1.997   1.757
  233TIP3    H2  577   2.704   1.998   1.620
  234TIP3   OH2  578   2.663   2.016   1.983
  234TIP3    H1  579   2.623   1.928   1.967
  234TIP3    H2  580   2.749   1.989   2.018
  235TIP3   OH2  581   2.712   1.684   2.542
  235TIP3    H1  582   2.640   1.694   2.608
  235TIP3    H2  583   2.752   1.773   2.542
  236TIP3   OH2  584   2.534   1.769   1.994
  236TIP3    H1  585   2.473   1.810   2.058
  236TIP3    H2  586   2.472   1.726   1.933
  237TIP3   OH2  587   2.783   1.357   2.368
  237TIP3    H1  588   2.864   1.304   2.383
  237TIP3    H2  589   2.820   1.443   2.337
  238TIP3   OH2  590   2.962   1.162   2.407
  238TIP3    H1  591   2.888   1.103   2.423
  238TIP3    H2  592   3.035   1.095   2.413
  239TIP3   OH2  593   3.182   0.570   2.674
  239TIP3    H1  594   3.232   0.488   2.658
  239TIP3    H2  595   3.205   0.622   2.596
  240TIP3   OH2  596   1.950   1.964   2.410
  240TIP3    H1  597   2.000   1.946   2.493
  240TIP3    H2  598   2.021   1.995   2.351
  241TIP3   OH2  599   2.144   2.092   2.257
  241TIP3    H1  600   2.216   2.029   2.250
  241TIP3    H2  601   2.181   2.155   2.322
  242TIP3   OH2  602   2.354   2.087   1.939
  242TIP3    H1  603   2.281   2.151   1.922
  242TIP3    H2  604   2.401   2.092   1.852
  243TIP3   OH2  605   2.604   1.966   2.301
  243TIP3    H1  606   2.523   1.930   2.258
  243TIP3    H2  607   2.582   2.061   2.300
  244TIP3   OH2  608   3.895   1.362   1.115
  244TIP3    H1  609   3.884   1.458   1.103
  244TIP3    H2  610   3.817   1.328   1.069
  245TIP3   OH2  611   3.862   1.332   1.438
  245TIP3    H1  612   3.853   1.288   1.525
  245TIP3    H2  613   3.845   1.257   1.380
  246TIP3   OH2  614   3.173   1.221   1.781
  246TIP3    H1  615   3.192   1.175   1.864
  246TIP3    H2  616   3.253   1.273   1.767
  247TIP3   OH2  617   4.102   1.632   1.128
  247TIP3    H1  618   4.098   1.565   1.199
  247TIP3    H2  619   4.129   1.711   1.177
  248TIP3   OH2  620   3.160   1.640   1.572
  248TIP3    H1  621   3.110   1.579   1.516
  248TIP3    H2  622   3.251   1.636   1.538
  249TIP3   OH2  623   3.751   2.101   1.140
  249TIP3    H1  624   3.800   2.030   1.093
  249TIP3    H2  625   3.747   2.066   1.230
  250TIP3   OH2  626   3.662   1.571   1.463
  250TIP3    H1  627   3.707   1.487   1.449
  250TIP3    H2  628   3.739   1.622   1.497
  251TIP3   OH2  629   4.675   0.883   1.492
  251TIP3    H1  630   4.704   0.964   1.538
  251TIP3    H2  631   4.685   0.909   1.399
  252TIP3   OH2  632   4.117   1.079   1.524
  252TIP3    H1  633   4.141   0.988   1.546
  252TIP3    H2  634   4.042   1.066   1.465
  253TIP3   OH2  635   4.751   1.088   1.660
  253TIP3    H1  636   4.666   1.135   1.642
  253TIP3    H2  637   4.763   1.110   1.753
  254TIP3   OH2  638   3.766   1.609   0.984
  254TIP3    H1  639   3.785   1.581   0.893
  254TIP3    H2  640   3.717   1.693   0.970
  255TIP3   OH2  641   3.461   1.468   1.775
  255TIP3    H1  642   3.400   1.543   1.795
  255TIP3    H2  643   3.526   1.515   1.722
  256TIP3   OH2  644   4.343   0.813   1.285
  256TIP3    H1  645   4.336   0.775   1.373
  256TIP3    H2  646   4.370   0.904   1.306
  257TIP3   OH2  647   3.336   1.698   1.817
  257TIP3    H1  648   3.305   1.776   1.767
  257TIP3    H2  649   3.263   1.689   1.882
  258TIP3   OH2  650   4.177   1.880   1.292
  258TIP3    H1  651   4.087   1.871   1.332
  258TIP3    H2  652   4.168   1.967   1.247
  259TIP3   OH2  653   4.466   0.785   1.654
  259TIP3    H1  654   4.381   0.820   1.625
  259TIP3    H2  655   4.527   0.815   1.583
  260TIP3   OH2  656   3.875   1.929   0.968
  260TIP3    H1  657   3.926   1.847   0.948
  260TIP3    H2  658   3.936   1.994   0.925
  261TIP3   OH2  659   4.031   1.725   0.876
  261TIP3    H1  660   4.043   1.649   0.816
  261TIP3    H2  661   4.059   1.686   0.962
  262TIP3   OH2  662   4.403   1.794   1.636
  262TIP3    H1  663   4.391   1.716   1.577
  262TIP3    H2  664   4.385   1.869   1.574
  263TIP3   OH2  665   4.598   1.430   1.479
  263TIP3    H1  666   4.514   1.481   1.487
  263TIP3    H2  667   4.626   1.458   1.389
  264TIP3   OH2  668   4.049   1.296   0.896
  264TIP3    H1  669   4.035   1.320   0.990
  264TIP3    H2  670   4.137   1.254   0.899
  265TIP3   OH2  671   4.305   1.315   1.786
  265TIP3    H1  672   4.295   1.393   1.844
  265TIP3    H2  673   4.220   1.323   1.736
  266TIP3   OH2  674   3.400   1.671   1.430
  266TIP3    H1  675   3.393   1.630   1.343
  266TIP3    H2  676   3.493   1.649   1.454
  267TIP3   OH2  677   3.417   1.233   1.635
  267TIP3    H1  678   3.465   1.228   1.552
  267TIP3    H2  679   3.450   1.318   1.672
  268TIP3   OH2  680   3.936   1.876   1.413
  268TIP3    H1  681   3.921   1.957   1.465
  268TIP3    H2  682   3.922   1.804   1.478
  269TIP3   OH2  683   3.548   1.798   1.959
  269TIP3    H1  684   3.490   1.859   2.008
  269TIP3    H2  685   3.480   1.754   1.903
  270TIP3   OH2  686   3.308   1.358   2.072
  270TIP3    H1  687   3.303   1.447   2.033
  270TIP3    H2  688   3.214   1.338   2.088
  271TIP3   OH2  689   3.609   1.835   0.964
  271TIP3    H1  690   3.688   1.887   0.986
  271TIP3    H2  691   3.551   1.901   0.923
  272TIP3   OH2  692   3.344   1.968   2.048
  272TIP3    H1  693   3.315   1.975   1.954
  272TIP3    H2  694   3.263   1.937   2.093
  273TIP3   OH2  695   4.214   1.742   0.280
  273TIP3    H1  696   4.214   1.839   0.290
  273TIP3    H2  697   4.304   1.715   0.301
  274TIP3   OH2  698   2.945   1.518   2.017
  274TIP3    H1  699   2.874   1.542   1.953
  274TIP3    H2  700   2.956   1.424   1.994
  275TIP3   OH2  701   4.640   2.138   1.681
  275TIP3    H1  702   4.638   2.041   1.697
  275TIP3    H2  703   4.557   2.164   1.727
  276TIP3   OH2  704   3.747   1.924   1.817
  276TIP3    H1  705   3.746   2.017   1.849
  276TIP3    H2  706   3.676   1.885   1.871
  277TIP3   OH2  707   3.502   2.056   0.771
  277TIP3    H1  708   3.433   2.038   0.706
  277TIP3    H2  709   3.481   2.147   0.800
  278TIP3   OH2  710   3.761   2.016   0.688
  278TIP3    H1  711   3.668   2.019   0.718
  278TIP3    H2  712   3.802   1.960   0.755
  279TIP3   OH2  713   4.533   1.271   1.958
  279TIP3    H1  714   4.453   1.284   1.905
  279TIP3    H2  715   4.547   1.174   1.947
  280TIP3   OH2  716   3.160   1.679   2.018
  280TIP3    H1  717   3.145   1.733   2.098
  280TIP3    H2  718   3.079   1.623   2.017
  281TIP3   OH2  719   4.066   0.629   1.965
  281TIP3    H1  720   4.131   0.589   2.025
  281TIP3    H2  721   3.983   0.585   1.992
  282TIP3   OH2  722   4.293   1.041   1.876
  282TIP3    H1  723   4.249   1.038   1.964
  282TIP3    H2  724   4.278   1.133   1.847
  283TIP3   OH2  725   3.448   1.011   1.793
  283TIP3    H1  726   3.393   1.045   1.866
  283TIP3    H2  727   3.438   1.082   1.726
  284TIP3   OH2  728   4.003   1.269   2.113
  284TIP3    H1  729   3.984   1.196   2.176
  284TIP3    H2  730   4.097   1.287   2.135
  285TIP3   OH2  731   3.275   1.058   1.999
  285TIP3    H1  732   3.295   1.114   2.075
  285TIP3    H2  733   3.228   0.984   2.041
  286TIP3   OH2  734   4.047   1.308   1.706
  286TIP3    H1  735   4.042   1.237   1.639
  286TIP3    H2  736   4.002   1.264   1.780
  287TIP3   OH2  737   4.152   0.787   1.552
  287TIP3    H1  738   4.135   0.802   1.649
  287TIP3    H2  739   4.062   0.765   1.523
  288TIP3   OH2  740   4.329   2.489   1.781
  288TIP3    H1  741   4.327   2.514   1.686
  288TIP3    H2  742   4.406   2.540   1.813
  289TIP3   OH2  743   3.848   1.127   1.627
  289TIP3    H1  744   3.854   1.123   1.724
  289TIP3    H2  745   3.779   1.060   1.606
  290TIP3   OH2  746   3.725   0.896   1.823
  290TIP3    H1  747   3.656   0.932   1.764
  290TIP3    H2  748   3.796   0.960   1.818
  291TIP3   OH2  749   4.366   1.576   1.472
  291TIP3    H1  750   4.388   1.626   1.391
  291TIP3    H2  751   4.280   1.535   1.449
  292TIP3   OH2  752   3.851   1.650   1.845
  292TIP3    H1  753   3.895   1.639   1.930
  292TIP3    H2  754   3.825   1.744   1.846
  293TIP3   OH2  755   3.059   1.273   2.165
  293TIP3    H1  756   3.039   1.260   2.260
  293TIP3    H2  757   3.026   1.186   2.133
  294TIP3   OH2  758   3.758   1.397   2.140
  294TIP3    H1  759   3.699   1.326   2.107
  294TIP3    H2  760   3.847   1.362   2.118
  295TIP3   OH2  761   4.023   1.914   1.738
  295TIP3    H1  762   3.927   1.918   1.748
  295TIP3    H2  763   4.052   1.968   1.814
  296TIP3   OH2  764   4.653   1.847   1.725
  296TIP3    H1  765   4.555   1.842   1.717
  296TIP3    H2  766   4.678   1.817   1.634
  297TIP3   OH2  767   4.138   1.804   0.543
  297TIP3    H1  768   4.117   1.740   0.613
  297TIP3    H2  769   4.132   1.750   0.463
  298TIP3   OH2  770   4.130   1.443   1.387
  298TIP3    H1  771   4.039   1.414   1.407
  298TIP3    H2  772   4.166   1.361   1.348
  299TIP3   OH2  773   3.527   2.012   1.612
  299TIP3    H1  774   3.568   2.084   1.561
  299TIP3    H2  775   3.604   1.977   1.659
  300TIP3   OH2  776   3.915   1.644   1.574
  300TIP3    H1  777   3.904   1.638   1.671
  300TIP3    H2  778   3.993   1.589   1.560
  301TIP3   OH2  779   4.164   2.177   1.621
  301TIP3    H1  780   4.083   2.123   1.612
  301TIP3    H2  781   4.149   2.243   1.549
  302TIP3   OH2  782   4.230   2.022   0.257
  302TIP3    H1  783   4.282   2.103   0.239
  302TIP3    H2  784   4.150   2.064   0.298
  303TIP3   OH2  785   4.064   1.508   0.720
  303TIP3    H1  786   4.078   1.425   0.770
  303TIP3    H2  787   4.136   1.499   0.654
  304TIP3   OH2  788   2.980   1.865   1.780
  304TIP3    H1  789   3.046   1.797   1.792
  304TIP3    H2  790   3.011   1.938   1.835
  305TIP3   OH2  791   4.084   0.851   1.809
  305TIP3    H1  792   4.158   0.897   1.852
  305TIP3    H2  793   4.071   0.774   1.870
  306TIP3   OH2  794   3.926   1.113   1.894
  306TIP3    H1  795   3.944   1.165   1.975
  306TIP3    H2  796   3.979   1.033   1.913
  307TIP3   OH2  797   4.561   1.006   1.873
  307TIP3    H1  798   4.463   1.000   1.882
  307TIP3    H2  799   4.574   0.962   1.788
  308TIP3   OH2  800   4.228   1.210   1.266
  308TIP3    H1  801   4.163   1.139   1.249
  308TIP3    H2  802   4.293   1.161   1.321
  309TIP3   OH2  803   4.184   2.152   1.214
  309TIP3    H1  804   4.141   2.199   1.139
  309TIP3    H2  805   4.278   2.170   1.193
  310TIP3   OH2  806   2.955   2.182   2.194
  310TIP3    H1  807   3.039   2.181   2.244
  310TIP3    H2  808   2.929   2.088   2.195
  311TIP3   OH2  809   3.437   2.146   2.242
  311TIP3    H1  810   3.533   2.132   2.248
  311TIP3    H2  811   3.416   2.089   2.165
  312TIP3   OH2  812   4.077   2.051   1.971
  312TIP3    H1  813   4.068   1.981   2.040
  312TIP3    H2  814   4.154   2.102   2.002
  313TIP3   OH2  815   3.680   1.671   2.175
  313TIP3    H1  816   3.651   1.692   2.084
  313TIP3    H2  817   3.723   1.584   2.163
  314TIP3   OH2  818   4.186   1.684   1.774
  314TIP3    H1  819   4.262   1.725   1.730
  314TIP3    H2  820   4.117   1.751   1.757
  315TIP3   OH2  821   3.555   1.223   2.030
  315TIP3    H1  822   3.474   1.272   2.054
  315TIP3    H2  823   3.546   1.218   1.934
  316TIP3   OH2  824   4.055   1.607   2.170
  316TIP3    H1  825   4.139   1.585   2.128
  316TIP3    H2  826   4.052   1.543   2.243
  317TIP3   OH2  827   3.662   0.991   2.165
  317TIP3    H1  828   3.647   0.904   2.125
  317TIP3    H2  829   3.630   1.053   2.097
  318TIP3   OH2  830   3.614   0.739   2.010
  318TIP3    H1  831   3.663   0.795   1.944
  318TIP3    H2  832   3.542   0.708   1.954
  319TIP3   OH2  833   3.701   1.360   1.698
  319TIP3    H1  834   3.794   1.383   1.706
  319TIP3    H2  835   3.662   1.397   1.778
  320TIP3   OH2  836   4.274   1.282   2.221
  320TIP3    H1  837   4.321   1.201   2.248
  320TIP3    H2  838   4.347   1.339   2.194
  321TIP3   OH2  839   4.317   1.539   1.961
  321TIP3    H1  840   4.258   1.590   1.901
  321TIP3    H2  841   4.404   1.560   1.920
  322TIP3   OH2  842   3.533   1.109   2.380
  322TIP3    H1  843   3.465   1.042   2.398
  322TIP3    H2  844   3.574   1.073   2.299
  323TIP3   OH2  845   3.805   0.538   2.033
  323TIP3    H1  846   3.745   0.615   2.029
  323TIP3    H2  847   3.750   0.467   1.998
  324TIP3   OH2  848   3.925   1.052   2.255
  324TIP3    H1  849   3.923   1.040   2.352
  324TIP3    H2  850   3.834   1.023   2.233
  325TIP3   OH2  851   4.163   0.996   2.107
  325TIP3    H1  852   4.089   0.998   2.171
  325TIP3    H2  853   4.237   0.966   2.163
  326TIP3   OH2  854   4.395   0.937   2.255
  326TIP3    H1  855   4.405   0.842   2.277
  326TIP3    H2  856   4.387   0.979   2.343
  327TIP3   OH2  857   3.385   0.887   2.440
  327TIP3    H1  858   3.388   0.793   2.410
  327TIP3    H2  859   3.420   0.878   2.531
  328TIP3   OH2  860   3.878   0.556   2.301
  328TIP3    H1  861   3.958   0.499   2.301
  328TIP3    H2  862   3.853   0.546   2.207
  329TIP3   OH2  863   3.958   0.769   2.454
  329TIP3    H1  864   3.935   0.697   2.392
  329TIP3    H2  865   3.880   0.828   2.448
  330TIP3   OH2  866   4.438   2.241   1.170
  330TIP3    H1  867   4.461   2.275   1.258
  330TIP3    H2  868   4.496   2.293   1.112
  331TIP3   OH2  869   4.467   2.263   1.451
  331TIP3    H1  870   4.423   2.176   1.447
  331TIP3    H2  871   4.540   2.243   1.511
  332TIP3   OH2  872   4.511   1.941   2.024
  332TIP3    H1  873   4.439   1.948   2.089
  332TIP3    H2  874   4.553   2.029   2.030
  333TIP3   OH2  875   4.339   1.479   0.659
  333TIP3    H1  876   4.421   1.526   0.636
  333TIP3    H2  877   4.373   1.409   0.717
  334TIP3   OH2  878   4.468   1.314   0.844
  334TIP3    H1  879   4.393   1.275   0.894
  334TIP3    H2  880   4.515   1.363   0.913
  335TIP3   OH2  881   4.511   1.713   1.282
  335TIP3    H1  882   4.563   1.650   1.230
  335TIP3    H2  883   4.500   1.788   1.220
  336TIP3   OH2  884   4.342   2.014   1.476
  336TIP3    H1  885   4.271   2.056   1.528
  336TIP3    H2  886   4.291   1.966   1.407
  337TIP3   OH2  887   4.285   1.182   1.001
  337TIP3    H1  888   4.277   1.086   1.002
  337TIP3    H2  889   4.269   1.204   1.095
  338TIP3   OH2  890   4.559   1.603   1.852
  338TIP3    H1  891   4.631   1.537   1.843
  338TIP3    H2  892   4.588   1.673   1.791
  339TIP3   OH2  893   4.746   1.410   1.866
  339TIP3    H1  894   4.672   1.360   1.907
  339TIP3    H2  895   4.819   1.347   1.881
  340TIP3   OH2  896   4.432   1.064   1.384
  340TIP3    H1  897   4.518   1.093   1.346
  340TIP3    H2  898   4.440   1.102   1.473
  341TIP3   OH2  899   4.504   1.208   1.614
  341TIP3    H1  900   4.431   1.242   1.670
  341TIP3    H2  901   4.533   1.290   1.569
  342TIP3   OH2  902   3.123   0.952   2.430
  342TIP3    H1  903   3.220   0.936   2.429
  342TIP3    H2  904   3.089   0.864   2.450
  343TIP3   OH2  905   4.930   0.769   2.156
  343TIP3    H1  906   5.009   0.738   2.111
  343TIP3    H2  907   4.928   0.863   2.135
  344TIP3   OH2  908   4.823   0.955   1.975
  344TIP3    H1  909   4.738   0.987   2.010
  344TIP3    H2  910   4.794   0.874   1.930
  345TIP3   OH2  911   4.028   2.106   0.832
  345TIP3    H1  912   4.075   2.093   0.747
  345TIP3    H2  913   4.077   2.178   0.873
  346TIP3   OH2  914   3.122   1.876   2.215
  346TIP3    H1  915   3.024   1.876   2.207
  346TIP3    H2  916   3.133   1.904   2.307
  347TIP3   OH2  917   3.299   1.969   1.768
  347TIP3    H1  918   3.250   2.042   1.724
  347TIP3    H2  919   3.384   1.980   1.722
  348TIP3   OH2  920   3.745   2.191   1.898
  348TIP3    H1  921   3.787   2.192   1.987
  348TIP3    H2  922   3.811   2.242   1.846
  349TIP3   OH2  923   3.925   2.342   1.757
  349TIP3    H1  924   3.997   2.292   1.716
  349TIP3    H2  925   3.975   2.400   1.818
  350TIP3   OH2  926   4.719   0.713   1.857
  350TIP3    H1  927   4.626   0.707   1.828
  350TIP3    H2  928   4.748   0.620   1.843
  351TIP3   OH2  929   2.980   2.208   1.785
  351TIP3    H1  930   2.890   2.237   1.758
  351TIP3    H2  931   2.982   2.241   1.875
  352TIP3   OH2  932   3.212   2.191   1.638
  352TIP3    H1  933   3.125   2.203   1.683
  352TIP3    H2  934   3.191   2.223   1.548
  353TIP3   OH2  935   3.639   2.211   1.440
  353TIP3    H1  936   3.570   2.231   1.374
  353TIP3    H2  937   3.651   2.299   1.481
  354TIP3   OH2  938   3.907   2.150   1.490
  354TIP3    H1  939   3.813   2.167   1.472
  354TIP3    H2  940   3.949   2.227   1.450
  355TIP3   OH2  941   4.117   2.343   1.407
  355TIP3    H1  942   4.101   2.428   1.360
  355TIP3    H2  943   4.141   2.283   1.334
  356TIP3   OH2  944   2.914   2.007   1.526
  356TIP3    H1  945   2.898   1.971   1.616
  356TIP3    H2  946   2.995   1.955   1.503
  357TIP3   OH2  947   3.107   1.860   1.406
  357TIP3    H1  948   3.129   1.777   1.453
  357TIP3    H2  949   3.195   1.898   1.388
  358TIP3   OH2  950   3.364   1.972   1.384
  358TIP3    H1  951   3.397   1.882   1.368
  358TIP3    H2  952   3.402   1.990   1.472
  359TIP3   OH2  953   4.476   0.496   1.400
  359TIP3    H1  954   4.505   0.545   1.319
  359TIP3    H2  955   4.380   0.493   1.390
  360TIP3   OH2  956   4.574   0.602   1.176
  360TIP3    H1  957   4.597   0.544   1.103
  360TIP3    H2  958   4.607   0.690   1.148
  361TIP3   OH2  959   4.169   2.072   0.592
  361TIP3    H1  960   4.158   1.975   0.580
  361TIP3    H2  961   4.117   2.106   0.517
  362TIP3   OH2  962   3.395   0.620   2.396
  362TIP3    H1  963   3.370   0.530   2.427
  362TIP3    H2  964   3.488   0.622   2.426
  363TIP3   OH2  965   3.644   0.611   2.508
  363TIP3    H1  966   3.726   0.584   2.462
  363TIP3    H2  967   3.634   0.539   2.573
  364TIP3   OH2  968   4.448   0.666   2.291
  364TIP3    H1  969   4.466   0.636   2.383
  364TIP3    H2  970   4.537   0.662   2.251
  365TIP3   OH2  971   4.395   2.221   1.781
  365TIP3    H1  972   4.315   2.189   1.735
  365TIP3    H2  973   4.374   2.317   1.786
  366TIP3   OH2  974   5.646   1.554   0.918
  366TIP3    H1  975   5.711   1.567   0.992
  366TIP3    H2  976   5.565   1.559   0.971
  367TIP3   OH2  977   4.965   1.486   1.287
  367TIP3    H1  978   4.990   1.419   1.354
  367TIP3    H2  979   5.028   1.556   1.308
  368TIP3   OH2  980   5.922   1.866   0.625
  368TIP3    H1  981   5.901   1.827   0.711
  368TIP3    H2  982   5.914   1.960   0.644
  369TIP3   OH2  983   4.927   1.899   1.021
  369TIP3    H1  984   4.920   1.801   1.025
  369TIP3    H2  985   5.024   1.908   1.015
  370TIP3   OH2  986   4.636   1.096   0.802
  370TIP3    H1  987   4.592   1.184   0.804
  370TIP3    H2  988   4.563   1.041   0.831
  371TIP3   OH2  989   4.703   1.395   0.982
  371TIP3    H1  990   4.749   1.315   1.015
  371TIP3    H2  991   4.750   1.414   0.901
  372TIP3   OH2  992   5.568   2.339   0.610
  372TIP3    H1  993   5.574   2.253   0.564
  372TIP3    H2  994   5.545   2.310   0.699
  373TIP3   OH2  995   5.457   1.815   0.979
  373TIP3    H1  996   5.485   1.784   0.892
  373TIP3    H2  997   5.540   1.854   1.012
  374TIP3   OH2  998   6.424   1.177   1.008
  374TIP3    H1  999   6.485   1.219   1.072
  374TIP3    H2 1000   6.433   1.240   0.935
  375TIP3   OH2 1001   5.870   1.318   1.025
  375TIP3    H1 1002   5.916   1.239   1.060
  375TIP3    H2 1003   5.842   1.283   0.941
  376TIP3   OH2 1004   5.206   0.977   0.974
  376TIP3    H1 1005   5.183   1.051   0.913
  376TIP3    H2 1006   5.153   0.905   0.933
  377TIP3   OH2 1007   4.842   1.182   1.082
  377TIP3    H1 1008   4.923   1.162   1.133
  377TIP3    H2 1009   4.857   1.125   1.003
  378TIP3   OH2 1010   5.296   1.374   0.856
  378TIP3    H1 1011   5.362   1.324   0.905
  378TIP3    H2 1012   5.236   1.301   0.829
  379TIP3   OH2 1013   6.555   1.369   1.152
  379TIP3    H1 1014   6.466   1.410   1.142
  379TIP3    H2 1015   6.560   1.364   1.249
  380TIP3   OH2 1016   5.203   0.961   1.410
  380TIP3    H1 1017   5.141   1.000   1.346
  380TIP3    H2 1018   5.152   0.977   1.493
  381TIP3   OH2 1019   5.307   1.737   1.208
  381TIP3    H1 1020   5.243   1.801   1.248
  381TIP3    H2 1021   5.348   1.791   1.138
  382TIP3   OH2 1022   5.074   1.078   1.195
  382TIP3    H1 1023   5.136   1.151   1.220
  382TIP3    H2 1024   5.125   1.037   1.121
  383TIP3   OH2 1025   5.137   1.930   1.303
  383TIP3    H1 1026   5.111   2.017   1.265
  383TIP3    H2 1027   5.058   1.915   1.360
  384TIP3   OH2 1028   4.555   1.622   0.557
  384TIP3    H1 1029   4.500   1.631   0.476
  384TIP3    H2 1030   4.566   1.715   0.586
  385TIP3   OH2 1031   5.977   2.140   0.781
  385TIP3    H1 1032   5.888   2.128   0.821
  385TIP3    H2 1033   5.964   2.225   0.734
  386TIP3   OH2 1034   6.237   1.047   1.164
  386TIP3    H1 1035   6.154   1.073   1.121
  386TIP3    H2 1036   6.303   1.076   1.098
  387TIP3   OH2 1037   5.566   0.715   1.134
  387TIP3    H1 1038   5.551   0.619   1.126
  387TIP3    H2 1039   5.484   0.743   1.180
  388TIP3   OH2 1040   5.842   1.929   0.319
  388TIP3    H1 1041   5.746   1.950   0.337
  388TIP3    H2 1042   5.871   1.946   0.410
  389TIP3   OH2 1043   6.198   2.052   1.123
  389TIP3    H1 1044   6.187   1.974   1.064
  389TIP3    H2 1045   6.180   2.127   1.062
  390TIP3   OH2 1046   5.498   1.434   0.367
  390TIP3    H1 1047   5.410   1.475   0.377
  390TIP3    H2 1048   5.532   1.487   0.294
  391TIP3   OH2 1049   6.392   1.684   0.962
  391TIP3    H1 1050   6.310   1.738   0.972
  391TIP3    H2 1051   6.421   1.711   0.873
  392TIP3   OH2 1052   5.801   1.539   0.400
  392TIP3    H1 1053   5.746   1.601   0.450
  392TIP3    H2 1054   5.891   1.569   0.422
  393TIP3   OH2 1055   6.072   1.569   1.264
  393TIP3    H1 1056   6.072   1.649   1.320
  393TIP3    H2 1057   5.987   1.578   1.218
  394TIP3   OH2 1058   5.067   1.519   0.769
  394TIP3    H1 1059   5.025   1.464   0.700
  394TIP3    H2 1060   5.149   1.468   0.787
  395TIP3   OH2 1061   5.195   1.937   0.917
  395TIP3    H1 1062   5.175   1.898   0.831
  395TIP3    H2 1063   5.285   1.903   0.936
  396TIP3   OH2 1064   5.228   1.490   1.119
  396TIP3    H1 1065   5.233   1.497   1.023
  396TIP3    H2 1066   5.250   1.581   1.149
  397TIP3   OH2 1067   5.741   2.130   0.908
  397TIP3    H1 1068   5.718   2.214   0.952
  397TIP3    H2 1069   5.713   2.063   0.971
  398TIP3   OH2 1070   5.343   2.052   1.445
  398TIP3    H1 1071   5.285   2.115   1.493
  398TIP3    H2 1072   5.276   1.999   1.398
  399TIP3   OH2 1073   5.094   1.612   1.539
  399TIP3    H1 1074   5.102   1.696   1.589
  399TIP3    H2 1075   5.001   1.589   1.561
  400TIP3   OH2 1076   5.138   2.220   1.534
  400TIP3    H1 1077   5.102   2.219   1.444
  400TIP3    H2 1078   5.060   2.199   1.589
  401TIP3   OH2 1079   4.938   1.364   0.571
  401TIP3    H1 1080   4.882   1.426   0.518
  401TIP3    H2 1081   4.877   1.290   0.583
  402TIP3   OH2 1082   4.718   1.750   1.480
  402TIP3    H1 1083   4.650   1.729   1.413
  402TIP3    H2 1084   4.753   1.662   1.505
  403TIP3   OH2 1085   4.571   1.944   1.113
  403TIP3    H1 1086   4.667   1.942   1.107
  403TIP3    H2 1087   4.557   2.024   1.167
  404TIP3   OH2 1088   6.437   2.394   1.168
  404TIP3    H1 1089   6.434   2.298   1.184
  404TIP3    H2 1090   6.354   2.421   1.214
  405TIP3   OH2 1091   5.542   2.181   1.302
  405TIP3    H1 1092   5.541   2.274   1.336
  405TIP3    H2 1093   5.470   2.142   1.357
  406TIP3   OH2 1094   5.297   2.319   0.242
  406TIP3    H1 1095   5.250   2.301   0.159
  406TIP3    H2 1096   5.265   2.407   0.268
  407TIP3   OH2 1097   4.739   2.161   0.639
  407TIP3    H1 1098   4.787   2.152   0.724
  407TIP3    H2 1099   4.681   2.083   0.644
  408TIP3   OH2 1100   5.486   2.227  -0.074
  408TIP3    H1 1101   5.558   2.177  -0.117
  408TIP3    H2 1102   5.522   2.234   0.017
  409TIP3   OH2 1103   5.556   2.261   0.188
  409TIP3    H1 1104   5.465   2.267   0.223
  409TIP3    H2 1105   5.600   2.215   0.261
  410TIP3   OH2 1106   6.328   1.530   1.443
  410TIP3    H1 1107   6.244   1.540   1.395
  410TIP3    H2 1108   6.346   1.435   1.430
  411TIP3   OH2 1109   4.922   1.933   1.469
  411TIP3    H1 1110   4.971   1.918   1.553
  411TIP3    H2 1111   4.848   1.870   1.478
  412TIP3   OH2 1112   5.319   0.763   1.252
  412TIP3    H1 1113   5.230   0.729   1.227
  412TIP3    H2 1114   5.291   0.842   1.302
  413TIP3   OH2 1115   5.854   0.881   1.452
  413TIP3    H1 1116   5.925   0.850   1.513
  413TIP3    H2 1117   5.773   0.860   1.502
  414TIP3   OH2 1118   6.093   1.303   1.366
  414TIP3    H1 1119   6.045   1.296   1.452
  414TIP3    H2 1120   6.068   1.392   1.335
  415TIP3   OH2 1121   5.254   1.270   1.274
  415TIP3    H1 1122   5.203   1.293   1.355
  415TIP3    H2 1123   5.241   1.352   1.221
  416TIP3   OH2 1124   5.135   1.166   0.791
  416TIP3    H1 1125   5.042   1.138   0.805
  416TIP3    H2 1126   5.150   1.131   0.700
  417TIP3   OH2 1127   5.801   1.524   1.599
  417TIP3    H1 1128   5.779   1.451   1.662
  417TIP3    H2 1129   5.894   1.539   1.622
  418TIP3   OH2 1130   5.073   1.301   1.481
  418TIP3    H1 1131   5.094   1.364   1.551
  418TIP3    H2 1132   5.059   1.219   1.532
  419TIP3   OH2 1133   4.674   0.823   1.056
  419TIP3    H1 1134   4.736   0.859   1.123
  419TIP3    H2 1135   4.726   0.826   0.976
  420TIP3   OH2 1136   5.783   1.527   1.164
  420TIP3    H1 1137   5.824   1.451   1.117
  420TIP3    H2 1138   5.760   1.481   1.248
  421TIP3   OH2 1139   5.471   1.026   0.868
  421TIP3    H1 1140   5.386   0.998   0.907
  421TIP3    H2 1141   5.533   0.961   0.905
  422TIP3   OH2 1142   4.899   1.037   0.855
  422TIP3    H1 1143   4.806   1.047   0.822
  422TIP3    H2 1144   4.922   0.946   0.829
  423TIP3   OH2 1145   5.178   1.055   0.547
  423TIP3    H1 1146   5.276   1.049   0.544
  423TIP3    H2 1147   5.154   1.051   0.454
  424TIP3   OH2 1148   5.939   1.053   1.043
  424TIP3    H1 1149   5.916   1.062   1.138
  424TIP3    H2 1150   5.869   0.990   1.014
  425TIP3   OH2 1151   6.126   2.745   1.268
  425TIP3    H1 1152   6.125   2.772   1.175
  425TIP3    H2 1153   6.203   2.795   1.302
  426TIP3   OH2 1154   5.085   1.856   1.689
  426TIP3    H1 1155   5.163   1.886   1.739
  426TIP3    H2 1156   5.019   1.853   1.761
  427TIP3   OH2 1157   5.578   1.277   0.908
  427TIP3    H1 1158   5.555   1.182   0.895
  427TIP3    H2 1159   5.580   1.278   1.007
  428TIP3   OH2 1160   5.065   0.795   0.819
  428TIP3    H1 1161   5.045   0.710   0.864
  428TIP3    H2 1162   5.125   0.767   0.749
  429TIP3   OH2 1163   5.525   1.224   1.215
  429TIP3    H1 1164   5.435   1.247   1.245
  429TIP3    H2 1165   5.582   1.270   1.279
  430TIP3   OH2 1166   5.274   1.596   0.335
  430TIP3    H1 1167   5.202   1.530   0.325
  430TIP3    H2 1168   5.253   1.634   0.424
  431TIP3   OH2 1169   6.164   1.835   0.959
  431TIP3    H1 1170   6.189   1.885   0.878
  431TIP3    H2 1171   6.077   1.797   0.933
  432TIP3   OH2 1172   5.659   1.915   1.325
  432TIP3    H1 1173   5.682   1.892   1.416
  432TIP3    H2 1174   5.621   2.004   1.335
  433TIP3   OH2 1175   4.961   1.624   1.009
  433TIP3    H1 1176   4.990   1.586   0.924
  433TIP3    H2 1177   4.979   1.553   1.073
  434TIP3   OH2 1178   5.410   1.739   0.135
  434TIP3    H1 1179   5.375   1.830   0.154
  434TIP3    H2 1180   5.371   1.691   0.211
  435TIP3   OH2 1181   4.835   1.537   1.617
  435TIP3    H1 1182   4.855   1.526   1.712
  435TIP3    H2 1183   4.764   1.472   1.604
  436TIP3   OH2 1184   5.558   1.655   1.635
  436TIP3    H1 1185   5.498   1.589   1.595
  436TIP3    H2 1186   5.645   1.619   1.610
  437TIP3   OH2 1187   5.820   2.168   1.224
  437TIP3    H1 1188   5.723   2.173   1.237
  437TIP3    H2 1189   5.850   2.223   1.300
  438TIP3   OH2 1190   6.449   2.102   1.213
  438TIP3    H1 1191   6.351   2.099   1.205
  438TIP3    H2 1192   6.474   2.074   1.122
  439TIP3   OH2 1193   5.939   2.050   0.039
  439TIP3    H1 1194   5.917   2.022   0.130
  439TIP3    H2 1195   5.873   2.001  -0.013
  440TIP3   OH2 1196   5.932   1.702   0.877
  440TIP3    H1 1197   5.841   1.684   0.902
  440TIP3    H2 1198   5.959   1.616   0.840
  441TIP3   OH2 1199   5.056   1.920   0.629
  441TIP3    H1 1200   5.059   2.001   0.576
  441TIP3    H2 1201   4.961   1.909   0.640
  442TIP3   OH2 1202   4.667   1.261   0.426
  442TIP3    H1 1203   4.703   1.352   0.418
  442TIP3    H2 1204   4.583   1.271   0.378
  443TIP3   OH2 1205   5.198   1.686   0.581
  443TIP3    H1 1206   5.165   1.777   0.591
  443TIP3    H2 1207   5.148   1.640   0.651
  444TIP3   OH2 1208   5.323   2.266   1.099
  444TIP3    H1 1209   5.363   2.339   1.049
  444TIP3    H2 1210   5.399   2.234   1.151
  445TIP3   OH2 1211   4.972   2.160   0.483
  445TIP3    H1 1212   4.886   2.170   0.529
  445TIP3    H2 1213   5.005   2.252   0.484
  446TIP3   OH2 1214   5.712   1.883   1.060
  446TIP3    H1 1215   5.698   1.894   1.157
  446TIP3    H2 1216   5.808   1.870   1.058
  447TIP3   OH2 1217   5.745   1.837  -0.026
  447TIP3    H1 1218   5.787   1.788   0.047
  447TIP3    H2 1219   5.680   1.892   0.020
  448TIP3   OH2 1220   5.960   2.432   1.108
  448TIP3    H1 1221   5.879   2.378   1.100
  448TIP3    H2 1222   5.944   2.499   1.037
  449TIP3   OH2 1223   5.995   2.272  -0.187
  449TIP3    H1 1224   6.057   2.321  -0.241
  449TIP3    H2 1225   5.924   2.338  -0.170
  450TIP3   OH2 1226   5.046   1.042   1.625
  450TIP3    H1 1227   4.951   1.052   1.645
  450TIP3    H2 1228   5.076   0.990   1.702
  451TIP3   OH2 1229   5.864   1.701   0.186
  451TIP3    H1 1230   5.811   1.661   0.257
  451TIP3    H2 1231   5.883   1.789   0.229
  452TIP3   OH2 1232   4.763   2.130   1.257
  452TIP3    H1 1233   4.814   2.054   1.292
  452TIP3    H2 1234   4.786   2.198   1.322
  453TIP3   OH2 1235   5.039   1.778  -0.065
  453TIP3    H1 1236   5.103   1.706  -0.080
  453TIP3    H2 1237   5.025   1.775   0.031
  454TIP3   OH2 1238   5.001   1.778   0.211
  454TIP3    H1 1239   5.072   1.755   0.273
  454TIP3    H2 1240   5.004   1.876   0.215
  455TIP3   OH2 1241   4.764   1.515   0.425
  455TIP3    H1 1242   4.696   1.552   0.486
  455TIP3    H2 1243   4.761   1.583   0.354
  456TIP3   OH2 1244   5.886   1.107   1.303
  456TIP3    H1 1245   5.963   1.147   1.347
  456TIP3    H2 1246   5.870   1.028   1.359
  457TIP3   OH2 1247   5.263   1.968   0.161
  457TIP3    H1 1248   5.183   2.005   0.202
  457TIP3    H2 1249   5.284   2.038   0.098
  458TIP3   OH2 1250   5.454   1.054   0.579
  458TIP3    H1 1251   5.547   1.056   0.551
  458TIP3    H2 1252   5.462   1.030   0.673
  459TIP3   OH2 1253   5.727   1.364   1.379
  459TIP3    H1 1254   5.740   1.416   1.461
  459TIP3    H2 1255   5.778   1.284   1.399
  460TIP3   OH2 1256   5.000   2.048   0.230
  460TIP3    H1 1257   4.975   2.120   0.168
  460TIP3    H2 1258   4.988   2.093   0.317
  461TIP3   OH2 1259   6.361   1.269   1.351
  461TIP3    H1 1260   6.263   1.266   1.365
  461TIP3    H2 1261   6.368   1.200   1.284
  462TIP3   OH2 1262   5.975   1.447   0.775
  462TIP3    H1 1263   5.970   1.355   0.748
  462TIP3    H2 1264   6.068   1.443   0.807
  463TIP3   OH2 1265   4.727   1.698   0.222
  463TIP3    H1 1266   4.799   1.763   0.232
  463TIP3    H2 1267   4.765   1.642   0.151
  464TIP3   OH2 1268   5.980   2.411   0.701
  464TIP3    H1 1269   5.935   2.459   0.629
  464TIP3    H2 1270   6.074   2.432   0.679
  465TIP3   OH2 1271   5.057   0.680   1.228
  465TIP3    H1 1272   5.026   0.639   1.144
  465TIP3    H2 1273   5.048   0.604   1.291
  466TIP3   OH2 1274   4.596   1.899   0.611
  466TIP3    H1 1275   4.523   1.929   0.667
  466TIP3    H2 1276   4.570   1.938   0.524
  467TIP3   OH2 1277   4.751   2.437   1.679
  467TIP3    H1 1278   4.837   2.436   1.727
  467TIP3    H2 1279   4.730   2.342   1.679
  468TIP3   OH2 1280   5.235   2.405   1.723
  468TIP3    H1 1281   5.329   2.383   1.732
  468TIP3    H2 1282   5.209   2.345   1.650
  469TIP3   OH2 1283   5.212   1.984  -0.134
  469TIP3    H1 1284   5.142   1.918  -0.113
  469TIP3    H2 1285   5.277   1.932  -0.181
  470TIP3   OH2 1286   5.877   2.305   1.454
  470TIP3    H1 1287   5.865   2.238   1.525
  470TIP3    H2 1288   5.951   2.359   1.489
  471TIP3   OH2 1289   5.706   2.091  -0.156
  471TIP3    H1 1290   5.713   2.004  -0.200
  471TIP3    H2 1291   5.755   2.146  -0.219
  472TIP3   OH2 1292   4.884   1.845   1.879
  472TIP3    H1 1293   4.900   1.749   1.889
  472TIP3    H2 1294   4.795   1.846   1.837
  473TIP3   OH2 1295   4.860   1.492   0.067
  473TIP3    H1 1296   4.925   1.470   0.135
  473TIP3    H2 1297   4.914   1.531  -0.003
  474TIP3   OH2 1298   5.493   1.930   1.653
  474TIP3    H1 1299   5.447   1.944   1.568
  474TIP3    H2 1300   5.522   1.836   1.647
  475TIP3   OH2 1301   5.265   1.626  -0.084
  475TIP3    H1 1302   5.289   1.676  -0.004
  475TIP3    H2 1303   5.353   1.633  -0.129
  476TIP3   OH2 1304   5.980   1.933   1.252
  476TIP3    H1 1305   6.056   1.982   1.214
  476TIP3    H2 1306   5.912   2.003   1.250
  477TIP3   OH2 1307   5.005   1.578   1.860
  477TIP3    H1 1308   5.072   1.509   1.851
  477TIP3    H2 1309   5.026   1.612   1.949
  478TIP3   OH2 1310   5.083   1.402   0.312
  478TIP3    H1 1311   5.043   1.363   0.391
  478TIP3    H2 1312   5.070   1.333   0.244
  479TIP3   OH2 1313   5.339   1.464   1.524
  479TIP3    H1 1314   5.260   1.522   1.528
  479TIP3    H2 1315   5.384   1.497   1.443
  480TIP3   OH2 1316   5.853   1.864   1.657
  480TIP3    H1 1317   5.938   1.842   1.616
  480TIP3    H2 1318   5.848   1.799   1.729
  481TIP3   OH2 1319   5.462   1.250   1.649
  481TIP3    H1 1320   5.459   1.170   1.594
  481TIP3    H2 1321   5.415   1.317   1.594
  482TIP3   OH2 1322   5.460   1.041   1.452
  482TIP3    H1 1323   5.486   1.074   1.364
  482TIP3    H2 1324   5.366   1.017   1.437
  483TIP3   OH2 1325   5.491   1.569   1.322
  483TIP3    H1 1326   5.577   1.590   1.284
  483TIP3    H2 1327   5.433   1.639   1.285
  484TIP3   OH2 1328   6.071   1.539   1.710
  484TIP3    H1 1329   6.119   1.456   1.728
  484TIP3    H2 1330   6.143   1.596   1.681
  485TIP3   OH2 1331   6.113   1.792   1.443
  485TIP3    H1 1332   6.054   1.845   1.385
  485TIP3    H2 1333   6.200   1.813   1.404
  486TIP3   OH2 1334   5.339   1.367   1.876
  486TIP3    H1 1335   5.267   1.303   1.896
  486TIP3    H2 1336   5.373   1.332   1.792
  487TIP3   OH2 1337   5.594   0.808   1.527
  487TIP3    H1 1338   5.541   0.887   1.504
  487TIP3    H2 1339   5.529   0.735   1.515
  488TIP3   OH2 1340   5.720   1.307   1.741
  488TIP3    H1 1341   5.710   1.295   1.838
  488TIP3    H2 1342   5.630   1.282   1.713
  489TIP3   OH2 1343   5.958   1.252   1.594
  489TIP3    H1 1344   5.884   1.255   1.658
  489TIP3    H2 1345   6.033   1.222   1.651
  490TIP3   OH2 1346   6.189   1.196   1.744
  490TIP3    H1 1347   6.202   1.100   1.762
  490TIP3    H2 1348   6.184   1.234   1.834
  491TIP3   OH2 1349   5.175   1.147   1.918
  491TIP3    H1 1350   5.183   1.054   1.892
  491TIP3    H2 1351   5.216   1.142   2.007
  492TIP3   OH2 1352   5.688   0.809   1.784
  492TIP3    H1 1353   5.757   0.741   1.778
  492TIP3    H2 1354   5.650   0.804   1.694
  493TIP3   OH2 1355   5.756   1.027   1.940
  493TIP3    H1 1356   5.732   0.955   1.877
  493TIP3    H2 1357   5.677   1.086   1.936
  494TIP3   OH2 1358   4.962   2.250   0.045
  494TIP3    H1 1359   5.057   2.249   0.021
  494TIP3    H2 1360   4.923   2.294  -0.031
  495TIP3   OH2 1361   4.473   1.602   0.280
  495TIP3    H1 1362   4.560   1.645   0.264
  495TIP3    H2 1363   4.436   1.609   0.191
  496TIP3   OH2 1364   4.371   2.247   0.667
  496TIP3    H1 1365   4.302   2.186   0.635
  496TIP3    H2 1366   4.414   2.191   0.736
  497TIP3   OH2 1367   4.506   2.101   0.857
  497TIP3    H1 1368   4.492   2.028   0.918
  497TIP3    H2 1369   4.556   2.162   0.914
  498TIP3   OH2 1370   6.232   2.506   0.655
  498TIP3    H1 1371   6.259   2.534   0.744
  498TIP3    H2 1372   6.303   2.541   0.599
  499TIP3   OH2 1373   6.264   2.520   0.937
  499TIP3    H1 1374   6.219   2.432   0.935
  499TIP3    H2 1375   6.337   2.499   0.997
  500TIP3   OH2 1376   6.308   2.197   1.511
  500TIP3    H1 1377   6.235   2.205   1.576
  500TIP3    H2 1378   6.349   2.285   1.516
  501TIP3   OH2 1379   6.311   1.968   0.770
  501TIP3    H1 1380   6.355   1.906   0.709
  501TIP3    H2 1381   6.296   2.045   0.712
  502TIP3   OH2 1382   6.139   2.271   0.964
  502TIP3    H1 1383   6.068   2.313   1.016
  502TIP3    H2 1384   6.088   2.224   0.895
  503TIP3   OH2 1385   6.140   1.384   0.538
  503TIP3    H1 1386   6.203   1.380   0.464
  503TIP3    H2 1387   6.147   1.476   0.567
  504TIP3   OH2 1388   4.696   1.508   1.231
  504TIP3    H1 1389   4.691   1.478   1.138
  504TIP3    H2 1390   4.793   1.508   1.245
  505TIP3   OH2 1391   6.356   1.858   1.338
  505TIP3    H1 1392   6.429   1.793   1.330
  505TIP3    H2 1393   6.386   1.930   1.279
  506TIP3   OH2 1394   6.544   1.665   1.354
  506TIP3    H1 1395   6.469   1.616   1.394
  506TIP3    H2 1396   6.616   1.601   1.373
  507TIP3   OH2 1397   6.214   1.361   0.870
  507TIP3    H1 1398   6.301   1.369   0.827
  507TIP3    H2 1399   6.237   1.371   0.964
  508TIP3   OH2 1400   6.296   1.471   1.110
  508TIP3    H1 1401   6.217   1.501   1.158
  508TIP3    H2 1402   6.325   1.553   1.064
  509TIP3   OH2 1403   4.911   1.200   1.898
  509TIP3    H1 1404   5.009   1.193   1.905
  509TIP3    H2 1405   4.885   1.115   1.939
  510TIP3   OH2 1406   6.733   1.074   1.667
  510TIP3    H1 1407   6.796   1.006   1.636
  510TIP3    H2 1408   6.713   1.124   1.585
  511TIP3   OH2 1409   4.873   0.887   1.229
  511TIP3    H1 1410   4.934   0.812   1.244
  511TIP3    H2 1411   4.935   0.962   1.231
  512TIP3   OH2 1412   4.678   1.159   1.308
  512TIP3    H1 1413   4.727   1.160   1.223
  512TIP3    H2 1414   4.699   1.246   1.344
  513TIP3   OH2 1415   6.616   1.207   1.461
  513TIP3    H1 1416   6.528   1.239   1.489
  513TIP3    H2 1417   6.589   1.131   1.406
  514TIP3   OH2 1418   5.807   2.392   0.313
  514TIP3    H1 1419   5.850   2.352   0.235
  514TIP3    H2 1420   5.882   2.409   0.371
  515TIP3   OH2 1421   4.876   0.736   1.619
  515TIP3    H1 1422   4.830   0.740   1.705
  515TIP3    H2 1423   4.811   0.781   1.562
  516TIP3   OH2 1424   4.919   2.170   1.701
  516TIP3    H1 1425   4.826   2.143   1.684
  516TIP3    H2 1426   4.927   2.151   1.795
  517TIP3   OH2 1427   5.096   2.200   1.247
  517TIP3    H1 1428   5.046   2.275   1.210
  517TIP3    H2 1429   5.181   2.217   1.202
  518TIP3   OH2 1430   5.542   2.446   1.384
  518TIP3    H1 1431   5.582   2.448   1.474
  518TIP3    H2 1432   5.608   2.500   1.334
  519TIP3   OH2 1433   5.721   2.600   1.243
  519TIP3    H1 1434   5.793   2.548   1.205
  519TIP3    H2 1435   5.771   2.657   1.305
  520TIP3   OH2 1436   6.489   0.979   1.361
  520TIP3    H1 1437   6.418   0.964   1.297
  520TIP3    H2 1438   6.553   0.910   1.335
  521TIP3   OH2 1439   4.774   2.461   1.270
  521TIP3    H1 1440   4.684   2.494   1.247
  521TIP3    H2 1441   4.781   2.495   1.360
  522TIP3   OH2 1442   5.010   2.439   1.129
  522TIP3    H1 1443   4.924   2.452   1.175
  522TIP3    H2 1444   4.989   2.472   1.039
  523TIP3   OH2 1445   5.435   2.469   0.926
  523TIP3    H1 1446   5.364   2.489   0.863
  523TIP3    H2 1447   5.447   2.555   0.970
  524TIP3   OH2 1448   5.702   2.405   0.978
  524TIP3    H1 1449   5.608   2.421   0.958
  524TIP3    H2 1450   5.743   2.483   0.937
  525TIP3   OH2 1451   5.916   2.601   0.895
  525TIP3    H1 1452   5.900   2.683   0.846
  525TIP3    H2 1453   5.938   2.538   0.823
  526TIP3   OH2 1454   4.685   2.255   1.016
  526TIP3    H1 1455   4.710   2.229   1.107
  526TIP3    H2 1456   4.756   2.210   0.966
  527TIP3   OH2 1457   4.877   2.125   0.871
  527TIP3    H1 1458   4.893   2.042   0.922
  527TIP3    H2 1459   4.968   2.163   0.868
  528TIP3   OH2 1460   5.143   2.224   0.874
  528TIP3    H1 1461   5.175   2.133   0.859
  528TIP3    H2 1462   5.185   2.243   0.960
  529TIP3   OH2 1463   5.722   0.880   0.966
  529TIP3    H1 1464   5.675   0.824   1.031
  529TIP3    H2 1465   5.760   0.812   0.907
  530TIP3   OH2 1466   4.982   0.568   0.982
  530TIP3    H1 1467   4.895   0.530   0.967
  530TIP3    H2 1468   5.038   0.489   0.971
  531TIP3   OH2 1469   4.472   2.022   0.406
  531TIP3    H1 1470   4.387   1.989   0.372
  531TIP3    H2 1471   4.457   2.118   0.401
  532TIP3   OH2 1472   5.224   2.227  -0.016
  532TIP3    H1 1473   5.317   2.246  -0.044
  532TIP3    H2 1474   5.212   2.144  -0.069
  533TIP3   OH2 1475   5.959   2.325   0.093
  533TIP3    H1 1476   5.966   2.231   0.063
  533TIP3    H2 1477   5.909   2.362   0.018
  534TIP3   OH2 1478   5.180   0.864   1.859
  534TIP3    H1 1479   5.142   0.799   1.921
  534TIP3    H2 1480   5.273   0.867   1.892
  535TIP3   OH2 1481   5.426   0.851   1.984
  535TIP3    H1 1482   5.514   0.833   1.948
  535TIP3    H2 1483   5.419   0.783   2.053
  536TIP3   OH2 1484   4.557   2.056   0.064
  536TIP3    H1 1485   4.533   2.098   0.148
  536TIP3    H2 1486   4.646   2.026   0.079
  537TIP3   OH2 1487   6.246   0.927   1.778
  537TIP3    H1 1488   6.267   0.893   1.868
  537TIP3    H2 1489   6.333   0.916   1.734
  538TIP3   OH2 1490   6.192   2.477   1.267
  538TIP3    H1 1491   6.111   2.445   1.222
  538TIP3    H2 1492   6.171   2.573   1.273
  539TIP3   OH2 1493   6.750   1.760   0.804
  539TIP3    H1 1494   6.790   1.682   0.846
  539TIP3    H2 1495   6.824   1.823   0.808
  540TIP3   OH2 1496   6.722   2.174   0.515
  540TIP3    H1 1497   6.713   2.079   0.539
  540TIP3    H2 1498   6.819   2.178   0.500
  541TIP3   OH2 1499   7.375   2.576   0.124
  541TIP3    H1 1500   7.357   2.482   0.107
  541TIP3    H2 1501   7.344   2.583   0.216
  542TIP3   OH2 1502   7.106   1.996   0.717
  542TIP3    H1 1503   7.032   2.057   0.741
  542TIP3    H2 1504   7.150   2.047   0.649
  543TIP3   OH2 1505   6.930   2.189   0.790
  543TIP3    H1 1506   6.906   2.276   0.751
  543TIP3    H2 1507   6.851   2.175   0.846
  544TIP3   OH2 1508   7.941   2.305   0.620
  544TIP3    H1 1509   7.876   2.262   0.561
  544TIP3    H2 1510   7.933   2.399   0.594
  545TIP3   OH2 1511   6.989   2.187   0.408
  545TIP3    H1 1512   6.971   2.146   0.322
  545TIP3    H2 1513   7.086   2.187   0.410
  546TIP3   OH2 1514   7.493   2.398   0.360
  546TIP3    H1 1515   7.498   2.486   0.401
  546TIP3    H2 1516   7.506   2.339   0.438
  547TIP3   OH2 1517   7.140   2.306   0.936
  547TIP3    H1 1518   7.082   2.369   0.983
  547TIP3    H2 1519   7.073   2.255   0.886
  548TIP3   OH2 1520   6.917   1.870   1.043
  548TIP3    H1 1521   6.905   1.956   1.089
  548TIP3    H2 1522   6.822   1.844   1.039
  549TIP3   OH2 1523   6.935   2.475   1.020
  549TIP3    H1 1524   6.898   2.476   0.930
  549TIP3    H2 1525   6.856   2.455   1.075
  550TIP3   OH2 1526   6.514   2.006   0.969
  550TIP3    H1 1527   6.447   1.985   0.901
  550TIP3    H2 1528   6.550   1.918   0.992
  551TIP3   OH2 1529   6.369   2.199   0.603
  551TIP3    H1 1530   6.465   2.199   0.590
  551TIP3    H2 1531   6.356   2.278   0.657
  552TIP3   OH2 1532   8.231   2.664   0.654
  552TIP3    H1 1533   8.235   2.566   0.666
  552TIP3    H2 1534   8.147   2.684   0.701
  553TIP3   OH2 1535   7.339   2.436   0.794
  553TIP3    H1 1536   7.341   2.530   0.824
  553TIP3    H2 1537   7.265   2.401   0.848
  554TIP3   OH2 1538   6.525   2.428   0.136
  554TIP3    H1 1539   6.572   2.413   0.221
  554TIP3    H2 1540   6.474   2.344   0.129
  555TIP3   OH2 1541   6.719   2.189   0.956
  555TIP3    H1 1542   6.766   2.176   1.041
  555TIP3    H2 1543   6.643   2.127   0.966
  556TIP3   OH2 1544   7.596   1.813   1.093
  556TIP3    H1 1545   7.560   1.735   1.139
  556TIP3    H2 1546   7.692   1.801   1.105
  557TIP3   OH2 1547   6.876   1.564   0.985
  557TIP3    H1 1548   6.853   1.624   1.056
  557TIP3    H2 1549   6.866   1.477   1.030
  558TIP3   OH2 1550   7.922   3.002   0.759
  558TIP3    H1 1551   7.921   3.025   0.663
  558TIP3    H2 1552   8.000   3.053   0.789
  559TIP3   OH2 1553   6.883   2.111   1.178
  559TIP3    H1 1554   6.959   2.147   1.228
  559TIP3    H2 1555   6.815   2.111   1.249
  560TIP3   OH2 1556   7.448   2.176   0.815
  560TIP3    H1 1557   7.495   2.158   0.898
  560TIP3    H2 1558   7.409   2.264   0.829
  561TIP3   OH2 1559   6.741   1.907   0.564
  561TIP3    H1 1560   6.777   1.861   0.485
  561TIP3    H2 1561   6.745   1.836   0.631
  562TIP3   OH2 1562   6.633   1.791   1.104
  562TIP3    H1 1563   6.650   1.784   1.200
  562TIP3    H2 1564   6.562   1.726   1.093
  563TIP3   OH2 1565   7.631   2.473   0.709
  563TIP3    H1 1566   7.537   2.451   0.711
  563TIP3    H2 1567   7.645   2.512   0.797
  564TIP3   OH2 1568   8.241   2.391   0.695
  564TIP3    H1 1569   8.161   2.361   0.741
  564TIP3    H2 1570   8.244   2.331   0.617
  565TIP3   OH2 1571   6.784   2.207   0.123
  565TIP3    H1 1572   6.786   2.286   0.064
  565TIP3    H2 1573   6.689   2.200   0.141
  566TIP3   OH2 1574   7.120   2.520   0.584
  566TIP3    H1 1575   7.159   2.596   0.535
  566TIP3    H2 1576   7.197   2.490   0.636
  567TIP3   OH2 1577   6.729   2.420  -0.045
  567TIP3    H1 1578   6.652   2.439   0.013
  567TIP3    H2 1579   6.780   2.503  -0.040
  568TIP3   OH2 1580   7.552   2.221   0.567
  568TIP3    H1 1581   7.510   2.204   0.654
  568TIP3    H2 1582   7.630   2.162   0.572
  569TIP3   OH2 1583   7.764   2.696   0.592
  569TIP3    H1 1584   7.690   2.632   0.599
  569TIP3    H2 1585   7.732   2.757   0.521
  570TIP3   OH2 1586   6.846   1.325   1.124
  570TIP3    H1 1587   6.748   1.322   1.131
  570TIP3    H2 1588   6.866   1.239   1.166
  571TIP3   OH2 1589   6.557   2.388   0.746
  571TIP3    H1 1590   6.609   2.312   0.776
  571TIP3    H2 1591   6.584   2.455   0.810
  572TIP3   OH2 1592   7.790   2.679   0.187
  572TIP3    H1 1593   7.737   2.733   0.124
  572TIP3    H2 1594   7.879   2.718   0.171
  573TIP3   OH2 1595   6.415   2.177   0.115
  573TIP3    H1 1596   6.326   2.170   0.152
  573TIP3    H2 1597   6.391   2.191   0.021
  574TIP3   OH2 1598   6.548   2.694   1.165
  574TIP3    H1 1599   6.633   2.695   1.214
  574TIP3    H2 1600   6.527   2.599   1.167
  575TIP3   OH2 1601   7.030   2.661   1.211
  575TIP3    H1 1602   7.125   2.643   1.220
  575TIP3    H2 1603   7.007   2.601   1.137
  576TIP3   OH2 1604   7.666   2.572   0.959
  576TIP3    H1 1605   7.661   2.499   1.026
  576TIP3    H2 1606   7.747   2.620   0.987
  577TIP3   OH2 1607   6.680   2.101   1.365
  577TIP3    H1 1608   6.695   2.005   1.373
  577TIP3    H2 1609   6.591   2.104   1.325
  578TIP3   OH2 1610   7.279   2.169   1.138
  578TIP3    H1 1611   7.248   2.204   1.052
  578TIP3    H2 1612   7.364   2.127   1.117
  579TIP3   OH2 1613   7.757   2.208   0.807
  579TIP3    H1 1614   7.834   2.252   0.766
  579TIP3    H2 1615   7.686   2.267   0.778
  580TIP3   OH2 1616   6.800   1.836   1.348
  580TIP3    H1 1617   6.860   1.761   1.341
  580TIP3    H2 1618   6.822   1.870   1.437
  581TIP3   OH2 1619   7.644   2.119   1.142
  581TIP3    H1 1620   7.725   2.096   1.094
  581TIP3    H2 1621   7.641   2.046   1.207
  582TIP3   OH2 1622   7.246   1.836   0.876
  582TIP3    H1 1623   7.330   1.831   0.824
  582TIP3    H2 1624   7.196   1.892   0.812
  583TIP3   OH2 1625   7.864   1.797   1.192
  583TIP3    H1 1626   7.905   1.732   1.254
  583TIP3    H2 1627   7.939   1.857   1.176
  584TIP3   OH2 1628   7.897   2.042   0.971
  584TIP3    H1 1629   7.832   2.087   0.912
  584TIP3    H2 1630   7.974   2.040   0.911
  585TIP3   OH2 1631   7.120   1.631   1.305
  585TIP3    H1 1632   7.058   1.572   1.353
  585TIP3    H2 1633   7.194   1.570   1.292
  586TIP3   OH2 1634   7.461   1.621   1.242
  586TIP3    H1 1635   7.489   1.580   1.325
  586TIP3    H2 1636   7.491   1.555   1.175
  587TIP3   OH2 1637   6.987   1.415   1.421
  587TIP3    H1 1638   6.973   1.320   1.399
  587TIP3    H2 1639   7.016   1.404   1.514
  588TIP3   OH2 1640   7.562   1.302   1.436
  588TIP3    H1 1641   7.570   1.246   1.357
  588TIP3    H2 1642   7.475   1.346   1.425
  589TIP3   OH2 1643   6.161   2.505   0.157
  589TIP3    H1 1644   6.099   2.438   0.121
  589TIP3    H2 1645   6.211   2.450   0.222
  590TIP3   OH2 1646   6.294   2.367   0.351
  590TIP3    H1 1647   6.290   2.285   0.401
  590TIP3    H2 1648   6.351   2.422   0.408
  591TIP3   OH2 1649   8.046   2.763   0.144
  591TIP3    H1 1650   8.064   2.787   0.237
  591TIP3    H2 1651   8.093   2.837   0.099
  592TIP3   OH2 1652   8.061   2.780   0.424
  592TIP3    H1 1653   8.025   2.690   0.435
  592TIP3    H2 1654   8.141   2.774   0.478
  593TIP3   OH2 1655   8.101   2.456   0.992
  593TIP3    H1 1656   8.032   2.461   1.061
  593TIP3    H2 1657   8.145   2.543   1.001
  594TIP3   OH2 1658   7.940   2.534   0.464
  594TIP3    H1 1659   7.876   2.591   0.511
  594TIP3    H2 1660   7.886   2.495   0.394
  595TIP3   OH2 1661   6.489   1.746   0.711
  595TIP3    H1 1662   6.502   1.733   0.615
  595TIP3    H2 1663   6.581   1.760   0.741
  596TIP3   OH2 1664   6.715   1.459   1.404
  596TIP3    H1 1665   6.811   1.445   1.395
  596TIP3    H2 1666   6.687   1.370   1.434
  597TIP3   OH2 1667   6.465   1.415   0.770
  597TIP3    H1 1668   6.455   1.439   0.676
  597TIP3    H2 1669   6.478   1.501   0.812
  598TIP3   OH2 1670   6.715   2.423   1.187
  598TIP3    H1 1671   6.622   2.399   1.171
  598TIP3    H2 1672   6.724   2.410   1.282
  599TIP3   OH2 1673   6.892   2.458   0.733
  599TIP3    H1 1674   6.843   2.533   0.695
  599TIP3    H2 1675   6.978   2.474   0.689
  600TIP3   OH2 1676   7.338   2.702   0.870
  600TIP3    H1 1677   7.378   2.705   0.960
  600TIP3    H2 1678   7.405   2.755   0.820
  601TIP3   OH2 1679   7.518   2.854   0.730
  601TIP3    H1 1680   7.593   2.807   0.691
  601TIP3    H2 1681   7.566   2.914   0.791
  602TIP3   OH2 1682   6.572   2.717   0.758
  602TIP3    H1 1683   6.481   2.749   0.737
  602TIP3    H2 1684   6.582   2.752   0.847
  603TIP3   OH2 1685   6.807   2.695   0.615
  603TIP3    H1 1686   6.720   2.708   0.661
  603TIP3    H2 1687   6.786   2.726   0.525
  604TIP3   OH2 1688   7.234   2.726   0.407
  604TIP3    H1 1689   7.158   2.747   0.349
  604TIP3    H2 1690   7.246   2.811   0.453
  605TIP3   OH2 1691   7.501   2.662   0.448
  605TIP3    H1 1692   7.407   2.685   0.439
  605TIP3    H2 1693   7.545   2.745   0.424
  606TIP3   OH2 1694   7.696   2.860   0.380
  606TIP3    H1 1695   7.689   2.948   0.337
  606TIP3    H2 1696   7.728   2.806   0.306
  607TIP3   OH2 1697   6.479   2.516   0.508
  607TIP3    H1 1698   6.508   2.488   0.597
  607TIP3    H2 1699   6.549   2.473   0.454
  608TIP3   OH2 1700   6.670   2.392   0.361
  608TIP3    H1 1701   6.686   2.308   0.409
  608TIP3    H2 1702   6.761   2.427   0.353
  609TIP3   OH2 1703   6.937   2.484   0.361
  609TIP3    H1 1704   6.968   2.394   0.341
  609TIP3    H2 1705   6.981   2.500   0.447
  610TIP3   OH2 1706   6.278   2.277  -0.097
  610TIP3    H1 1707   6.200   2.230  -0.130
  610TIP3    H2 1708   6.260   2.367  -0.133
  611TIP3   OH2 1709   6.954   1.146   1.409
  611TIP3    H1 1710   6.925   1.064   1.450
  611TIP3    H2 1711   7.022   1.113   1.347
  612TIP3   OH2 1712   7.251   1.124   1.488
  612TIP3    H1 1713   7.298   1.053   1.444
  612TIP3    H2 1714   7.213   1.076   1.565
  613TIP3   OH2 1715   7.986   2.735   0.757
  613TIP3    H1 1716   7.905   2.708   0.709
  613TIP3    H2 1717   7.971   2.832   0.762
  614TIP3   OH2 1718   8.341   2.948   0.656
  614TIP3    H1 1719   8.428   2.945   0.698
  614TIP3    H2 1720   8.317   2.853   0.652
  615TIP3   OH2 1721   8.455   2.358   0.860
  615TIP3    H1 1722   8.447   2.263   0.872
  615TIP3    H2 1723   8.378   2.377   0.803
  616TIP3   OH2 1724   8.504   2.632   0.681
  616TIP3    H1 1725   8.409   2.644   0.665
  616TIP3    H2 1726   8.513   2.655   0.774
  617TIP3   OH2 1727   8.340   2.974   0.223
  617TIP3    H1 1728   8.270   3.040   0.232
  617TIP3    H2 1729   8.391   2.989   0.303
  618TIP3   OH2 1730   0.694   3.444   2.369
  618TIP3    H1 1731   0.664   3.353   2.350
  618TIP3    H2 1732   0.611   3.482   2.405
  619TIP3   OH2 1733   0.374   3.788   2.444
  619TIP3    H1 1734   0.373   3.815   2.351
  619TIP3    H2 1735   0.451   3.839   2.478
  620TIP3   OH2 1736   0.567   3.248   2.697
  620TIP3    H1 1737   0.490   3.256   2.756
  620TIP3    H2 1738   0.606   3.338   2.702
  621TIP3   OH2 1739   0.441   3.524   2.441
  621TIP3    H1 1740   0.355   3.493   2.473
  621TIP3    H2 1741   0.428   3.621   2.449
  622TIP3   OH2 1742   1.942   3.191   1.278
  622TIP3    H1 1743   1.944   3.126   1.349
  622TIP3    H2 1744   1.974   3.271   1.324
  623TIP3   OH2 1745   1.594   3.659   1.288
  623TIP3    H1 1746   1.638   3.583   1.245
  623TIP3    H2 1747   1.578   3.626   1.377
  624TIP3   OH2 1748   1.535   3.147   1.657
  624TIP3    H1 1749   1.553   3.116   1.568
  624TIP3    H2 1750   1.625   3.175   1.685
  625TIP3   OH2 1751   2.524   2.436   1.634
  625TIP3    H1 1752   2.549   2.516   1.685
  625TIP3    H2 1753   2.535   2.470   1.543
  626TIP3   OH2 1754   2.588   2.639   1.814
  626TIP3    H1 1755   2.508   2.691   1.790
  626TIP3    H2 1756   2.608   2.678   1.900
  627TIP3   OH2 1757   1.393   3.057   1.979
  627TIP3    H1 1758   1.301   3.091   1.970
  627TIP3    H2 1759   1.443   3.132   1.945
  628TIP3   OH2 1760   1.177   3.237   1.976
  628TIP3    H1 1761   1.156   3.322   1.932
  628TIP3    H2 1762   1.102   3.231   2.038
  629TIP3   OH2 1763   2.017   3.438   1.438
  629TIP3    H1 1764   1.928   3.429   1.480
  629TIP3    H2 1765   2.010   3.527   1.399
  630TIP3   OH2 1766   2.329   2.351   1.813
  630TIP3    H1 1767   2.235   2.365   1.794
  630TIP3    H2 1768   2.372   2.384   1.732
  631TIP3   OH2 1769   1.734   3.479   1.131
  631TIP3    H1 1770   1.813   3.425   1.145
  631TIP3    H2 1771   1.769   3.548   1.069
  632TIP3   OH2 1772   2.241   3.359   1.794
  632TIP3    H1 1773   2.239   3.281   1.734
  632TIP3    H2 1774   2.226   3.432   1.731
  633TIP3   OH2 1775   2.441   2.983   1.636
  633TIP3    H1 1776   2.364   3.045   1.639
  633TIP3    H2 1777   2.464   2.988   1.542
  634TIP3   OH2 1778   2.149   2.872   1.940
  634TIP3    H1 1779   2.134   2.957   1.986
  634TIP3    H2 1780   2.061   2.861   1.896
  635TIP3   OH2 1781   1.778   3.434   1.563
  635TIP3    H1 1782   1.762   3.516   1.613
  635TIP3    H2 1783   1.771   3.365   1.631
  636TIP3   OH2 1784   1.389   3.355   2.108
  636TIP3    H1 1785   1.332   3.417   2.157
  636TIP3    H2 1786   1.321   3.302   2.062
  637TIP3   OH2 1787   1.139   2.938   2.218
  637TIP3    H1 1788   1.144   3.023   2.267
  637TIP3    H2 1789   1.052   2.904   2.246
  638TIP3   OH2 1790   1.184   3.521   2.198
  638TIP3    H1 1791   1.149   3.523   2.107
  638TIP3    H2 1792   1.104   3.500   2.251
  639TIP3   OH2 1793   2.481   3.696   1.832
  639TIP3    H1 1794   2.480   3.599   1.846
  639TIP3    H2 1795   2.398   3.722   1.878
  640TIP3   OH2 1796   1.588   3.485   1.967
  640TIP3    H1 1797   1.587   3.577   2.001
  640TIP3    H2 1798   1.516   3.445   2.022
  641TIP3   OH2 1799   2.370   2.825   2.110
  641TIP3    H1 1800   2.293   2.844   2.053
  641TIP3    H2 1801   2.383   2.730   2.093
  642TIP3   OH2 1802   0.972   3.239   2.153
  642TIP3    H1 1803   1.031   3.237   2.232
  642TIP3    H2 1804   0.923   3.157   2.164
  643TIP3   OH2 1805   2.140   2.599   2.028
  643TIP3    H1 1806   2.089   2.595   2.112
  643TIP3    H2 1807   2.120   2.689   1.996
  644TIP3   OH2 1808   1.853   2.827   2.261
  644TIP3    H1 1809   1.828   2.756   2.324
  644TIP3    H2 1810   1.946   2.840   2.286
  645TIP3   OH2 1811   1.899   2.818   1.854
  645TIP3    H1 1812   1.841   2.777   1.787
  645TIP3    H2 1813   1.834   2.829   1.925
  646TIP3   OH2 1814   2.170   4.047   1.931
  646TIP3    H1 1815   2.169   4.073   1.837
  646TIP3    H2 1816   2.248   4.095   1.964
  647TIP3   OH2 1817   1.131   3.173   2.366
  647TIP3    H1 1818   1.212   3.199   2.415
  647TIP3    H2 1819   1.065   3.172   2.439
  648TIP3   OH2 1820   2.226   3.150   1.626
  648TIP3    H1 1821   2.252   3.189   1.540
  648TIP3    H2 1822   2.140   3.108   1.604
  649TIP3   OH2 1823   1.694   3.216   1.985
  649TIP3    H1 1824   1.723   3.188   2.073
  649TIP3    H2 1825   1.669   3.308   1.999
  650TIP3   OH2 1826   1.612   2.959   2.310
  650TIP3    H1 1827   1.556   2.901   2.255
  650TIP3    H2 1828   1.700   2.931   2.277
  651TIP3   OH2 1829   1.865   3.470   1.889
  651TIP3    H1 1830   1.768   3.476   1.899
  651TIP3    H2 1831   1.894   3.525   1.964
  652TIP3   OH2 1832   2.494   3.405   1.876
  652TIP3    H1 1833   2.396   3.401   1.869
  652TIP3    H2 1834   2.519   3.374   1.786
  653TIP3   OH2 1835   2.002   3.020   1.555
  653TIP3    H1 1836   1.908   2.999   1.549
  653TIP3    H2 1837   2.039   2.930   1.539
  654TIP3   OH2 1838   1.374   3.560   1.769
  654TIP3    H1 1839   1.408   3.638   1.719
  654TIP3    H2 1840   1.453   3.534   1.820
  655TIP3   OH2 1841   1.790   3.201   1.728
  655TIP3    H1 1842   1.765   3.202   1.823
  655TIP3    H2 1843   1.881   3.169   1.733
  656TIP3   OH2 1844   2.005   3.735   1.771
  656TIP3    H1 1845   1.924   3.681   1.761
  656TIP3    H2 1846   1.991   3.802   1.700
  657TIP3   OH2 1847   0.808   3.423   1.931
  657TIP3    H1 1848   0.862   3.346   1.950
  657TIP3    H2 1849   0.839   3.486   1.997
  658TIP3   OH2 1850   1.910   2.433   1.986
  658TIP3    H1 1851   2.004   2.456   1.993
  658TIP3    H2 1852   1.913   2.337   1.976
  659TIP3   OH2 1853   1.740   2.636   2.074
  659TIP3    H1 1854   1.779   2.707   2.129
  659TIP3    H2 1855   1.816   2.577   2.056
  660TIP3   OH2 1856   2.408   2.560   2.033
  660TIP3    H1 1857   2.309   2.557   2.034
  660TIP3    H2 1858   2.424   2.524   1.944
  661TIP3   OH2 1859   2.062   2.746   1.519
  661TIP3    H1 1860   2.036   2.684   1.448
  661TIP3    H2 1861   2.154   2.714   1.531
  662TIP3   OH2 1862   2.025   3.708   1.363
  662TIP3    H1 1863   1.983   3.757   1.289
  662TIP3    H2 1864   2.120   3.729   1.344
  663TIP3   OH2 1865   0.797   3.740   2.342
  663TIP3    H1 1866   0.882   3.738   2.391
  663TIP3    H2 1867   0.774   3.645   2.339
  664TIP3   OH2 1868   1.279   3.705   2.388
  664TIP3    H1 1869   1.373   3.687   2.397
  664TIP3    H2 1870   1.255   3.646   2.314
  665TIP3   OH2 1871   1.919   3.609   2.120
  665TIP3    H1 1872   1.910   3.540   2.190
  665TIP3    H2 1873   1.995   3.661   2.151
  666TIP3   OH2 1874   0.924   3.142   2.545
  666TIP3    H1 1875   0.950   3.049   2.560
  666TIP3    H2 1876   0.830   3.134   2.524
  667TIP3   OH2 1877   1.536   3.231   2.317
  667TIP3    H1 1878   1.494   3.243   2.230
  667TIP3    H2 1879   1.569   3.138   2.313
  668TIP3   OH2 1880   2.025   3.238   1.920
  668TIP3    H1 1881   2.103   3.282   1.880
  668TIP3    H2 1882   1.959   3.309   1.912
  669TIP3   OH2 1883   1.053   2.868   2.546
  669TIP3    H1 1884   1.132   2.812   2.534
  669TIP3    H2 1885   1.075   2.911   2.631
  670TIP3   OH2 1886   1.404   2.773   2.205
  670TIP3    H1 1887   1.342   2.846   2.225
  670TIP3    H2 1888   1.445   2.803   2.121
  671TIP3   OH2 1889   1.898   3.167   2.321
  671TIP3    H1 1890   1.979   3.144   2.274
  671TIP3    H2 1891   1.895   3.099   2.391
  672TIP3   OH2 1892   1.529   2.564   2.324
  672TIP3    H1 1893   1.518   2.484   2.270
  672TIP3    H2 1894   1.489   2.634   2.267
  673TIP3   OH2 1895   1.591   2.886   2.032
  673TIP3    H1 1896   1.622   2.853   1.946
  673TIP3    H2 1897   1.524   2.954   2.006
  674TIP3   OH2 1898   2.124   2.841   2.379
  674TIP3    H1 1899   2.167   2.755   2.364
  674TIP3    H2 1900   2.189   2.903   2.343
  675TIP3   OH2 1901   2.157   3.101   2.114
  675TIP3    H1 1902   2.099   3.152   2.053
  675TIP3    H2 1903   2.245   3.120   2.074
  676TIP3   OH2 1904   1.373   2.694   2.531
  676TIP3    H1 1905   1.325   2.618   2.570
  676TIP3    H2 1906   1.414   2.655   2.453
  677TIP3   OH2 1907   1.781   2.611   2.412
  677TIP3    H1 1908   1.759   2.599   2.506
  677TIP3    H2 1909   1.692   2.590   2.374
  678TIP3   OH2 1910   2.014   2.564   2.266
  678TIP3    H1 1911   1.930   2.568   2.316
  678TIP3    H2 1912   2.072   2.521   2.329
  679TIP3   OH2 1913   2.241   2.503   2.454
  679TIP3    H1 1914   2.254   2.406   2.443
  679TIP3    H2 1915   2.175   2.507   2.525
  680TIP3   OH2 1916   1.276   2.465   2.641
  680TIP3    H1 1917   1.216   2.393   2.618
  680TIP3    H2 1918   1.289   2.447   2.736
  681TIP3   OH2 1919   1.751   2.135   2.457
  681TIP3    H1 1920   1.826   2.071   2.451
  681TIP3    H2 1921   1.693   2.103   2.388
  682TIP3   OH2 1922   1.805   2.343   2.613
  682TIP3    H1 1923   1.786   2.271   2.548
  682TIP3    H2 1924   1.724   2.398   2.605
  683TIP3   OH2 1925   2.276   3.804   1.320
  683TIP3    H1 1926   2.302   3.836   1.409
  683TIP3    H2 1927   2.339   3.849   1.263
  684TIP3   OH2 1928   2.307   3.822   1.602
  684TIP3    H1 1929   2.266   3.733   1.599
  684TIP3    H2 1930   2.382   3.803   1.659
  685TIP3   OH2 1931   2.354   3.498   2.177
  685TIP3    H1 1932   2.280   3.507   2.240
  685TIP3    H2 1933   2.395   3.586   2.179
  686TIP3   OH2 1934   2.367   3.259   1.417
  686TIP3    H1 1935   2.393   3.201   1.343
  686TIP3    H2 1936   2.347   3.342   1.371
  687TIP3   OH2 1937   2.183   3.571   1.626
  687TIP3    H1 1938   2.113   3.614   1.679
  687TIP3    H2 1939   2.131   3.524   1.557
  688TIP3   OH2 1940   2.400   3.160   2.002
  688TIP3    H1 1941   2.473   3.094   1.994
  688TIP3    H2 1942   2.428   3.230   1.941
  689TIP3   OH2 1943   2.584   2.966   2.026
  689TIP3    H1 1944   2.510   2.914   2.063
  689TIP3    H2 1945   2.657   2.901   2.037
  690TIP3   OH2 1946   2.302   2.628   1.547
  690TIP3    H1 1947   2.385   2.654   1.499
  690TIP3    H2 1948   2.320   2.666   1.635
  691TIP3   OH2 1949   2.348   2.769   1.774
  691TIP3    H1 1950   2.272   2.805   1.824
  691TIP3    H2 1951   2.379   2.850   1.726
  692TIP3   OH2 1952   2.789   2.360   2.325
  692TIP3    H1 1953   2.848   2.295   2.280
  692TIP3    H2 1954   2.759   2.415   2.249
  693TIP3   OH2 1955   2.658   2.501   2.134
  693TIP3    H1 1956   2.568   2.540   2.138
  693TIP3    H2 1957   2.639   2.427   2.072
  694TIP3   OH2 1958   1.857   3.670   0.979
  694TIP3    H1 1959   1.909   3.658   0.897
  694TIP3    H2 1960   1.910   3.735   1.029
  695TIP3   OH2 1961   0.966   3.469   2.366
  695TIP3    H1 1962   0.870   3.451   2.359
  695TIP3    H2 1963   0.981   3.460   2.461
  696TIP3   OH2 1964   1.141   3.504   1.915
  696TIP3    H1 1965   1.090   3.571   1.867
  696TIP3    H2 1966   1.228   3.519   1.872
  697TIP3   OH2 1967   1.586   3.749   2.049
  697TIP3    H1 1968   1.628   3.750   2.138
  697TIP3    H2 1969   1.653   3.801   1.997
  698TIP3   OH2 1970   1.766   3.900   1.907
  698TIP3    H1 1971   1.838   3.850   1.867
  698TIP3    H2 1972   1.816   3.958   1.968
  699TIP3   OH2 1973   2.566   2.270   2.010
  699TIP3    H1 1974   2.477   2.265   1.969
  699TIP3    H2 1975   2.595   2.176   2.002
  700TIP3   OH2 1976   0.813   3.774   1.911
  700TIP3    H1 1977   0.720   3.806   1.913
  700TIP3    H2 1978   0.837   3.788   2.003
  701TIP3   OH2 1979   1.065   3.748   1.795
  701TIP3    H1 1980   0.978   3.764   1.837
  701TIP3    H2 1981   1.048   3.772   1.702
  702TIP3   OH2 1982   1.484   3.768   1.592
  702TIP3    H1 1983   1.413   3.787   1.528
  702TIP3    H2 1984   1.495   3.856   1.634
  703TIP3   OH2 1985   1.750   3.706   1.641
  703TIP3    H1 1986   1.655   3.724   1.623
  703TIP3    H2 1987   1.792   3.783   1.601
  704TIP3   OH2 1988   1.956   3.900   1.557
  704TIP3    H1 1989   1.942   3.985   1.510
  704TIP3    H2 1990   1.982   3.841   1.484
  705TIP3   OH2 1991   1.219   3.568   1.531
  705TIP3    H1 1992   1.226   3.494   1.467
  705TIP3    H2 1993   1.272   3.536   1.607
  706TIP3   OH2 1994   1.994   3.630   0.734
  706TIP3    H1 1995   1.991   3.536   0.710
  706TIP3    H2 1996   1.952   3.671   0.655
  707TIP3   OH2 1997   1.465   2.187   2.661
  707TIP3    H1 1998   1.554   2.157   2.639
  707TIP3    H2 1999   1.437   2.119   2.726
  708TIP3   OH2 2000   2.296   2.232   2.441
  708TIP3    H1 2001   2.314   2.197   2.531
  708TIP3    H2 2002   2.383   2.223   2.398
  709TIP3   OH2 2003   2.235   3.779   1.933
  709TIP3    H1 2004   2.155   3.747   1.885
  709TIP3    H2 2005   2.216   3.875   1.936
  710TIP3   OH2 2006   3.505   3.154   0.703
  710TIP3    H1 2007   3.476   3.246   0.684
  710TIP3    H2 2008   3.430   3.105   0.665
  711TIP3   OH2 2009   3.502   3.149   1.079
  711TIP3    H1 2010   3.530   3.121   1.167
  711TIP3    H2 2011   3.456   3.070   1.047
  712TIP3   OH2 2012   2.796   3.060   1.467
  712TIP3    H1 2013   2.832   2.980   1.509
  712TIP3    H2 2014   2.873   3.096   1.421
  713TIP3   OH2 2015   3.743   3.453   0.761
  713TIP3    H1 2016   3.726   3.383   0.826
  713TIP3    H2 2017   3.770   3.528   0.817
  714TIP3   OH2 2018   2.769   3.459   1.170
  714TIP3    H1 2019   2.764   3.361   1.176
  714TIP3    H2 2020   2.866   3.469   1.172
  715TIP3   OH2 2021   3.390   3.915   0.777
  715TIP3    H1 2022   3.439   3.843   0.732
  715TIP3    H2 2023   3.383   3.882   0.867
  716TIP3   OH2 2024   3.298   3.377   1.127
  716TIP3    H1 2025   3.334   3.300   1.081
  716TIP3    H2 2026   3.382   3.421   1.152
  717TIP3   OH2 2027   4.312   2.697   1.127
  717TIP3    H1 2028   4.339   2.779   1.171
  717TIP3    H2 2029   4.329   2.719   1.034
  718TIP3   OH2 2030   3.713   2.879   1.161
  718TIP3    H1 2031   3.752   2.792   1.181
  718TIP3    H2 2032   3.679   2.863   1.071
  719TIP3   OH2 2033   3.048   2.534   1.119
  719TIP3    H1 2034   3.023   2.610   1.063
  719TIP3    H2 2035   2.987   2.466   1.087
  720TIP3   OH2 2036   3.741   2.625   0.750
  720TIP3    H1 2037   3.813   2.609   0.815
  720TIP3    H2 2038   3.793   2.663   0.676
  721TIP3   OH2 2039   3.122   2.940   1.020
  721TIP3    H1 2040   3.214   2.914   1.041
  721TIP3    H2 2041   3.082   2.855   0.993
  722TIP3   OH2 2042   4.384   2.905   1.296
  722TIP3    H1 2043   4.300   2.952   1.277
  722TIP3    H2 2044   4.397   2.928   1.389
  723TIP3   OH2 2045   3.047   2.516   1.566
  723TIP3    H1 2046   2.991   2.555   1.495
  723TIP3    H2 2047   2.993   2.538   1.644
  724TIP3   OH2 2048   3.399   3.375   0.568
  724TIP3    H1 2049   3.352   3.347   0.489
  724TIP3    H2 2050   3.351   3.458   0.590
  725TIP3   OH2 2051   3.153   3.297   1.360
  725TIP3    H1 2052   3.087   3.360   1.397
  725TIP3    H2 2053   3.192   3.350   1.287
  726TIP3   OH2 2054   3.955   2.629   0.919
  726TIP3    H1 2055   3.938   2.582   1.002
  726TIP3    H2 2056   4.005   2.707   0.949
  727TIP3   OH2 2057   2.918   2.621   1.352
  727TIP3    H1 2058   2.960   2.708   1.368
  727TIP3    H2 2059   2.963   2.595   1.269
  728TIP3   OH2 2060   2.978   3.489   1.453
  728TIP3    H1 2061   2.952   3.576   1.417
  728TIP3    H2 2062   2.900   3.472   1.509
  729TIP3   OH2 2063   2.360   3.193   0.699
  729TIP3    H1 2064   2.387   3.192   0.606
  729TIP3    H2 2065   2.417   3.263   0.736
  730TIP3   OH2 2066   3.814   3.694   0.929
  730TIP3    H1 2067   3.725   3.685   0.970
  730TIP3    H2 2068   3.805   3.781   0.885
  731TIP3   OH2 2069   4.104   2.597   1.293
  731TIP3    H1 2070   4.015   2.625   1.264
  731TIP3    H2 2071   4.161   2.628   1.221
  732TIP3   OH2 2072   3.404   2.240   1.275
  732TIP3    H1 2073   3.389   2.146   1.295
  732TIP3    H2 2074   3.325   2.280   1.318
  733TIP3   OH2 2075   3.518   3.742   0.605
  733TIP3    H1 2076   3.568   3.660   0.584
  733TIP3    H2 2077   3.578   3.807   0.563
  734TIP3   OH2 2078   3.661   3.527   0.508
  734TIP3    H1 2079   3.611   3.450   0.476
  734TIP3    H2 2080   3.696   3.493   0.593
  735TIP3   OH2 2081   4.040   3.609   1.273
  735TIP3    H1 2082   4.027   3.531   1.215
  735TIP3    H2 2083   4.022   3.684   1.212
  736TIP3   OH2 2084   3.335   3.014   0.538
  736TIP3    H1 2085   3.249   3.055   0.518
  736TIP3    H2 2086   3.366   2.992   0.449
  737TIP3   OH2 2087   3.295   2.790   0.338
  737TIP3    H1 2088   3.381   2.836   0.334
  737TIP3    H2 2089   3.322   2.697   0.334
  738TIP3   OH2 2090   4.235   3.245   1.117
  738TIP3    H1 2091   4.152   3.296   1.124
  738TIP3    H2 2092   4.263   3.270   1.027
  739TIP3   OH2 2093   3.681   3.088   0.506
  739TIP3    H1 2094   3.625   3.112   0.583
  739TIP3    H2 2095   3.763   3.061   0.551
  740TIP3   OH2 2096   3.914   3.125   1.413
  740TIP3    H1 2097   3.910   3.208   1.463
  740TIP3    H2 2098   3.826   3.128   1.368
  741TIP3   OH2 2099   2.915   3.083   0.910
  741TIP3    H1 2100   2.875   3.012   0.859
  741TIP3    H2 2101   2.992   3.036   0.951
  742TIP3   OH2 2102   3.044   3.501   1.064
  742TIP3    H1 2103   3.018   3.445   0.990
  742TIP3    H2 2104   3.133   3.465   1.085
  743TIP3   OH2 2105   3.066   3.047   1.282
  743TIP3    H1 2106   3.076   3.038   1.186
  743TIP3    H2 2107   3.092   3.140   1.298
  744TIP3   OH2 2108   3.573   3.690   1.049
  744TIP3    H1 2109   3.559   3.771   1.102
  744TIP3    H2 2110   3.558   3.618   1.113
  745TIP3   OH2 2111   3.185   3.610   1.597
  745TIP3    H1 2112   3.125   3.672   1.643
  745TIP3    H2 2113   3.119   3.556   1.548
  746TIP3   OH2 2114   3.531   2.938   0.333
  746TIP3    H1 2115   3.583   3.004   0.385
  746TIP3    H2 2116   3.556   2.964   0.240
  747TIP3   OH2 2117   2.945   3.164   1.708
  747TIP3    H1 2118   2.942   3.253   1.749
  747TIP3    H2 2119   2.850   3.148   1.692
  748TIP3   OH2 2120   3.262   3.622   0.597
  748TIP3    H1 2121   3.339   3.675   0.623
  748TIP3    H2 2122   3.198   3.688   0.569
  749TIP3   OH2 2123   2.979   3.778   1.683
  749TIP3    H1 2124   2.943   3.777   1.593
  749TIP3    H2 2125   2.900   3.757   1.738
  750TIP3   OH2 2126   4.038   2.185   0.373
  750TIP3    H1 2127   3.956   2.198   0.425
  750TIP3    H2 2128   4.045   2.270   0.328
  751TIP3   OH2 2129   2.761   2.915   0.698
  751TIP3    H1 2130   2.699   2.985   0.722
  751TIP3    H2 2131   2.727   2.840   0.750
  752TIP3   OH2 2132   3.831   3.556  -0.085
  752TIP3    H1 2133   3.844   3.652  -0.095
  752TIP3    H2 2134   3.923   3.523  -0.088
  753TIP3   OH2 2135   2.555   3.311   1.630
  753TIP3    H1 2136   2.497   3.285   1.556
  753TIP3    H2 2137   2.597   3.225   1.654
  754TIP3   OH2 2138   2.409   3.506   1.262
  754TIP3    H1 2139   2.505   3.491   1.254
  754TIP3    H2 2140   2.407   3.584   1.319
  755TIP3   OH2 2141   4.278   3.952   1.319
  755TIP3    H1 2142   4.275   3.856   1.335
  755TIP3    H2 2143   4.195   3.979   1.364
  756TIP3   OH2 2144   3.382   3.739   1.453
  756TIP3    H1 2145   3.382   3.832   1.486
  756TIP3    H2 2146   3.311   3.700   1.509
  757TIP3   OH2 2147   3.141   3.869   0.401
  757TIP3    H1 2148   3.094   3.854   0.318
  757TIP3    H2 2149   3.109   3.957   0.428
  758TIP3   OH2 2150   2.582   3.719   0.789
  758TIP3    H1 2151   2.628   3.709   0.875
  758TIP3    H2 2152   2.529   3.637   0.787
  759TIP3   OH2 2153   3.338   3.766   0.059
  759TIP3    H1 2154   3.397   3.707   0.007
  759TIP3    H2 2155   3.383   3.770   0.145
  760TIP3   OH2 2156   3.398   3.820   0.325
  760TIP3    H1 2157   3.308   3.828   0.363
  760TIP3    H2 2158   3.445   3.775   0.397
  761TIP3   OH2 2159   4.168   3.085   1.593
  761TIP3    H1 2160   4.085   3.099   1.544
  761TIP3    H2 2161   4.181   2.989   1.582
  762TIP3   OH2 2162   2.762   3.492   1.619
  762TIP3    H1 2163   2.812   3.476   1.702
  762TIP3    H2 2164   2.689   3.428   1.627
  763TIP3   OH2 2165   3.161   2.319   1.397
  763TIP3    H1 2166   3.070   2.290   1.374
  763TIP3    H2 2167   3.139   2.401   1.445
  764TIP3   OH2 2168   3.695   2.431   1.597
  764TIP3    H1 2169   3.762   2.404   1.663
  764TIP3    H2 2170   3.610   2.411   1.643
  765TIP3   OH2 2171   3.938   2.862   1.518
  765TIP3    H1 2172   3.887   2.857   1.602
  765TIP3    H2 2173   3.910   2.948   1.481
  766TIP3   OH2 2174   3.600   2.993   0.077
  766TIP3    H1 2175   3.540   2.989   0.002
  766TIP3    H2 2176   3.674   3.047   0.044
  767TIP3   OH2 2177   3.099   2.825   1.426
  767TIP3    H1 2178   3.043   2.846   1.504
  767TIP3    H2 2179   3.087   2.906   1.372
  768TIP3   OH2 2180   2.979   2.721   0.932
  768TIP3    H1 2181   2.888   2.690   0.954
  768TIP3    H2 2182   2.994   2.672   0.848
  769TIP3   OH2 2183   3.474   2.809   0.662
  769TIP3    H1 2184   3.419   2.881   0.624
  769TIP3    H2 2185   3.520   2.775   0.584
  770TIP3   OH2 2186   3.643   3.081   1.749
  770TIP3    H1 2187   3.620   3.009   1.812
  770TIP3    H2 2188   3.736   3.097   1.772
  771TIP3   OH2 2189   3.627   2.832   0.903
  771TIP3    H1 2190   3.567   2.863   0.832
  771TIP3    H2 2191   3.658   2.749   0.860
  772TIP3   OH2 2192   2.920   2.858   1.631
  772TIP3    H1 2193   2.935   2.925   1.699
  772TIP3    H2 2194   2.903   2.778   1.684
  773TIP3   OH2 2195   3.639   3.079   1.326
  773TIP3    H1 2196   3.671   3.006   1.268
  773TIP3    H2 2197   3.607   3.027   1.403
  774TIP3   OH2 2198   3.309   2.543   0.997
  774TIP3    H1 2199   3.223   2.537   1.044
  774TIP3    H2 2200   3.372   2.541   1.072
  775TIP3   OH2 2201   2.755   2.589   0.996
  775TIP3    H1 2202   2.670   2.617   1.033
  775TIP3    H2 2203   2.733   2.503   0.953
  776TIP3   OH2 2204   3.041   2.601   0.694
  776TIP3    H1 2205   3.138   2.611   0.691
  776TIP3    H2 2206   3.010   2.656   0.622
  777TIP3   OH2 2207   3.796   2.613   1.196
  777TIP3    H1 2208   3.764   2.627   1.288
  777TIP3    H2 2209   3.728   2.552   1.163
  778TIP3   OH2 2210   3.967   4.302   1.418
  778TIP3    H1 2211   3.966   4.331   1.326
  778TIP3    H2 2212   4.042   4.354   1.454
  779TIP3   OH2 2213   2.924   3.415   1.840
  779TIP3    H1 2214   3.003   3.445   1.888
  779TIP3    H2 2215   2.859   3.415   1.913
  780TIP3   OH2 2216   3.388   2.868   1.096
  780TIP3    H1 2217   3.460   2.825   1.048
  780TIP3    H2 2218   3.395   2.827   1.184
  781TIP3   OH2 2219   3.366   2.763   1.383
  781TIP3    H1 2220   3.275   2.796   1.398
  781TIP3    H2 2221   3.421   2.826   1.435
  782TIP3   OH2 2222   3.101   3.172   0.480
  782TIP3    H1 2223   3.050   3.088   0.482
  782TIP3    H2 2224   3.087   3.203   0.573
  783TIP3   OH2 2225   4.003   3.390   1.109
  783TIP3    H1 2226   4.025   3.440   1.028
  783TIP3    H2 2227   3.917   3.349   1.086
  784TIP3   OH2 2228   3.595   2.471   0.314
  784TIP3    H1 2229   3.497   2.476   0.321
  784TIP3    H2 2230   3.619   2.561   0.342
  785TIP3   OH2 2231   3.506   3.476   1.475
  785TIP3    H1 2232   3.521   3.450   1.567
  785TIP3    H2 2233   3.462   3.562   1.485
  786TIP3   OH2 2234   3.638   2.710   0.441
  786TIP3    H1 2235   3.732   2.722   0.464
  786TIP3    H2 2236   3.616   2.793   0.393
  787TIP3   OH2 2237   2.807   3.187   1.163
  787TIP3    H1 2238   2.827   3.144   1.078
  787TIP3    H2 2239   2.765   3.114   1.213
  788TIP3   OH2 2240   3.254   3.313   0.312
  788TIP3    H1 2241   3.204   3.398   0.315
  788TIP3    H2 2242   3.198   3.257   0.371
  789TIP3   OH2 2243   2.669   3.103   1.773
  789TIP3    H1 2244   2.693   3.084   1.865
  789TIP3    H2 2245   2.606   3.033   1.751
  790TIP3   OH2 2246   3.399   3.210   1.790
  790TIP3    H1 2247   3.337   3.153   1.740
  790TIP3    H2 2248   3.485   3.177   1.759
  791TIP3   OH2 2249   3.662   3.734   1.369
  791TIP3    H1 2250   3.566   3.731   1.384
  791TIP3    H2 2251   3.690   3.784   1.449
  792TIP3   OH2 2252   4.073   2.805   0.284
  792TIP3    H1 2253   4.010   2.759   0.222
  792TIP3    H2 2254   4.069   2.894   0.242
  793TIP3   OH2 2255   4.290   3.660   1.363
  793TIP3    H1 2256   4.192   3.657   1.355
  793TIP3    H2 2257   4.315   3.631   1.272
  794TIP3   OH2 2258   3.780   3.622   0.187
  794TIP3    H1 2259   3.743   3.558   0.250
  794TIP3    H2 2260   3.775   3.574   0.102
  795TIP3   OH2 2261   3.768   3.253   1.028
  795TIP3    H1 2262   3.674   3.228   1.042
  795TIP3    H2 2263   3.801   3.173   0.982
  796TIP3   OH2 2264   2.891   3.478   0.774
  796TIP3    H1 2265   2.889   3.562   0.725
  796TIP3    H2 2266   2.798   3.466   0.795
  797TIP3   OH2 2267   3.039   3.251   0.727
  797TIP3    H1 2268   2.998   3.338   0.745
  797TIP3    H2 2269   3.002   3.197   0.799
  798TIP3   OH2 2270   3.163   3.825   1.250
  798TIP3    H1 2271   3.205   3.897   1.201
  798TIP3    H2 2272   3.239   3.790   1.300
  799TIP3   OH2 2273   2.813   3.720   0.631
  799TIP3    H1 2274   2.727   3.727   0.679
  799TIP3    H2 2275   2.843   3.813   0.635
  800TIP3   OH2 2276   3.553   3.458   1.207
  800TIP3    H1 2277   3.543   3.458   1.305
  800TIP3    H2 2278   3.633   3.404   1.197
  801TIP3   OH2 2279   3.525   3.359   0.091
  801TIP3    H1 2280   3.576   3.329   0.170
  801TIP3    H2 2281   3.435   3.332   0.114
  802TIP3   OH2 2282   3.802   3.990   1.258
  802TIP3    H1 2283   3.723   3.934   1.253
  802TIP3    H2 2284   3.784   4.056   1.187
  803TIP3   OH2 2285   3.868   3.835  -0.097
  803TIP3    H1 2286   3.916   3.916  -0.123
  803TIP3    H2 2287   3.786   3.875  -0.061
  804TIP3   OH2 2288   2.886   2.603   1.780
  804TIP3    H1 2289   2.789   2.604   1.787
  804TIP3    H2 2290   2.911   2.538   1.848
  805TIP3   OH2 2291   3.686   3.281   0.306
  805TIP3    H1 2292   3.676   3.219   0.381
  805TIP3    H2 2293   3.783   3.282   0.296
  806TIP3   OH2 2294   2.601   3.687   1.409
  806TIP3    H1 2295   2.654   3.612   1.440
  806TIP3    H2 2296   2.629   3.756   1.471
  807TIP3   OH2 2297   2.888   3.333   0.092
  807TIP3    H1 2298   2.915   3.243   0.068
  807TIP3    H2 2299   2.872   3.325   0.188
  808TIP3   OH2 2300   2.852   3.334   0.367
  808TIP3    H1 2301   2.923   3.307   0.426
  808TIP3    H2 2302   2.856   3.432   0.373
  809TIP3   OH2 2303   3.726   2.665   1.455
  809TIP3    H1 2304   3.802   2.705   1.500
  809TIP3    H2 2305   3.708   2.586   1.510
  810TIP3   OH2 2306   3.595   2.427   0.614
  810TIP3    H1 2307   3.594   2.455   0.521
  810TIP3    H2 2308   3.638   2.503   0.658
  811TIP3   OH2 2309   3.102   3.535   0.306
  811TIP3    H1 2310   3.017   3.563   0.345
  811TIP3    H2 2311   3.124   3.614   0.254
  812TIP3   OH2 2312   3.311   2.600   0.730
  812TIP3    H1 2313   3.373   2.675   0.713
  812TIP3    H2 2314   3.312   2.595   0.828
  813TIP3   OH2 2315   3.562   2.918   1.532
  813TIP3    H1 2316   3.579   2.974   1.611
  813TIP3    H2 2317   3.616   2.840   1.550
  814TIP3   OH2 2318   3.449   2.328   0.836
  814TIP3    H1 2319   3.432   2.409   0.888
  814TIP3    H2 2320   3.499   2.365   0.760
  815TIP3   OH2 2321   2.847   3.607   0.381
  815TIP3    H1 2322   2.815   3.677   0.319
  815TIP3    H2 2323   2.829   3.649   0.468
  816TIP3   OH2 2324   4.204   2.816   1.512
  816TIP3    H1 2325   4.106   2.816   1.522
  816TIP3    H2 2326   4.210   2.775   1.424
  817TIP3   OH2 2327   3.854   3.011   0.900
  817TIP3    H1 2328   3.776   2.953   0.914
  817TIP3    H2 2329   3.924   2.963   0.950
  818TIP3   OH2 2330   2.577   3.318   0.344
  818TIP3    H1 2331   2.665   3.348   0.374
  818TIP3    H2 2332   2.583   3.223   0.362
  819TIP3   OH2 2333   3.821   3.966   0.850
  819TIP3    H1 2334   3.779   4.013   0.775
  819TIP3    H2 2335   3.916   3.985   0.830
  820TIP3   OH2 2336   2.899   2.232   1.377
  820TIP3    H1 2337   2.835   2.192   1.316
  820TIP3    H2 2338   2.908   2.161   1.444
  821TIP3   OH2 2339   2.448   3.470   0.758
  821TIP3    H1 2340   2.370   3.484   0.813
  821TIP3    H2 2341   2.413   3.499   0.671
  822TIP3   OH2 2342   2.593   3.994   1.829
  822TIP3    H1 2343   2.679   3.996   1.877
  822TIP3    H2 2344   2.574   3.899   1.830
  823TIP3   OH2 2345   3.074   3.961   1.876
  823TIP3    H1 2346   3.169   3.946   1.883
  823TIP3    H2 2347   3.051   3.902   1.801
  824TIP3   OH2 2348   3.060   3.530   0.003
  824TIP3    H1 2349   2.996   3.471   0.049
  824TIP3    H2 2350   3.141   3.476   0.009
  825TIP3   OH2 2351   3.717   3.863   1.605
  825TIP3    H1 2352   3.706   3.796   1.676
  825TIP3    H2 2353   3.792   3.917   1.638
  826TIP3   OH2 2354   3.507   3.590  -0.073
  826TIP3    H1 2355   3.518   3.507  -0.022
  826TIP3    H2 2356   3.581   3.585  -0.135
  827TIP3   OH2 2357   2.723   3.400   2.032
  827TIP3    H1 2358   2.739   3.304   2.033
  827TIP3    H2 2359   2.636   3.404   1.987
  828TIP3   OH2 2360   3.332   3.486   1.804
  828TIP3    H1 2361   3.289   3.502   1.718
  828TIP3    H2 2362   3.361   3.393   1.796
  829TIP3   OH2 2363   3.222   3.276   0.048
  829TIP3    H1 2364   3.234   3.286   0.144
  829TIP3    H2 2365   3.193   3.184   0.041
  830TIP3   OH2 2366   3.825   3.492   1.410
  830TIP3    H1 2367   3.897   3.542   1.367
  830TIP3    H2 2368   3.751   3.555   1.399
  831TIP3   OH2 2369   2.840   3.132   2.016
  831TIP3    H1 2370   2.919   3.084   1.988
  831TIP3    H2 2371   2.868   3.168   2.103
  832TIP3   OH2 2372   2.975   2.935   0.499
  832TIP3    H1 2373   2.917   2.914   0.573
  832TIP3    H2 2374   2.960   2.864   0.435
  833TIP3   OH2 2375   3.182   3.023   1.679
  833TIP3    H1 2376   3.101   3.078   1.682
  833TIP3    H2 2377   3.225   3.055   1.597
  834TIP3   OH2 2378   3.693   3.422   1.809
  834TIP3    H1 2379   3.775   3.401   1.762
  834TIP3    H2 2380   3.691   3.355   1.879
  835TIP3   OH2 2381   3.826   3.089  -0.064
  835TIP3    H1 2382   3.837   3.047  -0.150
  835TIP3    H2 2383   3.824   3.183  -0.086
  836TIP3   OH2 2384   3.302   2.808   1.800
  836TIP3    H1 2385   3.299   2.729   1.743
  836TIP3    H2 2386   3.258   2.876   1.744
  837TIP3   OH2 2387   3.304   2.594   1.607
  837TIP3    H1 2388   3.329   2.637   1.522
  837TIP3    H2 2389   3.210   2.572   1.591
  838TIP3   OH2 2390   3.334   3.134   1.482
  838TIP3    H1 2391   3.413   3.141   1.427
  838TIP3    H2 2392   3.274   3.198   1.439
  839TIP3   OH2 2393   3.913   3.098   1.862
  839TIP3    H1 2394   3.963   3.016   1.873
  839TIP3    H2 2395   3.980   3.159   1.830
  840TIP3   OH2 2396   3.955   3.349   1.597
  840TIP3    H1 2397   3.896   3.402   1.539
  840TIP3    H2 2398   4.042   3.371   1.557
  841TIP3   OH2 2399   3.180   2.920   2.032
  841TIP3    H1 2400   3.110   2.853   2.044
  841TIP3    H2 2401   3.212   2.899   1.943
  842TIP3   OH2 2402   3.435   2.360   1.674
  842TIP3    H1 2403   3.388   2.443   1.651
  842TIP3    H2 2404   3.364   2.293   1.661
  843TIP3   OH2 2405   3.562   2.863   1.890
  843TIP3    H1 2406   3.549   2.853   1.986
  843TIP3    H2 2407   3.472   2.839   1.859
  844TIP3   OH2 2408   3.800   2.809   1.744
  844TIP3    H1 2409   3.725   2.814   1.806
  844TIP3    H2 2410   3.873   2.781   1.803
  845TIP3   OH2 2411   4.032   2.753   1.896
  845TIP3    H1 2412   4.043   2.657   1.916
  845TIP3    H2 2413   4.026   2.793   1.986
  846TIP3   OH2 2414   3.016   2.703   2.084
  846TIP3    H1 2415   3.022   2.613   2.046
  846TIP3    H2 2416   3.053   2.688   2.173
  847TIP3   OH2 2417   3.529   2.367   1.932
  847TIP3    H1 2418   3.597   2.297   1.925
  847TIP3    H2 2419   3.489   2.363   1.843
  848TIP3   OH2 2420   3.595   2.582   2.092
  848TIP3    H1 2421   3.573   2.513   2.027
  848TIP3    H2 2422   3.518   2.643   2.085
  849TIP3   OH2 2423   2.812   3.808   0.193
  849TIP3    H1 2424   2.906   3.805   0.164
  849TIP3    H2 2425   2.769   3.857   0.122
  850TIP3   OH2 2426   2.204   3.803   0.821
  850TIP3    H1 2427   2.142   3.737   0.785
  850TIP3    H2 2428   2.253   3.750   0.887
  851TIP3   OH2 2429   2.343   3.661   1.010
  851TIP3    H1 2430   2.339   3.585   1.070
  851TIP3    H2 2431   2.395   3.722   1.065
  852TIP3   OH2 2432   4.074   4.058   0.806
  852TIP3    H1 2433   4.097   4.087   0.896
  852TIP3    H2 2434   4.136   4.109   0.752
  853TIP3   OH2 2435   4.104   4.077   1.086
  853TIP3    H1 2436   4.061   3.989   1.086
  853TIP3    H2 2437   4.176   4.059   1.148
  854TIP3   OH2 2438   4.150   3.754   1.662
  854TIP3    H1 2439   4.076   3.763   1.726
  854TIP3    H2 2440   4.191   3.843   1.666
  855TIP3   OH2 2441   3.968   3.266   0.282
  855TIP3    H1 2442   4.035   3.333   0.257
  855TIP3    H2 2443   4.008   3.228   0.363
  856TIP3   OH2 2444   4.094   3.135   0.486
  856TIP3    H1 2445   4.027   3.093   0.545
  856TIP3    H2 2446   4.156   3.174   0.550
  857TIP3   OH2 2447   4.148   3.528   0.919
  857TIP3    H1 2448   4.201   3.464   0.867
  857TIP3    H2 2449   4.136   3.601   0.856
  858TIP3   OH2 2450   3.979   3.828   1.113
  858TIP3    H1 2451   3.909   3.871   1.167
  858TIP3    H2 2452   3.927   3.780   1.045
  859TIP3   OH2 2453   4.029   3.044   0.132
  859TIP3    H1 2454   3.952   3.045   0.071
  859TIP3    H2 2455   4.006   3.119   0.190
  860TIP3   OH2 2456   3.909   2.713   0.091
  860TIP3    H1 2457   3.864   2.750   0.015
  860TIP3    H2 2458   3.881   2.619   0.085
  861TIP3   OH2 2459   3.910   2.991   0.633
  861TIP3    H1 2460   3.915   2.894   0.629
  861TIP3    H2 2461   3.895   3.006   0.729
  862TIP3   OH2 2462   4.197   3.416   1.489
  862TIP3    H1 2463   4.270   3.351   1.480
  862TIP3    H2 2464   4.224   3.488   1.429
  863TIP3   OH2 2465   4.383   3.222   1.504
  863TIP3    H1 2466   4.308   3.174   1.545
  863TIP3    H2 2467   4.456   3.158   1.520
  864TIP3   OH2 2468   3.839   2.453   0.096
  864TIP3    H1 2469   3.925   2.419   0.127
  864TIP3    H2 2470   3.775   2.410   0.154
  865TIP3   OH2 2471   3.906   2.708   0.530
  865TIP3    H1 2472   3.945   2.619   0.545
  865TIP3    H2 2473   3.964   2.740   0.459
  866TIP3   OH2 2474   4.066   2.881   1.023
  866TIP3    H1 2475   4.152   2.908   0.984
  866TIP3    H2 2476   4.078   2.919   1.112
  867TIP3   OH2 2477   4.133   3.025   1.255
  867TIP3    H1 2478   4.056   3.059   1.304
  867TIP3    H2 2479   4.165   3.107   1.211
  868TIP3   OH2 2480   2.748   2.751   2.054
  868TIP3    H1 2481   2.846   2.746   2.053
  868TIP3    H2 2482   2.727   2.665   2.095
  869TIP3   OH2 2483   4.587   2.617   1.811
  869TIP3    H1 2484   4.645   2.551   1.767
  869TIP3    H2 2485   4.558   2.672   1.736
  870TIP3   OH2 2486   4.015   2.456   0.563
  870TIP3    H1 2487   4.060   2.442   0.649
  870TIP3    H2 2488   3.952   2.381   0.563
  871TIP3   OH2 2489   2.712   2.437   1.393
  871TIP3    H1 2490   2.791   2.381   1.400
  871TIP3    H2 2491   2.754   2.525   1.380
  872TIP3   OH2 2492   2.543   2.714   1.449
  872TIP3    H1 2493   2.536   2.721   1.351
  872TIP3    H2 2494   2.566   2.807   1.461
  873TIP3   OH2 2495   4.458   2.757   1.618
  873TIP3    H1 2496   4.373   2.798   1.642
  873TIP3    H2 2497   4.427   2.686   1.558
  874TIP3   OH2 2498   4.103   2.394   0.184
  874TIP3    H1 2499   4.172   2.335   0.152
  874TIP3    H2 2500   4.152   2.478   0.190
  875TIP3   OH2 2501   3.659   3.924   0.464
  875TIP3    H1 2502   3.713   3.911   0.384
  875TIP3    H2 2503   3.710   3.989   0.514
  876TIP3   OH2 2504   2.724   2.307   1.776
  876TIP3    H1 2505   2.670   2.296   1.856
  876TIP3    H2 2506   2.659   2.345   1.714
  877TIP3   OH2 2507   2.760   3.727   1.850
  877TIP3    H1 2508   2.667   3.699   1.833
  877TIP3    H2 2509   2.768   3.713   1.945
  878TIP3   OH2 2510   2.935   3.759   1.397
  878TIP3    H1 2511   2.888   3.836   1.359
  878TIP3    H2 2512   3.022   3.774   1.353
  879TIP3   OH2 2513   3.383   4.006   1.534
  879TIP3    H1 2514   3.423   4.007   1.624
  879TIP3    H2 2515   3.449   4.057   1.484
  880TIP3   OH2 2516   3.562   4.157   1.393
  880TIP3    H1 2517   3.636   4.105   1.357
  880TIP3    H2 2518   3.611   4.215   1.455
  881TIP3   OH2 2519   4.356   2.520   1.494
  881TIP3    H1 2520   4.265   2.516   1.461
  881TIP3    H2 2521   4.385   2.426   1.482
  882TIP3   OH2 2522   2.614   4.019   1.421
  882TIP3    H1 2523   2.524   4.052   1.399
  882TIP3    H2 2524   2.626   4.057   1.509
  883TIP3   OH2 2525   2.850   3.997   1.278
  883TIP3    H1 2526   2.764   4.009   1.325
  883TIP3    H2 2527   2.829   4.030   1.189
  884TIP3   OH2 2528   3.277   4.027   1.074
  884TIP3    H1 2529   3.205   4.048   1.013
  884TIP3    H2 2530   3.289   4.113   1.121
  885TIP3   OH2 2531   3.544   3.964   1.125
  885TIP3    H1 2532   3.450   3.982   1.107
  885TIP3    H2 2533   3.586   4.045   1.090
  886TIP3   OH2 2534   3.753   4.157   1.045
  886TIP3    H1 2535   3.739   4.242   0.997
  886TIP3    H2 2536   3.778   4.096   0.972
  887TIP3   OH2 2537   2.525   3.812   1.166
  887TIP3    H1 2538   2.551   3.787   1.257
  887TIP3    H2 2539   2.597   3.767   1.116
  888TIP3   OH2 2540   2.719   3.683   1.022
  888TIP3    H1 2541   2.733   3.599   1.072
  888TIP3    H2 2542   2.810   3.719   1.019
  889TIP3   OH2 2543   2.986   3.778   1.024
  889TIP3    H1 2544   3.016   3.685   1.015
  889TIP3    H2 2545   3.028   3.800   1.110
  890TIP3   OH2 2546   3.564   2.437   1.118
  890TIP3    H1 2547   3.517   2.368   1.169
  890TIP3    H2 2548   3.629   2.384   1.068
  891TIP3   OH2 2549   4.086   2.315   1.020
  891TIP3    H1 2550   4.120   2.369   0.945
  891TIP3    H2 2551   3.990   2.330   1.013
  892TIP3   OH2 2552   4.180   2.415   0.782
  892TIP3    H1 2553   4.254   2.365   0.741
  892TIP3    H2 2554   4.211   2.507   0.768
  893TIP3   OH2 2555   3.248   2.195   0.995
  893TIP3    H1 2556   3.321   2.241   0.951
  893TIP3    H2 2557   3.271   2.203   1.088
  894TIP3   OH2 2558   3.806   2.320   0.992
  894TIP3    H1 2559   3.795   2.284   0.903
  894TIP3    H2 2560   3.788   2.241   1.048
  895TIP3   OH2 2561   3.835   2.242   0.553
  895TIP3    H1 2562   3.744   2.276   0.550
  895TIP3    H2 2563   3.819   2.157   0.601
  896TIP3   OH2 2564   2.301   3.578   0.556
  896TIP3    H1 2565   2.222   3.542   0.513
  896TIP3    H2 2566   2.297   3.671   0.525
  897TIP3   OH2 2567   3.249   2.359   0.627
  897TIP3    H1 2568   3.273   2.297   0.697
  897TIP3    H2 2569   3.272   2.444   0.671
  898TIP3   OH2 2570   3.077   3.776   0.128
  898TIP3    H1 2571   3.171   3.794   0.102
  898TIP3    H2 2572   3.062   3.697   0.072
  899TIP3   OH2 2573   3.808   3.890   0.230
  899TIP3    H1 2574   3.800   3.792   0.220
  899TIP3    H2 2575   3.757   3.921   0.152
  900TIP3   OH2 2576   3.016   2.426   2.024
  900TIP3    H1 2577   2.983   2.352   2.079
  900TIP3    H2 2578   3.111   2.426   2.049
  901TIP3   OH2 2579   3.266   2.421   2.142
  901TIP3    H1 2580   3.350   2.400   2.099
  901TIP3    H2 2581   3.257   2.347   2.205
  902TIP3   OH2 2582   2.424   3.645   0.222
  902TIP3    H1 2583   2.369   3.665   0.299
  902TIP3    H2 2584   2.468   3.563   0.249
  903TIP3   OH2 2585   4.090   2.481   1.928
  903TIP3    H1 2586   4.110   2.451   2.020
  903TIP3    H2 2587   4.179   2.477   1.887
  904TIP3   OH2 2588   4.033   4.035   1.417
  904TIP3    H1 2589   3.952   4.003   1.372
  904TIP3    H2 2590   4.013   4.131   1.423
  905TIP3   OH2 2591   5.299   3.408   0.187
  905TIP3    H1 2592   5.269   3.499   0.166
  905TIP3    H2 2593   5.221   3.358   0.156
  906TIP3   OH2 2594   5.304   3.402   0.563
  906TIP3    H1 2595   5.326   3.380   0.655
  906TIP3    H2 2596   5.253   3.324   0.535
  907TIP3   OH2 2597   4.597   3.302   0.929
  907TIP3    H1 2598   4.626   3.235   0.993
  907TIP3    H2 2599   4.670   3.365   0.933
  908TIP3   OH2 2600   5.544   3.706   0.249
  908TIP3    H1 2601   5.518   3.644   0.318
  908TIP3    H2 2602   5.566   3.786   0.300
  909TIP3   OH2 2603   4.564   3.712   0.656
  909TIP3    H1 2604   4.557   3.614   0.660
  909TIP3    H2 2605   4.661   3.722   0.655
  910TIP3   OH2 2606   4.275   2.917   0.443
  910TIP3    H1 2607   4.225   3.000   0.459
  910TIP3    H2 2608   4.203   2.861   0.408
  911TIP3   OH2 2609   4.333   3.203   0.613
  911TIP3    H1 2610   4.381   3.126   0.651
  911TIP3    H2 2611   4.392   3.230   0.542
  912TIP3   OH2 2612   5.178   4.171   0.263
  912TIP3    H1 2613   5.230   4.103   0.216
  912TIP3    H2 2614   5.186   4.142   0.355
  913TIP3   OH2 2615   5.094   3.632   0.614
  913TIP3    H1 2616   5.131   3.559   0.563
  913TIP3    H2 2617   5.178   3.676   0.640
  914TIP3   OH2 2618   5.526   3.141   0.639
  914TIP3    H1 2619   5.547   3.050   0.668
  914TIP3    H2 2620   5.474   3.123   0.558
  915TIP3   OH2 2621   4.846   2.794   0.612
  915TIP3    H1 2622   4.822   2.866   0.551
  915TIP3    H2 2623   4.797   2.720   0.570
  916TIP3   OH2 2624   5.540   2.887   0.239
  916TIP3    H1 2625   5.616   2.864   0.296
  916TIP3    H2 2626   5.587   2.921   0.161
  917TIP3   OH2 2627   4.478   2.997   0.720
  917TIP3    H1 2628   4.560   2.976   0.768
  917TIP3    H2 2629   4.490   2.939   0.641
  918TIP3   OH2 2630   4.919   3.194   0.509
  918TIP3    H1 2631   5.012   3.168   0.526
  918TIP3    H2 2632   4.879   3.110   0.480
  919TIP3   OH2 2633   6.179   3.148   0.778
  919TIP3    H1 2634   6.094   3.193   0.759
  919TIP3    H2 2635   6.193   3.178   0.869
  920TIP3   OH2 2636   4.841   2.777   1.048
  920TIP3    H1 2637   4.780   2.814   0.981
  920TIP3    H2 2638   4.790   2.794   1.129
  921TIP3   OH2 2639   5.186   3.626   0.060
  921TIP3    H1 2640   5.152   3.609  -0.029
  921TIP3    H2 2641   5.144   3.712   0.081
  922TIP3   OH2 2642   4.948   3.552   0.845
  922TIP3    H1 2643   4.883   3.616   0.883
  922TIP3    H2 2644   4.988   3.605   0.774
  923TIP3   OH2 2645   5.761   2.878   0.415
  923TIP3    H1 2646   5.730   2.797   0.459
  923TIP3    H2 2647   5.754   2.943   0.486
  924TIP3   OH2 2648   4.712   2.892   0.832
  924TIP3    H1 2649   4.773   2.965   0.856
  924TIP3    H2 2650   4.761   2.851   0.757
  925TIP3   OH2 2651   4.774   3.744   0.939
  925TIP3    H1 2652   4.749   3.832   0.902
  925TIP3    H2 2653   4.696   3.729   0.996
  926TIP3   OH2 2654   4.173   3.435   0.180
  926TIP3    H1 2655   4.130   3.460   0.096
  926TIP3    H2 2656   4.201   3.522   0.215
  927TIP3   OH2 2657   5.610   3.947   0.415
  927TIP3    H1 2658   5.521   3.941   0.456
  927TIP3    H2 2659   5.603   4.035   0.371
  928TIP3   OH2 2660   5.896   2.857   0.782
  928TIP3    H1 2661   5.802   2.881   0.779
  928TIP3    H2 2662   5.922   2.867   0.690
  929TIP3   OH2 2663   5.199   2.498   0.761
  929TIP3    H1 2664   5.184   2.403   0.778
  929TIP3    H2 2665   5.120   2.536   0.808
  930TIP3   OH2 2666   5.310   3.998   0.094
  930TIP3    H1 2667   5.360   3.917   0.071
  930TIP3    H2 2668   5.368   4.065   0.051
  931TIP3   OH2 2669   5.457   3.788  -0.003
  931TIP3    H1 2670   5.437   3.710  -0.058
  931TIP3    H2 2671   5.488   3.747   0.080
  932TIP3   OH2 2672   5.837   3.866   0.760
  932TIP3    H1 2673   5.824   3.788   0.701
  932TIP3    H2 2674   5.816   3.940   0.699
  933TIP3   OH2 2675   5.128   3.258   0.017
  933TIP3    H1 2676   5.045   3.309   0.002
  933TIP3    H2 2677   5.162   3.253  -0.074
  934TIP3   OH2 2678   5.080   3.032  -0.239
  934TIP3    H1 2679   5.161   3.081  -0.217
  934TIP3    H2 2680   5.113   2.965  -0.301
  935TIP3   OH2 2681   6.030   3.496   0.601
  935TIP3    H1 2682   5.948   3.550   0.606
  935TIP3    H2 2683   6.062   3.521   0.512
  936TIP3   OH2 2684   5.474   3.332  -0.007
  936TIP3    H1 2685   5.417   3.362   0.068
  936TIP3    H2 2686   5.558   3.316   0.039
  937TIP3   OH2 2687   5.709   3.381   0.900
  937TIP3    H1 2688   5.709   3.463   0.952
  937TIP3    H2 2689   5.622   3.387   0.857
  938TIP3   OH2 2690   4.706   3.339   0.405
  938TIP3    H1 2691   4.665   3.281   0.337
  938TIP3    H2 2692   4.783   3.285   0.433
  939TIP3   OH2 2693   4.838   3.748   0.554
  939TIP3    H1 2694   4.817   3.704   0.471
  939TIP3    H2 2695   4.929   3.716   0.572
  940TIP3   OH2 2696   4.850   3.308   0.760
  940TIP3    H1 2697   4.878   3.293   0.668
  940TIP3    H2 2698   4.887   3.396   0.780
  941TIP3   OH2 2699   5.370   3.948   0.537
  941TIP3    H1 2700   5.357   4.029   0.590
  941TIP3    H2 2701   5.353   3.876   0.602
  942TIP3   OH2 2702   4.980   3.866   1.084
  942TIP3    H1 2703   4.921   3.929   1.131
  942TIP3    H2 2704   4.914   3.813   1.035
  943TIP3   OH2 2705   5.325   3.199  -0.193
  943TIP3    H1 2706   5.375   3.251  -0.126
  943TIP3    H2 2707   5.339   3.253  -0.272
  944TIP3   OH2 2708   4.734   3.424   1.182
  944TIP3    H1 2709   4.739   3.510   1.228
  944TIP3    H2 2710   4.639   3.404   1.196
  945TIP3   OH2 2711   5.056   3.875   0.094
  945TIP3    H1 2712   5.129   3.933   0.120
  945TIP3    H2 2713   4.988   3.936   0.064
  946TIP3   OH2 2714   4.776   4.034   1.171
  946TIP3    H1 2715   4.739   4.033   1.081
  946TIP3    H2 2716   4.697   4.013   1.226
  947TIP3   OH2 2717   5.813   2.453  -0.115
  947TIP3    H1 2718   5.729   2.466  -0.066
  947TIP3    H2 2719   5.816   2.532  -0.172
  948TIP3   OH2 2720   4.574   3.180   0.208
  948TIP3    H1 2721   4.508   3.227   0.153
  948TIP3    H2 2722   4.529   3.097   0.226
  949TIP3   OH2 2723   4.355   3.565   1.118
  949TIP3    H1 2724   4.287   3.543   1.050
  949TIP3    H2 2725   4.390   3.477   1.142
  950TIP3   OH2 2726   4.208   3.760   0.747
  950TIP3    H1 2727   4.305   3.755   0.743
  950TIP3    H2 2728   4.195   3.837   0.804
  951TIP3   OH2 2729   6.070   4.209   0.800
  951TIP3    H1 2730   6.070   4.113   0.818
  951TIP3    H2 2731   5.989   4.235   0.849
  952TIP3   OH2 2732   5.179   3.995   0.940
  952TIP3    H1 2733   5.178   4.088   0.973
  952TIP3    H2 2734   5.107   3.956   0.995
  953TIP3   OH2 2735   4.914   4.132  -0.094
  953TIP3    H1 2736   4.896   4.115  -0.187
  953TIP3    H2 2737   4.903   4.228  -0.086
  954TIP3   OH2 2738   4.375   3.975   0.276
  954TIP3    H1 2739   4.424   3.966   0.361
  954TIP3    H2 2740   4.320   3.896   0.281
  955TIP3   OH2 2741   5.167   4.040  -0.157
  955TIP3    H1 2742   5.077   4.055  -0.123
  955TIP3    H2 2743   5.212   4.004  -0.078
  956TIP3   OH2 2744   5.965   3.343   1.080
  956TIP3    H1 2745   5.882   3.355   1.033
  956TIP3    H2 2746   5.978   3.246   1.071
  957TIP3   OH2 2747   4.560   3.747   1.105
  957TIP3    H1 2748   4.608   3.734   1.189
  957TIP3    H2 2749   4.485   3.685   1.115
  958TIP3   OH2 2750   4.959   2.574   0.889
  958TIP3    H1 2751   4.870   2.542   0.863
  958TIP3    H2 2752   4.933   2.655   0.937
  959TIP3   OH2 2753   5.491   2.688   1.084
  959TIP3    H1 2754   5.558   2.662   1.150
  959TIP3    H2 2755   5.406   2.668   1.130
  960TIP3   OH2 2756   5.733   3.118   1.003
  960TIP3    H1 2757   5.684   3.112   1.088
  960TIP3    H2 2758   5.707   3.206   0.969
  961TIP3   OH2 2759   5.121   2.636  -0.132
  961TIP3    H1 2760   5.078   2.628  -0.045
  961TIP3    H2 2761   5.075   2.568  -0.182
  962TIP3   OH2 2762   4.892   3.086   0.910
  962TIP3    H1 2763   4.840   3.107   0.990
  962TIP3    H2 2764   4.876   3.167   0.856
  963TIP3   OH2 2765   4.774   2.974   0.423
  963TIP3    H1 2766   4.681   2.948   0.441
  963TIP3    H2 2767   4.787   2.934   0.335
  964TIP3   OH2 2768   5.265   3.061   0.153
  964TIP3    H1 2769   5.211   3.131   0.110
  964TIP3    H2 2770   5.317   3.028   0.077
  965TIP3   OH2 2771   5.438   3.338   1.235
  965TIP3    H1 2772   5.416   3.266   1.298
  965TIP3    H2 2773   5.531   3.355   1.259
  966TIP3   OH2 2774   5.423   3.092   0.386
  966TIP3    H1 2775   5.357   3.120   0.318
  966TIP3    H2 2776   5.453   3.009   0.343
  967TIP3   OH2 2777   4.711   3.116   1.117
  967TIP3    H1 2778   4.730   3.181   1.186
  967TIP3    H2 2779   4.697   3.035   1.169
  968TIP3   OH2 2780   4.768   2.575  -0.168
  968TIP3    H1 2781   4.761   2.585  -0.071
  968TIP3    H2 2782   4.687   2.618  -0.199
  969TIP3   OH2 2783   4.303   2.639   0.695
  969TIP3    H1 2784   4.377   2.671   0.751
  969TIP3    H2 2785   4.346   2.605   0.616
  970TIP3   OH2 2786   4.273   2.623   0.216
  970TIP3    H1 2787   4.324   2.660   0.141
  970TIP3    H2 2788   4.214   2.698   0.237
  971TIP3   OH2 2789   5.434   3.334   0.811
  971TIP3    H1 2790   5.470   3.262   0.754
  971TIP3    H2 2791   5.405   3.282   0.888
  972TIP3   OH2 2792   5.103   2.801   0.486
  972TIP3    H1 2793   5.017   2.796   0.533
  972TIP3    H2 2794   5.166   2.794   0.560
  973TIP3   OH2 2795   4.536   2.852   0.492
  973TIP3    H1 2796   4.441   2.860   0.466
  973TIP3    H2 2797   4.558   2.759   0.469
  974TIP3   OH2 2798   4.808   2.849   0.183
  974TIP3    H1 2799   4.902   2.862   0.160
  974TIP3    H2 2800   4.761   2.869   0.099
  975TIP3   OH2 2801   5.592   2.871   0.678
  975TIP3    H1 2802   5.564   2.882   0.772
  975TIP3    H2 2803   5.525   2.807   0.647
  976TIP3   OH2 2804   4.649   2.877  -0.035
  976TIP3    H1 2805   4.558   2.856  -0.059
  976TIP3    H2 2806   4.688   2.913  -0.117
  977TIP3   OH2 2807   5.764   4.557   0.903
  977TIP3    H1 2808   5.753   4.584   0.810
  977TIP3    H2 2809   5.813   4.632   0.940
  978TIP3   OH2 2810   4.722   3.669   1.326
  978TIP3    H1 2811   4.800   3.701   1.375
  978TIP3    H2 2812   4.656   3.669   1.398
  979TIP3   OH2 2813   5.185   3.127   0.587
  979TIP3    H1 2814   5.246   3.072   0.535
  979TIP3    H2 2815   5.188   3.084   0.674
  980TIP3   OH2 2816   4.709   2.612   0.460
  980TIP3    H1 2817   4.674   2.533   0.507
  980TIP3    H2 2818   4.760   2.572   0.388
  981TIP3   OH2 2819   5.162   3.024   0.866
  981TIP3    H1 2820   5.071   3.056   0.883
  981TIP3    H2 2821   5.217   3.083   0.922
  982TIP3   OH2 2822   4.896   3.408  -0.030
  982TIP3    H1 2823   4.823   3.344  -0.041
  982TIP3    H2 2824   4.878   3.443   0.061
  983TIP3   OH2 2825   5.800   3.646   0.596
  983TIP3    H1 2826   5.822   3.698   0.515
  983TIP3    H2 2827   5.712   3.609   0.574
  984TIP3   OH2 2828   5.377   2.724  -0.179
  984TIP3    H1 2829   5.283   2.693  -0.179
  984TIP3    H2 2830   5.369   2.818  -0.155
  985TIP3   OH2 2831   5.299   3.730   0.963
  985TIP3    H1 2832   5.318   3.708   1.055
  985TIP3    H2 2833   5.258   3.818   0.971
  986TIP3   OH2 2834   5.424   2.975  -0.063
  986TIP3    H1 2835   5.521   2.978  -0.051
  986TIP3    H2 2836   5.406   3.051  -0.120
  987TIP3   OH2 2837   4.591   3.434   0.644
  987TIP3    H1 2838   4.629   3.403   0.559
  987TIP3    H2 2839   4.626   3.369   0.707
  988TIP3   OH2 2840   5.045   3.569  -0.195
  988TIP3    H1 2841   4.996   3.654  -0.192
  988TIP3    H2 2842   4.987   3.512  -0.140
  989TIP3   OH2 2843   4.472   3.352   1.254
  989TIP3    H1 2844   4.490   3.340   1.350
  989TIP3    H2 2845   4.400   3.288   1.240
  990TIP3   OH2 2846   5.195   3.468   1.275
  990TIP3    H1 2847   5.135   3.407   1.228
  990TIP3    H2 2848   5.282   3.434   1.246
  991TIP3   OH2 2849   5.457   3.985   0.859
  991TIP3    H1 2850   5.361   3.987   0.873
  991TIP3    H2 2851   5.487   4.038   0.936
  992TIP3   OH2 2852   5.836   3.078  -0.192
  992TIP3    H1 2853   5.863   3.006  -0.252
  992TIP3    H2 2854   5.830   3.153  -0.254
  993TIP3   OH2 2855   6.087   3.919   0.848
  993TIP3    H1 2856   5.988   3.914   0.841
  993TIP3    H2 2857   6.111   3.889   0.758
  994TIP3   OH2 2858   5.562   3.511   0.516
  994TIP3    H1 2859   5.468   3.487   0.531
  994TIP3    H2 2860   5.592   3.434   0.465
  995TIP3   OH2 2861   4.690   3.734   0.263
  995TIP3    H1 2862   4.689   3.818   0.213
  995TIP3    H2 2863   4.596   3.722   0.281
  996TIP3   OH2 2864   4.259   3.043  -0.024
  996TIP3    H1 2865   4.302   3.129  -0.006
  996TIP3    H2 2866   4.179   3.048   0.032
  997TIP3   OH2 2867   4.831   3.502   0.214
  997TIP3    H1 2868   4.795   3.592   0.229
  997TIP3    H2 2869   4.793   3.453   0.288
  998TIP3   OH2 2870   4.959   4.078   0.740
  998TIP3    H1 2871   5.001   4.148   0.685
  998TIP3    H2 2872   5.036   4.046   0.790
  999TIP3   OH2 2873   4.608   3.974   0.121
  999TIP3    H1 2874   4.523   3.981   0.167
  999TIP3    H2 2875   4.637   4.067   0.121
 1000TIP3   OH2 2876   5.348   3.713   0.695
 1000TIP3    H1 2877   5.337   3.715   0.793
 1000TIP3    H2 2878   5.432   3.665   0.687
 1001TIP3   OH2 2879   5.601   4.248   0.742
 1001TIP3    H1 2880   5.516   4.200   0.731
 1001TIP3    H2 2881   5.593   4.315   0.670
 1002TIP3   OH2 2882   4.682   2.858   1.264
 1002TIP3    H1 2883   4.586   2.865   1.279
 1002TIP3    H2 2884   4.709   2.800   1.336
 1003TIP3   OH2 2885   5.472   3.556  -0.175
 1003TIP3    H1 2886   5.468   3.479  -0.115
 1003TIP3    H2 2887   5.566   3.551  -0.204
 1004TIP3   OH2 2888   4.400   3.944   0.895
 1004TIP3    H1 2889   4.452   3.869   0.929
 1004TIP3    H2 2890   4.421   4.012   0.959
 1005TIP3   OH2 2891   4.682   3.567  -0.430
 1005TIP3    H1 2892   4.710   3.475  -0.430
 1005TIP3    H2 2893   4.657   3.578  -0.336
 1006TIP3   OH2 2894   4.636   3.594  -0.153
 1006TIP3    H1 2895   4.704   3.565  -0.091
 1006TIP3    H2 2896   4.642   3.692  -0.143
 1007TIP3   OH2 2897   4.372   3.290   0.054
 1007TIP3    H1 2898   4.306   3.335   0.111
 1007TIP3    H2 2899   4.387   3.359  -0.014
 1008TIP3   OH2 2900   5.529   2.916   0.936
 1008TIP3    H1 2901   5.594   2.963   0.990
 1008TIP3    H2 2902   5.505   2.840   0.993
 1009TIP3   OH2 2903   5.388   2.680   0.107
 1009TIP3    H1 2904   5.380   2.695   0.010
 1009TIP3    H2 2905   5.429   2.763   0.137
 1010TIP3   OH2 2906   4.898   3.797  -0.213
 1010TIP3    H1 2907   4.814   3.824  -0.172
 1010TIP3    H2 2908   4.886   3.832  -0.303
 1011TIP3   OH2 2909   5.090   2.853   0.212
 1011TIP3    H1 2910   5.154   2.925   0.194
 1011TIP3    H2 2911   5.093   2.848   0.310
 1012TIP3   OH2 2912   5.361   3.174   1.019
 1012TIP3    H1 2913   5.373   3.234   1.097
 1012TIP3    H2 2914   5.413   3.097   1.046
 1013TIP3   OH2 2915   5.232   2.586   0.317
 1013TIP3    H1 2916   5.222   2.666   0.372
 1013TIP3    H2 2917   5.291   2.620   0.245
 1014TIP3   OH2 2918   4.643   3.863  -0.130
 1014TIP3    H1 2919   4.615   3.935  -0.191
 1014TIP3    H2 2920   4.628   3.905  -0.042
 1015TIP3   OH2 2921   4.745   2.581   0.108
 1015TIP3    H1 2922   4.742   2.672   0.144
 1015TIP3    H2 2923   4.841   2.563   0.116
 1016TIP3   OH2 2924   5.999   3.073   1.000
 1016TIP3    H1 2925   5.902   3.073   1.010
 1016TIP3    H2 2926   6.007   3.036   0.911
 1017TIP3   OH2 2927   5.658   3.249   0.395
 1017TIP3    H1 2928   5.570   3.206   0.389
 1017TIP3    H2 2929   5.678   3.235   0.489
 1018TIP3   OH2 2930   4.363   3.506  -0.141
 1018TIP3    H1 2931   4.437   3.568  -0.129
 1018TIP3    H2 2932   4.407   3.444  -0.204
 1019TIP3   OH2 2933   4.321   2.779  -0.014
 1019TIP3    H1 2934   4.305   2.876  -0.022
 1019TIP3    H2 2935   4.242   2.744  -0.055
 1020TIP3   OH2 2936   5.617   4.209   0.332
 1020TIP3    H1 2937   5.570   4.260   0.263
 1020TIP3    H2 2938   5.709   4.238   0.315
 1021TIP3   OH2 2939   4.695   2.492   0.865
 1021TIP3    H1 2940   4.662   2.459   0.779
 1021TIP3    H2 2941   4.684   2.414   0.923
 1022TIP3   OH2 2942   4.234   3.713   0.246
 1022TIP3    H1 2943   4.162   3.741   0.303
 1022TIP3    H2 2944   4.207   3.751   0.160
 1023TIP3   OH2 2945   4.390   4.251   1.313
 1023TIP3    H1 2946   4.474   4.252   1.363
 1023TIP3    H2 2947   4.367   4.156   1.317
 1024TIP3   OH2 2948   4.873   4.219   1.360
 1024TIP3    H1 2949   4.967   4.199   1.369
 1024TIP3    H2 2950   4.847   4.159   1.288
 1025TIP3   OH2 2951   5.515   4.119   1.092
 1025TIP3    H1 2952   5.503   4.052   1.163
 1025TIP3    H2 2953   5.588   4.174   1.127
 1026TIP3   OH2 2954   4.521   3.658   1.516
 1026TIP3    H1 2955   4.535   3.562   1.523
 1026TIP3    H2 2956   4.432   3.662   1.475
 1027TIP3   OH2 2957   4.508   3.323  -0.277
 1027TIP3    H1 2958   4.566   3.279  -0.213
 1027TIP3    H2 2959   4.539   3.287  -0.361
 1028TIP3   OH2 2960   5.130   3.744   1.290
 1028TIP3    H1 2961   5.085   3.759   1.205
 1028TIP3    H2 2962   5.158   3.650   1.283
 1029TIP3   OH2 2963   5.040   3.530  -0.471
 1029TIP3    H1 2964   5.044   3.559  -0.378
 1029TIP3    H2 2965   5.046   3.434  -0.459
 1030TIP3   OH2 2966   5.620   3.749   0.894
 1030TIP3    H1 2967   5.693   3.799   0.853
 1030TIP3    H2 2968   5.547   3.813   0.887
 1031TIP3   OH2 2969   4.639   3.391   1.499
 1031TIP3    H1 2970   4.713   3.331   1.483
 1031TIP3    H2 2971   4.663   3.426   1.588
 1032TIP3   OH2 2972   4.704   3.211  -0.067
 1032TIP3    H1 2973   4.678   3.171   0.017
 1032TIP3    H2 2974   4.741   3.135  -0.117
 1033TIP3   OH2 2975   4.975   3.278   1.162
 1033TIP3    H1 2976   4.896   3.336   1.165
 1033TIP3    H2 2977   5.021   3.312   1.082
 1034TIP3   OH2 2978   4.801   3.004  -0.230
 1034TIP3    H1 2979   4.791   2.984  -0.325
 1034TIP3    H2 2980   4.898   3.018  -0.225
 1035TIP3   OH2 2981   5.489   3.678   1.295
 1035TIP3    H1 2982   5.572   3.658   1.252
 1035TIP3    H2 2983   5.486   3.613   1.367
 1036TIP3   OH2 2984   5.099   3.066   1.287
 1036TIP3    H1 2985   5.095   2.985   1.231
 1036TIP3    H2 2986   5.053   3.132   1.230
 1037TIP3   OH2 2987   5.100   2.851   1.092
 1037TIP3    H1 2988   5.125   2.892   1.007
 1037TIP3    H2 2989   5.006   2.828   1.076
 1038TIP3   OH2 2990   5.129   3.387   0.965
 1038TIP3    H1 2991   5.211   3.400   0.916
 1038TIP3    H2 2992   5.070   3.454   0.924
 1039TIP3   OH2 2993   5.708   3.353   1.347
 1039TIP3    H1 2994   5.759   3.273   1.366
 1039TIP3    H2 2995   5.777   3.415   1.318
 1040TIP3   OH2 2996   5.751   3.605   1.082
 1040TIP3    H1 2997   5.692   3.658   1.024
 1040TIP3    H2 2998   5.838   3.627   1.041
 1041TIP3   OH2 2999   4.975   3.178   1.517
 1041TIP3    H1 3000   4.906   3.111   1.532
 1041TIP3    H2 3001   5.009   3.151   1.429
 1042TIP3   OH2 3002   5.231   2.615   1.159
 1042TIP3    H1 3003   5.182   2.697   1.138
 1042TIP3    H2 3004   5.161   2.547   1.149
 1043TIP3   OH2 3005   5.359   3.120   1.377
 1043TIP3    H1 3006   5.348   3.109   1.473
 1043TIP3    H2 3007   5.268   3.096   1.348
 1044TIP3   OH2 3008   5.595   3.062   1.229
 1044TIP3    H1 3009   5.521   3.070   1.292
 1044TIP3    H2 3010   5.669   3.036   1.287
 1045TIP3   OH2 3011   5.827   3.008   1.381
 1045TIP3    H1 3012   5.838   2.913   1.403
 1045TIP3    H2 3013   5.821   3.050   1.470
 1046TIP3   OH2 3014   4.815   2.958   1.569
 1046TIP3    H1 3015   4.820   2.866   1.536
 1046TIP3    H2 3016   4.850   2.947   1.660
 1047TIP3   OH2 3017   5.328   2.626   1.416
 1047TIP3    H1 3018   5.394   2.554   1.412
 1047TIP3    H2 3019   5.286   2.618   1.328
 1048TIP3   OH2 3020   5.393   2.841   1.577
 1048TIP3    H1 3021   5.370   2.770   1.513
 1048TIP3    H2 3022   5.315   2.900   1.572
 1049TIP3   OH2 3023   4.593   4.066  -0.307
 1049TIP3    H1 3024   4.675   4.091  -0.351
 1049TIP3    H2 3025   4.529   4.084  -0.376
 1050TIP3   OH2 3026   4.097   3.451  -0.093
 1050TIP3    H1 3027   4.187   3.485  -0.113
 1050TIP3    H2 3028   4.097   3.370  -0.144
 1051TIP3   OH2 3029   4.009   4.063   0.305
 1051TIP3    H1 3030   3.940   4.001   0.274
 1051TIP3    H2 3031   4.052   4.008   0.374
 1052TIP3   OH2 3032   4.142   3.917   0.495
 1052TIP3    H1 3033   4.131   3.842   0.556
 1052TIP3    H2 3034   4.193   3.977   0.552
 1053TIP3   OH2 3035   5.866   4.312   0.298
 1053TIP3    H1 3036   5.885   4.349   0.386
 1053TIP3    H2 3037   5.929   4.359   0.242
 1054TIP3   OH2 3038   5.913   4.330   0.577
 1054TIP3    H1 3039   5.856   4.251   0.566
 1054TIP3    H2 3040   5.973   4.295   0.645
 1055TIP3   OH2 3041   5.946   4.011   1.148
 1055TIP3    H1 3042   5.872   4.019   1.212
 1055TIP3    H2 3043   5.986   4.100   1.153
 1056TIP3   OH2 3044   5.740   3.533  -0.224
 1056TIP3    H1 3045   5.807   3.593  -0.261
 1056TIP3    H2 3046   5.793   3.479  -0.162
 1057TIP3   OH2 3047   5.893   3.394  -0.034
 1057TIP3    H1 3048   5.823   3.353   0.021
 1057TIP3    H2 3049   5.949   3.436   0.034
 1058TIP3   OH2 3050   5.944   3.785   0.407
 1058TIP3    H1 3051   5.997   3.722   0.355
 1058TIP3    H2 3052   5.932   3.859   0.345
 1059TIP3   OH2 3053   5.775   4.084   0.600
 1059TIP3    H1 3054   5.705   4.129   0.651
 1059TIP3    H2 3055   5.722   4.038   0.531
 1060TIP3   OH2 3056   5.713   3.247   0.121
 1060TIP3    H1 3057   5.704   3.152   0.105
 1060TIP3    H2 3058   5.699   3.253   0.218
 1061TIP3   OH2 3059   4.331   3.321   0.866
 1061TIP3    H1 3060   4.329   3.292   0.772
 1061TIP3    H2 3061   4.428   3.323   0.882
 1062TIP3   OH2 3062   5.994   3.673   0.975
 1062TIP3    H1 3063   6.066   3.608   0.967
 1062TIP3    H2 3064   6.021   3.744   0.915
 1063TIP3   OH2 3065   6.180   3.479   0.991
 1063TIP3    H1 3066   6.105   3.430   1.031
 1063TIP3    H2 3067   6.252   3.414   1.005
 1064TIP3   OH2 3068   5.622   2.713  -0.405
 1064TIP3    H1 3069   5.705   2.676  -0.370
 1064TIP3    H2 3070   5.556   2.665  -0.354
 1065TIP3   OH2 3071   5.699   2.971   0.024
 1065TIP3    H1 3072   5.739   2.881   0.030
 1065TIP3    H2 3073   5.750   3.008  -0.052
 1066TIP3   OH2 3074   5.933   3.277   0.742
 1066TIP3    H1 3075   5.854   3.309   0.789
 1066TIP3    H2 3076   5.962   3.358   0.696
 1067TIP3   OH2 3077   4.548   3.009   1.540
 1067TIP3    H1 3078   4.646   3.002   1.543
 1067TIP3    H2 3079   4.523   2.924   1.582
 1068TIP3   OH2 3080   6.382   2.872   1.298
 1068TIP3    H1 3081   6.441   2.807   1.255
 1068TIP3    H2 3082   6.354   2.928   1.223
 1069TIP3   OH2 3083   5.806   2.716   0.057
 1069TIP3    H1 3084   5.852   2.692   0.139
 1069TIP3    H2 3085   5.740   2.643   0.052
 1070TIP3   OH2 3086   4.509   2.700   0.868
 1070TIP3    H1 3087   4.572   2.626   0.881
 1070TIP3    H2 3088   4.571   2.775   0.866
 1071TIP3   OH2 3089   4.313   2.974   0.946
 1071TIP3    H1 3090   4.362   2.970   0.861
 1071TIP3    H2 3091   4.339   3.061   0.979
 1072TIP3   OH2 3092   6.255   3.014   1.104
 1072TIP3    H1 3093   6.170   3.055   1.132
 1072TIP3    H2 3094   6.221   2.943   1.046
 1073TIP3   OH2 3095   5.871   2.653  -0.291
 1073TIP3    H1 3096   5.937   2.607  -0.346
 1073TIP3    H2 3097   5.898   2.745  -0.304
 1074TIP3   OH2 3098   4.295   2.476   0.443
 1074TIP3    H1 3099   4.203   2.475   0.474
 1074TIP3    H2 3100   4.291   2.536   0.366
 1075TIP3   OH2 3101   5.455   4.176  -0.044
 1075TIP3    H1 3102   5.513   4.160  -0.119
 1075TIP3    H2 3103   5.498   4.251   0.002
 1076TIP3   OH2 3104   4.515   2.556   1.259
 1076TIP3    H1 3105   4.466   2.552   1.343
 1076TIP3    H2 3106   4.448   2.597   1.200
 1077TIP3   OH2 3107   4.556   3.981   1.338
 1077TIP3    H1 3108   4.463   3.957   1.321
 1077TIP3    H2 3109   4.563   3.968   1.433
 1078TIP3   OH2 3110   4.733   4.015   0.885
 1078TIP3    H1 3111   4.682   4.089   0.845
 1078TIP3    H2 3112   4.818   4.030   0.839
 1079TIP3   OH2 3113   5.177   4.260   1.022
 1079TIP3    H1 3114   5.219   4.263   1.111
 1079TIP3    H2 3115   5.243   4.312   0.970
 1080TIP3   OH2 3116   5.360   4.408   0.883
 1080TIP3    H1 3117   5.433   4.365   0.838
 1080TIP3    H2 3118   5.407   4.469   0.943
 1081TIP3   OH2 3119   6.154   2.775   0.980
 1081TIP3    H1 3120   6.060   2.768   0.954
 1081TIP3    H2 3121   6.182   2.681   0.971
 1082TIP3   OH2 3122   4.409   4.277   0.906
 1082TIP3    H1 3123   4.319   4.310   0.887
 1082TIP3    H2 3124   4.420   4.310   0.997
 1083TIP3   OH2 3125   4.641   4.250   0.762
 1083TIP3    H1 3126   4.555   4.264   0.808
 1083TIP3    H2 3127   4.622   4.283   0.672
 1084TIP3   OH2 3128   5.075   4.264   0.569
 1084TIP3    H1 3129   5.023   4.286   0.490
 1084TIP3    H2 3130   5.087   4.353   0.610
 1085TIP3   OH2 3131   5.347   4.235   0.609
 1085TIP3    H1 3132   5.250   4.233   0.595
 1085TIP3    H2 3133   5.366   4.325   0.577
 1086TIP3   OH2 3134   5.580   4.423   0.534
 1086TIP3    H1 3135   5.507   4.488   0.517
 1086TIP3    H2 3136   5.576   4.369   0.454
 1087TIP3   OH2 3137   4.323   4.071   0.653
 1087TIP3    H1 3138   4.348   4.044   0.744
 1087TIP3    H2 3139   4.393   4.024   0.603
 1088TIP3   OH2 3140   4.511   3.937   0.508
 1088TIP3    H1 3141   4.526   3.854   0.559
 1088TIP3    H2 3142   4.602   3.974   0.506
 1089TIP3   OH2 3143   4.771   4.021   0.517
 1089TIP3    H1 3144   4.809   3.931   0.512
 1089TIP3    H2 3145   4.820   4.057   0.592
 1090TIP3   OH2 3146   5.364   2.692   0.604
 1090TIP3    H1 3147   5.314   2.625   0.655
 1090TIP3    H2 3148   5.425   2.637   0.552
 1091TIP3   OH2 3149   5.885   2.592   0.515
 1091TIP3    H1 3150   5.917   2.630   0.430
 1091TIP3    H2 3151   5.790   2.580   0.497
 1092TIP3   OH2 3152   5.991   2.684   0.267
 1092TIP3    H1 3153   6.048   2.611   0.234
 1092TIP3    H2 3154   6.033   2.758   0.223
 1093TIP3   OH2 3155   4.605   2.400   0.617
 1093TIP3    H1 3156   4.513   2.367   0.619
 1093TIP3    H2 3157   4.655   2.315   0.614
 1094TIP3   OH2 3158   4.372   2.266   0.259
 1094TIP3    H1 3159   4.421   2.320   0.193
 1094TIP3    H2 3160   4.356   2.333   0.329
 1095TIP3   OH2 3161   5.046   2.433   0.496
 1095TIP3    H1 3162   5.109   2.479   0.438
 1095TIP3    H2 3163   5.069   2.470   0.582
 1096TIP3   OH2 3164   5.607   2.573   0.476
 1096TIP3    H1 3165   5.604   2.532   0.388
 1096TIP3    H2 3166   5.597   2.493   0.532
 1097TIP3   OH2 3167   5.614   2.507   0.060
 1097TIP3    H1 3168   5.522   2.537   0.059
 1097TIP3    H2 3169   5.605   2.422   0.109
 1098TIP3   OH2 3170   4.112   3.835   0.039
 1098TIP3    H1 3171   4.026   3.800   0.009
 1098TIP3    H2 3172   4.092   3.930   0.041
 1099TIP3   OH2 3173   4.514   2.414   0.074
 1099TIP3    H1 3174   4.540   2.374  -0.009
 1099TIP3    H2 3175   4.586   2.479   0.088
 1100TIP3   OH2 3176   5.020   2.603   0.128
 1100TIP3    H1 3177   5.080   2.555   0.188
 1100TIP3    H2 3178   5.044   2.695   0.152
 1101TIP3   OH2 3179   4.814   2.681   1.507
 1101TIP3    H1 3180   4.778   2.611   1.565
 1101TIP3    H2 3181   4.908   2.681   1.536
 1102TIP3   OH2 3182   5.062   2.677   1.627
 1102TIP3    H1 3183   5.148   2.650   1.590
 1102TIP3    H2 3184   5.048   2.608   1.695
 1103TIP3   OH2 3185   4.225   3.909  -0.290
 1103TIP3    H1 3186   4.173   3.903  -0.208
 1103TIP3    H2 3187   4.271   3.824  -0.289
 1104TIP3   OH2 3188   5.887   2.737   1.415
 1104TIP3    H1 3189   5.905   2.707   1.507
 1104TIP3    H2 3190   5.976   2.733   1.375
 1105TIP3   OH2 3191   5.829   4.291   0.904
 1105TIP3    H1 3192   5.749   4.257   0.859
 1105TIP3    H2 3193   5.806   4.386   0.910
 1106TIP3   OH2 3194   7.085   3.643   0.065
 1106TIP3    H1 3195   7.128   3.634   0.152
 1106TIP3    H2 3196   7.042   3.556   0.057
 1107TIP3   OH2 3197   6.391   3.556   0.416
 1107TIP3    H1 3198   6.417   3.491   0.484
 1107TIP3    H2 3199   6.467   3.616   0.419
 1108TIP3   OH2 3200   6.360   3.960   0.146
 1108TIP3    H1 3201   6.349   3.863   0.149
 1108TIP3    H2 3202   6.454   3.969   0.167
 1109TIP3   OH2 3203   6.053   3.164  -0.050
 1109TIP3    H1 3204   6.018   3.255  -0.047
 1109TIP3    H2 3205   5.977   3.122  -0.095
 1110TIP3   OH2 3206   6.134   3.456   0.101
 1110TIP3    H1 3207   6.176   3.378   0.141
 1110TIP3    H2 3208   6.200   3.487   0.038
 1111TIP3   OH2 3209   6.888   3.892   0.101
 1111TIP3    H1 3210   6.918   3.809   0.061
 1111TIP3    H2 3211   6.975   3.929   0.129
 1112TIP3   OH2 3212   7.298   3.387   0.134
 1112TIP3    H1 3213   7.338   3.305   0.168
 1112TIP3    H2 3214   7.318   3.377   0.039
 1113TIP3   OH2 3215   6.619   3.056   0.109
 1113TIP3    H1 3216   6.599   3.132   0.051
 1113TIP3    H2 3217   6.585   2.982   0.055
 1114TIP3   OH2 3218   6.252   3.220   0.216
 1114TIP3    H1 3219   6.341   3.237   0.254
 1114TIP3    H2 3220   6.278   3.187   0.127
 1115TIP3   OH2 3221   6.723   3.462   0.014
 1115TIP3    H1 3222   6.818   3.438   0.023
 1115TIP3    H2 3223   6.690   3.382  -0.031
 1116TIP3   OH2 3224   7.941   3.405   0.270
 1116TIP3    H1 3225   7.871   3.473   0.258
 1116TIP3    H2 3226   7.994   3.439   0.343
 1117TIP3   OH2 3227   6.637   3.033   0.534
 1117TIP3    H1 3228   6.577   3.074   0.469
 1117TIP3    H2 3229   6.588   3.049   0.617
 1118TIP3   OH2 3230   6.742   3.811   0.330
 1118TIP3    H1 3231   6.679   3.873   0.372
 1118TIP3    H2 3232   6.790   3.869   0.269
 1119TIP3   OH2 3233   6.497   3.153   0.326
 1119TIP3    H1 3234   6.561   3.224   0.349
 1119TIP3    H2 3235   6.546   3.111   0.251
 1120TIP3   OH2 3236   6.565   4.001   0.421
 1120TIP3    H1 3237   6.543   4.092   0.392
 1120TIP3    H2 3238   6.490   3.986   0.483
 1121TIP3   OH2 3239   7.689   3.108   0.258
 1121TIP3    H1 3240   7.598   3.137   0.240
 1121TIP3    H2 3241   7.734   3.137   0.177
 1122TIP3   OH2 3242   6.997   2.752   0.255
 1122TIP3    H1 3243   6.976   2.657   0.269
 1122TIP3    H2 3244   6.916   2.792   0.294
 1123TIP3   OH2 3245   7.619   4.137   0.248
 1123TIP3    H1 3246   7.639   4.081   0.172
 1123TIP3    H2 3247   7.598   4.221   0.203
 1124TIP3   OH2 3248   7.500   3.635   0.393
 1124TIP3    H1 3249   7.503   3.718   0.445
 1124TIP3    H2 3250   7.417   3.648   0.343
 1125TIP3   OH2 3251   6.504   3.590  -0.108
 1125TIP3    H1 3252   6.492   3.518  -0.172
 1125TIP3    H2 3253   6.586   3.559  -0.065
 1126TIP3   OH2 3254   6.647   4.007   0.029
 1126TIP3    H1 3255   6.617   3.928  -0.016
 1126TIP3    H2 3256   6.735   3.977   0.061
 1127TIP3   OH2 3257   6.634   3.570   0.250
 1127TIP3    H1 3258   6.675   3.542   0.165
 1127TIP3    H2 3259   6.683   3.653   0.271
 1128TIP3   OH2 3260   6.777   4.123   0.567
 1128TIP3    H1 3261   6.721   4.186   0.618
 1128TIP3    H2 3262   6.708   4.070   0.523
 1129TIP3   OH2 3263   6.528   3.683   0.666
 1129TIP3    H1 3264   6.535   3.767   0.715
 1129TIP3    H2 3265   6.434   3.661   0.683
 1130TIP3   OH2 3266   6.569   4.285   0.654
 1130TIP3    H1 3267   6.531   4.285   0.564
 1130TIP3    H2 3268   6.491   4.269   0.710
 1131TIP3   OH2 3269   6.153   3.823   0.603
 1131TIP3    H1 3270   6.083   3.800   0.538
 1131TIP3    H2 3271   6.187   3.735   0.630
 1132TIP3   OH2 3272   6.004   4.012   0.239
 1132TIP3    H1 3273   6.100   4.018   0.230
 1132TIP3    H2 3274   5.984   4.091   0.292
 1133TIP3   OH2 3275   7.869   4.452   0.296
 1133TIP3    H1 3276   7.890   4.361   0.321
 1133TIP3    H2 3277   7.793   4.471   0.354
 1134TIP3   OH2 3278   6.970   4.255   0.420
 1134TIP3    H1 3279   6.974   4.345   0.459
 1134TIP3    H2 3280   6.904   4.212   0.479
 1135TIP3   OH2 3281   7.753   3.592   0.574
 1135TIP3    H1 3282   7.683   3.606   0.509
 1135TIP3    H2 3283   7.772   3.497   0.563
 1136TIP3   OH2 3284   6.356   4.007   0.596
 1136TIP3    H1 3285   6.407   3.987   0.677
 1136TIP3    H2 3286   6.282   3.943   0.602
 1137TIP3   OH2 3287   6.749   2.826   0.376
 1137TIP3    H1 3288   6.659   2.800   0.350
 1137TIP3    H2 3289   6.729   2.909   0.423
 1138TIP3   OH2 3290   7.289   2.941   0.570
 1138TIP3    H1 3291   7.357   2.918   0.636
 1138TIP3    H2 3292   7.205   2.924   0.617
 1139TIP3   OH2 3293   7.523   3.370   0.484
 1139TIP3    H1 3294   7.480   3.367   0.573
 1139TIP3    H2 3295   7.504   3.462   0.456
 1140TIP3   OH2 3296   6.681   3.344   0.395
 1140TIP3    H1 3297   6.638   3.366   0.479
 1140TIP3    H2 3298   6.666   3.426   0.344
 1141TIP3   OH2 3299   6.528   3.255  -0.056
 1141TIP3    H1 3300   6.460   3.186  -0.070
 1141TIP3    H2 3301   6.586   3.249  -0.135
 1142TIP3   OH2 3302   7.234   3.595   0.722
 1142TIP3    H1 3303   7.214   3.522   0.785
 1142TIP3    H2 3304   7.328   3.612   0.744
 1143TIP3   OH2 3305   6.503   3.372   0.606
 1143TIP3    H1 3306   6.533   3.437   0.671
 1143TIP3    H2 3307   6.494   3.291   0.660
 1144TIP3   OH2 3308   4.340   1.067   9.130
 1144TIP3    H1 3309   4.351   1.152   9.083
 1144TIP3    H2 3310   4.244   1.052   9.123
 1145TIP3   OH2 3311   7.224   3.592   0.294
 1145TIP3    H1 3312   7.257   3.515   0.241
 1145TIP3    H2 3313   7.200   3.545   0.377
 1146TIP3   OH2 3314   6.876   2.975   0.032
 1146TIP3    H1 3315   6.802   3.027   0.067
 1146TIP3    H2 3316   6.950   3.037   0.036
 1147TIP3   OH2 3317   6.313   3.087  -0.025
 1147TIP3    H1 3318   6.216   3.091  -0.045
 1147TIP3    H2 3319   6.334   2.994  -0.046
 1148TIP3   OH2 3320   7.383   3.127   0.181
 1148TIP3    H1 3321   7.351   3.142   0.272
 1148TIP3    H2 3322   7.317   3.063   0.149
 1149TIP3   OH2 3323   7.562   4.807   0.377
 1149TIP3    H1 3324   7.514   4.861   0.312
 1149TIP3    H2 3325   7.619   4.873   0.418
 1150TIP3   OH2 3326   6.518   3.928   0.813
 1150TIP3    H1 3327   6.598   3.956   0.862
 1150TIP3    H2 3328   6.454   3.924   0.886
 1151TIP3   OH2 3329   6.984   3.380   0.067
 1151TIP3    H1 3330   7.030   3.316   0.010
 1151TIP3    H2 3331   7.000   3.342   0.156
 1152TIP3   OH2 3332   6.511   2.867  -0.059
 1152TIP3    H1 3333   6.471   2.791  -0.011
 1152TIP3    H2 3334   6.589   2.827  -0.099
 1153TIP3   OH2 3335   6.956   3.279   0.357
 1153TIP3    H1 3336   6.868   3.316   0.374
 1153TIP3    H2 3337   7.016   3.337   0.408
 1154TIP3   OH2 3338   7.082   3.981   0.452
 1154TIP3    H1 3339   7.123   3.960   0.537
 1154TIP3    H2 3340   7.059   4.074   0.462
 1155TIP3   OH2 3341   6.383   3.680   0.130
 1155TIP3    H1 3342   6.426   3.648   0.049
 1155TIP3    H2 3343   6.428   3.629   0.199
 1156TIP3   OH2 3344   6.266   3.610   0.742
 1156TIP3    H1 3345   6.289   3.599   0.836
 1156TIP3    H2 3346   6.198   3.542   0.731
 1157TIP3   OH2 3347   6.992   3.724   0.761
 1157TIP3    H1 3348   6.936   3.662   0.713
 1157TIP3    H2 3349   7.082   3.692   0.736
 1158TIP3   OH2 3350   7.244   4.229   0.352
 1158TIP3    H1 3351   7.150   4.246   0.369
 1158TIP3    H2 3352   7.285   4.287   0.420
 1159TIP3   OH2 3353   7.875   4.179   0.363
 1159TIP3    H1 3354   7.778   4.187   0.353
 1159TIP3    H2 3355   7.899   4.153   0.271
 1160TIP3   OH2 3356   6.757   4.315   0.232
 1160TIP3    H1 3357   6.786   4.388   0.174
 1160TIP3    H2 3358   6.837   4.297   0.284
 1161TIP3   OH2 3359   7.133   3.980   0.179
 1161TIP3    H1 3360   7.129   3.977   0.277
 1161TIP3    H2 3361   7.229   3.971   0.164
 1162TIP3   OH2 3362   6.479   3.113   0.750
 1162TIP3    H1 3363   6.384   3.123   0.771
 1162TIP3    H2 3364   6.511   3.059   0.824
 1163TIP3   OH2 3365   6.201   4.199   0.391
 1163TIP3    H1 3366   6.247   4.118   0.418
 1163TIP3    H2 3367   6.226   4.258   0.462
 1164TIP3   OH2 3368   7.311   3.183   0.436
 1164TIP3    H1 3369   7.392   3.222   0.472
 1164TIP3    H2 3370   7.302   3.101   0.489
 1165TIP3   OH2 3371   7.155   3.433   0.506
 1165TIP3    H1 3372   7.176   3.485   0.586
 1165TIP3    H2 3373   7.210   3.353   0.519
 1166TIP3   OH2 3374   7.793   3.327   0.495
 1166TIP3    H1 3375   7.695   3.321   0.488
 1166TIP3    H2 3376   7.820   3.311   0.403
 1167TIP3   OH2 3377   6.472   2.758   0.355
 1167TIP3    H1 3378   6.452   2.720   0.267
 1167TIP3    H2 3379   6.472   2.678   0.412
 1168TIP3   OH2 3380   6.243   4.512   0.816
 1168TIP3    H1 3381   6.282   4.435   0.864
 1168TIP3    H2 3382   6.171   4.462   0.773
 1169TIP3   OH2 3383   6.649   4.486   0.834
 1169TIP3    H1 3384   6.742   4.484   0.860
 1169TIP3    H2 3385   6.646   4.416   0.767
 1170TIP3   OH2 3386   7.313   4.375   0.575
 1170TIP3    H1 3387   7.301   4.309   0.648
 1170TIP3    H2 3388   7.385   4.431   0.609
 1171TIP3   OH2 3389   6.317   3.916   1.002
 1171TIP3    H1 3390   6.331   3.820   1.013
 1171TIP3    H2 3391   6.228   3.917   0.962
 1172TIP3   OH2 3392   6.924   3.999   0.778
 1172TIP3    H1 3393   6.886   4.014   0.689
 1172TIP3    H2 3394   6.957   3.907   0.771
 1173TIP3   OH2 3395   7.414   4.008   0.383
 1173TIP3    H1 3396   7.489   4.051   0.337
 1173TIP3    H2 3397   7.347   4.079   0.375
 1174TIP3   OH2 3398   6.438   3.648   0.983
 1174TIP3    H1 3399   6.511   3.587   0.970
 1174TIP3    H2 3400   6.459   3.682   1.073
 1175TIP3   OH2 3401   6.766   3.530   0.644
 1175TIP3    H1 3402   6.693   3.594   0.650
 1175TIP3    H2 3403   6.818   3.565   0.568
 1176TIP3   OH2 3404   7.284   3.933   0.779
 1176TIP3    H1 3405   7.371   3.919   0.740
 1176TIP3    H2 3406   7.284   3.870   0.853
 1177TIP3   OH2 3407   6.892   3.321   0.775
 1177TIP3    H1 3408   6.894   3.241   0.719
 1177TIP3    H2 3409   6.849   3.386   0.716
 1178TIP3   OH2 3410   6.896   3.108   0.580
 1178TIP3    H1 3411   6.925   3.148   0.495
 1178TIP3    H2 3412   6.803   3.085   0.561
 1179TIP3   OH2 3413   6.920   3.639   0.451
 1179TIP3    H1 3414   7.007   3.650   0.410
 1179TIP3    H2 3415   6.869   3.712   0.410
 1180TIP3   OH2 3416   7.505   3.611   0.835
 1180TIP3    H1 3417   7.556   3.529   0.848
 1180TIP3    H2 3418   7.574   3.670   0.802
 1181TIP3   OH2 3419   7.550   3.864   0.566
 1181TIP3    H1 3420   7.490   3.919   0.510
 1181TIP3    H2 3421   7.636   3.883   0.522
 1182TIP3   OH2 3422   6.768   3.436   1.002
 1182TIP3    H1 3423   6.700   3.368   1.019
 1182TIP3    H2 3424   6.805   3.406   0.917
 1183TIP3   OH2 3425   7.028   2.871   0.647
 1183TIP3    H1 3426   6.980   2.954   0.625
 1183TIP3    H2 3427   6.957   2.805   0.636
 1184TIP3   OH2 3428   7.154   3.378   0.865
 1184TIP3    H1 3429   7.147   3.366   0.961
 1184TIP3    H2 3430   7.063   3.352   0.839
 1185TIP3   OH2 3431   7.393   3.323   0.718
 1185TIP3    H1 3432   7.319   3.327   0.781
 1185TIP3    H2 3433   7.467   3.295   0.775
 1186TIP3   OH2 3434   7.617   3.264   0.870
 1186TIP3    H1 3435   7.633   3.169   0.890
 1186TIP3    H2 3436   7.617   3.305   0.959
 1187TIP3   OH2 3437   6.610   3.214   1.056
 1187TIP3    H1 3438   6.619   3.123   1.024
 1187TIP3    H2 3439   6.646   3.205   1.147
 1188TIP3   OH2 3440   7.123   2.881   0.904
 1188TIP3    H1 3441   7.191   2.811   0.899
 1188TIP3    H2 3442   7.083   2.874   0.815
 1189TIP3   OH2 3443   7.187   3.096   1.065
 1189TIP3    H1 3444   7.165   3.026   1.000
 1189TIP3    H2 3445   7.110   3.156   1.058
 1190TIP3   OH2 3446   5.936   4.177  -0.004
 1190TIP3    H1 3447   5.912   4.103   0.054
 1190TIP3    H2 3448   5.977   4.237   0.060
 1191TIP3   OH2 3449   7.740   4.265   0.639
 1191TIP3    H1 3450   7.667   4.276   0.703
 1191TIP3    H2 3451   7.781   4.354   0.640
 1192TIP3   OH2 3452   6.127   3.582   0.351
 1192TIP3    H1 3453   6.128   3.556   0.257
 1192TIP3    H2 3454   6.224   3.581   0.372
 1193TIP3   OH2 3455   7.788   3.930   0.449
 1193TIP3    H1 3456   7.865   3.868   0.455
 1193TIP3    H2 3457   7.829   4.015   0.423
 1194TIP3   OH2 3458   7.967   3.736   0.500
 1194TIP3    H1 3459   7.893   3.680   0.532
 1194TIP3    H2 3460   8.042   3.674   0.510
 1195TIP3   OH2 3461   7.730   3.577   0.240
 1195TIP3    H1 3462   7.647   3.583   0.291
 1195TIP3    H2 3463   7.699   3.605   0.152
 1196TIP3   OH2 3464   6.344   3.263   1.020
 1196TIP3    H1 3465   6.442   3.259   1.029
 1196TIP3    H2 3466   6.318   3.181   1.066
 1197TIP3   OH2 3467   8.176   3.129   0.786
 1197TIP3    H1 3468   8.236   3.065   0.742
 1197TIP3    H2 3469   8.148   3.186   0.711
 1198TIP3   OH2 3470   6.291   2.977   0.372
 1198TIP3    H1 3471   6.331   2.885   0.378
 1198TIP3    H2 3472   6.377   3.026   0.363
 1199TIP3   OH2 3473   8.050   3.276   0.596
 1199TIP3    H1 3474   7.959   3.310   0.610
 1199TIP3    H2 3475   8.031   3.207   0.530
 1200TIP3   OH2 3476   6.078   2.749  -0.061
 1200TIP3    H1 3477   5.983   2.731  -0.045
 1200TIP3    H2 3478   6.078   2.797  -0.144
 1201TIP3   OH2 3479   6.315   2.815   0.751
 1201TIP3    H1 3480   6.268   2.803   0.835
 1201TIP3    H2 3481   6.257   2.875   0.704
 1202TIP3   OH2 3482   6.345   4.253   0.835
 1202TIP3    H1 3483   6.258   4.214   0.815
 1202TIP3    H2 3484   6.367   4.209   0.919
 1203TIP3   OH2 3485   6.524   4.271   0.371
 1203TIP3    H1 3486   6.474   4.343   0.327
 1203TIP3    H2 3487   6.612   4.284   0.330
 1204TIP3   OH2 3488   6.976   4.512   0.509
 1204TIP3    H1 3489   7.013   4.515   0.601
 1204TIP3    H2 3490   7.043   4.566   0.462
 1205TIP3   OH2 3491   7.156   4.651   0.360
 1205TIP3    H1 3492   7.240   4.609   0.336
 1205TIP3    H2 3493   7.191   4.719   0.422
 1206TIP3   OH2 3494   7.948   3.033   0.481
 1206TIP3    H1 3495   7.863   3.040   0.434
 1206TIP3    H2 3496   7.975   2.941   0.459
 1207TIP3   OH2 3497   6.211   4.541   0.403
 1207TIP3    H1 3498   6.128   4.579   0.366
 1207TIP3    H2 3499   6.178   4.518   0.490
 1208TIP3   OH2 3500   6.430   4.519   0.244
 1208TIP3    H1 3501   6.351   4.534   0.302
 1208TIP3    H2 3502   6.391   4.528   0.157
 1209TIP3   OH2 3503   6.110   4.326   0.161
 1209TIP3    H1 3504   6.139   4.294   0.250
 1209TIP3    H2 3505   6.178   4.279   0.106
 1210TIP3   OH2 3506   6.298   4.197   0.020
 1210TIP3    H1 3507   6.316   4.111   0.064
 1210TIP3    H2 3508   6.388   4.237   0.020
 1211TIP3   OH2 3509   6.558   4.266   0.038
 1211TIP3    H1 3510   6.593   4.175   0.043
 1211TIP3    H2 3511   6.620   4.312   0.097
 1212TIP3   OH2 3512   7.163   2.958   0.109
 1212TIP3    H1 3513   7.094   2.900   0.146
 1212TIP3    H2 3514   7.225   2.893   0.070
 1213TIP3   OH2 3515   7.667   2.863   0.038
 1213TIP3    H1 3516   7.714   2.931  -0.012
 1213TIP3    H2 3517   7.575   2.881   0.013
 1214TIP3   OH2 3518   6.399   2.664   0.102
 1214TIP3    H1 3519   6.307   2.631   0.099
 1214TIP3    H2 3520   6.446   2.578   0.104
 1215TIP3   OH2 3521   6.199   2.516  -0.212
 1215TIP3    H1 3522   6.171   2.548  -0.300
 1215TIP3    H2 3523   6.165   2.585  -0.152
 1216TIP3   OH2 3524   6.848   2.686  -0.014
 1216TIP3    H1 3525   6.877   2.757  -0.074
 1216TIP3    H2 3526   6.861   2.732   0.071
 1217TIP3   OH2 3527   7.359   2.812  -0.010
 1217TIP3    H1 3528   7.330   2.764  -0.091
 1217TIP3    H2 3529   7.373   2.736   0.050
 1218TIP3   OH2 3530   6.610   2.937   0.992
 1218TIP3    H1 3531   6.574   2.868   1.051
 1218TIP3    H2 3532   6.704   2.937   1.020
 1219TIP3   OH2 3533   6.857   2.933   1.112
 1219TIP3    H1 3534   6.944   2.909   1.076
 1219TIP3    H2 3535   6.845   2.864   1.181
 1220TIP3   OH2 3536   7.682   2.993   0.901
 1220TIP3    H1 3537   7.703   2.964   0.993
 1220TIP3    H2 3538   7.772   2.992   0.860
 1221TIP3   OH2 3539   7.629   4.539   0.413
 1221TIP3    H1 3540   7.594   4.496   0.333
 1221TIP3    H2 3541   7.606   4.633   0.399
 1222TIP3   OH2 3542   8.354   4.123   0.341
 1222TIP3    H1 3543   8.405   4.187   0.394
 1222TIP3    H2 3544   8.279   4.108   0.401
 1223TIP3   OH2 3545   8.071   3.822   0.252
 1223TIP3    H1 3546   8.123   3.849   0.330
 1223TIP3    H2 3547   8.024   3.746   0.290
 1224TIP3   OH2 3548   8.211   3.276   0.267
 1224TIP3    H1 3549   8.205   3.370   0.246
 1224TIP3    H2 3550   8.287   3.274   0.328
 1225TIP3   OH2 3551   8.117   4.170   0.492
 1225TIP3    H1 3552   8.116   4.075   0.510
 1225TIP3    H2 3553   8.027   4.183   0.455
 1226TIP3   OH2 3554   8.227   3.890   0.477
 1226TIP3    H1 3555   8.306   3.838   0.456
 1226TIP3    H2 3556   8.252   3.928   0.564
 1227TIP3   OH2 3557   8.545   3.704   0.469
 1227TIP3    H1 3558   8.482   3.631   0.486
 1227TIP3    H2 3559   8.582   3.677   0.384
 1228TIP3   OH2 3560   8.402   3.481   0.554
 1228TIP3    H1 3561   8.422   3.406   0.496
 1228TIP3    H2 3562   8.439   3.451   0.640
 1229TIP3   OH2 3563   8.137   3.526   0.512
 1229TIP3    H1 3564   8.234   3.520   0.516
 1229TIP3    H2 3565   8.113   3.440   0.552
 1230TIP3   OH2 3566   8.051   3.066   0.216
 1230TIP3    H1 3567   8.045   3.067   0.312
 1230TIP3    H2 3568   8.093   3.154   0.203
 1231TIP3   OH2 3569   8.376   3.181   0.469
 1231TIP3    H1 3570   8.345   3.114   0.531
 1231TIP3    H2 3571   8.469   3.191   0.500
 1232TIP3   OH2 3572   8.610   3.195   0.598
 1232TIP3    H1 3573   8.707   3.202   0.591
 1232TIP3    H2 3574   8.605   3.120   0.661
 1233TIP3   OH2 3575   0.431   4.176   1.976
 1233TIP3    H1 3576   0.364   4.227   1.926
 1233TIP3    H2 3577   0.452   4.238   2.049
 1234TIP3   OH2 3578  -0.129   4.984   1.630
 1234TIP3    H1 3579  -0.224   4.978   1.638
 1234TIP3    H2 3580  -0.115   5.041   1.551
 1235TIP3   OH2 3581   0.083   4.913   1.937
 1235TIP3    H1 3582   0.076   4.835   1.878
 1235TIP3    H2 3583   0.073   4.987   1.874
 1236TIP3   OH2 3584   0.278   4.544   1.783
 1236TIP3    H1 3585   0.195   4.596   1.788
 1236TIP3    H2 3586   0.306   4.565   1.692
 1237TIP3   OH2 3587  -0.029   4.427   2.088
 1237TIP3    H1 3588  -0.038   4.508   2.143
 1237TIP3    H2 3589  -0.108   4.432   2.033
 1238TIP3   OH2 3590   0.322   5.253   1.979
 1238TIP3    H1 3591   0.321   5.157   1.995
 1238TIP3    H2 3592   0.241   5.279   2.029
 1239TIP3   OH2 3593  -0.555   5.028   2.125
 1239TIP3    H1 3594  -0.545   5.122   2.155
 1239TIP3    H2 3595  -0.650   5.019   2.133
 1240TIP3   OH2 3596   0.215   4.383   2.257
 1240TIP3    H1 3597   0.133   4.396   2.207
 1240TIP3    H2 3598   0.226   4.286   2.254
 1241TIP3   OH2 3599  -0.029   4.159   2.163
 1241TIP3    H1 3600  -0.059   4.156   2.257
 1241TIP3    H2 3601  -0.035   4.255   2.145
 1242TIP3   OH2 3602  -0.314   4.401   2.421
 1242TIP3    H1 3603  -0.339   4.319   2.469
 1242TIP3    H2 3604  -0.218   4.403   2.436
 1243TIP3   OH2 3605   0.008   5.602   2.104
 1243TIP3    H1 3606   0.005   5.621   2.008
 1243TIP3    H2 3607   0.087   5.651   2.132
 1244TIP3   OH2 3608   0.051   4.697   1.771
 1244TIP3    H1 3609   0.086   4.745   1.693
 1244TIP3    H2 3610  -0.040   4.679   1.744
 1245TIP3   OH2 3611  -0.431   4.786   2.125
 1245TIP3    H1 3612  -0.424   4.754   2.216
 1245TIP3    H2 3613  -0.483   4.868   2.137
 1246TIP3   OH2 3614  -0.552   4.523   2.480
 1246TIP3    H1 3615  -0.609   4.499   2.404
 1246TIP3    H2 3616  -0.465   4.488   2.449
 1247TIP3   OH2 3617  -0.298   5.087   2.020
 1247TIP3    H1 3618  -0.385   5.048   2.043
 1247TIP3    H2 3619  -0.266   5.109   2.111
 1248TIP3   OH2 3620   0.334   4.963   2.027
 1248TIP3    H1 3621   0.236   4.958   2.020
 1248TIP3    H2 3622   0.359   4.933   1.937
 1249TIP3   OH2 3623  -0.332   4.806   1.855
 1249TIP3    H1 3624  -0.354   4.813   1.950
 1249TIP3    H2 3625  -0.351   4.712   1.838
 1250TIP3   OH2 3626  -0.140   5.288   1.927
 1250TIP3    H1 3627  -0.200   5.215   1.958
 1250TIP3    H2 3628  -0.197   5.332   1.861
 1251TIP3   OH2 3629   0.241   4.109   2.180
 1251TIP3    H1 3630   0.143   4.108   2.169
 1251TIP3    H2 3631   0.272   4.113   2.088
 1252TIP3   OH2 3632  -0.229   5.161   2.270
 1252TIP3    H1 3633  -0.240   5.092   2.339
 1252TIP3    H2 3634  -0.156   5.215   2.306
 1253TIP3   OH2 3635  -0.610   4.793   2.454
 1253TIP3    H1 3636  -0.673   4.763   2.387
 1253TIP3    H2 3637  -0.574   4.707   2.484
 1254TIP3   OH2 3638  -0.123   4.788   2.074
 1254TIP3    H1 3639  -0.051   4.839   2.031
 1254TIP3    H2 3640  -0.198   4.846   2.057
 1255TIP3   OH2 3641  -0.262   4.718   2.472
 1255TIP3    H1 3642  -0.174   4.703   2.434
 1255TIP3    H2 3643  -0.264   4.650   2.542
 1256TIP3   OH2 3644  -0.042   4.413   2.529
 1256TIP3    H1 3645  -0.003   4.324   2.529
 1256TIP3    H2 3646   0.034   4.467   2.505
 1257TIP3   OH2 3647   0.003   4.647   2.261
 1257TIP3    H1 3648  -0.054   4.704   2.204
 1257TIP3    H2 3649   0.091   4.668   2.221
 1258TIP3   OH2 3650  -0.413   4.184   2.565
 1258TIP3    H1 3651  -0.394   4.166   2.659
 1258TIP3    H2 3652  -0.510   4.195   2.572
 1259TIP3   OH2 3653  -0.105   4.151   2.423
 1259TIP3    H1 3654  -0.178   4.131   2.483
 1259TIP3    H2 3655  -0.031   4.105   2.469
 1260TIP3   OH2 3656   0.095   4.044   2.570
 1260TIP3    H1 3657   0.095   3.949   2.592
 1260TIP3    H2 3658   0.084   4.087   2.658
 1261TIP3   OH2 3659   0.144   5.423   1.481
 1261TIP3    H1 3660   0.179   5.380   1.561
 1261TIP3    H2 3661   0.203   5.385   1.411
 1262TIP3   OH2 3662   0.163   5.385   1.767
 1262TIP3    H1 3663   0.111   5.303   1.756
 1262TIP3    H2 3664   0.233   5.351   1.826
 1263TIP3   OH2 3665   0.191   5.055   2.323
 1263TIP3    H1 3666   0.120   5.064   2.390
 1263TIP3    H2 3667   0.233   5.144   2.327
 1264TIP3   OH2 3668   0.190   4.822   1.579
 1264TIP3    H1 3669   0.249   4.759   1.532
 1264TIP3    H2 3670   0.194   4.901   1.521
 1265TIP3   OH2 3671   0.039   5.137   1.782
 1265TIP3    H1 3672  -0.030   5.178   1.836
 1265TIP3    H2 3673  -0.014   5.085   1.718
 1266TIP3   OH2 3674   0.242   4.718   2.149
 1266TIP3    H1 3675   0.314   4.652   2.143
 1266TIP3    H2 3676   0.274   4.789   2.092
 1267TIP3   OH2 3677   0.427   4.525   2.171
 1267TIP3    H1 3678   0.354   4.473   2.210
 1267TIP3    H2 3679   0.501   4.463   2.185
 1268TIP3   OH2 3680   0.181   4.325   1.927
 1268TIP3    H1 3681   0.114   4.374   1.979
 1268TIP3    H2 3682   0.218   4.396   1.871
 1269TIP3   OH2 3683   0.627   3.913   2.475
 1269TIP3    H1 3684   0.689   3.851   2.431
 1269TIP3    H2 3685   0.601   3.972   2.400
 1270TIP3   OH2 3686   0.503   4.060   2.283
 1270TIP3    H1 3687   0.419   4.099   2.313
 1270TIP3    H2 3688   0.471   3.995   2.218
 1271TIP3   OH2 3689  -0.553   5.283   2.206
 1271TIP3    H1 3690  -0.533   5.317   2.295
 1271TIP3    H2 3691  -0.518   5.353   2.149
 1272TIP3   OH2 3692  -0.368   5.430   2.052
 1272TIP3    H1 3693  -0.278   5.393   2.053
 1272TIP3    H2 3694  -0.353   5.505   2.114
 1273TIP3   OH2 3695   0.397   3.815   2.152
 1273TIP3    H1 3696   0.309   3.834   2.117
 1273TIP3    H2 3697   0.400   3.719   2.145
 1274TIP3   OH2 3698   0.132   3.766   2.590
 1274TIP3    H1 3699   0.159   3.745   2.682
 1274TIP3    H2 3700   0.219   3.774   2.545
 1275TIP3   OH2 3701   0.083   5.338   2.087
 1275TIP3    H1 3702   0.006   5.308   2.036
 1275TIP3    H2 3703   0.060   5.432   2.099
 1276TIP3   OH2 3704   1.362   4.727   0.872
 1276TIP3    H1 3705   1.329   4.815   0.847
 1276TIP3    H2 3706   1.289   4.672   0.840
 1277TIP3   OH2 3707   1.333   4.710   1.234
 1277TIP3    H1 3708   1.371   4.683   1.320
 1277TIP3    H2 3709   1.302   4.625   1.199
 1278TIP3   OH2 3710   0.640   4.608   1.599
 1278TIP3    H1 3711   0.665   4.531   1.653
 1278TIP3    H2 3712   0.720   4.662   1.607
 1279TIP3   OH2 3713   1.582   5.010   0.912
 1279TIP3    H1 3714   1.569   4.939   0.977
 1279TIP3    H2 3715   1.612   5.083   0.967
 1280TIP3   OH2 3716   0.609   5.011   1.322
 1280TIP3    H1 3717   0.599   4.913   1.327
 1280TIP3    H2 3718   0.705   5.019   1.325
 1281TIP3   OH2 3719   1.225   5.471   0.921
 1281TIP3    H1 3720   1.282   5.400   0.883
 1281TIP3    H2 3721   1.222   5.446   1.014
 1282TIP3   OH2 3722   1.141   4.933   1.277
 1282TIP3    H1 3723   1.182   4.854   1.237
 1282TIP3    H2 3724   1.223   4.980   1.302
 1283TIP3   OH2 3725   2.150   4.255   1.277
 1283TIP3    H1 3726   2.179   4.336   1.324
 1283TIP3    H2 3727   2.171   4.278   1.185
 1284TIP3   OH2 3728   1.552   4.438   1.312
 1284TIP3    H1 3729   1.593   4.352   1.333
 1284TIP3    H2 3730   1.520   4.421   1.221
 1285TIP3   OH2 3731   1.572   4.177   0.920
 1285TIP3    H1 3732   1.657   4.167   0.968
 1285TIP3    H2 3733   1.600   4.208   0.833
 1286TIP3   OH2 3734   0.975   4.487   1.175
 1286TIP3    H1 3735   1.071   4.476   1.195
 1286TIP3    H2 3736   0.951   4.395   1.160
 1287TIP3   OH2 3737   2.223   4.460   1.447
 1287TIP3    H1 3738   2.139   4.509   1.433
 1287TIP3    H2 3739   2.249   4.493   1.535
 1288TIP3   OH2 3740   0.878   4.071   1.712
 1288TIP3    H1 3741   0.818   4.114   1.648
 1288TIP3    H2 3742   0.832   4.094   1.796
 1289TIP3   OH2 3743   1.236   4.929   0.729
 1289TIP3    H1 3744   1.202   4.913   0.639
 1289TIP3    H2 3745   1.198   5.017   0.747
 1290TIP3   OH2 3746   0.991   4.853   1.507
 1290TIP3    H1 3747   0.928   4.918   1.546
 1290TIP3    H2 3748   1.035   4.907   1.439
 1291TIP3   OH2 3749   1.801   4.187   1.068
 1291TIP3    H1 3750   1.780   4.141   1.151
 1291TIP3    H2 3751   1.849   4.265   1.099
 1292TIP3   OH2 3752   0.753   4.196   1.511
 1292TIP3    H1 3753   0.822   4.264   1.506
 1292TIP3    H2 3754   0.775   4.132   1.441
 1293TIP3   OH2 3755   0.818   5.047   1.602
 1293TIP3    H1 3756   0.793   5.134   1.567
 1293TIP3    H2 3757   0.740   5.030   1.660
 1294TIP3   OH2 3758   1.653   5.252   1.080
 1294TIP3    H1 3759   1.563   5.243   1.119
 1294TIP3    H2 3760   1.645   5.339   1.035
 1295TIP3   OH2 3761   1.944   4.152   1.441
 1295TIP3    H1 3762   1.857   4.185   1.413
 1295TIP3    H2 3763   2.004   4.186   1.372
 1296TIP3   OH2 3764   1.266   3.818   1.426
 1296TIP3    H1 3765   1.245   3.723   1.443
 1296TIP3    H2 3766   1.183   3.858   1.461
 1297TIP3   OH2 3767   1.366   5.299   0.763
 1297TIP3    H1 3768   1.414   5.216   0.739
 1297TIP3    H2 3769   1.429   5.365   0.725
 1298TIP3   OH2 3770   1.496   5.084   0.661
 1298TIP3    H1 3771   1.471   5.004   0.612
 1298TIP3    H2 3772   1.532   5.046   0.744
 1299TIP3   OH2 3773   1.878   5.168   1.423
 1299TIP3    H1 3774   1.869   5.089   1.365
 1299TIP3    H2 3775   1.864   5.241   1.360
 1300TIP3   OH2 3776   1.196   4.594   0.703
 1300TIP3    H1 3777   1.109   4.635   0.680
 1300TIP3    H2 3778   1.251   4.623   0.628
 1301TIP3   OH2 3779   2.074   4.800   1.266
 1301TIP3    H1 3780   1.992   4.854   1.273
 1301TIP3    H2 3781   2.104   4.827   1.176
 1302TIP3   OH2 3782   1.524   4.649   0.664
 1302TIP3    H1 3783   1.477   4.678   0.746
 1302TIP3    H2 3784   1.607   4.614   0.704
 1303TIP3   OH2 3785   1.754   4.682   1.564
 1303TIP3    H1 3786   1.753   4.764   1.617
 1303TIP3    H2 3787   1.668   4.689   1.519
 1304TIP3   OH2 3788   0.779   4.640   1.066
 1304TIP3    H1 3789   0.728   4.558   1.045
 1304TIP3    H2 3790   0.859   4.600   1.106
 1305TIP3   OH2 3791   0.889   5.046   1.211
 1305TIP3    H1 3792   0.872   4.979   1.144
 1305TIP3    H2 3793   0.980   5.022   1.239
 1306TIP3   OH2 3794   0.885   4.615   1.417
 1306TIP3    H1 3795   0.931   4.593   1.335
 1306TIP3    H2 3796   0.929   4.698   1.446
 1307TIP3   OH2 3797   1.411   5.248   1.199
 1307TIP3    H1 3798   1.402   5.328   1.254
 1307TIP3    H2 3799   1.398   5.175   1.263
 1308TIP3   OH2 3800   1.025   5.170   1.746
 1308TIP3    H1 3801   0.966   5.231   1.794
 1308TIP3    H2 3802   0.959   5.115   1.698
 1309TIP3   OH2 3803   1.359   4.525   0.484
 1309TIP3    H1 3804   1.430   4.557   0.544
 1309TIP3    H2 3805   1.393   4.549   0.397
 1310TIP3   OH2 3806   0.779   4.729   1.844
 1310TIP3    H1 3807   0.783   4.814   1.893
 1310TIP3    H2 3808   0.685   4.706   1.856
 1311TIP3   OH2 3809   1.103   5.190   0.740
 1311TIP3    H1 3810   1.184   5.233   0.773
 1311TIP3    H2 3811   1.034   5.254   0.761
 1312TIP3   OH2 3812   0.819   5.338   1.834
 1312TIP3    H1 3813   0.784   5.335   1.743
 1312TIP3    H2 3814   0.740   5.316   1.888
 1313TIP3   OH2 3815   1.682   5.112   0.085
 1313TIP3    H1 3816   1.687   5.205   0.057
 1313TIP3    H2 3817   1.772   5.079   0.066
 1314TIP3   OH2 3818   0.399   4.867   1.783
 1314TIP3    H1 3819   0.338   4.840   1.711
 1314TIP3    H2 3820   0.438   4.781   1.810
 1315TIP3   OH2 3821   0.255   5.038   1.416
 1315TIP3    H1 3822   0.349   5.053   1.397
 1315TIP3    H2 3823   0.228   5.126   1.446
 1316TIP3   OH2 3824   2.116   5.509   1.467
 1316TIP3    H1 3825   2.117   5.413   1.484
 1316TIP3    H2 3826   2.034   5.534   1.515
 1317TIP3   OH2 3827   1.223   5.299   1.603
 1317TIP3    H1 3828   1.222   5.391   1.637
 1317TIP3    H2 3829   1.152   5.258   1.658
 1318TIP3   OH2 3830   1.253   5.367   0.512
 1318TIP3    H1 3831   1.188   5.391   0.578
 1318TIP3    H2 3832   1.316   5.317   0.567
 1319TIP3   OH2 3833   2.009   4.642   1.743
 1319TIP3    H1 3834   1.927   4.652   1.693
 1319TIP3    H2 3835   2.025   4.545   1.736
 1320TIP3   OH2 3836   0.604   5.050   1.772
 1320TIP3    H1 3837   0.655   5.032   1.853
 1320TIP3    H2 3838   0.530   4.986   1.779
 1321TIP3   OH2 3839   1.027   3.905   1.539
 1321TIP3    H1 3840   0.954   3.843   1.518
 1321TIP3    H2 3841   0.980   3.970   1.594
 1322TIP3   OH2 3842   1.539   3.990   1.748
 1322TIP3    H1 3843   1.606   3.962   1.813
 1322TIP3    H2 3844   1.454   3.970   1.793
 1323TIP3   OH2 3845   1.774   4.417   1.664
 1323TIP3    H1 3846   1.727   4.413   1.751
 1323TIP3    H2 3847   1.752   4.506   1.631
 1324TIP3   OH2 3848   0.941   4.395   1.569
 1324TIP3    H1 3849   0.884   4.407   1.649
 1324TIP3    H2 3850   0.917   4.475   1.519
 1325TIP3   OH2 3851   1.300   4.376   0.830
 1325TIP3    H1 3852   1.259   4.452   0.784
 1325TIP3    H2 3853   1.369   4.350   0.763
 1326TIP3   OH2 3854   1.483   4.640   1.900
 1326TIP3    H1 3855   1.462   4.567   1.962
 1326TIP3    H2 3856   1.578   4.655   1.921
 1327TIP3   OH2 3857   1.467   4.391   1.055
 1327TIP3    H1 3858   1.405   4.416   0.983
 1327TIP3    H2 3859   1.498   4.305   1.018
 1328TIP3   OH2 3860   0.760   4.423   1.777
 1328TIP3    H1 3861   0.783   4.477   1.853
 1328TIP3    H2 3862   0.734   4.339   1.818
 1329TIP3   OH2 3863   1.473   4.637   1.475
 1329TIP3    H1 3864   1.508   4.564   1.418
 1329TIP3    H2 3865   1.447   4.584   1.553
 1330TIP3   OH2 3866   1.159   4.124   1.164
 1330TIP3    H1 3867   1.086   4.094   1.220
 1330TIP3    H2 3868   1.236   4.105   1.220
 1331TIP3   OH2 3869   1.637   4.174   1.347
 1331TIP3    H1 3870   1.604   4.185   1.439
 1331TIP3    H2 3871   1.572   4.111   1.312
 1332TIP3   OH2 3872   1.806   5.863   1.568
 1332TIP3    H1 3873   1.807   5.885   1.473
 1332TIP3    H2 3874   1.887   5.909   1.599
 1333TIP3   OH2 3875   0.765   4.974   1.990
 1333TIP3    H1 3876   0.845   5.002   2.038
 1333TIP3    H2 3877   0.701   4.970   2.063
 1334TIP3   OH2 3878   1.232   4.430   1.248
 1334TIP3    H1 3879   1.295   4.380   1.194
 1334TIP3    H2 3880   1.241   4.387   1.335
 1335TIP3   OH2 3881   1.207   4.322   1.533
 1335TIP3    H1 3882   1.118   4.359   1.551
 1335TIP3    H2 3883   1.265   4.380   1.586
 1336TIP3   OH2 3884   0.952   4.701   0.646
 1336TIP3    H1 3885   0.883   4.634   0.648
 1336TIP3    H2 3886   0.936   4.749   0.732
 1337TIP3   OH2 3887   1.844   4.950   1.260
 1337TIP3    H1 3888   1.867   4.998   1.178
 1337TIP3    H2 3889   1.758   4.907   1.235
 1338TIP3   OH2 3890   1.339   5.030   1.627
 1338TIP3    H1 3891   1.367   5.007   1.716
 1338TIP3    H2 3892   1.304   5.119   1.637
 1339TIP3   OH2 3893   1.489   4.306   0.649
 1339TIP3    H1 3894   1.585   4.295   0.641
 1339TIP3    H2 3895   1.459   4.310   0.556
 1340TIP3   OH2 3896   0.634   4.732   1.313
 1340TIP3    H1 3897   0.673   4.707   1.228
 1340TIP3    H2 3898   0.682   4.674   1.376
 1341TIP3   OH2 3899   1.095   4.887   0.493
 1341TIP3    H1 3900   1.046   4.966   0.461
 1341TIP3    H2 3901   1.028   4.836   0.542
 1342TIP3   OH2 3902   0.514   4.658   1.919
 1342TIP3    H1 3903   0.537   4.643   2.013
 1342TIP3    H2 3904   0.450   4.587   1.903
 1343TIP3   OH2 3905   1.241   4.770   1.938
 1343TIP3    H1 3906   1.181   4.708   1.892
 1343TIP3    H2 3907   1.328   4.735   1.911
 1344TIP3   OH2 3908   1.502   5.291   1.522
 1344TIP3    H1 3909   1.406   5.290   1.535
 1344TIP3    H2 3910   1.530   5.342   1.601
 1345TIP3   OH2 3911   1.911   4.358   0.429
 1345TIP3    H1 3912   1.845   4.311   0.376
 1345TIP3    H2 3913   1.904   4.448   0.388
 1346TIP3   OH2 3914   2.129   5.218   1.512
 1346TIP3    H1 3915   2.031   5.213   1.504
 1346TIP3    H2 3916   2.155   5.189   1.422
 1347TIP3   OH2 3917   1.620   5.181   0.344
 1347TIP3    H1 3918   1.577   5.111   0.395
 1347TIP3    H2 3919   1.624   5.141   0.254
 1348TIP3   OH2 3920   1.608   4.811   1.178
 1348TIP3    H1 3921   1.515   4.786   1.190
 1348TIP3    H2 3922   1.643   4.732   1.133
 1349TIP3   OH2 3923   0.722   5.046   0.906
 1349TIP3    H1 3924   0.750   5.130   0.945
 1349TIP3    H2 3925   0.638   5.030   0.952
 1350TIP3   OH2 3926   0.876   4.814   0.873
 1350TIP3    H1 3927   0.830   4.899   0.884
 1350TIP3    H2 3928   0.841   4.762   0.948
 1351TIP3   OH2 3929   1.006   5.382   1.402
 1351TIP3    H1 3930   1.047   5.453   1.349
 1351TIP3    H2 3931   1.083   5.348   1.450
 1352TIP3   OH2 3932   1.394   5.017   1.358
 1352TIP3    H1 3933   1.384   5.014   1.456
 1352TIP3    H2 3934   1.474   4.965   1.346
 1353TIP3   OH2 3935   1.362   4.896   0.249
 1353TIP3    H1 3936   1.407   4.880   0.334
 1353TIP3    H2 3937   1.276   4.855   0.260
 1354TIP3   OH2 3938   1.642   5.552   1.411
 1354TIP3    H1 3939   1.564   5.495   1.402
 1354TIP3    H2 3940   1.627   5.616   1.338
 1355TIP3   OH2 3941   1.704   5.390   0.058
 1355TIP3    H1 3942   1.755   5.466   0.024
 1355TIP3    H2 3943   1.613   5.418   0.038
 1356TIP3   OH2 3944   0.728   4.157   1.930
 1356TIP3    H1 3945   0.631   4.161   1.942
 1356TIP3    H2 3946   0.756   4.103   2.005
 1357TIP3   OH2 3947   1.527   4.846   0.471
 1357TIP3    H1 3948   1.523   4.778   0.542
 1357TIP3    H2 3949   1.622   4.842   0.448
 1358TIP3   OH2 3950   0.444   5.245   1.567
 1358TIP3    H1 3951   0.491   5.165   1.594
 1358TIP3    H2 3952   0.480   5.311   1.628
 1359TIP3   OH2 3953   1.563   4.225   1.606
 1359TIP3    H1 3954   1.642   4.265   1.646
 1359TIP3    H2 3955   1.549   4.145   1.661
 1360TIP3   OH2 3956   1.218   4.122   0.877
 1360TIP3    H1 3957   1.244   4.214   0.854
 1360TIP3    H2 3958   1.169   4.139   0.960
 1361TIP3   OH2 3959   1.404   4.475   1.683
 1361TIP3    H1 3960   1.423   4.528   1.763
 1361TIP3    H2 3961   1.459   4.396   1.698
 1362TIP3   OH2 3962   1.333   3.898   0.994
 1362TIP3    H1 3963   1.314   3.926   1.084
 1362TIP3    H2 3964   1.330   3.984   0.948
 1363TIP3   OH2 3965   2.042   4.374   1.665
 1363TIP3    H1 3966   1.944   4.371   1.670
 1363TIP3    H2 3967   2.057   4.338   1.577
 1364TIP3   OH2 3968   1.694   4.570   1.051
 1364TIP3    H1 3969   1.618   4.510   1.064
 1364TIP3    H2 3970   1.765   4.523   1.099
 1365TIP3   OH2 3971   1.661   5.524   1.001
 1365TIP3    H1 3972   1.620   5.575   0.928
 1365TIP3    H2 3973   1.756   5.543   0.982
 1366TIP3   OH2 3974   0.434   5.554   1.980
 1366TIP3    H1 3975   0.519   5.551   2.028
 1366TIP3    H2 3976   0.411   5.459   1.979
 1367TIP3   OH2 3977   0.917   5.521   2.022
 1367TIP3    H1 3978   1.011   5.497   2.032
 1367TIP3    H2 3979   0.891   5.461   1.950
 1368TIP3   OH2 3980   1.554   5.425   1.759
 1368TIP3    H1 3981   1.545   5.354   1.827
 1368TIP3    H2 3982   1.633   5.473   1.789
 1369TIP3   OH2 3983   0.565   4.960   2.181
 1369TIP3    H1 3984   0.582   4.865   2.189
 1369TIP3    H2 3985   0.477   4.961   2.138
 1370TIP3   OH2 3986   1.172   5.044   1.954
 1370TIP3    H1 3987   1.132   5.058   1.867
 1370TIP3    H2 3988   1.204   4.951   1.948
 1371TIP3   OH2 3989   1.663   5.052   1.559
 1371TIP3    H1 3990   1.740   5.096   1.516
 1371TIP3    H2 3991   1.594   5.119   1.546
 1372TIP3   OH2 3992   0.684   4.693   2.161
 1372TIP3    H1 3993   0.757   4.632   2.145
 1372TIP3    H2 3994   0.707   4.725   2.251
 1373TIP3   OH2 3995   1.023   4.582   1.828
 1373TIP3    H1 3996   0.942   4.638   1.827
 1373TIP3    H2 3997   1.069   4.612   1.746
 1374TIP3   OH2 3998   1.536   4.981   1.958
 1374TIP3    H1 3999   1.619   4.959   1.914
 1374TIP3    H2 4000   1.533   4.914   2.029
 1375TIP3   OH2 4001   1.685   4.652   0.064
 1375TIP3    H1 4002   1.636   4.641  -0.019
 1375TIP3    H2 4003   1.659   4.742   0.088
 1376TIP3   OH2 4004   1.141   4.365   1.952
 1376TIP3    H1 4005   1.140   4.286   1.895
 1376TIP3    H2 4006   1.098   4.432   1.894
 1377TIP3   OH2 4007   1.139   4.153   1.758
 1377TIP3    H1 4008   1.168   4.191   1.673
 1377TIP3    H2 4009   1.046   4.128   1.738
 1378TIP3   OH2 4010   1.172   4.686   1.627
 1378TIP3    H1 4011   1.257   4.695   1.582
 1378TIP3    H2 4012   1.118   4.756   1.585
 1379TIP3   OH2 4013   1.754   4.656   2.012
 1379TIP3    H1 4014   1.803   4.573   2.026
 1379TIP3    H2 4015   1.825   4.715   1.982
 1380TIP3   OH2 4016   1.795   4.907   1.746
 1380TIP3    H1 4017   1.737   4.961   1.687
 1380TIP3    H2 4018   1.883   4.927   1.707
 1381TIP3   OH2 4019   1.019   4.480   2.180
 1381TIP3    H1 4020   0.949   4.413   2.195
 1381TIP3    H2 4021   1.054   4.452   2.093
 1382TIP3   OH2 4022   1.281   3.922   1.825
 1382TIP3    H1 4023   1.229   4.002   1.802
 1382TIP3    H2 4024   1.213   3.852   1.814
 1383TIP3   OH2 4025   1.403   4.422   2.041
 1383TIP3    H1 4026   1.394   4.410   2.137
 1383TIP3    H2 4027   1.312   4.397   2.013
 1384TIP3   OH2 4028   1.641   4.369   1.894
 1384TIP3    H1 4029   1.566   4.371   1.958
 1384TIP3    H2 4030   1.715   4.340   1.951
 1385TIP3   OH2 4031   1.865   4.309   2.047
 1385TIP3    H1 4032   1.881   4.214   2.066
 1385TIP3    H2 4033   1.864   4.350   2.136
 1386TIP3   OH2 4034   0.858   4.260   2.233
 1386TIP3    H1 4035   0.867   4.169   2.198
 1386TIP3    H2 4036   0.894   4.249   2.323
 1387TIP3   OH2 4037   1.371   3.925   2.084
 1387TIP3    H1 4038   1.439   3.855   2.077
 1387TIP3    H2 4039   1.333   3.922   1.994
 1388TIP3   OH2 4040   1.436   4.141   2.242
 1388TIP3    H1 4041   1.414   4.070   2.178
 1388TIP3    H2 4042   1.359   4.201   2.235
 1389TIP3   OH2 4043   1.913   5.619   0.957
 1389TIP3    H1 4044   1.941   5.649   1.046
 1389TIP3    H2 4045   1.978   5.661   0.900
 1390TIP3   OH2 4046   1.945   5.636   1.239
 1390TIP3    H1 4047   1.901   5.548   1.236
 1390TIP3    H2 4048   2.019   5.615   1.298
 1391TIP3   OH2 4049   1.986   5.316   1.808
 1391TIP3    H1 4050   1.917   5.322   1.877
 1391TIP3    H2 4051   2.031   5.403   1.817
 1392TIP3   OH2 4052   1.809   4.820   0.430
 1392TIP3    H1 4053   1.873   4.889   0.405
 1392TIP3    H2 4054   1.851   4.785   0.512
 1393TIP3   OH2 4055   1.935   4.692   0.637
 1393TIP3    H1 4056   1.869   4.650   0.697
 1393TIP3    H2 4057   1.999   4.731   0.700
 1394TIP3   OH2 4058   1.986   5.084   1.067
 1394TIP3    H1 4059   2.042   5.021   1.018
 1394TIP3    H2 4060   1.979   5.159   1.004
 1395TIP3   OH2 4061   1.820   5.387   1.262
 1395TIP3    H1 4062   1.749   5.426   1.317
 1395TIP3    H2 4063   1.769   5.337   1.194
 1396TIP3   OH2 4064   1.864   4.593   0.280
 1396TIP3    H1 4065   1.799   4.607   0.209
 1396TIP3    H2 4066   1.843   4.670   0.338
 1397TIP3   OH2 4067   1.751   4.546   0.784
 1397TIP3    H1 4068   1.755   4.449   0.781
 1397TIP3    H2 4069   1.736   4.563   0.880
 1398TIP3   OH2 4070   0.380   4.625   1.527
 1398TIP3    H1 4071   0.390   4.593   1.436
 1398TIP3    H2 4072   0.475   4.628   1.554
 1399TIP3   OH2 4073   2.037   4.974   1.638
 1399TIP3    H1 4074   2.110   4.908   1.631
 1399TIP3    H2 4075   2.069   5.045   1.580
 1400TIP3   OH2 4076   2.223   4.781   1.654
 1400TIP3    H1 4077   2.151   4.728   1.694
 1400TIP3    H2 4078   2.299   4.722   1.671
 1401TIP3   OH2 4079   1.761   4.263   0.675
 1401TIP3    H1 4080   1.797   4.174   0.695
 1401TIP3    H2 4081   1.827   4.296   0.612
 1402TIP3   OH2 4082   1.906   4.440   1.172
 1402TIP3    H1 4083   1.992   4.466   1.133
 1402TIP3    H2 4084   1.919   4.476   1.262
 1403TIP3   OH2 4085   1.973   4.583   1.405
 1403TIP3    H1 4086   1.896   4.617   1.454
 1403TIP3    H2 4087   2.007   4.663   1.361
 1404TIP3   OH2 4088   0.591   4.311   2.200
 1404TIP3    H1 4089   0.689   4.306   2.205
 1404TIP3    H2 4090   0.567   4.227   2.244
 1405TIP3   OH2 4091   2.426   4.169   1.961
 1405TIP3    H1 4092   2.486   4.106   1.916
 1405TIP3    H2 4093   2.398   4.227   1.887
 1406TIP3   OH2 4094   1.856   4.005   0.713
 1406TIP3    H1 4095   1.907   4.007   0.797
 1406TIP3    H2 4096   1.815   3.918   0.721
 1407TIP3   OH2 4097   0.439   4.306   1.635
 1407TIP3    H1 4098   0.388   4.242   1.583
 1407TIP3    H2 4099   0.393   4.388   1.619
 1408TIP3   OH2 4100   2.299   4.314   1.770
 1408TIP3    H1 4101   2.215   4.356   1.796
 1408TIP3    H2 4102   2.267   4.245   1.710
 1409TIP3   OH2 4103   2.000   3.939   0.347
 1409TIP3    H1 4104   2.030   3.893   0.267
 1409TIP3    H2 4105   2.056   4.019   0.344
 1410TIP3   OH2 4106   1.518   5.481   0.631
 1410TIP3    H1 4107   1.557   5.466   0.543
 1410TIP3    H2 4108   1.576   5.549   0.668
 1411TIP3   OH2 4109   0.552   3.878   1.919
 1411TIP3    H1 4110   0.515   3.850   2.004
 1411TIP3    H2 4111   0.494   3.953   1.898
 1412TIP3   OH2 4112   0.599   5.290   2.002
 1412TIP3    H1 4113   0.509   5.259   1.984
 1412TIP3    H2 4114   0.610   5.265   2.095
 1413TIP3   OH2 4115   0.778   5.317   1.549
 1413TIP3    H1 4116   0.731   5.392   1.508
 1413TIP3    H2 4117   0.864   5.330   1.504
 1414TIP3   OH2 4118   1.223   5.566   1.687
 1414TIP3    H1 4119   1.266   5.564   1.776
 1414TIP3    H2 4120   1.290   5.615   1.635
 1415TIP3   OH2 4121   1.402   5.716   1.543
 1415TIP3    H1 4122   1.473   5.663   1.503
 1415TIP3    H2 4123   1.454   5.772   1.604
 1416TIP3   OH2 4124   2.197   4.078   1.644
 1416TIP3    H1 4125   2.105   4.073   1.611
 1416TIP3    H2 4126   2.227   3.985   1.632
 1417TIP3   OH2 4127   0.469   5.575   1.579
 1417TIP3    H1 4128   0.391   5.628   1.555
 1417TIP3    H2 4129   0.480   5.598   1.672
 1418TIP3   OH2 4130   0.699   5.556   1.427
 1418TIP3    H1 4131   0.612   5.565   1.473
 1418TIP3    H2 4132   0.675   5.585   1.337
 1419TIP3   OH2 4133   1.129   5.581   1.236
 1419TIP3    H1 4134   1.050   5.596   1.179
 1419TIP3    H2 4135   1.141   5.672   1.271
 1420TIP3   OH2 4136   1.394   5.521   1.279
 1420TIP3    H1 4137   1.299   5.536   1.262
 1420TIP3    H2 4138   1.434   5.598   1.236
 1421TIP3   OH2 4139   1.594   5.717   1.194
 1421TIP3    H1 4140   1.580   5.800   1.145
 1421TIP3    H2 4141   1.620   5.655   1.121
 1422TIP3   OH2 4142   0.362   5.363   1.328
 1422TIP3    H1 4143   0.406   5.336   1.412
 1422TIP3    H2 4144   0.427   5.329   1.263
 1423TIP3   OH2 4145   0.552   5.241   1.177
 1423TIP3    H1 4146   0.571   5.159   1.227
 1423TIP3    H2 4147   0.642   5.280   1.168
 1424TIP3   OH2 4148   0.817   5.314   1.182
 1424TIP3    H1 4149   0.859   5.226   1.188
 1424TIP3    H2 4150   0.864   5.363   1.251
 1425TIP3   OH2 4151   1.395   3.995   1.259
 1425TIP3    H1 4152   1.357   3.929   1.322
 1425TIP3    H2 4153   1.469   3.946   1.221
 1426TIP3   OH2 4154   1.928   3.870   1.167
 1426TIP3    H1 4155   1.962   3.928   1.095
 1426TIP3    H2 4156   1.833   3.890   1.165
 1427TIP3   OH2 4157   2.019   3.977   0.929
 1427TIP3    H1 4158   2.094   3.924   0.893
 1427TIP3    H2 4159   2.054   4.068   0.920
 1428TIP3   OH2 4160   1.649   3.883   1.149
 1428TIP3    H1 4161   1.629   3.849   1.061
 1428TIP3    H2 4162   1.633   3.803   1.204
 1429TIP3   OH2 4163   1.640   5.447   0.381
 1429TIP3    H1 4164   1.640   5.348   0.381
 1429TIP3    H2 4165   1.598   5.461   0.295
 1430TIP3   OH2 4166   0.858   3.980   2.169
 1430TIP3    H1 4167   0.824   3.910   2.227
 1430TIP3    H2 4168   0.952   3.982   2.197
 1431TIP3   OH2 4169   1.106   3.978   2.290
 1431TIP3    H1 4170   1.192   3.954   2.251
 1431TIP3    H2 4171   1.095   3.907   2.357
 1432TIP3   OH2 4172   1.932   4.039   2.078
 1432TIP3    H1 4173   1.951   4.009   2.169
 1432TIP3    H2 4174   2.021   4.036   2.037
 1433TIP3   OH2 4175   1.872   5.594   1.570
 1433TIP3    H1 4176   1.792   5.561   1.523
 1433TIP3    H2 4177   1.851   5.690   1.574
 1434TIP3   OH2 4178   3.139   4.966   0.331
 1434TIP3    H1 4179   3.114   5.059   0.319
 1434TIP3    H2 4180   3.055   4.921   0.318
 1435TIP3   OH2 4181   3.136   4.960   0.716
 1435TIP3    H1 4182   3.169   4.941   0.806
 1435TIP3    H2 4183   3.092   4.876   0.694
 1436TIP3   OH2 4184   2.437   4.859   1.080
 1436TIP3    H1 4185   2.465   4.792   1.145
 1436TIP3    H2 4186   2.510   4.922   1.088
 1437TIP3   OH2 4187   3.377   5.268   0.398
 1437TIP3    H1 4188   3.367   5.201   0.467
 1437TIP3    H2 4189   3.407   5.344   0.451
 1438TIP3   OH2 4190   2.405   5.269   0.806
 1438TIP3    H1 4191   2.397   5.171   0.810
 1438TIP3    H2 4192   2.501   5.279   0.808
 1439TIP3   OH2 4193   2.117   4.476   0.590
 1439TIP3    H1 4194   2.070   4.559   0.608
 1439TIP3    H2 4195   2.042   4.419   0.565
 1440TIP3   OH2 4196   2.173   4.760   0.763
 1440TIP3    H1 4197   2.221   4.684   0.802
 1440TIP3    H2 4198   2.236   4.792   0.698
 1441TIP3   OH2 4199   3.025   5.726   0.411
 1441TIP3    H1 4200   3.075   5.654   0.369
 1441TIP3    H2 4201   3.022   5.698   0.504
 1442TIP3   OH2 4202   2.936   5.190   0.763
 1442TIP3    H1 4203   2.976   5.113   0.720
 1442TIP3    H2 4204   3.019   5.236   0.789
 1443TIP3   OH2 4205   3.947   4.513   0.763
 1443TIP3    H1 4206   3.975   4.593   0.812
 1443TIP3    H2 4207   3.965   4.540   0.672
 1444TIP3   OH2 4208   3.351   4.695   0.797
 1444TIP3    H1 4209   3.390   4.609   0.821
 1444TIP3    H2 4210   3.317   4.676   0.708
 1445TIP3   OH2 4211   2.685   4.351   0.763
 1445TIP3    H1 4212   2.663   4.424   0.702
 1445TIP3    H2 4213   2.636   4.278   0.720
 1446TIP3   OH2 4214   3.379   4.440   0.386
 1446TIP3    H1 4215   3.448   4.422   0.454
 1446TIP3    H2 4216   3.434   4.478   0.315
 1447TIP3   OH2 4217   2.319   4.555   0.869
 1447TIP3    H1 4218   2.401   4.535   0.919
 1447TIP3    H2 4219   2.333   4.497   0.791
 1448TIP3   OH2 4220   2.762   4.752   0.657
 1448TIP3    H1 4221   2.854   4.725   0.676
 1448TIP3    H2 4222   2.721   4.667   0.630
 1449TIP3   OH2 4223   4.020   4.719   0.932
 1449TIP3    H1 4224   3.935   4.766   0.918
 1449TIP3    H2 4225   4.037   4.743   1.025
 1450TIP3   OH2 4226   2.682   4.334   1.196
 1450TIP3    H1 4227   2.620   4.372   1.132
 1450TIP3    H2 4228   2.632   4.349   1.279
 1451TIP3   OH2 4229   3.041   5.197   0.196
 1451TIP3    H1 4230   2.980   5.169   0.127
 1451TIP3    H2 4231   2.994   5.277   0.229
 1452TIP3   OH2 4232   2.787   5.110   0.994
 1452TIP3    H1 4233   2.724   5.173   1.034
 1452TIP3    H2 4234   2.829   5.165   0.925
 1453TIP3   OH2 4235   3.591   4.445   0.557
 1453TIP3    H1 4236   3.574   4.399   0.640
 1453TIP3    H2 4237   3.641   4.522   0.587
 1454TIP3   OH2 4238   2.551   4.451   0.982
 1454TIP3    H1 4239   2.613   4.523   1.007
 1454TIP3    H2 4240   2.603   4.409   0.909
 1455TIP3   OH2 4241   2.613   5.302   1.089
 1455TIP3    H1 4242   2.589   5.390   1.054
 1455TIP3    H2 4243   2.536   5.287   1.148
 1456TIP3   OH2 4244   2.013   4.992   0.331
 1456TIP3    H1 4245   1.970   5.016   0.246
 1456TIP3    H2 4246   2.040   5.079   0.366
 1457TIP3   OH2 4247   3.448   5.506   0.561
 1457TIP3    H1 4248   3.360   5.500   0.604
 1457TIP3    H2 4249   3.443   5.595   0.521
 1458TIP3   OH2 4250   3.741   4.409   0.928
 1458TIP3    H1 4251   3.653   4.443   0.902
 1458TIP3    H2 4252   3.799   4.443   0.857
 1459TIP3   OH2 4253   3.038   4.055   0.911
 1459TIP3    H1 4254   3.026   3.960   0.930
 1459TIP3    H2 4255   2.961   4.092   0.958
 1460TIP3   OH2 4256   3.156   5.552   0.239
 1460TIP3    H1 4257   3.209   5.472   0.221
 1460TIP3    H2 4258   3.217   5.620   0.202
 1461TIP3   OH2 4259   3.300   5.327   0.139
 1461TIP3    H1 4260   3.223   5.268   0.138
 1461TIP3    H2 4261   3.339   5.304   0.227
 1462TIP3   OH2 4262   3.676   5.424   0.911
 1462TIP3    H1 4263   3.665   5.346   0.852
 1462TIP3    H2 4264   3.659   5.498   0.849
 1463TIP3   OH2 4265   2.963   4.809   0.163
 1463TIP3    H1 4266   2.882   4.864   0.152
 1463TIP3    H2 4267   3.006   4.819   0.078
 1464TIP3   OH2 4268   2.921   4.591  -0.107
 1464TIP3    H1 4269   2.992   4.637  -0.061
 1464TIP3    H2 4270   2.962   4.506  -0.128
 1465TIP3   OH2 4271   3.871   5.056   0.751
 1465TIP3    H1 4272   3.789   5.110   0.760
 1465TIP3    H2 4273   3.901   5.085   0.662
 1466TIP3   OH2 4274   3.317   4.895   0.142
 1466TIP3    H1 4275   3.260   4.922   0.218
 1466TIP3    H2 4276   3.400   4.871   0.190
 1467TIP3   OH2 4277   3.550   4.939   1.050
 1467TIP3    H1 4278   3.550   5.020   1.105
 1467TIP3    H2 4279   3.463   4.947   1.007
 1468TIP3   OH2 4280   2.550   4.897   0.553
 1468TIP3    H1 4281   2.510   4.837   0.486
 1468TIP3    H2 4282   2.626   4.844   0.584
 1469TIP3   OH2 4283   2.680   5.311   0.703
 1469TIP3    H1 4284   2.658   5.262   0.623
 1469TIP3    H2 4285   2.769   5.278   0.724
 1470TIP3   OH2 4286   2.687   4.867   0.907
 1470TIP3    H1 4287   2.722   4.851   0.818
 1470TIP3    H2 4288   2.728   4.953   0.932
 1471TIP3   OH2 4289   3.209   5.504   0.687
 1471TIP3    H1 4290   3.196   5.586   0.739
 1471TIP3    H2 4291   3.195   5.433   0.752
 1472TIP3   OH2 4292   2.821   5.426   1.231
 1472TIP3    H1 4293   2.763   5.487   1.281
 1472TIP3    H2 4294   2.754   5.372   1.185
 1473TIP3   OH2 4295   3.167   4.753  -0.032
 1473TIP3    H1 4296   3.217   4.813   0.028
 1473TIP3    H2 4297   3.174   4.799  -0.118
 1474TIP3   OH2 4298   2.573   4.986   1.327
 1474TIP3    H1 4299   2.581   5.068   1.379
 1474TIP3    H2 4300   2.480   4.962   1.347
 1475TIP3   OH2 4301   2.900   5.434   0.243
 1475TIP3    H1 4302   2.975   5.493   0.263
 1475TIP3    H2 4303   2.837   5.493   0.201
 1476TIP3   OH2 4304   2.615   5.594   1.321
 1476TIP3    H1 4305   2.579   5.591   1.231
 1476TIP3    H2 4306   2.537   5.573   1.376
 1477TIP3   OH2 4307   3.674   4.002   0.012
 1477TIP3    H1 4308   3.591   4.012   0.064
 1477TIP3    H2 4309   3.676   4.088  -0.035
 1478TIP3   OH2 4310   2.419   4.737   0.349
 1478TIP3    H1 4311   2.347   4.784   0.301
 1478TIP3    H2 4312   2.372   4.659   0.381
 1479TIP3   OH2 4313   2.195   5.123   1.268
 1479TIP3    H1 4314   2.131   5.097   1.200
 1479TIP3    H2 4315   2.233   5.037   1.296
 1480TIP3   OH2 4316   2.049   5.317   0.899
 1480TIP3    H1 4317   2.145   5.309   0.892
 1480TIP3    H2 4318   2.040   5.394   0.957
 1481TIP3   OH2 4319   3.914   5.766   0.956
 1481TIP3    H1 4320   3.912   5.670   0.973
 1481TIP3    H2 4321   3.831   5.793   1.002
 1482TIP3   OH2 4322   3.019   5.555   1.089
 1482TIP3    H1 4323   3.019   5.647   1.123
 1482TIP3    H2 4324   2.948   5.515   1.144
 1483TIP3   OH2 4325   2.781   5.683   0.039
 1483TIP3    H1 4326   2.734   5.668  -0.045
 1483TIP3    H2 4327   2.752   5.773   0.064
 1484TIP3   OH2 4328   2.218   5.533   0.426
 1484TIP3    H1 4329   2.266   5.523   0.511
 1484TIP3    H2 4330   2.161   5.454   0.429
 1485TIP3   OH2 4331   2.975   5.594  -0.302
 1485TIP3    H1 4332   3.025   5.522  -0.344
 1485TIP3    H2 4333   3.010   5.593  -0.210
 1486TIP3   OH2 4334   3.034   5.619  -0.036
 1486TIP3    H1 4335   2.942   5.634  -0.002
 1486TIP3    H2 4336   3.079   5.589   0.044
 1487TIP3   OH2 4337   3.807   4.900   1.228
 1487TIP3    H1 4338   3.721   4.911   1.186
 1487TIP3    H2 4339   3.820   4.803   1.223
 1488TIP3   OH2 4340   2.400   5.307   1.258
 1488TIP3    H1 4341   2.451   5.290   1.340
 1488TIP3    H2 4342   2.327   5.242   1.266
 1489TIP3   OH2 4343   2.799   4.131   1.038
 1489TIP3    H1 4344   2.709   4.100   1.014
 1489TIP3    H2 4345   2.774   4.212   1.087
 1490TIP3   OH2 4346   3.332   4.244   1.234
 1490TIP3    H1 4347   3.401   4.220   1.300
 1490TIP3    H2 4348   3.249   4.226   1.282
 1491TIP3   OH2 4349   3.572   4.675   1.153
 1491TIP3    H1 4350   3.525   4.669   1.239
 1491TIP3    H2 4351   3.547   4.764   1.121
 1492TIP3   OH2 4352   3.232   4.813  -0.298
 1492TIP3    H1 4353   3.175   4.792  -0.374
 1492TIP3    H2 4354   3.219   4.911  -0.298
 1493TIP3   OH2 4355   2.959   4.199   0.019
 1493TIP3    H1 4356   2.923   4.190   0.109
 1493TIP3    H2 4357   2.921   4.121  -0.024
 1494TIP3   OH2 4358   2.730   4.645   1.059
 1494TIP3    H1 4359   2.682   4.668   1.141
 1494TIP3    H2 4360   2.714   4.727   1.006
 1495TIP3   OH2 4361   2.613   4.532   0.573
 1495TIP3    H1 4362   2.521   4.504   0.593
 1495TIP3    H2 4363   2.627   4.489   0.486
 1496TIP3   OH2 4364   3.106   4.618   0.302
 1496TIP3    H1 4365   3.051   4.688   0.260
 1496TIP3    H2 4366   3.158   4.585   0.227
 1497TIP3   OH2 4367   3.279   4.896   1.385
 1497TIP3    H1 4368   3.258   4.824   1.449
 1497TIP3    H2 4369   3.372   4.913   1.409
 1498TIP3   OH2 4370   3.264   4.645   0.540
 1498TIP3    H1 4371   3.202   4.674   0.471
 1498TIP3    H2 4372   3.295   4.562   0.499
 1499TIP3   OH2 4373   2.549   4.674   1.269
 1499TIP3    H1 4374   2.577   4.737   1.337
 1499TIP3    H2 4375   2.538   4.592   1.320
 1500TIP3   OH2 4376   2.593   4.132  -0.023
 1500TIP3    H1 4377   2.605   4.133   0.074
 1500TIP3    H2 4378   2.520   4.193  -0.033
 1501TIP3   OH2 4379   2.140   4.204   0.848
 1501TIP3    H1 4380   2.218   4.230   0.902
 1501TIP3    H2 4381   2.179   4.165   0.768
 1502TIP3   OH2 4382   2.126   4.186   0.365
 1502TIP3    H1 4383   2.176   4.224   0.290
 1502TIP3    H2 4384   2.070   4.262   0.389
 1503TIP3   OH2 4385   3.270   4.894   0.960
 1503TIP3    H1 4386   3.305   4.821   0.905
 1503TIP3    H2 4387   3.244   4.843   1.040
 1504TIP3   OH2 4388   2.940   4.356   0.633
 1504TIP3    H1 4389   2.858   4.353   0.687
 1504TIP3    H2 4390   3.008   4.352   0.702
 1505TIP3   OH2 4391   2.378   4.409   0.641
 1505TIP3    H1 4392   2.283   4.417   0.615
 1505TIP3    H2 4393   2.399   4.316   0.622
 1506TIP3   OH2 4394   2.648   4.404   0.334
 1506TIP3    H1 4395   2.743   4.420   0.315
 1506TIP3    H2 4396   2.603   4.425   0.249
 1507TIP3   OH2 4397   3.432   4.429   0.830
 1507TIP3    H1 4398   3.405   4.441   0.924
 1507TIP3    H2 4399   3.364   4.367   0.800
 1508TIP3   OH2 4400   2.490   4.429   0.112
 1508TIP3    H1 4401   2.396   4.415   0.098
 1508TIP3    H2 4402   2.521   4.473   0.031
 1509TIP3   OH2 4403   3.603   6.118   1.055
 1509TIP3    H1 4404   3.603   6.143   0.960
 1509TIP3    H2 4405   3.682   6.166   1.087
 1510TIP3   OH2 4406   2.562   5.230   1.476
 1510TIP3    H1 4407   2.642   5.258   1.526
 1510TIP3    H2 4408   2.498   5.224   1.549
 1511TIP3   OH2 4409   3.025   4.682   0.733
 1511TIP3    H1 4410   3.098   4.638   0.688
 1511TIP3    H2 4411   3.030   4.644   0.823
 1512TIP3   OH2 4412   2.548   4.169   0.610
 1512TIP3    H1 4413   2.512   4.092   0.659
 1512TIP3    H2 4414   2.605   4.126   0.545
 1513TIP3   OH2 4415   3.002   4.582   1.017
 1513TIP3    H1 4416   2.913   4.616   1.036
 1513TIP3    H2 4417   3.060   4.639   1.072
 1514TIP3   OH2 4418   2.742   4.967   0.118
 1514TIP3    H1 4419   2.666   4.906   0.107
 1514TIP3    H2 4420   2.722   5.005   0.207
 1515TIP3   OH2 4421   3.641   5.205   0.746
 1515TIP3    H1 4422   3.664   5.255   0.665
 1515TIP3    H2 4423   3.554   5.166   0.722
 1516TIP3   OH2 4424   3.207   4.290  -0.057
 1516TIP3    H1 4425   3.117   4.257  -0.034
 1516TIP3    H2 4426   3.213   4.374  -0.008
 1517TIP3   OH2 4427   3.137   5.287   1.114
 1517TIP3    H1 4428   3.162   5.263   1.204
 1517TIP3    H2 4429   3.099   5.376   1.125
 1518TIP3   OH2 4430   3.266   4.522   0.083
 1518TIP3    H1 4431   3.361   4.528   0.106
 1518TIP3    H2 4432   3.248   4.607   0.039
 1519TIP3   OH2 4433   2.429   4.989   0.793
 1519TIP3    H1 4434   2.471   4.960   0.710
 1519TIP3    H2 4435   2.469   4.930   0.858
 1520TIP3   OH2 4436   2.880   5.116  -0.069
 1520TIP3    H1 4437   2.839   5.206  -0.058
 1520TIP3    H2 4438   2.827   5.065  -0.004
 1521TIP3   OH2 4439   2.312   4.914   1.406
 1521TIP3    H1 4440   2.340   4.905   1.499
 1521TIP3    H2 4441   2.245   4.844   1.398
 1522TIP3   OH2 4442   3.037   5.027   1.421
 1522TIP3    H1 4443   2.979   4.963   1.379
 1522TIP3    H2 4444   3.126   4.993   1.396
 1523TIP3   OH2 4445   3.298   5.546   1.008
 1523TIP3    H1 4446   3.201   5.546   1.023
 1523TIP3    H2 4447   3.327   5.597   1.087
 1524TIP3   OH2 4448   3.704   4.605  -0.072
 1524TIP3    H1 4449   3.648   4.557  -0.134
 1524TIP3    H2 4450   3.705   4.695  -0.113
 1525TIP3   OH2 4451   3.926   5.474   1.001
 1525TIP3    H1 4452   3.828   5.471   0.993
 1525TIP3    H2 4453   3.951   5.446   0.910
 1526TIP3   OH2 4454   3.411   5.437  -0.185
 1526TIP3    H1 4455   3.381   5.387  -0.107
 1526TIP3    H2 4456   3.406   5.372  -0.256
 1527TIP3   OH2 4457   3.404   5.069   0.661
 1527TIP3    H1 4458   3.311   5.043   0.678
 1527TIP3    H2 4459   3.438   4.988   0.620
 1528TIP3   OH2 4460   2.530   5.291   0.410
 1528TIP3    H1 4461   2.531   5.376   0.362
 1528TIP3    H2 4462   2.436   5.281   0.431
 1529TIP3   OH2 4463   2.097   4.602   0.125
 1529TIP3    H1 4464   2.140   4.688   0.143
 1529TIP3    H2 4465   2.017   4.607   0.180
 1530TIP3   OH2 4466   2.673   5.061   0.360
 1530TIP3    H1 4467   2.635   5.150   0.377
 1530TIP3    H2 4468   2.637   5.011   0.435
 1531TIP3   OH2 4469   2.800   5.639   0.887
 1531TIP3    H1 4470   2.843   5.711   0.837
 1531TIP3    H2 4471   2.876   5.605   0.938
 1532TIP3   OH2 4472   2.452   5.534   0.270
 1532TIP3    H1 4473   2.366   5.543   0.316
 1532TIP3    H2 4474   2.484   5.627   0.273
 1533TIP3   OH2 4475   3.189   5.271   0.846
 1533TIP3    H1 4476   3.178   5.272   0.944
 1533TIP3    H2 4477   3.274   5.224   0.838
 1534TIP3   OH2 4478   3.157   5.088  -0.276
 1534TIP3    H1 4479   3.210   5.106  -0.195
 1534TIP3    H2 4480   3.074   5.132  -0.253
 1535TIP3   OH2 4481   3.438   5.806   0.895
 1535TIP3    H1 4482   3.359   5.750   0.888
 1535TIP3    H2 4483   3.422   5.871   0.823
 1536TIP3   OH2 4484   2.525   4.415   1.412
 1536TIP3    H1 4485   2.431   4.424   1.434
 1536TIP3    H2 4486   2.557   4.362   1.488
 1537TIP3   OH2 4487   3.328   5.077  -0.066
 1537TIP3    H1 4488   3.315   5.032   0.021
 1537TIP3    H2 4489   3.423   5.098  -0.061
 1538TIP3   OH2 4490   2.239   5.501   1.047
 1538TIP3    H1 4491   2.291   5.426   1.079
 1538TIP3    H2 4492   2.267   5.570   1.108
 1539TIP3   OH2 4493   2.531   5.151  -0.273
 1539TIP3    H1 4494   2.557   5.063  -0.300
 1539TIP3    H2 4495   2.507   5.141  -0.179
 1540TIP3   OH2 4496   2.480   5.151  -0.000
 1540TIP3    H1 4497   2.543   5.130   0.070
 1540TIP3    H2 4498   2.481   5.249   0.003
 1541TIP3   OH2 4499   2.212   4.849   0.204
 1541TIP3    H1 4500   2.145   4.892   0.262
 1541TIP3    H2 4501   2.224   4.919   0.137
 1542TIP3   OH2 4502   3.365   4.476   1.089
 1542TIP3    H1 4503   3.436   4.521   1.138
 1542TIP3    H2 4504   3.347   4.398   1.147
 1543TIP3   OH2 4505   3.238   4.236   0.256
 1543TIP3    H1 4506   3.228   4.263   0.163
 1543TIP3    H2 4507   3.279   4.315   0.297
 1544TIP3   OH2 4508   2.746   5.348  -0.040
 1544TIP3    H1 4509   2.660   5.382  -0.009
 1544TIP3    H2 4510   2.747   5.381  -0.131
 1545TIP3   OH2 4511   2.929   4.412   0.362
 1545TIP3    H1 4512   2.994   4.484   0.349
 1545TIP3    H2 4513   2.932   4.402   0.460
 1546TIP3   OH2 4514   3.202   4.732   1.170
 1546TIP3    H1 4515   3.216   4.789   1.249
 1546TIP3    H2 4516   3.255   4.654   1.193
 1547TIP3   OH2 4517   3.074   4.140   0.465
 1547TIP3    H1 4518   3.074   4.213   0.529
 1547TIP3    H2 4519   3.134   4.177   0.396
 1548TIP3   OH2 4520   2.483   5.421   0.018
 1548TIP3    H1 4521   2.457   5.491  -0.045
 1548TIP3    H2 4522   2.468   5.465   0.104
 1549TIP3   OH2 4523   2.591   4.137   0.254
 1549TIP3    H1 4524   2.583   4.225   0.294
 1549TIP3    H2 4525   2.686   4.121   0.268
 1550TIP3   OH2 4526   3.839   4.630   1.148
 1550TIP3    H1 4527   3.741   4.629   1.159
 1550TIP3    H2 4528   3.846   4.589   1.061
 1551TIP3   OH2 4529   3.491   4.825   0.536
 1551TIP3    H1 4530   3.414   4.768   0.555
 1551TIP3    H2 4531   3.562   4.780   0.586
 1552TIP3   OH2 4532   2.204   5.062   0.012
 1552TIP3    H1 4533   2.272   5.131   0.022
 1552TIP3    H2 4534   2.250   5.004  -0.053
 1553TIP3   OH2 4535   2.171   4.341   0.131
 1553TIP3    H1 4536   2.147   4.437   0.125
 1553TIP3    H2 4537   2.095   4.300   0.088
 1554TIP3   OH2 4538   3.459   5.777   0.488
 1554TIP3    H1 4539   3.415   5.825   0.414
 1554TIP3    H2 4540   3.553   5.799   0.468
 1555TIP3   OH2 4541   2.535   4.050   1.016
 1555TIP3    H1 4542   2.503   4.015   0.930
 1555TIP3    H2 4543   2.525   3.972   1.075
 1556TIP3   OH2 4544   2.079   5.269   0.402
 1556TIP3    H1 4545   2.004   5.296   0.457
 1556TIP3    H2 4546   2.051   5.305   0.315
 1557TIP3   OH2 4547   2.229   5.809   1.468
 1557TIP3    H1 4548   2.316   5.808   1.515
 1557TIP3    H2 4549   2.210   5.714   1.466
 1558TIP3   OH2 4550   2.712   5.778   1.509
 1558TIP3    H1 4551   2.805   5.755   1.521
 1558TIP3    H2 4552   2.688   5.717   1.437
 1559TIP3   OH2 4553   2.718   5.345  -0.319
 1559TIP3    H1 4554   2.639   5.286  -0.308
 1559TIP3    H2 4555   2.742   5.324  -0.410
 1560TIP3   OH2 4556   3.353   5.679   1.243
 1560TIP3    H1 4557   3.342   5.610   1.313
 1560TIP3    H2 4558   3.429   5.730   1.276
 1561TIP3   OH2 4559   2.361   5.221   1.666
 1561TIP3    H1 4560   2.380   5.127   1.684
 1561TIP3    H2 4561   2.273   5.215   1.623
 1562TIP3   OH2 4562   2.345   4.878  -0.125
 1562TIP3    H1 4563   2.405   4.841  -0.058
 1562TIP3    H2 4564   2.389   4.857  -0.208
 1563TIP3   OH2 4565   2.970   5.302   1.441
 1563TIP3    H1 4566   2.927   5.315   1.354
 1563TIP3    H2 4567   3.001   5.209   1.436
 1564TIP3   OH2 4568   2.829   5.037  -0.335
 1564TIP3    H1 4569   2.837   5.092  -0.255
 1564TIP3    H2 4570   2.835   4.949  -0.299
 1565TIP3   OH2 4571   3.459   5.307   1.043
 1565TIP3    H1 4572   3.535   5.354   1.003
 1565TIP3    H2 4573   3.389   5.374   1.035
 1566TIP3   OH2 4574   2.481   4.949   1.645
 1566TIP3    H1 4575   2.539   4.872   1.650
 1566TIP3    H2 4576   2.498   4.984   1.735
 1567TIP3   OH2 4577   2.545   4.772   0.082
 1567TIP3    H1 4578   2.516   4.740   0.170
 1567TIP3    H2 4579   2.579   4.690   0.040
 1568TIP3   OH2 4580   2.814   4.832   1.308
 1568TIP3    H1 4581   2.738   4.894   1.315
 1568TIP3    H2 4582   2.863   4.868   1.231
 1569TIP3   OH2 4583   2.643   4.563  -0.082
 1569TIP3    H1 4584   2.638   4.522  -0.169
 1569TIP3    H2 4585   2.740   4.579  -0.076
 1570TIP3   OH2 4586   3.330   5.236   1.444
 1570TIP3    H1 4587   3.417   5.217   1.405
 1570TIP3    H2 4588   3.327   5.172   1.518
 1571TIP3   OH2 4589   3.489   4.896  -0.381
 1571TIP3    H1 4590   3.504   4.883  -0.478
 1571TIP3    H2 4591   3.468   4.992  -0.384
 1572TIP3   OH2 4592   2.939   4.621   1.435
 1572TIP3    H1 4593   2.938   4.541   1.380
 1572TIP3    H2 4594   2.894   4.687   1.379
 1573TIP3   OH2 4595   2.941   4.408   1.241
 1573TIP3    H1 4596   2.967   4.449   1.157
 1573TIP3    H2 4597   2.846   4.386   1.225
 1574TIP3   OH2 4598   2.968   4.942   1.113
 1574TIP3    H1 4599   3.053   4.955   1.069
 1574TIP3    H2 4600   2.912   5.011   1.072
 1575TIP3   OH2 4601   3.548   4.910   1.495
 1575TIP3    H1 4602   3.598   4.832   1.524
 1575TIP3    H2 4603   3.620   4.972   1.474
 1576TIP3   OH2 4604   3.592   5.162   1.230
 1576TIP3    H1 4605   3.533   5.216   1.173
 1576TIP3    H2 4606   3.679   5.185   1.191
 1577TIP3   OH2 4607   2.821   4.737   1.664
 1577TIP3    H1 4608   2.743   4.682   1.684
 1577TIP3    H2 4609   2.851   4.700   1.579
 1578TIP3   OH2 4610   3.072   4.172   1.309
 1578TIP3    H1 4611   3.023   4.255   1.289
 1578TIP3    H2 4612   3.002   4.105   1.300
 1579TIP3   OH2 4613   3.200   4.679   1.528
 1579TIP3    H1 4614   3.192   4.667   1.624
 1579TIP3    H2 4615   3.108   4.653   1.502
 1580TIP3   OH2 4616   3.435   4.619   1.379
 1580TIP3    H1 4617   3.362   4.628   1.443
 1580TIP3    H2 4618   3.510   4.594   1.437
 1581TIP3   OH2 4619   3.663   4.565   1.531
 1581TIP3    H1 4620   3.677   4.471   1.554
 1581TIP3    H2 4621   3.659   4.609   1.618
 1582TIP3   OH2 4622   2.654   4.514   1.715
 1582TIP3    H1 4623   2.664   4.421   1.687
 1582TIP3    H2 4624   2.688   4.510   1.806
 1583TIP3   OH2 4625   3.167   4.183   1.567
 1583TIP3    H1 4626   3.235   4.112   1.563
 1583TIP3    H2 4627   3.127   4.175   1.478
 1584TIP3   OH2 4628   3.233   4.398   1.728
 1584TIP3    H1 4629   3.209   4.328   1.664
 1584TIP3    H2 4630   3.155   4.458   1.724
 1585TIP3   OH2 4631   2.448   5.618  -0.168
 1585TIP3    H1 4632   2.542   5.623  -0.197
 1585TIP3    H2 4633   2.402   5.667  -0.237
 1586TIP3   OH2 4634   1.940   5.006   0.059
 1586TIP3    H1 4635   2.031   5.038   0.037
 1586TIP3    H2 4636   1.933   4.928   0.003
 1587TIP3   OH2 4637   1.843   5.623   0.458
 1587TIP3    H1 4638   1.778   5.557   0.424
 1587TIP3    H2 4639   1.891   5.568   0.524
 1588TIP3   OH2 4640   1.982   5.476   0.645
 1588TIP3    H1 4641   1.972   5.401   0.705
 1588TIP3    H2 4642   2.035   5.535   0.701
 1589TIP3   OH2 4643   3.709   5.874   0.444
 1589TIP3    H1 4644   3.736   5.906   0.532
 1589TIP3    H2 4645   3.774   5.917   0.386
 1590TIP3   OH2 4646   3.740   5.893   0.726
 1590TIP3    H1 4647   3.699   5.804   0.723
 1590TIP3    H2 4648   3.816   5.874   0.783
 1591TIP3   OH2 4649   3.784   5.570   1.297
 1591TIP3    H1 4650   3.713   5.578   1.364
 1591TIP3    H2 4651   3.827   5.658   1.304
 1592TIP3   OH2 4652   3.608   5.081  -0.078
 1592TIP3    H1 4653   3.678   5.146  -0.100
 1592TIP3    H2 4654   3.643   5.046   0.007
 1593TIP3   OH2 4655   3.728   4.947   0.123
 1593TIP3    H1 4656   3.666   4.907   0.188
 1593TIP3    H2 4657   3.797   4.986   0.181
 1594TIP3   OH2 4658   3.782   5.340   0.553
 1594TIP3    H1 4659   3.839   5.280   0.502
 1594TIP3    H2 4660   3.777   5.418   0.494
 1595TIP3   OH2 4661   3.616   5.641   0.750
 1595TIP3    H1 4662   3.546   5.685   0.803
 1595TIP3    H2 4663   3.563   5.595   0.681
 1596TIP3   OH2 4664   3.672   4.843  -0.198
 1596TIP3    H1 4665   3.620   4.878  -0.274
 1596TIP3    H2 4666   3.661   4.918  -0.136
 1597TIP3   OH2 4667   3.490   4.569  -0.302
 1597TIP3    H1 4668   3.542   4.532  -0.375
 1597TIP3    H2 4669   3.466   4.481  -0.262
 1598TIP3   OH2 4670   3.545   4.804   0.271
 1598TIP3    H1 4671   3.553   4.707   0.273
 1598TIP3    H2 4672   3.531   4.823   0.367
 1599TIP3   OH2 4673   2.172   4.882   1.015
 1599TIP3    H1 4674   2.170   4.851   0.923
 1599TIP3    H2 4675   2.269   4.882   1.033
 1600TIP3   OH2 4676   3.834   5.230   1.124
 1600TIP3    H1 4677   3.907   5.165   1.116
 1600TIP3    H2 4678   3.865   5.303   1.067
 1601TIP3   OH2 4679   4.021   5.037   1.138
 1601TIP3    H1 4680   3.947   4.988   1.180
 1601TIP3    H2 4681   4.094   4.974   1.155
 1602TIP3   OH2 4682   3.487   4.306  -0.253
 1602TIP3    H1 4683   3.570   4.256  -0.235
 1602TIP3    H2 4684   3.420   4.239  -0.235
 1603TIP3   OH2 4685   3.539   4.519   0.163
 1603TIP3    H1 4686   3.576   4.429   0.180
 1603TIP3    H2 4687   3.608   4.553   0.104
 1604TIP3   OH2 4688   3.702   4.696   0.658
 1604TIP3    H1 4689   3.789   4.723   0.621
 1604TIP3    H2 4690   3.713   4.733   0.749
 1605TIP3   OH2 4691   3.768   4.838   0.890
 1605TIP3    H1 4692   3.693   4.872   0.943
 1605TIP3    H2 4693   3.801   4.921   0.848
 1606TIP3   OH2 4694   2.385   4.561   1.676
 1606TIP3    H1 4695   2.482   4.568   1.691
 1606TIP3    H2 4696   2.366   4.480   1.727
 1607TIP3   OH2 4697   4.225   4.429   1.447
 1607TIP3    H1 4698   4.282   4.364   1.401
 1607TIP3    H2 4699   4.195   4.486   1.374
 1608TIP3   OH2 4700   3.650   4.271   0.200
 1608TIP3    H1 4701   3.698   4.257   0.285
 1608TIP3    H2 4702   3.590   4.194   0.201
 1609TIP3   OH2 4703   2.350   4.257   1.018
 1609TIP3    H1 4704   2.413   4.183   1.032
 1609TIP3    H2 4705   2.412   4.333   1.017
 1610TIP3   OH2 4706   2.152   4.532   1.094
 1610TIP3    H1 4707   2.203   4.529   1.010
 1610TIP3    H2 4708   2.182   4.616   1.132
 1611TIP3   OH2 4709   4.097   4.572   1.255
 1611TIP3    H1 4710   4.015   4.613   1.291
 1611TIP3    H2 4711   4.058   4.503   1.197
 1612TIP3   OH2 4712   3.741   4.212  -0.187
 1612TIP3    H1 4713   3.802   4.141  -0.213
 1612TIP3    H2 4714   3.805   4.285  -0.175
 1613TIP3   OH2 4715   2.140   4.053   0.605
 1613TIP3    H1 4716   2.046   4.037   0.621
 1613TIP3    H2 4717   2.140   4.102   0.521
 1614TIP3   OH2 4718   3.308   5.728   0.108
 1614TIP3    H1 4719   3.356   5.728   0.023
 1614TIP3    H2 4720   3.342   5.808   0.151
 1615TIP3   OH2 4721   2.355   4.112   1.408
 1615TIP3    H1 4722   2.308   4.111   1.493
 1615TIP3    H2 4723   2.288   4.153   1.351
 1616TIP3   OH2 4724   2.395   5.547   1.488
 1616TIP3    H1 4725   2.304   5.514   1.472
 1616TIP3    H2 4726   2.410   5.520   1.580
 1617TIP3   OH2 4727   2.573   5.573   1.034
 1617TIP3    H1 4728   2.526   5.650   0.996
 1617TIP3    H2 4729   2.660   5.587   0.991
 1618TIP3   OH2 4730   3.020   5.821   1.173
 1618TIP3    H1 4731   3.061   5.820   1.262
 1618TIP3    H2 4732   3.087   5.871   1.122
 1619TIP3   OH2 4733   3.200   5.971   1.030
 1619TIP3    H1 4734   3.272   5.920   0.992
 1619TIP3    H2 4735   3.249   6.029   1.092
 1620TIP3   OH2 4736   3.994   4.335   1.129
 1620TIP3    H1 4737   3.901   4.329   1.101
 1620TIP3    H2 4738   4.022   4.241   1.119
 1621TIP3   OH2 4739   2.251   5.832   1.057
 1621TIP3    H1 4740   2.162   5.867   1.036
 1621TIP3    H2 4741   2.262   5.866   1.147
 1622TIP3   OH2 4742   2.487   5.810   0.915
 1622TIP3    H1 4743   2.401   5.823   0.961
 1622TIP3    H2 4744   2.467   5.844   0.826
 1623TIP3   OH2 4745   2.914   5.841   0.712
 1623TIP3    H1 4746   2.843   5.863   0.648
 1623TIP3    H2 4747   2.926   5.928   0.757
 1624TIP3   OH2 4748   3.181   5.778   0.762
 1624TIP3    H1 4749   3.087   5.797   0.744
 1624TIP3    H2 4750   3.225   5.857   0.725
 1625TIP3   OH2 4751   3.388   5.971   0.681
 1625TIP3    H1 4752   3.375   6.056   0.634
 1625TIP3    H2 4753   3.415   5.912   0.608
 1626TIP3   OH2 4754   2.162   5.626   0.804
 1626TIP3    H1 4755   2.189   5.601   0.895
 1626TIP3    H2 4756   2.234   5.582   0.754
 1627TIP3   OH2 4757   2.355   5.497   0.659
 1627TIP3    H1 4758   2.371   5.413   0.709
 1627TIP3    H2 4759   2.446   5.534   0.656
 1628TIP3   OH2 4760   2.621   5.592   0.663
 1628TIP3    H1 4761   2.653   5.500   0.654
 1628TIP3    H2 4762   2.665   5.616   0.747
 1629TIP3   OH2 4763   3.194   4.246   0.743
 1629TIP3    H1 4764   3.152   4.180   0.802
 1629TIP3    H2 4765   3.270   4.197   0.707
 1630TIP3   OH2 4766   3.722   4.125   0.652
 1630TIP3    H1 4767   3.757   4.182   0.579
 1630TIP3    H2 4768   3.627   4.146   0.650
 1631TIP3   OH2 4769   3.817   4.233   0.416
 1631TIP3    H1 4770   3.891   4.181   0.380
 1631TIP3    H2 4771   3.850   4.325   0.404
 1632TIP3   OH2 4772   2.447   3.958   0.766
 1632TIP3    H1 4773   2.355   3.925   0.764
 1632TIP3    H2 4774   2.496   3.872   0.764
 1633TIP3   OH2 4775   2.261   3.816   0.421
 1633TIP3    H1 4776   2.284   3.876   0.348
 1633TIP3    H2 4777   2.207   3.873   0.477
 1634TIP3   OH2 4778   2.888   3.992   0.646
 1634TIP3    H1 4779   2.950   4.043   0.592
 1634TIP3    H2 4780   2.907   4.025   0.735
 1635TIP3   OH2 4781   3.439   4.136   0.631
 1635TIP3    H1 4782   3.436   4.095   0.543
 1635TIP3    H2 4783   3.425   4.057   0.688
 1636TIP3   OH2 4784   3.469   4.057   0.194
 1636TIP3    H1 4785   3.380   4.094   0.200
 1636TIP3    H2 4786   3.456   3.972   0.243
 1637TIP3   OH2 4787   1.952   5.382   0.197
 1637TIP3    H1 4788   1.865   5.350   0.169
 1637TIP3    H2 4789   1.946   5.475   0.168
 1638TIP3   OH2 4790   2.351   3.987   0.199
 1638TIP3    H1 4791   2.393   3.910   0.160
 1638TIP3    H2 4792   2.427   4.043   0.221
 1639TIP3   OH2 4793   2.866   4.160   0.277
 1639TIP3    H1 4794   2.924   4.115   0.340
 1639TIP3    H2 4795   2.885   4.253   0.304
 1640TIP3   OH2 4796   2.712   5.604  -0.235
 1640TIP3    H1 4797   2.805   5.620  -0.262
 1640TIP3    H2 4798   2.699   5.519  -0.282
 1641TIP3   OH2 4799   3.440   5.706  -0.139
 1641TIP3    H1 4800   3.430   5.609  -0.152
 1641TIP3    H2 4801   3.366   5.741  -0.191
 1642TIP3   OH2 4802   2.655   4.235   1.654
 1642TIP3    H1 4803   2.620   4.167   1.715
 1642TIP3    H2 4804   2.749   4.237   1.684
 1643TIP3   OH2 4805   2.902   4.234   1.776
 1643TIP3    H1 4806   2.989   4.211   1.740
 1643TIP3    H2 4807   2.890   4.164   1.844
 1644TIP3   OH2 4808   2.036   5.451  -0.147
 1644TIP3    H1 4809   2.011   5.469  -0.056
 1644TIP3    H2 4810   2.114   5.395  -0.139
 1645TIP3   OH2 4811   3.727   4.294   1.565
 1645TIP3    H1 4812   3.746   4.265   1.657
 1645TIP3    H2 4813   3.817   4.291   1.525
 1646TIP3   OH2 4814   3.669   5.850   1.056
 1646TIP3    H1 4815   3.588   5.818   1.010
 1646TIP3    H2 4816   3.649   5.946   1.061
 1647TIP3   OH2 4817   4.905   5.224   0.211
 1647TIP3    H1 4818   4.959   5.203   0.289
 1647TIP3    H2 4819   4.910   5.144   0.157
 1648TIP3   OH2 4820   4.235   5.116   0.566
 1648TIP3    H1 4821   4.265   5.050   0.631
 1648TIP3    H2 4822   4.303   5.185   0.578
 1649TIP3   OH2 4823   4.200   5.524   0.295
 1649TIP3    H1 4824   4.193   5.426   0.298
 1649TIP3    H2 4825   4.297   5.535   0.288
 1650TIP3   OH2 4826   3.915   4.732   0.073
 1650TIP3    H1 4827   3.871   4.816   0.097
 1650TIP3    H2 4828   3.838   4.675   0.059
 1651TIP3   OH2 4829   3.968   5.014   0.241
 1651TIP3    H1 4830   4.017   4.941   0.285
 1651TIP3    H2 4831   4.039   5.060   0.194
 1652TIP3   OH2 4832   4.732   5.446   0.250
 1652TIP3    H1 4833   4.776   5.365   0.217
 1652TIP3    H2 4834   4.813   5.495   0.276
 1653TIP3   OH2 4835   5.758   4.759   0.256
 1653TIP3    H1 4836   5.766   4.843   0.306
 1653TIP3    H2 4837   5.787   4.786   0.168
 1654TIP3   OH2 4838   5.119   4.924   0.306
 1654TIP3    H1 4839   5.200   4.872   0.323
 1654TIP3    H2 4840   5.121   4.935   0.209
 1655TIP3   OH2 4841   4.486   4.608   0.249
 1655TIP3    H1 4842   4.462   4.679   0.187
 1655TIP3    H2 4843   4.436   4.534   0.210
 1656TIP3   OH2 4844   5.124   4.685  -0.057
 1656TIP3    H1 4845   5.185   4.661   0.015
 1656TIP3    H2 4846   5.193   4.684  -0.128
 1657TIP3   OH2 4847   4.115   4.813   0.355
 1657TIP3    H1 4848   4.196   4.793   0.406
 1657TIP3    H2 4849   4.129   4.755   0.278
 1658TIP3   OH2 4850   4.559   5.004   0.143
 1658TIP3    H1 4851   4.649   4.971   0.158
 1658TIP3    H2 4852   4.513   4.923   0.113
 1659TIP3   OH2 4853   5.816   4.976   0.419
 1659TIP3    H1 4854   5.732   5.023   0.401
 1659TIP3    H2 4855   5.832   5.003   0.511
 1660TIP3   OH2 4856   4.473   4.595   0.689
 1660TIP3    H1 4857   4.412   4.632   0.623
 1660TIP3    H2 4858   4.420   4.609   0.771
 1661TIP3   OH2 4859   4.583   5.365   0.483
 1661TIP3    H1 4860   4.520   5.430   0.522
 1661TIP3    H2 4861   4.624   5.418   0.412
 1662TIP3   OH2 4862   5.386   4.710   0.073
 1662TIP3    H1 4863   5.396   4.652   0.150
 1662TIP3    H2 4864   5.436   4.790   0.102
 1663TIP3   OH2 4865   4.348   4.708   0.468
 1663TIP3    H1 4866   4.409   4.781   0.492
 1663TIP3    H2 4867   4.400   4.666   0.395
 1664TIP3   OH2 4868   4.410   5.558   0.576
 1664TIP3    H1 4869   4.387   5.645   0.537
 1664TIP3    H2 4870   4.332   5.546   0.634
 1665TIP3   OH2 4871   3.804   5.254  -0.176
 1665TIP3    H1 4872   3.737   5.297  -0.230
 1665TIP3    H2 4873   3.828   5.328  -0.116
 1666TIP3   OH2 4874   5.221   5.786   0.079
 1666TIP3    H1 4875   5.134   5.752   0.113
 1666TIP3    H2 4876   5.188   5.859   0.024
 1667TIP3   OH2 4877   5.470   5.680   0.401
 1667TIP3    H1 4878   5.476   5.607   0.337
 1667TIP3    H2 4879   5.458   5.758   0.343
 1668TIP3   OH2 4880   5.671   5.306   0.270
 1668TIP3    H1 4881   5.593   5.366   0.273
 1668TIP3    H2 4882   5.689   5.307   0.175
 1669TIP3   OH2 4883   5.340   5.205   0.526
 1669TIP3    H1 4884   5.343   5.283   0.584
 1669TIP3    H2 4885   5.262   5.227   0.471
 1670TIP3   OH2 4886   4.342   5.151   0.046
 1670TIP3    H1 4887   4.303   5.093  -0.023
 1670TIP3    H2 4888   4.424   5.103   0.070
 1671TIP3   OH2 4889   4.468   5.560   0.196
 1671TIP3    H1 4890   4.446   5.532   0.106
 1671TIP3    H2 4891   4.559   5.526   0.208
 1672TIP3   OH2 4892   4.491   5.120   0.396
 1672TIP3    H1 4893   4.517   5.112   0.303
 1672TIP3    H2 4894   4.525   5.209   0.420
 1673TIP3   OH2 4895   4.972   5.755   0.182
 1673TIP3    H1 4896   4.970   5.840   0.231
 1673TIP3    H2 4897   4.969   5.688   0.253
 1674TIP3   OH2 4898   4.618   5.677   0.723
 1674TIP3    H1 4899   4.560   5.743   0.768
 1674TIP3    H2 4900   4.550   5.627   0.673
 1675TIP3   OH2 4901   4.370   5.237   0.817
 1675TIP3    H1 4902   4.378   5.323   0.863
 1675TIP3    H2 4903   4.275   5.218   0.836
 1676TIP3   OH2 4904   4.413   5.845   0.807
 1676TIP3    H1 4905   4.376   5.850   0.717
 1676TIP3    H2 4906   4.333   5.827   0.861
 1677TIP3   OH2 4907   4.208   4.987  -0.139
 1677TIP3    H1 4908   4.153   5.036  -0.203
 1677TIP3    H2 4909   4.146   4.921  -0.107
 1678TIP3   OH2 4910   3.991   5.378   0.756
 1678TIP3    H1 4911   3.925   5.355   0.688
 1678TIP3    H2 4912   4.028   5.291   0.782
 1679TIP3   OH2 4913   3.847   5.572   0.389
 1679TIP3    H1 4914   3.943   5.569   0.379
 1679TIP3    H2 4915   3.835   5.651   0.443
 1680TIP3   OH2 4916   5.709   6.022   0.450
 1680TIP3    H1 4917   5.707   5.926   0.468
 1680TIP3    H2 4918   5.623   6.049   0.492
 1681TIP3   OH2 4919   4.818   5.805   0.576
 1681TIP3    H1 4920   4.824   5.899   0.607
 1681TIP3    H2 4921   4.746   5.772   0.634
 1682TIP3   OH2 4922   4.004   5.774  -0.090
 1682TIP3    H1 4923   4.076   5.780  -0.023
 1682TIP3    H2 4924   3.943   5.717  -0.040
 1683TIP3   OH2 4925   5.602   5.154   0.718
 1683TIP3    H1 4926   5.515   5.168   0.678
 1683TIP3    H2 4927   5.605   5.056   0.716
 1684TIP3   OH2 4928   4.197   5.561   0.743
 1684TIP3    H1 4929   4.246   5.548   0.826
 1684TIP3    H2 4930   4.122   5.499   0.754
 1685TIP3   OH2 4931   4.592   4.403   0.530
 1685TIP3    H1 4932   4.509   4.364   0.496
 1685TIP3    H2 4933   4.555   4.475   0.585
 1686TIP3   OH2 4934   5.092   4.502   0.704
 1686TIP3    H1 4935   5.181   4.508   0.743
 1686TIP3    H2 4936   5.038   4.471   0.779
 1687TIP3   OH2 4937   5.395   4.965   0.665
 1687TIP3    H1 4938   5.327   4.924   0.723
 1687TIP3    H2 4939   5.345   5.029   0.614
 1688TIP3   OH2 4940   4.540   4.896   0.544
 1688TIP3    H1 4941   4.488   4.918   0.625
 1688TIP3    H2 4942   4.523   4.978   0.491
 1689TIP3   OH2 4943   4.413   4.784   0.056
 1689TIP3    H1 4944   4.320   4.762   0.077
 1689TIP3    H2 4945   4.419   4.746  -0.034
 1690TIP3   OH2 4946   5.072   5.150   0.867
 1690TIP3    H1 4947   5.052   5.080   0.932
 1690TIP3    H2 4948   5.164   5.171   0.890
 1691TIP3   OH2 4949   5.038   4.934   0.032
 1691TIP3    H1 4950   5.023   4.982  -0.052
 1691TIP3    H2 4951   5.064   4.845  -0.002
 1692TIP3   OH2 4952   4.353   4.927   0.752
 1692TIP3    H1 4953   4.368   4.996   0.818
 1692TIP3    H2 4954   4.334   4.849   0.808
 1693TIP3   OH2 4955   3.940   4.458   0.326
 1693TIP3    H1 4956   4.012   4.487   0.386
 1693TIP3    H2 4957   3.987   4.414   0.254
 1694TIP3   OH2 4958   3.911   4.433  -0.146
 1694TIP3    H1 4959   3.963   4.468  -0.221
 1694TIP3    H2 4960   3.861   4.512  -0.119
 1695TIP3   OH2 4961   5.047   5.144   0.446
 1695TIP3    H1 4962   5.089   5.072   0.396
 1695TIP3    H2 4963   5.040   5.102   0.533
 1696TIP3   OH2 4964   4.749   4.611   0.135
 1696TIP3    H1 4965   4.664   4.589   0.178
 1696TIP3    H2 4966   4.766   4.699   0.175
 1697TIP3   OH2 4967   4.175   4.666   0.128
 1697TIP3    H1 4968   4.081   4.674   0.102
 1697TIP3    H2 4969   4.197   4.573   0.109
 1698TIP3   OH2 4970   4.443   4.666  -0.196
 1698TIP3    H1 4971   4.540   4.674  -0.183
 1698TIP3    H2 4972   4.427   4.726  -0.270
 1699TIP3   OH2 4973   5.413   6.369   0.571
 1699TIP3    H1 4974   5.405   6.385   0.474
 1699TIP3    H2 4975   5.471   6.443   0.595
 1700TIP3   OH2 4976   4.359   5.482   0.963
 1700TIP3    H1 4977   4.438   5.515   1.011
 1700TIP3    H2 4978   4.294   5.483   1.035
 1701TIP3   OH2 4979   4.823   4.887   0.209
 1701TIP3    H1 4980   4.899   4.903   0.149
 1701TIP3    H2 4981   4.859   4.917   0.293
 1702TIP3   OH2 4982   4.347   4.425   0.098
 1702TIP3    H1 4983   4.311   4.348   0.146
 1702TIP3    H2 4984   4.406   4.382   0.034
 1703TIP3   OH2 4985   4.823   4.812   0.517
 1703TIP3    H1 4986   4.732   4.850   0.501
 1703TIP3    H2 4987   4.867   4.891   0.558
 1704TIP3   OH2 4988   5.444   5.449   0.230
 1704TIP3    H1 4989   5.430   5.525   0.170
 1704TIP3    H2 4990   5.356   5.405   0.229
 1705TIP3   OH2 4991   4.932   5.542   0.603
 1705TIP3    H1 4992   4.958   5.529   0.695
 1705TIP3    H2 4993   4.895   5.632   0.604
 1706TIP3   OH2 4994   4.217   5.236   0.281
 1706TIP3    H1 4995   4.263   5.216   0.197
 1706TIP3    H2 4996   4.266   5.183   0.346
 1707TIP3   OH2 4997   4.110   5.165   0.891
 1707TIP3    H1 4998   4.131   5.158   0.987
 1707TIP3    H2 4999   4.038   5.100   0.883
 1708TIP3   OH2 5000   4.832   5.282   0.912
 1708TIP3    H1 5001   4.774   5.220   0.866
 1708TIP3    H2 5002   4.921   5.250   0.884
 1709TIP3   OH2 5003   5.092   5.798   0.495
 1709TIP3    H1 5004   4.996   5.804   0.512
 1709TIP3    H2 5005   5.126   5.850   0.570
 1710TIP3   OH2 5006   5.719   5.734   0.494
 1710TIP3    H1 5007   5.621   5.732   0.493
 1710TIP3    H2 5008   5.737   5.704   0.402
 1711TIP3   OH2 5009   5.206   5.313   0.206
 1711TIP3    H1 5010   5.115   5.318   0.176
 1711TIP3    H2 5011   5.240   5.243   0.145
 1712TIP3   OH2 5012   4.345   5.560  -0.080
 1712TIP3    H1 5013   4.354   5.652  -0.113
 1712TIP3    H2 5014   4.267   5.530  -0.130
 1713TIP3   OH2 5015   3.876   4.852  -0.389
 1713TIP3    H1 5016   3.921   4.937  -0.369
 1713TIP3    H2 5017   3.808   4.852  -0.319
 1714TIP3   OH2 5018   4.484   5.323  -0.130
 1714TIP3    H1 5019   4.445   5.412  -0.123
 1714TIP3    H2 5020   4.431   5.274  -0.065
 1715TIP3   OH2 5021   4.596   5.894   0.373
 1715TIP3    H1 5022   4.636   5.971   0.328
 1715TIP3    H2 5023   4.671   5.865   0.427
 1716TIP3   OH2 5024   4.989   5.521   0.336
 1716TIP3    H1 5025   4.977   5.525   0.434
 1716TIP3    H2 5026   5.075   5.476   0.330
 1717TIP3   OH2 5027   5.230   6.060   0.387
 1717TIP3    H1 5028   5.146   6.011   0.387
 1717TIP3    H2 5029   5.204   6.139   0.338
 1718TIP3   OH2 5030   4.320   4.670   0.903
 1718TIP3    H1 5031   4.225   4.680   0.922
 1718TIP3    H2 5032   4.349   4.615   0.978
 1719TIP3   OH2 5033   4.034   5.758   0.533
 1719TIP3    H1 5034   4.090   5.686   0.567
 1719TIP3    H2 5035   4.062   5.831   0.590
 1720TIP3   OH2 5036   3.995   5.078  -0.300
 1720TIP3    H1 5037   3.940   5.139  -0.245
 1720TIP3    H2 5038   4.038   5.143  -0.361
 1721TIP3   OH2 5039   4.711   4.678  -0.137
 1721TIP3    H1 5040   4.784   4.725  -0.180
 1721TIP3    H2 5041   4.738   4.674  -0.043
 1722TIP3   OH2 5042   5.006   4.965   0.664
 1722TIP3    H1 5043   4.996   5.039   0.728
 1722TIP3    H2 5044   5.079   4.918   0.708
 1723TIP3   OH2 5045   4.883   4.419  -0.051
 1723TIP3    H1 5046   4.849   4.481   0.016
 1723TIP3    H2 5047   4.971   4.456  -0.067
 1724TIP3   OH2 5048   4.370   4.392  -0.243
 1724TIP3    H1 5049   4.372   4.484  -0.212
 1724TIP3    H2 5050   4.459   4.363  -0.213
 1725TIP3   OH2 5051   5.643   4.869   0.633
 1725TIP3    H1 5052   5.548   4.884   0.653
 1725TIP3    H2 5053   5.637   4.850   0.538
 1726TIP3   OH2 5054   5.291   5.094   0.064
 1726TIP3    H1 5055   5.226   5.039   0.019
 1726TIP3    H2 5056   5.367   5.033   0.076
 1727TIP3   OH2 5057   3.944   4.589  -0.377
 1727TIP3    H1 5058   3.921   4.684  -0.386
 1727TIP3    H2 5059   3.884   4.548  -0.440
 1728TIP3   OH2 5060   4.333   4.307   0.502
 1728TIP3    H1 5061   4.300   4.271   0.417
 1728TIP3    H2 5062   4.324   4.229   0.562
 1729TIP3   OH2 5063   3.837   5.514  -0.073
 1729TIP3    H1 5064   3.785   5.589  -0.042
 1729TIP3    H2 5065   3.863   5.540  -0.163
 1730TIP3   OH2 5066   4.025   6.066   0.956
 1730TIP3    H1 5067   4.112   6.068   1.002
 1730TIP3    H2 5068   4.007   5.971   0.954
 1731TIP3   OH2 5069   4.507   6.029   1.006
 1731TIP3    H1 5070   4.603   6.019   1.008
 1731TIP3    H2 5071   4.485   5.980   0.924
 1732TIP3   OH2 5072   5.157   5.929   0.726
 1732TIP3    H1 5073   5.143   5.866   0.800
 1732TIP3    H2 5074   5.225   5.989   0.761
 1733TIP3   OH2 5075   4.158   5.474   1.154
 1733TIP3    H1 5076   4.173   5.379   1.164
 1733TIP3    H2 5077   4.069   5.476   1.112
 1734TIP3   OH2 5078   4.766   5.559   0.928
 1734TIP3    H1 5079   4.723   5.577   0.843
 1734TIP3    H2 5080   4.795   5.465   0.919
 1735TIP3   OH2 5081   5.255   5.562   0.531
 1735TIP3    H1 5082   5.330   5.612   0.492
 1735TIP3    H2 5083   5.184   5.629   0.524
 1736TIP3   OH2 5084   4.277   5.205   1.135
 1736TIP3    H1 5085   4.349   5.141   1.125
 1736TIP3    H2 5086   4.298   5.240   1.224
 1737TIP3   OH2 5087   4.614   5.090   0.793
 1737TIP3    H1 5088   4.536   5.149   0.802
 1737TIP3    H2 5089   4.658   5.126   0.714
 1738TIP3   OH2 5090   5.124   5.489   0.931
 1738TIP3    H1 5091   5.210   5.476   0.890
 1738TIP3    H2 5092   5.125   5.426   1.005
 1739TIP3   OH2 5093   4.736   4.883   0.925
 1739TIP3    H1 5094   4.724   4.798   0.879
 1739TIP3    H2 5095   4.688   4.947   0.869
 1740TIP3   OH2 5096   4.735   4.653   0.720
 1740TIP3    H1 5097   4.729   4.734   0.667
 1740TIP3    H2 5098   4.640   4.626   0.720
 1741TIP3   OH2 5099   4.771   5.195   0.592
 1741TIP3    H1 5100   4.853   5.221   0.548
 1741TIP3    H2 5101   4.710   5.263   0.558
 1742TIP3   OH2 5102   5.345   5.169   0.985
 1742TIP3    H1 5103   5.394   5.085   0.990
 1742TIP3    H2 5104   5.413   5.230   0.954
 1743TIP3   OH2 5105   5.388   5.419   0.718
 1743TIP3    H1 5106   5.329   5.474   0.661
 1743TIP3    H2 5107   5.475   5.442   0.678
 1744TIP3   OH2 5108   4.612   4.994   1.153
 1744TIP3    H1 5109   4.541   4.929   1.171
 1744TIP3    H2 5110   4.646   4.963   1.067
 1745TIP3   OH2 5111   4.852   4.420   0.811
 1745TIP3    H1 5112   4.802   4.500   0.788
 1745TIP3    H2 5113   4.785   4.350   0.796
 1746TIP3   OH2 5114   4.995   4.936   1.017
 1746TIP3    H1 5115   4.987   4.926   1.113
 1746TIP3    H2 5116   4.903   4.913   0.991
 1747TIP3   OH2 5117   5.225   4.879   0.863
 1747TIP3    H1 5118   5.156   4.886   0.933
 1747TIP3    H2 5119   5.303   4.851   0.915
 1748TIP3   OH2 5120   5.471   4.827   1.020
 1748TIP3    H1 5121   5.477   4.731   1.040
 1748TIP3    H2 5122   5.461   4.866   1.110
 1749TIP3   OH2 5123   4.453   4.772   1.204
 1749TIP3    H1 5124   4.457   4.679   1.176
 1749TIP3    H2 5125   4.485   4.765   1.296
 1750TIP3   OH2 5126   4.967   4.441   1.056
 1750TIP3    H1 5127   5.033   4.369   1.051
 1750TIP3    H2 5128   4.919   4.427   0.972
 1751TIP3   OH2 5129   5.030   4.656   1.215
 1751TIP3    H1 5130   5.007   4.584   1.151
 1751TIP3    H2 5131   4.951   4.714   1.210
 1752TIP3   OH2 5132   3.637   5.881  -0.054
 1752TIP3    H1 5133   3.575   5.816  -0.093
 1752TIP3    H2 5134   3.683   5.827   0.014
 1753TIP3   OH2 5135   3.780   5.732   0.129
 1753TIP3    H1 5136   3.770   5.659   0.193
 1753TIP3    H2 5137   3.829   5.796   0.184
 1754TIP3   OH2 5138   5.560   6.134   0.217
 1754TIP3    H1 5139   5.517   6.048   0.233
 1754TIP3    H2 5140   5.629   6.132   0.286
 1755TIP3   OH2 5141   5.584   5.824   0.785
 1755TIP3    H1 5142   5.509   5.833   0.849
 1755TIP3    H2 5143   5.624   5.913   0.789
 1756TIP3   OH2 5144   5.407   5.903   0.251
 1756TIP3    H1 5145   5.349   5.957   0.310
 1756TIP3    H2 5146   5.340   5.858   0.196
 1757TIP3   OH2 5147   3.970   5.135   0.501
 1757TIP3    H1 5148   3.969   5.111   0.407
 1757TIP3    H2 5149   4.067   5.137   0.519
 1758TIP3   OH2 5150   5.629   5.488   0.611
 1758TIP3    H1 5151   5.702   5.422   0.604
 1758TIP3    H2 5152   5.662   5.561   0.555
 1759TIP3   OH2 5153   5.813   5.295   0.633
 1759TIP3    H1 5154   5.739   5.242   0.670
 1759TIP3    H2 5155   5.887   5.231   0.644
 1760TIP3   OH2 5156   5.510   4.950   0.144
 1760TIP3    H1 5157   5.593   4.984   0.104
 1760TIP3    H2 5158   5.521   4.983   0.236
 1761TIP3   OH2 5159   5.561   5.086   0.384
 1761TIP3    H1 5160   5.484   5.120   0.433
 1761TIP3    H2 5161   5.599   5.170   0.350
 1762TIP3   OH2 5162   4.185   4.821   1.169
 1762TIP3    H1 5163   4.282   4.818   1.180
 1762TIP3    H2 5164   4.160   4.739   1.217
 1763TIP3   OH2 5165   6.055   4.709   0.928
 1763TIP3    H1 5166   6.064   4.619   0.893
 1763TIP3    H2 5167   5.997   4.752   0.861
 1764TIP3   OH2 5168   4.145   4.512   0.501
 1764TIP3    H1 5169   4.208   4.439   0.517
 1764TIP3    H2 5170   4.206   4.589   0.502
 1765TIP3   OH2 5171   3.949   4.788   0.581
 1765TIP3    H1 5172   4.000   4.790   0.498
 1765TIP3    H2 5173   3.972   4.873   0.620
 1766TIP3   OH2 5174   5.887   4.820   0.750
 1766TIP3    H1 5175   5.806   4.869   0.773
 1766TIP3    H2 5176   5.849   4.759   0.683
 1767TIP3   OH2 5177   3.933   4.287   0.082
 1767TIP3    H1 5178   3.841   4.287   0.115
 1767TIP3    H2 5179   3.927   4.348   0.005
 1768TIP3   OH2 5180   4.151   4.370   0.895
 1768TIP3    H1 5181   4.104   4.366   0.980
 1768TIP3    H2 5182   4.083   4.410   0.838
 1769TIP3   OH2 5183   4.191   5.797   0.974
 1769TIP3    H1 5184   4.098   5.771   0.960
 1769TIP3    H2 5185   4.202   5.782   1.069
 1770TIP3   OH2 5186   4.369   5.828   0.519
 1770TIP3    H1 5187   4.323   5.906   0.483
 1770TIP3    H2 5188   4.456   5.843   0.477
 1771TIP3   OH2 5189   4.834   6.065   0.653
 1771TIP3    H1 5190   4.860   6.089   0.744
 1771TIP3    H2 5191   4.882   6.132   0.601
 1772TIP3   OH2 5192   5.003   6.224   0.502
 1772TIP3    H1 5193   5.088   6.181   0.517
 1772TIP3    H2 5194   5.011   6.295   0.569
 1773TIP3   OH2 5195   5.793   4.589   0.618
 1773TIP3    H1 5196   5.700   4.589   0.589
 1773TIP3    H2 5197   5.814   4.494   0.605
 1774TIP3   OH2 5198   4.045   6.086   0.545
 1774TIP3    H1 5199   3.956   6.122   0.524
 1774TIP3    H2 5200   4.060   6.127   0.631
 1775TIP3   OH2 5201   4.283   6.063   0.402
 1775TIP3    H1 5202   4.196   6.078   0.446
 1775TIP3    H2 5203   4.266   6.100   0.313
 1776TIP3   OH2 5204   4.719   6.101   0.201
 1776TIP3    H1 5205   4.639   6.116   0.146
 1776TIP3    H2 5206   4.727   6.187   0.248
 1777TIP3   OH2 5207   4.986   6.036   0.233
 1777TIP3    H1 5208   4.888   6.049   0.230
 1777TIP3    H2 5209   5.015   6.119   0.194
 1778TIP3   OH2 5210   3.956   5.882   0.290
 1778TIP3    H1 5211   3.984   5.858   0.381
 1778TIP3    H2 5212   4.029   5.840   0.239
 1779TIP3   OH2 5213   4.151   5.757   0.144
 1779TIP3    H1 5214   4.167   5.672   0.190
 1779TIP3    H2 5215   4.242   5.794   0.141
 1780TIP3   OH2 5216   4.416   5.851   0.149
 1780TIP3    H1 5217   4.448   5.761   0.136
 1780TIP3    H2 5218   4.459   5.872   0.234
 1781TIP3   OH2 5219   5.519   4.375   0.143
 1781TIP3    H1 5220   5.550   4.431   0.070
 1781TIP3    H2 5221   5.424   4.399   0.148
 1782TIP3   OH2 5222   5.631   4.455  -0.098
 1782TIP3    H1 5223   5.724   4.431  -0.080
 1782TIP3    H2 5224   5.641   4.552  -0.100
 1783TIP3   OH2 5225   4.242   4.215   0.252
 1783TIP3    H1 5226   4.151   4.179   0.257
 1783TIP3    H2 5227   4.293   4.130   0.251
 1784TIP3   OH2 5228   4.006   4.086  -0.107
 1784TIP3    H1 5229   4.054   4.145  -0.168
 1784TIP3    H2 5230   3.993   4.146  -0.030
 1785TIP3   OH2 5231   4.671   4.247   0.135
 1785TIP3    H1 5232   4.746   4.287   0.090
 1785TIP3    H2 5233   4.685   4.272   0.227
 1786TIP3   OH2 5234   5.247   4.391   0.111
 1786TIP3    H1 5235   5.238   4.345   0.027
 1786TIP3    H2 5236   5.216   4.324   0.175
 1787TIP3   OH2 5237   4.140   4.259  -0.317
 1787TIP3    H1 5238   4.184   4.178  -0.343
 1787TIP3    H2 5239   4.217   4.315  -0.290
 1788TIP3   OH2 5240   4.630   4.404  -0.175
 1788TIP3    H1 5241   4.707   4.364  -0.132
 1788TIP3    H2 5242   4.659   4.497  -0.180
 1789TIP3   OH2 5243   4.452   4.495   1.141
 1789TIP3    H1 5244   4.414   4.427   1.200
 1789TIP3    H2 5245   4.546   4.495   1.172
 1790TIP3   OH2 5246   4.700   4.490   1.262
 1790TIP3    H1 5247   4.787   4.462   1.229
 1790TIP3    H2 5248   4.684   4.422   1.331
 1791TIP3   OH2 5249   5.523   4.553   1.053
 1791TIP3    H1 5250   5.540   4.523   1.145
 1791TIP3    H2 5251   5.611   4.543   1.012
 1792TIP3   OH2 5252   5.466   6.104   0.544
 1792TIP3    H1 5253   5.380   6.079   0.504
 1792TIP3    H2 5254   5.453   6.201   0.554
 1793TIP3   OH2 5255   6.247   4.845   0.166
 1793TIP3    H1 5256   6.285   4.924   0.121
 1793TIP3    H2 5257   6.198   4.884   0.242
 1794TIP3   OH2 5258   6.176   5.480   0.328
 1794TIP3    H1 5259   6.186   5.573   0.357
 1794TIP3    H2 5260   6.079   5.475   0.319
 1795TIP3   OH2 5261   5.765   5.632   0.250
 1795TIP3    H1 5262   5.768   5.630   0.153
 1795TIP3    H2 5263   5.812   5.550   0.278
 1796TIP3   OH2 5264   6.018   5.752   0.252
 1796TIP3    H1 5265   6.075   5.758   0.333
 1796TIP3    H2 5266   5.937   5.713   0.288
 1797TIP3   OH2 5267   6.916   4.762   0.223
 1797TIP3    H1 5268   6.994   4.756   0.281
 1797TIP3    H2 5269   6.843   4.760   0.287
 1798TIP3   OH2 5270   6.875   5.411   0.413
 1798TIP3    H1 5271   6.871   5.316   0.435
 1798TIP3    H2 5272   6.967   5.424   0.383
 1799TIP3   OH2 5273   6.103   5.185   0.254
 1799TIP3    H1 5274   6.162   5.260   0.271
 1799TIP3    H2 5275   6.136   5.116   0.313
 1800TIP3   OH2 5276   6.167   5.730   0.480
 1800TIP3    H1 5277   6.242   5.768   0.530
 1800TIP3    H2 5278   6.095   5.745   0.544
 1801TIP3   OH2 5279   5.901   5.437   0.383
 1801TIP3    H1 5280   5.935   5.422   0.474
 1801TIP3    H2 5281   5.839   5.363   0.374
 1802TIP3   OH2 5282   6.621   5.501   0.440
 1802TIP3    H1 5283   6.573   5.494   0.355
 1802TIP3    H2 5284   6.713   5.477   0.412
 1803TIP3   OH2 5285   6.111   4.932   0.391
 1803TIP3    H1 5286   6.018   4.964   0.393
 1803TIP3    H2 5287   6.104   4.853   0.446
 1804TIP3   OH2 5288   6.081   4.542  -0.011
 1804TIP3    H1 5289   6.081   4.493  -0.096
 1804TIP3    H2 5290   6.096   4.470   0.054
 1805TIP3   OH2 5291   5.820   6.296   0.433
 1805TIP3    H1 5292   5.903   6.313   0.482
 1805TIP3    H2 5293   5.797   6.206   0.461
 1806TIP3   OH2 5294   6.329   6.285   0.477
 1806TIP3    H1 5295   6.396   6.218   0.502
 1806TIP3    H2 5296   6.319   6.263   0.384
 1807TIP3   OH2 5297   5.949   5.726   0.650
 1807TIP3    H1 5298   5.965   5.630   0.646
 1807TIP3    H2 5299   5.863   5.734   0.604
 1808TIP3   OH2 5300   6.554   5.766   0.466
 1808TIP3    H1 5301   6.517   5.779   0.376
 1808TIP3    H2 5302   6.582   5.672   0.463
 1809TIP3   OH2 5303   6.065   5.458   0.626
 1809TIP3    H1 5304   6.149   5.428   0.589
 1809TIP3    H2 5305   6.094   5.494   0.713
 1810TIP3   OH2 5306   6.394   5.330   0.275
 1810TIP3    H1 5307   6.323   5.391   0.304
 1810TIP3    H2 5308   6.434   5.386   0.206
 1811TIP3   OH2 5309   6.973   5.698   0.422
 1811TIP3    H1 5310   7.036   5.769   0.432
 1811TIP3    H2 5311   6.960   5.663   0.511
 1812TIP3   OH2 5312   6.515   5.143   0.430
 1812TIP3    H1 5313   6.523   5.062   0.376
 1812TIP3    H2 5314   6.481   5.208   0.364
 1813TIP3   OH2 5315   6.518   4.913   0.271
 1813TIP3    H1 5316   6.549   4.964   0.193
 1813TIP3    H2 5317   6.426   4.897   0.244
 1814TIP3   OH2 5318   7.164   5.433   0.493
 1814TIP3    H1 5319   7.190   5.340   0.494
 1814TIP3    H2 5320   7.208   5.467   0.413
 1815TIP3   OH2 5321   6.401   5.254   0.653
 1815TIP3    H1 5322   6.315   5.211   0.643
 1815TIP3    H2 5323   6.444   5.234   0.567
 1816TIP3   OH2 5324   6.648   4.677   0.284
 1816TIP3    H1 5325   6.607   4.765   0.298
 1816TIP3    H2 5326   6.569   4.618   0.284
 1817TIP3   OH2 5327   6.795   5.163   0.498
 1817TIP3    H1 5328   6.794   5.167   0.595
 1817TIP3    H2 5329   6.699   5.162   0.481
 1818TIP3   OH2 5330   7.023   5.113   0.353
 1818TIP3    H1 5331   6.945   5.128   0.410
 1818TIP3    H2 5332   7.094   5.102   0.418
 1819TIP3   OH2 5333   7.285   5.089   0.534
 1819TIP3    H1 5334   7.275   4.993   0.520
 1819TIP3    H2 5335   7.229   5.101   0.615
 1820TIP3   OH2 5336   6.240   5.010   0.688
 1820TIP3    H1 5337   6.313   4.997   0.625
 1820TIP3    H2 5338   6.288   5.019   0.772
 1821TIP3   OH2 5339   6.768   4.688   0.526
 1821TIP3    H1 5340   6.835   4.616   0.532
 1821TIP3    H2 5341   6.724   4.667   0.442
 1822TIP3   OH2 5342   6.755   4.871   0.730
 1822TIP3    H1 5343   6.770   4.822   0.647
 1822TIP3    H2 5344   6.754   4.964   0.701
 1823TIP3   OH2 5345   5.973   5.074   0.663
 1823TIP3    H1 5346   6.070   5.063   0.663
 1823TIP3    H2 5347   5.947   4.993   0.710
 1824TIP3   OH2 5348   5.943   4.806   0.048
 1824TIP3    H1 5349   6.012   4.747   0.085
 1824TIP3    H2 5350   5.995   4.887   0.024
 1825TIP3   OH2 5351   5.755   5.050   0.058
 1825TIP3    H1 5352   5.832   4.991   0.045
 1825TIP3    H2 5353   5.801   5.134   0.075
 1826TIP3   OH2 5354   5.954   4.631   0.391
 1826TIP3    H1 5355   5.898   4.623   0.470
 1826TIP3    H2 5356   5.888   4.669   0.329
 1827TIP3   OH2 5357   5.984   6.019   0.459
 1827TIP3    H1 5358   5.887   6.015   0.455
 1827TIP3    H2 5359   6.001   6.043   0.551
 1828TIP3   OH2 5360   7.305   4.792   0.543
 1828TIP3    H1 5361   7.333   4.776   0.636
 1828TIP3    H2 5362   7.390   4.810   0.500
 1829TIP3   OH2 5363  -0.229   5.871   2.230
 1829TIP3    H1 5364  -0.258   5.777   2.234
 1829TIP3    H2 5365  -0.282   5.914   2.299
 1830TIP3   OH2 5366   0.268   5.734   2.111
 1830TIP3    H1 5367   0.326   5.664   2.072
 1830TIP3    H2 5368   0.246   5.787   2.033
 1831TIP3   OH2 5369   0.131   5.879   1.925
 1831TIP3    H1 5370   0.065   5.915   1.989
 1831TIP3    H2 5371   0.088   5.796   1.894
 1832TIP3   OH2 5372   0.043   5.633   1.829
 1832TIP3    H1 5373  -0.006   5.639   1.744
 1832TIP3    H2 5374   0.084   5.545   1.817
 1833TIP3   OH2 5375  -0.237   5.591   2.238
 1833TIP3    H1 5376  -0.212   5.562   2.328
 1833TIP3    H2 5377  -0.149   5.595   2.194
 1834TIP3   OH2 5378   1.793   6.065   0.916
 1834TIP3    H1 5379   1.822   6.147   0.961
 1834TIP3    H2 5380   1.809   6.088   0.823
 1835TIP3   OH2 5381   1.142   6.240   0.969
 1835TIP3    H1 5382   1.187   6.155   0.988
 1835TIP3    H2 5383   1.194   6.267   0.890
 1836TIP3   OH2 5384   1.862   6.273   1.086
 1836TIP3    H1 5385   1.780   6.323   1.067
 1836TIP3    H2 5386   1.882   6.304   1.176
 1837TIP3   OH2 5387   0.540   5.888   1.374
 1837TIP3    H1 5388   0.467   5.867   1.313
 1837TIP3    H2 5389   0.490   5.907   1.456
 1838TIP3   OH2 5390   1.423   6.008   0.710
 1838TIP3    H1 5391   1.427   5.945   0.783
 1838TIP3    H2 5392   1.486   6.076   0.738
 1839TIP3   OH2 5393   1.581   5.971   1.080
 1839TIP3    H1 5394   1.494   5.999   1.045
 1839TIP3    H2 5395   1.642   6.000   1.009
 1840TIP3   OH2 5396   0.896   5.628   1.099
 1840TIP3    H1 5397   0.872   5.561   1.031
 1840TIP3    H2 5398   0.806   5.657   1.123
 1841TIP3   OH2 5399   1.512   6.985   1.068
 1841TIP3    H1 5400   1.514   6.919   0.997
 1841TIP3    H2 5401   1.474   7.063   1.022
 1842TIP3   OH2 5402   1.710   6.614   0.905
 1842TIP3    H1 5403   1.634   6.674   0.909
 1842TIP3    H2 5404   1.743   6.638   0.815
 1843TIP3   OH2 5405   1.387   6.497   1.203
 1843TIP3    H1 5406   1.395   6.572   1.267
 1843TIP3    H2 5407   1.324   6.534   1.140
 1844TIP3   OH2 5408   1.768   7.321   1.122
 1844TIP3    H1 5409   1.756   7.225   1.128
 1844TIP3    H2 5410   1.679   7.353   1.150
 1845TIP3   OH2 5411   1.646   6.454   1.384
 1845TIP3    H1 5412   1.568   6.466   1.329
 1845TIP3    H2 5413   1.664   6.359   1.374
 1846TIP3   OH2 5414   0.632   5.689   1.188
 1846TIP3    H1 5415   0.553   5.652   1.146
 1846TIP3    H2 5416   0.601   5.777   1.211
 1847TIP3   OH2 5417   1.175   5.810   1.388
 1847TIP3    H1 5418   1.244   5.778   1.449
 1847TIP3    H2 5419   1.092   5.781   1.432
 1848TIP3   OH2 5420   1.407   6.229   1.299
 1848TIP3    H1 5421   1.364   6.225   1.388
 1848TIP3    H2 5422   1.392   6.321   1.271
 1849TIP3   OH2 5423   1.125   6.457   1.544
 1849TIP3    H1 5424   1.106   6.385   1.608
 1849TIP3    H2 5425   1.218   6.477   1.566
 1850TIP3   OH2 5426   1.086   6.448   1.126
 1850TIP3    H1 5427   1.117   6.380   1.061
 1850TIP3    H2 5428   1.147   6.433   1.200
 1851TIP3   OH2 5429   1.269   5.991   0.995
 1851TIP3    H1 5430   1.233   5.995   1.086
 1851TIP3    H2 5431   1.209   5.923   0.957
 1852TIP3   OH2 5432   0.831   6.193   1.185
 1852TIP3    H1 5433   0.748   6.152   1.157
 1852TIP3    H2 5434   0.872   6.122   1.238
 1853TIP3   OH2 5435   1.484   6.776   0.883
 1853TIP3    H1 5436   1.508   6.813   0.796
 1853TIP3    H2 5437   1.418   6.710   0.858
 1854TIP3   OH2 5438   0.883   6.584   1.575
 1854TIP3    H1 5439   0.836   6.515   1.528
 1854TIP3    H2 5440   0.976   6.560   1.557
 1855TIP3   OH2 5441   1.767   7.025   1.149
 1855TIP3    H1 5442   1.669   7.028   1.141
 1855TIP3    H2 5443   1.790   6.999   1.057
 1856TIP3   OH2 5444   0.412   5.943   1.603
 1856TIP3    H1 5445   0.315   5.931   1.598
 1856TIP3    H2 5446   0.436   5.879   1.673
 1857TIP3   OH2 5447   1.183   6.052   1.257
 1857TIP3    H1 5448   1.273   6.083   1.279
 1857TIP3    H2 5449   1.180   5.966   1.305
 1858TIP3   OH2 5450   1.039   6.294   1.345
 1858TIP3    H1 5451   1.076   6.339   1.424
 1858TIP3    H2 5452   1.091   6.211   1.344
 1859TIP3   OH2 5453   1.678   6.191   1.301
 1859TIP3    H1 5454   1.580   6.183   1.305
 1859TIP3    H2 5455   1.695   6.149   1.216
 1860TIP3   OH2 5456   1.313   6.314   0.767
 1860TIP3    H1 5457   1.330   6.349   0.676
 1860TIP3    H2 5458   1.406   6.292   0.790
 1861TIP3   OH2 5459   1.210   7.251   1.405
 1861TIP3    H1 5460   1.186   7.181   1.469
 1861TIP3    H2 5461   1.284   7.297   1.448
 1862TIP3   OH2 5462   0.816   6.856   1.598
 1862TIP3    H1 5463   0.754   6.848   1.526
 1862TIP3    H2 5464   0.860   6.769   1.597
 1863TIP3   OH2 5465   1.304   6.872   1.203
 1863TIP3    H1 5466   1.384   6.919   1.170
 1863TIP3    H2 5467   1.255   6.942   1.248
 1864TIP3   OH2 5468   0.371   6.609   1.833
 1864TIP3    H1 5469   0.343   6.562   1.821
 1864TIP3    H2 5470   0.447   6.579   1.909
 1865TIP3   OH2 5471   1.167   6.781   1.599
 1865TIP3    H1 5472   1.257   6.784   1.566
 1865TIP3    H2 5473   1.175   6.720   1.675
 1866TIP3   OH2 5474   0.777   6.176   1.586
 1866TIP3    H1 5475   0.795   6.086   1.551
 1866TIP3    H2 5476   0.728   6.212   1.512
 1867TIP3   OH2 5477   0.792   5.974   1.377
 1867TIP3    H1 5478   0.812   5.932   1.292
 1867TIP3    H2 5479   0.697   5.949   1.387
 1868TIP3   OH2 5480   1.391   6.471   1.649
 1868TIP3    H1 5481   1.439   6.388   1.663
 1868TIP3    H2 5482   1.462   6.529   1.618
 1869TIP3   OH2 5483   1.436   6.711   1.378
 1869TIP3    H1 5484   1.378   6.770   1.324
 1869TIP3    H2 5485   1.525   6.737   1.342
 1870TIP3   OH2 5486   0.662   6.297   1.812
 1870TIP3    H1 5487   0.587   6.238   1.834
 1870TIP3    H2 5488   0.697   6.254   1.732
 1871TIP3   OH2 5489   0.915   5.733   1.463
 1871TIP3    H1 5490   0.862   5.812   1.443
 1871TIP3    H2 5491   0.849   5.661   1.447
 1872TIP3   OH2 5492   1.040   6.240   1.682
 1872TIP3    H1 5493   1.038   6.227   1.779
 1872TIP3    H2 5494   0.949   6.212   1.659
 1873TIP3   OH2 5495   1.279   6.188   1.534
 1873TIP3    H1 5496   1.206   6.184   1.598
 1873TIP3    H2 5497   1.355   6.155   1.588
 1874TIP3   OH2 5498   1.503   6.124   1.683
 1874TIP3    H1 5499   1.519   6.029   1.701
 1874TIP3    H2 5500   1.502   6.163   1.772
 1875TIP3   OH2 5501   0.503   6.077   1.877
 1875TIP3    H1 5502   0.509   5.988   1.838
 1875TIP3    H2 5503   0.542   6.060   1.966
 1876TIP3   OH2 5504   1.009   5.742   1.719
 1876TIP3    H1 5505   1.077   5.672   1.716
 1876TIP3    H2 5506   0.970   5.732   1.630
 1877TIP3   OH2 5507   1.075   5.957   1.878
 1877TIP3    H1 5508   1.053   5.884   1.815
 1877TIP3    H2 5509   0.995   6.013   1.873
 1878TIP3   OH2 5510   1.627   7.125   1.448
 1878TIP3    H1 5511   1.555   7.135   1.514
 1878TIP3    H2 5512   1.669   7.213   1.451
 1879TIP3   OH2 5513   1.674   6.788   1.274
 1879TIP3    H1 5514   1.748   6.723   1.267
 1879TIP3    H2 5515   1.706   6.861   1.218
 1880TIP3   OH2 5516   1.859   6.595   1.296
 1880TIP3    H1 5517   1.787   6.543   1.337
 1880TIP3    H2 5518   1.934   6.533   1.309
 1881TIP3   OH2 5519   1.568   6.241   0.816
 1881TIP3    H1 5520   1.651   6.273   0.771
 1881TIP3    H2 5521   1.584   6.281   0.904
 1882TIP3   OH2 5522   1.613   6.396   1.042
 1882TIP3    H1 5523   1.537   6.433   1.090
 1882TIP3    H2 5524   1.647   6.476   0.994
 1883TIP3   OH2 5525   0.244   6.115   1.810
 1883TIP3    H1 5526   0.339   6.107   1.829
 1883TIP3    H2 5527   0.207   6.049   1.871
 1884TIP3   OH2 5528   2.061   5.987   1.598
 1884TIP3    H1 5529   2.122   5.922   1.557
 1884TIP3    H2 5530   2.037   6.043   1.522
 1885TIP3   OH2 5531   1.502   5.813   0.345
 1885TIP3    H1 5532   1.544   5.816   0.433
 1885TIP3    H2 5533   1.433   5.748   0.360
 1886TIP3   OH2 5534   1.936   6.130   1.403
 1886TIP3    H1 5535   1.849   6.168   1.427
 1886TIP3    H2 5536   1.908   6.057   1.346
 1887TIP3   OH2 5537   0.222   5.725   1.573
 1887TIP3    H1 5538   0.190   5.659   1.637
 1887TIP3    H2 5539   0.157   5.714   1.502
 1888TIP3   OH2 5540   1.834   5.891   1.282
 1888TIP3    H1 5541   1.743   5.882   1.249
 1888TIP3    H2 5542   1.866   5.799   1.271
 1889TIP3   OH2 5543   1.074   5.811   0.929
 1889TIP3    H1 5544   0.996   5.764   0.963
 1889TIP3    H2 5545   1.096   5.757   0.852
 1890TIP3   OH2 5546   1.568   5.699   0.813
 1890TIP3    H1 5547   1.601   5.748   0.735
 1890TIP3    H2 5548   1.471   5.703   0.801
 1891TIP3   OH2 5549   1.658   5.796   0.571
 1891TIP3    H1 5550   1.731   5.742   0.533
 1891TIP3    H2 5551   1.692   5.887   0.557
 1892TIP3   OH2 5552   1.295   5.685   0.770
 1892TIP3    H1 5553   1.292   5.635   0.688
 1892TIP3    H2 5554   1.267   5.617   0.836
 1893TIP3   OH2 5555   0.496   5.789   1.812
 1893TIP3    H1 5556   0.462   5.719   1.871
 1893TIP3    H2 5557   0.590   5.792   1.839
 1894TIP3   OH2 5558   0.744   5.794   1.926
 1894TIP3    H1 5559   0.829   5.765   1.889
 1894TIP3    H2 5560   0.730   5.725   1.995
 1895TIP3   OH2 5561   1.569   5.855   1.715
 1895TIP3    H1 5562   1.588   5.822   1.806
 1895TIP3    H2 5563   1.657   5.850   1.673
 1896TIP3   OH2 5564   1.513   7.408   1.206
 1896TIP3    H1 5565   1.440   7.357   1.168
 1896TIP3    H2 5566   1.480   7.498   1.201
 1897TIP3   OH2 5567   2.761   6.782   0.015
 1897TIP3    H1 5568   2.739   6.876   0.001
 1897TIP3    H2 5569   2.692   6.739  -0.038
 1898TIP3   OH2 5570   2.772   6.783   0.357
 1898TIP3    H1 5571   2.803   6.748   0.442
 1898TIP3    H2 5572   2.733   6.704   0.315
 1899TIP3   OH2 5573   2.091   6.666   0.719
 1899TIP3    H1 5574   2.119   6.601   0.786
 1899TIP3    H2 5575   2.164   6.730   0.724
 1900TIP3   OH2 5576   3.032   7.061   0.036
 1900TIP3    H1 5577   3.008   7.002   0.108
 1900TIP3    H2 5578   3.049   7.145   0.082
 1901TIP3   OH2 5579   2.044   7.059   0.482
 1901TIP3    H1 5580   2.076   6.967   0.496
 1901TIP3    H2 5581   2.126   7.099   0.449
 1902TIP3   OH2 5582   1.839   6.599   0.414
 1902TIP3    H1 5583   1.875   6.514   0.448
 1902TIP3    H2 5584   1.868   6.597   0.322
 1903TIP3   OH2 5585   2.697   7.539   0.044
 1903TIP3    H1 5586   2.727   7.448   0.035
 1903TIP3    H2 5587   2.662   7.538   0.134
 1904TIP3   OH2 5588   2.578   7.004   0.403
 1904TIP3    H1 5589   2.616   6.927   0.358
 1904TIP3    H2 5590   2.662   7.048   0.428
 1905TIP3   OH2 5591   3.582   6.327   0.402
 1905TIP3    H1 5592   3.612   6.407   0.449
 1905TIP3    H2 5593   3.611   6.348   0.311
 1906TIP3   OH2 5594   2.978   6.503   0.441
 1906TIP3    H1 5595   3.024   6.419   0.460
 1906TIP3    H2 5596   2.950   6.489   0.348
 1907TIP3   OH2 5597   2.321   6.166   0.403
 1907TIP3    H1 5598   2.303   6.239   0.340
 1907TIP3    H2 5599   2.276   6.092   0.357
 1908TIP3   OH2 5600   3.013   6.254   0.029
 1908TIP3    H1 5601   3.089   6.238   0.089
 1908TIP3    H2 5602   3.061   6.289  -0.049
 1909TIP3   OH2 5603   1.957   6.364   0.501
 1909TIP3    H1 5604   2.037   6.350   0.554
 1909TIP3    H2 5605   1.979   6.310   0.422
 1910TIP3   OH2 5606   2.406   6.562   0.301
 1910TIP3    H1 5607   2.499   6.535   0.315
 1910TIP3    H2 5608   2.366   6.479   0.267
 1911TIP3   OH2 5609   3.656   6.531   0.572
 1911TIP3    H1 5610   3.573   6.580   0.554
 1911TIP3    H2 5611   3.676   6.561   0.662
 1912TIP3   OH2 5612   2.318   6.148   0.835
 1912TIP3    H1 5613   2.259   6.188   0.768
 1912TIP3    H2 5614   2.268   6.166   0.916
 1913TIP3   OH2 5615   2.674   7.017  -0.098
 1913TIP3    H1 5616   2.685   6.969  -0.182
 1913TIP3    H2 5617   2.605   7.083  -0.117
 1914TIP3   OH2 5618   2.427   6.924   0.633
 1914TIP3    H1 5619   2.362   6.988   0.669
 1914TIP3    H2 5620   2.464   6.975   0.558
 1915TIP3   OH2 5621   3.231   6.258   0.196
 1915TIP3    H1 5622   3.215   6.213   0.280
 1915TIP3    H2 5623   3.280   6.337   0.224
 1916TIP3   OH2 5624   2.188   6.265   0.621
 1916TIP3    H1 5625   2.249   6.338   0.645
 1916TIP3    H2 5626   2.239   6.224   0.547
 1917TIP3   OH2 5627   2.254   7.115   0.732
 1917TIP3    H1 5628   2.227   7.196   0.685
 1917TIP3    H2 5629   2.174   7.101   0.788
 1918TIP3   OH2 5630   3.088   7.326   0.201
 1918TIP3    H1 5631   3.001   7.308   0.243
 1918TIP3    H2 5632   3.075   7.417   0.171
 1919TIP3   OH2 5633   3.377   6.224   0.566
 1919TIP3    H1 5634   3.290   6.255   0.537
 1919TIP3    H2 5635   3.437   6.257   0.496
 1920TIP3   OH2 5636   2.675   5.868   0.548
 1920TIP3    H1 5637   2.663   5.774   0.567
 1920TIP3    H2 5638   2.598   5.907   0.595
 1921TIP3   OH2 5639   3.313   7.236   0.549
 1921TIP3    H1 5640   3.302   7.159   0.490
 1921TIP3    H2 5641   3.297   7.311   0.487
 1922TIP3   OH2 5642   2.611   6.632  -0.184
 1922TIP3    H1 5643   2.519   6.660  -0.188
 1922TIP3    H2 5644   2.632   6.622  -0.278
 1923TIP3   OH2 5645   3.506   6.871   0.391
 1923TIP3    H1 5646   3.424   6.925   0.398
 1923TIP3    H2 5647   3.536   6.896   0.301
 1924TIP3   OH2 5648   2.917   6.653  -0.167
 1924TIP3    H1 5649   2.890   6.695  -0.083
 1924TIP3    H2 5650   3.014   6.658  -0.161
 1925TIP3   OH2 5651   3.188   6.753   0.688
 1925TIP3    H1 5652   3.185   6.836   0.738
 1925TIP3    H2 5653   3.101   6.758   0.642
 1926TIP3   OH2 5654   2.192   6.703   0.212
 1926TIP3    H1 5655   2.170   6.657   0.130
 1926TIP3    H2 5656   2.276   6.658   0.235
 1927TIP3   OH2 5657   2.310   7.083   0.378
 1927TIP3    H1 5658   2.299   7.097   0.283
 1927TIP3    H2 5659   2.406   7.066   0.384
 1928TIP3   OH2 5660   2.338   6.677   0.549
 1928TIP3    H1 5661   2.366   6.661   0.457
 1928TIP3    H2 5662   2.371   6.768   0.566
 1929TIP3   OH2 5663   2.847   7.319   0.320
 1929TIP3    H1 5664   2.836   7.399   0.374
 1929TIP3    H2 5665   2.834   7.246   0.385
 1930TIP3   OH2 5666   2.459   7.240   0.871
 1930TIP3    H1 5667   2.399   7.302   0.918
 1930TIP3    H2 5668   2.394   7.186   0.822
 1931TIP3   OH2 5669   2.213   6.796   0.971
 1931TIP3    H1 5670   2.218   6.883   1.015
 1931TIP3    H2 5671   2.118   6.777   0.982
 1932TIP3   OH2 5672   2.254   7.408   0.959
 1932TIP3    H1 5673   2.218   7.406   0.869
 1932TIP3    H2 5674   2.176   7.385   1.013
 1933TIP3   OH2 5675   1.831   6.929   0.901
 1933TIP3    H1 5676   1.812   6.899   0.811
 1933TIP3    H2 5677   1.874   6.849   0.939
 1934TIP3   OH2 5678   3.550   7.581   0.593
 1934TIP3    H1 5679   3.550   7.484   0.607
 1934TIP3    H2 5680   3.468   7.606   0.639
 1935TIP3   OH2 5681   2.659   7.368   0.731
 1935TIP3    H1 5682   2.659   7.461   0.765
 1935TIP3    H2 5683   2.587   7.328   0.785
 1936TIP3   OH2 5684   3.440   6.712   0.869
 1936TIP3    H1 5685   3.360   6.725   0.816
 1936TIP3    H2 5686   3.455   6.616   0.859
 1937TIP3   OH2 5687   2.037   7.117   0.896
 1937TIP3    H1 5688   2.086   7.102   0.979
 1937TIP3    H2 5689   1.960   7.057   0.905
 1938TIP3   OH2 5690   2.436   5.944   0.676
 1938TIP3    H1 5691   2.346   5.914   0.652
 1938TIP3    H2 5692   2.413   6.027   0.723
 1939TIP3   OH2 5693   2.971   6.059   0.872
 1939TIP3    H1 5694   3.039   6.032   0.937
 1939TIP3    H2 5695   2.887   6.039   0.918
 1940TIP3   OH2 5696   3.208   6.488   0.789
 1940TIP3    H1 5697   3.160   6.485   0.875
 1940TIP3    H2 5698   3.185   6.576   0.755
 1941TIP3   OH2 5699   2.606   5.987  -0.361
 1941TIP3    H1 5700   2.577   6.012  -0.272
 1941TIP3    H2 5701   2.559   5.905  -0.374
 1942TIP3   OH2 5702   2.368   6.456   0.698
 1942TIP3    H1 5703   2.319   6.482   0.779
 1942TIP3    H2 5704   2.357   6.537   0.644
 1943TIP3   OH2 5705   2.249   6.343   0.212
 1943TIP3    H1 5706   2.155   6.320   0.222
 1943TIP3    H2 5707   2.267   6.308   0.122
 1944TIP3   OH2 5708   2.742   6.425  -0.064
 1944TIP3    H1 5709   2.692   6.502  -0.097
 1944TIP3    H2 5710   2.817   6.427  -0.126
 1945TIP3   OH2 5711   2.917   6.711   1.024
 1945TIP3    H1 5712   2.895   6.638   1.086
 1945TIP3    H2 5713   3.011   6.725   1.046
 1946TIP3   OH2 5714   2.901   6.458   0.179
 1946TIP3    H1 5715   2.842   6.491   0.108
 1946TIP3    H2 5716   2.934   6.377   0.134
 1947TIP3   OH2 5717   2.189   6.487   0.910
 1947TIP3    H1 5718   2.219   6.550   0.977
 1947TIP3    H2 5719   2.178   6.405   0.961
 1948TIP3   OH2 5720   2.254   5.992  -0.371
 1948TIP3    H1 5721   2.262   5.968  -0.277
 1948TIP3    H2 5722   2.164   5.959  -0.386
 1949TIP3   OH2 5723   1.776   6.027   0.478
 1949TIP3    H1 5724   1.855   6.045   0.534
 1949TIP3    H2 5725   1.812   5.977   0.402
 1950TIP3   OH2 5726   2.910   6.707   0.601
 1950TIP3    H1 5727   2.942   6.634   0.543
 1950TIP3    H2 5728   2.881   6.656   0.679
 1951TIP3   OH2 5729   2.578   6.167   0.273
 1951TIP3    H1 5730   2.498   6.166   0.329
 1951TIP3    H2 5731   2.649   6.168   0.339
 1952TIP3   OH2 5732   2.007   6.210   0.273
 1952TIP3    H1 5733   1.918   6.175   0.265
 1952TIP3    H2 5734   2.061   6.128   0.261
 1953TIP3   OH2 5735   2.286   6.212  -0.027
 1953TIP3    H1 5736   2.384   6.224  -0.030
 1953TIP3    H2 5737   2.256   6.261  -0.106
 1954TIP3   OH2 5738   3.072   6.243   0.472
 1954TIP3    H1 5739   3.039   6.255   0.564
 1954TIP3    H2 5740   3.005   6.183   0.436
 1955TIP3   OH2 5741   3.240   7.933   0.693
 1955TIP3    H1 5742   3.238   7.958   0.599
 1955TIP3    H2 5743   3.321   7.979   0.723
 1956TIP3   OH2 5744   2.199   7.040   1.116
 1956TIP3    H1 5745   2.279   7.072   1.162
 1956TIP3    H2 5746   2.134   7.044   1.189
 1957TIP3   OH2 5747   2.665   6.492   0.368
 1957TIP3    H1 5748   2.740   6.456   0.318
 1957TIP3    H2 5749   2.677   6.452   0.456
 1958TIP3   OH2 5750   2.180   5.989   0.246
 1958TIP3    H1 5751   2.151   5.907   0.292
 1958TIP3    H2 5752   2.226   5.954   0.169
 1959TIP3   OH2 5753   2.640   6.390   0.662
 1959TIP3    H1 5754   2.550   6.429   0.673
 1959TIP3    H2 5755   2.697   6.452   0.710
 1960TIP3   OH2 5756   3.274   7.018   0.386
 1960TIP3    H1 5757   3.299   7.064   0.303
 1960TIP3    H2 5758   3.188   6.978   0.362
 1961TIP3   OH2 5759   2.777   7.103   0.750
 1961TIP3    H1 5760   2.798   7.079   0.841
 1961TIP3    H2 5761   2.736   7.190   0.759
 1962TIP3   OH2 5762   2.093   6.792   0.451
 1962TIP3    H1 5763   2.125   6.764   0.363
 1962TIP3    H2 5764   2.131   6.724   0.508
 1963TIP3   OH2 5765   1.949   6.728   1.044
 1963TIP3    H1 5766   1.972   6.714   1.138
 1963TIP3    H2 5767   1.884   6.658   1.029
 1964TIP3   OH2 5768   2.674   6.839   1.063
 1964TIP3    H1 5769   2.616   6.782   1.011
 1964TIP3    H2 5770   2.762   6.807   1.035
 1965TIP3   OH2 5771   2.936   7.364   0.644
 1965TIP3    H1 5772   2.840   7.360   0.659
 1965TIP3    H2 5773   2.964   7.414   0.724
 1966TIP3   OH2 5774   3.564   7.290   0.637
 1966TIP3    H1 5775   3.466   7.285   0.630
 1966TIP3    H2 5776   3.588   7.260   0.547
 1967TIP3   OH2 5777   3.035   6.890   0.307
 1967TIP3    H1 5778   2.942   6.863   0.318
 1967TIP3    H2 5779   3.072   6.807   0.270
 1968TIP3   OH2 5780   2.319   6.870   0.026
 1968TIP3    H1 5781   2.300   6.964   0.022
 1968TIP3    H2 5782   2.276   6.840   0.107
 1969TIP3   OH2 5783   2.452   7.455   0.560
 1969TIP3    H1 5784   2.491   7.517   0.496
 1969TIP3    H2 5785   2.532   7.420   0.604
 1970TIP3   OH2 5786   2.831   7.090   0.482
 1970TIP3    H1 5787   2.820   7.086   0.579
 1970TIP3    H2 5788   2.909   7.033   0.469
 1971TIP3   OH2 5789   3.076   7.620   0.535
 1971TIP3    H1 5790   2.998   7.562   0.527
 1971TIP3    H2 5791   3.058   7.687   0.465
 1972TIP3   OH2 5792   2.162   6.231   1.052
 1972TIP3    H1 5793   2.065   6.234   1.066
 1972TIP3    H2 5794   2.190   6.171   1.123
 1973TIP3   OH2 5795   1.856   7.303   0.693
 1973TIP3    H1 5796   1.921   7.232   0.704
 1973TIP3    H2 5797   1.894   7.371   0.750
 1974TIP3   OH2 5798   2.997   6.295   0.731
 1974TIP3    H1 5799   3.076   6.335   0.771
 1974TIP3    H2 5800   2.983   6.215   0.786
 1975TIP3   OH2 5801   2.853   6.071  -0.110
 1975TIP3    H1 5802   2.856   6.098  -0.202
 1975TIP3    H2 5803   2.913   6.136  -0.068
 1976TIP3   OH2 5804   2.559   6.226   0.000
 1976TIP3    H1 5805   2.628   6.291  -0.024
 1976TIP3    H2 5806   2.573   6.218   0.097
 1977TIP3   OH2 5807   2.835   6.546   0.808
 1977TIP3    H1 5808   2.855   6.600   0.887
 1977TIP3    H2 5809   2.891   6.467   0.822
 1978TIP3   OH2 5810   2.714   5.955   0.099
 1978TIP3    H1 5811   2.711   6.030   0.161
 1978TIP3    H2 5812   2.769   5.995   0.027
 1979TIP3   OH2 5813   2.233   5.948  -0.087
 1979TIP3    H1 5814   2.231   6.043  -0.059
 1979TIP3    H2 5815   2.330   5.932  -0.081
 1980TIP3   OH2 5816   3.476   6.446   0.789
 1980TIP3    H1 5817   3.378   6.443   0.795
 1980TIP3    H2 5818   3.489   6.408   0.701
 1981TIP3   OH2 5819   3.117   6.645   0.209
 1981TIP3    H1 5820   3.045   6.579   0.208
 1981TIP3    H2 5821   3.192   6.593   0.248
 1982TIP3   OH2 5822   3.104   7.602   0.149
 1982TIP3    H1 5823   3.064   7.581   0.062
 1982TIP3    H2 5824   3.194   7.632   0.122
 1983TIP3   OH2 5825   2.171   5.864   0.654
 1983TIP3    H1 5826   2.141   5.829   0.567
 1983TIP3    H2 5827   2.162   5.786   0.712
 1984TIP3   OH2 5828   1.864   7.609   1.115
 1984TIP3    H1 5829   1.951   7.603   1.159
 1984TIP3    H2 5830   1.840   7.515   1.104
 1985TIP3   OH2 5831   2.351   7.591   1.149
 1985TIP3    H1 5832   2.445   7.568   1.156
 1985TIP3    H2 5833   2.323   7.532   1.075
 1986TIP3   OH2 5834   2.988   7.495   0.882
 1986TIP3    H1 5835   2.979   7.425   0.951
 1986TIP3    H2 5836   3.066   7.545   0.913
 1987TIP3   OH2 5837   1.997   7.030   1.306
 1987TIP3    H1 5838   2.014   6.934   1.309
 1987TIP3    H2 5839   1.910   7.033   1.261
 1988TIP3   OH2 5840   2.605   7.115   1.078
 1988TIP3    H1 5841   2.564   7.131   0.991
 1988TIP3    H2 5842   2.636   7.022   1.071
 1989TIP3   OH2 5843   3.098   7.122   0.685
 1989TIP3    H1 5844   3.172   7.168   0.641
 1989TIP3    H2 5845   3.026   7.187   0.671
 1990TIP3   OH2 5846   2.115   6.760   1.287
 1990TIP3    H1 5847   2.194   6.709   1.265
 1990TIP3    H2 5848   2.140   6.796   1.375
 1991TIP3   OH2 5849   2.450   6.648   0.947
 1991TIP3    H1 5850   2.374   6.710   0.950
 1991TIP3    H2 5851   2.501   6.682   0.870
 1992TIP3   OH2 5852   2.968   7.051   1.083
 1992TIP3    H1 5853   3.049   7.029   1.035
 1992TIP3    H2 5854   2.967   6.984   1.153
 1993TIP3   OH2 5855   2.574   6.437   1.076
 1993TIP3    H1 5856   2.575   6.357   1.020
 1993TIP3    H2 5857   2.531   6.503   1.017
 1994TIP3   OH2 5858   2.577   6.223   0.882
 1994TIP3    H1 5859   2.605   6.265   0.799
 1994TIP3    H2 5860   2.483   6.201   0.863
 1995TIP3   OH2 5861   2.607   6.761   0.756
 1995TIP3    H1 5862   2.688   6.768   0.706
 1995TIP3    H2 5863   2.549   6.827   0.712
 1996TIP3   OH2 5864   3.188   6.727   1.137
 1996TIP3    H1 5865   3.236   6.644   1.148
 1996TIP3    H2 5866   3.256   6.785   1.102
 1997TIP3   OH2 5867   3.229   6.979   0.872
 1997TIP3    H1 5868   3.171   7.032   0.813
 1997TIP3    H2 5869   3.316   6.999   0.832
 1998TIP3   OH2 5870   2.450   6.551   1.304
 1998TIP3    H1 5871   2.383   6.482   1.318
 1998TIP3    H2 5872   2.487   6.525   1.218
 1999TIP3   OH2 5873   2.710   5.987   0.947
 1999TIP3    H1 5874   2.661   6.070   0.926
 1999TIP3    H2 5875   2.640   5.919   0.937
 2000TIP3   OH2 5876   2.836   6.493   1.165
 2000TIP3    H1 5877   2.826   6.480   1.261
 2000TIP3    H2 5878   2.746   6.468   1.136
 2001TIP3   OH2 5879   3.075   6.441   1.019
 2001TIP3    H1 5880   3.000   6.443   1.082
 2001TIP3    H2 5881   3.149   6.410   1.076
 2002TIP3   OH2 5882   3.302   6.381   1.171
 2002TIP3    H1 5883   3.316   6.286   1.190
 2002TIP3    H2 5884   3.300   6.421   1.261
 2003TIP3   OH2 5885   2.291   6.331   1.358
 2003TIP3    H1 5886   2.299   6.240   1.322
 2003TIP3    H2 5887   2.328   6.319   1.447
 2004TIP3   OH2 5888   2.805   5.998   1.205
 2004TIP3    H1 5889   2.872   5.927   1.201
 2004TIP3    H2 5890   2.765   5.990   1.116
 2005TIP3   OH2 5891   2.870   6.213   1.365
 2005TIP3    H1 5892   2.848   6.141   1.301
 2005TIP3    H2 5893   2.792   6.271   1.358
 2006TIP3   OH2 5894   3.354   7.700   0.089
 2006TIP3    H1 5895   3.382   7.713   0.182
 2006TIP3    H2 5896   3.437   7.717   0.042
 2007TIP3   OH2 5897   3.377   7.706   0.366
 2007TIP3    H1 5898   3.336   7.617   0.367
 2007TIP3    H2 5899   3.456   7.688   0.418
 2008TIP3   OH2 5900   3.423   7.384   0.936
 2008TIP3    H1 5901   3.351   7.393   1.001
 2008TIP3    H2 5902   3.465   7.472   0.941
 2009TIP3   OH2 5903   3.417   7.144   0.193
 2009TIP3    H1 5904   3.471   7.082   0.141
 2009TIP3    H2 5905   3.438   7.230   0.150
 2010TIP3   OH2 5906   3.255   7.455   0.390
 2010TIP3    H1 5907   3.184   7.499   0.442
 2010TIP3    H2 5908   3.204   7.408   0.321
 2011TIP3   OH2 5909   3.181   6.613  -0.052
 2011TIP3    H1 5910   3.195   6.517  -0.052
 2011TIP3    H2 5911   3.168   6.634   0.042
 2012TIP3   OH2 5912   1.830   6.728   0.678
 2012TIP3    H1 5913   1.805   6.691   0.591
 2012TIP3    H2 5914   1.927   6.712   0.678
 2013TIP3   OH2 5915   3.471   7.045   0.764
 2013TIP3    H1 5916   3.543   6.979   0.755
 2013TIP3    H2 5917   3.500   7.116   0.703
 2014TIP3   OH2 5918   3.655   6.851   0.782
 2014TIP3    H1 5919   3.582   6.799   0.822
 2014TIP3    H2 5920   3.729   6.788   0.795
 2015TIP3   OH2 5921   3.175   6.334  -0.169
 2015TIP3    H1 5922   3.219   6.247  -0.175
 2015TIP3    H2 5923   3.241   6.391  -0.213
 2016TIP3   OH2 5924   3.340   6.509   0.297
 2016TIP3    H1 5925   3.425   6.537   0.256
 2016TIP3    H2 5926   3.354   6.546   0.387
 2017TIP3   OH2 5927   3.407   6.653   0.529
 2017TIP3    H1 5928   3.329   6.688   0.578
 2017TIP3    H2 5929   3.440   6.734   0.484
 2018TIP3   OH2 5930   2.024   6.382   1.326
 2018TIP3    H1 5931   2.122   6.376   1.329
 2018TIP3    H2 5932   2.001   6.296   1.368
 2019TIP3   OH2 5933   3.858   6.244   1.086
 2019TIP3    H1 5934   3.919   6.179   1.044
 2019TIP3    H2 5935   3.832   6.300   1.010
 2020TIP3   OH2 5936   3.288   6.086  -0.159
 2020TIP3    H1 5937   3.338   6.074  -0.076
 2020TIP3    H2 5938   3.226   6.010  -0.151
 2021TIP3   OH2 5939   1.986   6.069   0.652
 2021TIP3    H1 5940   2.050   5.997   0.667
 2021TIP3    H2 5941   2.046   6.146   0.653
 2022TIP3   OH2 5942   1.805   6.348   0.735
 2022TIP3    H1 5943   1.850   6.345   0.648
 2022TIP3    H2 5944   1.816   6.440   0.759
 2023TIP3   OH2 5945   3.732   6.387   0.892
 2023TIP3    H1 5946   3.645   6.426   0.913
 2023TIP3    H2 5947   3.704   6.314   0.833
 2024TIP3   OH2 5948   1.761   5.885   0.233
 2024TIP3    H1 5949   1.670   5.857   0.256
 2024TIP3    H2 5950   1.760   5.881   0.136
 2025TIP3   OH2 5951   1.995   5.930   1.049
 2025TIP3    H1 5952   1.944   5.924   1.132
 2025TIP3    H2 5953   1.928   5.967   0.989
 2026TIP3   OH2 5954   2.039   7.354   1.127
 2026TIP3    H1 5955   1.945   7.331   1.110
 2026TIP3    H2 5956   2.044   7.340   1.222
 2027TIP3   OH2 5957   2.206   7.389   0.678
 2027TIP3    H1 5958   2.157   7.455   0.627
 2027TIP3    H2 5959   2.297   7.408   0.647
 2028TIP3   OH2 5960   2.657   7.634   0.811
 2028TIP3    H1 5961   2.698   7.635   0.900
 2028TIP3    H2 5962   2.725   7.684   0.760
 2029TIP3   OH2 5963   2.839   7.782   0.671
 2029TIP3    H1 5964   2.912   7.732   0.630
 2029TIP3    H2 5965   2.889   7.841   0.731
 2030TIP3   OH2 5966   3.630   6.149   0.769
 2030TIP3    H1 5967   3.539   6.143   0.736
 2030TIP3    H2 5968   3.660   6.056   0.757
 2031TIP3   OH2 5969   2.562   7.654   0.356
 2031TIP3    H1 5970   2.480   7.657   0.304
 2031TIP3    H2 5971   2.568   7.746   0.388
 2032TIP3   OH2 5972   2.824   7.590   0.401
 2032TIP3    H1 5973   2.729   7.609   0.388
 2032TIP3    H2 5974   2.864   7.672   0.367
 2033TIP3   OH2 5975   3.020   7.791   0.329
 2033TIP3    H1 5976   3.021   7.877   0.282
 2033TIP3    H2 5977   3.051   7.729   0.259
 2034TIP3   OH2 5978   2.322   7.480   0.328
 2034TIP3    H1 5979   2.331   7.402   0.271
 2034TIP3    H2 5980   2.345   7.440   0.415
 2035TIP3   OH2 5981   2.833   6.063   0.385
 2035TIP3    H1 5982   2.791   5.994   0.438
 2035TIP3    H2 5983   2.907   6.016   0.342
 2036TIP3   OH2 5984   3.353   5.938   0.297
 2036TIP3    H1 5985   3.390   5.991   0.223
 2036TIP3    H2 5986   3.259   5.962   0.293
 2037TIP3   OH2 5987   3.446   6.038   0.063
 2037TIP3    H1 5988   3.519   5.987   0.020
 2037TIP3    H2 5989   3.483   6.129   0.056
 2038TIP3   OH2 5990   2.083   5.772   0.404
 2038TIP3    H1 5991   1.992   5.736   0.405
 2038TIP3    H2 5992   2.135   5.688   0.400
 2039TIP3   OH2 5993   1.888   5.617   0.078
 2039TIP3    H1 5994   1.888   5.682   0.004
 2039TIP3    H2 5995   1.831   5.663   0.141
 2040TIP3   OH2 5996   2.527   5.804   0.286
 2040TIP3    H1 5997   2.584   5.855   0.226
 2040TIP3    H2 5998   2.550   5.842   0.372
 2041TIP3   OH2 5999   3.073   5.951   0.269
 2041TIP3    H1 6000   3.070   5.922   0.177
 2041TIP3    H2 6001   3.058   5.868   0.319
 2042TIP3   OH2 6002   3.124   5.873  -0.120
 2042TIP3    H1 6003   3.067   5.889  -0.198
 2042TIP3    H2 6004   3.091   5.787  -0.088
 2043TIP3   OH2 6005   2.081   5.796  -0.281
 2043TIP3    H1 6006   2.049   5.709  -0.255
 2043TIP3    H2 6007   2.100   5.838  -0.195
 2044TIP3   OH2 6008   2.506   5.972  -0.086
 2044TIP3    H1 6009   2.570   5.931  -0.025
 2044TIP3    H2 6010   2.524   6.066  -0.065
 2045TIP3   OH2 6011   2.291   6.053   1.295
 2045TIP3    H1 6012   2.258   5.982   1.353
 2045TIP3    H2 6013   2.386   6.053   1.322
 2046TIP3   OH2 6014   2.540   6.050   1.414
 2046TIP3    H1 6015   2.625   6.024   1.376
 2046TIP3    H2 6016   2.528   5.981   1.482
 2047TIP3   OH2 6017   3.365   6.111   1.202
 2047TIP3    H1 6018   3.384   6.079   1.293
 2047TIP3    H2 6019   3.454   6.106   1.161
 2048TIP3   OH2 6020   3.304   7.664   0.696
 2048TIP3    H1 6021   3.225   7.632   0.647
 2048TIP3    H2 6022   3.286   7.760   0.698
 2049TIP3   OH2 6023   3.868   6.930   0.209
 2049TIP3    H1 6024   3.910   6.873   0.276
 2049TIP3    H2 6025   3.931   7.003   0.201
 2050TIP3   OH2 6026   3.742   6.611  -0.015
 2050TIP3    H1 6027   3.828   6.606   0.030
 2050TIP3    H2 6028   3.763   6.563  -0.097
 2051TIP3   OH2 6029   4.111   6.402   0.322
 2051TIP3    H1 6030   4.055   6.442   0.253
 2051TIP3    H2 6031   4.060   6.422   0.403
 2052TIP3   OH2 6032   3.990   6.515   0.094
 2052TIP3    H1 6033   4.048   6.588   0.124
 2052TIP3    H2 6034   4.029   6.497   0.006
 2053TIP3   OH2 6035   4.053   7.310   0.259
 2053TIP3    H1 6036   4.036   7.372   0.185
 2053TIP3    H2 6037   3.973   7.325   0.312
 2054TIP3   OH2 6038   4.485   6.113   0.056
 2054TIP3    H1 6039   4.451   6.025   0.079
 2054TIP3    H2 6040   4.405   6.168   0.070
 2055TIP3   OH2 6041   4.233   7.456   0.420
 2055TIP3    H1 6042   4.209   7.549   0.405
 2055TIP3    H2 6043   4.179   7.410   0.353
 2056TIP3   OH2 6044   4.007   7.047   0.462
 2056TIP3    H1 6045   4.016   7.138   0.496
 2056TIP3    H2 6046   3.911   7.033   0.475
 2057TIP3   OH2 6047   4.036   7.682   0.440
 2057TIP3    H1 6048   4.002   7.643   0.359
 2057TIP3    H2 6049   3.967   7.656   0.505
 2058TIP3   OH2 6050   3.627   7.192   0.393
 2058TIP3    H1 6051   3.565   7.163   0.323
 2058TIP3    H2 6052   3.666   7.107   0.423
 2059TIP3   OH2 6053   3.529   7.374   0.084
 2059TIP3    H1 6054   3.618   7.360   0.049
 2059TIP3    H2 6055   3.549   7.452   0.142
 2060TIP3   OH2 6056   5.270   7.000   0.365
 2060TIP3    H1 6057   5.182   7.009   0.324
 2060TIP3    H2 6058   5.285   6.904   0.356
 2061TIP3   OH2 6059   3.822   7.386   0.390
 2061TIP3    H1 6060   3.872   7.369   0.473
 2061TIP3    H2 6061   3.750   7.320   0.396
 2062TIP3   OH2 6062   4.229   6.200   0.166
 2062TIP3    H1 6063   4.139   6.170   0.143
 2062TIP3    H2 6064   4.207   6.282   0.213
 2063TIP3   OH2 6065   4.762   6.331   0.351
 2063TIP3    H1 6066   4.827   6.326   0.424
 2063TIP3    H2 6067   4.680   6.308   0.399
 2064TIP3   OH2 6068   4.975   6.707   0.273
 2064TIP3    H1 6069   4.967   6.696   0.370
 2064TIP3    H2 6070   4.935   6.795   0.262
 2065TIP3   OH2 6071   4.181   6.692   0.217
 2065TIP3    H1 6072   4.127   6.724   0.292
 2065TIP3    H2 6073   4.144   6.742   0.142
 2066TIP3   OH2 6074   4.711   6.971   0.504
 2066TIP3    H1 6075   4.687   6.899   0.567
 2066TIP3    H2 6076   4.805   6.983   0.526
 2067TIP3   OH2 6077   3.978   6.745   0.400
 2067TIP3    H1 6078   4.009   6.810   0.465
 2067TIP3    H2 6079   3.969   6.664   0.454
 2068TIP3   OH2 6080   3.601   6.250   0.001
 2068TIP3    H1 6081   3.648   6.303   0.070
 2068TIP3    H2 6082   3.677   6.208  -0.041
 2069TIP3   OH2 6083   3.989   7.298   0.598
 2069TIP3    H1 6084   4.073   7.331   0.636
 2069TIP3    H2 6085   3.932   7.300   0.678
 2070TIP3   OH2 6086   4.459   6.639   0.181
 2070TIP3    H1 6087   4.367   6.651   0.148
 2070TIP3    H2 6088   4.455   6.697   0.259
 2071TIP3   OH2 6089   4.527   7.300   0.275
 2071TIP3    H1 6090   4.557   7.291   0.367
 2071TIP3    H2 6091   4.545   7.394   0.261
 2072TIP3   OH2 6092   3.742   6.984   0.532
 2072TIP3    H1 6093   3.768   6.971   0.626
 2072TIP3    H2 6094   3.677   6.914   0.520
 2073TIP3   OH2 6095   4.470   7.094   0.554
 2073TIP3    H1 6096   4.417   7.041   0.492
 2073TIP3    H2 6097   4.560   7.062   0.530
 2074TIP3   OH2 6098   3.957   6.489   0.540
 2074TIP3    H1 6099   3.861   6.491   0.555
 2074TIP3    H2 6100   3.987   6.430   0.611
 2075TIP3   OH2 6101   3.669   7.568   0.206
 2075TIP3    H1 6102   3.740   7.512   0.243
 2075TIP3    H2 6103   3.705   7.657   0.219
 2076TIP3   OH2 6104   4.779   6.545   0.186
 2076TIP3    H1 6105   4.865   6.582   0.216
 2076TIP3    H2 6106   4.774   6.466   0.245
 2077TIP3   OH2 6107   4.661   6.790   0.297
 2077TIP3    H1 6108   4.649   6.878   0.339
 2077TIP3    H2 6109   4.710   6.747   0.370
 2078TIP3   OH2 6110   3.965   6.122   0.145
 2078TIP3    H1 6111   3.933   6.088   0.059
 2078TIP3    H2 6112   3.957   6.043   0.202
 2079TIP3   OH2 6113   3.663   7.878   0.598
 2079TIP3    H1 6114   3.750   7.878   0.643
 2079TIP3    H2 6115   3.645   7.783   0.591
 2080TIP3   OH2 6116   4.144   7.846   0.639
 2080TIP3    H1 6117   4.239   7.832   0.641
 2080TIP3    H2 6118   4.119   7.795   0.560
 2081TIP3   OH2 6119   4.779   7.721   0.357
 2081TIP3    H1 6120   4.768   7.676   0.444
 2081TIP3    H2 6121   4.851   7.783   0.373
 2082TIP3   OH2 6122   3.793   7.287   0.795
 2082TIP3    H1 6123   3.811   7.191   0.798
 2082TIP3    H2 6124   3.706   7.289   0.749
 2083TIP3   OH2 6125   4.422   7.368   0.582
 2083TIP3    H1 6126   4.360   7.390   0.508
 2083TIP3    H2 6127   4.438   7.272   0.569
 2084TIP3   OH2 6128   3.912   7.017   0.773
 2084TIP3    H1 6129   3.992   6.968   0.750
 2084TIP3    H2 6130   3.937   7.052   0.861
 2085TIP3   OH2 6131   4.236   6.896   0.439
 2085TIP3    H1 6132   4.164   6.962   0.448
 2085TIP3    H2 6133   4.292   6.939   0.370
 2086TIP3   OH2 6134   4.763   7.295   0.564
 2086TIP3    H1 6135   4.856   7.285   0.537
 2086TIP3    H2 6136   4.758   7.233   0.639
 2087TIP3   OH2 6137   4.364   6.691   0.567
 2087TIP3    H1 6138   4.364   6.608   0.515
 2087TIP3    H2 6139   4.316   6.754   0.509
 2088TIP3   OH2 6140   4.366   6.474   0.382
 2088TIP3    H1 6141   4.398   6.506   0.296
 2088TIP3    H2 6142   4.272   6.453   0.362
 2089TIP3   OH2 6143   4.415   7.017   0.275
 2089TIP3    H1 6144   4.448   6.975   0.194
 2089TIP3    H2 6145   4.415   7.112   0.251
 2090TIP3   OH2 6146   4.982   6.985   0.628
 2090TIP3    H1 6147   5.022   6.896   0.635
 2090TIP3    H2 6148   5.055   7.036   0.589
 2091TIP3   OH2 6149   5.025   7.216   0.373
 2091TIP3    H1 6150   4.955   7.228   0.307
 2091TIP3    H2 6151   5.092   7.279   0.338
 2092TIP3   OH2 6152   4.240   6.812   0.791
 2092TIP3    H1 6153   4.177   6.739   0.805
 2092TIP3    H2 6154   4.283   6.786   0.708
 2093TIP3   OH2 6155   4.510   6.244   0.430
 2093TIP3    H1 6156   4.456   6.326   0.420
 2093TIP3    H2 6157   4.441   6.175   0.427
 2094TIP3   OH2 6158   4.623   6.760   0.650
 2094TIP3    H1 6159   4.629   6.733   0.744
 2094TIP3    H2 6160   4.534   6.724   0.630
 2095TIP3   OH2 6161   4.867   6.706   0.520
 2095TIP3    H1 6162   4.788   6.705   0.576
 2095TIP3    H2 6163   4.916   6.635   0.566
 2096TIP3   OH2 6164   5.133   6.630   0.666
 2096TIP3    H1 6165   5.095   6.540   0.677
 2096TIP3    H2 6166   5.107   6.673   0.750
 2097TIP3   OH2 6167   4.087   6.587   0.845
 2097TIP3    H1 6168   4.099   6.497   0.809
 2097TIP3    H2 6169   4.124   6.575   0.935
 2098TIP3   OH2 6170   4.561   6.223   0.710
 2098TIP3    H1 6171   4.657   6.235   0.716
 2098TIP3    H2 6172   4.549   6.238   0.615
 2099TIP3   OH2 6173   5.210   7.658   0.467
 2099TIP3    H1 6174   5.133   7.674   0.527
 2099TIP3    H2 6175   5.233   7.747   0.439
 2100TIP3   OH2 6176   3.609   6.948   0.141
 2100TIP3    H1 6177   3.616   6.930   0.047
 2100TIP3    H2 6178   3.705   6.946   0.166
 2101TIP3   OH2 6179   3.820   6.637   0.812
 2101TIP3    H1 6180   3.918   6.632   0.816
 2101TIP3    H2 6181   3.797   6.553   0.856
 2102TIP3   OH2 6182   5.694   6.493   0.587
 2102TIP3    H1 6183   5.732   6.432   0.521
 2102TIP3    H2 6184   5.632   6.545   0.531
 2103TIP3   OH2 6185   3.792   6.337   0.173
 2103TIP3    H1 6186   3.853   6.260   0.174
 2103TIP3    H2 6187   3.854   6.408   0.148
 2104TIP3   OH2 6188   3.585   6.604   0.217
 2104TIP3    H1 6189   3.637   6.600   0.134
 2104TIP3    H2 6190   3.617   6.686   0.256
 2105TIP3   OH2 6191   5.507   6.629   0.456
 2105TIP3    H1 6192   5.418   6.667   0.443
 2105TIP3    H2 6193   5.539   6.631   0.364
 2106TIP3   OH2 6194   3.788   6.186   0.534
 2106TIP3    H1 6195   3.739   6.182   0.617
 2106TIP3    H2 6196   3.722   6.225   0.474
 2107TIP3   OH2 6197   3.830   7.615   0.615
 2107TIP3    H1 6198   3.739   7.585   0.595
 2107TIP3    H2 6199   3.838   7.597   0.709
 2108TIP3   OH2 6200   5.418   6.379   0.303
 2108TIP3    H1 6201   5.366   6.423   0.235
 2108TIP3    H2 6202   5.486   6.333   0.252
 2109TIP3   OH2 6203   3.663   7.894   0.162
 2109TIP3    H1 6204   3.579   7.945   0.164
 2109TIP3    H2 6205   3.710   7.934   0.236
 2110TIP3   OH2 6206   3.874   6.024  -0.092
 2110TIP3    H1 6207   3.786   5.989  -0.111
 2110TIP3    H2 6208   3.930   5.948  -0.115
 2111TIP3   OH2 6209   4.088   6.307   0.779
 2111TIP3    H1 6210   4.055   6.238   0.839
 2111TIP3    H2 6211   4.183   6.309   0.806
 2112TIP3   OH2 6212   4.338   6.308   0.897
 2112TIP3    H1 6213   4.418   6.287   0.845
 2112TIP3    H2 6214   4.336   6.233   0.960
 2113TIP3   OH2 6215   5.167   6.340   0.685
 2113TIP3    H1 6216   5.181   6.331   0.782
 2113TIP3    H2 6217   5.258   6.358   0.653
 2114TIP3   OH2 6218   6.135   6.580   0.417
 2114TIP3    H1 6219   6.191   6.553   0.343
 2114TIP3    H2 6220   6.102   6.495   0.452
 2115TIP3   OH2 6221   1.724   7.824   1.207
 2115TIP3    H1 6222   1.771   7.739   1.191
 2115TIP3    H2 6223   1.672   7.830   1.126
 2116TIP3   OH2 6224   3.218   8.344   0.247
 2116TIP3    H1 6225   3.260   8.408   0.186
 2116TIP3    H2 6226   3.281   8.350   0.320
 2117TIP3   OH2 6227   3.042   8.053   0.234
 2117TIP3    H1 6228   2.960   8.100   0.255
 2117TIP3    H2 6229   3.029   8.037   0.138
 2118TIP3   OH2 6230   3.086   8.527   0.556
 2118TIP3    H1 6231   3.052   8.533   0.464
 2118TIP3    H2 6232   3.097   8.431   0.566
 2119TIP3   OH2 6233   2.615   7.875   0.521
 2119TIP3    H1 6234   2.683   7.843   0.583
 2119TIP3    H2 6235   2.532   7.853   0.567
 2120TIP3   OH2 6236   2.854   8.330   0.433
 2120TIP3    H1 6237   2.817   8.299   0.519
 2120TIP3    H2 6238   2.776   8.377   0.401
 2121TIP3   OH2 6239   2.599   8.562   0.748
 2121TIP3    H1 6240   2.554   8.475   0.753
 2121TIP3    H2 6241   2.693   8.536   0.738
 2122TIP3   OH2 6242   2.658   8.108   0.363
 2122TIP3    H1 6243   2.698   8.138   0.446
 2122TIP3    H2 6244   2.618   8.024   0.393
 2123TIP3   OH2 6245   3.105   8.240   0.479
 2123TIP3    H1 6246   3.009   8.255   0.471
 2123TIP3    H2 6247   3.129   8.237   0.385
 2124TIP3   OH2 6248   2.881   8.549   0.766
 2124TIP3    H1 6249   2.894   8.460   0.801
 2124TIP3    H2 6250   2.963   8.561   0.714
 2125TIP3   OH2 6251   2.342   7.816   0.587
 2125TIP3    H1 6252   2.305   7.881   0.527
 2125TIP3    H2 6253   2.278   7.742   0.575
 2126TIP3   OH2 6254   2.487   8.308   0.801
 2126TIP3    H1 6255   2.487   8.305   0.899
 2126TIP3    H2 6256   2.394   8.290   0.785
 2127TIP3   OH2 6257   2.723   8.256   0.653
 2127TIP3    H1 6258   2.640   8.261   0.706
 2127TIP3    H2 6259   2.788   8.226   0.720
 2128TIP3   OH2 6260   2.944   8.198   0.813
 2128TIP3    H1 6261   2.956   8.102   0.829
 2128TIP3    H2 6262   2.941   8.235   0.903
 2129TIP3   OH2 6263   2.036   8.197   0.991
 2129TIP3    H1 6264   1.982   8.141   0.933
 2129TIP3    H2 6265   2.013   8.159   1.078
 2130TIP3   OH2 6266   2.444   7.815   0.843
 2130TIP3    H1 6267   2.509   7.742   0.837
 2130TIP3    H2 6268   2.401   7.809   0.755
 2131TIP3   OH2 6269   2.507   8.028   1.004
 2131TIP3    H1 6270   2.487   7.956   0.940
 2131TIP3    H2 6271   2.428   8.086   0.994
 2132TIP3   OH2 6272   3.285   8.673   0.429
 2132TIP3    H1 6273   3.213   8.622   0.471
 2132TIP3    H2 6274   3.361   8.612   0.445
 2133TIP3   OH2 6275   3.033   8.581   0.295
 2133TIP3    H1 6276   2.979   8.520   0.243
 2133TIP3    H2 6277   3.090   8.621   0.227
 2134TIP3   OH2 6278   3.493   8.058   0.721
 2134TIP3    H1 6279   3.555   7.992   0.682
 2134TIP3    H2 6280   3.475   8.116   0.644
 2135TIP3   OH2 6281   3.369   8.206   0.525
 2135TIP3    H1 6282   3.277   8.229   0.546
 2135TIP3    H2 6283   3.354   8.124   0.474
 2136TIP3   OH2 6284   3.275   7.966   0.409
 2136TIP3    H1 6285   3.185   7.973   0.373
 2136TIP3    H2 6286   3.296   7.871   0.398
 2137TIP3   OH2 6287   1.986   7.757   0.910
 2137TIP3    H1 6288   1.938   7.720   0.986
 2137TIP3    H2 6289   2.050   7.816   0.953
 2138TIP3   OH2 6290   2.185   7.877   1.067
 2138TIP3    H1 6291   2.266   7.847   1.023
 2138TIP3    H2 6292   2.169   7.803   1.130
 2139TIP3   OH2 6293   3.003   7.927   0.840
 2139TIP3    H1 6294   3.022   7.894   0.930
 2139TIP3    H2 6295   3.091   7.922   0.798
 2140TIP3   OH2 6296   3.564   8.801   0.424
 2140TIP3    H1 6297   3.615   8.730   0.468
 2140TIP3    H2 6298   3.565   8.872   0.492
 2141TIP3   OH2 6299   3.843   8.638   0.392
 2141TIP3    H1 6300   3.799   8.556   0.424
 2141TIP3    H2 6301   3.923   8.601   0.352
 2142TIP3   OH2 6302   3.728   8.407   0.488
 2142TIP3    H1 6303   3.731   8.326   0.434
 2142TIP3    H2 6304   3.762   8.374   0.574
 2143TIP3   OH2 6305   4.261   8.248   0.472
 2143TIP3    H1 6306   4.229   8.240   0.381
 2143TIP3    H2 6307   4.255   8.344   0.485
 2144TIP3   OH2 6308   3.456   8.461   0.460
 2144TIP3    H1 6309   3.553   8.452   0.449
 2144TIP3    H2 6310   3.435   8.373   0.496
 2145TIP3   OH2 6311   3.408   8.005   0.161
 2145TIP3    H1 6312   3.375   7.986   0.251
 2145TIP3    H2 6313   3.351   8.077   0.133
 2146TIP3   OH2 6314   3.719   8.114   0.428
 2146TIP3    H1 6315   3.698   8.040   0.486
 2146TIP3    H2 6316   3.815   8.125   0.447
 2147TIP3   OH2 6317   3.967   8.130   0.549
 2147TIP3    H1 6318   4.050   8.122   0.498
 2147TIP3    H2 6319   3.969   8.050   0.604
 2148TIP3   OH2 6320   1.639  -0.096   4.789
 2148TIP3    H1 6321   1.570  -0.158   4.765
 2148TIP3    H2 6322   1.608  -0.013   4.746
 2149TIP3   OH2 6323   1.857   0.258   4.850
 2149TIP3    H1 6324   1.855   0.161   4.864
 2149TIP3    H2 6325   1.774   0.284   4.895
 2150TIP3   OH2 6326   1.542   0.605   4.947
 2150TIP3    H1 6327   1.540   0.630   4.853
 2150TIP3    H2 6328   1.619   0.655   4.979
 2151TIP3   OH2 6329   1.878  -0.030   4.893
 2151TIP3    H1 6330   1.780  -0.038   4.887
 2151TIP3    H2 6331   1.901  -0.062   4.803
 2152TIP3   OH2 6332   1.386   0.293   4.782
 2152TIP3    H1 6333   1.301   0.250   4.797
 2152TIP3    H2 6334   1.364   0.362   4.715
 2153TIP3   OH2 6335   1.363   0.146   5.105
 2153TIP3    H1 6336   1.272   0.141   5.138
 2153TIP3    H2 6337   1.399   0.217   5.159
 2154TIP3   OH2 6338   1.643   0.360   4.330
 2154TIP3    H1 6339   1.670   0.397   4.415
 2154TIP3    H2 6340   1.708   0.395   4.269
 2155TIP3   OH2 6341   1.682   0.383   4.619
 2155TIP3    H1 6342   1.644   0.293   4.610
 2155TIP3    H2 6343   1.759   0.363   4.674
 2156TIP3   OH2 6344   1.744   0.052   5.184
 2156TIP3    H1 6345   1.667   0.056   5.243
 2156TIP3    H2 6346   1.776   0.144   5.189
 2157TIP3   OH2 6347   1.554   0.127   4.649
 2157TIP3    H1 6348   1.495   0.184   4.703
 2157TIP3    H2 6349   1.498   0.104   4.574
 2158TIP3   OH2 6350   1.783  -0.278   5.019
 2158TIP3    H1 6351   1.847  -0.350   5.006
 2158TIP3    H2 6352   1.804  -0.214   4.949
 2159TIP3   OH2 6353   1.950  -0.496   5.033
 2159TIP3    H1 6354   1.890  -0.562   5.072
 2159TIP3    H2 6355   2.037  -0.527   5.060
 2160TIP3   OH2 6356   1.140   0.469   4.908
 2160TIP3    H1 6357   1.208   0.401   4.907
 2160TIP3    H2 6358   1.175   0.526   4.979
 2161TIP3   OH2 6359   1.347   0.462   4.569
 2161TIP3    H1 6360   1.315   0.550   4.540
 2161TIP3    H2 6361   1.366   0.421   4.484
 2162TIP3   OH2 6362   1.613   0.338   4.953
 2162TIP3    H1 6363   1.534   0.300   4.912
 2162TIP3    H2 6364   1.589   0.433   4.953
 2163TIP3   OH2 6365   2.820  -0.281   3.752
 2163TIP3    H1 6366   2.889  -0.213   3.739
 2163TIP3    H2 6367   2.861  -0.356   3.703
 2164TIP3   OH2 6368   2.862  -0.296   4.101
 2164TIP3    H1 6369   2.907  -0.310   4.186
 2164TIP3    H2 6370   2.827  -0.387   4.085
 2165TIP3   OH2 6371   2.169  -0.404   4.449
 2165TIP3    H1 6372   2.205  -0.460   4.520
 2165TIP3    H2 6373   2.243  -0.345   4.432
 2166TIP3   OH2 6374   3.108  -0.003   3.790
 2166TIP3    H1 6375   3.119  -0.059   3.868
 2166TIP3    H2 6376   3.138   0.083   3.824
 2167TIP3   OH2 6377   2.174   0.018   4.233
 2167TIP3    H1 6378   2.127  -0.042   4.172
 2167TIP3    H2 6379   2.264   0.020   4.197
 2168TIP3   OH2 6380   2.760   0.476   3.796
 2168TIP3    H1 6381   2.809   0.407   3.747
 2168TIP3    H2 6382   2.758   0.439   3.885
 2169TIP3   OH2 6383   2.677  -0.072   4.137
 2169TIP3    H1 6384   2.725  -0.152   4.110
 2169TIP3    H2 6385   2.755  -0.018   4.162
 2170TIP3   OH2 6386   3.089  -0.555   4.177
 2170TIP3    H1 6387   3.118  -0.639   4.216
 2170TIP3    H2 6388   3.054  -0.584   4.091
 2171TIP3   OH2 6389   3.737  -0.556   4.329
 2171TIP3    H1 6390   3.668  -0.489   4.310
 2171TIP3    H2 6391   3.774  -0.527   4.414
 2172TIP3   OH2 6392   2.682  -0.059   3.632
 2172TIP3    H1 6393   2.740  -0.071   3.552
 2172TIP3    H2 6394   2.668   0.041   3.628
 2173TIP3   OH2 6395   2.527  -0.151   4.379
 2173TIP3    H1 6396   2.463  -0.088   4.420
 2173TIP3    H2 6397   2.568  -0.095   4.311
 2174TIP3   OH2 6398   2.358   0.044   4.478
 2174TIP3    H1 6399   2.328   0.121   4.425
 2174TIP3    H2 6400   2.277   0.030   4.530
 2175TIP3   OH2 6401   3.187   0.253   3.945
 2175TIP3    H1 6402   3.097   0.246   3.985
 2175TIP3    H2 6403   3.180   0.340   3.900
 2176TIP3   OH2 6404   2.887   0.304   3.627
 2176TIP3    H1 6405   2.930   0.219   3.602
 2176TIP3    H2 6406   2.949   0.367   3.583
 2177TIP3   OH2 6407   3.004   0.075   3.541
 2177TIP3    H1 6408   3.035   0.011   3.473
 2177TIP3    H2 6409   3.052   0.043   3.620
 2178TIP3   OH2 6410   3.415   0.167   4.291
 2178TIP3    H1 6411   3.403   0.090   4.231
 2178TIP3    H2 6412   3.396   0.242   4.231
 2179TIP3   OH2 6413   3.608  -0.197   4.138
 2179TIP3    H1 6414   3.524  -0.146   4.141
 2179TIP3    H2 6415   3.637  -0.177   4.047
 2180TIP3   OH2 6416   3.059  -0.321   3.588
 2180TIP3    H1 6417   3.114  -0.292   3.663
 2180TIP3    H2 6418   3.127  -0.368   3.536
 2181TIP3   OH2 6419   3.284  -0.312   4.425
 2181TIP3    H1 6420   3.284  -0.230   4.478
 2181TIP3    H2 6421   3.201  -0.301   4.374
 2182TIP3   OH2 6422   2.414   0.047   4.087
 2182TIP3    H1 6423   2.399  -0.001   4.005
 2182TIP3    H2 6424   2.506   0.021   4.108
 2183TIP3   OH2 6425   2.427  -0.395   4.293
 2183TIP3    H1 6426   2.460  -0.412   4.203
 2183TIP3    H2 6427   2.465  -0.308   4.314
 2184TIP3   OH2 6428   2.946   0.250   4.067
 2184TIP3    H1 6429   2.931   0.331   4.118
 2184TIP3    H2 6430   2.931   0.179   4.133
 2185TIP3   OH2 6431   2.558   0.175   4.612
 2185TIP3    H1 6432   2.495   0.235   4.657
 2185TIP3    H2 6433   2.495   0.118   4.564
 2186TIP3   OH2 6434   2.293  -0.276   4.713
 2186TIP3    H1 6435   2.300  -0.190   4.759
 2186TIP3    H2 6436   2.197  -0.292   4.716
 2187TIP3   OH2 6437   2.628   0.204   3.628
 2187TIP3    H1 6438   2.711   0.254   3.637
 2187TIP3    H2 6439   2.571   0.266   3.578
 2188TIP3   OH2 6440   2.352   0.344   4.702
 2188TIP3    H1 6441   2.320   0.340   4.610
 2188TIP3    H2 6442   2.272   0.316   4.752
 2189TIP3   OH2 6443   3.220   0.119   2.947
 2189TIP3    H1 6444   3.235   0.214   2.959
 2189TIP3    H2 6445   3.310   0.081   2.945
 2190TIP3   OH2 6446   1.940  -0.132   4.649
 2190TIP3    H1 6447   1.890  -0.150   4.568
 2190TIP3    H2 6448   1.966  -0.222   4.679
 2191TIP3   OH2 6449   7.462   5.697   9.964
 2191TIP3    H1 6450   7.543   5.731   9.925
 2191TIP3    H2 6451   7.415   5.778   9.985
 2192TIP3   OH2 6452   3.653   0.514   4.337
 2192TIP3    H1 6453   3.650   0.417   4.348
 2192TIP3    H2 6454   3.569   0.539   4.381
 2193TIP3   OH2 6455   2.758   0.298   4.470
 2193TIP3    H1 6456   2.754   0.391   4.500
 2193TIP3    H2 6457   2.686   0.258   4.523
 2194TIP3   OH2 6458   2.511   0.426   3.426
 2194TIP3    H1 6459   2.446   0.412   3.356
 2194TIP3    H2 6460   2.494   0.518   3.452
 2195TIP3   OH2 6461   2.771   0.393   3.343
 2195TIP3    H1 6462   2.678   0.393   3.373
 2195TIP3    H2 6463   2.812   0.330   3.403
 2196TIP3   OH2 6464   3.548  -0.357   4.601
 2196TIP3    H1 6465   3.460  -0.330   4.571
 2196TIP3    H2 6466   3.538  -0.451   4.616
 2197TIP3   OH2 6467   2.136   0.056   4.637
 2197TIP3    H1 6468   2.185   0.033   4.719
 2197TIP3    H2 6469   2.062  -0.008   4.641
 2198TIP3   OH2 6470   3.203  -0.490   4.622
 2198TIP3    H1 6471   3.257  -0.571   4.621
 2198TIP3    H2 6472   3.233  -0.442   4.543
 2199TIP3   OH2 6473   2.483  -0.614   4.453
 2199TIP3    H1 6474   2.410  -0.600   4.517
 2199TIP3    H2 6475   2.459  -0.546   4.386
 2200TIP3   OH2 6476   3.014  -0.304   4.718
 2200TIP3    H1 6477   2.998  -0.353   4.803
 2200TIP3    H2 6478   3.108  -0.327   4.705
 2201TIP3   OH2 6479   3.006  -0.622   3.916
 2201TIP3    H1 6480   2.971  -0.576   3.838
 2201TIP3    H2 6481   3.065  -0.687   3.874
 2202TIP3   OH2 6482   2.289  -0.573   4.645
 2202TIP3    H1 6483   2.306  -0.509   4.716
 2202TIP3    H2 6484   2.256  -0.651   4.692
 2203TIP3   OH2 6485   3.008  -0.353   4.338
 2203TIP3    H1 6486   3.039  -0.430   4.284
 2203TIP3    H2 6487   2.982  -0.397   4.421
 2204TIP3   OH2 6488   3.336   0.861   4.433
 2204TIP3    H1 6489   3.334   0.887   4.339
 2204TIP3    H2 6490   3.419   0.906   4.463
 2205TIP3   OH2 6491   2.294  -0.036   4.849
 2205TIP3    H1 6492   2.378  -0.005   4.886
 2205TIP3    H2 6493   2.234  -0.029   4.926
 2206TIP3   OH2 6494   2.784  -0.566   4.118
 2206TIP3    H1 6495   2.842  -0.626   4.071
 2206TIP3    H2 6496   2.768  -0.614   4.201
 2207TIP3   OH2 6497   2.745  -0.683   4.408
 2207TIP3    H1 6498   2.655  -0.648   4.422
 2207TIP3    H2 6499   2.799  -0.626   4.468
 2208TIP3   OH2 6500   3.377  -0.050   4.126
 2208TIP3    H1 6501   3.404  -0.000   4.046
 2208TIP3    H2 6502   3.292  -0.090   4.099
 2209TIP3   OH2 6503   2.877   0.034   4.492
 2209TIP3    H1 6504   2.894   0.005   4.582
 2209TIP3    H2 6505   2.836   0.121   4.504
 2210TIP3   OH2 6506   2.034  -0.348   4.794
 2210TIP3    H1 6507   2.077  -0.344   4.882
 2210TIP3    H2 6508   1.981  -0.428   4.803
 2211TIP3   OH2 6509   2.768  -0.219   4.807
 2211TIP3    H1 6510   2.698  -0.272   4.763
 2211TIP3    H2 6511   2.847  -0.245   4.755
 2212TIP3   OH2 6512   3.037   0.289   4.392
 2212TIP3    H1 6513   2.940   0.288   4.402
 2212TIP3    H2 6514   3.062   0.345   4.468
 2213TIP3   OH2 6515   3.665   0.221   4.379
 2213TIP3    H1 6516   3.567   0.216   4.370
 2213TIP3    H2 6517   3.690   0.191   4.288
 2214TIP3   OH2 6518   3.144   0.176   3.205
 2214TIP3    H1 6519   3.130   0.100   3.263
 2214TIP3    H2 6520   3.146   0.133   3.117
 2215TIP3   OH2 6521   3.141  -0.186   4.039
 2215TIP3    H1 6522   3.050  -0.215   4.059
 2215TIP3    H2 6523   3.178  -0.268   4.001
 2216TIP3   OH2 6524   2.539   0.383   4.266
 2216TIP3    H1 6525   2.577   0.456   4.214
 2216TIP3    H2 6526   2.617   0.351   4.314
 2217TIP3   OH2 6527   2.926   0.015   4.225
 2217TIP3    H1 6528   2.916   0.016   4.323
 2217TIP3    H2 6529   3.011  -0.029   4.215
 2218TIP3   OH2 6530   3.175   0.552   4.275
 2218TIP3    H1 6531   3.094   0.498   4.264
 2218TIP3    H2 6532   3.162   0.618   4.203
 2219TIP3   OH2 6533   3.244   0.392   2.927
 2219TIP3    H1 6534   3.287   0.473   2.893
 2219TIP3    H2 6535   3.161   0.432   2.959
 2220TIP3   OH2 6536   3.080  -0.125   3.376
 2220TIP3    H1 6537   3.100  -0.215   3.408
 2220TIP3    H2 6538   3.149  -0.122   3.306
 2221TIP3   OH2 6539   1.978   0.255   4.429
 2221TIP3    H1 6540   2.024   0.172   4.449
 2221TIP3    H2 6541   2.015   0.315   4.495
 2222TIP3   OH2 6542   2.924  -0.539   4.574
 2222TIP3    H1 6543   2.935  -0.459   4.629
 2222TIP3    H2 6544   3.014  -0.574   4.576
 2223TIP3   OH2 6545   3.221  -0.427   3.920
 2223TIP3    H1 6546   3.159  -0.497   3.945
 2223TIP3    H2 6547   3.304  -0.461   3.962
 2224TIP3   OH2 6548   3.196   0.524   3.868
 2224TIP3    H1 6549   3.152   0.571   3.794
 2224TIP3    H2 6550   3.290   0.543   3.846
 2225TIP3   OH2 6551   1.967   0.554   4.846
 2225TIP3    H1 6552   2.052   0.552   4.894
 2225TIP3    H2 6553   1.942   0.460   4.846
 2226TIP3   OH2 6554   2.466   0.504   4.908
 2226TIP3    H1 6555   2.534   0.557   4.866
 2226TIP3    H2 6556   2.430   0.452   4.833
 2227TIP3   OH2 6557   3.082   0.430   4.630
 2227TIP3    H1 6558   3.078   0.356   4.696
 2227TIP3    H2 6559   3.165   0.476   4.655
 2228TIP3   OH2 6560   2.105  -0.037   5.047
 2228TIP3    H1 6561   2.110  -0.132   5.066
 2228TIP3    H2 6562   2.016  -0.031   5.004
 2229TIP3   OH2 6563   2.705   0.047   4.832
 2229TIP3    H1 6564   2.663   0.062   4.747
 2229TIP3    H2 6565   2.732  -0.047   4.829
 2230TIP3   OH2 6566   3.197   0.052   4.424
 2230TIP3    H1 6567   3.271   0.099   4.381
 2230TIP3    H2 6568   3.126   0.119   4.415
 2231TIP3   OH2 6569   2.208  -0.320   5.029
 2231TIP3    H1 6570   2.291  -0.367   5.007
 2231TIP3    H2 6571   2.232  -0.283   5.117
 2232TIP3   OH2 6572   2.555  -0.356   4.688
 2232TIP3    H1 6573   2.462  -0.320   4.690
 2232TIP3    H2 6574   2.574  -0.359   4.593
 2233TIP3   OH2 6575   3.075  -0.009   4.833
 2233TIP3    H1 6576   3.148  -0.042   4.780
 2233TIP3    H2 6577   3.066  -0.080   4.899
 2234TIP3   OH2 6578   2.646  -0.578   4.813
 2234TIP3    H1 6579   2.674  -0.640   4.742
 2234TIP3    H2 6580   2.631  -0.495   4.761
 2235TIP3   OH2 6581   2.735  -0.309   4.469
 2235TIP3    H1 6582   2.809  -0.289   4.410
 2235TIP3    H2 6583   2.670  -0.241   4.445
 2236TIP3   OH2 6584   3.329  -0.095   4.608
 2236TIP3    H1 6585   3.270  -0.039   4.553
 2236TIP3    H2 6586   3.417  -0.070   4.572
 2237TIP3   OH2 6587   2.525  -0.500   5.048
 2237TIP3    H1 6588   2.462  -0.574   5.046
 2237TIP3    H2 6589   2.578  -0.521   4.968
 2238TIP3   OH2 6590   2.969  -0.469   4.921
 2238TIP3    H1 6591   2.936  -0.488   5.010
 2238TIP3    H2 6592   3.006  -0.555   4.893
 2239TIP3   OH2 6593   3.449   0.614   3.825
 2239TIP3    H1 6594   3.474   0.654   3.910
 2239TIP3    H2 6595   3.504   0.662   3.762
 2240TIP3   OH2 6596   3.475   0.638   4.107
 2240TIP3    H1 6597   3.434   0.549   4.100
 2240TIP3    H2 6598   3.553   0.616   4.161
 2241TIP3   OH2 6599   3.526   0.313   4.681
 2241TIP3    H1 6600   3.451   0.320   4.744
 2241TIP3    H2 6601   3.563   0.403   4.684
 2242TIP3   OH2 6602   3.351  -0.146   3.313
 2242TIP3    H1 6603   3.430  -0.099   3.281
 2242TIP3    H2 6604   3.390  -0.211   3.375
 2243TIP3   OH2 6605   3.475  -0.310   3.499
 2243TIP3    H1 6606   3.405  -0.353   3.552
 2243TIP3    H2 6607   3.530  -0.267   3.567
 2244TIP3   OH2 6608   3.521   0.085   3.936
 2244TIP3    H1 6609   3.574   0.021   3.885
 2244TIP3    H2 6610   3.517   0.161   3.875
 2245TIP3   OH2 6611   3.353   0.385   4.132
 2245TIP3    H1 6612   3.282   0.430   4.180
 2245TIP3    H2 6613   3.304   0.339   4.060
 2246TIP3   OH2 6614   3.300  -0.450   3.657
 2246TIP3    H1 6615   3.288  -0.545   3.641
 2246TIP3    H2 6616   3.280  -0.443   3.752
 2247TIP3   OH2 6617   3.575  -0.026   4.507
 2247TIP3    H1 6618   3.646  -0.093   4.493
 2247TIP3    H2 6619   3.597   0.043   4.443
 2248TIP3   OH2 6620   3.764  -0.224   4.515
 2248TIP3    H1 6621   3.689  -0.274   4.556
 2248TIP3    H2 6622   3.839  -0.269   4.555
 2249TIP3   OH2 6623   3.443  -0.518   4.040
 2249TIP3    H1 6624   3.533  -0.514   4.001
 2249TIP3    H2 6625   3.464  -0.508   4.134
 2250TIP3   OH2 6626   3.507  -0.410   4.288
 2250TIP3    H1 6627   3.426  -0.367   4.323
 2250TIP3    H2 6628   3.544  -0.338   4.232
 2251TIP3   OH2 6629   3.043   0.475   3.489
 2251TIP3    H1 6630   3.084   0.465   3.401
 2251TIP3    H2 6631   3.089   0.553   3.523
 2252TIP3   OH2 6632   2.135   0.280   4.875
 2252TIP3    H1 6633   2.046   0.257   4.844
 2252TIP3    H2 6634   2.123   0.272   4.971
 2253TIP3   OH2 6635   2.313   0.322   4.420
 2253TIP3    H1 6636   2.260   0.393   4.377
 2253TIP3    H2 6637   2.397   0.337   4.372
 2254TIP3   OH2 6638   2.755   0.564   4.551
 2254TIP3    H1 6639   2.799   0.566   4.638
 2254TIP3    H2 6640   2.820   0.614   4.497
 2255TIP3   OH2 6641   2.936   0.714   4.413
 2255TIP3    H1 6642   3.007   0.668   4.366
 2255TIP3    H2 6643   2.988   0.773   4.471
 2256TIP3   OH2 6644   1.991   0.580   4.439
 2256TIP3    H1 6645   1.902   0.611   4.412
 2256TIP3    H2 6646   1.993   0.614   4.529
 2257TIP3   OH2 6647   2.226   0.556   4.296
 2257TIP3    H1 6648   2.139   0.568   4.341
 2257TIP3    H2 6649   2.205   0.589   4.206
 2258TIP3   OH2 6650   2.650   0.584   4.095
 2258TIP3    H1 6651   2.582   0.602   4.027
 2258TIP3    H2 6652   2.662   0.673   4.134
 2259TIP3   OH2 6653   2.918   0.523   4.146
 2259TIP3    H1 6654   2.824   0.541   4.126
 2259TIP3    H2 6655   2.962   0.598   4.101
 2260TIP3   OH2 6656   3.126   0.715   4.061
 2260TIP3    H1 6657   3.111   0.801   4.014
 2260TIP3    H2 6658   3.151   0.657   3.986
 2261TIP3   OH2 6659   1.910   0.378   4.192
 2261TIP3    H1 6660   1.922   0.350   4.286
 2261TIP3    H2 6661   1.989   0.334   4.155
 2262TIP3   OH2 6662   2.108   0.246   4.067
 2262TIP3    H1 6663   2.130   0.157   4.098
 2262TIP3    H2 6664   2.196   0.282   4.045
 2263TIP3   OH2 6665   2.370   0.344   4.038
 2263TIP3    H1 6666   2.403   0.254   4.023
 2263TIP3    H2 6667   2.408   0.363   4.126
 2264TIP3   OH2 6668   3.177   0.446   3.248
 2264TIP3    H1 6669   3.167   0.348   3.236
 2264TIP3    H2 6670   3.130   0.480   3.169
 2265TIP3   OH2 6671   3.405   0.594   4.437
 2265TIP3    H1 6672   3.327   0.563   4.387
 2265TIP3    H2 6673   3.387   0.691   4.439
 2266TIP3   OH2 6674   4.669  -0.032   3.204
 2266TIP3    H1 6675   4.641   0.058   3.180
 2266TIP3    H2 6676   4.594  -0.083   3.168
 2267TIP3   OH2 6677   4.669  -0.032   3.583
 2267TIP3    H1 6678   4.701  -0.070   3.666
 2267TIP3    H2 6679   4.626  -0.109   3.542
 2268TIP3   OH2 6680   3.968  -0.134   3.949
 2268TIP3    H1 6681   4.008  -0.199   4.010
 2268TIP3    H2 6682   4.047  -0.083   3.924
 2269TIP3   OH2 6683   4.913   0.267   3.264
 2269TIP3    H1 6684   4.897   0.197   3.329
 2269TIP3    H2 6685   4.941   0.342   3.319
 2270TIP3   OH2 6686   3.943   0.271   3.680
 2270TIP3    H1 6687   3.934   0.173   3.680
 2270TIP3    H2 6688   4.039   0.279   3.664
 2271TIP3   OH2 6689   3.639  -0.534   3.463
 2271TIP3    H1 6690   3.597  -0.447   3.476
 2271TIP3    H2 6691   3.563  -0.584   3.429
 2272TIP3   OH2 6692   3.713  -0.238   3.635
 2272TIP3    H1 6693   3.762  -0.316   3.669
 2272TIP3    H2 6694   3.764  -0.215   3.557
 2273TIP3   OH2 6695   4.561   0.730   3.281
 2273TIP3    H1 6696   4.607   0.660   3.229
 2273TIP3    H2 6697   4.555   0.688   3.368
 2274TIP3   OH2 6698   4.467   0.190   3.636
 2274TIP3    H1 6699   4.501   0.115   3.585
 2274TIP3    H2 6700   4.552   0.235   3.656
 2275TIP3   OH2 6701   4.881  -0.300   3.666
 2275TIP3    H1 6702   4.917  -0.386   3.688
 2275TIP3    H2 6703   4.850  -0.314   3.574
 2276TIP3   OH2 6704   3.855  -0.450   3.739
 2276TIP3    H1 6705   3.934  -0.476   3.790
 2276TIP3    H2 6706   3.870  -0.503   3.658
 2277TIP3   OH2 6707   4.292  -0.246   3.539
 2277TIP3    H1 6708   4.384  -0.279   3.548
 2277TIP3    H2 6709   4.247  -0.327   3.505
 2278TIP3   OH2 6710   5.526  -0.307   3.822
 2278TIP3    H1 6711   5.466  -0.235   3.795
 2278TIP3    H2 6712   5.578  -0.268   3.894
 2279TIP3   OH2 6713   4.567   0.189   3.071
 2279TIP3    H1 6714   4.525   0.167   2.985
 2279TIP3    H2 6715   4.517   0.270   3.095
 2280TIP3   OH2 6716   4.327   0.109   3.867
 2280TIP3    H1 6717   4.262   0.174   3.900
 2280TIP3    H2 6718   4.365   0.156   3.790
 2281TIP3   OH2 6719   4.096  -0.542   3.839
 2281TIP3    H1 6720   4.163  -0.473   3.854
 2281TIP3    H2 6721   4.128  -0.584   3.757
 2282TIP3   OH2 6722   4.151   0.303   3.960
 2282TIP3    H1 6723   4.124   0.385   3.914
 2282TIP3    H2 6724   4.070   0.288   4.013
 2283TIP3   OH2 6725   3.554   0.000   3.197
 2283TIP3    H1 6726   3.506   0.020   3.113
 2283TIP3    H2 6727   3.574   0.089   3.231
 2284TIP3   OH2 6728   4.985   0.511   3.436
 2284TIP3    H1 6729   4.894   0.503   3.473
 2284TIP3    H2 6730   4.977   0.595   3.387
 2285TIP3   OH2 6731   4.686   0.555   3.110
 2285TIP3    H1 6732   4.736   0.474   3.086
 2285TIP3    H2 6733   4.747   0.622   3.070
 2286TIP3   OH2 6734   4.828   0.340   3.011
 2286TIP3    H1 6735   4.778   0.265   2.979
 2286TIP3    H2 6736   4.865   0.305   3.096
 2287TIP3   OH2 6737   5.209   0.423   3.777
 2287TIP3    H1 6738   5.199   0.347   3.717
 2287TIP3    H2 6739   5.192   0.498   3.716
 2288TIP3   OH2 6740   4.502  -0.180   3.035
 2288TIP3    H1 6741   4.420  -0.131   3.015
 2288TIP3    H2 6742   4.542  -0.186   2.946
 2289TIP3   OH2 6743   4.457  -0.380   2.766
 2289TIP3    H1 6744   4.540  -0.349   2.806
 2289TIP3    H2 6745   4.487  -0.459   2.718
 2290TIP3   OH2 6746   5.403   0.058   3.624
 2290TIP3    H1 6747   5.320   0.110   3.627
 2290TIP3    H2 6748   5.433   0.079   3.533
 2291TIP3   OH2 6749   4.849  -0.099   3.007
 2291TIP3    H1 6750   4.793  -0.074   3.085
 2291TIP3    H2 6751   4.931  -0.127   3.052
 2292TIP3   OH2 6752   5.079  -0.055   3.912
 2292TIP3    H1 6753   5.076   0.030   3.960
 2292TIP3    H2 6754   4.995  -0.049   3.862
 2293TIP3   OH2 6755   4.082  -0.100   3.425
 2293TIP3    H1 6756   4.037  -0.159   3.359
 2293TIP3    H2 6757   4.156  -0.157   3.452
 2294TIP3   OH2 6758   4.208   0.306   3.573
 2294TIP3    H1 6759   4.186   0.269   3.486
 2294TIP3    H2 6760   4.298   0.272   3.588
 2295TIP3   OH2 6761   4.218  -0.134   3.783
 2295TIP3    H1 6762   4.246  -0.160   3.692
 2295TIP3    H2 6763   4.263  -0.048   3.795
 2296TIP3   OH2 6764   4.742   0.509   3.554
 2296TIP3    H1 6765   4.728   0.587   3.610
 2296TIP3    H2 6766   4.728   0.434   3.616
 2297TIP3   OH2 6767   4.352   0.431   4.100
 2297TIP3    H1 6768   4.286   0.491   4.140
 2297TIP3    H2 6769   4.293   0.372   4.049
 2298TIP3   OH2 6770   4.699  -0.254   2.836
 2298TIP3    H1 6771   4.753  -0.191   2.889
 2298TIP3    H2 6772   4.723  -0.227   2.744
 2299TIP3   OH2 6773   4.094  -0.015   4.202
 2299TIP3    H1 6774   4.097   0.070   4.250
 2299TIP3    H2 6775   3.999  -0.037   4.211
 2300TIP3   OH2 6776   4.429   0.441   3.115
 2300TIP3    H1 6777   4.510   0.494   3.125
 2300TIP3    H2 6778   4.371   0.498   3.063
 2301TIP3   OH2 6779   4.147   0.602   4.190
 2301TIP3    H1 6780   4.117   0.599   4.097
 2301TIP3    H2 6781   4.067   0.573   4.238
 2302TIP3   OH2 6782   3.948  -0.253   3.238
 2302TIP3    H1 6783   3.888  -0.204   3.177
 2302TIP3    H2 6784   3.917  -0.344   3.231
 2303TIP3   OH2 6785   5.009   0.358   2.408
 2303TIP3    H1 6786   5.004   0.456   2.405
 2303TIP3    H2 6787   5.104   0.343   2.417
 2304TIP3   OH2 6788   3.727   0.126   4.133
 2304TIP3    H1 6789   3.663   0.106   4.062
 2304TIP3    H2 6790   3.762   0.038   4.156
 2305TIP3   OH2 6791   3.581   0.314   3.774
 2305TIP3    H1 6792   3.676   0.312   3.757
 2305TIP3    H2 6793   3.571   0.399   3.820
 2306TIP3   OH2 6794   5.446   0.768   3.823
 2306TIP3    H1 6795   5.445   0.672   3.834
 2306TIP3    H2 6796   5.363   0.793   3.868
 2307TIP3   OH2 6797   4.555   0.553   3.959
 2307TIP3    H1 6798   4.551   0.647   3.987
 2307TIP3    H2 6799   4.481   0.515   4.010
 2308TIP3   OH2 6800   4.312   0.681   2.911
 2308TIP3    H1 6801   4.269   0.665   2.825
 2308TIP3    H2 6802   4.285   0.772   2.932
 2309TIP3   OH2 6803   3.750   0.534   3.293
 2309TIP3    H1 6804   3.798   0.524   3.378
 2309TIP3    H2 6805   3.694   0.454   3.294
 2310TIP3   OH2 6806   4.512   0.586   2.549
 2310TIP3    H1 6807   4.579   0.523   2.513
 2310TIP3    H2 6808   4.545   0.598   2.640
 2311TIP3   OH2 6809   4.563   0.628   2.820
 2311TIP3    H1 6810   4.474   0.639   2.862
 2311TIP3    H2 6811   4.614   0.591   2.894
 2312TIP3   OH2 6812   5.338  -0.106   4.111
 2312TIP3    H1 6813   5.266  -0.072   4.056
 2312TIP3    H2 6814   5.357  -0.192   4.070
 2313TIP3   OH2 6815   3.930   0.311   4.124
 2313TIP3    H1 6816   3.981   0.287   4.204
 2313TIP3    H2 6817   3.857   0.246   4.127
 2314TIP3   OH2 6818   5.011  -0.238   4.115
 2314TIP3    H1 6819   5.049  -0.323   4.090
 2314TIP3    H2 6820   5.024  -0.184   4.035
 2315TIP3   OH2 6821   4.766  -0.204   2.577
 2315TIP3    H1 6822   4.732  -0.230   2.490
 2315TIP3    H2 6823   4.826  -0.131   2.554
 2316TIP3   OH2 6824   4.275  -0.354   3.932
 2316TIP3    H1 6825   4.213  -0.335   4.006
 2316TIP3    H2 6826   4.258  -0.277   3.874
 2317TIP3   OH2 6827   4.135  -0.444   3.438
 2317TIP3    H1 6828   4.058  -0.496   3.465
 2317TIP3    H2 6829   4.160  -0.490   3.354
 2318TIP3   OH2 6830   4.645  -0.376   3.165
 2318TIP3    H1 6831   4.590  -0.305   3.124
 2318TIP3    H2 6832   4.688  -0.415   3.087
 2319TIP3   OH2 6833   4.824  -0.041   4.213
 2319TIP3    H1 6834   4.800  -0.094   4.293
 2319TIP3    H2 6835   4.919  -0.062   4.208
 2320TIP3   OH2 6836   4.801  -0.350   3.404
 2320TIP3    H1 6837   4.741  -0.321   3.331
 2320TIP3    H2 6838   4.831  -0.434   3.368
 2321TIP3   OH2 6839   4.089  -0.313   4.129
 2321TIP3    H1 6840   4.094  -0.255   4.206
 2321TIP3    H2 6841   4.042  -0.391   4.162
 2322TIP3   OH2 6842   4.812  -0.101   3.833
 2322TIP3    H1 6843   4.838  -0.175   3.774
 2322TIP3    H2 6844   4.775  -0.149   3.909
 2323TIP3   OH2 6845   3.904  -0.592   3.510
 2323TIP3    H1 6846   3.811  -0.574   3.481
 2323TIP3    H2 6847   3.914  -0.685   3.487
 2324TIP3   OH2 6848   4.200  -0.571   3.205
 2324TIP3    H1 6849   4.283  -0.598   3.163
 2324TIP3    H2 6850   4.137  -0.571   3.129
 2325TIP3   OH2 6851   4.025  -0.541   2.997
 2325TIP3    H1 6852   3.943  -0.580   2.962
 2325TIP3    H2 6853   4.072  -0.518   2.914
 2326TIP3   OH2 6854   5.135   1.120   3.921
 2326TIP3    H1 6855   5.133   1.142   3.826
 2326TIP3    H2 6856   5.215   1.168   3.950
 2327TIP3   OH2 6857   4.088   0.229   4.339
 2327TIP3    H1 6858   4.168   0.261   4.381
 2327TIP3    H2 6859   4.026   0.225   4.415
 2328TIP3   OH2 6860   4.563  -0.314   3.606
 2328TIP3    H1 6861   4.620  -0.366   3.548
 2328TIP3    H2 6862   4.559  -0.370   3.685
 2329TIP3   OH2 6863   4.541  -0.433   3.908
 2329TIP3    H1 6864   4.451  -0.394   3.910
 2329TIP3    H2 6865   4.592  -0.370   3.962
 2330TIP3   OH2 6866   4.269  -0.033   2.983
 2330TIP3    H1 6867   4.195  -0.096   2.973
 2330TIP3    H2 6868   4.252   0.003   3.074
 2331TIP3   OH2 6869   5.172   0.206   3.614
 2331TIP3    H1 6870   5.197   0.255   3.532
 2331TIP3    H2 6871   5.088   0.164   3.588
 2332TIP3   OH2 6872   4.676   0.291   3.978
 2332TIP3    H1 6873   4.692   0.261   4.068
 2332TIP3    H2 6874   4.635   0.378   3.988
 2333TIP3   OH2 6875   4.792  -0.496   2.940
 2333TIP3    H1 6876   4.888  -0.485   2.953
 2333TIP3    H2 6877   4.769  -0.415   2.891
 2334TIP3   OH2 6878   3.968  -0.006   3.659
 2334TIP3    H1 6879   4.001  -0.032   3.571
 2334TIP3    H2 6880   4.001  -0.077   3.715
 2335TIP3   OH2 6881   4.440   0.128   2.828
 2335TIP3    H1 6882   4.385   0.209   2.817
 2335TIP3    H2 6883   4.374   0.067   2.866
 2336TIP3   OH2 6884   3.836  -0.088   4.274
 2336TIP3    H1 6885   3.853  -0.107   4.368
 2336TIP3    H2 6886   3.764  -0.151   4.253
 2337TIP3   OH2 6887   4.568   0.035   4.291
 2337TIP3    H1 6888   4.499  -0.020   4.249
 2337TIP3    H2 6889   4.648   0.008   4.241
 2338TIP3   OH2 6890   4.835   0.550   3.879
 2338TIP3    H1 6891   4.738   0.544   3.887
 2338TIP3    H2 6892   4.857   0.605   3.956
 2339TIP3   OH2 6893   5.244  -0.384   2.784
 2339TIP3    H1 6894   5.184  -0.432   2.722
 2339TIP3    H2 6895   5.241  -0.296   2.742
 2340TIP3   OH2 6896   5.460   0.476   3.866
 2340TIP3    H1 6897   5.362   0.472   3.856
 2340TIP3    H2 6898   5.486   0.448   3.775
 2341TIP3   OH2 6899   4.958   0.435   2.686
 2341TIP3    H1 6900   4.915   0.383   2.756
 2341TIP3    H2 6901   4.937   0.385   2.606
 2342TIP3   OH2 6902   4.938   0.067   3.536
 2342TIP3    H1 6903   4.844   0.042   3.545
 2342TIP3    H2 6904   4.972  -0.011   3.488
 2343TIP3   OH2 6905   4.065   0.298   3.290
 2343TIP3    H1 6906   4.068   0.377   3.232
 2343TIP3    H2 6907   3.971   0.277   3.288
 2344TIP3   OH2 6908   3.661  -0.351   3.001
 2344TIP3    H1 6909   3.717  -0.272   3.018
 2344TIP3    H2 6910   3.617  -0.360   3.087
 2345TIP3   OH2 6911   4.205   0.063   3.230
 2345TIP3    H1 6912   4.170   0.152   3.249
 2345TIP3    H2 6913   4.167   0.011   3.303
 2346TIP3   OH2 6914   4.333   0.642   3.755
 2346TIP3    H1 6915   4.371   0.713   3.700
 2346TIP3    H2 6916   4.413   0.605   3.795
 2347TIP3   OH2 6917   3.986   0.535   3.137
 2347TIP3    H1 6918   3.899   0.544   3.182
 2347TIP3    H2 6919   4.018   0.627   3.138
 2348TIP3   OH2 6920   4.725   0.275   3.710
 2348TIP3    H1 6921   4.717   0.272   3.808
 2348TIP3    H2 6922   4.801   0.218   3.694
 2349TIP3   OH2 6923   4.699   0.159   2.584
 2349TIP3    H1 6924   4.746   0.139   2.668
 2349TIP3    H2 6925   4.607   0.149   2.612
 2350TIP3   OH2 6926   4.970   0.811   3.763
 2350TIP3    H1 6927   4.891   0.754   3.752
 2350TIP3    H2 6928   4.957   0.875   3.689
 2351TIP3   OH2 6929   5.035   0.622   2.392
 2351TIP3    H1 6930   5.068   0.706   2.356
 2351TIP3    H2 6931   4.971   0.664   2.451
 2352TIP3   OH2 6932   4.856   0.096   2.807
 2352TIP3    H1 6933   4.845   0.034   2.882
 2352TIP3    H2 6934   4.954   0.098   2.800
 2353TIP3   OH2 6935   3.772   0.504   3.912
 2353TIP3    H1 6936   3.824   0.428   3.941
 2353TIP3    H2 6937   3.803   0.573   3.973
 2354TIP3   OH2 6938   4.053   0.156   2.596
 2354TIP3    H1 6939   4.081   0.072   2.557
 2354TIP3    H2 6940   4.040   0.131   2.689
 2355TIP3   OH2 6941   4.007   0.152   2.873
 2355TIP3    H1 6942   4.085   0.126   2.924
 2355TIP3    H2 6943   4.014   0.250   2.876
 2356TIP3   OH2 6944   3.769  -0.118   3.080
 2356TIP3    H1 6945   3.699  -0.075   3.134
 2356TIP3    H2 6946   3.776  -0.053   3.007
 2357TIP3   OH2 6947   4.275   0.345   2.819
 2357TIP3    H1 6948   4.189   0.381   2.849
 2357TIP3    H2 6949   4.290   0.399   2.739
 2358TIP3   OH2 6950   4.489  -0.594   3.231
 2358TIP3    H1 6951   4.528  -0.507   3.208
 2358TIP3    H2 6952   4.441  -0.575   3.313
 2359TIP3   OH2 6953   4.725  -0.275   4.060
 2359TIP3    H1 6954   4.739  -0.197   4.117
 2359TIP3    H2 6955   4.811  -0.318   4.065
 2360TIP3   OH2 6956   4.015   0.426   2.880
 2360TIP3    H1 6957   3.987   0.496   2.818
 2360TIP3    H2 6958   4.001   0.470   2.967
 2361TIP3   OH2 6959   5.022  -0.168   3.404
 2361TIP3    H1 6960   4.951  -0.233   3.415
 2361TIP3    H2 6961   5.097  -0.211   3.451
 2362TIP3   OH2 6962   3.736   0.066   2.871
 2362TIP3    H1 6963   3.808   0.131   2.878
 2362TIP3    H2 6964   3.778   0.002   2.810
 2363TIP3   OH2 6965   4.991   0.782   3.356
 2363TIP3    H1 6966   4.947   0.830   3.282
 2363TIP3    H2 6967   5.085   0.800   3.333
 2364TIP3   OH2 6968   3.609   0.274   3.267
 2364TIP3    H1 6969   3.531   0.304   3.316
 2364TIP3    H2 6970   3.589   0.310   3.178
 2365TIP3   OH2 6971   3.765   0.810   4.330
 2365TIP3    H1 6972   3.849   0.807   4.379
 2365TIP3    H2 6973   3.737   0.717   4.331
 2366TIP3   OH2 6974   4.291   0.726   4.399
 2366TIP3    H1 6975   4.334   0.805   4.360
 2366TIP3    H2 6976   4.233   0.699   4.324
 2367TIP3   OH2 6977   4.238   0.344   2.518
 2367TIP3    H1 6978   4.170   0.280   2.550
 2367TIP3    H2 6979   4.291   0.284   2.461
 2368TIP3   OH2 6980   4.876   0.689   4.120
 2368TIP3    H1 6981   4.873   0.614   4.184
 2368TIP3    H2 6982   4.961   0.733   4.142
 2369TIP3   OH2 6983   4.691   0.413   2.431
 2369TIP3    H1 6984   4.682   0.324   2.469
 2369TIP3    H2 6985   4.725   0.395   2.342
 2370TIP3   OH2 6986   3.894   0.217   4.534
 2370TIP3    H1 6987   3.909   0.121   4.546
 2370TIP3    H2 6988   3.806   0.217   4.489
 2371TIP3   OH2 6989   3.872  -0.132   2.747
 2371TIP3    H1 6990   3.936  -0.160   2.813
 2371TIP3    H2 6991   3.928  -0.134   2.666
 2372TIP3   OH2 6992   4.480   0.291   4.315
 2372TIP3    H1 6993   4.458   0.312   4.222
 2372TIP3    H2 6994   4.521   0.201   4.306
 2373TIP3   OH2 6995   4.996   0.310   3.917
 2373TIP3    H1 6996   5.068   0.355   3.870
 2373TIP3    H2 6997   4.923   0.372   3.901
 2374TIP3   OH2 6998   4.015  -0.054   4.517
 2374TIP3    H1 6999   4.093  -0.107   4.497
 2374TIP3    H2 7000   4.037  -0.023   4.608
 2375TIP3   OH2 7001   4.074  -0.229   2.949
 2375TIP3    H1 7002   4.057  -0.275   3.033
 2375TIP3    H2 7003   4.113  -0.301   2.895
 2376TIP3   OH2 7004   4.352  -0.103   4.174
 2376TIP3    H1 7005   4.261  -0.066   4.176
 2376TIP3    H2 7006   4.375  -0.096   4.080
 2377TIP3   OH2 7007   4.182  -0.432   2.792
 2377TIP3    H1 7008   4.170  -0.479   2.709
 2377TIP3    H2 7009   4.279  -0.414   2.791
 2378TIP3   OH2 7010   4.871   0.250   4.319
 2378TIP3    H1 7011   4.935   0.211   4.257
 2378TIP3    H2 7012   4.858   0.176   4.381
 2379TIP3   OH2 7013   5.022  -0.094   2.441
 2379TIP3    H1 7014   4.994  -0.143   2.361
 2379TIP3    H2 7015   4.976  -0.009   2.424
 2380TIP3   OH2 7016   4.452  -0.317   4.308
 2380TIP3    H1 7017   4.453  -0.393   4.243
 2380TIP3    H2 7018   4.432  -0.241   4.247
 2381TIP3   OH2 7019   4.531  -0.048   3.958
 2381TIP3    H1 7020   4.602  -0.032   3.895
 2381TIP3    H2 7021   4.465   0.018   3.931
 2382TIP3   OH2 7022   5.089  -0.076   4.379
 2382TIP3    H1 7023   5.121  -0.164   4.360
 2382TIP3    H2 7024   5.151  -0.019   4.331
 2383TIP3   OH2 7025   5.128   0.165   4.102
 2383TIP3    H1 7026   5.068   0.219   4.044
 2383TIP3    H2 7027   5.214   0.188   4.062
 2384TIP3   OH2 7028   4.327  -0.238   4.540
 2384TIP3    H1 7029   4.261  -0.310   4.551
 2384TIP3    H2 7030   4.374  -0.265   4.459
 2385TIP3   OH2 7031   4.757  -0.212   4.403
 2385TIP3    H1 7032   4.728  -0.238   4.491
 2385TIP3    H2 7033   4.785  -0.298   4.365
 2386TIP3   OH2 7034   3.985   0.627   2.693
 2386TIP3    H1 7035   4.081   0.621   2.675
 2386TIP3    H2 7036   3.958   0.677   2.614
 2387TIP3   OH2 7037   3.471   0.016   2.930
 2387TIP3    H1 7038   3.561   0.039   2.897
 2387TIP3    H2 7039   3.456  -0.071   2.888
 2388TIP3   OH2 7040   3.380   0.621   3.322
 2388TIP3    H1 7041   3.312   0.559   3.287
 2388TIP3    H2 7042   3.424   0.565   3.389
 2389TIP3   OH2 7043   3.515   0.477   3.511
 2389TIP3    H1 7044   3.504   0.401   3.570
 2389TIP3    H2 7045   3.567   0.537   3.568
 2390TIP3   OH2 7046   5.245   0.870   3.311
 2390TIP3    H1 7047   5.273   0.909   3.396
 2390TIP3    H2 7048   5.301   0.918   3.248
 2391TIP3   OH2 7049   5.273   0.896   3.595
 2391TIP3    H1 7050   5.230   0.808   3.587
 2391TIP3    H2 7051   5.350   0.871   3.648
 2392TIP3   OH2 7052   5.320   0.570   4.168
 2392TIP3    H1 7053   5.247   0.580   4.231
 2392TIP3    H2 7054   5.362   0.659   4.170
 2393TIP3   OH2 7055   5.140   0.082   2.785
 2393TIP3    H1 7056   5.208   0.149   2.764
 2393TIP3    H2 7057   5.178   0.042   2.866
 2394TIP3   OH2 7058   5.264  -0.050   2.990
 2394TIP3    H1 7059   5.198  -0.092   3.049
 2394TIP3    H2 7060   5.329  -0.012   3.052
 2395TIP3   OH2 7061   5.318   0.342   3.424
 2395TIP3    H1 7062   5.370   0.277   3.372
 2395TIP3    H2 7063   5.310   0.417   3.361
 2396TIP3   OH2 7064   5.150   0.643   3.619
 2396TIP3    H1 7065   5.077   0.686   3.667
 2396TIP3    H2 7066   5.102   0.596   3.547
 2397TIP3   OH2 7067   5.204  -0.145   2.637
 2397TIP3    H1 7068   5.136  -0.135   2.567
 2397TIP3    H2 7069   5.178  -0.071   2.696
 2398TIP3   OH2 7070   5.082  -0.475   2.583
 2398TIP3    H1 7071   5.038  -0.410   2.527
 2398TIP3    H2 7072   5.042  -0.557   2.552
 2399TIP3   OH2 7073   5.080  -0.192   3.139
 2399TIP3    H1 7074   5.086  -0.288   3.138
 2399TIP3    H2 7075   5.065  -0.174   3.234
 2400TIP3   OH2 7076   3.703  -0.122   3.886
 2400TIP3    H1 7077   3.702  -0.151   3.792
 2400TIP3    H2 7078   3.801  -0.117   3.901
 2401TIP3   OH2 7079   5.372   0.228   3.994
 2401TIP3    H1 7080   5.444   0.163   3.979
 2401TIP3    H2 7081   5.393   0.298   3.930
 2402TIP3   OH2 7082   5.557   0.025   4.009
 2402TIP3    H1 7083   5.488  -0.025   4.059
 2402TIP3    H2 7084   5.638  -0.018   4.039
 2403TIP3   OH2 7085   5.061  -0.474   2.984
 2403TIP3    H1 7086   5.106  -0.511   3.063
 2403TIP3    H2 7087   5.135  -0.441   2.930
 2404TIP3   OH2 7088   5.240  -0.268   3.532
 2404TIP3    H1 7089   5.329  -0.260   3.490
 2404TIP3    H2 7090   5.263  -0.251   3.624
 2405TIP3   OH2 7091   5.304  -0.149   3.779
 2405TIP3    H1 7092   5.220  -0.107   3.808
 2405TIP3    H2 7093   5.339  -0.079   3.719
 2406TIP3   OH2 7094   3.699  -0.462   3.965
 2406TIP3    H1 7095   3.743  -0.477   3.879
 2406TIP3    H2 7096   3.722  -0.370   3.981
 2407TIP3   OH2 7097   4.831   0.738   2.977
 2407TIP3    H1 7098   4.872   0.722   2.889
 2407TIP3    H2 7099   4.881   0.816   3.005
 2408TIP3   OH2 7100   3.932   0.539   4.364
 2408TIP3    H1 7101   3.844   0.514   4.328
 2408TIP3    H2 7102   3.917   0.525   4.458
 2409TIP3   OH2 7103   4.109   0.580   3.907
 2409TIP3    H1 7104   4.058   0.651   3.864
 2409TIP3    H2 7105   4.193   0.592   3.859
 2410TIP3   OH2 7106   4.550   0.821   4.039
 2410TIP3    H1 7107   4.596   0.819   4.125
 2410TIP3    H2 7108   4.617   0.869   3.984
 2411TIP3   OH2 7109   4.730   0.971   3.900
 2411TIP3    H1 7110   4.798   0.923   3.850
 2411TIP3    H2 7111   4.786   1.028   3.957
 2412TIP3   OH2 7112   3.785   0.834   3.927
 2412TIP3    H1 7113   3.696   0.865   3.898
 2412TIP3    H2 7114   3.787   0.871   4.016
 2413TIP3   OH2 7115   4.021   0.813   3.784
 2413TIP3    H1 7116   3.934   0.826   3.827
 2413TIP3    H2 7117   4.002   0.845   3.693
 2414TIP3   OH2 7118   4.444   0.840   3.583
 2414TIP3    H1 7119   4.379   0.857   3.512
 2414TIP3    H2 7120   4.458   0.931   3.618
 2415TIP3   OH2 7121   4.713   0.783   3.636
 2415TIP3    H1 7122   4.620   0.798   3.612
 2415TIP3    H2 7123   4.757   0.853   3.585
 2416TIP3   OH2 7124   4.924   0.974   3.547
 2416TIP3    H1 7125   4.907   1.058   3.499
 2416TIP3    H2 7126   4.948   0.914   3.473
 2417TIP3   OH2 7127   3.695   0.628   3.670
 2417TIP3    H1 7128   3.721   0.601   3.761
 2417TIP3    H2 7129   3.767   0.584   3.619
 2418TIP3   OH2 7130   3.887   0.499   3.527
 2418TIP3    H1 7131   3.906   0.414   3.574
 2418TIP3    H2 7132   3.978   0.536   3.519
 2419TIP3   OH2 7133   4.153   0.595   3.529
 2419TIP3    H1 7134   4.186   0.505   3.510
 2419TIP3    H2 7135   4.198   0.613   3.613
 2420TIP3   OH2 7136   3.485   0.399   3.063
 2420TIP3    H1 7137   3.401   0.364   3.028
 2420TIP3    H2 7138   3.471   0.493   3.048
 2421TIP3   OH2 7139   4.252   0.590   2.641
 2421TIP3    H1 7140   4.342   0.612   2.608
 2421TIP3    H2 7141   4.235   0.512   2.584
 2422TIP3   OH2 7142   4.969   0.707   2.748
 2422TIP3    H1 7143   4.963   0.615   2.714
 2422TIP3    H2 7144   4.970   0.762   2.666
 2423TIP3   OH2 7145   3.561   0.428   2.698
 2423TIP3    H1 7146   3.559   0.449   2.793
 2423TIP3    H2 7147   3.648   0.382   2.689
 2424TIP3   OH2 7148   5.199   0.851   3.925
 2424TIP3    H1 7149   5.122   0.820   3.874
 2424TIP3    H2 7150   5.181   0.947   3.926
 2425TIP3   OH2 7151   6.466   0.226   2.696
 2425TIP3    H1 7152   6.437   0.317   2.672
 2425TIP3    H2 7153   6.390   0.175   2.663
 2426TIP3   OH2 7154   6.462   0.224   3.072
 2426TIP3    H1 7155   6.499   0.189   3.154
 2426TIP3    H2 7156   6.422   0.143   3.033
 2427TIP3   OH2 7157   5.764   0.123   3.436
 2427TIP3    H1 7158   5.800   0.057   3.497
 2427TIP3    H2 7159   5.843   0.174   3.416
 2428TIP3   OH2 7160   6.706   0.526   2.752
 2428TIP3    H1 7161   6.696   0.453   2.814
 2428TIP3    H2 7162   6.737   0.598   2.809
 2429TIP3   OH2 7163   5.736   0.527   3.163
 2429TIP3    H1 7164   5.728   0.429   3.164
 2429TIP3    H2 7165   5.833   0.535   3.156
 2430TIP3   OH2 7166   5.436  -0.279   2.953
 2430TIP3    H1 7167   5.389  -0.195   2.968
 2430TIP3    H2 7168   5.373  -0.325   2.896
 2431TIP3   OH2 7169   5.504   0.016   3.117
 2431TIP3    H1 7170   5.553  -0.061   3.155
 2431TIP3    H2 7171   5.566   0.044   3.048
 2432TIP3   OH2 7172   6.357   0.988   2.768
 2432TIP3    H1 7173   6.404   0.917   2.719
 2432TIP3    H2 7174   6.351   0.949   2.857
 2433TIP3   OH2 7175   6.264   0.447   3.121
 2433TIP3    H1 7176   6.301   0.370   3.074
 2433TIP3    H2 7177   6.348   0.493   3.141
 2434TIP3   OH2 7178   6.676  -0.044   3.153
 2434TIP3    H1 7179   6.716  -0.129   3.175
 2434TIP3    H2 7180   6.648  -0.059   3.060
 2435TIP3   OH2 7181   5.648  -0.192   3.224
 2435TIP3    H1 7182   5.729  -0.216   3.274
 2435TIP3    H2 7183   5.665  -0.245   3.144
 2436TIP3   OH2 7184   6.089   0.011   3.024
 2436TIP3    H1 7185   6.181  -0.022   3.035
 2436TIP3    H2 7186   6.044  -0.071   2.991
 2437TIP3   OH2 7187   7.329  -0.046   3.303
 2437TIP3    H1 7188   7.263   0.024   3.284
 2437TIP3    H2 7189   7.371  -0.015   3.385
 2438TIP3   OH2 7190   6.359   0.445   2.560
 2438TIP3    H1 7191   6.312   0.422   2.479
 2438TIP3    H2 7192   6.316   0.529   2.584
 2439TIP3   OH2 7193   6.123   0.364   3.353
 2439TIP3    H1 7194   6.058   0.429   3.389
 2439TIP3    H2 7195   6.163   0.414   3.279
 2440TIP3   OH2 7196   5.887  -0.280   3.320
 2440TIP3    H1 7197   5.957  -0.217   3.345
 2440TIP3    H2 7198   5.928  -0.330   3.249
 2441TIP3   OH2 7199   5.946   0.559   3.444
 2441TIP3    H1 7200   5.920   0.645   3.404
 2441TIP3    H2 7201   5.866   0.545   3.500
 2442TIP3   OH2 7202   5.345   0.256   2.682
 2442TIP3    H1 7203   5.284   0.296   2.618
 2442TIP3    H2 7204   5.379   0.338   2.726
 2443TIP3   OH2 7205   6.780   0.767   2.922
 2443TIP3    H1 7206   6.690   0.759   2.960
 2443TIP3    H2 7207   6.772   0.853   2.875
 2444TIP3   OH2 7208   6.482   0.815   2.595
 2444TIP3    H1 7209   6.531   0.732   2.574
 2444TIP3    H2 7210   6.543   0.880   2.553
 2445TIP3   OH2 7211   6.625   0.600   2.499
 2445TIP3    H1 7212   6.586   0.520   2.461
 2445TIP3    H2 7213   6.660   0.566   2.584
 2446TIP3   OH2 7214   7.005   0.681   3.264
 2446TIP3    H1 7215   6.995   0.603   3.204
 2446TIP3    H2 7216   6.989   0.755   3.202
 2447TIP3   OH2 7217   6.299   0.079   2.522
 2447TIP3    H1 7218   6.212   0.123   2.508
 2447TIP3    H2 7219   6.329   0.071   2.430
 2448TIP3   OH2 7220   6.259  -0.065   2.257
 2448TIP3    H1 7221   6.339  -0.081   2.309
 2448TIP3    H2 7222   6.253  -0.150   2.209
 2449TIP3   OH2 7223   7.200   0.314   3.110
 2449TIP3    H1 7224   7.116   0.366   3.115
 2449TIP3    H2 7225   7.229   0.338   3.019
 2450TIP3   OH2 7226   6.649   0.163   2.506
 2450TIP3    H1 7227   6.596   0.185   2.586
 2450TIP3    H2 7228   6.733   0.133   2.546
 2451TIP3   OH2 7229   6.876   0.201   3.399
 2451TIP3    H1 7230   6.873   0.285   3.448
 2451TIP3    H2 7231   6.792   0.207   3.348
 2452TIP3   OH2 7232   5.880   0.156   2.909
 2452TIP3    H1 7233   5.836   0.097   2.843
 2452TIP3    H2 7234   5.953   0.099   2.940
 2453TIP3   OH2 7235   6.007   0.566   3.058
 2453TIP3    H1 7236   5.986   0.521   2.975
 2453TIP3    H2 7237   6.097   0.532   3.077
 2454TIP3   OH2 7238   6.012   0.123   3.268
 2454TIP3    H1 7239   6.043   0.097   3.178
 2454TIP3    H2 7240   6.059   0.208   3.283
 2455TIP3   OH2 7241   6.537   0.764   3.040
 2455TIP3    H1 7242   6.525   0.843   3.096
 2455TIP3    H2 7243   6.524   0.690   3.102
 2456TIP3   OH2 7244   6.150   0.684   3.586
 2456TIP3    H1 7245   6.090   0.745   3.633
 2456TIP3    H2 7246   6.085   0.629   3.537
 2457TIP3   OH2 7247   6.510   0.039   2.317
 2457TIP3    H1 7248   6.559   0.076   2.395
 2457TIP3    H2 7249   6.491   0.122   2.270
 2458TIP3   OH2 7250   5.888   0.243   3.692
 2458TIP3    H1 7251   5.893   0.329   3.738
 2458TIP3    H2 7252   5.793   0.224   3.699
 2459TIP3   OH2 7253   6.227   0.695   2.592
 2459TIP3    H1 7254   6.306   0.749   2.612
 2459TIP3    H2 7255   6.166   0.760   2.556
 2460TIP3   OH2 7256   5.945   0.852   3.674
 2460TIP3    H1 7257   5.911   0.850   3.582
 2460TIP3    H2 7258   5.865   0.830   3.727
 2461TIP3   OH2 7259   5.741   0.006   2.715
 2461TIP3    H1 7260   5.669   0.034   2.655
 2461TIP3    H2 7261   5.721  -0.087   2.731
 2462TIP3   OH2 7262   6.795   0.623   1.915
 2462TIP3    H1 7263   6.802   0.719   1.900
 2462TIP3    H2 7264   6.877   0.591   1.873
 2463TIP3   OH2 7265   5.523   0.384   3.620
 2463TIP3    H1 7266   5.458   0.363   3.549
 2463TIP3    H2 7267   5.557   0.296   3.645
 2464TIP3   OH2 7268   5.377   0.572   3.258
 2464TIP3    H1 7269   5.473   0.568   3.244
 2464TIP3    H2 7270   5.368   0.655   3.308
 2465TIP3   OH2 7271   7.239   1.023   3.308
 2465TIP3    H1 7272   7.238   0.927   3.322
 2465TIP3    H2 7273   7.156   1.049   3.355
 2466TIP3   OH2 7274   6.349   0.812   3.444
 2466TIP3    H1 7275   6.348   0.905   3.477
 2466TIP3    H2 7276   6.277   0.773   3.498
 2467TIP3   OH2 7277   6.109   0.941   2.396
 2467TIP3    H1 7278   6.064   0.923   2.311
 2467TIP3    H2 7279   6.076   1.029   2.420
 2468TIP3   OH2 7280   5.548   0.791   2.780
 2468TIP3    H1 7281   5.596   0.780   2.864
 2468TIP3    H2 7282   5.478   0.724   2.791
 2469TIP3   OH2 7283   6.309   0.843   2.037
 2469TIP3    H1 7284   6.369   0.774   2.001
 2469TIP3    H2 7285   6.344   0.852   2.129
 2470TIP3   OH2 7286   6.361   0.890   2.307
 2470TIP3    H1 7287   6.273   0.899   2.349
 2470TIP3    H2 7288   6.411   0.847   2.378
 2471TIP3   OH2 7289   7.136   0.153   3.597
 2471TIP3    H1 7290   7.060   0.185   3.547
 2471TIP3    H2 7291   7.148   0.064   3.562
 2472TIP3   OH2 7292   5.729   0.566   3.611
 2472TIP3    H1 7293   5.779   0.547   3.693
 2472TIP3    H2 7294   5.655   0.501   3.617
 2473TIP3   OH2 7295   6.797   0.014   3.600
 2473TIP3    H1 7296   6.840  -0.072   3.583
 2473TIP3    H2 7297   6.821   0.067   3.521
 2474TIP3   OH2 7298   6.069  -0.097   3.419
 2474TIP3    H1 7299   6.007  -0.078   3.493
 2474TIP3    H2 7300   6.051  -0.022   3.360
 2475TIP3   OH2 7301   5.927  -0.183   2.920
 2475TIP3    H1 7302   5.855  -0.239   2.953
 2475TIP3    H2 7303   5.953  -0.233   2.839
 2476TIP3   OH2 7304   6.432  -0.115   2.668
 2476TIP3    H1 7305   6.382  -0.046   2.620
 2476TIP3    H2 7306   6.485  -0.155   2.595
 2477TIP3   OH2 7307   6.610   0.205   3.702
 2477TIP3    H1 7308   6.578   0.157   3.782
 2477TIP3    H2 7309   6.703   0.178   3.701
 2478TIP3   OH2 7310   6.598  -0.094   2.892
 2478TIP3    H1 7311   6.536  -0.073   2.819
 2478TIP3    H2 7312   6.633  -0.179   2.860
 2479TIP3   OH2 7313   5.879  -0.055   3.615
 2479TIP3    H1 7314   5.900  -0.004   3.693
 2479TIP3    H2 7315   5.851  -0.140   3.651
 2480TIP3   OH2 7316   6.607   0.156   3.318
 2480TIP3    H1 7317   6.635   0.081   3.260
 2480TIP3    H2 7318   6.570   0.107   3.394
 2481TIP3   OH2 7319   5.701  -0.335   2.996
 2481TIP3    H1 7320   5.607  -0.320   2.972
 2481TIP3    H2 7321   5.710  -0.430   2.980
 2482TIP3   OH2 7322   5.987  -0.312   2.687
 2482TIP3    H1 7323   6.078  -0.336   2.661
 2482TIP3    H2 7324   5.935  -0.324   2.606
 2483TIP3   OH2 7325   5.800  -0.296   2.465
 2483TIP3    H1 7326   5.730  -0.345   2.421
 2483TIP3    H2 7327   5.850  -0.259   2.390
 2484TIP3   OH2 7328   6.932   1.377   3.408
 2484TIP3    H1 7329   6.932   1.398   3.313
 2484TIP3    H2 7330   7.014   1.422   3.437
 2485TIP3   OH2 7331   5.889   0.486   3.832
 2485TIP3    H1 7332   5.970   0.515   3.877
 2485TIP3    H2 7333   5.826   0.489   3.906
 2486TIP3   OH2 7334   6.358  -0.057   3.092
 2486TIP3    H1 7335   6.418  -0.109   3.036
 2486TIP3    H2 7336   6.355  -0.111   3.173
 2487TIP3   OH2 7337   6.335  -0.174   3.391
 2487TIP3    H1 7338   6.247  -0.135   3.395
 2487TIP3    H2 7339   6.390  -0.112   3.445
 2488TIP3   OH2 7340   6.067   0.228   2.469
 2488TIP3    H1 7341   5.993   0.164   2.460
 2488TIP3    H2 7342   6.050   0.263   2.561
 2489TIP3   OH2 7343   6.969   0.463   3.100
 2489TIP3    H1 7344   6.993   0.511   3.019
 2489TIP3    H2 7345   6.884   0.420   3.075
 2490TIP3   OH2 7346   6.472   0.549   3.465
 2490TIP3    H1 7347   6.489   0.521   3.555
 2490TIP3    H2 7348   6.429   0.635   3.476
 2491TIP3   OH2 7349   6.584  -0.199   2.460
 2491TIP3    H1 7350   6.680  -0.218   2.477
 2491TIP3    H2 7351   6.588  -0.123   2.400
 2492TIP3   OH2 7352   5.761   0.248   3.145
 2492TIP3    H1 7353   5.799   0.221   3.058
 2492TIP3    H2 7354   5.801   0.183   3.204
 2493TIP3   OH2 7355   6.216   0.375   2.289
 2493TIP3    H1 7356   6.168   0.461   2.295
 2493TIP3    H2 7357   6.162   0.320   2.351
 2494TIP3   OH2 7358   5.629   0.174   3.765
 2494TIP3    H1 7359   5.655   0.153   3.856
 2494TIP3    H2 7360   5.563   0.104   3.745
 2495TIP3   OH2 7361   6.363   0.295   3.783
 2495TIP3    H1 7362   6.291   0.247   3.737
 2495TIP3    H2 7363   6.440   0.274   3.725
 2496TIP3   OH2 7364   6.629   0.809   3.360
 2496TIP3    H1 7365   6.533   0.803   3.374
 2496TIP3    H2 7366   6.655   0.859   3.440
 2497TIP3   OH2 7367   7.255   0.732   3.354
 2497TIP3    H1 7368   7.158   0.728   3.344
 2497TIP3    H2 7369   7.282   0.704   3.263
 2498TIP3   OH2 7370   6.724   0.697   2.176
 2498TIP3    H1 7371   6.727   0.630   2.246
 2498TIP3    H2 7372   6.761   0.650   2.100
 2499TIP3   OH2 7373   6.734   0.324   3.021
 2499TIP3    H1 7374   6.641   0.299   3.031
 2499TIP3    H2 7375   6.769   0.245   2.974
 2500TIP3   OH2 7376   5.860   0.553   2.770
 2500TIP3    H1 7377   5.861   0.634   2.717
 2500TIP3    H2 7378   5.765   0.538   2.781
 2501TIP3   OH2 7379   5.421  -0.140   2.468
 2501TIP3    H1 7380   5.472  -0.061   2.496
 2501TIP3    H2 7381   5.347  -0.139   2.533
 2502TIP3   OH2 7382   6.001   0.320   2.714
 2502TIP3    H1 7383   5.964   0.408   2.735
 2502TIP3    H2 7384   5.967   0.266   2.788
 2503TIP3   OH2 7385   6.130   0.897   3.241
 2503TIP3    H1 7386   6.171   0.969   3.189
 2503TIP3    H2 7387   6.206   0.861   3.288
 2504TIP3   OH2 7388   5.781   0.791   2.622
 2504TIP3    H1 7389   5.695   0.799   2.668
 2504TIP3    H2 7390   5.813   0.884   2.625
 2505TIP3   OH2 7391   6.520   0.531   3.196
 2505TIP3    H1 7392   6.512   0.530   3.294
 2505TIP3    H2 7393   6.598   0.475   3.183
 2506TIP3   OH2 7394   6.454   0.416   2.111
 2506TIP3    H1 7395   6.517   0.398   2.183
 2506TIP3    H2 7396   6.369   0.410   2.159
 2507TIP3   OH2 7397   6.767   1.066   3.251
 2507TIP3    H1 7398   6.689   1.008   3.243
 2507TIP3    H2 7399   6.750   1.129   3.177
 2508TIP3   OH2 7400   6.831   0.901   1.897
 2508TIP3    H1 7401   6.873   0.981   1.860
 2508TIP3    H2 7402   6.749   0.942   1.932
 2509TIP3   OH2 7403   6.638   0.346   2.298
 2509TIP3    H1 7404   6.643   0.291   2.380
 2509TIP3    H2 7405   6.735   0.351   2.278
 2510TIP3   OH2 7406   5.569   0.761   3.400
 2510TIP3    H1 7407   5.620   0.683   3.428
 2510TIP3    H2 7408   5.602   0.827   3.461
 2511TIP3   OH2 7409   5.854   0.406   2.081
 2511TIP3    H1 7410   5.872   0.315   2.051
 2511TIP3    H2 7411   5.839   0.393   2.176
 2512TIP3   OH2 7412   5.803   0.408   2.354
 2512TIP3    H1 7413   5.874   0.380   2.413
 2512TIP3    H2 7414   5.809   0.506   2.361
 2513TIP3   OH2 7415   5.532   0.101   2.552
 2513TIP3    H1 7416   5.475   0.151   2.614
 2513TIP3    H2 7417   5.563   0.173   2.494
 2514TIP3   OH2 7418   6.071   0.603   2.301
 2514TIP3    H1 7419   5.985   0.632   2.338
 2514TIP3    H2 7420   6.088   0.676   2.239
 2515TIP3   OH2 7421   6.272  -0.333   2.710
 2515TIP3    H1 7422   6.321  -0.249   2.697
 2515TIP3    H2 7423   6.248  -0.329   2.803
 2516TIP3   OH2 7424   6.518  -0.020   3.545
 2516TIP3    H1 7425   6.535   0.061   3.595
 2516TIP3    H2 7426   6.606  -0.060   3.542
 2517TIP3   OH2 7427   5.813   0.681   2.368
 2517TIP3    H1 7428   5.783   0.751   2.306
 2517TIP3    H2 7429   5.797   0.724   2.455
 2518TIP3   OH2 7430   6.817   0.088   2.891
 2518TIP3    H1 7431   6.746   0.022   2.902
 2518TIP3    H2 7432   6.892   0.045   2.938
 2519TIP3   OH2 7433   5.527   0.323   2.356
 2519TIP3    H1 7434   5.595   0.391   2.373
 2519TIP3    H2 7435   5.578   0.265   2.296
 2520TIP3   OH2 7436   5.450  -0.431   2.497
 2520TIP3    H1 7437   5.489  -0.342   2.491
 2520TIP3    H2 7438   5.360  -0.409   2.525
 2521TIP3   OH2 7439   6.787   1.040   2.842
 2521TIP3    H1 7440   6.745   1.087   2.767
 2521TIP3    H2 7441   6.881   1.059   2.822
 2522TIP3   OH2 7442   5.397   0.521   2.746
 2522TIP3    H1 7443   5.330   0.559   2.805
 2522TIP3    H2 7444   5.376   0.570   2.663
 2523TIP3   OH2 7445   5.558   1.067   3.822
 2523TIP3    H1 7446   5.645   1.065   3.868
 2523TIP3    H2 7447   5.538   0.972   3.818
 2524TIP3   OH2 7448   6.042   1.034   3.864
 2524TIP3    H1 7449   6.136   1.011   3.873
 2524TIP3    H2 7450   6.016   0.976   3.790
 2525TIP3   OH2 7451   6.016   0.615   1.999
 2525TIP3    H1 7452   5.967   0.536   2.034
 2525TIP3    H2 7453   6.095   0.572   1.961
 2526TIP3   OH2 7454   6.679   0.940   3.599
 2526TIP3    H1 7455   6.670   0.870   3.667
 2526TIP3    H2 7456   6.758   0.989   3.629
 2527TIP3   OH2 7457   6.465   0.656   1.914
 2527TIP3    H1 7458   6.524   0.604   1.969
 2527TIP3    H2 7459   6.513   0.659   1.828
 2528TIP3   OH2 7460   5.689   0.473   4.023
 2528TIP3    H1 7461   5.706   0.377   4.026
 2528TIP3    H2 7462   5.602   0.475   3.977
 2529TIP3   OH2 7463   5.666   0.127   2.217
 2529TIP3    H1 7464   5.721   0.093   2.291
 2529TIP3    H2 7465   5.732   0.125   2.145
 2530TIP3   OH2 7466   6.296   0.561   3.796
 2530TIP3    H1 7467   6.255   0.572   3.708
 2530TIP3    H2 7468   6.328   0.469   3.794
 2531TIP3   OH2 7469   6.159   0.319   2.024
 2531TIP3    H1 7470   6.171   0.326   2.121
 2531TIP3    H2 7471   6.153   0.223   2.011
 2532TIP3   OH2 7472   6.791   0.565   3.402
 2532TIP3    H1 7473   6.863   0.613   3.356
 2532TIP3    H2 7474   6.717   0.627   3.389
 2533TIP3   OH2 7475   5.804   0.202   4.006
 2533TIP3    H1 7476   5.882   0.152   3.980
 2533TIP3    H2 7477   5.832   0.234   4.094
 2534TIP3   OH2 7478   5.865   0.039   2.442
 2534TIP3    H1 7479   5.849  -0.006   2.527
 2534TIP3    H2 7480   5.904  -0.034   2.389
 2535TIP3   OH2 7481   6.151   0.178   3.662
 2535TIP3    H1 7482   6.055   0.200   3.664
 2535TIP3    H2 7483   6.167   0.165   3.567
 2536TIP3   OH2 7484   5.970  -0.155   2.284
 2536TIP3    H1 7485   5.958  -0.240   2.235
 2536TIP3    H2 7486   6.056  -0.125   2.250
 2537TIP3   OH2 7487   6.665   0.502   3.806
 2537TIP3    H1 7488   6.734   0.468   3.748
 2537TIP3    H2 7489   6.657   0.431   3.872
 2538TIP3   OH2 7490   6.172  -0.074   3.753
 2538TIP3    H1 7491   6.256  -0.128   3.761
 2538TIP3    H2 7492   6.208   0.006   3.703
 2539TIP3   OH2 7493   6.331   0.209   3.445
 2539TIP3    H1 7494   6.399   0.225   3.379
 2539TIP3    H2 7495   6.263   0.274   3.420
 2540TIP3   OH2 7496   6.871   0.171   3.855
 2540TIP3    H1 7497   6.929   0.098   3.883
 2540TIP3    H2 7498   6.934   0.238   3.827
 2541TIP3   OH2 7499   6.924   0.421   3.588
 2541TIP3    H1 7500   6.864   0.475   3.530
 2541TIP3    H2 7501   7.010   0.445   3.547
 2542TIP3   OH2 7502   6.140  -0.007   4.018
 2542TIP3    H1 7503   6.057  -0.059   4.026
 2542TIP3    H2 7504   6.147  -0.004   3.921
 2543TIP3   OH2 7505   6.553   0.051   3.908
 2543TIP3    H1 7506   6.524  -0.051   3.931
 2543TIP3    H2 7507   6.652   0.033   3.903
 2544TIP3   OH2 7508   5.781   0.881   2.178
 2544TIP3    H1 7509   5.877   0.879   2.161
 2544TIP3    H2 7510   5.752   0.934   2.102
 2545TIP3   OH2 7511   5.266   0.244   2.386
 2545TIP3    H1 7512   5.352   0.290   2.374
 2545TIP3    H2 7513   5.297   0.160   2.424
 2546TIP3   OH2 7514   5.185   0.887   2.827
 2546TIP3    H1 7515   5.121   0.843   2.768
 2546TIP3    H2 7516   5.216   0.814   2.883
 2547TIP3   OH2 7517   5.322   0.718   2.996
 2547TIP3    H1 7518   5.303   0.650   3.063
 2547TIP3    H2 7519   5.366   0.786   3.051
 2548TIP3   OH2 7520   7.038   1.135   2.798
 2548TIP3    H1 7521   7.069   1.164   2.885
 2548TIP3    H2 7522   7.105   1.172   2.738
 2549TIP3   OH2 7523   7.069   1.151   3.080
 2549TIP3    H1 7524   7.027   1.063   3.076
 2549TIP3    H2 7525   7.146   1.130   3.135
 2550TIP3   OH2 7526   7.117   0.826   3.655
 2550TIP3    H1 7527   7.043   0.836   3.718
 2550TIP3    H2 7528   7.158   0.915   3.658
 2551TIP3   OH2 7529   6.910   0.347   2.281
 2551TIP3    H1 7530   6.972   0.417   2.252
 2551TIP3    H2 7531   6.966   0.295   2.341
 2552TIP3   OH2 7532   7.056   0.203   2.476
 2552TIP3    H1 7533   6.991   0.159   2.535
 2552TIP3    H2 7534   7.122   0.237   2.538
 2553TIP3   OH2 7535   7.113   0.599   2.909
 2553TIP3    H1 7536   7.166   0.535   2.858
 2553TIP3    H2 7537   7.105   0.673   2.847
 2554TIP3   OH2 7538   6.946   0.900   3.105
 2554TIP3    H1 7539   6.874   0.941   3.156
 2554TIP3    H2 7540   6.896   0.852   3.035
 2555TIP3   OH2 7541   6.873   0.059   2.625
 2555TIP3    H1 7542   6.883  -0.037   2.619
 2555TIP3    H2 7543   6.859   0.072   2.722
 2556TIP3   OH2 7544   5.499   0.134   3.371
 2556TIP3    H1 7545   5.499   0.105   3.277
 2556TIP3    H2 7546   5.597   0.139   3.387
 2557TIP3   OH2 7547   7.168   0.485   3.480
 2557TIP3    H1 7548   7.241   0.420   3.466
 2557TIP3    H2 7549   7.191   0.556   3.418
 2558TIP3   OH2 7550   7.353   0.282   3.492
 2558TIP3    H1 7551   7.283   0.234   3.542
 2558TIP3    H2 7552   7.433   0.238   3.525
 2559TIP3   OH2 7553   7.037  -0.008   3.018
 2559TIP3    H1 7554   7.126  -0.002   2.978
 2559TIP3    H2 7555   7.057   0.004   3.112
 2560TIP3   OH2 7556   7.101   0.107   3.267
 2560TIP3    H1 7557   7.017   0.148   3.296
 2560TIP3    H2 7558   7.136   0.176   3.207
 2561TIP3   OH2 7559   5.494  -0.205   3.452
 2561TIP3    H1 7560   5.539  -0.221   3.367
 2561TIP3    H2 7561   5.520  -0.114   3.469
 2562TIP3   OH2 7562   6.624   0.997   2.454
 2562TIP3    H1 7563   6.676   0.981   2.373
 2562TIP3    H2 7564   6.680   1.061   2.501
 2563TIP3   OH2 7565   5.725   0.803   3.842
 2563TIP3    H1 7566   5.634   0.773   3.824
 2563TIP3    H2 7567   5.735   0.782   3.935
 2564TIP3   OH2 7568   5.903   0.832   3.389
 2564TIP3    H1 7569   5.855   0.908   3.349
 2564TIP3    H2 7570   5.989   0.846   3.345
 2565TIP3   OH2 7571   6.349   1.079   3.527
 2565TIP3    H1 7572   6.392   1.079   3.616
 2565TIP3    H2 7573   6.415   1.128   3.475
 2566TIP3   OH2 7574   6.528   1.229   3.384
 2566TIP3    H1 7575   6.598   1.178   3.342
 2566TIP3    H2 7576   6.580   1.286   3.445
 2567TIP3   OH2 7577   5.581   1.091   3.411
 2567TIP3    H1 7578   5.492   1.125   3.386
 2567TIP3    H2 7579   5.586   1.123   3.502
 2568TIP3   OH2 7580   5.817   1.069   3.269
 2568TIP3    H1 7581   5.730   1.082   3.314
 2568TIP3    H2 7582   5.797   1.101   3.179
 2569TIP3   OH2 7583   6.242   1.099   3.067
 2569TIP3    H1 7584   6.173   1.118   3.002
 2569TIP3    H2 7585   6.255   1.186   3.109
 2570TIP3   OH2 7586   6.510   1.039   3.120
 2570TIP3    H1 7587   6.416   1.054   3.098
 2570TIP3    H2 7588   6.553   1.114   3.076
 2571TIP3   OH2 7589   6.719   1.230   3.034
 2571TIP3    H1 7590   6.705   1.314   2.985
 2571TIP3    H2 7591   6.745   1.169   2.962
 2572TIP3   OH2 7592   5.491   0.885   3.157
 2572TIP3    H1 7593   5.518   0.859   3.248
 2572TIP3    H2 7594   5.563   0.841   3.106
 2573TIP3   OH2 7595   5.685   0.755   3.014
 2573TIP3    H1 7596   5.701   0.671   3.062
 2573TIP3    H2 7597   5.775   0.792   3.008
 2574TIP3   OH2 7598   5.951   0.850   3.016
 2574TIP3    H1 7599   5.982   0.759   3.003
 2574TIP3    H2 7600   5.995   0.871   3.100
 2575TIP3   OH2 7601   5.273   0.665   2.547
 2575TIP3    H1 7602   5.192   0.628   2.509
 2575TIP3    H2 7603   5.242   0.757   2.556
 2576TIP3   OH2 7604   6.051   0.849   2.131
 2576TIP3    H1 7605   6.140   0.868   2.095
 2576TIP3    H2 7606   6.028   0.772   2.073
 2577TIP3   OH2 7607   6.771   0.961   2.222
 2577TIP3    H1 7608   6.757   0.864   2.210
 2577TIP3    H2 7609   6.724   0.995   2.143
 2578TIP3   OH2 7610   5.351   0.666   2.191
 2578TIP3    H1 7611   5.353   0.706   2.279
 2578TIP3    H2 7612   5.445   0.638   2.179
 2579TIP3   OH2 7613   6.994   1.107   3.413
 2579TIP3    H1 7614   6.916   1.076   3.363
 2579TIP3    H2 7615   6.977   1.203   3.414
 2580TIP3   OH2 7616   8.218   0.476   2.555
 2580TIP3    H1 7617   8.284   0.456   2.624
 2580TIP3    H2 7618   8.213   0.394   2.505
 2581TIP3   OH2 7619   7.563   0.377   2.918
 2581TIP3    H1 7620   7.597   0.312   2.983
 2581TIP3    H2 7621   7.630   0.446   2.924
 2582TIP3   OH2 7622   7.529   0.786   2.648
 2582TIP3    H1 7623   7.522   0.688   2.655
 2582TIP3    H2 7624   7.626   0.795   2.642
 2583TIP3   OH2 7625   7.300   0.277   2.604
 2583TIP3    H1 7626   7.362   0.214   2.647
 2583TIP3    H2 7627   7.349   0.300   2.524
 2584TIP3   OH2 7628   8.172   1.265   2.252
 2584TIP3    H1 7629   8.228   1.188   2.236
 2584TIP3    H2 7630   8.126   1.240   2.334
 2585TIP3   OH2 7631   8.059   0.705   2.607
 2585TIP3    H1 7632   8.100   0.626   2.567
 2585TIP3    H2 7633   8.141   0.754   2.630
 2586TIP3   OH2 7634   7.464   0.100   2.729
 2586TIP3    H1 7635   7.541   0.065   2.779
 2586TIP3    H2 7636   7.459   0.032   2.658
 2587TIP3   OH2 7637   7.917   0.620   2.841
 2587TIP3    H1 7638   7.852   0.684   2.878
 2587TIP3    H2 7639   7.955   0.671   2.767
 2588TIP3   OH2 7640   7.684  -0.026   2.816
 2588TIP3    H1 7641   7.760   0.027   2.849
 2588TIP3    H2 7642   7.727  -0.101   2.772
 2589TIP3   OH2 7643   7.742   0.815   2.929
 2589TIP3    H1 7644   7.718   0.902   2.891
 2589TIP3    H2 7645   7.665   0.802   2.987
 2590TIP3   OH2 7646   7.085   0.549   2.185
 2590TIP3    H1 7647   7.138   0.505   2.117
 2590TIP3    H2 7648   7.152   0.605   2.227
 2591TIP3   OH2 7649   8.570   1.015   2.418
 2591TIP3    H1 7650   8.479   1.003   2.456
 2591TIP3    H2 7651   8.554   1.092   2.362
 2592TIP3   OH2 7652   8.372   1.097   2.142
 2592TIP3    H1 7653   8.330   1.013   2.111
 2592TIP3    H2 7654   8.356   1.154   2.066
 2593TIP3   OH2 7655   8.676   0.462   2.871
 2593TIP3    H1 7656   8.680   0.529   2.940
 2593TIP3    H2 7657   8.585   0.470   2.839
 2594TIP3   OH2 7658   7.669   0.434   2.414
 2594TIP3    H1 7659   7.617   0.422   2.332
 2594TIP3    H2 7660   7.730   0.358   2.405
 2595TIP3   OH2 7661   7.799   0.821   2.543
 2595TIP3    H1 7662   7.779   0.783   2.456
 2595TIP3    H2 7663   7.889   0.787   2.559
 2596TIP3   OH2 7664   7.823   0.378   2.755
 2596TIP3    H1 7665   7.840   0.381   2.660
 2596TIP3    H2 7666   7.854   0.467   2.784
 2597TIP3   OH2 7667   8.324   1.018   2.525
 2597TIP3    H1 7668   8.310   1.100   2.575
 2597TIP3    H2 7669   8.308   0.947   2.591
 2598TIP3   OH2 7670   7.954   0.926   3.072
 2598TIP3    H1 7671   7.893   0.989   3.118
 2598TIP3    H2 7672   7.888   0.876   3.021
 2599TIP3   OH2 7673   7.679   0.502   3.171
 2599TIP3    H1 7674   7.688   0.586   3.220
 2599TIP3    H2 7675   7.586   0.480   3.190
 2600TIP3   OH2 7676   7.971   0.999   2.130
 2600TIP3    H1 7677   8.065   1.001   2.108
 2600TIP3    H2 7678   7.929   1.048   2.058
 2601TIP3   OH2 7679   7.744   1.074   3.154
 2601TIP3    H1 7680   7.701   1.099   3.070
 2601TIP3    H2 7681   7.674   1.094   3.219
 2602TIP3   OH2 7682   7.317   0.638   3.109
 2602TIP3    H1 7683   7.253   0.617   3.038
 2602TIP3    H2 7684   7.353   0.549   3.132
 2603TIP3   OH2 7685   7.175   0.831   2.742
 2603TIP3    H1 7686   7.271   0.822   2.730
 2603TIP3    H2 7687   7.170   0.910   2.797
 2604TIP3   OH2 7688   8.146   1.061   2.928
 2604TIP3    H1 7689   8.149   1.154   2.961
 2604TIP3    H2 7690   8.075   1.024   2.985
 2605TIP3   OH2 7691   7.908   1.199   1.882
 2605TIP3    H1 7692   7.842   1.170   1.818
 2605TIP3    H2 7693   7.879   1.288   1.907
 2606TIP3   OH2 7694   7.345   1.051   2.267
 2606TIP3    H1 7695   7.392   1.039   2.352
 2606TIP3    H2 7696   7.294   0.967   2.265
 2607TIP3   OH2 7697   8.167   1.143   1.834
 2607TIP3    H1 7698   8.074   1.172   1.852
 2607TIP3    H2 7699   8.149   1.071   1.769
 2608TIP3   OH2 7700   7.525   0.818   3.093
 2608TIP3    H1 7701   7.575   0.810   3.176
 2608TIP3    H2 7702   7.451   0.755   3.105
 2609TIP3   OH2 7703   7.862   0.159   2.910
 2609TIP3    H1 7704   7.801   0.182   2.983
 2609TIP3    H2 7705   7.847   0.235   2.849
 2610TIP3   OH2 7706   8.407   0.442   3.172
 2610TIP3    H1 7707   8.417   0.538   3.159
 2610TIP3    H2 7708   8.466   0.428   3.249
 2611TIP3   OH2 7709   7.675   0.202   3.105
 2611TIP3    H1 7710   7.692   0.256   3.183
 2611TIP3    H2 7711   7.640   0.120   3.143
 2612TIP3   OH2 7712   8.391   0.398   2.787
 2612TIP3    H1 7713   8.445   0.321   2.766
 2612TIP3    H2 7714   8.355   0.369   2.874
 2613TIP3   OH2 7715   8.723   1.637   2.894
 2613TIP3    H1 7716   8.728   1.657   2.798
 2613TIP3    H2 7717   8.792   1.696   2.928
 2614TIP3   OH2 7718   7.685   0.739   3.318
 2614TIP3    H1 7719   7.766   0.773   3.361
 2614TIP3    H2 7720   7.622   0.746   3.392
 2615TIP3   OH2 7721   8.119   0.066   2.911
 2615TIP3    H1 7722   8.039   0.116   2.887
 2615TIP3    H2 7723   8.184   0.136   2.927
 2616TIP3   OH2 7724   8.279   0.811   2.955
 2616TIP3    H1 7725   8.272   0.779   3.046
 2616TIP3    H2 7726   8.226   0.892   2.957
 2617TIP3   OH2 7727   7.552   0.510   2.649
 2617TIP3    H1 7728   7.591   0.485   2.563
 2617TIP3    H2 7729   7.581   0.438   2.706
 2618TIP3   OH2 7730   7.427   0.426   3.250
 2618TIP3    H1 7731   7.450   0.407   3.343
 2618TIP3    H2 7732   7.358   0.359   3.232
 2619TIP3   OH2 7733   8.160   0.540   3.278
 2619TIP3    H1 7734   8.079   0.508   3.232
 2619TIP3    H2 7735   8.230   0.494   3.228
 2620TIP3   OH2 7736   8.424   1.063   2.846
 2620TIP3    H1 7737   8.328   1.058   2.862
 2620TIP3    H2 7738   8.453   1.113   2.925
 2621TIP3   OH2 7739   7.657   0.806   2.260
 2621TIP3    H1 7740   7.666   0.886   2.204
 2621TIP3    H2 7741   7.562   0.791   2.256
 2622TIP3   OH2 7742   7.834   0.587   2.242
 2622TIP3    H1 7743   7.789   0.671   2.225
 2622TIP3    H2 7744   7.771   0.544   2.302
 2623TIP3   OH2 7745   7.926   1.152   2.727
 2623TIP3    H1 7746   7.966   1.228   2.681
 2623TIP3    H2 7747   8.001   1.119   2.779
 2624TIP3   OH2 7748   7.580   1.049   2.111
 2624TIP3    H1 7749   7.493   1.052   2.155
 2624TIP3    H2 7750   7.607   1.143   2.116
 2625TIP3   OH2 7751   8.313   0.788   2.687
 2625TIP3    H1 7752   8.305   0.792   2.785
 2625TIP3    H2 7753   8.393   0.736   2.676
 2626TIP3   OH2 7754   8.552   1.316   2.738
 2626TIP3    H1 7755   8.470   1.264   2.725
 2626TIP3    H2 7756   8.544   1.383   2.667
 2627TIP3   OH2 7757   7.363   1.017   2.888
 2627TIP3    H1 7758   7.418   0.941   2.914
 2627TIP3    H2 7759   7.398   1.084   2.949
 2628TIP3   OH2 7760   8.332   0.233   3.006
 2628TIP3    H1 7761   8.348   0.304   3.071
 2628TIP3    H2 7762   8.378   0.157   3.046
 2629TIP3   OH2 7763   7.548   0.946   1.847
 2629TIP3    H1 7764   7.559   1.030   1.799
 2629TIP3    H2 7765   7.576   0.968   1.938
 2630TIP3   OH2 7766   8.611   1.312   2.316
 2630TIP3    H1 7767   8.556   1.272   2.247
 2630TIP3    H2 7768   8.695   1.262   2.303
 2631TIP3   OH2 7769   7.212   0.806   2.242
 2631TIP3    H1 7770   7.128   0.810   2.288
 2631TIP3    H2 7771   7.183   0.827   2.151
 2632TIP3   OH2 7772   7.351   1.320   3.312
 2632TIP3    H1 7773   7.448   1.322   3.325
 2632TIP3    H2 7774   7.335   1.225   3.310
 2633TIP3   OH2 7775   8.482   1.190   3.084
 2633TIP3    H1 7776   8.474   1.120   3.153
 2633TIP3    H2 7777   8.551   1.247   3.122
 2634TIP3   OH2 7778   7.485   0.730   3.510
 2634TIP3    H1 7779   7.503   0.634   3.511
 2634TIP3    H2 7780   7.398   0.733   3.464
 2635TIP3   OH2 7781   8.097   0.815   3.281
 2635TIP3    H1 7782   8.049   0.831   3.196
 2635TIP3    H2 7783   8.122   0.721   3.275
 2636TIP3   OH2 7784   8.591   0.824   2.882
 2636TIP3    H1 7785   8.637   0.877   2.816
 2636TIP3    H2 7786   8.508   0.873   2.890
 2637TIP3   OH2 7787   7.602   0.458   3.493
 2637TIP3    H1 7788   7.680   0.406   3.469
 2637TIP3    H2 7789   7.629   0.492   3.581
 2638TIP3   OH2 7790   7.943   0.451   3.148
 2638TIP3    H1 7791   7.846   0.469   3.153
 2638TIP3    H2 7792   7.949   0.400   3.066
 2639TIP3   OH2 7793   8.452   0.714   3.266
 2639TIP3    H1 7794   8.542   0.748   3.256
 2639TIP3    H2 7795   8.454   0.676   3.356
 2640TIP3   OH2 7796   7.989   0.197   3.258
 2640TIP3    H1 7797   8.026   0.111   3.232
 2640TIP3    H2 7798   8.044   0.261   3.210
 2641TIP3   OH2 7799   8.139   0.474   2.937
 2641TIP3    H1 7800   8.187   0.485   2.854
 2641TIP3    H2 7801   8.062   0.532   2.923
 2642TIP3   OH2 7802   8.678   0.430   3.344
 2642TIP3    H1 7803   8.722   0.346   3.334
 2642TIP3    H2 7804   8.744   0.495   3.315
 2643TIP3   OH2 7805   8.738   0.688   3.067
 2643TIP3    H1 7806   8.669   0.737   3.014
 2643TIP3    H2 7807   8.816   0.706   3.012
 2644TIP3   OH2 7808   7.923   0.266   3.510
 2644TIP3    H1 7809   7.851   0.202   3.513
 2644TIP3    H2 7810   7.958   0.246   3.421
 2645TIP3   OH2 7811   8.405   0.312   3.431
 2645TIP3    H1 7812   8.325   0.301   3.484
 2645TIP3    H2 7813   8.385   0.256   3.355
 2646TIP3   OH2 7814   7.587   1.160   1.673
 2646TIP3    H1 7815   7.651   1.232   1.682
 2646TIP3    H2 7816   7.537   1.195   1.597
 2647TIP3   OH2 7817   6.973   1.136   2.296
 2647TIP3    H1 7818   6.906   1.072   2.263
 2647TIP3    H2 7819   7.018   1.081   2.364
 2648TIP3   OH2 7820   7.103   0.994   2.489
 2648TIP3    H1 7821   7.098   0.914   2.543
 2648TIP3    H2 7822   7.160   1.050   2.545
 2649TIP3   OH2 7823   8.723   1.119   2.626
 2649TIP3    H1 7824   8.654   1.175   2.666
 2649TIP3    H2 7825   8.673   1.072   2.556
 2650TIP3   OH2 7826   7.296   0.391   2.859
 2650TIP3    H1 7827   7.292   0.363   2.764
 2650TIP3    H2 7828   7.394   0.393   2.872
 2651TIP3   OH2 7829   7.293   0.052   2.942
 2651TIP3    H1 7830   7.344   0.047   2.859
 2651TIP3    H2 7831   7.307   0.144   2.965
 2652TIP3   OH2 7832   8.450   1.296   1.943
 2652TIP3    H1 7833   8.414   1.242   1.869
 2652TIP3    H2 7834   8.519   1.342   1.894
 2653TIP3   OH2 7835   7.514   1.060   3.333
 2653TIP3    H1 7836   7.423   1.029   3.317
 2653TIP3    H2 7837   7.527   1.042   3.427
 2654TIP3   OH2 7838   7.694   1.084   2.864
 2654TIP3    H1 7839   7.650   1.165   2.830
 2654TIP3    H2 7840   7.783   1.100   2.825
 2655TIP3   OH2 7841   8.155   1.322   3.010
 2655TIP3    H1 7842   8.188   1.333   3.101
 2655TIP3    H2 7843   8.213   1.384   2.961
 2656TIP3   OH2 7844   8.327   1.486   2.869
 2656TIP3    H1 7845   8.401   1.432   2.837
 2656TIP3    H2 7846   8.373   1.545   2.932
 2657TIP3   OH2 7847   7.376   1.348   2.895
 2657TIP3    H1 7848   7.286   1.385   2.879
 2657TIP3    H2 7849   7.391   1.378   2.986
 2658TIP3   OH2 7850   7.611   1.325   2.754
 2658TIP3    H1 7851   7.525   1.338   2.801
 2658TIP3    H2 7852   7.589   1.357   2.665
 2659TIP3   OH2 7853   8.041   1.358   2.549
 2659TIP3    H1 7854   7.965   1.379   2.491
 2659TIP3    H2 7855   8.051   1.442   2.599
 2660TIP3   OH2 7856   8.306   1.292   2.599
 2660TIP3    H1 7857   8.211   1.309   2.580
 2660TIP3    H2 7858   8.345   1.377   2.575
 2661TIP3   OH2 7859   8.517   1.481   2.525
 2661TIP3    H1 7860   8.494   1.565   2.481
 2661TIP3    H2 7861   8.551   1.428   2.450
 2662TIP3   OH2 7862   7.287   1.141   2.645
 2662TIP3    H1 7863   7.315   1.116   2.736
 2662TIP3    H2 7864   7.359   1.097   2.594
 2663TIP3   OH2 7865   7.481   1.014   2.501
 2663TIP3    H1 7866   7.496   0.928   2.547
 2663TIP3    H2 7867   7.572   1.049   2.496
 2664TIP3   OH2 7868   7.748   1.112   2.500
 2664TIP3    H1 7869   7.779   1.021   2.482
 2664TIP3    H2 7870   7.790   1.126   2.587
 2665TIP3   OH2 7871   7.077   0.907   2.029
 2665TIP3    H1 7872   6.990   0.876   2.000
 2665TIP3    H2 7873   7.064   1.003   2.026
 2666TIP3   OH2 7874   7.174   0.969   1.698
 2666TIP3    H1 7875   7.149   0.994   1.788
 2666TIP3    H2 7876   7.249   0.908   1.715
 2667TIP3   OH2 7877   8.763   1.368   2.910
 2667TIP3    H1 7878   8.696   1.329   2.850
 2667TIP3    H2 7879   8.740   1.463   2.901
 2668TIP3   OH2 7880   0.955   1.556   3.939
 2668TIP3    H1 7881   0.954   1.499   4.017
 2668TIP3    H2 7882   0.987   1.640   3.976
 2669TIP3   OH2 7883   0.609   2.034   3.948
 2669TIP3    H1 7884   0.650   1.964   3.893
 2669TIP3    H2 7885   0.596   1.987   4.031
 2670TIP3   OH2 7886   0.515   1.487   4.323
 2670TIP3    H1 7887   0.518   1.447   4.236
 2670TIP3    H2 7888   0.606   1.523   4.331
 2671TIP3   OH2 7889   1.526   0.811   4.297
 2671TIP3    H1 7890   1.557   0.896   4.334
 2671TIP3    H2 7891   1.548   0.824   4.203
 2672TIP3   OH2 7892   1.602   1.021   4.466
 2672TIP3    H1 7893   1.520   1.070   4.444
 2672TIP3    H2 7894   1.616   1.051   4.557
 2673TIP3   OH2 7895   0.370   1.414   4.542
 2673TIP3    H1 7896   0.303   1.482   4.561
 2673TIP3    H2 7897   0.413   1.447   4.460
 2674TIP3   OH2 7898   0.189   1.610   4.624
 2674TIP3    H1 7899   0.165   1.697   4.586
 2674TIP3    H2 7900   0.107   1.590   4.675
 2675TIP3   OH2 7901   1.026   1.811   4.093
 2675TIP3    H1 7902   0.936   1.805   4.133
 2675TIP3    H2 7903   1.022   1.899   4.052
 2676TIP3   OH2 7904   1.321   0.713   4.460
 2676TIP3    H1 7905   1.242   0.765   4.440
 2676TIP3    H2 7906   1.382   0.741   4.389
 2677TIP3   OH2 7907   0.745   1.858   3.786
 2677TIP3    H1 7908   0.820   1.798   3.792
 2677TIP3    H2 7909   0.781   1.926   3.724
 2678TIP3   OH2 7910   1.254   1.724   4.442
 2678TIP3    H1 7911   1.245   1.648   4.381
 2678TIP3    H2 7912   1.238   1.800   4.382
 2679TIP3   OH2 7913   1.450   1.362   4.286
 2679TIP3    H1 7914   1.367   1.415   4.290
 2679TIP3    H2 7915   1.480   1.385   4.195
 2680TIP3   OH2 7916   1.135   1.244   4.582
 2680TIP3    H1 7917   1.128   1.328   4.630
 2680TIP3    H2 7918   1.045   1.241   4.540
 2681TIP3   OH2 7919   0.785   1.809   4.218
 2681TIP3    H1 7920   0.778   1.887   4.276
 2681TIP3    H2 7921   0.774   1.734   4.279
 2682TIP3   OH2 7922   0.401   1.733   4.761
 2682TIP3    H1 7923   0.337   1.788   4.810
 2682TIP3    H2 7924   0.339   1.674   4.711
 2683TIP3   OH2 7925   0.147   1.283   4.868
 2683TIP3    H1 7926   0.149   1.375   4.900
 2683TIP3    H2 7927   0.060   1.276   4.827
 2684TIP3   OH2 7928   0.191   1.896   4.853
 2684TIP3    H1 7929   0.159   1.898   4.761
 2684TIP3    H2 7930   0.109   1.875   4.903
 2685TIP3   OH2 7931   1.497   2.069   4.487
 2685TIP3    H1 7932   1.491   1.973   4.500
 2685TIP3    H2 7933   1.412   2.098   4.528
 2686TIP3   OH2 7934   0.597   1.855   4.614
 2686TIP3    H1 7935   0.622   1.931   4.667
 2686TIP3    H2 7936   0.524   1.815   4.667
 2687TIP3   OH2 7937   1.381   1.202   4.761
 2687TIP3    H1 7938   1.301   1.215   4.708
 2687TIP3    H2 7939   1.395   1.105   4.751
 2688TIP3   OH2 7940  -0.029   1.589   4.794
 2688TIP3    H1 7941   0.031   1.590   4.872
 2688TIP3    H2 7942  -0.108   1.546   4.830
 2689TIP3   OH2 7943   0.914   0.563   4.775
 2689TIP3    H1 7944   0.993   0.526   4.819
 2689TIP3    H2 7945   0.842   0.528   4.828
 2690TIP3   OH2 7946   1.157   0.978   4.682
 2690TIP3    H1 7947   1.104   0.971   4.764
 2690TIP3    H2 7948   1.127   1.064   4.646
 2691TIP3   OH2 7949   0.860   1.207   4.927
 2691TIP3    H1 7950   0.844   1.129   4.983
 2691TIP3    H2 7951   0.956   1.217   4.938
 2692TIP3   OH2 7952   0.878   1.200   4.487
 2692TIP3    H1 7953   0.867   1.127   4.426
 2692TIP3    H2 7954   0.841   1.160   4.569
 2693TIP3   OH2 7955   1.181   2.421   4.586
 2693TIP3    H1 7956   1.180   2.441   4.490
 2693TIP3    H2 7957   1.262   2.468   4.615
 2694TIP3   OH2 7958   0.144   1.541   5.007
 2694TIP3    H1 7959   0.232   1.578   5.026
 2694TIP3    H2 7960   0.119   1.516   5.097
 2695TIP3   OH2 7961   1.219   1.510   4.275
 2695TIP3    H1 7962   1.247   1.560   4.195
 2695TIP3    H2 7963   1.132   1.474   4.247
 2696TIP3   OH2 7964   0.724   1.592   4.639
 2696TIP3    H1 7965   0.742   1.560   4.729
 2696TIP3    H2 7966   0.678   1.676   4.653
 2697TIP3   OH2 7967   0.612   1.325   4.959
 2697TIP3    H1 7968   0.554   1.273   4.901
 2697TIP3    H2 7969   0.700   1.294   4.929
 2698TIP3   OH2 7970   0.881   1.844   4.531
 2698TIP3    H1 7971   0.785   1.843   4.545
 2698TIP3    H2 7972   0.911   1.895   4.609
 2699TIP3   OH2 7973   1.505   1.776   4.531
 2699TIP3    H1 7974   1.407   1.774   4.522
 2699TIP3    H2 7975   1.530   1.748   4.440
 2700TIP3   OH2 7976   0.982   1.383   4.196
 2700TIP3    H1 7977   0.898   1.360   4.237
 2700TIP3    H2 7978   1.019   1.292   4.182
 2701TIP3   OH2 7979   0.382   1.935   4.429
 2701TIP3    H1 7980   0.417   1.999   4.364
 2701TIP3    H2 7981   0.464   1.897   4.465
 2702TIP3   OH2 7982   0.777   1.569   4.373
 2702TIP3    H1 7983   0.760   1.571   4.470
 2702TIP3    H2 7984   0.868   1.537   4.371
 2703TIP3   OH2 7985   1.018   2.108   4.424
 2703TIP3    H1 7986   0.937   2.055   4.417
 2703TIP3    H2 7987   1.002   2.177   4.356
 2704TIP3   OH2 7988  -0.195   1.796   4.619
 2704TIP3    H1 7989  -0.131   1.725   4.613
 2704TIP3    H2 7990  -0.140   1.873   4.639
 2705TIP3   OH2 7991   0.926   0.801   4.635
 2705TIP3    H1 7992   1.017   0.822   4.658
 2705TIP3    H2 7993   0.916   0.711   4.673
 2706TIP3   OH2 7994   0.796   1.054   4.694
 2706TIP3    H1 7995   0.805   1.087   4.785
 2706TIP3    H2 7996   0.826   0.961   4.700
 2707TIP3   OH2 7997   1.422   0.932   4.683
 2707TIP3    H1 7998   1.324   0.932   4.689
 2707TIP3    H2 7999   1.433   0.902   4.592
 2708TIP3   OH2 8000   1.040   1.121   4.155
 2708TIP3    H1 8001   0.992   1.043   4.123
 2708TIP3    H2 8002   1.130   1.083   4.170
 2709TIP3   OH2 8003   1.037   2.081   4.019
 2709TIP3    H1 8004   0.996   2.133   3.947
 2709TIP3    H2 8005   1.132   2.101   4.000
 2710TIP3   OH2 8006  -0.176   2.121   4.977
 2710TIP3    H1 8007  -0.100   2.122   5.039
 2710TIP3    H2 8008  -0.208   2.031   4.989
 2711TIP3   OH2 8009   0.312   2.089   5.012
 2711TIP3    H1 8010   0.384   2.035   5.049
 2711TIP3    H2 8011   0.268   2.023   4.954
 2712TIP3   OH2 8012   0.920   1.980   4.767
 2712TIP3    H1 8013   0.910   1.921   4.845
 2712TIP3    H2 8014   0.995   2.037   4.796
 2713TIP3   OH2 8015   0.540   1.597   4.970
 2713TIP3    H1 8016   0.509   1.613   4.880
 2713TIP3    H2 8017   0.577   1.506   4.965
 2714TIP3   OH2 8018   1.039   1.608   4.574
 2714TIP3    H1 8019   1.115   1.655   4.533
 2714TIP3    H2 8020   0.969   1.676   4.563
 2715TIP3   OH2 8021   0.393   1.141   4.851
 2715TIP3    H1 8022   0.308   1.188   4.842
 2715TIP3    H2 8023   0.440   1.169   4.770
 2716TIP3   OH2 8024   0.909   1.540   4.978
 2716TIP3    H1 8025   0.988   1.519   4.926
 2716TIP3    H2 8026   0.909   1.469   5.044
 2717TIP3   OH2 8027   0.546   0.932   4.958
 2717TIP3    H1 8028   0.513   0.870   4.892
 2717TIP3    H2 8029   0.491   1.011   4.936
 2718TIP3   OH2 8030   0.551   1.256   4.663
 2718TIP3    H1 8031   0.623   1.244   4.600
 2718TIP3    H2 8032   0.490   1.315   4.614
 2719TIP3   OH2 8033   1.130   1.217   5.033
 2719TIP3    H1 8034   1.177   1.132   5.031
 2719TIP3    H2 8035   1.197   1.277   4.996
 2720TIP3   OH2 8036   1.168   1.469   4.766
 2720TIP3    H1 8037   1.111   1.521   4.705
 2720TIP3    H2 8038   1.256   1.488   4.726
 2721TIP3   OH2 8039   0.797   0.980   5.060
 2721TIP3    H1 8040   0.787   0.983   5.157
 2721TIP3    H2 8041   0.705   0.962   5.029
 2722TIP3   OH2 8042   1.026   0.936   4.913
 2722TIP3    H1 8043   0.947   0.934   4.971
 2722TIP3    H2 8044   1.096   0.900   4.970
 2723TIP3   OH2 8045   1.249   0.870   5.067
 2723TIP3    H1 8046   1.260   0.774   5.085
 2723TIP3    H2 8047   1.243   0.909   5.156
 2724TIP3   OH2 8048   1.286   2.174   3.973
 2724TIP3    H1 8049   1.321   2.221   4.050
 2724TIP3    H2 8050   1.310   2.235   3.901
 2725TIP3   OH2 8051   1.313   2.199   4.262
 2725TIP3    H1 8052   1.277   2.109   4.250
 2725TIP3    H2 8053   1.394   2.179   4.310
 2726TIP3   OH2 8054   1.366   1.870   4.831
 2726TIP3    H1 8055   1.290   1.882   4.891
 2726TIP3    H2 8056   1.405   1.960   4.832
 2727TIP3   OH2 8057   1.310   1.258   3.642
 2727TIP3    H1 8058   1.261   1.204   3.705
 2727TIP3    H2 8059   1.386   1.288   3.695
 2728TIP3   OH2 8060   1.362   1.643   4.085
 2728TIP3    H1 8061   1.414   1.580   4.032
 2728TIP3    H2 8062   1.360   1.722   4.027
 2729TIP3   OH2 8063   1.195   1.941   4.283
 2729TIP3    H1 8064   1.125   1.988   4.332
 2729TIP3    H2 8065   1.145   1.897   4.211
 2730TIP3   OH2 8066   1.411   1.533   4.657
 2730TIP3    H1 8067   1.484   1.468   4.647
 2730TIP3    H2 8068   1.437   1.604   4.596
 2731TIP3   OH2 8069   1.597   1.339   4.675
 2731TIP3    H1 8070   1.522   1.290   4.714
 2731TIP3    H2 8071   1.669   1.275   4.689
 2732TIP3   OH2 8072   1.285   1.012   4.198
 2732TIP3    H1 8073   1.370   1.028   4.151
 2732TIP3    H2 8074   1.310   1.046   4.286
 2733TIP3   OH2 8075   1.354   1.146   4.429
 2733TIP3    H1 8076   1.274   1.180   4.475
 2733TIP3    H2 8077   1.385   1.226   4.381
 2734TIP3   OH2 8078   1.800   0.732   4.978
 2734TIP3    H1 8079   1.858   0.668   4.933
 2734TIP3    H2 8080   1.770   0.789   4.904
 2735TIP3   OH2 8081   1.674   0.874   4.786
 2735TIP3    H1 8082   1.586   0.915   4.804
 2735TIP3    H2 8083   1.645   0.803   4.725
 2736TIP3   OH2 8084   0.872   2.047   3.635
 2736TIP3    H1 8085   0.912   2.027   3.549
 2736TIP3    H2 8086   0.934   2.111   3.672
 2737TIP3   OH2 8087  -0.036   1.838   5.020
 2737TIP3    H1 8088  -0.114   1.784   5.003
 2737TIP3    H2 8089  -0.028   1.835   5.116
 2738TIP3   OH2 8090   0.149   1.880   4.568
 2738TIP3    H1 8091   0.104   1.956   4.526
 2738TIP3    H2 8092   0.237   1.892   4.525
 2739TIP3   OH2 8093   0.759   2.284   4.557
 2739TIP3    H1 8094   0.822   2.220   4.523
 2739TIP3    H2 8095   0.816   2.333   4.620
 2740TIP3   OH2 8096   1.573   0.638   4.663
 2740TIP3    H1 8097   1.483   0.635   4.627
 2740TIP3    H2 8098   1.601   0.545   4.650
 2741TIP3   OH2 8099  -0.170   2.146   4.584
 2741TIP3    H1 8100  -0.262   2.173   4.566
 2741TIP3    H2 8101  -0.166   2.159   4.680
 2742TIP3   OH2 8102   0.072   2.121   4.454
 2742TIP3    H1 8103  -0.018   2.135   4.492
 2742TIP3    H2 8104   0.056   2.133   4.359
 2743TIP3   OH2 8105   0.496   2.130   4.243
 2743TIP3    H1 8106   0.416   2.146   4.187
 2743TIP3    H2 8107   0.497   2.207   4.300
 2744TIP3   OH2 8108   0.763   2.083   4.303
 2744TIP3    H1 8109   0.673   2.092   4.267
 2744TIP3    H2 8110   0.813   2.148   4.251
 2745TIP3   OH2 8111   0.956   2.271   4.205
 2745TIP3    H1 8112   0.954   2.356   4.156
 2745TIP3    H2 8113   0.994   2.211   4.137
 2746TIP3   OH2 8114   0.200   1.943   4.198
 2746TIP3    H1 8115   0.198   1.871   4.131
 2746TIP3    H2 8116   0.247   1.901   4.272
 2747TIP3   OH2 8117   1.001   2.000   3.390
 2747TIP3    H1 8118   1.000   1.908   3.359
 2747TIP3    H2 8119   0.967   2.046   3.311
 2748TIP3   OH2 8120   1.303   0.599   5.097
 2748TIP3    H1 8121   1.326   0.568   5.187
 2748TIP3    H2 8122   1.390   0.594   5.052
 2749TIP3   OH2 8123   1.252   2.154   4.581
 2749TIP3    H1 8124   1.171   2.120   4.537
 2749TIP3    H2 8125   1.229   2.249   4.587
 2750TIP3   OH2 8126   2.492   1.527   3.340
 2750TIP3    H1 8127   2.479   1.623   3.338
 2750TIP3    H2 8128   2.408   1.498   3.303
 2751TIP3   OH2 8129   2.520   1.523   3.729
 2751TIP3    H1 8130   2.540   1.490   3.818
 2751TIP3    H2 8131   2.468   1.450   3.692
 2752TIP3   OH2 8132   1.810   1.420   4.100
 2752TIP3    H1 8133   1.844   1.353   4.162
 2752TIP3    H2 8134   1.888   1.477   4.088
 2753TIP3   OH2 8135   2.754   1.823   3.414
 2753TIP3    H1 8136   2.739   1.753   3.479
 2753TIP3    H2 8137   2.773   1.899   3.470
 2754TIP3   OH2 8138   1.784   1.829   3.827
 2754TIP3    H1 8139   1.774   1.731   3.830
 2754TIP3    H2 8140   1.880   1.836   3.814
 2755TIP3   OH2 8141   1.548   1.319   3.780
 2755TIP3    H1 8142   1.599   1.243   3.816
 2755TIP3    H2 8143   1.599   1.343   3.702
 2756TIP3   OH2 8144   2.400   2.288   3.432
 2756TIP3    H1 8145   2.456   2.220   3.388
 2756TIP3    H2 8146   2.391   2.251   3.521
 2757TIP3   OH2 8147   2.307   1.751   3.787
 2757TIP3    H1 8148   2.334   1.680   3.727
 2757TIP3    H2 8149   2.395   1.789   3.808
 2758TIP3   OH2 8150   3.323   1.069   3.781
 2758TIP3    H1 8151   3.350   1.152   3.824
 2758TIP3    H2 8152   3.342   1.088   3.688
 2759TIP3   OH2 8153   2.721   1.251   3.816
 2759TIP3    H1 8154   2.763   1.165   3.834
 2759TIP3    H2 8155   2.689   1.238   3.725
 2760TIP3   OH2 8156   2.062   0.911   3.783
 2760TIP3    H1 8157   2.036   0.981   3.719
 2760TIP3    H2 8158   2.017   0.833   3.744
 2761TIP3   OH2 8159   2.751   1.002   3.406
 2761TIP3    H1 8160   2.827   0.986   3.468
 2761TIP3    H2 8161   2.799   1.037   3.329
 2762TIP3   OH2 8162   1.695   1.114   3.889
 2762TIP3    H1 8163   1.776   1.095   3.939
 2762TIP3    H2 8164   1.708   1.055   3.812
 2763TIP3   OH2 8165   2.132   1.310   3.682
 2763TIP3    H1 8166   2.226   1.285   3.693
 2763TIP3    H2 8167   2.093   1.227   3.648
 2764TIP3   OH2 8168   3.395   1.277   3.952
 2764TIP3    H1 8169   3.312   1.325   3.935
 2764TIP3    H2 8170   3.418   1.309   4.041
 2765TIP3   OH2 8171   2.055   0.894   4.215
 2765TIP3    H1 8172   1.995   0.930   4.147
 2765TIP3    H2 8173   2.003   0.913   4.296
 2766TIP3   OH2 8174   2.164   1.669   4.013
 2766TIP3    H1 8175   2.100   1.734   4.049
 2766TIP3    H2 8176   2.203   1.718   3.938
 2767TIP3   OH2 8177   2.966   1.002   3.574
 2767TIP3    H1 8178   2.954   0.954   3.656
 2767TIP3    H2 8179   3.018   1.080   3.602
 2768TIP3   OH2 8180   1.927   1.010   4.000
 2768TIP3    H1 8181   1.989   1.082   4.023
 2768TIP3    H2 8182   1.975   0.970   3.924
 2769TIP3   OH2 8183   1.991   1.862   4.109
 2769TIP3    H1 8184   1.964   1.946   4.067
 2769TIP3    H2 8185   1.912   1.847   4.164
 2770TIP3   OH2 8186   1.385   1.561   3.348
 2770TIP3    H1 8187   1.360   1.594   3.260
 2770TIP3    H2 8188   1.421   1.643   3.389
 2771TIP3   OH2 8189   2.831   2.073   3.586
 2771TIP3    H1 8190   2.742   2.058   3.627
 2771TIP3    H2 8191   2.813   2.157   3.539
 2772TIP3   OH2 8192   3.114   0.968   3.947
 2772TIP3    H1 8193   3.027   0.997   3.916
 2772TIP3    H2 8194   3.173   1.000   3.875
 2773TIP3   OH2 8195   2.415   0.613   3.929
 2773TIP3    H1 8196   2.399   0.518   3.948
 2773TIP3    H2 8197   2.336   0.652   3.972
 2774TIP3   OH2 8198   2.550   2.122   3.280
 2774TIP3    H1 8199   2.580   2.035   3.245
 2774TIP3    H2 8200   2.598   2.182   3.218
 2775TIP3   OH2 8201   2.664   1.900   3.161
 2775TIP3    H1 8202   2.630   1.824   3.113
 2775TIP3    H2 8203   2.701   1.859   3.242
 2776TIP3   OH2 8204   3.056   1.979   3.924
 2776TIP3    H1 8205   3.035   1.899   3.870
 2776TIP3    H2 8206   3.022   2.051   3.867
 2777TIP3   OH2 8207   2.335   1.125   3.016
 2777TIP3    H1 8208   2.385   1.209   3.011
 2777TIP3    H2 8209   2.362   1.086   2.932
 2778TIP3   OH2 8210   3.248   1.621   3.772
 2778TIP3    H1 8211   3.163   1.670   3.778
 2778TIP3    H2 8212   3.277   1.647   3.683
 2779TIP3   OH2 8213   2.694   1.477   3.159
 2779TIP3    H1 8214   2.628   1.488   3.230
 2779TIP3    H2 8215   2.770   1.438   3.206
 2780TIP3   OH2 8216   2.925   1.497   4.067
 2780TIP3    H1 8217   2.921   1.581   4.117
 2780TIP3    H2 8218   2.838   1.499   4.023
 2781TIP3   OH2 8219   1.908   1.444   3.574
 2781TIP3    H1 8220   1.879   1.386   3.501
 2781TIP3    H2 8221   1.994   1.404   3.599
 2782TIP3   OH2 8222   2.049   1.865   3.715
 2782TIP3    H1 8223   2.030   1.820   3.632
 2782TIP3    H2 8224   2.138   1.830   3.736
 2783TIP3   OH2 8225   2.062   1.425   3.930
 2783TIP3    H1 8226   2.088   1.406   3.837
 2783TIP3    H2 8227   2.101   1.514   3.945
 2784TIP3   OH2 8228   2.591   2.063   3.705
 2784TIP3    H1 8229   2.569   2.143   3.756
 2784TIP3    H2 8230   2.570   1.991   3.767
 2785TIP3   OH2 8231   2.196   1.981   4.254
 2785TIP3    H1 8232   2.136   2.045   4.297
 2785TIP3    H2 8233   2.131   1.929   4.202
 2786TIP3   OH2 8234   2.554   1.300   2.994
 2786TIP3    H1 8235   2.581   1.382   3.040
 2786TIP3    H2 8236   2.538   1.334   2.904
 2787TIP3   OH2 8237   1.951   1.538   4.354
 2787TIP3    H1 8238   1.954   1.626   4.397
 2787TIP3    H2 8239   1.855   1.520   4.359
 2788TIP3   OH2 8240   2.274   2.029   3.230
 2788TIP3    H1 8241   2.332   2.068   3.296
 2788TIP3    H2 8242   2.194   2.083   3.233
 2789TIP3   OH2 8243   1.992   2.150   4.337
 2789TIP3    H1 8244   1.956   2.152   4.247
 2789TIP3    H2 8245   1.912   2.129   4.391
 2790TIP3   OH2 8246   3.047   0.558   3.029
 2790TIP3    H1 8247   2.965   0.572   3.081
 2790TIP3    H2 8248   3.055   0.644   2.983
 2791TIP3   OH2 8249   1.789   1.283   3.367
 2791TIP3    H1 8250   1.725   1.350   3.335
 2791TIP3    H2 8251   1.731   1.215   3.405
 2792TIP3   OH2 8252   2.840   1.926   2.576
 2792TIP3    H1 8253   2.847   2.023   2.564
 2792TIP3    H2 8254   2.934   1.899   2.565
 2793TIP3   OH2 8255   1.568   1.682   4.286
 2793TIP3    H1 8256   1.505   1.662   4.214
 2793TIP3    H2 8257   1.606   1.594   4.307
 2794TIP3   OH2 8258   1.422   1.873   3.927
 2794TIP3    H1 8259   1.516   1.875   3.907
 2794TIP3    H2 8260   1.408   1.961   3.965
 2795TIP3   OH2 8261   3.280   2.304   3.952
 2795TIP3    H1 8262   3.285   2.217   3.996
 2795TIP3    H2 8263   3.203   2.343   4.001
 2796TIP3   OH2 8264   2.395   2.110   4.109
 2796TIP3    H1 8265   2.395   2.204   4.140
 2796TIP3    H2 8266   2.322   2.073   4.163
 2797TIP3   OH2 8267   2.154   2.254   3.048
 2797TIP3    H1 8268   2.096   2.230   2.974
 2797TIP3    H2 8269   2.112   2.333   3.086
 2798TIP3   OH2 8270   1.596   2.090   3.443
 2798TIP3    H1 8271   1.641   2.081   3.529
 2798TIP3    H2 8272   1.525   2.025   3.453
 2799TIP3   OH2 8273   2.358   2.146   2.701
 2799TIP3    H1 8274   2.415   2.075   2.664
 2799TIP3    H2 8275   2.388   2.148   2.794
 2800TIP3   OH2 8276   2.406   2.185   2.973
 2800TIP3    H1 8277   2.317   2.201   3.012
 2800TIP3    H2 8278   2.444   2.126   3.040
 2801TIP3   OH2 8279   3.178   1.457   4.234
 2801TIP3    H1 8280   3.093   1.465   4.188
 2801TIP3    H2 8281   3.193   1.360   4.233
 2802TIP3   OH2 8282   1.775   1.863   4.273
 2802TIP3    H1 8283   1.822   1.848   4.357
 2802TIP3    H2 8284   1.699   1.802   4.281
 2803TIP3   OH2 8285   2.174   0.688   4.057
 2803TIP3    H1 8286   2.086   0.657   4.029
 2803TIP3    H2 8287   2.148   0.772   4.101
 2804TIP3   OH2 8288   2.706   0.805   4.251
 2804TIP3    H1 8289   2.773   0.777   4.317
 2804TIP3    H2 8290   2.621   0.785   4.296
 2805TIP3   OH2 8291   2.946   1.233   4.169
 2805TIP3    H1 8292   2.897   1.231   4.254
 2805TIP3    H2 8293   2.922   1.320   4.132
 2806TIP3   OH2 8294   2.646   1.341   2.710
 2806TIP3    H1 8295   2.576   1.350   2.644
 2806TIP3    H2 8296   2.678   1.432   2.719
 2807TIP3   OH2 8297   2.108   1.204   4.078
 2807TIP3    H1 8298   2.054   1.225   4.157
 2807TIP3    H2 8299   2.092   1.284   4.023
 2808TIP3   OH2 8300   1.989   1.088   3.592
 2808TIP3    H1 8301   1.892   1.075   3.596
 2808TIP3    H2 8302   2.008   1.051   3.503
 2809TIP3   OH2 8303   2.480   1.188   3.307
 2809TIP3    H1 8304   2.416   1.244   3.261
 2809TIP3    H2 8305   2.528   1.150   3.231
 2810TIP3   OH2 8306   2.656   1.459   4.410
 2810TIP3    H1 8307   2.635   1.382   4.468
 2810TIP3    H2 8308   2.752   1.467   4.424
 2811TIP3   OH2 8309   2.636   1.207   3.555
 2811TIP3    H1 8310   2.578   1.239   3.482
 2811TIP3    H2 8311   2.669   1.125   3.512
 2812TIP3   OH2 8312   1.927   1.234   4.284
 2812TIP3    H1 8313   1.944   1.300   4.353
 2812TIP3    H2 8314   1.912   1.153   4.336
 2813TIP3   OH2 8315   2.652   1.452   3.982
 2813TIP3    H1 8316   2.682   1.380   3.922
 2813TIP3    H2 8317   2.619   1.399   4.057
 2814TIP3   OH2 8318   2.320   0.915   3.653
 2814TIP3    H1 8319   2.235   0.911   3.701
 2814TIP3    H2 8320   2.383   0.915   3.726
 2815TIP3   OH2 8321   1.745   0.960   3.670
 2815TIP3    H1 8322   1.659   0.970   3.625
 2815TIP3    H2 8323   1.778   0.878   3.632
 2816TIP3   OH2 8324   2.054   0.982   3.353
 2816TIP3    H1 8325   2.151   0.984   3.337
 2816TIP3    H2 8326   2.018   1.025   3.275
 2817TIP3   OH2 8327   2.808   0.987   3.853
 2817TIP3    H1 8328   2.771   1.001   3.944
 2817TIP3    H2 8329   2.741   0.926   3.816
 2818TIP3   OH2 8330   2.979   2.675   4.072
 2818TIP3    H1 8331   2.974   2.703   3.979
 2818TIP3    H2 8332   3.053   2.729   4.105
 2819TIP3   OH2 8333   1.934   1.784   4.493
 2819TIP3    H1 8334   2.012   1.821   4.540
 2819TIP3    H2 8335   1.868   1.787   4.565
 2820TIP3   OH2 8336   2.400   1.241   3.750
 2820TIP3    H1 8337   2.472   1.202   3.697
 2820TIP3    H2 8338   2.411   1.196   3.835
 2821TIP3   OH2 8339   1.952   0.706   3.638
 2821TIP3    H1 8340   1.965   0.612   3.656
 2821TIP3    H2 8341   2.004   0.717   3.557
 2822TIP3   OH2 8342   2.376   1.134   4.042
 2822TIP3    H1 8343   2.286   1.171   4.051
 2822TIP3    H2 8344   2.432   1.198   4.090
 2823TIP3   OH2 8345   3.010   1.762   3.766
 2823TIP3    H1 8346   3.035   1.809   3.684
 2823TIP3    H2 8347   2.926   1.718   3.741
 2824TIP3   OH2 8348   2.554   0.832   2.994
 2824TIP3    H1 8349   2.460   0.854   2.993
 2824TIP3    H2 8350   2.592   0.922   2.995
 2825TIP3   OH2 8351   2.520   1.851   4.129
 2825TIP3    H1 8352   2.529   1.825   4.222
 2825TIP3    H2 8353   2.473   1.936   4.135
 2826TIP3   OH2 8354   2.650   1.072   3.101
 2826TIP3    H1 8355   2.743   1.094   3.114
 2826TIP3    H2 8356   2.618   1.147   3.046
 2827TIP3   OH2 8357   1.808   1.552   3.812
 2827TIP3    H1 8358   1.836   1.521   3.724
 2827TIP3    H2 8359   1.842   1.482   3.870
 2828TIP3   OH2 8360   1.686   1.468   4.421
 2828TIP3    H1 8361   1.703   1.455   4.517
 2828TIP3    H2 8362   1.614   1.405   4.405
 2829TIP3   OH2 8363   2.408   1.582   4.445
 2829TIP3    H1 8364   2.347   1.526   4.393
 2829TIP3    H2 8365   2.495   1.549   4.413
 2830TIP3   OH2 8366   2.676   2.109   4.023
 2830TIP3    H1 8367   2.580   2.103   4.036
 2830TIP3    H2 8368   2.702   2.158   4.104
 2831TIP3   OH2 8369   3.087   1.175   2.937
 2831TIP3    H1 8370   3.028   1.129   2.873
 2831TIP3    H2 8371   3.081   1.265   2.897
 2832TIP3   OH2 8372   3.312   2.028   3.987
 2832TIP3    H1 8373   3.214   2.019   3.987
 2832TIP3    H2 8374   3.341   1.942   3.950
 2833TIP3   OH2 8375   2.787   1.994   2.845
 2833TIP3    H1 8376   2.753   1.926   2.906
 2833TIP3    H2 8377   2.793   1.946   2.761
 2834TIP3   OH2 8378   2.780   1.626   3.682
 2834TIP3    H1 8379   2.687   1.599   3.697
 2834TIP3    H2 8380   2.813   1.546   3.637
 2835TIP3   OH2 8381   1.897   1.856   3.430
 2835TIP3    H1 8382   1.898   1.938   3.377
 2835TIP3    H2 8383   1.803   1.842   3.441
 2836TIP3   OH2 8384   2.076   1.643   3.462
 2836TIP3    H1 8385   2.027   1.716   3.420
 2836TIP3    H2 8386   2.005   1.580   3.482
 2837TIP3   OH2 8387   2.174   2.197   3.905
 2837TIP3    H1 8388   2.213   2.271   3.854
 2837TIP3    H2 8389   2.252   2.165   3.953
 2838TIP3   OH2 8390   1.825   2.092   3.285
 2838TIP3    H1 8391   1.739   2.099   3.332
 2838TIP3    H2 8392   1.855   2.185   3.287
 2839TIP3   OH2 8393   2.566   1.831   3.861
 2839TIP3    H1 8394   2.556   1.831   3.959
 2839TIP3    H2 8395   2.642   1.773   3.849
 2840TIP3   OH2 8396   2.534   1.718   2.745
 2840TIP3    H1 8397   2.586   1.701   2.826
 2840TIP3    H2 8398   2.446   1.691   2.779
 2841TIP3   OH2 8399   2.818   2.360   3.907
 2841TIP3    H1 8400   2.736   2.306   3.907
 2841TIP3    H2 8401   2.796   2.428   3.839
 2842TIP3   OH2 8402   2.879   2.201   2.564
 2842TIP3    H1 8403   2.916   2.274   2.512
 2842TIP3    H2 8404   2.798   2.245   2.597
 2843TIP3   OH2 8405   1.897   0.977   4.433
 2843TIP3    H1 8406   1.800   0.981   4.442
 2843TIP3    H2 8407   1.921   0.913   4.502
 2844TIP3   OH2 8408   2.705   1.669   2.955
 2844TIP3    H1 8409   2.679   1.602   3.023
 2844TIP3    H2 8410   2.801   1.652   2.950
 2845TIP3   OH2 8411   1.618   2.061   4.068
 2845TIP3    H1 8412   1.668   1.984   4.099
 2845TIP3    H2 8413   1.647   2.130   4.129
 2846TIP3   OH2 8414   1.874   1.707   2.745
 2846TIP3    H1 8415   1.929   1.634   2.714
 2846TIP3    H2 8416   1.884   1.700   2.843
 2847TIP3   OH2 8417   1.866   1.707   3.018
 2847TIP3    H1 8418   1.945   1.677   3.065
 2847TIP3    H2 8419   1.871   1.804   3.029
 2848TIP3   OH2 8420   1.610   1.442   3.244
 2848TIP3    H1 8421   1.530   1.460   3.298
 2848TIP3    H2 8422   1.591   1.500   3.168
 2849TIP3   OH2 8423   2.732   1.043   4.113
 2849TIP3    H1 8424   2.814   1.079   4.149
 2849TIP3    H2 8425   2.719   0.961   4.165
 2850TIP3   OH2 8426   2.613   0.794   3.273
 2850TIP3    H1 8427   2.595   0.822   3.181
 2850TIP3    H2 8428   2.651   0.877   3.310
 2851TIP3   OH2 8429   2.085   1.911   2.924
 2851TIP3    H1 8430   2.018   1.936   2.991
 2851TIP3    H2 8431   2.138   1.992   2.920
 2852TIP3   OH2 8432   2.329   0.969   3.380
 2852TIP3    H1 8433   2.386   1.046   3.361
 2852TIP3    H2 8434   2.325   0.970   3.478
 2853TIP3   OH2 8435   2.572   1.291   4.187
 2853TIP3    H1 8436   2.591   1.343   4.267
 2853TIP3    H2 8437   2.627   1.212   4.199
 2854TIP3   OH2 8438   2.459   0.700   3.489
 2854TIP3    H1 8439   2.437   0.782   3.536
 2854TIP3    H2 8440   2.513   0.736   3.414
 2855TIP3   OH2 8441   1.843   1.983   3.034
 2855TIP3    H1 8442   1.820   2.056   2.973
 2855TIP3    H2 8443   1.831   2.025   3.122
 2856TIP3   OH2 8444   3.213   1.186   4.168
 2856TIP3    H1 8445   3.115   1.186   4.172
 2856TIP3    H2 8446   3.227   1.154   4.078
 2857TIP3   OH2 8447   2.864   1.386   3.557
 2857TIP3    H1 8448   2.787   1.326   3.566
 2857TIP3    H2 8449   2.935   1.336   3.603
 2858TIP3   OH2 8450   1.593   1.660   3.048
 2858TIP3    H1 8451   1.668   1.718   3.064
 2858TIP3    H2 8452   1.632   1.598   2.986
 2859TIP3   OH2 8453   2.834   2.342   3.504
 2859TIP3    H1 8454   2.789   2.387   3.429
 2859TIP3    H2 8455   2.927   2.359   3.481
 2860TIP3   OH2 8456   1.910   0.602   4.029
 2860TIP3    H1 8457   1.873   0.555   3.953
 2860TIP3    H2 8458   1.905   0.533   4.098
 2861TIP3   OH2 8459   1.448   1.824   3.415
 2861TIP3    H1 8460   1.375   1.862   3.466
 2861TIP3    H2 8461   1.431   1.864   3.327
 2862TIP3   OH2 8462   1.602   2.367   4.490
 2862TIP3    H1 8463   1.690   2.366   4.535
 2862TIP3    H2 8464   1.582   2.272   4.485
 2863TIP3   OH2 8465   2.086   2.332   4.532
 2863TIP3    H1 8466   2.181   2.319   4.535
 2863TIP3    H2 8467   2.061   2.275   4.456
 2864TIP3   OH2 8468   2.071   1.900   2.646
 2864TIP3    H1 8469   2.021   1.863   2.722
 2864TIP3    H2 8470   2.156   1.855   2.661
 2865TIP3   OH2 8471   2.730   2.237   4.258
 2865TIP3    H1 8472   2.718   2.170   4.330
 2865TIP3    H2 8473   2.803   2.291   4.294
 2866TIP3   OH2 8474   2.506   1.954   2.571
 2866TIP3    H1 8475   2.544   1.885   2.629
 2866TIP3    H2 8476   2.563   1.950   2.492
 2867TIP3   OH2 8477   1.735   1.774   4.685
 2867TIP3    H1 8478   1.750   1.678   4.686
 2867TIP3    H2 8479   1.647   1.779   4.642
 2868TIP3   OH2 8480   2.343   1.858   4.458
 2868TIP3    H1 8481   2.299   1.879   4.373
 2868TIP3    H2 8482   2.370   1.765   4.446
 2869TIP3   OH2 8483   2.230   1.657   2.724
 2869TIP3    H1 8484   2.245   1.664   2.822
 2869TIP3    H2 8485   2.224   1.561   2.720
 2870TIP3   OH2 8486   2.836   1.866   4.065
 2870TIP3    H1 8487   2.906   1.918   4.022
 2870TIP3    H2 8488   2.760   1.925   4.055
 2871TIP3   OH2 8489   1.852   1.509   4.668
 2871TIP3    H1 8490   1.926   1.452   4.646
 2871TIP3    H2 8491   1.878   1.543   4.756
 2872TIP3   OH2 8492   2.007   1.295   3.149
 2872TIP3    H1 8493   1.950   1.312   3.225
 2872TIP3    H2 8494   1.949   1.247   3.089
 2873TIP3   OH2 8495   2.192   1.397   4.333
 2873TIP3    H1 8496   2.111   1.452   4.333
 2873TIP3    H2 8497   2.237   1.429   4.251
 2874TIP3   OH2 8498   2.707   1.798   4.463
 2874TIP3    H1 8499   2.786   1.780   4.410
 2874TIP3    H2 8500   2.706   1.722   4.524
 2875TIP3   OH2 8501   2.880   1.482   2.595
 2875TIP3    H1 8502   2.832   1.421   2.537
 2875TIP3    H2 8503   2.830   1.564   2.578
 2876TIP3   OH2 8504   2.315   1.182   4.452
 2876TIP3    H1 8505   2.311   1.102   4.396
 2876TIP3    H2 8506   2.270   1.249   4.396
 2877TIP3   OH2 8507   2.314   0.967   4.262
 2877TIP3    H1 8508   2.341   1.010   4.178
 2877TIP3    H2 8509   2.220   0.945   4.244
 2878TIP3   OH2 8510   2.345   1.508   4.137
 2878TIP3    H1 8511   2.424   1.514   4.081
 2878TIP3    H2 8512   2.285   1.572   4.093
 2879TIP3   OH2 8513   2.928   1.476   4.521
 2879TIP3    H1 8514   2.975   1.391   4.522
 2879TIP3    H2 8515   2.999   1.536   4.492
 2880TIP3   OH2 8516   2.962   1.723   4.255
 2880TIP3    H1 8517   2.907   1.776   4.194
 2880TIP3    H2 8518   3.051   1.739   4.217
 2881TIP3   OH2 8519   2.194   1.293   4.685
 2881TIP3    H1 8520   2.122   1.228   4.699
 2881TIP3    H2 8521   2.223   1.271   4.595
 2882TIP3   OH2 8522   2.447   0.734   4.332
 2882TIP3    H1 8523   2.398   0.815   4.306
 2882TIP3    H2 8524   2.378   0.666   4.317
 2883TIP3   OH2 8525   2.573   1.237   4.544
 2883TIP3    H1 8526   2.554   1.224   4.639
 2883TIP3    H2 8527   2.484   1.213   4.508
 2884TIP3   OH2 8528   2.812   1.189   4.400
 2884TIP3    H1 8529   2.736   1.188   4.461
 2884TIP3    H2 8530   2.885   1.157   4.456
 2885TIP3   OH2 8531   3.036   1.126   4.553
 2885TIP3    H1 8532   3.051   1.030   4.570
 2885TIP3    H2 8533   3.036   1.165   4.643
 2886TIP3   OH2 8534   2.029   1.076   4.736
 2886TIP3    H1 8535   2.032   0.986   4.700
 2886TIP3    H2 8536   2.063   1.061   4.826
 2887TIP3   OH2 8537   2.539   0.736   4.590
 2887TIP3    H1 8538   2.609   0.670   4.575
 2887TIP3    H2 8539   2.497   0.737   4.501
 2888TIP3   OH2 8540   2.605   0.955   4.748
 2888TIP3    H1 8541   2.583   0.886   4.682
 2888TIP3    H2 8542   2.530   1.017   4.739
 2889TIP3   OH2 8543   1.828   2.183   2.842
 2889TIP3    H1 8544   1.923   2.182   2.819
 2889TIP3    H2 8545   1.796   2.242   2.771
 2890TIP3   OH2 8546   1.207   2.175   3.480
 2890TIP3    H1 8547   1.151   2.106   3.442
 2890TIP3    H2 8548   1.262   2.124   3.543
 2891TIP3   OH2 8549   1.359   2.033   3.656
 2891TIP3    H1 8550   1.352   1.963   3.724
 2891TIP3    H2 8551   1.408   2.101   3.708
 2892TIP3   OH2 8552   3.094   2.413   3.460
 2892TIP3    H1 8553   3.107   2.457   3.547
 2892TIP3    H2 8554   3.127   2.482   3.400
 2893TIP3   OH2 8555   3.117   2.449   3.736
 2893TIP3    H1 8556   3.066   2.366   3.743
 2893TIP3    H2 8557   3.174   2.442   3.814
 2894TIP3   OH2 8558   3.160   2.131   4.307
 2894TIP3    H1 8559   3.088   2.135   4.373
 2894TIP3    H2 8560   3.202   2.218   4.319
 2895TIP3   OH2 8561   2.983   1.639   2.933
 2895TIP3    H1 8562   3.054   1.701   2.909
 2895TIP3    H2 8563   3.021   1.598   3.014
 2896TIP3   OH2 8564   3.105   1.511   3.141
 2896TIP3    H1 8565   3.038   1.465   3.197
 2896TIP3    H2 8566   3.168   1.546   3.206
 2897TIP3   OH2 8567   3.158   1.903   3.581
 2897TIP3    H1 8568   3.214   1.832   3.541
 2897TIP3    H2 8569   3.140   1.960   3.506
 2898TIP3   OH2 8570   2.997   2.201   3.765
 2898TIP3    H1 8571   2.927   2.244   3.819
 2898TIP3    H2 8572   2.941   2.155   3.698
 2899TIP3   OH2 8573   3.048   1.405   2.794
 2899TIP3    H1 8574   2.988   1.420   2.719
 2899TIP3    H2 8575   3.028   1.484   2.847
 2900TIP3   OH2 8576   2.934   1.084   2.733
 2900TIP3    H1 8577   2.864   1.142   2.700
 2900TIP3    H2 8578   2.892   0.995   2.729
 2901TIP3   OH2 8579   2.923   1.364   3.289
 2901TIP3    H1 8580   2.925   1.267   3.280
 2901TIP3    H2 8581   2.907   1.376   3.385
 2902TIP3   OH2 8582   1.545   1.435   4.035
 2902TIP3    H1 8583   1.542   1.407   3.941
 2902TIP3    H2 8584   1.642   1.439   4.049
 2903TIP3   OH2 8585   3.205   1.786   4.147
 2903TIP3    H1 8586   3.277   1.719   4.140
 2903TIP3    H2 8587   3.228   1.849   4.078
 2904TIP3   OH2 8588   3.395   1.597   4.159
 2904TIP3    H1 8589   3.320   1.546   4.199
 2904TIP3    H2 8590   3.467   1.533   4.174
 2905TIP3   OH2 8591   2.854   0.823   2.737
 2905TIP3    H1 8592   2.939   0.801   2.779
 2905TIP3    H2 8593   2.790   0.780   2.794
 2906TIP3   OH2 8594   2.921   1.084   3.189
 2906TIP3    H1 8595   2.959   0.994   3.201
 2906TIP3    H2 8596   2.976   1.116   3.115
 2907TIP3   OH2 8597   3.077   1.255   3.677
 2907TIP3    H1 8598   3.163   1.281   3.636
 2907TIP3    H2 8599   3.090   1.292   3.766
 2908TIP3   OH2 8600   3.145   1.399   3.908
 2908TIP3    H1 8601   3.067   1.433   3.957
 2908TIP3    H2 8602   3.179   1.480   3.865
 2909TIP3   OH2 8603   1.762   1.126   4.709
 2909TIP3    H1 8604   1.859   1.119   4.709
 2909TIP3    H2 8605   1.738   1.041   4.750
 2910TIP3   OH2 8606   3.585   0.971   4.471
 2910TIP3    H1 8607   3.648   0.920   4.416
 2910TIP3    H2 8608   3.568   1.049   4.415
 2911TIP3   OH2 8609   3.027   0.830   3.218
 2911TIP3    H1 8610   3.072   0.814   3.303
 2911TIP3    H2 8611   2.963   0.755   3.216
 2912TIP3   OH2 8612   1.727   0.817   4.067
 2912TIP3    H1 8613   1.788   0.742   4.055
 2912TIP3    H2 8614   1.783   0.891   4.038
 2913TIP3   OH2 8615   1.534   1.094   4.116
 2913TIP3    H1 8616   1.581   1.083   4.031
 2913TIP3    H2 8617   1.558   1.185   4.138
 2914TIP3   OH2 8618   3.472   1.131   4.276
 2914TIP3    H1 8619   3.388   1.172   4.303
 2914TIP3    H2 8620   3.438   1.061   4.217
 2915TIP3   OH2 8621   3.105   0.774   2.850
 2915TIP3    H1 8622   3.149   0.701   2.802
 2915TIP3    H2 8623   3.173   0.844   2.849
 2916TIP3   OH2 8624   2.666   2.303   3.113
 2916TIP3    H1 8625   2.721   2.285   3.034
 2916TIP3    H2 8626   2.720   2.368   3.161
 2917TIP3   OH2 8627   1.733   0.675   4.429
 2917TIP3    H1 8628   1.680   0.672   4.510
 2917TIP3    H2 8629   1.669   0.714   4.367
 2918TIP3   OH2 8630   1.773   2.096   4.505
 2918TIP3    H1 8631   1.680   2.074   4.486
 2918TIP3    H2 8632   1.775   2.088   4.601
 2919TIP3   OH2 8633   1.948   2.133   4.053
 2919TIP3    H1 8634   1.897   2.206   4.015
 2919TIP3    H2 8635   2.033   2.149   4.007
 2920TIP3   OH2 8636   2.394   2.376   4.187
 2920TIP3    H1 8637   2.433   2.380   4.277
 2920TIP3    H2 8638   2.459   2.431   4.137
 2921TIP3   OH2 8639   2.572   2.531   4.048
 2921TIP3    H1 8640   2.644   2.479   4.010
 2921TIP3    H2 8641   2.622   2.588   4.110
 2922TIP3   OH2 8642   3.366   0.894   4.149
 2922TIP3    H1 8643   3.276   0.893   4.112
 2922TIP3    H2 8644   3.393   0.800   4.135
 2923TIP3   OH2 8645   1.635   2.395   4.076
 2923TIP3    H1 8646   1.543   2.418   4.050
 2923TIP3    H2 8647   1.635   2.436   4.164
 2924TIP3   OH2 8648   1.864   2.369   3.931
 2924TIP3    H1 8649   1.779   2.380   3.980
 2924TIP3    H2 8650   1.838   2.400   3.842
 2925TIP3   OH2 8651   2.289   2.399   3.729
 2925TIP3    H1 8652   2.216   2.418   3.667
 2925TIP3    H2 8653   2.299   2.486   3.773
 2926TIP3   OH2 8654   2.556   2.340   3.780
 2926TIP3    H1 8655   2.460   2.353   3.763
 2926TIP3    H2 8656   2.593   2.421   3.743
 2927TIP3   OH2 8657   2.770   2.533   3.699
 2927TIP3    H1 8658   2.752   2.617   3.652
 2927TIP3    H2 8659   2.787   2.471   3.625
 2928TIP3   OH2 8660   1.534   2.170   3.821
 2928TIP3    H1 8661   1.562   2.151   3.912
 2928TIP3    H2 8662   1.611   2.140   3.770
 2929TIP3   OH2 8663   1.734   2.056   3.675
 2929TIP3    H1 8664   1.749   1.973   3.726
 2929TIP3    H2 8665   1.825   2.092   3.670
 2930TIP3   OH2 8666   2.001   2.154   3.675
 2930TIP3    H1 8667   2.028   2.061   3.663
 2930TIP3    H2 8668   2.039   2.171   3.763
 2931TIP3   OH2 8669   2.578   0.811   3.776
 2931TIP3    H1 8670   2.528   0.741   3.822
 2931TIP3    H2 8671   2.638   0.761   3.720
 2932TIP3   OH2 8672   3.097   0.691   3.677
 2932TIP3    H1 8673   3.133   0.741   3.600
 2932TIP3    H2 8674   3.001   0.704   3.667
 2933TIP3   OH2 8675   3.191   0.787   3.438
 2933TIP3    H1 8676   3.263   0.737   3.395
 2933TIP3    H2 8677   3.222   0.879   3.422
 2934TIP3   OH2 8678   2.247   0.572   3.652
 2934TIP3    H1 8679   2.320   0.613   3.602
 2934TIP3    H2 8680   2.280   0.578   3.742
 2935TIP3   OH2 8681   2.818   0.694   3.646
 2935TIP3    H1 8682   2.805   0.661   3.556
 2935TIP3    H2 8683   2.798   0.614   3.700
 2936TIP3   OH2 8684   2.845   0.618   3.207
 2936TIP3    H1 8685   2.756   0.657   3.209
 2936TIP3    H2 8686   2.827   0.532   3.253
 2937TIP3   OH2 8687   1.311   1.954   3.213
 2937TIP3    H1 8688   1.234   1.917   3.167
 2937TIP3    H2 8689   1.306   2.047   3.183
 2938TIP3   OH2 8690   2.239   0.722   3.311
 2938TIP3    H1 8691   2.301   0.675   3.369
 2938TIP3    H2 8692   2.277   0.812   3.316
 2939TIP3   OH2 8693   2.095   2.154   2.779
 2939TIP3    H1 8694   2.187   2.167   2.749
 2939TIP3    H2 8695   2.072   2.073   2.730
 2940TIP3   OH2 8696   2.817   2.261   2.886
 2940TIP3    H1 8697   2.809   2.163   2.875
 2940TIP3    H2 8698   2.773   2.292   2.805
 2941TIP3   OH2 8699   2.027   0.799   4.676
 2941TIP3    H1 8700   1.992   0.728   4.732
 2941TIP3    H2 8701   2.121   0.800   4.703
 2942TIP3   OH2 8702   2.276   0.797   4.795
 2942TIP3    H1 8703   2.357   0.770   4.751
 2942TIP3    H2 8704   2.262   0.726   4.861
 2943TIP3   OH2 8705   1.419   2.018   2.865
 2943TIP3    H1 8706   1.386   2.026   2.955
 2943TIP3    H2 8707   1.490   1.952   2.872
 2944TIP3   OH2 8708   3.102   0.855   4.582
 2944TIP3    H1 8709   3.125   0.824   4.673
 2944TIP3    H2 8710   3.190   0.853   4.538
 2945TIP3   OH2 8711   3.052   2.410   4.059
 2945TIP3    H1 8712   2.967   2.376   4.024
 2945TIP3    H2 8713   3.028   2.504   4.074
 2946TIP3   OH2 8714   4.310   1.784   2.843
 2946TIP3    H1 8715   4.279   1.874   2.821
 2946TIP3    H2 8716   4.237   1.731   2.806
 2947TIP3   OH2 8717   4.305   1.783   3.220
 2947TIP3    H1 8718   4.334   1.746   3.305
 2947TIP3    H2 8719   4.266   1.706   3.177
 2948TIP3   OH2 8720   3.605   1.678   3.586
 2948TIP3    H1 8721   3.635   1.609   3.649
 2948TIP3    H2 8722   3.689   1.722   3.567
 2949TIP3   OH2 8723   4.550   2.084   2.901
 2949TIP3    H1 8724   4.534   2.012   2.963
 2949TIP3    H2 8725   4.578   2.156   2.959
 2950TIP3   OH2 8726   3.578   2.084   3.321
 2950TIP3    H1 8727   3.572   1.986   3.319
 2950TIP3    H2 8728   3.674   2.095   3.307
 2951TIP3   OH2 8729   3.282   1.288   3.101
 2951TIP3    H1 8730   3.235   1.373   3.109
 2951TIP3    H2 8731   3.212   1.234   3.061
 2952TIP3   OH2 8732   3.348   1.578   3.267
 2952TIP3    H1 8733   3.394   1.499   3.303
 2952TIP3    H2 8734   3.399   1.595   3.187
 2953TIP3   OH2 8735   4.196   2.544   2.918
 2953TIP3    H1 8736   4.244   2.473   2.870
 2953TIP3    H2 8737   4.193   2.508   3.007
 2954TIP3   OH2 8738   4.104   2.007   3.271
 2954TIP3    H1 8739   4.140   1.930   3.223
 2954TIP3    H2 8740   4.189   2.051   3.293
 2955TIP3   OH2 8741   5.119   1.325   3.268
 2955TIP3    H1 8742   5.147   1.410   3.307
 2955TIP3    H2 8743   5.138   1.340   3.174
 2956TIP3   OH2 8744   4.517   1.507   3.303
 2956TIP3    H1 8745   4.561   1.421   3.319
 2956TIP3    H2 8746   4.486   1.494   3.211
 2957TIP3   OH2 8747   3.851   1.166   3.270
 2957TIP3    H1 8748   3.834   1.239   3.206
 2957TIP3    H2 8749   3.804   1.093   3.223
 2958TIP3   OH2 8750   4.546   1.258   2.892
 2958TIP3    H1 8751   4.620   1.241   2.954
 2958TIP3    H2 8752   4.598   1.287   2.814
 2959TIP3   OH2 8753   3.489   1.369   3.375
 2959TIP3    H1 8754   3.572   1.349   3.421
 2959TIP3    H2 8755   3.501   1.315   3.294
 2960TIP3   OH2 8756   3.930   1.569   3.173
 2960TIP3    H1 8757   4.024   1.544   3.180
 2960TIP3    H2 8758   3.891   1.486   3.137
 2961TIP3   OH2 8759   5.193   1.535   3.437
 2961TIP3    H1 8760   5.110   1.582   3.415
 2961TIP3    H2 8761   5.203   1.559   3.531
 2962TIP3   OH2 8762   3.852   1.151   3.703
 2962TIP3    H1 8763   3.793   1.187   3.633
 2962TIP3    H2 8764   3.798   1.169   3.782
 2963TIP3   OH2 8765   4.203   2.004   2.711
 2963TIP3    H1 8766   4.156   1.975   2.632
 2963TIP3    H2 8767   4.156   2.088   2.732
 2964TIP3   OH2 8768   3.961   1.925   3.496
 2964TIP3    H1 8769   3.899   1.992   3.534
 2964TIP3    H2 8770   4.003   1.975   3.423
 2965TIP3   OH2 8771   4.757   1.263   3.063
 2965TIP3    H1 8772   4.761   1.202   3.137
 2965TIP3    H2 8773   4.815   1.336   3.090
 2966TIP3   OH2 8774   3.722   1.266   3.488
 2966TIP3    H1 8775   3.786   1.338   3.508
 2966TIP3    H2 8776   3.768   1.225   3.410
 2967TIP3   OH2 8777   3.789   2.116   3.603
 2967TIP3    H1 8778   3.752   2.199   3.566
 2967TIP3    H2 8779   3.724   2.093   3.671
 2968TIP3   OH2 8780   3.187   1.810   2.830
 2968TIP3    H1 8781   3.137   1.841   2.753
 2968TIP3    H2 8782   3.216   1.894   2.871
 2969TIP3   OH2 8783   4.621   2.325   3.072
 2969TIP3    H1 8784   4.531   2.317   3.111
 2969TIP3    H2 8785   4.613   2.411   3.026
 2970TIP3   OH2 8786   4.910   1.229   3.436
 2970TIP3    H1 8787   4.821   1.252   3.401
 2970TIP3    H2 8788   4.968   1.257   3.362
 2971TIP3   OH2 8789   4.210   0.869   3.417
 2971TIP3    H1 8790   4.194   0.774   3.429
 2971TIP3    H2 8791   4.131   0.907   3.462
 2972TIP3   OH2 8792   4.323   2.371   2.745
 2972TIP3    H1 8793   4.373   2.289   2.724
 2972TIP3    H2 8794   4.384   2.437   2.704
 2973TIP3   OH2 8795   4.466   2.157   2.649
 2973TIP3    H1 8796   4.424   2.078   2.613
 2973TIP3    H2 8797   4.502   2.123   2.734
 2974TIP3   OH2 8798   4.849   2.238   3.414
 2974TIP3    H1 8799   4.836   2.161   3.355
 2974TIP3    H2 8800   4.829   2.313   3.354
 2975TIP3   OH2 8801   4.143   1.641   2.671
 2975TIP3    H1 8802   4.054   1.673   2.648
 2975TIP3    H2 8803   4.185   1.631   2.584
 2976TIP3   OH2 8804   4.095   1.420   2.381
 2976TIP3    H1 8805   4.161   1.464   2.437
 2976TIP3    H2 8806   4.152   1.353   2.338
 2977TIP3   OH2 8807   5.042   1.877   3.260
 2977TIP3    H1 8808   4.958   1.928   3.264
 2977TIP3    H2 8809   5.071   1.899   3.169
 2978TIP3   OH2 8810   4.485   1.716   2.643
 2978TIP3    H1 8811   4.431   1.740   2.722
 2978TIP3    H2 8812   4.568   1.688   2.687
 2979TIP3   OH2 8813   4.721   1.754   3.553
 2979TIP3    H1 8814   4.716   1.840   3.600
 2979TIP3    H2 8815   4.634   1.755   3.508
 2980TIP3   OH2 8816   3.719   1.718   3.060
 2980TIP3    H1 8817   3.667   1.660   3.000
 2980TIP3    H2 8818   3.793   1.659   3.086
 2981TIP3   OH2 8819   3.842   2.119   3.211
 2981TIP3    H1 8820   3.824   2.079   3.125
 2981TIP3    H2 8821   3.934   2.088   3.228
 2982TIP3   OH2 8822   3.852   1.683   3.417
 2982TIP3    H1 8823   3.883   1.658   3.327
 2982TIP3    H2 8824   3.898   1.768   3.432
 2983TIP3   OH2 8825   4.379   2.322   3.190
 2983TIP3    H1 8826   4.365   2.402   3.244
 2983TIP3    H2 8827   4.365   2.249   3.254
 2984TIP3   OH2 8828   3.996   2.242   3.739
 2984TIP3    H1 8829   3.935   2.303   3.785
 2984TIP3    H2 8830   3.932   2.187   3.689
 2985TIP3   OH2 8831   4.327   1.572   2.470
 2985TIP3    H1 8832   4.385   1.631   2.523
 2985TIP3    H2 8833   4.354   1.597   2.378
 2986TIP3   OH2 8834   3.741   1.798   3.840
 2986TIP3    H1 8835   3.748   1.885   3.884
 2986TIP3    H2 8836   3.645   1.784   3.848
 2987TIP3   OH2 8837   4.067   2.254   2.744
 2987TIP3    H1 8838   4.147   2.306   2.763
 2987TIP3    H2 8839   4.008   2.320   2.705
 2988TIP3   OH2 8840   3.787   2.409   3.823
 2988TIP3    H1 8841   3.754   2.417   3.732
 2988TIP3    H2 8842   3.705   2.390   3.874
 2989TIP3   OH2 8843   3.555   1.565   2.890
 2989TIP3    H1 8844   3.512   1.592   2.807
 2989TIP3    H2 8845   3.584   1.475   2.868
 2990TIP3   OH2 8846   4.640   2.181   2.064
 2990TIP3    H1 8847   4.648   2.278   2.051
 2990TIP3    H2 8848   4.732   2.152   2.052
 2991TIP3   OH2 8849   3.271   2.167   3.495
 2991TIP3    H1 8850   3.315   2.136   3.412
 2991TIP3    H2 8851   3.204   2.228   3.457
 2992TIP3   OH2 8852   5.086   2.584   3.461
 2992TIP3    H1 8853   5.082   2.487   3.472
 2992TIP3    H2 8854   5.002   2.609   3.505
 2993TIP3   OH2 8855   4.191   2.370   3.594
 2993TIP3    H1 8856   4.191   2.463   3.626
 2993TIP3    H2 8857   4.121   2.331   3.649
 2994TIP3   OH2 8858   3.949   2.498   2.547
 2994TIP3    H1 8859   3.905   2.481   2.461
 2994TIP3    H2 8860   3.918   2.588   2.570
 2995TIP3   OH2 8861   3.388   2.348   2.929
 2995TIP3    H1 8862   3.437   2.338   3.013
 2995TIP3    H2 8863   3.330   2.270   2.933
 2996TIP3   OH2 8864   4.151   2.399   2.186
 2996TIP3    H1 8865   4.211   2.330   2.151
 2996TIP3    H2 8866   4.186   2.409   2.278
 2997TIP3   OH2 8867   4.201   2.447   2.457
 2997TIP3    H1 8868   4.113   2.457   2.500
 2997TIP3    H2 8869   4.253   2.407   2.528
 2998TIP3   OH2 8870   4.974   1.714   3.733
 2998TIP3    H1 8871   4.894   1.729   3.680
 2998TIP3    H2 8872   4.989   1.619   3.720
 2999TIP3   OH2 8873   3.970   0.944   3.545
 2999TIP3    H1 8874   3.881   0.913   3.517
 2999TIP3    H2 8875   3.945   1.029   3.586
 3000TIP3   OH2 8876   4.502   1.064   3.739
 3000TIP3    H1 8877   4.570   1.031   3.801
 3000TIP3    H2 8878   4.418   1.040   3.783
 3001TIP3   OH2 8879   4.747   1.491   3.655
 3001TIP3    H1 8880   4.694   1.488   3.738
 3001TIP3    H2 8881   4.720   1.577   3.617
 3002TIP3   OH2 8882   4.401   1.623   2.213
 3002TIP3    H1 8883   4.369   1.595   2.125
 3002TIP3    H2 8884   4.483   1.670   2.189
 3003TIP3   OH2 8885   4.114   0.997   2.513
 3003TIP3    H1 8886   4.079   1.001   2.604
 3003TIP3    H2 8887   4.079   0.910   2.486
 3004TIP3   OH2 8888   3.902   1.461   3.565
 3004TIP3    H1 8889   3.849   1.482   3.644
 3004TIP3    H2 8890   3.886   1.541   3.509
 3005TIP3   OH2 8891   3.791   1.351   3.083
 3005TIP3    H1 8892   3.698   1.320   3.082
 3005TIP3    H2 8893   3.811   1.351   2.986
 3006TIP3   OH2 8894   4.278   1.445   2.808
 3006TIP3    H1 8895   4.220   1.510   2.765
 3006TIP3    H2 8896   4.326   1.407   2.732
 3007TIP3   OH2 8897   4.452   1.717   3.889
 3007TIP3    H1 8898   4.429   1.645   3.952
 3007TIP3    H2 8899   4.546   1.729   3.910
 3008TIP3   OH2 8900   4.433   1.463   3.042
 3008TIP3    H1 8901   4.372   1.488   2.969
 3008TIP3    H2 8902   4.468   1.381   3.002
 3009TIP3   OH2 8903   3.718   1.491   3.771
 3009TIP3    H1 8904   3.744   1.552   3.841
 3009TIP3    H2 8905   3.706   1.407   3.820
 3010TIP3   OH2 8906   3.766   0.963   2.478
 3010TIP3    H1 8907   3.767   0.963   2.576
 3010TIP3    H2 8908   3.685   1.013   2.460
 3011TIP3   OH2 8909   3.314   1.010   3.353
 3011TIP3    H1 8910   3.389   1.045   3.406
 3011TIP3    H2 8911   3.356   0.982   3.270
 3012TIP3   OH2 8912   3.290   0.991   2.873
 3012TIP3    H1 8913   3.332   1.023   2.791
 3012TIP3    H2 8914   3.229   1.066   2.892
 3013TIP3   OH2 8915   4.448   1.707   3.468
 3013TIP3    H1 8916   4.478   1.635   3.408
 3013TIP3    H2 8917   4.414   1.654   3.543
 3014TIP3   OH2 8918   4.107   1.160   3.150
 3014TIP3    H1 8919   4.024   1.164   3.202
 3014TIP3    H2 8920   4.174   1.170   3.219
 3015TIP3   OH2 8921   3.545   1.223   3.150
 3015TIP3    H1 8922   3.452   1.231   3.120
 3015TIP3    H2 8923   3.570   1.133   3.122
 3016TIP3   OH2 8924   4.606   1.245   3.347
 3016TIP3    H1 8925   4.561   1.257   3.433
 3016TIP3    H2 8926   4.545   1.182   3.304
 3017TIP3   OH2 8927   3.562   1.304   2.572
 3017TIP3    H1 8928   3.568   1.225   2.515
 3017TIP3    H2 8929   3.652   1.304   2.612
 3018TIP3   OH2 8930   4.774   2.933   3.558
 3018TIP3    H1 8931   4.771   2.958   3.464
 3018TIP3    H2 8932   4.851   2.984   3.589
 3019TIP3   OH2 8933   3.735   2.044   3.970
 3019TIP3    H1 8934   3.810   2.077   4.023
 3019TIP3    H2 8935   3.665   2.043   4.038
 3020TIP3   OH2 8936   4.197   1.498   3.235
 3020TIP3    H1 8937   4.265   1.458   3.178
 3020TIP3    H2 8938   4.212   1.451   3.320
 3021TIP3   OH2 8939   3.719   0.985   3.112
 3021TIP3    H1 8940   3.687   0.905   3.157
 3021TIP3    H2 8941   3.775   0.949   3.041
 3022TIP3   OH2 8942   4.171   1.388   3.532
 3022TIP3    H1 8943   4.082   1.428   3.538
 3022TIP3    H2 8944   4.228   1.454   3.577
 3023TIP3   OH2 8945   3.898   1.787   2.617
 3023TIP3    H1 8946   3.831   1.715   2.613
 3023TIP3    H2 8947   3.887   1.818   2.710
 3024TIP3   OH2 8948   4.809   2.021   3.250
 3024TIP3    H1 8949   4.832   2.070   3.169
 3024TIP3    H2 8950   4.724   1.978   3.226
 3025TIP3   OH2 8951   4.362   1.105   2.466
 3025TIP3    H1 8952   4.268   1.085   2.487
 3025TIP3    H2 8953   4.376   1.193   2.507
 3026TIP3   OH2 8954   4.309   2.103   3.617
 3026TIP3    H1 8955   4.328   2.081   3.709
 3026TIP3    H2 8956   4.271   2.192   3.624
 3027TIP3   OH2 8957   4.437   1.342   2.585
 3027TIP3    H1 8958   4.533   1.349   2.604
 3027TIP3    H2 8959   4.420   1.424   2.535
 3028TIP3   OH2 8960   3.603   1.811   3.296
 3028TIP3    H1 8961   3.639   1.782   3.209
 3028TIP3    H2 8962   3.638   1.743   3.355
 3029TIP3   OH2 8963   4.051   1.932   2.438
 3029TIP3    H1 8964   4.005   2.019   2.446
 3029TIP3    H2 8965   3.998   1.877   2.499
 3030TIP3   OH2 8966   3.462   1.760   3.920
 3030TIP3    H1 8967   3.493   1.725   4.006
 3030TIP3    H2 8968   3.409   1.687   3.886
 3031TIP3   OH2 8969   4.203   1.847   3.925
 3031TIP3    H1 8970   4.148   1.784   3.876
 3031TIP3    H2 8971   4.293   1.812   3.907
 3032TIP3   OH2 8972   4.470   2.361   3.513
 3032TIP3    H1 8973   4.373   2.361   3.524
 3032TIP3    H2 8974   4.497   2.414   3.591
 3033TIP3   OH2 8975   4.878   1.432   2.423
 3033TIP3    H1 8976   4.817   1.385   2.361
 3033TIP3    H2 8977   4.876   1.520   2.380
 3034TIP3   OH2 8978   5.099   2.292   3.503
 3034TIP3    H1 8979   5.001   2.287   3.495
 3034TIP3    H2 8980   5.124   2.262   3.413
 3035TIP3   OH2 8981   4.579   2.253   2.330
 3035TIP3    H1 8982   4.554   2.184   2.393
 3035TIP3    H2 8983   4.591   2.205   2.246
 3036TIP3   OH2 8984   4.575   1.882   3.172
 3036TIP3    H1 8985   4.481   1.857   3.182
 3036TIP3    H2 8986   4.609   1.803   3.125
 3037TIP3   OH2 8987   3.701   2.112   2.926
 3037TIP3    H1 8988   3.704   2.193   2.870
 3037TIP3    H2 8989   3.606   2.093   2.924
 3038TIP3   OH2 8990   3.842   1.879   2.865
 3038TIP3    H1 8991   3.806   1.967   2.888
 3038TIP3    H2 8992   3.808   1.825   2.939
 3039TIP3   OH2 8993   3.968   2.453   3.392
 3039TIP3    H1 8994   4.008   2.527   3.342
 3039TIP3    H2 8995   4.046   2.420   3.439
 3040TIP3   OH2 8996   3.622   2.349   2.773
 3040TIP3    H1 8997   3.536   2.360   2.818
 3040TIP3    H2 8998   3.655   2.442   2.776
 3041TIP3   OH2 8999   4.360   2.089   3.348
 3041TIP3    H1 9000   4.352   2.086   3.446
 3041TIP3    H2 9001   4.438   2.033   3.333
 3042TIP3   OH2 9002   4.333   1.981   2.231
 3042TIP3    H1 9003   4.387   1.956   2.310
 3042TIP3    H2 9004   4.245   1.954   2.263
 3043TIP3   OH2 9005   4.609   2.623   3.399
 3043TIP3    H1 9006   4.529   2.567   3.391
 3043TIP3    H2 9007   4.594   2.688   3.327
 3044TIP3   OH2 9008   4.674   2.457   2.051
 3044TIP3    H1 9009   4.711   2.530   1.999
 3044TIP3    H2 9010   4.593   2.502   2.085
 3045TIP3   OH2 9011   3.694   1.234   3.919
 3045TIP3    H1 9012   3.598   1.241   3.935
 3045TIP3    H2 9013   3.720   1.174   3.990
 3046TIP3   OH2 9014   4.493   1.915   2.447
 3046TIP3    H1 9015   4.482   1.850   2.519
 3046TIP3    H2 9016   4.591   1.913   2.436
 3047TIP3   OH2 9017   3.699   1.962   2.231
 3047TIP3    H1 9018   3.715   1.870   2.204
 3047TIP3    H2 9019   3.684   1.952   2.327
 3048TIP3   OH2 9020   3.646   1.962   2.503
 3048TIP3    H1 9021   3.721   1.934   2.557
 3048TIP3    H2 9022   3.651   2.060   2.512
 3049TIP3   OH2 9023   3.376   1.654   2.677
 3049TIP3    H1 9024   3.317   1.682   2.749
 3049TIP3    H2 9025   3.399   1.741   2.639
 3050TIP3   OH2 9026   4.523   1.306   3.607
 3050TIP3    H1 9027   4.612   1.334   3.633
 3050TIP3    H2 9028   4.513   1.221   3.655
 3051TIP3   OH2 9029   4.413   1.043   2.761
 3051TIP3    H1 9030   4.399   1.072   2.669
 3051TIP3    H2 9031   4.447   1.125   2.802
 3052TIP3   OH2 9032   3.909   2.163   2.451
 3052TIP3    H1 9033   3.824   2.193   2.488
 3052TIP3    H2 9034   3.929   2.237   2.391
 3053TIP3   OH2 9035   4.145   1.204   2.872
 3053TIP3    H1 9036   4.169   1.294   2.843
 3053TIP3    H2 9037   4.106   1.220   2.959
 3054TIP3   OH2 9038   4.366   1.547   3.673
 3054TIP3    H1 9039   4.392   1.600   3.750
 3054TIP3    H2 9040   4.423   1.468   3.678
 3055TIP3   OH2 9041   4.250   0.954   2.974
 3055TIP3    H1 9042   4.220   1.039   3.012
 3055TIP3    H2 9043   4.307   0.989   2.901
 3056TIP3   OH2 9044   3.651   2.238   2.519
 3056TIP3    H1 9045   3.624   2.308   2.456
 3056TIP3    H2 9046   3.638   2.283   2.605
 3057TIP3   OH2 9047   3.754   0.961   2.754
 3057TIP3    H1 9048   3.753   1.055   2.780
 3057TIP3    H2 9049   3.850   0.942   2.766
 3058TIP3   OH2 9050   5.012   1.446   3.653
 3058TIP3    H1 9051   4.914   1.447   3.660
 3058TIP3    H2 9052   5.021   1.405   3.566
 3059TIP3   OH2 9053   4.660   1.641   3.043
 3059TIP3    H1 9054   4.584   1.581   3.050
 3059TIP3    H2 9055   4.730   1.591   3.089
 3060TIP3   OH2 9056   3.371   1.879   2.506
 3060TIP3    H1 9057   3.431   1.953   2.523
 3060TIP3    H2 9058   3.425   1.832   2.440
 3061TIP3   OH2 9059   3.306   1.127   2.639
 3061TIP3    H1 9060   3.331   1.219   2.657
 3061TIP3    H2 9061   3.211   1.131   2.620
 3062TIP3   OH2 9062   4.629   2.596   2.992
 3062TIP3    H1 9063   4.586   2.643   2.917
 3062TIP3    H2 9064   4.723   2.615   2.971
 3063TIP3   OH2 9065   3.705   0.866   3.520
 3063TIP3    H1 9066   3.674   0.834   3.432
 3063TIP3    H2 9067   3.693   0.787   3.576
 3064TIP3   OH2 9068   3.245   2.090   2.906
 3064TIP3    H1 9069   3.163   2.118   2.949
 3064TIP3    H2 9070   3.228   2.124   2.815
 3065TIP3   OH2 9071   3.401   2.629   3.976
 3065TIP3    H1 9072   3.488   2.633   4.022
 3065TIP3    H2 9073   3.387   2.533   3.973
 3066TIP3   OH2 9074   3.883   2.590   4.017
 3066TIP3    H1 9075   3.978   2.575   4.026
 3066TIP3    H2 9076   3.862   2.533   3.941
 3067TIP3   OH2 9077   3.863   2.166   2.144
 3067TIP3    H1 9078   3.807   2.095   2.182
 3067TIP3    H2 9079   3.939   2.114   2.112
 3068TIP3   OH2 9080   4.521   2.497   3.749
 3068TIP3    H1 9081   4.512   2.427   3.818
 3068TIP3    H2 9082   4.598   2.548   3.780
 3069TIP3   OH2 9083   4.300   2.207   2.055
 3069TIP3    H1 9084   4.344   2.143   2.114
 3069TIP3    H2 9085   4.358   2.207   1.976
 3070TIP3   OH2 9086   3.535   2.037   4.169
 3070TIP3    H1 9087   3.559   1.944   4.187
 3070TIP3    H2 9088   3.446   2.028   4.130
 3071TIP3   OH2 9089   3.512   1.633   2.386
 3071TIP3    H1 9090   3.584   1.646   2.451
 3071TIP3    H2 9091   3.558   1.659   2.304
 3072TIP3   OH2 9092   4.140   2.117   3.946
 3072TIP3    H1 9093   4.100   2.133   3.859
 3072TIP3    H2 9094   4.169   2.023   3.939
 3073TIP3   OH2 9095   4.013   1.879   2.170
 3073TIP3    H1 9096   4.019   1.893   2.267
 3073TIP3    H2 9097   4.016   1.781   2.166
 3074TIP3   OH2 9098   4.632   2.124   3.553
 3074TIP3    H1 9099   4.706   2.170   3.507
 3074TIP3    H2 9100   4.560   2.188   3.538
 3075TIP3   OH2 9101   3.650   1.766   4.153
 3075TIP3    H1 9102   3.709   1.691   4.146
 3075TIP3    H2 9103   3.673   1.799   4.242
 3076TIP3   OH2 9104   3.710   1.578   2.588
 3076TIP3    H1 9105   3.733   1.529   2.671
 3076TIP3    H2 9106   3.747   1.511   2.526
 3077TIP3   OH2 9107   3.987   1.650   3.821
 3077TIP3    H1 9108   3.908   1.709   3.820
 3077TIP3    H2 9109   4.034   1.681   3.740
 3078TIP3   OH2 9110   3.810   1.393   2.417
 3078TIP3    H1 9111   3.798   1.382   2.322
 3078TIP3    H2 9112   3.907   1.385   2.427
 3079TIP3   OH2 9113   4.503   2.055   3.950
 3079TIP3    H1 9114   4.581   2.030   3.899
 3079TIP3    H2 9115   4.493   1.981   4.012
 3080TIP3   OH2 9116   4.639   1.712   2.088
 3080TIP3    H1 9117   4.616   1.665   2.006
 3080TIP3    H2 9118   4.605   1.802   2.065
 3081TIP3   OH2 9119   4.116   1.435   3.942
 3081TIP3    H1 9120   4.111   1.357   3.883
 3081TIP3    H2 9121   4.071   1.503   3.887
 3082TIP3   OH2 9122   4.111   1.224   3.751
 3082TIP3    H1 9123   4.138   1.266   3.668
 3082TIP3    H2 9124   4.017   1.201   3.731
 3083TIP3   OH2 9125   4.138   1.760   3.622
 3083TIP3    H1 9126   4.221   1.767   3.572
 3083TIP3    H2 9127   4.082   1.828   3.579
 3084TIP3   OH2 9128   4.723   1.729   4.002
 3084TIP3    H1 9129   4.773   1.646   4.000
 3084TIP3    H2 9130   4.787   1.793   3.968
 3085TIP3   OH2 9131   4.761   1.981   3.741
 3085TIP3    H1 9132   4.703   2.034   3.681
 3085TIP3    H2 9133   4.848   2.000   3.700
 3086TIP3   OH2 9134   4.044   1.538   4.200
 3086TIP3    H1 9135   3.955   1.498   4.212
 3086TIP3    H2 9136   4.046   1.532   4.101
 3087TIP3   OH2 9137   4.243   0.992   3.823
 3087TIP3    H1 9138   4.195   1.072   3.794
 3087TIP3    H2 9139   4.177   0.922   3.805
 3088TIP3   OH2 9140   4.373   1.496   4.028
 3088TIP3    H1 9141   4.389   1.450   4.112
 3088TIP3    H2 9142   4.283   1.469   4.001
 3089TIP3   OH2 9143   4.613   1.447   3.884
 3089TIP3    H1 9144   4.536   1.448   3.943
 3089TIP3    H2 9145   4.685   1.415   3.943
 3090TIP3   OH2 9146   4.833   1.382   4.042
 3090TIP3    H1 9147   4.851   1.287   4.058
 3090TIP3    H2 9148   4.832   1.421   4.132
 3091TIP3   OH2 9149   3.833   1.343   4.231
 3091TIP3    H1 9150   3.827   1.251   4.197
 3091TIP3    H2 9151   3.821   1.329   4.327
 3092TIP3   OH2 9152   4.338   0.992   4.079
 3092TIP3    H1 9153   4.409   0.926   4.063
 3092TIP3    H2 9154   4.297   0.994   3.990
 3093TIP3   OH2 9155   4.376   1.218   4.225
 3093TIP3    H1 9156   4.388   1.138   4.170
 3093TIP3    H2 9157   4.283   1.237   4.206
 3094TIP3   OH2 9158   3.623   2.439   2.331
 3094TIP3    H1 9159   3.719   2.438   2.312
 3094TIP3    H2 9160   3.593   2.491   2.253
 3095TIP3   OH2 9161   3.102   1.839   2.549
 3095TIP3    H1 9162   3.198   1.856   2.535
 3095TIP3    H2 9163   3.094   1.745   2.527
 3096TIP3   OH2 9164   3.015   2.439   2.957
 3096TIP3    H1 9165   2.949   2.375   2.922
 3096TIP3    H2 9166   3.062   2.384   3.022
 3097TIP3   OH2 9167   3.152   2.296   3.142
 3097TIP3    H1 9168   3.131   2.218   3.194
 3097TIP3    H2 9169   3.207   2.350   3.202
 3098TIP3   OH2 9170   4.882   2.686   2.948
 3098TIP3    H1 9171   4.906   2.723   3.035
 3098TIP3    H2 9172   4.940   2.736   2.888
 3099TIP3   OH2 9173   4.909   2.709   3.229
 3099TIP3    H1 9174   4.867   2.620   3.225
 3099TIP3    H2 9175   4.986   2.688   3.285
 3100TIP3   OH2 9176   4.958   2.384   3.804
 3100TIP3    H1 9177   4.884   2.393   3.867
 3100TIP3    H2 9178   4.997   2.474   3.807
 3101TIP3   OH2 9179   4.773   1.899   2.423
 3101TIP3    H1 9180   4.843   1.962   2.396
 3101TIP3    H2 9181   4.814   1.859   2.503
 3102TIP3   OH2 9182   4.899   1.768   2.627
 3102TIP3    H1 9183   4.833   1.722   2.685
 3102TIP3    H2 9184   4.963   1.804   2.692
 3103TIP3   OH2 9185   4.956   2.157   3.061
 3103TIP3    H1 9186   5.007   2.092   3.009
 3103TIP3    H2 9187   4.946   2.231   2.998
 3104TIP3   OH2 9188   4.787   2.457   3.256
 3104TIP3    H1 9189   4.715   2.501   3.306
 3104TIP3    H2 9190   4.737   2.410   3.186
 3105TIP3   OH2 9191   4.839   1.675   2.273
 3105TIP3    H1 9192   4.766   1.677   2.206
 3105TIP3    H2 9193   4.811   1.749   2.330
 3106TIP3   OH2 9194   4.710   1.343   2.225
 3106TIP3    H1 9195   4.663   1.380   2.149
 3106TIP3    H2 9196   4.687   1.248   2.219
 3107TIP3   OH2 9197   4.715   1.622   2.772
 3107TIP3    H1 9198   4.720   1.525   2.761
 3107TIP3    H2 9199   4.702   1.631   2.869
 3108TIP3   OH2 9200   3.340   1.703   3.516
 3108TIP3    H1 9201   3.340   1.667   3.425
 3108TIP3    H2 9202   3.436   1.700   3.536
 3109TIP3   OH2 9203   5.004   2.046   3.631
 3109TIP3    H1 9204   5.077   1.981   3.621
 3109TIP3    H2 9205   5.027   2.114   3.567
 3110TIP3   OH2 9206   5.191   1.853   3.650
 3110TIP3    H1 9207   5.115   1.803   3.688
 3110TIP3    H2 9208   5.262   1.787   3.664
 3111TIP3   OH2 9209   4.661   1.072   2.220
 3111TIP3    H1 9210   4.721   1.038   2.288
 3111TIP3    H2 9211   4.578   1.024   2.238
 3112TIP3   OH2 9212   4.709   1.347   2.667
 3112TIP3    H1 9213   4.741   1.256   2.691
 3112TIP3    H2 9214   4.774   1.368   2.598
 3113TIP3   OH2 9215   4.875   1.514   3.165
 3113TIP3    H1 9216   4.961   1.540   3.124
 3113TIP3    H2 9217   4.888   1.550   3.254
 3114TIP3   OH2 9218   4.944   1.657   3.398
 3114TIP3    H1 9219   4.863   1.691   3.443
 3114TIP3    H2 9220   4.975   1.737   3.351
 3115TIP3   OH2 9221   3.558   1.379   4.182
 3115TIP3    H1 9222   3.653   1.384   4.199
 3115TIP3    H2 9223   3.533   1.302   4.237
 3116TIP3   OH2 9224   5.392   1.245   3.952
 3116TIP3    H1 9225   5.452   1.180   3.909
 3116TIP3    H2 9226   5.365   1.301   3.876
 3117TIP3   OH2 9227   4.788   1.098   2.729
 3117TIP3    H1 9228   4.862   1.071   2.787
 3117TIP3    H2 9229   4.753   1.011   2.702
 3118TIP3   OH2 9230   3.520   1.075   3.528
 3118TIP3    H1 9231   3.582   1.000   3.535
 3118TIP3    H2 9232   3.582   1.149   3.519
 3119TIP3   OH2 9233   3.323   1.347   3.600
 3119TIP3    H1 9234   3.372   1.339   3.515
 3119TIP3    H2 9235   3.353   1.433   3.630
 3120TIP3   OH2 9236   5.265   1.388   3.758
 3120TIP3    H1 9237   5.176   1.427   3.773
 3120TIP3    H2 9238   5.239   1.315   3.698
 3121TIP3   OH2 9239   3.305   0.848   3.100
 3121TIP3    H1 9240   3.212   0.848   3.128
 3121TIP3    H2 9241   3.303   0.909   3.022
 3122TIP3   OH2 9242   4.465   2.553   2.605
 3122TIP3    H1 9243   4.517   2.540   2.523
 3122TIP3    H2 9244   4.517   2.622   2.651
 3123TIP3   OH2 9245   3.526   0.928   3.914
 3123TIP3    H1 9246   3.476   0.928   3.997
 3123TIP3    H2 9247   3.461   0.969   3.853
 3124TIP3   OH2 9248   3.557   2.352   3.980
 3124TIP3    H1 9249   3.464   2.327   3.987
 3124TIP3    H2 9250   3.590   2.332   4.068
 3125TIP3   OH2 9251   3.739   2.387   3.540
 3125TIP3    H1 9252   3.695   2.466   3.501
 3125TIP3    H2 9253   3.826   2.397   3.497
 3126TIP3   OH2 9254   4.190   2.635   3.677
 3126TIP3    H1 9255   4.232   2.637   3.765
 3126TIP3    H2 9256   4.255   2.686   3.624
 3127TIP3   OH2 9257   4.369   2.786   3.536
 3127TIP3    H1 9258   4.440   2.737   3.492
 3127TIP3    H2 9259   4.420   2.844   3.596
 3128TIP3   OH2 9260   5.162   1.149   3.637
 3128TIP3    H1 9261   5.072   1.145   3.599
 3128TIP3    H2 9262   5.193   1.057   3.624
 3129TIP3   OH2 9263   3.413   2.636   3.557
 3129TIP3    H1 9264   3.325   2.677   3.539
 3129TIP3    H2 9265   3.435   2.681   3.640
 3130TIP3   OH2 9266   3.653   2.619   3.418
 3130TIP3    H1 9267   3.568   2.640   3.463
 3130TIP3    H2 9268   3.639   2.661   3.331
 3131TIP3   OH2 9269   4.082   2.655   3.218
 3131TIP3    H1 9270   4.015   2.677   3.151
 3131TIP3    H2 9271   4.095   2.742   3.261
 3132TIP3   OH2 9272   4.351   2.595   3.269
 3132TIP3    H1 9273   4.257   2.612   3.250
 3132TIP3    H2 9274   4.394   2.672   3.227
 3133TIP3   OH2 9275   4.560   2.787   3.185
 3133TIP3    H1 9276   4.545   2.872   3.138
 3133TIP3    H2 9277   4.585   2.727   3.111
 3134TIP3   OH2 9278   3.334   2.440   3.302
 3134TIP3    H1 9279   3.376   2.470   3.384
 3134TIP3    H2 9280   3.410   2.397   3.255
 3135TIP3   OH2 9281   3.528   2.311   3.163
 3135TIP3    H1 9282   3.550   2.227   3.208
 3135TIP3    H2 9283   3.617   2.352   3.155
 3136TIP3   OH2 9284   3.790   2.408   3.166
 3136TIP3    H1 9285   3.825   2.318   3.151
 3136TIP3    H2 9286   3.835   2.430   3.250
 3137TIP3   OH2 9287   4.377   1.069   3.270
 3137TIP3    H1 9288   4.326   0.997   3.309
 3137TIP3    H2 9289   4.431   1.023   3.204
 3138TIP3   OH2 9290   4.894   0.954   3.169
 3138TIP3    H1 9291   4.930   0.998   3.089
 3138TIP3    H2 9292   4.797   0.961   3.154
 3139TIP3   OH2 9293   4.987   1.045   2.930
 3139TIP3    H1 9294   5.060   0.995   2.888
 3139TIP3    H2 9295   5.016   1.137   2.908
 3140TIP3   OH2 9296   3.616   0.773   3.273
 3140TIP3    H1 9297   3.524   0.741   3.272
 3140TIP3    H2 9298   3.665   0.688   3.268
 3141TIP3   OH2 9299   3.396   0.641   2.919
 3141TIP3    H1 9300   3.431   0.698   2.848
 3141TIP3    H2 9301   3.372   0.707   2.987
 3142TIP3   OH2 9302   4.060   0.806   3.151
 3142TIP3    H1 9303   4.119   0.853   3.090
 3142TIP3    H2 9304   4.081   0.848   3.235
 3143TIP3   OH2 9305   4.616   0.952   3.133
 3143TIP3    H1 9306   4.603   0.922   3.042
 3143TIP3    H2 9307   4.595   0.871   3.185
 3144TIP3   OH2 9308   4.636   0.870   2.698
 3144TIP3    H1 9309   4.551   0.914   2.712
 3144TIP3    H2 9310   4.622   0.783   2.740
 3145TIP3   OH2 9311   3.120   2.212   2.700
 3145TIP3    H1 9312   3.036   2.179   2.664
 3145TIP3    H2 9313   3.110   2.307   2.681
 3146TIP3   OH2 9314   3.521   0.803   2.681
 3146TIP3    H1 9315   3.573   0.741   2.626
 3146TIP3    H2 9316   3.593   0.858   2.718
 3147TIP3   OH2 9317   4.028   0.979   2.781
 3147TIP3    H1 9318   4.091   0.932   2.837
 3147TIP3    H2 9319   4.054   1.071   2.801
 3148TIP3   OH2 9320   3.892   2.403   2.281
 3148TIP3    H1 9321   3.981   2.426   2.245
 3148TIP3    H2 9322   3.870   2.328   2.221
 3149TIP3   OH2 9323   4.611   2.520   2.373
 3149TIP3    H1 9324   4.603   2.423   2.360
 3149TIP3    H2 9325   4.565   2.553   2.293
 3150TIP3   OH2 9326   3.825   1.061   4.163
 3150TIP3    H1 9327   3.788   0.990   4.219
 3150TIP3    H2 9328   3.919   1.058   4.188
 3151TIP3   OH2 9329   4.084   1.052   4.271
 3151TIP3    H1 9330   4.157   1.007   4.226
 3151TIP3    H2 9331   4.060   0.987   4.342
 3152TIP3   OH2 9332   3.194   2.230   2.338
 3152TIP3    H1 9333   3.195   2.268   2.427
 3152TIP3    H2 9334   3.286   2.197   2.327
 3153TIP3   OH2 9335   4.899   1.113   4.070
 3153TIP3    H1 9336   4.921   1.080   4.160
 3153TIP3    H2 9337   4.987   1.109   4.025
 3154TIP3   OH2 9338   4.838   2.665   3.561
 3154TIP3    H1 9339   4.759   2.633   3.512
 3154TIP3    H2 9340   4.819   2.761   3.563
 3155TIP3   OH2 9341   6.105   2.038   2.327
 3155TIP3    H1 9342   6.076   2.129   2.307
 3155TIP3    H2 9343   6.027   1.988   2.296
 3156TIP3   OH2 9344   6.103   2.036   2.707
 3156TIP3    H1 9345   6.133   2.007   2.794
 3156TIP3    H2 9346   6.060   1.956   2.672
 3157TIP3   OH2 9347   5.403   1.934   3.073
 3157TIP3    H1 9348   5.435   1.865   3.135
 3157TIP3    H2 9349   5.482   1.988   3.062
 3158TIP3   OH2 9350   6.346   2.339   2.388
 3158TIP3    H1 9351   6.331   2.270   2.454
 3158TIP3    H2 9352   6.374   2.414   2.444
 3159TIP3   OH2 9353   5.374   2.343   2.799
 3159TIP3    H1 9354   5.365   2.245   2.802
 3159TIP3    H2 9355   5.471   2.351   2.793
 3160TIP3   OH2 9356   5.081   1.552   2.588
 3160TIP3    H1 9357   5.020   1.628   2.596
 3160TIP3    H2 9358   5.023   1.487   2.545
 3161TIP3   OH2 9359   5.141   1.835   2.756
 3161TIP3    H1 9360   5.187   1.755   2.791
 3161TIP3    H2 9361   5.192   1.853   2.677
 3162TIP3   OH2 9362   5.993   2.801   2.404
 3162TIP3    H1 9363   6.042   2.729   2.358
 3162TIP3    H2 9364   5.987   2.767   2.494
 3163TIP3   OH2 9365   5.901   2.262   2.756
 3163TIP3    H1 9366   5.938   2.186   2.709
 3163TIP3    H2 9367   5.985   2.307   2.780
 3164TIP3   OH2 9368   6.912   1.584   2.753
 3164TIP3    H1 9369   6.943   1.665   2.797
 3164TIP3    H2 9370   6.935   1.602   2.661
 3165TIP3   OH2 9371   6.315   1.766   2.789
 3165TIP3    H1 9372   6.356   1.679   2.809
 3165TIP3    H2 9373   6.283   1.750   2.698
 3166TIP3   OH2 9374   5.653   1.425   2.754
 3166TIP3    H1 9375   5.629   1.496   2.692
 3166TIP3    H2 9376   5.607   1.349   2.711
 3167TIP3   OH2 9377   6.344   1.515   2.377
 3167TIP3    H1 9378   6.416   1.498   2.442
 3167TIP3    H2 9379   6.397   1.550   2.303
 3168TIP3   OH2 9380   5.284   1.625   2.860
 3168TIP3    H1 9381   5.367   1.603   2.906
 3168TIP3    H2 9382   5.293   1.568   2.781
 3169TIP3   OH2 9383   5.725   1.823   2.653
 3169TIP3    H1 9384   5.819   1.797   2.667
 3169TIP3    H2 9385   5.685   1.740   2.622
 3170TIP3   OH2 9386   6.987   1.790   2.923
 3170TIP3    H1 9387   6.904   1.838   2.904
 3170TIP3    H2 9388   7.000   1.813   3.016
 3171TIP3   OH2 9389   5.648   1.408   3.189
 3171TIP3    H1 9390   5.588   1.443   3.121
 3171TIP3    H2 9391   5.596   1.426   3.269
 3172TIP3   OH2 9392   6.000   2.261   2.195
 3172TIP3    H1 9393   5.950   2.236   2.116
 3172TIP3    H2 9394   5.954   2.344   2.219
 3173TIP3   OH2 9395   5.756   2.182   2.985
 3173TIP3    H1 9396   5.692   2.247   3.022
 3173TIP3    H2 9397   5.796   2.233   2.912
 3174TIP3   OH2 9398   6.556   1.517   2.547
 3174TIP3    H1 9399   6.548   1.465   2.628
 3174TIP3    H2 9400   6.610   1.593   2.576
 3175TIP3   OH2 9401   5.519   1.522   2.973
 3175TIP3    H1 9402   5.582   1.594   2.995
 3175TIP3    H2 9403   5.567   1.481   2.897
 3176TIP3   OH2 9404   5.583   2.376   3.082
 3176TIP3    H1 9405   5.557   2.461   3.042
 3176TIP3    H2 9406   5.503   2.360   3.137
 3177TIP3   OH2 9407   4.979   2.066   2.317
 3177TIP3    H1 9408   4.935   2.093   2.235
 3177TIP3    H2 9409   5.008   2.151   2.354
 3178TIP3   OH2 9410   6.417   2.581   2.557
 3178TIP3    H1 9411   6.328   2.573   2.597
 3178TIP3    H2 9412   6.409   2.668   2.512
 3179TIP3   OH2 9413   6.706   1.485   2.921
 3179TIP3    H1 9414   6.619   1.512   2.889
 3179TIP3    H2 9415   6.766   1.515   2.849
 3180TIP3   OH2 9416   6.007   1.128   2.903
 3180TIP3    H1 9417   5.993   1.032   2.918
 3180TIP3    H2 9418   5.928   1.164   2.949
 3181TIP3   OH2 9419   6.121   2.628   2.233
 3181TIP3    H1 9420   6.171   2.546   2.211
 3181TIP3    H2 9421   6.181   2.694   2.191
 3182TIP3   OH2 9422   6.264   2.412   2.135
 3182TIP3    H1 9423   6.215   2.335   2.104
 3182TIP3    H2 9424   6.299   2.379   2.221
 3183TIP3   OH2 9425   6.643   2.495   2.901
 3183TIP3    H1 9426   6.632   2.418   2.842
 3183TIP3    H2 9427   6.625   2.570   2.840
 3184TIP3   OH2 9428   5.934   1.888   2.157
 3184TIP3    H1 9429   5.853   1.939   2.137
 3184TIP3    H2 9430   5.979   1.886   2.071
 3185TIP3   OH2 9431   5.893   1.675   1.872
 3185TIP3    H1 9432   5.960   1.723   1.923
 3185TIP3    H2 9433   5.949   1.609   1.827
 3186TIP3   OH2 9434   6.838   2.131   2.745
 3186TIP3    H1 9435   6.755   2.184   2.751
 3186TIP3    H2 9436   6.867   2.155   2.655
 3187TIP3   OH2 9437   6.282   1.971   2.130
 3187TIP3    H1 9438   6.227   1.996   2.208
 3187TIP3    H2 9439   6.365   1.945   2.174
 3188TIP3   OH2 9440   6.517   2.011   3.040
 3188TIP3    H1 9441   6.513   2.096   3.088
 3188TIP3    H2 9442   6.430   2.013   2.995
 3189TIP3   OH2 9443   5.514   1.970   2.545
 3189TIP3    H1 9444   5.471   1.912   2.479
 3189TIP3    H2 9445   5.590   1.915   2.574
 3190TIP3   OH2 9446   5.644   2.381   2.695
 3190TIP3    H1 9447   5.622   2.337   2.612
 3190TIP3    H2 9448   5.734   2.347   2.713
 3191TIP3   OH2 9449   5.654   1.939   2.903
 3191TIP3    H1 9450   5.683   1.919   2.811
 3191TIP3    H2 9451   5.694   2.026   2.920
 3192TIP3   OH2 9452   6.176   2.578   2.677
 3192TIP3    H1 9453   6.161   2.658   2.729
 3192TIP3    H2 9454   6.161   2.505   2.741
 3193TIP3   OH2 9455   5.787   2.496   3.228
 3193TIP3    H1 9456   5.725   2.560   3.270
 3193TIP3    H2 9457   5.724   2.443   3.176
 3194TIP3   OH2 9458   6.124   1.829   1.955
 3194TIP3    H1 9459   6.181   1.889   2.008
 3194TIP3    H2 9460   6.150   1.854   1.863
 3195TIP3   OH2 9461   5.543   2.052   3.326
 3195TIP3    H1 9462   5.545   2.140   3.370
 3195TIP3    H2 9463   5.447   2.033   3.332
 3196TIP3   OH2 9464   5.865   2.508   2.229
 3196TIP3    H1 9465   5.943   2.564   2.251
 3196TIP3    H2 9466   5.803   2.572   2.193
 3197TIP3   OH2 9467   5.583   2.665   3.311
 3197TIP3    H1 9468   5.548   2.666   3.220
 3197TIP3    H2 9469   5.503   2.642   3.364
 3198TIP3   OH2 9470   6.639   1.071   2.004
 3198TIP3    H1 9471   6.556   1.088   2.055
 3198TIP3    H2 9472   6.649   1.155   1.956
 3199TIP3   OH2 9473   5.380   1.812   2.351
 3199TIP3    H1 9474   5.313   1.855   2.295
 3199TIP3    H2 9475   5.341   1.725   2.365
 3200TIP3   OH2 9476   6.435   2.438   1.549
 3200TIP3    H1 9477   6.444   2.535   1.538
 3200TIP3    H2 9478   6.529   2.409   1.539
 3201TIP3   OH2 9479   5.161   2.196   3.258
 3201TIP3    H1 9480   5.095   2.175   3.189
 3201TIP3    H2 9481   5.197   2.108   3.281
 3202TIP3   OH2 9482   5.015   2.388   2.892
 3202TIP3    H1 9483   5.111   2.384   2.883
 3202TIP3    H2 9484   5.003   2.469   2.944
 3203TIP3   OH2 9485   6.881   2.839   2.947
 3203TIP3    H1 9486   6.878   2.743   2.960
 3203TIP3    H2 9487   6.797   2.865   2.992
 3204TIP3   OH2 9488   5.988   2.624   3.083
 3204TIP3    H1 9489   5.987   2.718   3.113
 3204TIP3    H2 9490   5.914   2.587   3.136
 3205TIP3   OH2 9491   5.747   2.756   2.032
 3205TIP3    H1 9492   5.699   2.738   1.950
 3205TIP3    H2 9493   5.714   2.844   2.058
 3206TIP3   OH2 9494   5.185   2.604   2.416
 3206TIP3    H1 9495   5.232   2.595   2.502
 3206TIP3    H2 9496   5.125   2.527   2.420
 3207TIP3   OH2 9497   5.948   2.656   1.673
 3207TIP3    H1 9498   6.007   2.586   1.638
 3207TIP3    H2 9499   5.981   2.666   1.765
 3208TIP3   OH2 9500   5.998   2.703   1.943
 3208TIP3    H1 9501   5.909   2.714   1.985
 3208TIP3    H2 9502   6.048   2.664   2.016
 3209TIP3   OH2 9503   6.768   1.971   3.222
 3209TIP3    H1 9504   6.689   1.984   3.167
 3209TIP3    H2 9505   6.785   1.875   3.209
 3210TIP3   OH2 9506   5.366   2.378   3.246
 3210TIP3    H1 9507   5.414   2.361   3.329
 3210TIP3    H2 9508   5.291   2.315   3.253
 3211TIP3   OH2 9509   5.766   1.202   3.029
 3211TIP3    H1 9510   5.677   1.171   3.003
 3211TIP3    H2 9511   5.740   1.285   3.075
 3212TIP3   OH2 9512   6.299   1.319   3.225
 3212TIP3    H1 9513   6.367   1.289   3.289
 3212TIP3    H2 9514   6.215   1.297   3.271
 3213TIP3   OH2 9515   6.539   1.746   3.144
 3213TIP3    H1 9516   6.489   1.744   3.228
 3213TIP3    H2 9517   6.514   1.833   3.107
 3214TIP3   OH2 9518   6.197   1.876   1.698
 3214TIP3    H1 9519   6.166   1.849   1.610
 3214TIP3    H2 9520   6.277   1.927   1.675
 3215TIP3   OH2 9521   5.912   1.253   2.001
 3215TIP3    H1 9522   5.880   1.250   2.093
 3215TIP3    H2 9523   5.873   1.169   1.968
 3216TIP3   OH2 9524   5.699   1.717   3.051
 3216TIP3    H1 9525   5.646   1.737   3.130
 3216TIP3    H2 9526   5.683   1.797   2.996
 3217TIP3   OH2 9527   5.579   1.604   2.564
 3217TIP3    H1 9528   5.487   1.576   2.581
 3217TIP3    H2 9529   5.593   1.563   2.475
 3218TIP3   OH2 9530   6.073   1.691   2.292
 3218TIP3    H1 9531   6.019   1.762   2.250
 3218TIP3    H2 9532   6.126   1.660   2.216
 3219TIP3   OH2 9533   6.246   1.971   3.382
 3219TIP3    H1 9534   6.223   1.896   3.441
 3219TIP3    H2 9535   6.342   1.979   3.399
 3220TIP3   OH2 9536   6.230   1.719   2.530
 3220TIP3    H1 9537   6.169   1.748   2.459
 3220TIP3    H2 9538   6.263   1.637   2.488
 3221TIP3   OH2 9539   5.518   1.747   3.258
 3221TIP3    H1 9540   5.540   1.810   3.327
 3221TIP3    H2 9541   5.504   1.664   3.308
 3222TIP3   OH2 9542   5.567   1.223   1.970
 3222TIP3    H1 9543   5.558   1.215   2.067
 3222TIP3    H2 9544   5.485   1.272   1.949
 3223TIP3   OH2 9545   5.110   1.269   2.842
 3223TIP3    H1 9546   5.186   1.300   2.895
 3223TIP3    H2 9547   5.148   1.252   2.755
 3224TIP3   OH2 9548   5.148   1.311   2.380
 3224TIP3    H1 9549   5.152   1.318   2.283
 3224TIP3    H2 9550   5.052   1.311   2.396
 3225TIP3   OH2 9551   6.242   1.965   2.954
 3225TIP3    H1 9552   6.273   1.893   2.895
 3225TIP3    H2 9553   6.211   1.912   3.030
 3226TIP3   OH2 9554   5.908   1.428   2.625
 3226TIP3    H1 9555   5.824   1.425   2.675
 3226TIP3    H2 9556   5.974   1.425   2.696
 3227TIP3   OH2 9557   5.341   1.479   2.633
 3227TIP3    H1 9558   5.248   1.490   2.602
 3227TIP3    H2 9559   5.361   1.389   2.602
 3228TIP3   OH2 9560   5.614   1.481   2.322
 3228TIP3    H1 9561   5.707   1.495   2.297
 3228TIP3    H2 9562   5.564   1.501   2.239
 3229TIP3   OH2 9563   6.399   1.502   2.827
 3229TIP3    H1 9564   6.364   1.514   2.918
 3229TIP3    H2 9565   6.335   1.439   2.790
 3230TIP3   OH2 9566   5.453   1.513   2.103
 3230TIP3    H1 9567   5.376   1.469   2.063
 3230TIP3    H2 9568   5.501   1.544   2.024
 3231TIP3   OH2 9569   6.570   3.189   3.045
 3231TIP3    H1 9570   6.567   3.215   2.951
 3231TIP3    H2 9571   6.646   3.242   3.078
 3232TIP3   OH2 9572   5.527   2.300   3.466
 3232TIP3    H1 9573   5.603   2.338   3.512
 3232TIP3    H2 9574   5.460   2.299   3.538
 3233TIP3   OH2 9575   5.992   1.755   2.723
 3233TIP3    H1 9576   6.063   1.712   2.672
 3233TIP3    H2 9577   6.000   1.711   2.810
 3234TIP3   OH2 9578   5.524   1.240   2.602
 3234TIP3    H1 9579   5.481   1.163   2.645
 3234TIP3    H2 9580   5.558   1.201   2.520
 3235TIP3   OH2 9581   5.969   1.650   3.011
 3235TIP3    H1 9582   5.878   1.685   3.025
 3235TIP3    H2 9583   6.025   1.711   3.062
 3236TIP3   OH2 9584   5.706   2.042   2.107
 3236TIP3    H1 9585   5.634   1.976   2.096
 3236TIP3    H2 9586   5.687   2.075   2.198
 3237TIP3   OH2 9587   6.606   2.278   2.737
 3237TIP3    H1 9588   6.629   2.327   2.655
 3237TIP3    H2 9589   6.520   2.236   2.712
 3238TIP3   OH2 9590   6.162   1.357   1.964
 3238TIP3    H1 9591   6.067   1.337   1.976
 3238TIP3    H2 9592   6.171   1.449   1.994
 3239TIP3   OH2 9593   6.105   2.360   3.103
 3239TIP3    H1 9594   6.123   2.338   3.195
 3239TIP3    H2 9595   6.067   2.450   3.109
 3240TIP3   OH2 9596   6.233   1.601   2.072
 3240TIP3    H1 9597   6.329   1.606   2.089
 3240TIP3    H2 9598   6.215   1.682   2.021
 3241TIP3   OH2 9599   5.401   2.067   2.784
 3241TIP3    H1 9600   5.435   2.036   2.697
 3241TIP3    H2 9601   5.432   1.998   2.844
 3242TIP3   OH2 9602   5.849   2.191   1.925
 3242TIP3    H1 9603   5.802   2.277   1.933
 3242TIP3    H2 9604   5.795   2.136   1.987
 3243TIP3   OH2 9605   5.277   1.983   3.395
 3243TIP3    H1 9606   5.294   1.967   3.490
 3243TIP3    H2 9607   5.206   1.918   3.376
 3244TIP3   OH2 9608   6.001   2.098   3.416
 3244TIP3    H1 9609   5.941   2.039   3.367
 3244TIP3    H2 9610   6.088   2.063   3.388
 3245TIP3   OH2 9611   6.266   2.617   3.001
 3245TIP3    H1 9612   6.170   2.617   3.012
 3245TIP3    H2 9613   6.293   2.671   3.078
 3246TIP3   OH2 9614   6.677   1.690   1.906
 3246TIP3    H1 9615   6.614   1.645   1.846
 3246TIP3    H2 9616   6.671   1.780   1.868
 3247TIP3   OH2 9617   6.893   2.548   2.990
 3247TIP3    H1 9618   6.795   2.543   2.981
 3247TIP3    H2 9619   6.919   2.518   2.900
 3248TIP3   OH2 9620   6.375   2.510   1.816
 3248TIP3    H1 9621   6.349   2.443   1.880
 3248TIP3    H2 9622   6.386   2.460   1.734
 3249TIP3   OH2 9623   6.371   2.139   2.656
 3249TIP3    H1 9624   6.277   2.114   2.669
 3249TIP3    H2 9625   6.405   2.060   2.611
 3250TIP3   OH2 9626   5.497   2.366   2.406
 3250TIP3    H1 9627   5.497   2.449   2.354
 3250TIP3    H2 9628   5.403   2.351   2.418
 3251TIP3   OH2 9629   5.058   1.674   2.109
 3251TIP3    H1 9630   5.106   1.756   2.132
 3251TIP3    H2 9631   4.983   1.677   2.172
 3252TIP3   OH2 9632   5.639   2.134   2.352
 3252TIP3    H1 9633   5.602   2.223   2.371
 3252TIP3    H2 9634   5.602   2.082   2.426
 3253TIP3   OH2 9635   5.767   2.712   2.877
 3253TIP3    H1 9636   5.806   2.785   2.826
 3253TIP3    H2 9637   5.845   2.678   2.924
 3254TIP3   OH2 9638   5.418   2.606   2.260
 3254TIP3    H1 9639   5.332   2.614   2.306
 3254TIP3    H2 9640   5.449   2.699   2.263
 3255TIP3   OH2 9641   6.156   2.345   2.835
 3255TIP3    H1 9642   6.148   2.343   2.933
 3255TIP3    H2 9643   6.236   2.291   2.821
 3256TIP3   OH2 9644   6.129   2.237   1.717
 3256TIP3    H1 9645   6.182   2.212   1.796
 3256TIP3    H2 9646   6.041   2.212   1.748
 3257TIP3   OH2 9647   6.405   2.878   2.885
 3257TIP3    H1 9648   6.325   2.824   2.877
 3257TIP3    H2 9649   6.390   2.944   2.814
 3258TIP3   OH2 9650   6.470   2.714   1.538
 3258TIP3    H1 9651   6.509   2.788   1.489
 3258TIP3    H2 9652   6.389   2.758   1.572
 3259TIP3   OH2 9653   5.489   1.491   3.405
 3259TIP3    H1 9654   5.392   1.494   3.416
 3259TIP3    H2 9655   5.514   1.428   3.474
 3260TIP3   OH2 9656   6.290   2.168   1.931
 3260TIP3    H1 9657   6.279   2.106   2.006
 3260TIP3    H2 9658   6.387   2.169   1.923
 3261TIP3   OH2 9659   5.206   2.574   3.035
 3261TIP3    H1 9660   5.258   2.500   3.069
 3261TIP3    H2 9661   5.233   2.645   3.095
 3262TIP3   OH2 9662   5.497   2.218   1.716
 3262TIP3    H1 9663   5.510   2.125   1.690
 3262TIP3    H2 9664   5.478   2.208   1.812
 3263TIP3   OH2 9665   5.443   2.224   1.988
 3263TIP3    H1 9666   5.510   2.195   2.051
 3263TIP3    H2 9667   5.447   2.322   1.997
 3264TIP3   OH2 9668   5.178   1.918   2.193
 3264TIP3    H1 9669   5.112   1.961   2.251
 3264TIP3    H2 9670   5.191   1.988   2.126
 3265TIP3   OH2 9671   6.324   1.556   3.087
 3265TIP3    H1 9672   6.407   1.590   3.123
 3265TIP3    H2 9673   6.310   1.474   3.140
 3266TIP3   OH2 9674   6.206   1.306   2.249
 3266TIP3    H1 9675   6.193   1.330   2.156
 3266TIP3    H2 9676   6.245   1.388   2.286
 3267TIP3   OH2 9677   5.707   2.422   1.937
 3267TIP3    H1 9678   5.621   2.447   1.975
 3267TIP3    H2 9679   5.724   2.497   1.879
 3268TIP3   OH2 9680   5.899   1.484   2.352
 3268TIP3    H1 9681   5.963   1.557   2.337
 3268TIP3    H2 9682   5.900   1.477   2.450
 3269TIP3   OH2 9683   6.165   1.804   3.160
 3269TIP3    H1 9684   6.184   1.855   3.241
 3269TIP3    H2 9685   6.219   1.724   3.171
 3270TIP3   OH2 9686   6.041   1.213   2.457
 3270TIP3    H1 9687   6.033   1.291   2.515
 3270TIP3    H2 9688   6.101   1.249   2.387
 3271TIP3   OH2 9689   5.451   2.496   2.006
 3271TIP3    H1 9690   5.420   2.566   1.944
 3271TIP3    H2 9691   5.434   2.539   2.093
 3272TIP3   OH2 9692   5.559   1.208   2.248
 3272TIP3    H1 9693   5.548   1.298   2.284
 3272TIP3    H2 9694   5.656   1.197   2.255
 3273TIP3   OH2 9695   6.806   1.705   3.140
 3273TIP3    H1 9696   6.708   1.703   3.147
 3273TIP3    H2 9697   6.817   1.660   3.056
 3274TIP3   OH2 9698   6.456   1.898   2.528
 3274TIP3    H1 9699   6.380   1.839   2.541
 3274TIP3    H2 9700   6.528   1.851   2.576
 3275TIP3   OH2 9701   5.168   2.128   1.999
 3275TIP3    H1 9702   5.232   2.200   2.008
 3275TIP3    H2 9703   5.215   2.074   1.932
 3276TIP3   OH2 9704   5.113   1.403   2.113
 3276TIP3    H1 9705   5.107   1.500   2.121
 3276TIP3    H2 9706   5.021   1.376   2.103
 3277TIP3   OH2 9707   6.425   2.852   2.478
 3277TIP3    H1 9708   6.382   2.899   2.403
 3277TIP3    H2 9709   6.519   2.872   2.458
 3278TIP3   OH2 9710   5.501   1.123   3.006
 3278TIP3    H1 9711   5.469   1.090   2.919
 3278TIP3    H2 9712   5.489   1.044   3.063
 3279TIP3   OH2 9713   5.041   2.342   2.388
 3279TIP3    H1 9714   4.968   2.372   2.444
 3279TIP3    H2 9715   5.016   2.381   2.301
 3280TIP3   OH2 9716   5.195   2.880   3.459
 3280TIP3    H1 9717   5.281   2.880   3.506
 3280TIP3    H2 9718   5.174   2.786   3.458
 3281TIP3   OH2 9719   5.678   2.838   3.513
 3281TIP3    H1 9720   5.775   2.839   3.505
 3281TIP3    H2 9721   5.653   2.787   3.434
 3282TIP3   OH2 9722   5.659   2.422   1.629
 3282TIP3    H1 9723   5.601   2.353   1.669
 3282TIP3    H2 9724   5.735   2.368   1.602
 3283TIP3   OH2 9725   6.316   2.754   3.236
 3283TIP3    H1 9726   6.310   2.684   3.305
 3283TIP3    H2 9727   6.394   2.805   3.265
 3284TIP3   OH2 9728   6.096   2.463   1.542
 3284TIP3    H1 9729   6.139   2.400   1.602
 3284TIP3    H2 9730   6.156   2.463   1.464
 3285TIP3   OH2 9731   5.328   2.287   3.659
 3285TIP3    H1 9732   5.343   2.191   3.660
 3285TIP3    H2 9733   5.240   2.292   3.615
 3286TIP3   OH2 9734   5.304   1.941   1.850
 3286TIP3    H1 9735   5.356   1.905   1.924
 3286TIP3    H2 9736   5.374   1.945   1.781
 3287TIP3   OH2 9737   5.933   2.371   3.432
 3287TIP3    H1 9738   5.892   2.390   3.345
 3287TIP3    H2 9739   5.964   2.279   3.422
 3288TIP3   OH2 9740   5.814   2.138   1.656
 3288TIP3    H1 9741   5.815   2.151   1.753
 3288TIP3    H2 9742   5.811   2.040   1.652
 3289TIP3   OH2 9743   6.428   2.381   3.039
 3289TIP3    H1 9744   6.502   2.426   2.994
 3289TIP3    H2 9745   6.356   2.445   3.025
 3290TIP3   OH2 9746   5.446   2.024   3.639
 3290TIP3    H1 9747   5.517   1.962   3.618
 3290TIP3    H2 9748   5.470   2.052   3.730
 3291TIP3   OH2 9749   5.515   1.842   2.075
 3291TIP3    H1 9750   5.484   1.802   2.158
 3291TIP3    H2 9751   5.548   1.765   2.026
 3292TIP3   OH2 9752   5.783   1.910   3.305
 3292TIP3    H1 9753   5.703   1.966   3.305
 3292TIP3    H2 9754   5.830   1.941   3.224
 3293TIP3   OH2 9755   5.612   1.636   1.913
 3293TIP3    H1 9756   5.585   1.639   1.819
 3293TIP3    H2 9757   5.709   1.642   1.906
 3294TIP3   OH2 9758   6.300   2.311   3.440
 3294TIP3    H1 9759   6.375   2.286   3.383
 3294TIP3    H2 9760   6.297   2.238   3.504
 3295TIP3   OH2 9761   6.437   1.968   1.574
 3295TIP3    H1 9762   6.412   1.921   1.492
 3295TIP3    H2 9763   6.403   2.058   1.552
 3296TIP3   OH2 9764   5.904   1.695   3.429
 3296TIP3    H1 9765   5.904   1.615   3.373
 3296TIP3    H2 9766   5.861   1.761   3.371
 3297TIP3   OH2 9767   5.907   1.482   3.236
 3297TIP3    H1 9768   5.934   1.522   3.151
 3297TIP3    H2 9769   5.813   1.459   3.217
 3298TIP3   OH2 9770   5.936   2.020   3.109
 3298TIP3    H1 9771   6.017   2.025   3.057
 3298TIP3    H2 9772   5.879   2.085   3.065
 3299TIP3   OH2 9773   6.521   1.986   3.494
 3299TIP3    H1 9774   6.565   1.899   3.495
 3299TIP3    H2 9775   6.588   2.041   3.452
 3300TIP3   OH2 9776   6.557   2.239   3.229
 3300TIP3    H1 9777   6.500   2.291   3.168
 3300TIP3    H2 9778   6.645   2.257   3.188
 3301TIP3   OH2 9779   5.782   1.809   3.659
 3301TIP3    H1 9780   5.714   1.740   3.673
 3301TIP3    H2 9781   5.816   1.785   3.571
 3302TIP3   OH2 9782   6.039   1.246   3.302
 3302TIP3    H1 9783   5.990   1.328   3.279
 3302TIP3    H2 9784   5.970   1.177   3.290
 3303TIP3   OH2 9785   6.164   1.751   3.518
 3303TIP3    H1 9786   6.151   1.738   3.614
 3303TIP3    H2 9787   6.075   1.726   3.486
 3304TIP3   OH2 9788   6.406   1.705   3.376
 3304TIP3    H1 9789   6.329   1.701   3.436
 3304TIP3    H2 9790   6.478   1.669   3.431
 3305TIP3   OH2 9791   6.634   1.640   3.526
 3305TIP3    H1 9792   6.647   1.544   3.542
 3305TIP3    H2 9793   6.632   1.677   3.617
 3306TIP3   OH2 9794   5.623   1.589   3.710
 3306TIP3    H1 9795   5.627   1.498   3.674
 3306TIP3    H2 9796   5.658   1.574   3.800
 3307TIP3   OH2 9797   6.134   1.256   3.559
 3307TIP3    H1 9798   6.201   1.185   3.554
 3307TIP3    H2 9799   6.094   1.249   3.470
 3308TIP3   OH2 9800   6.200   1.471   3.718
 3308TIP3    H1 9801   6.178   1.399   3.654
 3308TIP3    H2 9802   6.122   1.529   3.711
 3309TIP3   OH2 9803   5.419   2.698   1.818
 3309TIP3    H1 9804   5.515   2.696   1.799
 3309TIP3    H2 9805   5.388   2.748   1.740
 3310TIP3   OH2 9806   4.899   2.081   2.034
 3310TIP3    H1 9807   4.994   2.103   2.022
 3310TIP3    H2 9808   4.894   1.992   1.993
 3311TIP3   OH2 9809   4.815   2.693   2.447
 3311TIP3    H1 9810   4.747   2.631   2.412
 3311TIP3    H2 9811   4.859   2.636   2.514
 3312TIP3   OH2 9812   4.951   2.545   2.634
 3312TIP3    H1 9813   4.937   2.472   2.696
 3312TIP3    H2 9814   5.001   2.607   2.691
 3313TIP3   OH2 9815   6.677   2.944   2.434
 3313TIP3    H1 9816   6.702   2.977   2.522
 3313TIP3    H2 9817   6.737   2.993   2.376
 3314TIP3   OH2 9818   6.706   2.965   2.716
 3314TIP3    H1 9819   6.664   2.876   2.712
 3314TIP3    H2 9820   6.782   2.945   2.773
 3315TIP3   OH2 9821   6.755   2.641   3.290
 3315TIP3    H1 9822   6.680   2.650   3.353
 3315TIP3    H2 9823   6.795   2.730   3.293
 3316TIP3   OH2 9824   6.570   2.154   1.910
 3316TIP3    H1 9825   6.639   2.219   1.884
 3316TIP3    H2 9826   6.611   2.115   1.990
 3317TIP3   OH2 9827   6.696   2.022   2.113
 3317TIP3    H1 9828   6.631   1.980   2.173
 3317TIP3    H2 9829   6.761   2.060   2.176
 3318TIP3   OH2 9830   6.750   2.413   2.546
 3318TIP3    H1 9831   6.804   2.350   2.495
 3318TIP3    H2 9832   6.742   2.488   2.484
 3319TIP3   OH2 9833   6.583   2.714   2.742
 3319TIP3    H1 9834   6.512   2.757   2.793
 3319TIP3    H2 9835   6.532   2.667   2.672
 3320TIP3   OH2 9836   6.636   1.930   1.760
 3320TIP3    H1 9837   6.563   1.933   1.693
 3320TIP3    H2 9838   6.609   2.005   1.817
 3321TIP3   OH2 9839   6.508   1.603   1.713
 3321TIP3    H1 9840   6.460   1.639   1.637
 3321TIP3    H2 9841   6.483   1.508   1.707
 3322TIP3   OH2 9842   6.512   1.878   2.260
 3322TIP3    H1 9843   6.519   1.781   2.256
 3322TIP3    H2 9844   6.498   1.893   2.357
 3323TIP3   OH2 9845   5.137   1.950   3.008
 3323TIP3    H1 9846   5.135   1.921   2.915
 3323TIP3    H2 9847   5.235   1.953   3.024
 3324TIP3   OH2 9848   6.800   2.303   3.118
 3324TIP3    H1 9849   6.872   2.237   3.109
 3324TIP3    H2 9850   6.826   2.372   3.055
 3325TIP3   OH2 9851   6.985   2.109   3.137
 3325TIP3    H1 9852   6.911   2.057   3.175
 3325TIP3    H2 9853   7.059   2.045   3.150
 3326TIP3   OH2 9854   6.449   1.338   1.702
 3326TIP3    H1 9855   6.523   1.307   1.758
 3326TIP3    H2 9856   6.377   1.278   1.726
 3327TIP3   OH2 9857   6.507   1.594   2.156
 3327TIP3    H1 9858   6.546   1.505   2.172
 3327TIP3    H2 9859   6.567   1.626   2.086
 3328TIP3   OH2 9860   6.669   1.770   2.650
 3328TIP3    H1 9861   6.755   1.796   2.610
 3328TIP3    H2 9862   6.683   1.805   2.740
 3329TIP3   OH2 9863   6.738   1.913   2.883
 3329TIP3    H1 9864   6.659   1.947   2.930
 3329TIP3    H2 9865   6.770   1.993   2.837
 3330TIP3   OH2 9866   5.356   1.641   3.686
 3330TIP3    H1 9867   5.453   1.632   3.684
 3330TIP3    H2 9868   5.331   1.554   3.724
 3331TIP3   OH2 9869   7.183   1.501   3.439
 3331TIP3    H1 9870   7.248   1.436   3.402
 3331TIP3    H2 9871   7.164   1.557   3.361
 3332TIP3   OH2 9872   6.616   1.344   2.193
 3332TIP3    H1 9873   6.664   1.328   2.277
 3332TIP3    H2 9874   6.556   1.267   2.191
 3333TIP3   OH2 9875   5.317   1.332   3.017
 3333TIP3    H1 9876   5.378   1.255   3.022
 3333TIP3    H2 9877   5.380   1.405   3.007
 3334TIP3   OH2 9878   5.122   1.606   3.088
 3334TIP3    H1 9879   5.167   1.594   3.003
 3334TIP3    H2 9880   5.151   1.694   3.112
 3335TIP3   OH2 9881   7.060   1.646   3.241
 3335TIP3    H1 9882   6.971   1.682   3.257
 3335TIP3    H2 9883   7.038   1.570   3.186
 3336TIP3   OH2 9884   6.695   1.287   1.830
 3336TIP3    H1 9885   6.727   1.212   1.776
 3336TIP3    H2 9886   6.767   1.352   1.819
 3337TIP3   OH2 9887   6.261   2.810   2.091
 3337TIP3    H1 9888   6.315   2.798   2.010
 3337TIP3    H2 9889   6.312   2.878   2.139
 3338TIP3   OH2 9890   5.323   1.189   3.403
 3338TIP3    H1 9891   5.270   1.184   3.484
 3338TIP3    H2 9892   5.258   1.227   3.341
 3339TIP3   OH2 9893   5.365   2.608   3.480
 3339TIP3    H1 9894   5.272   2.585   3.457
 3339TIP3    H2 9895   5.362   2.604   3.576
 3340TIP3   OH2 9896   5.541   2.647   3.026
 3340TIP3    H1 9897   5.491   2.722   2.987
 3340TIP3    H2 9898   5.626   2.662   2.980
 3341TIP3   OH2 9899   5.987   2.891   3.162
 3341TIP3    H1 9900   6.028   2.896   3.251
 3341TIP3    H2 9901   6.051   2.942   3.109
 3342TIP3   OH2 9902   6.165   3.042   3.022
 3342TIP3    H1 9903   6.238   2.994   2.980
 3342TIP3    H2 9904   6.215   3.101   3.083
 3343TIP3   OH2 9905   6.959   1.405   3.123
 3343TIP3    H1 9906   6.868   1.396   3.089
 3343TIP3    H2 9907   6.992   1.313   3.112
 3344TIP3   OH2 9908   5.218   2.903   3.051
 3344TIP3    H1 9909   5.129   2.936   3.025
 3344TIP3    H2 9910   5.227   2.947   3.136
 3345TIP3   OH2 9911   5.453   2.882   2.906
 3345TIP3    H1 9912   5.367   2.895   2.951
 3345TIP3    H2 9913   5.433   2.917   2.817
 3346TIP3   OH2 9914   5.879   2.912   2.703
 3346TIP3    H1 9915   5.810   2.933   2.639
 3346TIP3    H2 9916   5.892   2.999   2.747
 3347TIP3   OH2 9917   6.148   2.851   2.755
 3347TIP3    H1 9918   6.053   2.869   2.736
 3347TIP3    H2 9919   6.190   2.929   2.716
 3348TIP3   OH2 9920   6.357   3.044   2.672
 3348TIP3    H1 9921   6.342   3.129   2.625
 3348TIP3    H2 9922   6.381   2.984   2.598
 3349TIP3   OH2 9923   5.129   2.699   2.793
 3349TIP3    H1 9924   5.154   2.673   2.884
 3349TIP3    H2 9925   5.201   2.654   2.743
 3350TIP3   OH2 9926   5.322   2.569   2.650
 3350TIP3    H1 9927   5.338   2.486   2.700
 3350TIP3    H2 9928   5.412   2.607   2.645
 3351TIP3   OH2 9929   5.588   2.665   2.652
 3351TIP3    H1 9930   5.620   2.573   2.641
 3351TIP3    H2 9931   5.630   2.687   2.737
 3352TIP3   OH2 9932   6.165   1.321   2.742
 3352TIP3    H1 9933   6.120   1.252   2.794
 3352TIP3    H2 9934   6.235   1.272   2.696
 3353TIP3   OH2 9935   6.688   1.202   2.647
 3353TIP3    H1 9936   6.724   1.254   2.571
 3353TIP3    H2 9937   6.592   1.218   2.639
 3354TIP3   OH2 9938   6.783   1.303   2.410
 3354TIP3    H1 9939   6.856   1.251   2.371
 3354TIP3    H2 9940   6.816   1.395   2.395
 3355TIP3   OH2 9941   5.414   1.031   2.758
 3355TIP3    H1 9942   5.321   0.997   2.763
 3355TIP3    H2 9943   5.462   0.946   2.751
 3356TIP3   OH2 9944   5.859   1.059   2.637
 3356TIP3    H1 9945   5.917   1.112   2.579
 3356TIP3    H2 9946   5.873   1.101   2.723
 3357TIP3   OH2 9947   6.406   1.208   2.621
 3357TIP3    H1 9948   6.401   1.170   2.533
 3357TIP3    H2 9949   6.391   1.129   2.677
 3358TIP3   OH2 9950   6.433   1.131   2.184
 3358TIP3    H1 9951   6.346   1.172   2.195
 3358TIP3    H2 9952   6.419   1.046   2.231
 3359TIP3   OH2 9953   4.917   2.469   2.184
 3359TIP3    H1 9954   4.832   2.436   2.151
 3359TIP3    H2 9955   4.905   2.564   2.169
 3360TIP3   OH2 9956   5.320   1.083   2.133
 3360TIP3    H1 9957   5.374   1.006   2.109
 3360TIP3    H2 9958   5.370   1.122   2.207
 3361TIP3   OH2 9959   5.833   1.234   2.266
 3361TIP3    H1 9960   5.890   1.187   2.329
 3361TIP3    H2 9961   5.854   1.327   2.292
 3362TIP3   OH2 9962   5.688   2.660   1.766
 3362TIP3    H1 9963   5.777   2.682   1.731
 3362TIP3    H2 9964   5.666   2.584   1.707
 3363TIP3   OH2 9965   6.408   2.777   1.859
 3363TIP3    H1 9966   6.399   2.680   1.847
 3363TIP3    H2 9967   6.361   2.810   1.779
 3364TIP3   OH2 9968   5.620   1.312   3.651
 3364TIP3    H1 9969   5.587   1.240   3.707
 3364TIP3    H2 9970   5.715   1.312   3.676
 3365TIP3   OH2 9971   5.870   1.309   3.768
 3365TIP3    H1 9972   5.954   1.282   3.727
 3365TIP3    H2 9973   5.858   1.238   3.835
 3366TIP3   OH2 9974   4.992   2.498   1.824
 3366TIP3    H1 9975   4.989   2.523   1.918
 3366TIP3    H2 9976   5.081   2.456   1.816
 3367TIP3   OH2 9977   6.695   1.370   3.555
 3367TIP3    H1 9978   6.714   1.337   3.646
 3367TIP3    H2 9979   6.783   1.365   3.513
 3368TIP3   OH2 9980   6.634   2.921   3.048
 3368TIP3    H1 9981   6.555   2.890   2.999
 3368TIP3    H2 9982   6.615   3.017   3.050
 3369TIP3   OH2 9983   7.900   2.292   1.815
 3369TIP3    H1 9984   7.873   2.384   1.796
 3369TIP3    H2 9985   7.822   2.244   1.783
 3370TIP3   OH2 9986   7.898   2.293   2.194
 3370TIP3    H1 9987   7.930   2.266   2.282
 3370TIP3    H2 9988   7.856   2.212   2.162
 3371TIP3   OH2 9989   7.199   2.189   2.560
 3371TIP3    H1 9990   7.229   2.121   2.623
 3371TIP3    H2 9991   7.277   2.246   2.556
 3372TIP3   OH2 9992   8.142   2.595   1.876
 3372TIP3    H1 9993   8.128   2.527   1.942
 3372TIP3    H2 9994   8.170   2.671   1.930
 3373TIP3   OH2 9995   7.168   2.598   2.284
 3373TIP3    H1 9996   7.160   2.500   2.288
 3373TIP3    H2 9997   7.265   2.607   2.281
 3374TIP3   OH2 9998   6.878   1.804   2.069
 3374TIP3    H1 9999   6.828   1.886   2.085
 3374TIP3    H210000   6.807   1.747   2.036
 3375TIP3   OH210001   6.935   2.089   2.240
 3375TIP3    H110002   6.984   2.012   2.279
 3375TIP3    H210003   6.997   2.119   2.173
 3376TIP3   OH210004   7.789   3.057   1.891
 3376TIP3    H110005   7.837   2.986   1.844
 3376TIP3    H210006   7.786   3.023   1.981
 3377TIP3   OH210007   7.698   2.519   2.242
 3377TIP3    H110008   7.737   2.443   2.196
 3377TIP3    H210009   7.781   2.565   2.267
 3378TIP3   OH210010   8.642   1.864   2.253
 3378TIP3    H110011   8.703   1.915   2.310
 3378TIP3    H210012   8.692   1.868   2.169
 3379TIP3   OH210013   8.110   2.022   2.276
 3379TIP3    H110014   8.145   1.934   2.299
 3379TIP3    H210015   8.078   2.007   2.185
 3380TIP3   OH210016   7.448   1.680   2.239
 3380TIP3    H110017   7.425   1.753   2.178
 3380TIP3    H210018   7.399   1.606   2.197
 3381TIP3   OH210019   8.148   1.773   1.871
 3381TIP3    H110020   8.223   1.747   1.926
 3381TIP3    H210021   8.192   1.804   1.789
 3382TIP3   OH210022   7.081   1.883   2.347
 3382TIP3    H110023   7.164   1.863   2.395
 3382TIP3    H210024   7.094   1.826   2.268
 3383TIP3   OH210025   7.522   2.081   2.138
 3383TIP3    H110026   7.616   2.055   2.153
 3383TIP3    H210027   7.483   1.996   2.108
 3384TIP3   OH210028   8.776   2.041   2.414
 3384TIP3    H110029   8.698   2.099   2.406
 3384TIP3    H210030   8.825   2.081   2.490
 3385TIP3   OH210031   7.445   1.663   2.674
 3385TIP3    H110032   7.383   1.700   2.608
 3385TIP3    H210033   7.395   1.679   2.756
 3386TIP3   OH210034   7.792   2.514   1.685
 3386TIP3    H110035   7.749   2.495   1.601
 3386TIP3    H210036   7.750   2.600   1.708
 3387TIP3   OH210037   7.551   2.439   2.471
 3387TIP3    H110038   7.488   2.504   2.509
 3387TIP3    H210039   7.593   2.491   2.400
 3388TIP3   OH210040   8.368   1.720   2.069
 3388TIP3    H110041   8.321   1.751   2.151
 3388TIP3    H210042   8.417   1.803   2.049
 3389TIP3   OH210043   7.314   1.779   2.458
 3389TIP3    H110044   7.377   1.851   2.483
 3389TIP3    H210045   7.365   1.737   2.385
 3390TIP3   OH210046   7.377   2.632   2.567
 3390TIP3    H110047   7.352   2.719   2.529
 3390TIP3    H210048   7.299   2.616   2.624
 3391TIP3   OH210049   6.776   2.323   1.804
 3391TIP3    H110050   6.731   2.352   1.723
 3391TIP3    H210051   6.805   2.408   1.842
 3392TIP3   OH210052   8.213   2.837   2.042
 3392TIP3    H110053   8.123   2.829   2.082
 3392TIP3    H210054   8.206   2.924   1.998
 3393TIP3   OH210055   8.474   1.711   2.394
 3393TIP3    H110056   8.397   1.769   2.394
 3393TIP3    H210057   8.538   1.762   2.339
 3394TIP3   OH210058   7.800   1.384   2.387
 3394TIP3    H110059   7.789   1.289   2.407
 3394TIP3    H210060   7.723   1.421   2.435
 3395TIP3   OH210061   7.916   2.885   1.718
 3395TIP3    H110062   7.966   2.803   1.697
 3395TIP3    H210063   7.976   2.951   1.677
 3396TIP3   OH210064   8.058   2.670   1.624
 3396TIP3    H110065   8.021   2.590   1.584
 3396TIP3    H210066   8.094   2.635   1.709
 3397TIP3   OH210067   8.437   2.751   2.387
 3397TIP3    H110068   8.425   2.674   2.328
 3397TIP3    H210069   8.419   2.827   2.327
 3398TIP3   OH210070   7.729   2.144   1.645
 3398TIP3    H110071   7.651   2.198   1.621
 3398TIP3    H210072   7.778   2.140   1.561
 3399TIP3   OH210073   7.688   1.929   1.368
 3399TIP3    H110074   7.761   1.977   1.412
 3399TIP3    H210075   7.740   1.866   1.314
 3400TIP3   OH210076   8.631   2.385   2.233
 3400TIP3    H110077   8.549   2.439   2.237
 3400TIP3    H210078   8.663   2.406   2.143
 3401TIP3   OH210079   8.076   2.228   1.616
 3401TIP3    H110080   8.023   2.252   1.695
 3401TIP3    H210081   8.160   2.201   1.659
 3402TIP3   OH210082   8.312   2.268   2.528
 3402TIP3    H110083   8.310   2.351   2.581
 3402TIP3    H210084   8.225   2.274   2.483
 3403TIP3   OH210085   7.310   2.225   2.032
 3403TIP3    H110086   7.271   2.167   1.964
 3403TIP3    H210087   7.388   2.173   2.062
 3404TIP3   OH210088   7.441   2.638   2.181
 3404TIP3    H110089   7.420   2.592   2.098
 3404TIP3    H210090   7.531   2.605   2.201
 3405TIP3   OH210091   7.447   2.197   2.387
 3405TIP3    H110092   7.481   2.177   2.297
 3405TIP3    H210093   7.490   2.283   2.408
 3406TIP3   OH210094   7.972   2.834   2.164
 3406TIP3    H110095   7.958   2.915   2.217
 3406TIP3    H210096   7.957   2.762   2.228
 3407TIP3   OH210097   7.584   2.754   2.711
 3407TIP3    H110098   7.524   2.816   2.758
 3407TIP3    H210099   7.518   2.700   2.662
 3408TIP3   OH210100   7.917   2.084   1.446
 3408TIP3    H110101   7.976   2.141   1.499
 3408TIP3    H210102   7.945   2.111   1.355
 3409TIP3   OH210103   7.338   2.312   2.810
 3409TIP3    H110104   7.342   2.398   2.857
 3409TIP3    H210105   7.243   2.291   2.821
 3410TIP3   OH210106   7.661   2.766   1.716
 3410TIP3    H110107   7.740   2.819   1.736
 3410TIP3    H210108   7.600   2.832   1.681
 3411TIP3   OH210109   7.379   2.922   2.798
 3411TIP3    H110110   7.343   2.921   2.707
 3411TIP3    H210111   7.299   2.900   2.852
 3412TIP3   OH210112   7.180   2.066   1.831
 3412TIP3    H110113   7.111   2.112   1.778
 3412TIP3    H210114   7.134   1.986   1.858
 3413TIP3   OH210115   8.231   2.695   1.036
 3413TIP3    H110116   8.238   2.792   1.025
 3413TIP3    H210117   8.325   2.668   1.024
 3414TIP3   OH210118   6.957   2.453   2.745
 3414TIP3    H110119   6.892   2.430   2.676
 3414TIP3    H210120   6.994   2.365   2.770
 3415TIP3   OH210121   6.811   2.645   2.377
 3415TIP3    H110122   6.908   2.641   2.370
 3415TIP3    H210123   6.800   2.725   2.432
 3416TIP3   OH210124   8.673   3.101   2.433
 3416TIP3    H110125   8.675   3.004   2.443
 3416TIP3    H210126   8.590   3.123   2.480
 3417TIP3   OH210127   7.782   2.883   2.568
 3417TIP3    H110128   7.781   2.975   2.600
 3417TIP3    H210129   7.711   2.843   2.622
 3418TIP3   OH210130   7.541   3.011   1.520
 3418TIP3    H110131   7.496   2.995   1.435
 3418TIP3    H210132   7.511   3.101   1.544
 3419TIP3   OH210133   6.980   2.861   1.903
 3419TIP3    H110134   7.029   2.852   1.988
 3419TIP3    H210135   6.920   2.785   1.910
 3420TIP3   OH210136   7.743   2.911   1.160
 3420TIP3    H110137   7.804   2.843   1.124
 3420TIP3    H210138   7.778   2.923   1.251
 3421TIP3   OH210139   7.793   2.960   1.430
 3421TIP3    H110140   7.706   2.969   1.474
 3421TIP3    H210141   7.846   2.922   1.502
 3422TIP3   OH210142   8.576   2.232   2.700
 3422TIP3    H110143   8.490   2.242   2.656
 3422TIP3    H210144   8.588   2.135   2.698
 3423TIP3   OH210145   7.162   2.635   2.734
 3423TIP3    H110146   7.212   2.619   2.817
 3423TIP3    H210147   7.088   2.571   2.742
 3424TIP3   OH210148   7.561   1.461   2.514
 3424TIP3    H110149   7.472   1.429   2.490
 3424TIP3    H210150   7.536   1.541   2.565
 3425TIP3   OH210151   8.094   1.575   2.713
 3425TIP3    H110152   8.160   1.551   2.781
 3425TIP3    H210153   8.009   1.557   2.760
 3426TIP3   OH210154   8.331   2.002   2.625
 3426TIP3    H110155   8.287   1.999   2.713
 3426TIP3    H210156   8.310   2.093   2.595
 3427TIP3   OH210157   7.998   2.148   1.199
 3427TIP3    H110158   7.960   2.110   1.117
 3427TIP3    H210159   8.080   2.186   1.164
 3428TIP3   OH210160   7.709   1.521   1.487
 3428TIP3    H110161   7.690   1.526   1.583
 3428TIP3    H210162   7.667   1.435   1.467
 3429TIP3   OH210163   7.494   1.974   2.536
 3429TIP3    H110164   7.444   1.995   2.618
 3429TIP3    H210165   7.478   2.055   2.483
 3430TIP3   OH210166   7.376   1.861   2.050
 3430TIP3    H110167   7.284   1.834   2.069
 3430TIP3    H210168   7.389   1.819   1.962
 3431TIP3   OH210169   7.868   1.944   1.777
 3431TIP3    H110170   7.817   2.015   1.735
 3431TIP3    H210171   7.923   1.912   1.703
 3432TIP3   OH210172   8.042   2.226   2.865
 3432TIP3    H110173   8.020   2.153   2.926
 3432TIP3    H210174   8.136   2.240   2.886
 3433TIP3   OH210175   8.024   1.975   2.018
 3433TIP3    H110176   7.965   2.008   1.948
 3433TIP3    H210177   8.056   1.894   1.973
 3434TIP3   OH210178   7.312   2.003   2.745
 3434TIP3    H110179   7.342   2.065   2.813
 3434TIP3    H210180   7.301   1.920   2.796
 3435TIP3   OH210181   7.342   1.463   1.463
 3435TIP3    H110182   7.356   1.455   1.560
 3435TIP3    H210183   7.268   1.525   1.465
 3436TIP3   OH210184   6.906   1.528   2.323
 3436TIP3    H110185   6.982   1.556   2.378
 3436TIP3    H210186   6.947   1.490   2.244
 3437TIP3   OH210187   6.881   1.508   1.841
 3437TIP3    H110188   6.932   1.548   1.767
 3437TIP3    H210189   6.820   1.581   1.863
 3438TIP3   OH210190   8.033   2.222   2.440
 3438TIP3    H110191   8.068   2.150   2.382
 3438TIP3    H210192   8.007   2.170   2.518
 3439TIP3   OH210193   7.705   1.679   2.112
 3439TIP3    H110194   7.619   1.676   2.159
 3439TIP3    H210195   7.766   1.692   2.187
 3440TIP3   OH210196   7.140   1.738   2.118
 3440TIP3    H110197   7.045   1.745   2.093
 3440TIP3    H210198   7.162   1.645   2.099
 3441TIP3   OH210199   7.409   1.733   1.809
 3441TIP3    H110200   7.504   1.750   1.794
 3441TIP3    H210201   7.367   1.756   1.723
 3442TIP3   OH210202   8.182   1.752   2.296
 3442TIP3    H110203   8.165   1.763   2.393
 3442TIP3    H210204   8.109   1.690   2.274
 3443TIP3   OH210205   7.253   1.759   1.581
 3443TIP3    H110206   7.162   1.742   1.553
 3443TIP3    H210207   7.293   1.803   1.503
 3444TIP3   OH210208   8.366   3.448   2.531
 3444TIP3    H110209   8.365   3.469   2.436
 3444TIP3    H210210   8.446   3.495   2.561
 3445TIP3   OH210211   7.324   2.557   2.954
 3445TIP3    H110212   7.404   2.587   3.002
 3445TIP3    H210213   7.259   2.557   3.028
 3446TIP3   OH210214   7.786   2.009   2.208
 3446TIP3    H110215   7.862   1.972   2.161
 3446TIP3    H210216   7.796   1.971   2.298
 3447TIP3   OH210217   7.311   1.498   2.087
 3447TIP3    H110218   7.275   1.420   2.136
 3447TIP3    H210219   7.370   1.455   2.024
 3448TIP3   OH210220   7.766   1.910   2.493
 3448TIP3    H110221   7.676   1.943   2.512
 3448TIP3    H210222   7.822   1.967   2.549
 3449TIP3   OH210223   7.501   2.299   1.592
 3449TIP3    H110224   7.428   2.235   1.583
 3449TIP3    H210225   7.485   2.333   1.684
 3450TIP3   OH210226   8.401   2.534   2.222
 3450TIP3    H110227   8.423   2.582   2.139
 3450TIP3    H210228   8.315   2.492   2.200
 3451TIP3   OH210229   7.938   1.645   1.400
 3451TIP3    H110230   7.861   1.602   1.442
 3451TIP3    H210231   7.970   1.707   1.469
 3452TIP3   OH210232   7.899   2.615   2.591
 3452TIP3    H110233   7.924   2.594   2.681
 3452TIP3    H210234   7.862   2.705   2.599
 3453TIP3   OH210235   8.034   1.854   1.562
 3453TIP3    H110236   8.131   1.858   1.570
 3453TIP3    H210237   8.015   1.931   1.505
 3454TIP3   OH210238   7.192   2.319   2.270
 3454TIP3    H110239   7.232   2.290   2.185
 3454TIP3    H210240   7.233   2.257   2.333
 3455TIP3   OH210241   7.644   2.447   1.410
 3455TIP3    H110242   7.598   2.534   1.418
 3455TIP3    H210243   7.592   2.393   1.473
 3456TIP3   OH210244   7.073   2.241   2.883
 3456TIP3    H110245   7.095   2.227   2.978
 3456TIP3    H210246   7.005   2.173   2.868
 3457TIP3   OH210247   7.799   2.354   2.903
 3457TIP3    H110248   7.741   2.294   2.854
 3457TIP3    H210249   7.887   2.321   2.876
 3458TIP3   OH210250   8.061   2.874   2.487
 3458TIP3    H110251   7.964   2.874   2.499
 3458TIP3    H210252   8.089   2.927   2.565
 3459TIP3   OH210253   8.459   1.946   1.412
 3459TIP3    H110254   8.416   1.883   1.352
 3459TIP3    H210255   8.450   2.028   1.359
 3460TIP3   OH210256   8.689   2.794   2.469
 3460TIP3    H110257   8.591   2.795   2.463
 3460TIP3    H210258   8.711   2.764   2.379
 3461TIP3   OH210259   8.164   2.767   1.301
 3461TIP3    H110260   8.149   2.697   1.366
 3461TIP3    H210261   8.184   2.718   1.219
 3462TIP3   OH210262   8.167   2.397   2.144
 3462TIP3    H110263   8.073   2.372   2.157
 3462TIP3    H210264   8.199   2.319   2.095
 3463TIP3   OH210265   7.293   2.622   1.891
 3463TIP3    H110266   7.295   2.705   1.840
 3463TIP3    H210267   7.199   2.610   1.906
 3464TIP3   OH210268   6.857   1.929   1.598
 3464TIP3    H110269   6.902   2.013   1.619
 3464TIP3    H210270   6.780   1.934   1.659
 3465TIP3   OH210271   7.433   2.389   1.837
 3465TIP3    H110272   7.398   2.479   1.856
 3465TIP3    H210273   7.398   2.339   1.913
 3466TIP3   OH210274   7.563   2.968   2.364
 3466TIP3    H110275   7.604   3.040   2.313
 3466TIP3    H210276   7.639   2.933   2.413
 3467TIP3   OH210277   7.214   2.863   1.746
 3467TIP3    H110278   7.128   2.871   1.793
 3467TIP3    H210279   7.246   2.955   1.750
 3468TIP3   OH210280   7.952   2.601   2.322
 3468TIP3    H110281   7.942   2.600   2.420
 3468TIP3    H210282   8.034   2.550   2.311
 3469TIP3   OH210283   7.926   2.491   1.205
 3469TIP3    H110284   7.982   2.467   1.283
 3469TIP3    H210285   7.839   2.468   1.240
 3470TIP3   OH210286   8.200   3.136   2.372
 3470TIP3    H110287   8.121   3.080   2.364
 3470TIP3    H210288   8.186   3.201   2.300
 3471TIP3   OH210289   8.264   2.971   1.025
 3471TIP3    H110290   8.303   3.045   0.975
 3471TIP3    H210291   8.184   3.016   1.058
 3472TIP3   OH210292   7.286   1.748   2.890
 3472TIP3    H110293   7.190   1.749   2.905
 3472TIP3    H210294   7.317   1.688   2.960
 3473TIP3   OH210295   8.083   2.429   1.422
 3473TIP3    H110296   8.074   2.361   1.492
 3473TIP3    H210297   8.181   2.428   1.410
 3474TIP3   OH210298   7.002   2.830   2.523
 3474TIP3    H110299   7.055   2.756   2.556
 3474TIP3    H210300   7.029   2.900   2.584
 3475TIP3   OH210301   7.289   2.478   1.204
 3475TIP3    H110302   7.311   2.387   1.180
 3475TIP3    H210303   7.273   2.469   1.300
 3476TIP3   OH210304   7.240   2.479   1.476
 3476TIP3    H110305   7.309   2.453   1.538
 3476TIP3    H210306   7.242   2.578   1.484
 3477TIP3   OH210307   6.973   2.174   1.680
 3477TIP3    H110308   6.907   2.218   1.738
 3477TIP3    H210309   6.987   2.244   1.614
 3478TIP3   OH210310   8.133   1.800   2.560
 3478TIP3    H110311   8.200   1.848   2.611
 3478TIP3    H210312   8.111   1.725   2.620
 3479TIP3   OH210313   7.961   1.588   1.730
 3479TIP3    H110314   7.997   1.569   1.642
 3479TIP3    H210315   8.029   1.647   1.767
 3480TIP3   OH210316   7.502   2.677   1.423
 3480TIP3    H110317   7.417   2.705   1.461
 3480TIP3    H210318   7.522   2.754   1.368
 3481TIP3   OH210319   7.686   1.741   1.839
 3481TIP3    H110320   7.756   1.806   1.817
 3481TIP3    H210321   7.695   1.736   1.936
 3482TIP3   OH210322   7.964   2.061   2.649
 3482TIP3    H110323   7.978   2.118   2.727
 3482TIP3    H210324   8.017   1.983   2.671
 3483TIP3   OH210325   7.837   1.473   1.946
 3483TIP3    H110326   7.818   1.553   1.998
 3483TIP3    H210327   7.889   1.512   1.872
 3484TIP3   OH210328   7.244   2.752   1.493
 3484TIP3    H110329   7.215   2.822   1.430
 3484TIP3    H210330   7.230   2.796   1.579
 3485TIP3   OH210331   7.355   1.465   1.735
 3485TIP3    H110332   7.347   1.555   1.773
 3485TIP3    H210333   7.450   1.450   1.749
 3486TIP3   OH210334   8.598   1.959   2.632
 3486TIP3    H110335   8.500   1.955   2.628
 3486TIP3    H210336   8.623   1.950   2.539
 3487TIP3   OH210337   8.244   2.161   2.010
 3487TIP3    H110338   8.170   2.099   2.028
 3487TIP3    H210339   8.318   2.119   2.060
 3488TIP3   OH210340   6.963   2.386   1.487
 3488TIP3    H110341   7.026   2.459   1.497
 3488TIP3    H210342   7.011   2.332   1.420
 3489TIP3   OH210343   6.920   1.663   1.606
 3489TIP3    H110344   6.903   1.760   1.611
 3489TIP3    H210345   6.833   1.628   1.584
 3490TIP3   OH210346   8.222   3.108   1.965
 3490TIP3    H110347   8.179   3.155   1.890
 3490TIP3    H210348   8.316   3.131   1.946
 3491TIP3   OH210349   7.296   1.379   2.493
 3491TIP3    H110350   7.266   1.343   2.407
 3491TIP3    H210351   7.287   1.301   2.552
 3492TIP3   OH210352   6.836   2.594   1.874
 3492TIP3    H110353   6.765   2.628   1.931
 3492TIP3    H210354   6.812   2.636   1.788
 3493TIP3   OH210355   6.992   3.137   2.944
 3493TIP3    H110356   7.078   3.137   2.991
 3493TIP3    H210357   6.971   3.042   2.943
 3494TIP3   OH210358   7.476   3.104   2.989
 3494TIP3    H110359   7.570   3.084   2.996
 3494TIP3    H210360   7.450   3.046   2.915
 3495TIP3   OH210361   7.453   2.683   1.116
 3495TIP3    H110362   7.400   2.610   1.156
 3495TIP3    H210363   7.530   2.633   1.083
 3496TIP3   OH210364   8.113   3.010   2.722
 3496TIP3    H110365   8.104   2.940   2.791
 3496TIP3    H210366   8.191   3.060   2.753
 3497TIP3   OH210367   7.893   2.720   1.029
 3497TIP3    H110368   7.942   2.661   1.089
 3497TIP3    H210369   7.951   2.723   0.951
 3498TIP3   OH210370   7.123   2.544   3.146
 3498TIP3    H110371   7.140   2.448   3.148
 3498TIP3    H210372   7.035   2.547   3.101
 3499TIP3   OH210373   7.099   2.196   1.341
 3499TIP3    H110374   7.155   2.169   1.416
 3499TIP3    H210375   7.166   2.194   1.269
 3500TIP3   OH210376   7.731   2.629   2.919
 3500TIP3    H110377   7.690   2.645   2.831
 3500TIP3    H210378   7.762   2.537   2.912
 3501TIP3   OH210379   7.599   2.388   1.146
 3501TIP3    H110380   7.610   2.406   1.242
 3501TIP3    H210381   7.613   2.291   1.144
 3502TIP3   OH210382   8.223   2.637   2.523
 3502TIP3    H110383   8.298   2.683   2.481
 3502TIP3    H210384   8.152   2.703   2.512
 3503TIP3   OH210385   7.242   2.277   3.126
 3503TIP3    H110386   7.319   2.223   3.104
 3503TIP3    H210387   7.268   2.311   3.214
 3504TIP3   OH210388   7.304   2.101   1.557
 3504TIP3    H110389   7.282   2.064   1.644
 3504TIP3    H210390   7.343   2.025   1.510
 3505TIP3   OH210391   7.576   2.163   2.787
 3505TIP3    H110392   7.499   2.224   2.790
 3505TIP3    H210393   7.626   2.197   2.709
 3506TIP3   OH210394   7.414   1.886   1.393
 3506TIP3    H110395   7.422   1.820   1.322
 3506TIP3    H210396   7.508   1.912   1.400
 3507TIP3   OH210397   8.094   2.566   2.923
 3507TIP3    H110398   8.176   2.544   2.876
 3507TIP3    H210399   8.092   2.498   2.993
 3508TIP3   OH210400   8.224   2.221   1.047
 3508TIP3    H110401   8.196   2.180   0.963
 3508TIP3    H210402   8.196   2.313   1.029
 3509TIP3   OH210403   7.699   1.953   2.918
 3509TIP3    H110404   7.700   1.871   2.865
 3509TIP3    H210405   7.655   2.016   2.858
 3510TIP3   OH210406   7.702   1.741   2.722
 3510TIP3    H110407   7.729   1.778   2.637
 3510TIP3    H210408   7.609   1.716   2.705
 3511TIP3   OH210409   7.731   2.273   2.593
 3511TIP3    H110410   7.815   2.283   2.546
 3511TIP3    H210411   7.675   2.341   2.551
 3512TIP3   OH210412   8.313   2.241   2.976
 3512TIP3    H110413   8.361   2.158   2.991
 3512TIP3    H210414   8.385   2.300   2.946
 3513TIP3   OH210415   8.354   2.493   2.711
 3513TIP3    H110416   8.296   2.546   2.652
 3513TIP3    H210417   8.442   2.512   2.671
 3514TIP3   OH210418   7.571   2.067   3.145
 3514TIP3    H110419   7.508   1.993   3.158
 3514TIP3    H210420   7.612   2.041   3.060
 3515TIP3   OH210421   7.831   1.498   2.774
 3515TIP3    H110422   7.781   1.582   2.762
 3515TIP3    H210423   7.759   1.431   2.773
 3516TIP3   OH210424   7.961   2.009   3.005
 3516TIP3    H110425   7.953   1.991   3.101
 3516TIP3    H210426   7.871   1.982   2.977
 3517TIP3   OH210427   8.200   1.954   2.857
 3517TIP3    H110428   8.125   1.954   2.920
 3517TIP3    H210429   8.273   1.923   2.915
 3518TIP3   OH210430   8.430   1.896   3.011
 3518TIP3    H110431   8.439   1.800   3.030
 3518TIP3    H210432   8.424   1.935   3.100
 3519TIP3   OH210433   7.420   1.840   3.200
 3519TIP3    H110434   7.430   1.750   3.164
 3519TIP3    H210435   7.461   1.827   3.288
 3520TIP3   OH210436   7.966   1.533   3.015
 3520TIP3    H110437   8.002   1.445   3.036
 3520TIP3    H210438   7.899   1.511   2.949
 3521TIP3   OH210439   8.007   1.736   3.194
 3521TIP3    H110440   7.989   1.662   3.132
 3521TIP3    H210441   7.920   1.780   3.199
 3522TIP3   OH210442   7.215   2.953   1.304
 3522TIP3    H110443   7.311   2.951   1.287
 3522TIP3    H210444   7.186   3.005   1.226
 3523TIP3   OH210445   6.695   2.338   1.520
 3523TIP3    H110446   6.790   2.360   1.509
 3523TIP3    H210447   6.691   2.249   1.480
 3524TIP3   OH210448   6.612   2.949   1.934
 3524TIP3    H110449   6.543   2.888   1.899
 3524TIP3    H210450   6.655   2.892   2.001
 3525TIP3   OH210451   6.748   2.801   2.121
 3525TIP3    H110452   6.734   2.728   2.184
 3525TIP3    H210453   6.798   2.863   2.177
 3526TIP3   OH210454   8.472   3.206   1.922
 3526TIP3    H110455   8.505   3.238   2.007
 3526TIP3    H210456   8.540   3.238   1.860
 3527TIP3   OH210457   8.498   3.224   2.207
 3527TIP3    H110458   8.463   3.133   2.203
 3527TIP3    H210459   8.583   3.207   2.250
 3528TIP3   OH210460   8.549   2.898   2.776
 3528TIP3    H110461   8.476   2.907   2.841
 3528TIP3    H210462   8.590   2.987   2.780
 3529TIP3   OH210463   8.358   2.417   1.396
 3529TIP3    H110464   8.427   2.482   1.370
 3529TIP3    H210465   8.401   2.375   1.473
 3530TIP3   OH210466   8.477   2.279   1.596
 3530TIP3    H110467   8.412   2.234   1.654
 3530TIP3    H210468   8.540   2.318   1.660
 3531TIP3   OH210469   8.545   2.664   2.026
 3531TIP3    H110470   8.591   2.615   1.957
 3531TIP3    H210471   8.533   2.750   1.983
 3532TIP3   OH210472   8.378   2.968   2.228
 3532TIP3    H110473   8.309   3.015   2.279
 3532TIP3    H210474   8.326   2.924   2.158
 3533TIP3   OH210475   8.398   2.177   1.263
 3533TIP3    H110476   8.337   2.185   1.187
 3533TIP3    H210477   8.371   2.257   1.315
 3534TIP3   OH210478   8.272   1.839   1.213
 3534TIP3    H110479   8.314   1.878   1.134
 3534TIP3    H210480   8.301   1.746   1.207
 3535TIP3   OH210481   8.304   2.133   1.745
 3535TIP3    H110482   8.315   2.037   1.739
 3535TIP3    H210483   8.290   2.148   1.841
 3536TIP3   OH210484   6.934   2.209   2.494
 3536TIP3    H110485   6.932   2.179   2.400
 3536TIP3    H210486   7.031   2.210   2.510
 3537TIP3   OH210487   8.597   2.558   2.603
 3537TIP3    H110488   8.673   2.496   2.594
 3537TIP3    H210489   8.625   2.631   2.545
 3538TIP3   OH210490   8.795   2.374   2.625
 3538TIP3    H110491   8.716   2.326   2.659
 3538TIP3    H210492   8.860   2.301   2.634
 3539TIP3   OH210493   8.310   1.848   1.645
 3539TIP3    H110494   8.354   1.760   1.652
 3539TIP3    H210495   8.362   1.886   1.571
 3540TIP3   OH210496   8.453   2.041   2.128
 3540TIP3    H110497   8.537   2.071   2.087
 3540TIP3    H210498   8.474   2.055   2.222
 3541TIP3   OH210499   8.531   2.169   2.373
 3541TIP3    H110500   8.453   2.204   2.420
 3541TIP3    H210501   8.563   2.248   2.325
 3542TIP3   OH210502   7.153   1.898   3.172
 3542TIP3    H110503   7.251   1.887   3.171
 3542TIP3    H210504   7.127   1.812   3.210
 3543TIP3   OH210505   8.424   1.600   1.685
 3543TIP3    H110506   8.450   1.579   1.776
 3543TIP3    H210507   8.360   1.529   1.667
 3544TIP3   OH210508   7.112   1.587   2.498
 3544TIP3    H110509   7.173   1.511   2.509
 3544TIP3    H210510   7.175   1.661   2.494
 3545TIP3   OH210511   6.915   1.862   2.572
 3545TIP3    H110512   6.965   1.855   2.488
 3545TIP3    H210513   6.946   1.947   2.605
 3546TIP3   OH210514   8.845   1.890   2.749
 3546TIP3    H110515   8.765   1.941   2.774
 3546TIP3    H210516   8.805   1.833   2.680
 3547TIP3   OH210517   6.898   1.367   2.073
 3547TIP3    H110518   6.805   1.361   2.099
 3547TIP3    H210519   6.894   1.424   1.993
 3548TIP3   OH210520   8.056   3.068   1.578
 3548TIP3    H110521   8.109   3.054   1.497
 3548TIP3    H210522   8.110   3.133   1.626
 3549TIP3   OH210523   7.119   1.449   2.890
 3549TIP3    H110524   7.068   1.439   2.972
 3549TIP3    H210525   7.050   1.483   2.829
 3550TIP3   OH210526   7.159   2.871   2.965
 3550TIP3    H110527   7.067   2.843   2.948
 3550TIP3    H210528   7.167   2.854   3.059
 3551TIP3   OH210529   7.336   2.903   2.512
 3551TIP3    H110530   7.288   2.978   2.473
 3551TIP3    H210531   7.422   2.917   2.468
 3552TIP3   OH210532   7.783   3.149   2.650
 3552TIP3    H110533   7.824   3.150   2.739
 3552TIP3    H210534   7.849   3.199   2.598
 3553TIP3   OH210535   7.962   3.300   2.508
 3553TIP3    H110536   8.033   3.249   2.467
 3553TIP3    H210537   8.013   3.357   2.569
 3554TIP3   OH210538   8.750   1.663   2.616
 3554TIP3    H110539   8.662   1.659   2.576
 3554TIP3    H210540   8.789   1.580   2.585
 3555TIP3   OH210541   7.013   3.161   2.535
 3555TIP3    H110542   6.924   3.195   2.512
 3555TIP3    H210543   7.023   3.197   2.624
 3556TIP3   OH210544   7.249   3.139   2.393
 3556TIP3    H110545   7.163   3.152   2.438
 3556TIP3    H210546   7.230   3.173   2.304
 3557TIP3   OH210547   7.676   3.170   2.190
 3557TIP3    H110548   7.606   3.190   2.125
 3557TIP3    H210549   7.688   3.257   2.234
 3558TIP3   OH210550   7.944   3.107   2.242
 3558TIP3    H110551   7.850   3.126   2.222
 3558TIP3    H210552   7.988   3.184   2.201
 3559TIP3   OH210553   8.149   3.300   2.158
 3559TIP3    H110554   8.137   3.385   2.110
 3559TIP3    H210555   8.178   3.241   2.085
 3560TIP3   OH210556   6.925   2.955   2.280
 3560TIP3    H110557   6.951   2.930   2.371
 3560TIP3    H210558   6.997   2.911   2.230
 3561TIP3   OH210559   7.118   2.826   2.136
 3561TIP3    H110560   7.134   2.742   2.186
 3561TIP3    H210561   7.209   2.863   2.133
 3562TIP3   OH210562   7.384   2.921   2.140
 3562TIP3    H110563   7.416   2.830   2.129
 3562TIP3    H210564   7.427   2.944   2.224
 3563TIP3   OH210565   7.972   1.568   2.230
 3563TIP3    H110566   7.920   1.516   2.293
 3563TIP3    H210567   7.998   1.500   2.167
 3564TIP3   OH210568   8.565   1.546   1.930
 3564TIP3    H110569   8.642   1.512   1.879
 3564TIP3    H210570   8.590   1.642   1.924
 3565TIP3   OH210571   7.208   1.287   2.243
 3565TIP3    H110572   7.117   1.253   2.246
 3565TIP3    H210573   7.259   1.203   2.242
 3566TIP3   OH210574   6.991   1.155   1.886
 3566TIP3    H110575   7.022   1.217   1.818
 3566TIP3    H210576   6.965   1.216   1.958
 3567TIP3   OH210577   7.648   1.326   2.120
 3567TIP3    H110578   7.716   1.374   2.070
 3567TIP3    H210579   7.669   1.352   2.211
 3568TIP3   OH210580   8.220   1.429   1.783
 3568TIP3    H110581   8.187   1.425   1.690
 3568TIP3    H210582   8.222   1.333   1.800
 3569TIP3   OH210583   6.714   2.725   1.671
 3569TIP3    H110584   6.628   2.693   1.638
 3569TIP3    H210585   6.702   2.820   1.659
 3570TIP3   OH210586   7.113   1.324   1.659
 3570TIP3    H110587   7.157   1.261   1.598
 3570TIP3    H210588   7.190   1.370   1.698
 3571TIP3   OH210589   7.632   1.485   1.758
 3571TIP3    H110590   7.692   1.448   1.825
 3571TIP3    H210591   7.647   1.580   1.776
 3572TIP3   OH210592   7.484   2.917   1.254
 3572TIP3    H110593   7.573   2.939   1.219
 3572TIP3    H210594   7.462   2.842   1.195
 3573TIP3   OH210595   8.202   3.033   1.346
 3573TIP3    H110596   8.192   2.935   1.333
 3573TIP3    H210597   8.158   3.066   1.266
 3574TIP3   OH210598   7.428   1.567   3.130
 3574TIP3    H110599   7.396   1.506   3.199
 3574TIP3    H210600   7.523   1.557   3.153
 3575TIP3   OH210601   6.787   2.753   1.311
 3575TIP3    H110602   6.786   2.779   1.404
 3575TIP3    H210603   6.877   2.713   1.302
 3576TIP3   OH210604   8.488   1.625   3.043
 3576TIP3    H110605   8.509   1.595   3.135
 3576TIP3    H210606   8.576   1.622   3.001
 3577TIP3   OH210607   8.426   3.178   2.539
 3577TIP3    H110608   8.349   3.147   2.487
 3577TIP3    H210609   8.411   3.274   2.538
 3578TIP3   OH210610   8.650   2.059   1.577
 3578TIP3    H110611   8.586   2.132   1.576
 3578TIP3    H210612   8.604   1.995   1.521
 3579TIP3   OH210613   8.706   2.350   1.729
 3579TIP3    H110614   8.749   2.271   1.765
 3579TIP3    H210615   8.745   2.351   1.639
 3580TIP3   OH210616   8.562   2.585   1.312
 3580TIP3    H110617   8.544   2.600   1.218
 3580TIP3    H210618   8.596   2.673   1.339
 3581TIP3   OH210619   8.749   2.692   2.221
 3581TIP3    H110620   8.678   2.662   2.160
 3581TIP3    H210621   8.785   2.607   2.256
 3582TIP3   OH210622   8.613   2.902   1.871
 3582TIP3    H110623   8.710   2.906   1.862
 3582TIP3    H210624   8.598   2.983   1.921
 3583TIP3   OH210625   8.738   3.123   1.413
 3583TIP3    H110626   8.801   3.120   1.488
 3583TIP3    H210627   8.695   3.036   1.421
 3584TIP3   OH210628   8.891   2.919   2.243
 3584TIP3    H110629   8.931   2.893   2.327
 3584TIP3    H210630   8.830   2.843   2.228
 3585TIP3   OH210631   8.651   1.790   1.865
 3585TIP3    H110632   8.720   1.834   1.917
 3585TIP3    H210633   8.681   1.809   1.774
 3586TIP3   OH210634   8.854   2.488   2.372
 3586TIP3    H110635   8.875   2.461   2.463
 3586TIP3    H210636   8.785   2.424   2.348
 3587TIP3   OH210637   8.616   2.260   1.116
 3587TIP3    H110638   8.660   2.334   1.162
 3587TIP3    H210639   8.550   2.232   1.184
 3588TIP3   OH210640   8.788   3.088   2.021
 3588TIP3    H110641   8.835   3.029   2.083
 3588TIP3    H210642   8.817   3.176   2.051
 3589TIP3   OH210643   8.629   2.849   1.364
 3589TIP3    H110644   8.551   2.882   1.411
 3589TIP3    H210645   8.617   2.893   1.278
 3590TIP3   OH210646   8.784   3.389   2.442
 3590TIP3    H110647   8.877   3.380   2.469
 3590TIP3    H210648   8.761   3.296   2.427
 3591TIP3   OH210649   8.915   2.828   2.623
 3591TIP3    H110650   8.945   2.742   2.656
 3591TIP3    H210651   8.832   2.805   2.575
 3592TIP3   OH210652   8.490   2.597   0.998
 3592TIP3    H110653   8.586   2.590   1.010
 3592TIP3    H210654   8.471   2.509   0.960
 3593TIP3   OH210655   8.403   3.207   1.424
 3593TIP3    H110656   8.338   3.143   1.389
 3593TIP3    H210657   8.451   3.151   1.489
 3594TIP3   OH210658   8.534   3.055   1.614
 3594TIP3    H110659   8.529   2.984   1.680
 3594TIP3    H210660   8.593   3.117   1.661
 3595TIP3   OH210661   8.759   2.453   1.982
 3595TIP3    H110662   8.732   2.429   1.891
 3595TIP3    H210663   8.837   2.508   1.965
 3596TIP3   OH210664   8.931   2.140   2.633
 3596TIP3    H110665   9.021   2.174   2.646
 3596TIP3    H210666   8.928   2.065   2.696
 3597TIP3   OH210667   8.697   2.135   2.033
 3597TIP3    H110668   8.768   2.069   2.030
 3597TIP3    H210669   8.741   2.215   2.065
 3598TIP3   OH210670   8.954   3.128   2.472
 3598TIP3    H110671   8.870   3.099   2.432
 3598TIP3    H210672   8.946   3.094   2.562
 3599TIP3   OH210673   8.780   3.386   2.051
 3599TIP3    H110674   8.707   3.445   2.022
 3599TIP3    H210675   8.840   3.450   2.093
 3600TIP3   OH210676   8.998   3.337   1.838
 3600TIP3    H110677   9.003   3.383   1.923
 3600TIP3    H210678   9.025   3.408   1.776
 3601TIP3   OH210679   8.719   3.210   1.763
 3601TIP3    H110680   8.751   3.207   1.856
 3601TIP3    H210681   8.801   3.182   1.718
 3602TIP3   OH210682   8.928   3.100   1.607
 3602TIP3    H110683   8.955   3.007   1.616
 3602TIP3    H210684   9.013   3.146   1.626
 3603TIP3   OH210685   8.507   2.979   1.160
 3603TIP3    H110686   8.421   2.953   1.123
 3603TIP3    H210687   8.502   3.075   1.151
 3604TIP3   OH210688   8.593   3.010   0.808
 3604TIP3    H110689   8.571   3.047   0.895
 3604TIP3    H210690   8.668   2.953   0.831
 3605TIP3   OH210691   0.371   3.100   3.533
 3605TIP3    H110692   0.340   3.188   3.504
 3605TIP3    H210693   0.302   3.045   3.490
 3606TIP3   OH210694   0.345   3.089   3.884
 3606TIP3    H110695   0.379   3.057   3.970
 3606TIP3    H210696   0.314   3.009   3.841
 3607TIP3   OH210697  -0.357   2.984   4.250
 3607TIP3    H110698  -0.331   2.910   4.308
 3607TIP3    H210699  -0.278   3.039   4.253
 3608TIP3   OH210700   0.591   3.386   3.565
 3608TIP3    H110701   0.582   3.314   3.629
 3608TIP3    H210702   0.624   3.459   3.620
 3609TIP3   OH210703  -0.373   3.383   3.969
 3609TIP3    H110704  -0.385   3.287   3.978
 3609TIP3    H210705  -0.276   3.391   3.968
 3610TIP3   OH210706   0.237   3.836   3.584
 3610TIP3    H110707   0.286   3.769   3.532
 3610TIP3    H210708   0.248   3.803   3.673
 3611TIP3   OH210709   0.150   3.307   3.932
 3611TIP3    H110710   0.192   3.232   3.886
 3611TIP3    H210711   0.232   3.354   3.958
 3612TIP3   OH210712   0.542   2.772   3.980
 3612TIP3    H110713   0.636   2.753   3.973
 3612TIP3    H210714   0.517   2.779   3.886
 3613TIP3   OH210715  -0.101   2.488   3.904
 3613TIP3    H110716  -0.133   2.536   3.827
 3613TIP3    H210717  -0.080   2.402   3.862
 3614TIP3   OH210718   0.597   2.581   3.577
 3614TIP3    H110719   0.669   2.561   3.642
 3614TIP3    H210720   0.649   2.610   3.500
 3615TIP3   OH210721  -0.473   2.661   4.035
 3615TIP3    H110722  -0.395   2.641   4.092
 3615TIP3    H210723  -0.432   2.660   3.948
 3616TIP3   OH210724  -0.022   2.869   3.825
 3616TIP3    H110725   0.073   2.853   3.842
 3616TIP3    H210726  -0.051   2.781   3.800
 3617TIP3   OH210727   1.225   2.828   4.105
 3617TIP3    H110728   1.146   2.879   4.079
 3617TIP3    H210729   1.245   2.861   4.193
 3618TIP3   OH210730  -0.112   2.451   4.363
 3618TIP3    H110731  -0.174   2.490   4.298
 3618TIP3    H210732  -0.160   2.471   4.446
 3619TIP3   OH210733   0.249   3.303   3.385
 3619TIP3    H110734   0.213   3.285   3.296
 3619TIP3    H210735   0.206   3.388   3.405
 3620TIP3   OH210736   0.005   3.223   4.162
 3620TIP3    H110737  -0.058   3.289   4.200
 3620TIP3    H210738   0.048   3.276   4.091
 3621TIP3   OH210739   0.801   2.564   3.753
 3621TIP3    H110740   0.846   2.481   3.774
 3621TIP3    H210741   0.875   2.627   3.752
 3622TIP3   OH210742  -0.227   2.576   4.138
 3622TIP3    H110743  -0.173   2.649   4.175
 3622TIP3    H210744  -0.166   2.543   4.069
 3623TIP3   OH210745  -0.166   3.418   4.252
 3623TIP3    H110746  -0.190   3.506   4.216
 3623TIP3    H210747  -0.243   3.405   4.313
 3624TIP3   OH210748   0.664   3.626   3.735
 3624TIP3    H110749   0.573   3.619   3.772
 3624TIP3    H210750   0.658   3.712   3.689
 3625TIP3   OH210751   0.965   2.526   4.090
 3625TIP3    H110752   0.901   2.597   4.074
 3625TIP3    H210753   1.024   2.534   4.013
 3626TIP3   OH210754   0.268   2.208   4.109
 3626TIP3    H110755   0.258   2.114   4.081
 3626TIP3    H210756   0.175   2.222   4.138
 3627TIP3   OH210757   0.366   3.671   3.408
 3627TIP3    H110758   0.416   3.589   3.386
 3627TIP3    H210759   0.427   3.737   3.368
 3628TIP3   OH210760   0.507   3.457   3.313
 3628TIP3    H110761   0.479   3.376   3.268
 3628TIP3    H210762   0.542   3.422   3.398
 3629TIP3   OH210763   0.890   3.540   4.079
 3629TIP3    H110764   0.882   3.463   4.018
 3629TIP3    H210765   0.875   3.615   4.018
 3630TIP3   OH210766   0.212   2.968   3.361
 3630TIP3    H110767   0.125   3.007   3.337
 3630TIP3    H210768   0.264   2.986   3.280
 3631TIP3   OH210769   1.086   3.178   3.929
 3631TIP3    H110770   1.004   3.231   3.927
 3631TIP3    H210771   1.116   3.187   3.836
 3632TIP3   OH210772   0.534   3.029   3.316
 3632TIP3    H110773   0.488   3.055   3.399
 3632TIP3    H210774   0.617   2.992   3.353
 3633TIP3   OH210775   0.762   3.060   4.220
 3633TIP3    H110776   0.765   3.141   4.275
 3633TIP3    H210777   0.681   3.076   4.169
 3634TIP3   OH210778  -0.227   3.024   3.729
 3634TIP3    H110779  -0.280   2.950   3.692
 3634TIP3    H210780  -0.148   2.975   3.759
 3635TIP3   OH210781  -0.106   3.423   3.871
 3635TIP3    H110782  -0.124   3.381   3.786
 3635TIP3    H210783  -0.016   3.391   3.892
 3636TIP3   OH210784  -0.100   2.984   4.076
 3636TIP3    H110785  -0.063   2.969   3.987
 3636TIP3    H210786  -0.059   3.070   4.101
 3637TIP3   OH210787   0.420   3.623   3.853
 3637TIP3    H110788   0.411   3.703   3.908
 3637TIP3    H210789   0.408   3.550   3.918
 3638TIP3   OH210790   0.037   3.541   4.401
 3638TIP3    H110791  -0.022   3.605   4.448
 3638TIP3    H210792  -0.029   3.489   4.352
 3639TIP3   OH210793   0.366   2.899   3.139
 3639TIP3    H110794   0.442   2.934   3.189
 3639TIP3    H210795   0.402   2.897   3.048
 3640TIP3   OH210796  -0.196   3.102   4.494
 3640TIP3    H110797  -0.195   3.191   4.536
 3640TIP3    H210798  -0.289   3.077   4.511
 3641TIP3   OH210799   0.107   3.560   3.403
 3641TIP3    H110800   0.191   3.606   3.423
 3641TIP3    H210801   0.050   3.634   3.375
 3642TIP3   OH210802  -0.165   3.712   4.488
 3642TIP3    H110803  -0.203   3.707   4.398
 3642TIP3    H210804  -0.237   3.674   4.543
 3643TIP3   OH210805   0.686   3.489   2.725
 3643TIP3    H110806   0.697   3.586   2.716
 3643TIP3    H210807   0.779   3.459   2.714
 3644TIP3   OH210808  -0.581   3.258   4.433
 3644TIP3    H110809  -0.646   3.216   4.376
 3644TIP3    H210810  -0.547   3.181   4.481
 3645TIP3   OH210811   1.128   3.884   4.123
 3645TIP3    H110812   1.127   3.787   4.136
 3645TIP3    H210813   1.045   3.909   4.169
 3646TIP3   OH210814   0.234   3.671   4.257
 3646TIP3    H110815   0.234   3.764   4.290
 3646TIP3    H210816   0.164   3.631   4.313
 3647TIP3   OH210817  -0.011   3.795   3.221
 3647TIP3    H110818  -0.037   3.786   3.127
 3647TIP3    H210819  -0.030   3.889   3.239
 3648TIP3   OH210820  -0.548   3.635   3.573
 3648TIP3    H110821  -0.503   3.623   3.660
 3648TIP3    H210822  -0.604   3.555   3.569
 3649TIP3   OH210823   0.200   3.692   2.849
 3649TIP3    H110824   0.265   3.628   2.811
 3649TIP3    H210825   0.241   3.712   2.936
 3650TIP3   OH210826   0.242   3.743   3.125
 3650TIP3    H110827   0.160   3.754   3.176
 3650TIP3    H210828   0.303   3.710   3.193
 3651TIP3   OH210829   1.019   3.016   4.401
 3651TIP3    H110830   0.942   3.029   4.343
 3651TIP3    H210831   1.036   2.920   4.389
 3652TIP3   OH210832  -0.374   3.432   4.421
 3652TIP3    H110833  -0.332   3.427   4.509
 3652TIP3    H210834  -0.446   3.366   4.430
 3653TIP3   OH210835   0.008   2.255   4.206
 3653TIP3    H110836  -0.069   2.220   4.158
 3653TIP3    H210837  -0.034   2.324   4.262
 3654TIP3   OH210838   0.530   2.373   4.370
 3654TIP3    H110839   0.609   2.359   4.427
 3654TIP3    H210840   0.457   2.349   4.433
 3655TIP3   OH210841   0.783   2.789   4.305
 3655TIP3    H110842   0.737   2.777   4.390
 3655TIP3    H210843   0.765   2.883   4.284
 3656TIP3   OH210844   0.459   2.922   2.883
 3656TIP3    H110845   0.392   2.916   2.813
 3656TIP3    H210846   0.524   2.983   2.846
 3657TIP3   OH210847  -0.051   2.759   4.228
 3657TIP3    H110848  -0.101   2.785   4.308
 3657TIP3    H210849  -0.060   2.841   4.174
 3658TIP3   OH210850   0.311   2.746   3.482
 3658TIP3    H110851   0.269   2.823   3.437
 3658TIP3    H210852   0.380   2.723   3.415
 3659TIP3   OH210853   0.492   3.016   4.555
 3659TIP3    H110854   0.474   2.941   4.616
 3659TIP3    H210855   0.586   3.032   4.574
 3660TIP3   OH210856   0.467   2.775   3.715
 3660TIP3    H110857   0.412   2.804   3.639
 3660TIP3    H210858   0.506   2.695   3.673
 3661TIP3   OH210859  -0.231   2.793   4.432
 3661TIP3    H110860  -0.221   2.860   4.501
 3661TIP3    H210861  -0.247   2.712   4.483
 3662TIP3   OH210862   0.474   2.998   4.123
 3662TIP3    H110863   0.512   2.922   4.075
 3662TIP3    H210864   0.462   2.956   4.211
 3663TIP3   OH210865   0.183   2.492   3.820
 3663TIP3    H110866   0.090   2.504   3.846
 3663TIP3    H210867   0.220   2.454   3.901
 3664TIP3   OH210868   0.817   4.236   4.222
 3664TIP3    H110869   0.816   4.258   4.127
 3664TIP3    H210870   0.897   4.283   4.252
 3665TIP3   OH210871  -0.215   3.339   4.642
 3665TIP3    H110872  -0.136   3.374   4.690
 3665TIP3    H210873  -0.283   3.351   4.712
 3666TIP3   OH210874   0.240   2.807   3.889
 3666TIP3    H110875   0.302   2.768   3.824
 3666TIP3    H210876   0.289   2.797   3.971
 3667TIP3   OH210877  -0.029   3.075   3.311
 3667TIP3    H110878  -0.112   3.037   3.281
 3667TIP3    H210879  -0.055   3.121   3.395
 3668TIP3   OH210880   0.854   3.324   3.913
 3668TIP3    H110881   0.881   3.372   3.832
 3668TIP3    H210882   0.769   3.282   3.886
 3669TIP3   OH210883   0.348   3.400   4.283
 3669TIP3    H110884   0.380   3.385   4.373
 3669TIP3    H210885   0.315   3.492   4.286
 3670TIP3   OH210886   0.498   2.676   3.301
 3670TIP3    H110887   0.595   2.670   3.293
 3670TIP3    H210888   0.471   2.682   3.207
 3671TIP3   OH210889  -0.361   3.103   3.960
 3671TIP3    H110890  -0.314   3.081   3.877
 3671TIP3    H210891  -0.316   3.046   4.024
 3672TIP3   OH210892   0.106   3.255   3.152
 3672TIP3    H110893   0.047   3.331   3.133
 3672TIP3    H210894   0.047   3.194   3.201
 3673TIP3   OH210895  -0.443   3.026   4.575
 3673TIP3    H110896  -0.435   3.020   4.672
 3673TIP3    H210897  -0.537   2.999   4.560
 3674TIP3   OH210898   0.250   3.143   4.594
 3674TIP3    H110899   0.192   3.085   4.543
 3674TIP3    H210900   0.339   3.111   4.567
 3675TIP3   OH210901   0.512   3.659   4.180
 3675TIP3    H110902   0.416   3.663   4.190
 3675TIP3    H210903   0.542   3.713   4.255
 3676TIP3   OH210904   0.909   2.723   3.091
 3676TIP3    H110905   0.857   2.693   3.013
 3676TIP3    H210906   0.927   2.815   3.064
 3677TIP3   OH210907   1.141   3.593   4.166
 3677TIP3    H110908   1.043   3.587   4.157
 3677TIP3    H210909   1.167   3.562   4.076
 3678TIP3   OH210910   0.620   3.555   2.992
 3678TIP3    H110911   0.599   3.484   3.054
 3678TIP3    H210912   0.635   3.507   2.908
 3679TIP3   OH210913   0.619   3.184   3.838
 3679TIP3    H110914   0.524   3.163   3.841
 3679TIP3    H210915   0.654   3.106   3.789
 3680TIP3   OH210916  -0.253   3.414   3.577
 3680TIP3    H110917  -0.250   3.501   3.531
 3680TIP3    H210918  -0.348   3.402   3.590
 3681TIP3   OH210919  -0.116   3.185   3.536
 3681TIP3    H110920  -0.149   3.275   3.553
 3681TIP3    H210921  -0.156   3.134   3.609
 3682TIP3   OH210922   0.016   3.757   4.052
 3682TIP3    H110923   0.059   3.829   4.001
 3682TIP3    H210924   0.092   3.722   4.101
 3683TIP3   OH210925  -0.313   3.656   3.436
 3683TIP3    H110926  -0.403   3.662   3.474
 3683TIP3    H210927  -0.285   3.750   3.440
 3684TIP3   OH210928   0.404   3.390   4.013
 3684TIP3    H110929   0.397   3.386   4.111
 3684TIP3    H210930   0.487   3.342   3.997
 3685TIP3   OH210931   0.376   3.281   2.888
 3685TIP3    H110932   0.421   3.260   2.973
 3685TIP3    H210933   0.292   3.232   2.899
 3686TIP3   OH210934   0.652   3.926   4.062
 3686TIP3    H110935   0.572   3.871   4.051
 3686TIP3    H210936   0.639   3.991   3.990
 3687TIP3   OH210937   0.719   3.761   2.716
 3687TIP3    H110938   0.759   3.835   2.668
 3687TIP3    H210939   0.639   3.807   2.750
 3688TIP3   OH210940  -0.252   2.530   4.589
 3688TIP3    H110941  -0.344   2.541   4.614
 3688TIP3    H210942  -0.222   2.465   4.655
 3689TIP3   OH210943   0.538   3.220   3.113
 3689TIP3    H110944   0.527   3.153   3.184
 3689TIP3    H210945   0.635   3.216   3.100
 3690TIP3   OH210946  -0.514   3.636   4.206
 3690TIP3    H110947  -0.477   3.548   4.222
 3690TIP3    H210948  -0.510   3.674   4.295
 3691TIP3   OH210949  -0.313   3.297   3.238
 3691TIP3    H110950  -0.276   3.305   3.327
 3691TIP3    H210951  -0.320   3.393   3.214
 3692TIP3   OH210952   0.530   2.379   3.409
 3692TIP3    H110953   0.453   2.413   3.362
 3692TIP3    H210954   0.547   2.452   3.472
 3693TIP3   OH210955  -0.057   3.467   3.077
 3693TIP3    H110956  -0.135   3.492   3.129
 3693TIP3    H210957  -0.008   3.550   3.075
 3694TIP3   OH210958   0.216   2.493   3.525
 3694TIP3    H110959   0.253   2.580   3.499
 3694TIP3    H210960   0.174   2.518   3.608
 3695TIP3   OH210961   0.448   2.835   4.346
 3695TIP3    H110962   0.422   2.907   4.407
 3695TIP3    H210963   0.513   2.789   4.401
 3696TIP3   OH210964   0.331   2.272   3.660
 3696TIP3    H110965   0.298   2.352   3.701
 3696TIP3    H210966   0.397   2.308   3.598
 3697TIP3   OH210967  -0.296   3.559   3.180
 3697TIP3    H110968  -0.309   3.631   3.114
 3697TIP3    H210969  -0.303   3.607   3.265
 3698TIP3   OH210970   1.054   2.753   4.321
 3698TIP3    H110971   0.956   2.746   4.314
 3698TIP3    H210972   1.082   2.719   4.235
 3699TIP3   OH210973   0.705   2.944   3.713
 3699TIP3    H110974   0.635   2.877   3.714
 3699TIP3    H210975   0.782   2.898   3.754
 3700TIP3   OH210976   0.672   3.897   3.656
 3700TIP3    H110977   0.628   3.942   3.580
 3700TIP3    H210978   0.766   3.916   3.634
 3701TIP3   OH210979   4.938   9.074   9.214
 3701TIP3    H110980   4.846   9.093   9.186
 3701TIP3    H210981   4.972   9.026   9.137
 3702TIP3   OH210982  -0.077   3.901   4.676
 3702TIP3    H110983   0.016   3.878   4.690
 3702TIP3    H210984  -0.101   3.838   4.605
 3703TIP3   OH210985   0.565   3.798   4.413
 3703TIP3    H110986   0.557   3.728   4.481
 3703TIP3    H210987   0.643   3.848   4.442
 3704TIP3   OH210988   0.355   3.511   2.717
 3704TIP3    H110989   0.371   3.438   2.779
 3704TIP3    H210990   0.436   3.513   2.664
 3705TIP3   OH210991  -0.405   3.316   4.842
 3705TIP3    H110992  -0.372   3.225   4.839
 3705TIP3    H210993  -0.500   3.299   4.826
 3706TIP3   OH210994   0.184   3.418   4.608
 3706TIP3    H110995   0.143   3.434   4.521
 3706TIP3    H210996   0.215   3.325   4.600
 3707TIP3   OH210997   0.674   3.425   4.213
 3707TIP3    H110998   0.751   3.467   4.169
 3707TIP3    H210999   0.607   3.495   4.200
 3708TIP3   OH211000  -0.317   3.048   4.833
 3708TIP3    H111001  -0.236   3.008   4.800
 3708TIP3    H211002  -0.287   3.085   4.919
 3709TIP3   OH211003   0.036   2.952   4.479
 3709TIP3    H111004  -0.043   3.010   4.480
 3709TIP3    H211005   0.082   2.983   4.398
 3710TIP3   OH211006   0.545   3.352   4.612
 3710TIP3    H111007   0.628   3.334   4.567
 3710TIP3    H211008   0.546   3.287   4.684
 3711TIP3   OH211009   0.684   3.011   2.721
 3711TIP3    H111010   0.668   3.002   2.626
 3711TIP3    H211011   0.653   3.104   2.731
 3712TIP3   OH211012   0.153   2.741   4.607
 3712TIP3    H111013   0.149   2.663   4.549
 3712TIP3    H211014   0.110   2.810   4.551
 3713TIP3   OH211015   0.147   2.533   4.394
 3713TIP3    H111016   0.134   2.606   4.332
 3713TIP3    H211017   0.057   2.493   4.392
 3714TIP3   OH211018   0.191   3.062   4.283
 3714TIP3    H111019   0.271   3.076   4.230
 3714TIP3    H211020   0.130   3.128   4.244
 3715TIP3   OH211021   0.765   3.028   4.665
 3715TIP3    H111022   0.817   2.947   4.679
 3715TIP3    H211023   0.833   3.088   4.633
 3716TIP3   OH211024   0.806   3.281   4.399
 3716TIP3    H111025   0.749   3.336   4.341
 3716TIP3    H211026   0.894   3.302   4.361
 3717TIP3   OH211027   0.030   2.853   4.836
 3717TIP3    H111028  -0.038   2.784   4.850
 3717TIP3    H211029   0.064   2.830   4.747
 3718TIP3   OH211030   0.292   2.298   4.471
 3718TIP3    H111031   0.231   2.373   4.459
 3718TIP3    H211032   0.229   2.223   4.476
 3719TIP3   OH211033   0.416   2.793   4.695
 3719TIP3    H111034   0.410   2.789   4.792
 3719TIP3    H211035   0.323   2.773   4.671
 3720TIP3   OH211036   0.647   2.740   4.542
 3720TIP3    H111037   0.580   2.749   4.612
 3720TIP3    H211038   0.726   2.715   4.594
 3721TIP3   OH211039   0.868   2.680   4.699
 3721TIP3    H111040   0.891   2.587   4.718
 3721TIP3    H211041   0.875   2.722   4.788
 3722TIP3   OH211042  -0.132   2.636   4.888
 3722TIP3    H111043  -0.127   2.545   4.854
 3722TIP3    H211044  -0.094   2.624   4.977
 3723TIP3   OH211045   0.422   2.492   4.883
 3723TIP3    H111046   0.409   2.479   4.788
 3723TIP3    H211047   0.364   2.570   4.899
 3724TIP3   OH211048  -0.316   3.751   2.986
 3724TIP3    H111049  -0.224   3.773   2.966
 3724TIP3    H211050  -0.363   3.797   2.914
 3725TIP3   OH211051   0.924   3.989   3.612
 3725TIP3    H111052   0.954   4.024   3.697
 3725TIP3    H211053   0.981   4.034   3.549
 3726TIP3   OH211054   0.954   4.011   3.896
 3726TIP3    H111055   0.913   3.923   3.888
 3726TIP3    H211056   1.032   3.989   3.950
 3727TIP3   OH211057   1.001   3.686   4.467
 3727TIP3    H111058   0.928   3.695   4.531
 3727TIP3    H211059   1.043   3.775   4.471
 3728TIP3   OH211060   0.817   3.201   3.086
 3728TIP3    H111061   0.887   3.264   3.059
 3728TIP3    H211062   0.857   3.164   3.168
 3729TIP3   OH211063   0.939   3.079   3.298
 3729TIP3    H111064   0.878   3.031   3.357
 3729TIP3    H211065   1.014   3.102   3.357
 3730TIP3   OH211066   0.997   3.456   3.721
 3730TIP3    H111067   1.053   3.391   3.674
 3730TIP3    H211068   0.995   3.531   3.658
 3731TIP3   OH211069   0.832   3.759   3.919
 3731TIP3    H111070   0.760   3.801   3.968
 3731TIP3    H211071   0.783   3.710   3.848
 3732TIP3   OH211072   0.880   2.977   2.936
 3732TIP3    H111073   0.808   2.977   2.870
 3732TIP3    H211074   0.853   3.051   2.994
 3733TIP3   OH211075   0.762   2.656   2.871
 3733TIP3    H111076   0.672   2.687   2.853
 3733TIP3    H211077   0.748   2.559   2.883
 3734TIP3   OH211078   0.759   2.922   3.438
 3734TIP3    H111079   0.773   2.826   3.428
 3734TIP3    H211080   0.752   2.933   3.536
 3735TIP3   OH211081  -0.613   3.025   4.147
 3735TIP3    H111082  -0.589   2.945   4.097
 3735TIP3    H211083  -0.529   3.034   4.197
 3736TIP3   OH211084   1.050   3.346   4.294
 3736TIP3    H111085   1.122   3.281   4.284
 3736TIP3    H211086   1.076   3.416   4.232
 3737TIP3   OH211087   1.237   3.150   4.312
 3737TIP3    H111088   1.162   3.100   4.352
 3737TIP3    H211089   1.311   3.089   4.331
 3738TIP3   OH211090   0.773   2.643   3.337
 3738TIP3    H111091   0.808   2.551   3.349
 3738TIP3    H211092   0.827   2.671   3.260
 3739TIP3   OH211093   0.924   2.824   3.828
 3739TIP3    H111094   1.008   2.843   3.780
 3739TIP3    H211095   0.948   2.860   3.915
 3740TIP3   OH211096   0.981   2.961   4.063
 3740TIP3    H111097   0.905   3.001   4.108
 3740TIP3    H211098   1.021   3.038   4.016
 3741TIP3   OH211099  -0.407   2.656   4.863
 3741TIP3    H111100  -0.314   2.681   4.847
 3741TIP3    H211101  -0.395   2.594   4.935
 3742TIP3   OH211102   1.434   2.547   4.614
 3742TIP3    H111103   1.495   2.482   4.572
 3742TIP3    H211104   1.412   2.604   4.538
 3743TIP3   OH211105   0.866   2.385   3.367
 3743TIP3    H111106   0.925   2.380   3.446
 3743TIP3    H211107   0.817   2.303   3.376
 3744TIP3   OH211108  -0.596   2.658   4.293
 3744TIP3    H111109  -0.576   2.652   4.199
 3744TIP3    H211110  -0.644   2.741   4.300
 3745TIP3   OH211111   1.309   2.696   4.421
 3745TIP3    H111112   1.215   2.721   4.433
 3745TIP3    H211113   1.297   2.623   4.357
 3746TIP3   OH211114   1.000   2.312   2.989
 3746TIP3    H111115   1.057   2.262   2.928
 3746TIP3    H211116   1.056   2.391   3.005
 3747TIP3   OH211117   0.507   3.854   3.268
 3747TIP3    H111118   0.560   3.843   3.187
 3747TIP3    H211119   0.553   3.926   3.314
 3748TIP3   OH211120  -0.433   2.242   4.592
 3748TIP3    H111121  -0.492   2.224   4.667
 3748TIP3    H211122  -0.495   2.279   4.528
 3749TIP3   OH211123  -0.359   3.622   4.659
 3749TIP3    H111124  -0.442   3.672   4.647
 3749TIP3    H211125  -0.357   3.615   4.756
 3750TIP3   OH211126  -0.204   3.688   4.203
 3750TIP3    H111127  -0.258   3.760   4.166
 3750TIP3    H211128  -0.120   3.706   4.157
 3751TIP3   OH211129   0.235   3.938   4.340
 3751TIP3    H111130   0.277   3.938   4.429
 3751TIP3    H211131   0.301   3.987   4.288
 3752TIP3   OH211132   0.414   4.088   4.198
 3752TIP3    H111133   0.485   4.038   4.155
 3752TIP3    H211134   0.465   4.145   4.259
 3753TIP3   OH211135   1.200   2.450   4.307
 3753TIP3    H111136   1.115   2.438   4.264
 3753TIP3    H211137   1.243   2.363   4.288
 3754TIP3   OH211138  -0.303   3.926   4.089
 3754TIP3    H111139  -0.388   3.939   4.132
 3754TIP3    H211140  -0.319   3.963   4.000
 3755TIP3   OH211141   0.127   3.956   3.883
 3755TIP3    H111142   0.067   3.979   3.811
 3755TIP3    H211143   0.142   4.044   3.925
 3756TIP3   OH211144   0.397   3.896   3.933
 3756TIP3    H111145   0.303   3.914   3.913
 3756TIP3    H211146   0.441   3.970   3.889
 3757TIP3   OH211147   0.602   4.089   3.847
 3757TIP3    H111148   0.588   4.174   3.800
 3757TIP3    H211149   0.629   4.030   3.773
 3758TIP3   OH211150  -0.579   3.758   3.959
 3758TIP3    H111151  -0.553   3.719   4.046
 3758TIP3    H211152  -0.519   3.705   3.901
 3759TIP3   OH211153  -0.419   3.599   3.809
 3759TIP3    H111154  -0.406   3.518   3.865
 3759TIP3    H211155  -0.329   3.637   3.812
 3760TIP3   OH211156  -0.162   3.711   3.832
 3760TIP3    H111157  -0.127   3.621   3.815
 3760TIP3    H211158  -0.116   3.731   3.916
 3761TIP3   OH211159   0.943   2.253   3.834
 3761TIP3    H111160   0.988   2.301   3.760
 3761TIP3    H211161   0.848   2.260   3.811
 3762TIP3   OH211162   1.023   2.348   3.586
 3762TIP3    H111163   1.098   2.294   3.552
 3762TIP3    H211164   1.071   2.434   3.595
 3763TIP3   OH211165   0.670   2.257   3.800
 3763TIP3    H111166   0.641   2.224   3.715
 3763TIP3    H211167   0.643   2.183   3.859
 3764TIP3   OH211168  -0.046   3.726   2.952
 3764TIP3    H111169   0.046   3.726   2.915
 3764TIP3    H211170  -0.090   3.666   2.892
 3765TIP3   OH211171   0.655   3.822   3.037
 3765TIP3    H111172   0.645   3.725   3.023
 3765TIP3    H211173   0.609   3.857   2.958
 3766TIP3   OH211174  -0.135   2.361   4.828
 3766TIP3    H111175  -0.170   2.285   4.879
 3766TIP3    H211176  -0.041   2.357   4.855
 3767TIP3   OH211177   0.114   2.349   4.949
 3767TIP3    H111178   0.204   2.323   4.925
 3767TIP3    H211179   0.092   2.280   5.016
 3768TIP3   OH211180   0.940   2.408   4.731
 3768TIP3    H111181   0.947   2.359   4.815
 3768TIP3    H211182   1.031   2.403   4.695
 3769TIP3   OH211183   0.882   3.967   4.225
 3769TIP3    H111184   0.803   3.935   4.176
 3769TIP3    H211185   0.863   4.063   4.227
 3770TIP3   OH211186   2.148   3.336   2.990
 3770TIP3    H111187   2.125   3.430   2.974
 3770TIP3    H211188   2.066   3.294   2.958
 3771TIP3   OH211189   2.153   3.333   3.369
 3771TIP3    H111190   2.179   3.312   3.461
 3771TIP3    H211191   2.101   3.255   3.345
 3772TIP3   OH211192   1.446   3.261   3.742
 3772TIP3    H111193   1.485   3.194   3.799
 3772TIP3    H211194   1.524   3.290   3.692
 3773TIP3   OH211195   2.391   3.636   3.054
 3773TIP3    H111196   2.376   3.572   3.124
 3773TIP3    H211197   2.418   3.715   3.104
 3774TIP3   OH211198   1.417   3.642   3.463
 3774TIP3    H111199   1.410   3.544   3.466
 3774TIP3    H211200   1.514   3.651   3.458
 3775TIP3   OH211201   1.119   2.880   3.207
 3775TIP3    H111202   1.060   2.948   3.243
 3775TIP3    H211203   1.085   2.799   3.248
 3776TIP3   OH211204   1.191   3.115   3.418
 3776TIP3    H111205   1.251   3.045   3.452
 3776TIP3    H211206   1.244   3.144   3.343
 3777TIP3   OH211207   2.038   4.101   3.068
 3777TIP3    H111208   2.086   4.030   3.020
 3777TIP3    H211209   2.034   4.066   3.158
 3778TIP3   OH211210   1.946   3.567   3.418
 3778TIP3    H111211   1.980   3.489   3.371
 3778TIP3    H211212   2.031   3.609   3.442
 3779TIP3   OH211213   2.961   2.884   3.416
 3779TIP3    H111214   2.989   2.967   3.461
 3779TIP3    H211215   2.982   2.906   3.323
 3780TIP3   OH211216   2.366   3.068   3.455
 3780TIP3    H111217   2.402   2.980   3.475
 3780TIP3    H211218   2.331   3.056   3.365
 3781TIP3   OH211219   1.770   3.130   3.318
 3781TIP3    H111220   1.860   3.097   3.336
 3781TIP3    H211221   1.725   3.048   3.288
 3782TIP3   OH211222   3.030   3.091   3.586
 3782TIP3    H111223   2.947   3.139   3.567
 3782TIP3    H211224   3.039   3.109   3.681
 3783TIP3   OH211225   1.669   2.728   3.848
 3783TIP3    H111226   1.605   2.747   3.777
 3783TIP3    H211227   1.614   2.677   3.909
 3784TIP3   OH211228   2.043   3.560   2.859
 3784TIP3    H111229   1.996   3.539   2.778
 3784TIP3    H211230   1.999   3.644   2.884
 3785TIP3   OH211231   1.802   3.486   3.649
 3785TIP3    H111232   1.736   3.549   3.686
 3785TIP3    H211233   1.841   3.538   3.576
 3786TIP3   OH211234   2.603   2.824   3.201
 3786TIP3    H111235   2.574   2.776   3.280
 3786TIP3    H211236   2.652   2.899   3.240
 3787TIP3   OH211237   1.626   3.678   3.745
 3787TIP3    H111238   1.599   3.764   3.707
 3787TIP3    H211239   1.547   3.661   3.801
 3788TIP3   OH211240   1.022   3.369   2.981
 3788TIP3    H111241   0.981   3.399   2.898
 3788TIP3    H211242   1.053   3.453   3.020
 3789TIP3   OH211243   2.462   3.882   3.220
 3789TIP3    H111244   2.372   3.874   3.260
 3789TIP3    H211245   2.454   3.968   3.175
 3790TIP3   OH211246   2.753   2.784   3.583
 3790TIP3    H111247   2.664   2.814   3.556
 3790TIP3    H211248   2.809   2.817   3.510
 3791TIP3   OH211249   2.053   2.430   3.571
 3791TIP3    H111250   2.038   2.334   3.581
 3791TIP3    H211251   1.973   2.465   3.616
 3792TIP3   OH211252   2.166   3.929   2.896
 3792TIP3    H111253   2.215   3.848   2.873
 3792TIP3    H211254   2.226   3.996   2.855
 3793TIP3   OH211255   2.308   3.714   2.801
 3793TIP3    H111256   2.263   3.637   2.764
 3793TIP3    H211257   2.343   3.678   2.886
 3794TIP3   OH211258   2.690   3.795   3.565
 3794TIP3    H111259   2.677   3.719   3.504
 3794TIP3    H211260   2.670   3.871   3.506
 3795TIP3   OH211261   1.973   3.191   2.824
 3795TIP3    H111262   1.891   3.242   2.804
 3795TIP3    H211263   2.016   3.190   2.737
 3796TIP3   OH211264   1.940   2.975   2.537
 3796TIP3    H111265   2.010   3.024   2.586
 3796TIP3    H211266   1.995   2.907   2.494
 3797TIP3   OH211267   2.888   3.436   3.409
 3797TIP3    H111268   2.803   3.486   3.414
 3797TIP3    H211269   2.914   3.457   3.317
 3798TIP3   OH211270   2.327   3.269   2.794
 3798TIP3    H111271   2.270   3.297   2.870
 3798TIP3    H211272   2.409   3.244   2.840
 3799TIP3   OH211273   2.562   3.316   3.700
 3799TIP3    H111274   2.555   3.398   3.751
 3799TIP3    H211275   2.474   3.314   3.658
 3800TIP3   OH211276   1.560   3.273   3.204
 3800TIP3    H111277   1.518   3.212   3.140
 3800TIP3    H211278   1.632   3.218   3.241
 3801TIP3   OH211279   1.689   3.684   3.357
 3801TIP3    H111280   1.666   3.636   3.277
 3801TIP3    H211281   1.779   3.650   3.377
 3802TIP3   OH211282   1.689   3.243   3.569
 3802TIP3    H111283   1.716   3.221   3.478
 3802TIP3    H211284   1.738   3.326   3.587
 3803TIP3   OH211285   2.221   3.879   3.341
 3803TIP3    H111286   2.207   3.959   3.394
 3803TIP3    H211287   2.205   3.806   3.404
 3804TIP3   OH211288   1.833   3.798   3.888
 3804TIP3    H111289   1.773   3.860   3.934
 3804TIP3    H211290   1.768   3.745   3.839
 3805TIP3   OH211291   2.173   3.110   2.631
 3805TIP3    H111292   2.232   3.173   2.678
 3805TIP3    H211293   2.198   3.131   2.537
 3806TIP3   OH211294   1.580   3.366   3.996
 3806TIP3    H111295   1.580   3.453   4.041
 3806TIP3    H211296   1.484   3.345   3.998
 3807TIP3   OH211297   1.911   3.810   2.894
 3807TIP3    H111298   1.988   3.865   2.913
 3807TIP3    H211299   1.848   3.873   2.857
 3808TIP3   OH211300   1.627   3.967   3.974
 3808TIP3    H111301   1.592   3.965   3.883
 3808TIP3    H211302   1.548   3.945   4.028
 3809TIP3   OH211303   2.686   2.372   2.670
 3809TIP3    H111304   2.600   2.388   2.713
 3809TIP3    H211305   2.697   2.453   2.615
 3810TIP3   OH211306   1.431   3.113   3.005
 3810TIP3    H111307   1.355   3.150   2.955
 3810TIP3    H211308   1.393   3.033   3.044
 3811TIP3   OH211309   2.481   3.739   2.215
 3811TIP3    H111310   2.489   3.836   2.201
 3811TIP3    H211311   2.574   3.710   2.203
 3812TIP3   OH211312   1.205   3.497   3.922
 3812TIP3    H111313   1.144   3.474   3.849
 3812TIP3    H211314   1.243   3.409   3.945
 3813TIP3   OH211315   1.059   3.689   3.557
 3813TIP3    H111316   1.154   3.681   3.545
 3813TIP3    H211317   1.052   3.770   3.609
 3814TIP3   OH211318   2.927   4.143   3.612
 3814TIP3    H111319   2.922   4.046   3.621
 3814TIP3    H211320   2.843   4.169   3.656
 3815TIP3   OH211321   2.031   3.928   3.745
 3815TIP3    H111322   2.030   4.020   3.777
 3815TIP3    H211323   1.959   3.888   3.799
 3816TIP3   OH211324   1.790   4.056   2.697
 3816TIP3    H111325   1.745   4.039   2.612
 3816TIP3    H211326   1.759   4.146   2.720
 3817TIP3   OH211327   1.229   3.907   3.081
 3817TIP3    H111328   1.278   3.896   3.165
 3817TIP3    H211329   1.168   3.831   3.086
 3818TIP3   OH211330   1.992   3.956   2.337
 3818TIP3    H111331   2.052   3.887   2.301
 3818TIP3    H211332   2.027   3.967   2.428
 3819TIP3   OH211333   2.042   4.004   2.607
 3819TIP3    H111334   1.954   4.014   2.650
 3819TIP3    H211335   2.094   3.966   2.680
 3820TIP3   OH211336   2.833   3.287   3.869
 3820TIP3    H111337   2.745   3.298   3.831
 3820TIP3    H211338   2.840   3.190   3.869
 3821TIP3   OH211339   1.409   3.681   3.912
 3821TIP3    H111340   1.460   3.664   3.994
 3821TIP3    H211341   1.337   3.615   3.918
 3822TIP3   OH211342   1.804   2.502   3.688
 3822TIP3    H111343   1.717   2.475   3.653
 3822TIP3    H211344   1.783   2.589   3.726
 3823TIP3   OH211345   2.342   2.617   3.889
 3823TIP3    H111346   2.409   2.592   3.956
 3823TIP3    H211347   2.257   2.598   3.934
 3824TIP3   OH211348   2.592   3.056   3.812
 3824TIP3    H111349   2.536   3.044   3.892
 3824TIP3    H211350   2.555   3.137   3.772
 3825TIP3   OH211351   2.243   3.170   2.370
 3825TIP3    H111352   2.208   3.150   2.281
 3825TIP3    H211353   2.319   3.226   2.347
 3826TIP3   OH211354   1.994   2.531   2.662
 3826TIP3    H111355   1.952   2.549   2.748
 3826TIP3    H211356   1.933   2.462   2.630
 3827TIP3   OH211357   1.763   3.018   3.710
 3827TIP3    H111358   1.673   2.994   3.735
 3827TIP3    H211359   1.741   3.089   3.645
 3828TIP3   OH211360   1.638   2.910   3.226
 3828TIP3    H111361   1.568   2.894   3.292
 3828TIP3    H211362   1.619   2.843   3.158
 3829TIP3   OH211363   2.130   2.997   2.934
 3829TIP3    H111364   2.056   3.061   2.939
 3829TIP3    H211365   2.155   3.016   2.843
 3830TIP3   OH211366   2.281   3.024   3.197
 3830TIP3    H111367   2.225   3.058   3.124
 3830TIP3    H211368   2.299   2.934   3.166
 3831TIP3   OH211369   1.608   2.529   2.632
 3831TIP3    H111370   1.602   2.519   2.729
 3831TIP3    H211371   1.529   2.584   2.615
 3832TIP3   OH211372   1.145   2.582   3.493
 3832TIP3    H111373   1.204   2.592   3.570
 3832TIP3    H211374   1.205   2.550   3.425
 3833TIP3   OH211375   1.132   2.557   3.021
 3833TIP3    H111376   1.184   2.599   2.950
 3833TIP3    H211377   1.076   2.631   3.048
 3834TIP3   OH211378   2.291   3.270   3.619
 3834TIP3    H111379   2.320   3.195   3.562
 3834TIP3    H211380   2.260   3.221   3.698
 3835TIP3   OH211381   1.954   2.724   3.286
 3835TIP3    H111382   1.861   2.732   3.313
 3835TIP3    H211383   2.002   2.734   3.370
 3836TIP3   OH211384   1.665   2.765   2.974
 3836TIP3    H111385   1.748   2.809   2.954
 3836TIP3    H211386   1.606   2.795   2.901
 3837TIP3   OH211387   2.444   2.800   3.481
 3837TIP3    H111388   2.418   2.813   3.576
 3837TIP3    H211389   2.375   2.738   3.454
 3838TIP3   OH211390   1.496   2.814   2.766
 3838TIP3    H111391   1.415   2.779   2.725
 3838TIP3    H211392   1.544   2.846   2.688
 3839TIP3   OH211393   2.615   4.491   3.708
 3839TIP3    H111394   2.613   4.515   3.614
 3839TIP3    H211395   2.692   4.541   3.740
 3840TIP3   OH211396   1.570   3.609   4.133
 3840TIP3    H111397   1.652   3.635   4.180
 3840TIP3    H211398   1.507   3.607   4.208
 3841TIP3   OH211399   2.036   3.053   3.391
 3841TIP3    H111400   2.111   3.007   3.351
 3841TIP3    H211401   2.039   3.020   3.483
 3842TIP3   OH211402   1.599   2.536   3.252
 3842TIP3    H111403   1.537   2.484   3.307
 3842TIP3    H211404   1.620   2.473   3.183
 3843TIP3   OH211405   2.024   2.955   3.669
 3843TIP3    H111406   1.932   2.987   3.683
 3843TIP3    H211407   2.076   3.018   3.724
 3844TIP3   OH211408   1.749   3.342   2.771
 3844TIP3    H111409   1.677   3.277   2.760
 3844TIP3    H211410   1.731   3.377   2.862
 3845TIP3   OH211411   2.653   3.577   3.400
 3845TIP3    H111412   2.676   3.628   3.319
 3845TIP3    H211413   2.566   3.538   3.376
 3846TIP3   OH211414   2.155   3.663   3.765
 3846TIP3    H111415   2.172   3.635   3.855
 3846TIP3    H211416   2.112   3.750   3.776
 3847TIP3   OH211417   1.445   3.366   3.443
 3847TIP3    H111418   1.478   3.337   3.356
 3847TIP3    H211419   1.471   3.289   3.497
 3848TIP3   OH211420   1.894   3.491   2.591
 3848TIP3    H111421   1.847   3.578   2.597
 3848TIP3    H211422   1.840   3.437   2.652
 3849TIP3   OH211423   1.316   3.285   4.062
 3849TIP3    H111424   1.334   3.266   4.156
 3849TIP3    H211425   1.246   3.220   4.041
 3850TIP3   OH211426   2.311   3.920   3.662
 3850TIP3    H111427   2.214   3.918   3.675
 3850TIP3    H211428   2.338   3.973   3.741
 3851TIP3   OH211429   2.727   2.994   2.563
 3851TIP3    H111430   2.661   2.953   2.502
 3851TIP3    H211431   2.722   3.085   2.525
 3852TIP3   OH211432   2.938   3.850   3.654
 3852TIP3    H111433   2.840   3.847   3.643
 3852TIP3    H211434   2.966   3.822   3.564
 3853TIP3   OH211435   2.417   3.811   2.479
 3853TIP3    H111436   2.395   3.741   2.541
 3853TIP3    H211437   2.432   3.764   2.395
 3854TIP3   OH211438   2.415   3.442   3.319
 3854TIP3    H111439   2.322   3.416   3.333
 3854TIP3    H211440   2.450   3.363   3.274
 3855TIP3   OH211441   1.542   3.667   3.069
 3855TIP3    H111442   1.542   3.750   3.017
 3855TIP3    H211443   1.448   3.652   3.081
 3856TIP3   OH211444   1.106   2.982   2.784
 3856TIP3    H111445   1.155   3.063   2.809
 3856TIP3    H211446   1.032   2.984   2.849
 3857TIP3   OH211447   1.686   3.436   3.015
 3857TIP3    H111448   1.647   3.524   3.035
 3857TIP3    H211449   1.648   3.382   3.087
 3858TIP3   OH211450   1.811   4.013   3.541
 3858TIP3    H111451   1.853   4.085   3.490
 3858TIP3    H211452   1.888   3.978   3.589
 3859TIP3   OH211453   1.462   3.907   2.923
 3859TIP3    H111454   1.377   3.915   2.969
 3859TIP3    H211455   1.494   4.000   2.926
 3860TIP3   OH211456   2.202   3.645   3.497
 3860TIP3    H111457   2.191   3.646   3.595
 3860TIP3    H211458   2.282   3.592   3.487
 3861TIP3   OH211459   2.173   3.536   2.382
 3861TIP3    H111460   2.226   3.512   2.461
 3861TIP3    H211461   2.084   3.513   2.412
 3862TIP3   OH211462   2.450   4.180   3.549
 3862TIP3    H111463   2.370   4.124   3.541
 3862TIP3    H211464   2.434   4.246   3.477
 3863TIP3   OH211465   2.515   4.014   2.203
 3863TIP3    H111466   2.555   4.088   2.153
 3863TIP3    H211467   2.434   4.060   2.234
 3864TIP3   OH211468   2.334   3.471   2.598
 3864TIP3    H111469   2.324   3.405   2.669
 3864TIP3    H211470   2.431   3.471   2.586
 3865TIP3   OH211471   1.250   3.876   3.701
 3865TIP3    H111472   1.301   3.799   3.728
 3865TIP3    H211473   1.283   3.943   3.762
 3866TIP3   OH211474   1.541   3.519   2.380
 3866TIP3    H111475   1.555   3.427   2.353
 3866TIP3    H211476   1.522   3.508   2.476
 3867TIP3   OH211477   1.486   3.525   2.653
 3867TIP3    H111478   1.555   3.497   2.715
 3867TIP3    H211479   1.491   3.623   2.660
 3868TIP3   OH211480   1.221   3.222   2.858
 3868TIP3    H111481   1.156   3.266   2.916
 3868TIP3    H211482   1.237   3.292   2.792
 3869TIP3   OH211483   2.382   2.844   3.740
 3869TIP3    H111484   2.441   2.894   3.799
 3869TIP3    H211485   2.356   2.769   3.797
 3870TIP3   OH211486   1.752   3.722   2.601
 3870TIP3    H111487   1.666   3.749   2.638
 3870TIP3    H211488   1.770   3.796   2.542
 3871TIP3   OH211489   1.966   2.776   3.014
 3871TIP3    H111490   2.016   2.858   2.999
 3871TIP3    H211491   1.949   2.778   3.111
 3872TIP3   OH211492   2.213   3.117   3.832
 3872TIP3    H111493   2.167   3.153   3.911
 3872TIP3    H211494   2.259   3.041   3.870
 3873TIP3   OH211495   2.085   2.524   3.134
 3873TIP3    H111496   2.062   2.592   3.201
 3873TIP3    H211497   2.118   2.582   3.064
 3874TIP3   OH211498   1.495   3.797   2.669
 3874TIP3    H111499   1.465   3.867   2.607
 3874TIP3    H211500   1.479   3.841   2.756
 3875TIP3   OH211501   1.599   2.503   2.906
 3875TIP3    H111502   1.593   2.592   2.947
 3875TIP3    H211503   1.695   2.490   2.913
 3876TIP3   OH211504   2.855   3.004   3.804
 3876TIP3    H111505   2.757   3.008   3.817
 3876TIP3    H211506   2.857   2.965   3.716
 3877TIP3   OH211507   2.504   3.203   3.193
 3877TIP3    H111508   2.427   3.145   3.210
 3877TIP3    H211509   2.575   3.156   3.242
 3878TIP3   OH211510   1.212   3.431   2.661
 3878TIP3    H111511   1.276   3.503   2.672
 3878TIP3    H211512   1.262   3.376   2.596
 3879TIP3   OH211513   1.170   2.715   2.797
 3879TIP3    H111514   1.156   2.812   2.799
 3879TIP3    H211515   1.085   2.682   2.766
 3880TIP3   OH211516   2.470   4.153   3.142
 3880TIP3    H111517   2.427   4.200   3.068
 3880TIP3    H211518   2.564   4.173   3.122
 3881TIP3   OH211519   1.085   3.641   3.052
 3881TIP3    H111520   1.012   3.674   3.106
 3881TIP3    H211521   1.061   3.681   2.965
 3882TIP3   OH211522   1.240   4.183   4.123
 3882TIP3    H111523   1.327   4.182   4.169
 3882TIP3    H211524   1.221   4.087   4.120
 3883TIP3   OH211525   1.722   4.150   4.165
 3883TIP3    H111526   1.817   4.131   4.174
 3883TIP3    H211527   1.699   4.090   4.091
 3884TIP3   OH211528   1.704   3.724   2.294
 3884TIP3    H111529   1.648   3.653   2.332
 3884TIP3    H211530   1.780   3.672   2.263
 3885TIP3   OH211531   2.363   4.053   3.898
 3885TIP3    H111532   2.353   3.984   3.968
 3885TIP3    H211533   2.439   4.105   3.930
 3886TIP3   OH211534   2.140   3.765   2.204
 3886TIP3    H111535   2.188   3.704   2.263
 3886TIP3    H211536   2.197   3.767   2.125
 3887TIP3   OH211537   1.369   3.590   4.323
 3887TIP3    H111538   1.388   3.494   4.321
 3887TIP3    H211539   1.282   3.593   4.278
 3888TIP3   OH211540   1.352   3.243   2.518
 3888TIP3    H111541   1.407   3.207   2.590
 3888TIP3    H211542   1.420   3.246   2.446
 3889TIP3   OH211543   1.980   3.669   4.095
 3889TIP3    H111544   1.938   3.683   4.008
 3889TIP3    H211545   2.025   3.585   4.085
 3890TIP3   OH211546   1.857   3.440   2.321
 3890TIP3    H111547   1.859   3.452   2.418
 3890TIP3    H211548   1.856   3.341   2.316
 3891TIP3   OH211549   2.474   3.681   3.703
 3891TIP3    H111550   2.544   3.730   3.656
 3891TIP3    H211551   2.399   3.742   3.691
 3892TIP3   OH211552   1.485   3.330   4.310
 3892TIP3    H111553   1.554   3.265   4.296
 3892TIP3    H211554   1.507   3.363   4.399
 3893TIP3   OH211555   1.557   3.145   2.738
 3893TIP3    H111556   1.526   3.109   2.824
 3893TIP3    H211557   1.590   3.064   2.693
 3894TIP3   OH211558   1.774   3.179   3.961
 3894TIP3    H111559   1.726   3.268   3.958
 3894TIP3    H211560   1.862   3.208   3.915
 3895TIP3   OH211561   1.658   2.935   2.581
 3895TIP3    H111562   1.631   2.940   2.487
 3895TIP3    H211563   1.756   2.944   2.572
 3896TIP3   OH211564   2.339   3.609   4.099
 3896TIP3    H111565   2.420   3.581   4.054
 3896TIP3    H211566   2.333   3.543   4.170
 3897TIP3   OH211567   2.480   3.268   2.240
 3897TIP3    H111568   2.458   3.223   2.157
 3897TIP3    H211569   2.448   3.359   2.217
 3898TIP3   OH211570   1.946   2.762   3.875
 3898TIP3    H111571   1.977   2.820   3.804
 3898TIP3    H211572   1.849   2.761   3.862
 3899TIP3   OH211573   1.972   3.300   3.759
 3899TIP3    H111574   2.059   3.325   3.727
 3899TIP3    H211575   1.915   3.373   3.726
 3900TIP3   OH211576   2.585   3.295   4.181
 3900TIP3    H111577   2.612   3.204   4.161
 3900TIP3    H211578   2.632   3.347   4.115
 3901TIP3   OH211579   2.606   3.539   3.890
 3901TIP3    H111580   2.545   3.591   3.832
 3901TIP3    H211581   2.692   3.558   3.846
 3902TIP3   OH211582   2.085   2.542   3.964
 3902TIP3    H111583   2.036   2.623   3.936
 3902TIP3    H211584   2.015   2.474   3.955
 3903TIP3   OH211585   2.450   2.994   4.033
 3903TIP3    H111586   2.377   3.015   4.093
 3903TIP3    H211587   2.520   2.965   4.094
 3904TIP3   OH211588   2.689   2.942   4.188
 3904TIP3    H111589   2.693   2.847   4.209
 3904TIP3    H211590   2.679   2.982   4.278
 3905TIP3   OH211591   2.179   2.555   4.222
 3905TIP3    H111592   2.245   2.483   4.215
 3905TIP3    H211593   2.137   2.549   4.134
 3906TIP3   OH211594   2.251   2.771   4.378
 3906TIP3    H111595   2.225   2.700   4.316
 3906TIP3    H211596   2.171   2.828   4.377
 3907TIP3   OH211597   1.464   3.999   2.481
 3907TIP3    H111598   1.560   3.996   2.463
 3907TIP3    H211599   1.435   4.049   2.403
 3908TIP3   OH211600   0.944   3.384   2.697
 3908TIP3    H111601   1.039   3.407   2.686
 3908TIP3    H211602   0.942   3.295   2.658
 3909TIP3   OH211603   0.864   3.993   3.102
 3909TIP3    H111604   0.792   3.933   3.072
 3909TIP3    H211605   0.903   3.938   3.173
 3910TIP3   OH211606   0.995   3.848   3.297
 3910TIP3    H111607   0.982   3.773   3.358
 3910TIP3    H211608   1.046   3.908   3.354
 3911TIP3   OH211609   2.722   4.245   3.098
 3911TIP3    H111610   2.748   4.283   3.184
 3911TIP3    H211611   2.781   4.291   3.037
 3912TIP3   OH211612   2.749   4.267   3.381
 3912TIP3    H111613   2.709   4.178   3.376
 3912TIP3    H211614   2.828   4.248   3.433
 3913TIP3   OH211615   2.803   3.937   3.959
 3913TIP3    H111616   2.726   3.949   4.018
 3913TIP3    H211617   2.840   4.028   3.958
 3914TIP3   OH211618   2.614   3.456   2.573
 3914TIP3    H111619   2.681   3.521   2.544
 3914TIP3    H211620   2.659   3.418   2.652
 3915TIP3   OH211621   2.741   3.321   2.777
 3915TIP3    H111622   2.676   3.285   2.840
 3915TIP3    H211623   2.809   3.361   2.836
 3916TIP3   OH211624   2.796   3.714   3.209
 3916TIP3    H111625   2.849   3.652   3.156
 3916TIP3    H211626   2.788   3.791   3.149
 3917TIP3   OH211627   2.627   4.013   3.407
 3917TIP3    H111628   2.556   4.059   3.456
 3917TIP3    H211629   2.577   3.968   3.336
 3918TIP3   OH211630   2.679   3.231   2.424
 3918TIP3    H111631   2.608   3.235   2.356
 3918TIP3    H211632   2.652   3.308   2.478
 3919TIP3   OH211633   2.542   2.906   2.388
 3919TIP3    H111634   2.511   2.950   2.308
 3919TIP3    H211635   2.517   2.813   2.371
 3920TIP3   OH211636   2.555   3.164   2.930
 3920TIP3    H111637   2.614   3.092   2.954
 3920TIP3    H211638   2.531   3.197   3.020
 3921TIP3   OH211639   1.181   3.255   3.666
 3921TIP3    H111640   1.184   3.213   3.578
 3921TIP3    H211641   1.278   3.261   3.685
 3922TIP3   OH211642   2.852   3.599   3.776
 3922TIP3    H111643   2.927   3.545   3.747
 3922TIP3    H211644   2.858   3.675   3.716
 3923TIP3   OH211645   3.073   3.428   3.851
 3923TIP3    H111646   2.981   3.393   3.860
 3923TIP3    H211647   3.117   3.342   3.826
 3924TIP3   OH211648   2.488   2.642   2.382
 3924TIP3    H111649   2.569   2.599   2.416
 3924TIP3    H211650   2.417   2.577   2.396
 3925TIP3   OH211651   2.715   3.070   3.313
 3925TIP3    H111652   2.802   3.097   3.275
 3925TIP3    H211653   2.726   3.107   3.403
 3926TIP3   OH211654   2.782   3.214   3.545
 3926TIP3    H111655   2.704   3.246   3.594
 3926TIP3    H211656   2.812   3.296   3.500
 3927TIP3   OH211657   1.414   2.943   4.362
 3927TIP3    H111658   1.506   2.916   4.374
 3927TIP3    H211659   1.369   2.859   4.384
 3928TIP3   OH211660   3.236   2.808   4.103
 3928TIP3    H111661   3.295   2.743   4.059
 3928TIP3    H211662   3.207   2.863   4.027
 3929TIP3   OH211663   2.611   2.665   2.858
 3929TIP3    H111664   2.680   2.661   2.928
 3929TIP3    H211665   2.586   2.569   2.860
 3930TIP3   OH211666   1.162   2.916   3.724
 3930TIP3    H111667   1.220   2.862   3.669
 3930TIP3    H211668   1.219   2.993   3.734
 3931TIP3   OH211669   3.104   2.945   3.911
 3931TIP3    H111670   3.017   2.985   3.928
 3931TIP3    H211671   3.077   2.874   3.849
 3932TIP3   OH211672   2.743   2.580   2.492
 3932TIP3    H111673   2.783   2.509   2.436
 3932TIP3    H211674   2.809   2.651   2.481
 3933TIP3   OH211675   1.148   2.399   3.241
 3933TIP3    H111676   1.058   2.414   3.276
 3933TIP3    H211677   1.155   2.468   3.172
 3934TIP3   OH211678   2.306   4.112   2.756
 3934TIP3    H111679   2.356   4.098   2.673
 3934TIP3    H211680   2.359   4.180   2.800
 3935TIP3   OH211681   1.384   2.488   4.075
 3935TIP3    H111682   1.308   2.506   4.133
 3935TIP3    H211683   1.342   2.501   3.986
 3936TIP3   OH211684   1.407   3.918   4.142
 3936TIP3    H111685   1.316   3.888   4.125
 3936TIP3    H211686   1.417   3.898   4.236
 3937TIP3   OH211687   1.584   3.949   3.689
 3937TIP3    H111688   1.537   4.025   3.649
 3937TIP3    H211689   1.670   3.962   3.645
 3938TIP3   OH211690   2.030   4.194   3.827
 3938TIP3    H111691   2.072   4.195   3.915
 3938TIP3    H211692   2.097   4.245   3.775
 3939TIP3   OH211693   2.210   4.345   3.685
 3939TIP3    H111694   2.281   4.295   3.643
 3939TIP3    H211695   2.261   4.402   3.746
 3940TIP3   OH211696   3.003   2.710   3.784
 3940TIP3    H111697   2.911   2.711   3.753
 3940TIP3    H211698   3.028   2.617   3.769
 3941TIP3   OH211699   1.263   4.207   3.711
 3941TIP3    H111700   1.173   4.240   3.688
 3941TIP3    H211701   1.270   4.239   3.802
 3942TIP3   OH211702   1.499   4.185   3.570
 3942TIP3    H111703   1.412   4.198   3.614
 3942TIP3    H211704   1.479   4.217   3.480
 3943TIP3   OH211705   1.924   4.214   3.367
 3943TIP3    H111706   1.855   4.234   3.302
 3943TIP3    H211707   1.937   4.301   3.410
 3944TIP3   OH211708   2.193   4.152   3.419
 3944TIP3    H111709   2.099   4.170   3.399
 3944TIP3    H211710   2.236   4.229   3.377
 3945TIP3   OH211711   2.399   4.344   3.335
 3945TIP3    H111712   2.386   4.430   3.288
 3945TIP3    H211713   2.426   4.285   3.261
 3946TIP3   OH211714   1.173   3.999   3.457
 3946TIP3    H111715   1.199   3.974   3.548
 3946TIP3    H211716   1.245   3.955   3.407
 3947TIP3   OH211717   1.367   3.870   3.314
 3947TIP3    H111718   1.383   3.786   3.362
 3947TIP3    H211719   1.457   3.907   3.309
 3948TIP3   OH211720   1.633   3.966   3.316
 3948TIP3    H111721   1.664   3.874   3.304
 3948TIP3    H211722   1.677   3.987   3.401
 3949TIP3   OH211723   2.216   2.621   3.407
 3949TIP3    H111724   2.166   2.556   3.460
 3949TIP3    H211725   2.281   2.566   3.362
 3950TIP3   OH211726   2.737   2.501   3.306
 3950TIP3    H111727   2.767   2.557   3.231
 3950TIP3    H211728   2.641   2.519   3.305
 3951TIP3   OH211729   2.819   2.605   3.061
 3951TIP3    H111730   2.895   2.553   3.026
 3951TIP3    H211731   2.857   2.695   3.055
 3952TIP3   OH211732   1.464   2.334   3.391
 3952TIP3    H111733   1.372   2.312   3.414
 3952TIP3    H211734   1.510   2.251   3.410
 3953TIP3   OH211735   1.263   2.189   3.081
 3953TIP3    H111736   1.299   2.246   3.009
 3953TIP3    H211737   1.227   2.256   3.142
 3954TIP3   OH211738   1.911   2.354   3.296
 3954TIP3    H111739   1.970   2.417   3.251
 3954TIP3    H211740   1.895   2.398   3.380
 3955TIP3   OH211741   2.455   2.504   3.283
 3955TIP3    H111742   2.453   2.459   3.198
 3955TIP3    H211743   2.437   2.429   3.344
 3956TIP3   OH211744   2.472   2.424   2.847
 3956TIP3    H111745   2.377   2.420   2.833
 3956TIP3    H211746   2.482   2.342   2.902
 3957TIP3   OH211747   0.962   3.769   2.848
 3957TIP3    H111748   0.877   3.739   2.813
 3957TIP3    H211749   0.950   3.865   2.840
 3958TIP3   OH211750   1.366   2.348   2.873
 3958TIP3    H111751   1.402   2.292   2.801
 3958TIP3    H211752   1.444   2.403   2.895
 3959TIP3   OH211753   1.878   2.530   2.925
 3959TIP3    H111754   1.917   2.483   3.000
 3959TIP3    H211755   1.891   2.623   2.953
 3960TIP3   OH211756   1.733   3.961   2.431
 3960TIP3    H111757   1.821   3.983   2.395
 3960TIP3    H211758   1.711   3.886   2.371
 3961TIP3   OH211759   2.450   4.078   2.523
 3961TIP3    H111760   2.441   3.980   2.509
 3961TIP3    H211761   2.407   4.112   2.442
 3962TIP3   OH211762   1.661   2.605   4.320
 3962TIP3    H111763   1.634   2.533   4.379
 3962TIP3    H211764   1.752   2.623   4.351
 3963TIP3   OH211765   1.912   2.612   4.434
 3963TIP3    H111766   1.997   2.588   4.392
 3963TIP3    H211767   1.901   2.540   4.499
 3964TIP3   OH211768   1.036   3.796   2.488
 3964TIP3    H111769   1.035   3.823   2.581
 3964TIP3    H211770   1.126   3.757   2.478
 3965TIP3   OH211771   2.738   2.668   4.219
 3965TIP3    H111772   2.756   2.639   4.312
 3965TIP3    H211773   2.828   2.663   4.180
 3966TIP3   OH211774   2.679   4.222   3.711
 3966TIP3    H111775   2.600   4.192   3.662
 3966TIP3    H211776   2.661   4.318   3.714
 3967TIP3   OH211777   3.945   3.594   2.477
 3967TIP3    H111778   3.918   3.687   2.459
 3967TIP3    H211779   3.866   3.547   2.446
 3968TIP3   OH211780   3.946   3.593   2.856
 3968TIP3    H111781   3.977   3.566   2.944
 3968TIP3    H211782   3.900   3.513   2.825
 3969TIP3   OH211783   3.244   3.481   3.222
 3969TIP3    H111784   3.279   3.419   3.289
 3969TIP3    H211785   3.302   3.557   3.241
 3970TIP3   OH211786   4.187   3.895   2.539
 3970TIP3    H111787   4.172   3.829   2.608
 3970TIP3    H211788   4.214   3.973   2.592
 3971TIP3   OH211789   3.213   3.897   2.949
 3971TIP3    H111790   3.205   3.800   2.952
 3971TIP3    H211791   3.310   3.908   2.944
 3972TIP3   OH211792   2.918   3.098   2.737
 3972TIP3    H111793   2.876   3.185   2.749
 3972TIP3    H211794   2.848   3.050   2.689
 3973TIP3   OH211795   2.978   3.388   2.902
 3973TIP3    H111796   3.030   3.314   2.941
 3973TIP3    H211797   3.043   3.427   2.842
 3974TIP3   OH211798   3.832   4.356   2.553
 3974TIP3    H111799   3.882   4.285   2.508
 3974TIP3    H211800   3.828   4.324   2.644
 3975TIP3   OH211801   3.743   3.821   2.905
 3975TIP3    H111802   3.781   3.746   2.857
 3975TIP3    H211803   3.826   3.866   2.930
 3976TIP3   OH211804   4.756   3.140   2.904
 3976TIP3    H111805   4.783   3.223   2.949
 3976TIP3    H211806   4.774   3.162   2.811
 3977TIP3   OH211807   4.156   3.321   2.939
 3977TIP3    H111808   4.197   3.235   2.959
 3977TIP3    H211809   4.124   3.306   2.848
 3978TIP3   OH211810   3.492   2.980   2.905
 3978TIP3    H111811   3.472   3.055   2.844
 3978TIP3    H211812   3.443   2.909   2.860
 3979TIP3   OH211813   4.186   3.071   2.527
 3979TIP3    H111814   4.259   3.056   2.592
 3979TIP3    H211815   4.237   3.108   2.453
 3980TIP3   OH211816   3.124   3.183   3.011
 3980TIP3    H111817   3.208   3.168   3.059
 3980TIP3    H211818   3.140   3.128   2.931
 3981TIP3   OH211819   3.569   3.382   2.796
 3981TIP3    H111820   3.662   3.355   2.815
 3981TIP3    H211821   3.529   3.297   2.769
 3982TIP3   OH211822   4.827   3.347   3.076
 3982TIP3    H111823   4.745   3.396   3.056
 3982TIP3    H211824   4.848   3.380   3.165
 3983TIP3   OH211825   3.484   2.963   3.340
 3983TIP3    H111826   3.427   3.004   3.273
 3983TIP3    H211827   3.435   2.986   3.422
 3984TIP3   OH211828   3.840   3.818   2.345
 3984TIP3    H111829   3.792   3.797   2.264
 3984TIP3    H211830   3.796   3.902   2.371
 3985TIP3   OH211831   3.597   3.734   3.137
 3985TIP3    H111832   3.533   3.797   3.177
 3985TIP3    H211833   3.638   3.789   3.068
 3986TIP3   OH211834   4.399   3.073   2.698
 3986TIP3    H111835   4.383   3.029   2.783
 3986TIP3    H211836   4.450   3.151   2.725
 3987TIP3   OH211837   3.358   3.081   3.124
 3987TIP3    H111838   3.418   3.155   3.148
 3987TIP3    H211839   3.410   3.041   3.050
 3988TIP3   OH211840   3.425   3.933   3.231
 3988TIP3    H111841   3.397   4.019   3.194
 3988TIP3    H211842   3.347   3.913   3.287
 3989TIP3   OH211843   2.818   3.623   2.468
 3989TIP3    H111844   2.778   3.651   2.384
 3989TIP3    H211845   2.848   3.709   2.505
 3990TIP3   OH211846   4.258   4.138   2.706
 3990TIP3    H111847   4.169   4.131   2.747
 3990TIP3    H211848   4.250   4.225   2.662
 3991TIP3   OH211849   4.548   3.039   3.070
 3991TIP3    H111850   4.461   3.070   3.041
 3991TIP3    H211851   4.607   3.072   2.999
 3992TIP3   OH211852   3.847   2.686   3.051
 3992TIP3    H111853   3.832   2.591   3.068
 3992TIP3    H211854   3.770   2.724   3.099
 3993TIP3   OH211855   3.964   4.184   2.383
 3993TIP3    H111856   4.014   4.103   2.360
 3993TIP3    H211857   4.023   4.252   2.342
 3994TIP3   OH211858   4.106   3.969   2.286
 3994TIP3    H111859   4.056   3.892   2.254
 3994TIP3    H211860   4.140   3.935   2.371
 3995TIP3   OH211861   4.484   4.053   3.051
 3995TIP3    H111862   4.472   3.976   2.992
 3995TIP3    H211863   4.465   4.128   2.991
 3996TIP3   OH211864   3.774   3.444   2.307
 3996TIP3    H111865   3.694   3.497   2.287
 3996TIP3    H211866   3.820   3.445   2.222
 3997TIP3   OH211867   3.734   3.230   2.025
 3997TIP3    H111868   3.801   3.281   2.074
 3997TIP3    H211869   3.792   3.167   1.978
 3998TIP3   OH211870   4.678   3.687   2.894
 3998TIP3    H111871   4.596   3.741   2.901
 3998TIP3    H211872   4.709   3.714   2.805
 3999TIP3   OH211873   4.122   3.528   2.280
 3999TIP3    H111874   4.067   3.554   2.358
 3999TIP3    H211875   4.206   3.504   2.325
 4000TIP3   OH211876   4.358   3.569   3.190
 4000TIP3    H111877   4.354   3.654   3.238
 4000TIP3    H211878   4.270   3.571   3.146
 4001TIP3   OH211879   3.355   3.527   2.697
 4001TIP3    H111880   3.315   3.469   2.629
 4001TIP3    H211881   3.433   3.475   2.724
 4002TIP3   OH211882   3.484   3.936   2.846
 4002TIP3    H111883   3.465   3.895   2.761
 4002TIP3    H211884   3.574   3.904   2.865
 4003TIP3   OH211885   3.494   3.495   3.045
 4003TIP3    H111886   3.530   3.483   2.955
 4003TIP3    H211887   3.534   3.581   3.074
 4004TIP3   OH211888   4.018   4.135   2.828
 4004TIP3    H111889   4.003   4.216   2.880
 4004TIP3    H211890   4.002   4.063   2.892
 4005TIP3   OH211891   3.629   4.054   3.376
 4005TIP3    H111892   3.567   4.117   3.420
 4005TIP3    H211893   3.565   4.001   3.325
 4006TIP3   OH211894   3.965   3.385   2.106
 4006TIP3    H111895   4.022   3.446   2.158
 4006TIP3    H211896   3.991   3.410   2.014
 4007TIP3   OH211897   3.334   3.653   3.426
 4007TIP3    H111898   3.382   3.701   3.496
 4007TIP3    H211899   3.265   3.608   3.477
 4008TIP3   OH211900   3.706   4.066   2.380
 4008TIP3    H111901   3.783   4.122   2.401
 4008TIP3    H211902   3.643   4.131   2.344
 4009TIP3   OH211903   3.423   4.223   3.461
 4009TIP3    H111904   3.388   4.223   3.370
 4009TIP3    H211905   3.344   4.199   3.514
 4010TIP3   OH211906   4.479   2.628   2.154
 4010TIP3    H111907   4.398   2.648   2.205
 4010TIP3    H211908   4.492   2.712   2.105
 4011TIP3   OH211909   3.222   3.368   2.499
 4011TIP3    H111910   3.157   3.416   2.444
 4011TIP3    H211911   3.177   3.284   2.513
 4012TIP3   OH211912   4.276   3.996   1.699
 4012TIP3    H111913   4.284   4.093   1.689
 4012TIP3    H211914   4.369   3.968   1.689
 4013TIP3   OH211915   3.000   3.757   3.408
 4013TIP3    H111916   2.936   3.737   3.337
 4013TIP3    H211917   3.037   3.670   3.431
 4014TIP3   OH211918   2.857   3.944   3.046
 4014TIP3    H111919   2.952   3.942   3.032
 4014TIP3    H211920   2.846   4.027   3.095
 4015TIP3   OH211921   4.722   4.397   3.097
 4015TIP3    H111922   4.719   4.301   3.111
 4015TIP3    H211923   4.638   4.423   3.142
 4016TIP3   OH211924   3.827   4.183   3.232
 4016TIP3    H111925   3.827   4.276   3.263
 4016TIP3    H211926   3.755   4.145   3.286
 4017TIP3   OH211927   3.588   4.313   2.183
 4017TIP3    H111928   3.540   4.299   2.100
 4017TIP3    H211929   3.556   4.401   2.211
 4018TIP3   OH211930   3.025   4.162   2.566
 4018TIP3    H111931   3.075   4.153   2.650
 4018TIP3    H211932   2.961   4.089   2.576
 4019TIP3   OH211933   3.788   4.213   1.823
 4019TIP3    H111934   3.848   4.144   1.788
 4019TIP3    H211935   3.822   4.224   1.914
 4020TIP3   OH211936   3.838   4.258   2.093
 4020TIP3    H111937   3.750   4.271   2.135
 4020TIP3    H211938   3.889   4.223   2.168
 4021TIP3   OH211939   4.610   3.528   3.372
 4021TIP3    H111940   4.530   3.543   3.320
 4021TIP3    H211941   4.624   3.432   3.360
 4022TIP3   OH211942   3.207   3.939   3.399
 4022TIP3    H111943   3.260   3.914   3.478
 4022TIP3    H211944   3.136   3.872   3.401
 4023TIP3   OH211945   3.608   2.757   3.183
 4023TIP3    H111946   3.517   2.734   3.158
 4023TIP3    H211947   3.591   2.843   3.227
 4024TIP3   OH211948   4.140   2.874   3.376
 4024TIP3    H111949   4.208   2.848   3.441
 4024TIP3    H211950   4.056   2.854   3.422
 4025TIP3   OH211951   4.381   3.305   3.294
 4025TIP3    H111952   4.331   3.302   3.378
 4025TIP3    H211953   4.355   3.392   3.257
 4026TIP3   OH211954   4.040   3.431   1.850
 4026TIP3    H111955   4.007   3.408   1.761
 4026TIP3    H211956   4.117   3.486   1.827
 4027TIP3   OH211957   3.753   2.809   2.152
 4027TIP3    H111958   3.720   2.807   2.244
 4027TIP3    H211959   3.713   2.726   2.119
 4028TIP3   OH211960   3.534   3.276   3.201
 4028TIP3    H111961   3.495   3.306   3.286
 4028TIP3    H211962   3.520   3.357   3.145
 4029TIP3   OH211963   3.423   3.160   2.714
 4029TIP3    H111964   3.329   3.137   2.731
 4029TIP3    H211965   3.435   3.120   2.625
 4030TIP3   OH211966   3.912   3.246   2.440
 4030TIP3    H111967   3.859   3.319   2.400
 4030TIP3    H211968   3.967   3.218   2.364
 4031TIP3   OH211969   4.091   3.528   3.527
 4031TIP3    H111970   4.067   3.455   3.588
 4031TIP3    H211971   4.186   3.538   3.548
 4032TIP3   OH211972   4.070   3.276   2.681
 4032TIP3    H111973   4.010   3.308   2.611
 4032TIP3    H211974   4.102   3.194   2.637
 4033TIP3   OH211975   3.369   3.319   3.426
 4033TIP3    H111976   3.430   3.366   3.488
 4033TIP3    H211977   3.359   3.235   3.473
 4034TIP3   OH211978   3.407   2.781   2.118
 4034TIP3    H111979   3.399   2.781   2.216
 4034TIP3    H211980   3.329   2.834   2.093
 4035TIP3   OH211981   2.951   2.827   2.988
 4035TIP3    H111982   3.024   2.861   3.044
 4035TIP3    H211983   2.997   2.799   2.908
 4036TIP3   OH211984   2.925   2.807   2.508
 4036TIP3    H111985   2.971   2.844   2.430
 4036TIP3    H211986   2.866   2.882   2.528
 4037TIP3   OH211987   4.085   3.524   3.101
 4037TIP3    H111988   4.116   3.449   3.046
 4037TIP3    H211989   4.050   3.475   3.179
 4038TIP3   OH211990   3.748   2.981   2.775
 4038TIP3    H111991   3.666   2.982   2.828
 4038TIP3    H211992   3.815   2.987   2.845
 4039TIP3   OH211993   3.183   3.039   2.784
 4039TIP3    H111994   3.088   3.046   2.757
 4039TIP3    H211995   3.207   2.949   2.758
 4040TIP3   OH211996   3.454   3.034   2.471
 4040TIP3    H111997   3.548   3.052   2.450
 4040TIP3    H211998   3.407   3.059   2.388
 4041TIP3   OH211999   4.242   3.057   2.973
 4041TIP3    H112000   4.211   3.071   3.065
 4041TIP3    H212001   4.173   2.997   2.939
 4042TIP3   OH212002   3.294   3.067   2.251
 4042TIP3    H112003   3.222   3.024   2.201
 4042TIP3    H212004   3.346   3.105   2.177
 4043TIP3   OH212005   4.411   4.747   3.195
 4043TIP3    H112006   4.408   4.772   3.101
 4043TIP3    H212007   4.488   4.798   3.227
 4044TIP3   OH212008   3.364   3.857   3.628
 4044TIP3    H112009   3.450   3.883   3.666
 4044TIP3    H212010   3.304   3.884   3.700
 4045TIP3   OH212011   3.832   3.310   2.873
 4045TIP3    H112012   3.908   3.272   2.826
 4045TIP3    H212013   3.841   3.272   2.962
 4046TIP3   OH212014   3.355   2.801   2.749
 4046TIP3    H112015   3.324   2.720   2.794
 4046TIP3    H212016   3.407   2.765   2.676
 4047TIP3   OH212017   3.808   3.213   3.162
 4047TIP3    H112018   3.719   3.249   3.179
 4047TIP3    H212019   3.866   3.272   3.215
 4048TIP3   OH212020   3.547   3.599   2.258
 4048TIP3    H112021   3.474   3.535   2.246
 4048TIP3    H212022   3.528   3.633   2.348
 4049TIP3   OH212023   4.447   3.835   2.887
 4049TIP3    H112024   4.471   3.885   2.806
 4049TIP3    H212025   4.361   3.794   2.863
 4050TIP3   OH212026   4.004   2.912   2.116
 4050TIP3    H112027   3.908   2.896   2.126
 4050TIP3    H212028   4.014   3.006   2.142
 4051TIP3   OH212029   3.955   3.924   3.252
 4051TIP3    H112030   3.955   3.887   3.340
 4051TIP3    H212031   3.908   4.008   3.263
 4052TIP3   OH212032   4.074   3.158   2.221
 4052TIP3    H112033   4.170   3.166   2.238
 4052TIP3    H212034   4.055   3.239   2.170
 4053TIP3   OH212035   3.233   3.615   2.936
 4053TIP3    H112036   3.276   3.590   2.851
 4053TIP3    H212037   3.282   3.560   3.000
 4054TIP3   OH212038   3.690   3.749   2.077
 4054TIP3    H112039   3.643   3.835   2.082
 4054TIP3    H212040   3.636   3.694   2.138
 4055TIP3   OH212041   3.100   3.540   3.561
 4055TIP3    H112042   3.139   3.478   3.623
 4055TIP3    H212043   3.040   3.483   3.509
 4056TIP3   OH212044   3.841   3.658   3.576
 4056TIP3    H112045   3.770   3.598   3.545
 4056TIP3    H212046   3.918   3.622   3.528
 4057TIP3   OH212047   4.108   4.178   3.149
 4057TIP3    H112048   4.012   4.173   3.162
 4057TIP3    H212049   4.134   4.230   3.228
 4058TIP3   OH212050   4.517   3.248   2.058
 4058TIP3    H112051   4.455   3.204   1.996
 4058TIP3    H212052   4.513   3.338   2.019
 4059TIP3   OH212053   4.734   4.105   3.140
 4059TIP3    H112054   4.636   4.101   3.131
 4059TIP3    H212055   4.760   4.076   3.050
 4060TIP3   OH212056   4.217   4.068   1.966
 4060TIP3    H112057   4.189   4.002   2.030
 4060TIP3    H212058   4.227   4.018   1.883
 4061TIP3   OH212059   4.212   3.697   2.806
 4061TIP3    H112060   4.119   3.672   2.820
 4061TIP3    H212061   4.246   3.618   2.760
 4062TIP3   OH212062   3.338   3.923   2.555
 4062TIP3    H112063   3.340   4.007   2.504
 4062TIP3    H212064   3.244   3.912   2.568
 4063TIP3   OH212065   2.904   3.229   2.262
 4063TIP3    H112066   2.949   3.314   2.281
 4063TIP3    H212067   2.825   3.236   2.321
 4064TIP3   OH212068   3.479   3.691   2.502
 4064TIP3    H112069   3.443   3.781   2.519
 4064TIP3    H212070   3.442   3.642   2.578
 4065TIP3   OH212071   3.607   4.269   3.028
 4065TIP3    H112072   3.647   4.342   2.976
 4065TIP3    H212073   3.685   4.236   3.075
 4066TIP3   OH212074   3.260   4.161   2.411
 4066TIP3    H112075   3.174   4.174   2.455
 4066TIP3    H212076   3.296   4.253   2.413
 4067TIP3   OH212077   3.997   3.901   2.985
 4067TIP3    H112078   3.989   3.904   3.083
 4067TIP3    H212079   4.078   3.850   2.974
 4068TIP3   OH212080   3.970   3.793   1.867
 4068TIP3    H112081   4.023   3.768   1.947
 4068TIP3    H212082   3.881   3.771   1.898
 4069TIP3   OH212083   4.246   4.437   3.035
 4069TIP3    H112084   4.166   4.381   3.028
 4069TIP3    H212085   4.231   4.502   2.963
 4070TIP3   OH212086   4.310   4.271   1.689
 4070TIP3    H112087   4.347   4.346   1.639
 4070TIP3    H212088   4.229   4.315   1.723
 4071TIP3   OH212089   3.330   3.040   3.556
 4071TIP3    H112090   3.235   3.054   3.572
 4071TIP3    H212091   3.356   2.984   3.632
 4072TIP3   OH212092   4.130   3.725   2.082
 4072TIP3    H112093   4.121   3.662   2.156
 4072TIP3    H212094   4.228   3.727   2.073
 4073TIP3   OH212095   3.046   4.131   3.188
 4073TIP3    H112096   3.101   4.058   3.220
 4073TIP3    H212097   3.076   4.204   3.243
 4074TIP3   OH212098   3.338   3.776   1.867
 4074TIP3    H112099   3.351   3.683   1.840
 4074TIP3    H212100   3.319   3.765   1.963
 4075TIP3   OH212101   3.284   3.781   2.139
 4075TIP3    H112102   3.353   3.756   2.202
 4075TIP3    H212103   3.286   3.879   2.146
 4076TIP3   OH212104   3.018   3.476   2.344
 4076TIP3    H112105   2.952   3.521   2.401
 4076TIP3    H212106   3.033   3.545   2.276
 4077TIP3   OH212107   4.172   3.106   3.231
 4077TIP3    H112108   4.247   3.149   3.276
 4077TIP3    H212109   4.154   3.029   3.288
 4078TIP3   OH212110   4.048   2.863   2.399
 4078TIP3    H112111   4.033   2.888   2.306
 4078TIP3    H212112   4.086   2.945   2.436
 4079TIP3   OH212113   3.547   3.978   2.087
 4079TIP3    H112114   3.461   4.005   2.125
 4079TIP3    H212115   3.566   4.056   2.031
 4080TIP3   OH212116   3.738   3.041   2.502
 4080TIP3    H112117   3.801   3.114   2.485
 4080TIP3    H212118   3.742   3.035   2.600
 4081TIP3   OH212119   4.008   3.361   3.306
 4081TIP3    H112120   4.015   3.422   3.382
 4081TIP3    H212121   4.065   3.287   3.333
 4082TIP3   OH212122   3.881   2.770   2.606
 4082TIP3    H112123   3.872   2.847   2.665
 4082TIP3    H212124   3.942   2.807   2.537
 4083TIP3   OH212125   3.290   4.053   2.156
 4083TIP3    H112126   3.261   4.123   2.093
 4083TIP3    H212127   3.275   4.097   2.243
 4084TIP3   OH212128   3.392   2.767   2.396
 4084TIP3    H112129   3.390   2.859   2.430
 4084TIP3    H212130   3.488   2.749   2.403
 4085TIP3   OH212131   4.648   3.259   3.293
 4085TIP3    H112132   4.549   3.258   3.299
 4085TIP3    H212133   4.660   3.227   3.203
 4086TIP3   OH212134   4.298   3.455   2.678
 4086TIP3    H112135   4.221   3.397   2.693
 4086TIP3    H212136   4.369   3.408   2.727
 4087TIP3   OH212137   3.008   3.685   2.150
 4087TIP3    H112138   3.070   3.759   2.159
 4087TIP3    H212139   3.056   3.633   2.082
 4088TIP3   OH212140   2.954   2.959   2.285
 4088TIP3    H112141   2.955   3.057   2.280
 4088TIP3    H212142   2.874   2.939   2.235
 4089TIP3   OH212143   4.266   4.409   2.629
 4089TIP3    H112144   4.222   4.456   2.555
 4089TIP3    H212145   4.360   4.428   2.607
 4090TIP3   OH212146   3.341   2.680   3.155
 4090TIP3    H112147   3.311   2.652   3.066
 4090TIP3    H212148   3.328   2.599   3.207
 4091TIP3   OH212149   2.879   3.891   2.538
 4091TIP3    H112150   2.808   3.929   2.592
 4091TIP3    H212151   2.861   3.935   2.452
 4092TIP3   OH212152   3.036   4.438   3.610
 4092TIP3    H112153   3.123   4.439   3.656
 4092TIP3    H212154   3.016   4.343   3.607
 4093TIP3   OH212155   3.519   4.403   3.656
 4093TIP3    H112156   3.615   4.388   3.658
 4093TIP3    H212157   3.493   4.347   3.580
 4094TIP3   OH212158   3.499   3.980   1.779
 4094TIP3    H112159   3.443   3.911   1.819
 4094TIP3    H212160   3.575   3.927   1.751
 4095TIP3   OH212161   4.158   4.312   3.386
 4095TIP3    H112162   4.150   4.242   3.455
 4095TIP3    H212163   4.235   4.363   3.416
 4096TIP3   OH212164   3.937   4.020   1.691
 4096TIP3    H112165   3.982   3.959   1.751
 4096TIP3    H212166   3.996   4.023   1.614
 4097TIP3   OH212167   3.157   3.847   3.817
 4097TIP3    H112168   3.177   3.760   3.780
 4097TIP3    H212169   3.071   3.865   3.774
 4098TIP3   OH212170   3.145   3.497   2.001
 4098TIP3    H112171   3.200   3.466   2.074
 4098TIP3    H212172   3.212   3.502   1.929
 4099TIP3   OH212173   3.776   3.932   3.582
 4099TIP3    H112174   3.733   3.947   3.495
 4099TIP3    H212175   3.805   3.838   3.575
 4100TIP3   OH212176   3.654   3.696   1.807
 4100TIP3    H112177   3.656   3.709   1.904
 4100TIP3    H212178   3.652   3.598   1.803
 4101TIP3   OH212179   4.270   3.936   3.189
 4101TIP3    H112180   4.341   3.986   3.144
 4101TIP3    H212181   4.195   3.998   3.178
 4102TIP3   OH212182   3.354   3.401   2.224
 4102TIP3    H112183   3.326   3.360   2.308
 4102TIP3    H212184   3.389   3.324   2.174
 4103TIP3   OH212185   3.453   3.192   2.065
 4103TIP3    H112186   3.426   3.197   1.971
 4103TIP3    H212187   3.550   3.200   2.057
 4104TIP3   OH212188   4.144   3.871   3.592
 4104TIP3    H112189   4.215   3.844   3.533
 4104TIP3    H212190   4.134   3.794   3.650
 4105TIP3   OH212191   4.279   3.526   1.725
 4105TIP3    H112192   4.253   3.480   1.643
 4105TIP3    H212193   4.245   3.616   1.703
 4106TIP3   OH212194   3.755   3.010   3.358
 4106TIP3    H112195   3.776   3.078   3.291
 4106TIP3    H212196   3.657   3.015   3.361
 4107TIP3   OH212197   3.803   3.593   3.264
 4107TIP3    H112198   3.861   3.596   3.188
 4107TIP3    H212199   3.724   3.640   3.231
 4108TIP3   OH212200   4.359   3.543   3.642
 4108TIP3    H112201   4.409   3.460   3.645
 4108TIP3    H212202   4.424   3.605   3.606
 4109TIP3   OH212203   4.399   3.796   3.379
 4109TIP3    H112204   4.341   3.848   3.319
 4109TIP3    H212205   4.486   3.816   3.338
 4110TIP3   OH212206   3.883   2.795   3.455
 4110TIP3    H112207   3.838   2.877   3.422
 4110TIP3    H212208   3.813   2.729   3.441
 4111TIP3   OH212209   4.006   3.309   3.666
 4111TIP3    H112210   3.991   3.297   3.761
 4111TIP3    H212211   3.915   3.297   3.633
 4112TIP3   OH212212   4.245   3.255   3.522
 4112TIP3    H112213   4.170   3.259   3.583
 4112TIP3    H212214   4.318   3.226   3.580
 4113TIP3   OH212215   4.475   3.197   3.675
 4113TIP3    H112216   4.487   3.101   3.693
 4113TIP3    H212217   4.471   3.236   3.765
 4114TIP3   OH212218   3.444   3.141   3.889
 4114TIP3    H112219   3.492   3.109   3.812
 4114TIP3    H212220   3.503   3.117   3.963
 4115TIP3   OH212221   3.974   2.811   3.712
 4115TIP3    H112222   4.042   2.742   3.704
 4115TIP3    H212223   3.934   2.807   3.623
 4116TIP3   OH212224   4.040   3.026   3.870
 4116TIP3    H112225   4.018   2.955   3.806
 4116TIP3    H212226   3.964   3.088   3.860
 4117TIP3   OH212227   3.259   4.251   1.966
 4117TIP3    H112228   3.355   4.252   1.949
 4117TIP3    H212229   3.229   4.306   1.890
 4118TIP3   OH212230   2.740   3.637   2.186
 4118TIP3    H112231   2.835   3.660   2.172
 4118TIP3    H212232   2.736   3.549   2.144
 4119TIP3   OH212233   2.653   4.249   2.597
 4119TIP3    H112234   2.586   4.186   2.562
 4119TIP3    H212235   2.698   4.193   2.663
 4120TIP3   OH212236   2.792   4.102   2.783
 4120TIP3    H112237   2.780   4.030   2.847
 4120TIP3    H212238   2.843   4.165   2.837
 4121TIP3   OH212239   4.520   4.497   2.585
 4121TIP3    H112240   4.543   4.535   2.672
 4121TIP3    H212241   4.572   4.553   2.525
 4122TIP3   OH212242   4.547   4.523   2.867
 4122TIP3    H112243   4.504   4.435   2.862
 4122TIP3    H212244   4.622   4.502   2.925
 4123TIP3   OH212245   4.596   4.199   3.441
 4123TIP3    H112246   4.521   4.208   3.503
 4123TIP3    H212247   4.636   4.288   3.443
 4124TIP3   OH212248   4.411   3.712   2.060
 4124TIP3    H112249   4.479   3.777   2.033
 4124TIP3    H212250   4.454   3.673   2.140
 4125TIP3   OH212251   4.538   3.579   2.263
 4125TIP3    H112252   4.472   3.538   2.323
 4125TIP3    H212253   4.602   3.619   2.326
 4126TIP3   OH212254   4.592   3.971   2.697
 4126TIP3    H112255   4.644   3.908   2.644
 4126TIP3    H212256   4.583   4.047   2.636
 4127TIP3   OH212257   4.424   4.272   2.892
 4127TIP3    H112258   4.352   4.316   2.943
 4127TIP3    H212259   4.373   4.225   2.822
 4128TIP3   OH212260   4.476   3.487   1.911
 4128TIP3    H112261   4.405   3.491   1.843
 4128TIP3    H212262   4.450   3.563   1.967
 4129TIP3   OH212263   4.350   3.159   1.864
 4129TIP3    H112264   4.302   3.201   1.791
 4129TIP3    H212265   4.323   3.065   1.853
 4130TIP3   OH212266   4.353   3.436   2.411
 4130TIP3    H112267   4.360   3.339   2.407
 4130TIP3    H212268   4.339   3.452   2.507
 4131TIP3   OH212269   2.981   3.506   3.157
 4131TIP3    H112270   2.977   3.481   3.063
 4131TIP3    H212271   3.078   3.507   3.172
 4132TIP3   OH212272   4.641   3.861   3.268
 4132TIP3    H112273   4.714   3.796   3.258
 4132TIP3    H212274   4.666   3.931   3.206
 4133TIP3   OH212275   4.826   3.667   3.285
 4133TIP3    H112276   4.752   3.616   3.325
 4133TIP3    H212277   4.899   3.603   3.298
 4134TIP3   OH212278   4.292   2.893   1.849
 4134TIP3    H112279   4.365   2.864   1.907
 4134TIP3    H212280   4.217   2.836   1.876
 4135TIP3   OH212281   4.348   3.152   2.307
 4135TIP3    H112282   4.389   3.063   2.321
 4135TIP3    H212283   4.407   3.186   2.237
 4136TIP3   OH212284   4.511   3.326   2.801
 4136TIP3    H112285   4.597   3.353   2.761
 4136TIP3    H212286   4.523   3.364   2.890
 4137TIP3   OH212287   4.578   3.470   3.033
 4137TIP3    H112288   4.500   3.505   3.081
 4137TIP3    H212289   4.610   3.551   2.988
 4138TIP3   OH212290   3.190   3.193   3.828
 4138TIP3    H112291   3.289   3.190   3.836
 4138TIP3    H212292   3.170   3.108   3.872
 4139TIP3   OH212293   5.032   3.060   3.590
 4139TIP3    H112294   5.090   2.995   3.544
 4139TIP3    H212295   5.001   3.116   3.515
 4140TIP3   OH212296   4.458   2.901   2.342
 4140TIP3    H112297   4.506   2.886   2.427
 4140TIP3    H212298   4.397   2.825   2.342
 4141TIP3   OH212299   3.157   2.888   3.163
 4141TIP3    H112300   3.221   2.816   3.173
 4141TIP3    H212301   3.217   2.965   3.156
 4142TIP3   OH212302   2.960   3.164   3.236
 4142TIP3    H112303   3.010   3.157   3.152
 4142TIP3    H212304   2.992   3.249   3.269
 4143TIP3   OH212305   4.901   3.200   3.398
 4143TIP3    H112306   4.815   3.242   3.416
 4143TIP3    H212307   4.873   3.130   3.336
 4144TIP3   OH212308   4.539   2.838   1.976
 4144TIP3    H112309   4.579   2.766   1.924
 4144TIP3    H212310   4.606   2.909   1.969
 4145TIP3   OH212311   2.944   2.665   2.734
 4145TIP3    H112312   2.851   2.670   2.759
 4145TIP3    H212313   2.948   2.724   2.655
 4146TIP3   OH212314   4.105   4.366   2.243
 4146TIP3    H112315   4.155   4.357   2.160
 4146TIP3    H212316   4.150   4.440   2.286
 4147TIP3   OH212317   3.157   2.735   3.546
 4147TIP3    H112318   3.113   2.742   3.632
 4147TIP3    H212319   3.096   2.785   3.489
 4148TIP3   OH212320   3.206   4.166   3.632
 4148TIP3    H112321   3.114   4.144   3.611
 4148TIP3    H212322   3.206   4.165   3.729
 4149TIP3   OH212323   3.380   4.205   3.176
 4149TIP3    H112324   3.333   4.281   3.137
 4149TIP3    H212325   3.466   4.218   3.131
 4150TIP3   OH212326   3.827   4.449   3.314
 4150TIP3    H112327   3.869   4.453   3.402
 4150TIP3    H212328   3.892   4.500   3.261
 4151TIP3   OH212329   4.006   4.600   3.173
 4151TIP3    H112330   4.077   4.551   3.130
 4151TIP3    H212331   4.057   4.658   3.233
 4152TIP3   OH212332   4.800   2.965   3.272
 4152TIP3    H112333   4.709   2.962   3.237
 4152TIP3    H212334   4.828   2.871   3.259
 4153TIP3   OH212335   3.057   4.459   3.202
 4153TIP3    H112336   2.970   4.494   3.175
 4153TIP3    H212337   3.068   4.504   3.286
 4154TIP3   OH212338   3.294   4.439   3.056
 4154TIP3    H112339   3.207   4.454   3.101
 4154TIP3    H212340   3.275   4.475   2.967
 4155TIP3   OH212341   3.721   4.470   2.855
 4155TIP3    H112342   3.651   4.489   2.790
 4155TIP3    H212343   3.733   4.558   2.896
 4156TIP3   OH212344   3.989   4.409   2.905
 4156TIP3    H112345   3.894   4.426   2.887
 4156TIP3    H212346   4.030   4.486   2.863
 4157TIP3   OH212347   4.198   4.602   2.822
 4157TIP3    H112348   4.182   4.687   2.775
 4157TIP3    H212349   4.221   4.543   2.747
 4158TIP3   OH212350   2.968   4.255   2.943
 4158TIP3    H112351   2.995   4.231   3.034
 4158TIP3    H212352   3.041   4.213   2.893
 4159TIP3   OH212353   3.162   4.127   2.800
 4159TIP3    H112354   3.180   4.044   2.849
 4159TIP3    H212355   3.252   4.166   2.795
 4160TIP3   OH212356   3.426   4.221   2.804
 4160TIP3    H112357   3.461   4.130   2.793
 4160TIP3    H212358   3.471   4.246   2.887
 4161TIP3   OH212359   4.007   2.880   2.891
 4161TIP3    H112360   3.962   2.812   2.944
 4161TIP3    H212361   4.078   2.830   2.847
 4162TIP3   OH212362   4.530   2.757   2.796
 4162TIP3    H112363   4.565   2.811   2.722
 4162TIP3    H212364   4.434   2.777   2.791
 4163TIP3   OH212365   4.624   2.859   2.560
 4163TIP3    H112366   4.698   2.809   2.519
 4163TIP3    H212367   4.656   2.951   2.546
 4164TIP3   OH212368   3.253   2.588   2.908
 4164TIP3    H112369   3.161   2.555   2.908
 4164TIP3    H212370   3.302   2.503   2.904
 4165TIP3   OH212371   3.040   2.456   2.553
 4165TIP3    H112372   3.071   2.515   2.482
 4165TIP3    H212373   3.012   2.521   2.621
 4166TIP3   OH212374   3.697   2.619   2.789
 4166TIP3    H112375   3.754   2.670   2.729
 4166TIP3    H212376   3.717   2.660   2.874
 4167TIP3   OH212377   4.247   2.766   2.772
 4167TIP3    H112378   4.241   2.730   2.683
 4167TIP3    H212379   4.231   2.685   2.827
 4168TIP3   OH212380   4.274   2.689   2.334
 4168TIP3    H112381   4.188   2.732   2.346
 4168TIP3    H212382   4.259   2.604   2.381
 4169TIP3   OH212383   2.757   4.028   2.338
 4169TIP3    H112384   2.672   3.996   2.302
 4169TIP3    H212385   2.748   4.123   2.321
 4170TIP3   OH212386   3.157   2.614   2.323
 4170TIP3    H112387   3.206   2.555   2.262
 4170TIP3    H212388   3.229   2.671   2.356
 4171TIP3   OH212389   3.670   2.791   2.418
 4171TIP3    H112390   3.731   2.746   2.479
 4171TIP3    H212391   3.690   2.884   2.442
 4172TIP3   OH212392   3.529   4.217   1.917
 4172TIP3    H112393   3.617   4.240   1.882
 4172TIP3    H212394   3.507   4.142   1.858
 4173TIP3   OH212395   4.249   4.336   2.009
 4173TIP3    H112396   4.239   4.239   1.995
 4173TIP3    H212397   4.201   4.371   1.931
 4174TIP3   OH212398   3.461   2.847   3.786
 4174TIP3    H112399   3.428   2.790   3.857
 4174TIP3    H212400   3.550   2.868   3.820
 4175TIP3   OH212401   3.708   2.869   3.921
 4175TIP3    H112402   3.791   2.846   3.878
 4175TIP3    H212403   3.698   2.796   3.985
 4176TIP3   OH212404   2.832   4.053   1.974
 4176TIP3    H112405   2.832   4.084   2.066
 4176TIP3    H212406   2.921   4.014   1.964
 4177TIP3   OH212407   4.536   2.926   3.706
 4177TIP3    H112408   4.555   2.895   3.797
 4177TIP3    H212409   4.624   2.922   3.663
 4178TIP3   OH212410   4.475   4.479   3.198
 4178TIP3    H112411   4.396   4.448   3.149
 4178TIP3    H212412   4.456   4.575   3.200
 4179TIP3   OH212413   5.742   3.851   1.962
 4179TIP3    H112414   5.715   3.944   1.945
 4179TIP3    H212415   5.662   3.804   1.935
 4180TIP3   OH212416   5.742   3.849   2.343
 4180TIP3    H112417   5.771   3.824   2.433
 4180TIP3    H212418   5.696   3.769   2.314
 4181TIP3   OH212419   5.041   3.746   2.708
 4181TIP3    H112420   5.070   3.679   2.773
 4181TIP3    H212421   5.116   3.808   2.710
 4182TIP3   OH212422   5.983   4.153   2.026
 4182TIP3    H112423   5.968   4.085   2.093
 4182TIP3    H212424   6.010   4.229   2.080
 4183TIP3   OH212425   5.010   4.156   2.434
 4183TIP3    H112426   5.000   4.058   2.438
 4183TIP3    H212427   5.107   4.164   2.433
 4184TIP3   OH212428   4.718   3.360   2.220
 4184TIP3    H112429   4.671   3.443   2.237
 4184TIP3    H212430   4.646   3.306   2.183
 4185TIP3   OH212431   4.776   3.647   2.391
 4185TIP3    H112432   4.826   3.571   2.429
 4185TIP3    H212433   4.837   3.678   2.322
 4186TIP3   OH212434   5.631   4.616   2.041
 4186TIP3    H112435   5.679   4.543   1.996
 4186TIP3    H212436   5.622   4.582   2.130
 4187TIP3   OH212437   5.539   4.078   2.391
 4187TIP3    H112438   5.577   4.001   2.346
 4187TIP3    H212439   5.623   4.122   2.417
 4188TIP3   OH212440   6.552   3.398   2.391
 4188TIP3    H112441   6.580   3.480   2.436
 4188TIP3    H212442   6.570   3.421   2.298
 4189TIP3   OH212443   5.952   3.580   2.426
 4189TIP3    H112444   5.993   3.493   2.447
 4189TIP3    H212445   5.920   3.563   2.335
 4190TIP3   OH212446   5.289   3.238   2.391
 4190TIP3    H112447   5.267   3.311   2.329
 4190TIP3    H212448   5.240   3.165   2.347
 4191TIP3   OH212449   5.982   3.327   2.014
 4191TIP3    H112450   6.054   3.312   2.080
 4191TIP3    H212451   6.034   3.365   1.941
 4192TIP3   OH212452   4.922   3.441   2.498
 4192TIP3    H112453   5.004   3.421   2.546
 4192TIP3    H212454   4.935   3.384   2.419
 4193TIP3   OH212455   5.364   3.638   2.286
 4193TIP3    H112456   5.457   3.612   2.303
 4193TIP3    H212457   5.324   3.554   2.257
 4194TIP3   OH212458   6.624   3.605   2.561
 4194TIP3    H112459   6.540   3.653   2.542
 4194TIP3    H212460   6.638   3.631   2.653
 4195TIP3   OH212461   5.285   3.221   2.825
 4195TIP3    H112462   5.225   3.259   2.758
 4195TIP3    H212463   5.234   3.239   2.907
 4196TIP3   OH212464   5.638   4.076   1.830
 4196TIP3    H112465   5.587   4.051   1.752
 4196TIP3    H212466   5.593   4.159   1.856
 4197TIP3   OH212467   5.391   3.997   2.621
 4197TIP3    H112468   5.327   4.061   2.661
 4197TIP3    H212469   5.432   4.050   2.551
 4198TIP3   OH212470   6.195   3.330   2.185
 4198TIP3    H112471   6.177   3.286   2.270
 4198TIP3    H212472   6.246   3.408   2.213
 4199TIP3   OH212473   5.155   3.336   2.610
 4199TIP3    H112474   5.216   3.410   2.634
 4199TIP3    H212475   5.206   3.296   2.535
 4200TIP3   OH212476   5.218   4.190   2.717
 4200TIP3    H112477   5.192   4.277   2.680
 4200TIP3    H212478   5.140   4.174   2.775
 4201TIP3   OH212479   4.617   3.880   1.954
 4201TIP3    H112480   4.572   3.909   1.873
 4201TIP3    H212481   4.645   3.966   1.992
 4202TIP3   OH212482   6.054   4.395   2.193
 4202TIP3    H112483   5.965   4.387   2.234
 4202TIP3    H212484   6.046   4.482   2.149
 4203TIP3   OH212485   6.345   3.296   2.556
 4203TIP3    H112486   6.257   3.327   2.529
 4203TIP3    H212487   6.403   3.329   2.485
 4204TIP3   OH212488   5.643   2.942   2.539
 4204TIP3    H112489   5.628   2.847   2.556
 4204TIP3    H212490   5.565   2.980   2.586
 4205TIP3   OH212491   5.759   4.442   1.870
 4205TIP3    H112492   5.809   4.360   1.848
 4205TIP3    H212493   5.819   4.508   1.828
 4206TIP3   OH212494   5.902   4.226   1.772
 4206TIP3    H112495   5.849   4.151   1.744
 4206TIP3    H212496   5.937   4.193   1.858
 4207TIP3   OH212497   6.281   4.311   2.538
 4207TIP3    H112498   6.268   4.232   2.480
 4207TIP3    H212499   6.263   4.384   2.476
 4208TIP3   OH212500   5.570   3.701   1.794
 4208TIP3    H112501   5.489   3.753   1.775
 4208TIP3    H212502   5.616   3.702   1.708
 4209TIP3   OH212503   5.530   3.488   1.510
 4209TIP3    H112504   5.596   3.538   1.562
 4209TIP3    H212505   5.587   3.424   1.464
 4210TIP3   OH212506   6.476   3.945   2.381
 4210TIP3    H112507   6.392   3.997   2.389
 4210TIP3    H212508   6.504   3.971   2.291
 4211TIP3   OH212509   5.919   3.785   1.767
 4211TIP3    H112510   5.864   3.810   1.844
 4211TIP3    H212511   6.002   3.760   1.812
 4212TIP3   OH212512   6.154   3.826   2.677
 4212TIP3    H112513   6.151   3.908   2.731
 4212TIP3    H212514   6.067   3.831   2.633
 4213TIP3   OH212515   5.152   3.784   2.182
 4213TIP3    H112516   5.111   3.726   2.115
 4213TIP3    H212517   5.229   3.730   2.211
 4214TIP3   OH212518   5.283   4.197   2.331
 4214TIP3    H112519   5.260   4.151   2.249
 4214TIP3    H212520   5.372   4.162   2.350
 4215TIP3   OH212521   5.291   3.754   2.536
 4215TIP3    H112522   5.323   3.737   2.446
 4215TIP3    H212523   5.332   3.840   2.559
 4216TIP3   OH212524   5.814   4.392   2.315
 4216TIP3    H112525   5.799   4.472   2.368
 4216TIP3    H212526   5.798   4.319   2.378
 4217TIP3   OH212527   5.424   4.315   2.857
 4217TIP3    H112528   5.364   4.375   2.906
 4217TIP3    H212529   5.358   4.259   2.811
 4218TIP3   OH212530   5.762   3.642   1.593
 4218TIP3    H112531   5.819   3.703   1.645
 4218TIP3    H212532   5.788   3.667   1.501
 4219TIP3   OH212533   5.177   3.870   2.959
 4219TIP3    H112534   5.184   3.955   3.006
 4219TIP3    H212535   5.083   3.849   2.973
 4220TIP3   OH212536   5.503   4.322   1.866
 4220TIP3    H112537   5.579   4.379   1.888
 4220TIP3    H212538   5.439   4.385   1.831
 4221TIP3   OH212539   5.219   4.482   2.950
 4221TIP3    H112540   5.184   4.479   2.859
 4221TIP3    H212541   5.140   4.458   3.003
 4222TIP3   OH212542   6.274   2.885   1.640
 4222TIP3    H112543   6.193   2.904   1.692
 4222TIP3    H212544   6.287   2.969   1.593
 4223TIP3   OH212545   5.019   3.625   1.984
 4223TIP3    H112546   4.952   3.672   1.930
 4223TIP3    H212547   4.974   3.542   2.003
 4224TIP3   OH212548   6.073   4.253   1.184
 4224TIP3    H112549   6.082   4.350   1.175
 4224TIP3    H212550   6.166   4.224   1.175
 4225TIP3   OH212551   4.799   4.011   2.895
 4225TIP3    H112552   4.732   3.989   2.827
 4225TIP3    H212553   4.835   3.923   2.920
 4226TIP3   OH212554   4.652   4.202   2.530
 4226TIP3    H112555   4.748   4.202   2.522
 4226TIP3    H212556   4.636   4.284   2.580
 4227TIP3   OH212557   6.517   4.653   2.583
 4227TIP3    H112558   6.516   4.557   2.598
 4227TIP3    H212559   6.434   4.679   2.630
 4228TIP3   OH212560   5.623   4.441   2.717
 4228TIP3    H112561   5.622   4.533   2.752
 4228TIP3    H212562   5.551   4.400   2.770
 4229TIP3   OH212563   5.385   4.571   1.669
 4229TIP3    H112564   5.336   4.553   1.587
 4229TIP3    H212565   5.351   4.659   1.695
 4230TIP3   OH212566   4.822   4.419   2.053
 4230TIP3    H112567   4.869   4.409   2.139
 4230TIP3    H212568   4.757   4.348   2.061
 4231TIP3   OH212569   5.586   4.471   1.310
 4231TIP3    H112570   5.645   4.401   1.276
 4231TIP3    H212571   5.618   4.480   1.403
 4232TIP3   OH212572   5.635   4.517   1.580
 4232TIP3    H112573   5.546   4.529   1.621
 4232TIP3    H212574   5.684   4.478   1.654
 4233TIP3   OH212575   6.411   3.786   2.856
 4233TIP3    H112576   6.324   3.801   2.814
 4233TIP3    H212577   6.421   3.690   2.848
 4234TIP3   OH212578   5.004   4.193   2.885
 4234TIP3    H112579   5.053   4.176   2.968
 4234TIP3    H212580   4.930   4.129   2.892
 4235TIP3   OH212581   5.404   3.017   2.667
 4235TIP3    H112582   5.314   2.986   2.642
 4235TIP3    H212583   5.379   3.099   2.713
 4236TIP3   OH212584   5.935   3.130   2.861
 4236TIP3    H112585   6.003   3.107   2.928
 4236TIP3    H212586   5.851   3.113   2.908
 4237TIP3   OH212587   6.179   3.564   2.783
 4237TIP3    H112588   6.128   3.557   2.867
 4237TIP3    H212589   6.151   3.651   2.749
 4238TIP3   OH212590   5.835   3.688   1.335
 4238TIP3    H112591   5.803   3.663   1.246
 4238TIP3    H212592   5.912   3.743   1.313
 4239TIP3   OH212593   5.550   3.066   1.639
 4239TIP3    H112594   5.517   3.064   1.731
 4239TIP3    H212595   5.510   2.983   1.606
 4240TIP3   OH212596   5.333   3.531   2.685
 4240TIP3    H112597   5.287   3.555   2.768
 4240TIP3    H212598   5.319   3.613   2.632
 4241TIP3   OH212599   5.218   3.417   2.200
 4241TIP3    H112600   5.125   3.392   2.218
 4241TIP3    H212601   5.231   3.376   2.112
 4242TIP3   OH212602   5.709   3.504   1.928
 4242TIP3    H112603   5.655   3.575   1.887
 4242TIP3    H212604   5.763   3.475   1.851
 4243TIP3   OH212605   5.881   3.783   3.013
 4243TIP3    H112606   5.859   3.712   3.077
 4243TIP3    H212607   5.973   3.803   3.038
 4244TIP3   OH212608   5.867   3.533   2.168
 4244TIP3    H112609   5.806   3.564   2.098
 4244TIP3    H212610   5.898   3.450   2.124
 4245TIP3   OH212611   5.153   3.561   2.896
 4245TIP3    H112612   5.184   3.626   2.961
 4245TIP3    H212613   5.143   3.481   2.950
 4246TIP3   OH212614   5.204   3.038   1.605
 4246TIP3    H112615   5.196   3.036   1.702
 4246TIP3    H212616   5.125   3.091   1.582
 4247TIP3   OH212617   4.746   3.083   2.475
 4247TIP3    H112618   4.821   3.115   2.529
 4247TIP3    H212619   4.789   3.051   2.394
 4248TIP3   OH212620   4.721   3.065   1.994
 4248TIP3    H112621   4.767   3.104   1.917
 4248TIP3    H212622   4.660   3.138   2.016
 4249TIP3   OH212623   5.877   3.780   2.590
 4249TIP3    H112624   5.910   3.707   2.533
 4249TIP3    H212625   5.848   3.729   2.668
 4250TIP3   OH212626   5.544   3.239   2.262
 4250TIP3    H112627   5.461   3.238   2.313
 4250TIP3    H212628   5.611   3.242   2.332
 4251TIP3   OH212629   4.980   3.296   2.270
 4251TIP3    H112630   4.885   3.305   2.243
 4251TIP3    H212631   5.002   3.204   2.247
 4252TIP3   OH212632   5.251   3.291   1.958
 4252TIP3    H112633   5.344   3.309   1.936
 4252TIP3    H212634   5.203   3.315   1.876
 4253TIP3   OH212635   6.038   3.315   2.458
 4253TIP3    H112636   6.009   3.327   2.552
 4253TIP3    H212637   5.968   3.254   2.427
 4254TIP3   OH212638   5.091   3.324   1.738
 4254TIP3    H112639   5.016   3.282   1.692
 4254TIP3    H212640   5.141   3.360   1.662
 4255TIP3   OH212641   6.205   5.006   2.682
 4255TIP3    H112642   6.204   5.029   2.588
 4255TIP3    H212643   6.284   5.054   2.714
 4256TIP3   OH212644   5.166   4.115   3.105
 4256TIP3    H112645   5.246   4.143   3.154
 4256TIP3    H212646   5.101   4.115   3.178
 4257TIP3   OH212647   5.628   3.567   2.359
 4257TIP3    H112648   5.703   3.528   2.312
 4257TIP3    H212649   5.637   3.529   2.448
 4258TIP3   OH212650   5.152   3.056   2.237
 4258TIP3    H112651   5.118   2.977   2.284
 4258TIP3    H212652   5.203   3.017   2.165
 4259TIP3   OH212653   5.606   3.466   2.651
 4259TIP3    H112654   5.516   3.503   2.664
 4259TIP3    H212655   5.663   3.527   2.701
 4260TIP3   OH212656   5.344   3.855   1.745
 4260TIP3    H112657   5.271   3.791   1.733
 4260TIP3    H212658   5.324   3.890   1.835
 4261TIP3   OH212659   6.244   4.092   2.374
 4261TIP3    H112660   6.266   4.142   2.293
 4261TIP3    H212661   6.158   4.051   2.351
 4262TIP3   OH212662   5.799   3.172   1.598
 4262TIP3    H112663   5.704   3.153   1.612
 4262TIP3    H212664   5.810   3.264   1.629
 4263TIP3   OH212665   5.747   4.175   2.741
 4263TIP3    H112666   5.762   4.144   2.831
 4263TIP3    H212667   5.702   4.260   2.754
 4264TIP3   OH212668   5.871   3.414   1.708
 4264TIP3    H112669   5.966   3.421   1.726
 4264TIP3    H212670   5.852   3.496   1.658
 4265TIP3   OH212671   5.034   3.877   2.421
 4265TIP3    H112672   5.073   3.848   2.336
 4265TIP3    H212673   5.074   3.815   2.484
 4266TIP3   OH212674   5.486   4.005   1.563
 4266TIP3    H112675   5.439   4.092   1.570
 4266TIP3    H212676   5.432   3.951   1.625
 4267TIP3   OH212677   4.914   3.799   3.034
 4267TIP3    H112678   4.938   3.785   3.128
 4267TIP3    H212679   4.846   3.732   3.020
 4268TIP3   OH212680   5.636   3.929   3.029
 4268TIP3    H112681   5.584   3.852   3.004
 4268TIP3    H212682   5.726   3.890   3.034
 4269TIP3   OH212683   5.903   4.438   2.635
 4269TIP3    H112684   5.807   4.430   2.649
 4269TIP3    H212685   5.928   4.488   2.716
 4270TIP3   OH212686   6.313   3.504   1.545
 4270TIP3    H112687   6.251   3.460   1.483
 4270TIP3    H212688   6.309   3.594   1.506
 4271TIP3   OH212689   6.531   4.363   2.626
 4271TIP3    H112690   6.433   4.358   2.619
 4271TIP3    H212691   6.556   4.333   2.536
 4272TIP3   OH212692   6.013   4.325   1.452
 4272TIP3    H112693   5.985   4.260   1.519
 4272TIP3    H212694   6.022   4.272   1.372
 4273TIP3   OH212695   6.008   3.955   2.291
 4273TIP3    H112696   5.915   3.929   2.306
 4273TIP3    H212697   6.042   3.874   2.247
 4274TIP3   OH212698   5.134   4.180   2.040
 4274TIP3    H112699   5.133   4.263   1.990
 4274TIP3    H212700   5.040   4.167   2.058
 4275TIP3   OH212701   4.698   3.486   1.748
 4275TIP3    H112702   4.744   3.570   1.768
 4275TIP3    H212703   4.621   3.491   1.808
 4276TIP3   OH212704   5.276   3.948   1.989
 4276TIP3    H112705   5.238   4.037   2.006
 4276TIP3    H212706   5.239   3.898   2.064
 4277TIP3   OH212707   5.404   4.526   2.515
 4277TIP3    H112708   5.445   4.598   2.464
 4277TIP3    H212709   5.480   4.491   2.563
 4278TIP3   OH212710   5.056   4.419   1.897
 4278TIP3    H112711   4.969   4.427   1.943
 4278TIP3    H212712   5.087   4.513   1.900
 4279TIP3   OH212713   5.794   4.159   2.473
 4279TIP3    H112714   5.783   4.159   2.571
 4279TIP3    H212715   5.874   4.106   2.463
 4280TIP3   OH212716   5.767   4.051   1.354
 4280TIP3    H112717   5.819   4.025   1.433
 4280TIP3    H212718   5.677   4.027   1.384
 4281TIP3   OH212719   6.042   4.694   2.524
 4281TIP3    H112720   5.964   4.636   2.518
 4281TIP3    H212721   6.025   4.757   2.451
 4282TIP3   OH212722   6.107   4.532   1.169
 4282TIP3    H112723   6.148   4.615   1.137
 4282TIP3    H212724   6.025   4.570   1.207
 4283TIP3   OH212725   5.127   3.302   3.042
 4283TIP3    H112726   5.032   3.309   3.057
 4283TIP3    H212727   5.155   3.244   3.115
 4284TIP3   OH212728   5.927   3.981   1.567
 4284TIP3    H112729   5.916   3.920   1.643
 4284TIP3    H212730   6.024   3.983   1.560
 4285TIP3   OH212731   4.845   4.388   2.672
 4285TIP3    H112732   4.896   4.313   2.708
 4285TIP3    H212733   4.869   4.458   2.734
 4286TIP3   OH212734   5.135   4.032   1.354
 4286TIP3    H112735   5.147   3.939   1.327
 4286TIP3    H212736   5.116   4.022   1.449
 4287TIP3   OH212737   5.081   4.038   1.625
 4287TIP3    H112738   5.147   4.011   1.691
 4287TIP3    H212739   5.083   4.136   1.633
 4288TIP3   OH212740   4.815   3.732   1.830
 4288TIP3    H112741   4.749   3.776   1.888
 4288TIP3    H212742   4.827   3.802   1.763
 4289TIP3   OH212743   5.969   3.362   2.717
 4289TIP3    H112744   6.039   3.408   2.767
 4289TIP3    H212745   5.949   3.285   2.774
 4290TIP3   OH212746   5.846   3.119   1.885
 4290TIP3    H112747   5.830   3.146   1.793
 4290TIP3    H212748   5.883   3.201   1.924
 4291TIP3   OH212749   5.345   4.236   1.574
 4291TIP3    H112750   5.258   4.261   1.612
 4291TIP3    H212751   5.360   4.312   1.516
 4292TIP3   OH212752   5.535   3.298   1.989
 4292TIP3    H112753   5.598   3.371   1.973
 4292TIP3    H212754   5.537   3.291   2.087
 4293TIP3   OH212755   5.805   3.619   2.798
 4293TIP3    H112756   5.818   3.678   2.875
 4293TIP3    H212757   5.858   3.542   2.822
 4294TIP3   OH212758   5.678   3.027   2.093
 4294TIP3    H112759   5.669   3.104   2.153
 4294TIP3    H212760   5.738   3.064   2.024
 4295TIP3   OH212761   5.088   4.310   1.643
 4295TIP3    H112762   5.057   4.380   1.581
 4295TIP3    H212763   5.071   4.353   1.730
 4296TIP3   OH212764   5.189   3.024   1.881
 4296TIP3    H112765   5.186   3.114   1.918
 4296TIP3    H212766   5.285   3.006   1.890
 4297TIP3   OH212767   6.444   3.515   2.777
 4297TIP3    H112768   6.346   3.516   2.788
 4297TIP3    H212769   6.451   3.478   2.688
 4298TIP3   OH212770   6.094   3.712   2.165
 4298TIP3    H112771   6.017   3.654   2.180
 4298TIP3    H212772   6.165   3.665   2.214
 4299TIP3   OH212773   4.805   3.941   1.637
 4299TIP3    H112774   4.866   4.016   1.647
 4299TIP3    H212775   4.853   3.890   1.569
 4300TIP3   OH212776   4.751   3.217   1.767
 4300TIP3    H112777   4.750   3.315   1.764
 4300TIP3    H212778   4.664   3.195   1.732
 4301TIP3   OH212779   6.062   4.667   2.116
 4301TIP3    H112780   6.019   4.714   2.041
 4301TIP3    H212781   6.156   4.686   2.095
 4302TIP3   OH212782   5.139   2.936   2.643
 4302TIP3    H112783   5.107   2.904   2.557
 4302TIP3    H212784   5.128   2.858   2.701
 4303TIP3   OH212785   4.675   4.150   2.024
 4303TIP3    H112786   4.607   4.185   2.082
 4303TIP3    H212787   4.651   4.193   1.939
 4304TIP3   OH212788   4.833   4.696   3.094
 4304TIP3    H112789   4.919   4.695   3.142
 4304TIP3    H212790   4.811   4.601   3.093
 4305TIP3   OH212791   5.322   4.665   3.136
 4305TIP3    H112792   5.413   4.631   3.145
 4305TIP3    H212793   5.289   4.606   3.065
 4306TIP3   OH212794   5.297   4.237   1.267
 4306TIP3    H112795   5.239   4.167   1.306
 4306TIP3    H212796   5.371   4.182   1.237
 4307TIP3   OH212797   5.950   4.571   2.875
 4307TIP3    H112798   5.941   4.498   2.941
 4307TIP3    H212799   6.032   4.615   2.904
 4308TIP3   OH212800   5.734   4.278   1.179
 4308TIP3    H112801   5.776   4.213   1.238
 4308TIP3    H212802   5.792   4.277   1.100
 4309TIP3   OH212803   4.964   4.102   3.295
 4309TIP3    H112804   4.980   4.006   3.302
 4309TIP3    H212805   4.876   4.105   3.251
 4310TIP3   OH212806   4.942   3.755   1.487
 4310TIP3    H112807   4.995   3.722   1.561
 4310TIP3    H212808   5.011   3.759   1.417
 4311TIP3   OH212809   5.573   4.195   3.068
 4311TIP3    H112810   5.529   4.205   2.982
 4311TIP3    H212811   5.605   4.102   3.064
 4312TIP3   OH212812   5.452   3.952   1.294
 4312TIP3    H112813   5.452   3.966   1.391
 4312TIP3    H212814   5.448   3.854   1.290
 4313TIP3   OH212815   6.065   4.192   2.673
 4313TIP3    H112816   6.137   4.242   2.631
 4313TIP3    H212817   5.991   4.255   2.665
 4314TIP3   OH212818   5.088   3.830   3.276
 4314TIP3    H112819   5.170   3.784   3.254
 4314TIP3    H212820   5.110   3.867   3.364
 4315TIP3   OH212821   5.151   3.657   1.712
 4315TIP3    H112822   5.121   3.619   1.796
 4315TIP3    H212823   5.184   3.579   1.663
 4316TIP3   OH212824   5.418   3.715   2.934
 4316TIP3    H112825   5.345   3.780   2.943
 4316TIP3    H212826   5.468   3.752   2.857
 4317TIP3   OH212827   5.249   3.448   1.551
 4317TIP3    H112828   5.222   3.454   1.457
 4317TIP3    H212829   5.346   3.457   1.544
 4318TIP3   OH212830   5.934   4.128   3.066
 4318TIP3    H112831   6.016   4.098   3.027
 4318TIP3    H212832   5.928   4.069   3.144
 4319TIP3   OH212833   6.075   3.783   1.211
 4319TIP3    H112834   6.049   3.736   1.129
 4319TIP3    H212835   6.041   3.873   1.190
 4320TIP3   OH212836   5.544   3.508   3.064
 4320TIP3    H112837   5.542   3.429   3.007
 4320TIP3    H212838   5.498   3.575   3.009
 4321TIP3   OH212839   5.545   3.292   2.869
 4321TIP3    H112840   5.571   3.338   2.787
 4321TIP3    H212841   5.450   3.273   2.852
 4322TIP3   OH212842   5.568   3.822   2.734
 4322TIP3    H112843   5.655   3.842   2.697
 4322TIP3    H212844   5.514   3.895   2.699
 4323TIP3   OH212845   6.158   3.783   3.112
 4323TIP3    H112846   6.216   3.711   3.139
 4323TIP3    H212847   6.220   3.855   3.096
 4324TIP3   OH212848   6.197   4.050   2.862
 4324TIP3    H112849   6.137   4.103   2.804
 4324TIP3    H212850   6.283   4.072   2.820
 4325TIP3   OH212851   5.395   3.630   3.272
 4325TIP3    H112852   5.343   3.553   3.301
 4325TIP3    H212853   5.448   3.594   3.199
 4326TIP3   OH212854   5.676   3.059   2.939
 4326TIP3    H112855   5.628   3.142   2.916
 4326TIP3    H212856   5.605   2.992   2.927
 4327TIP3   OH212857   5.805   3.564   3.156
 4327TIP3    H112858   5.796   3.566   3.253
 4327TIP3    H212859   5.714   3.538   3.131
 4328TIP3   OH212860   6.037   3.500   3.005
 4328TIP3    H112861   5.964   3.515   3.068
 4328TIP3    H212862   6.111   3.481   3.066
 4329TIP3   OH212863   6.278   3.454   3.159
 4329TIP3    H112864   6.283   3.359   3.181
 4329TIP3    H212865   6.267   3.496   3.247
 4330TIP3   OH212866   5.256   3.402   3.349
 4330TIP3    H112867   5.269   3.312   3.314
 4330TIP3    H212868   5.293   3.393   3.439
 4331TIP3   OH212869   5.769   3.066   3.197
 4331TIP3    H112870   5.838   2.997   3.188
 4331TIP3    H212871   5.729   3.063   3.108
 4332TIP3   OH212872   5.832   3.283   3.360
 4332TIP3    H112873   5.811   3.214   3.292
 4332TIP3    H212874   5.755   3.344   3.351
 4333TIP3   OH212875   5.056   4.511   1.455
 4333TIP3    H112876   5.152   4.509   1.436
 4333TIP3    H212877   5.025   4.562   1.377
 4334TIP3   OH212878   4.536   3.895   1.671
 4334TIP3    H112879   4.631   3.917   1.659
 4334TIP3    H212880   4.532   3.806   1.630
 4335TIP3   OH212881   4.456   4.506   2.081
 4335TIP3    H112882   4.384   4.448   2.047
 4335TIP3    H212883   4.495   4.448   2.150
 4336TIP3   OH212884   4.591   4.357   2.270
 4336TIP3    H112885   4.573   4.286   2.334
 4336TIP3    H212886   4.638   4.421   2.327
 4337TIP3   OH212887   6.315   4.757   2.071
 4337TIP3    H112888   6.339   4.791   2.160
 4337TIP3    H212889   6.374   4.808   2.014
 4338TIP3   OH212890   6.344   4.779   2.353
 4338TIP3    H112891   6.301   4.691   2.349
 4338TIP3    H212892   6.418   4.758   2.412
 4339TIP3   OH212893   6.390   4.456   2.927
 4339TIP3    H112894   6.317   4.464   2.992
 4339TIP3    H212895   6.431   4.545   2.932
 4340TIP3   OH212896   6.208   3.969   1.547
 4340TIP3    H112897   6.277   4.033   1.521
 4340TIP3    H212898   6.249   3.929   1.627
 4341TIP3   OH212899   6.334   3.836   1.750
 4341TIP3    H112900   6.268   3.794   1.810
 4341TIP3    H212901   6.398   3.875   1.813
 4342TIP3   OH212902   6.388   4.228   2.183
 4342TIP3    H112903   6.441   4.165   2.132
 4342TIP3    H212904   6.378   4.303   2.121
 4343TIP3   OH212905   6.219   4.529   2.378
 4343TIP3    H112906   6.148   4.571   2.430
 4343TIP3    H212907   6.169   4.481   2.309
 4344TIP3   OH212908   6.273   3.743   1.398
 4344TIP3    H112909   6.201   3.748   1.330
 4344TIP3    H212910   6.246   3.819   1.454
 4345TIP3   OH212911   6.147   3.415   1.349
 4345TIP3    H112912   6.097   3.457   1.278
 4345TIP3    H212913   6.119   3.321   1.339
 4346TIP3   OH212914   6.149   3.692   1.897
 4346TIP3    H112915   6.156   3.596   1.894
 4346TIP3    H212916   6.135   3.708   1.994
 4347TIP3   OH212917   4.776   3.764   2.645
 4347TIP3    H112918   4.773   3.736   2.551
 4347TIP3    H212919   4.873   3.766   2.660
 4348TIP3   OH212920   6.439   4.118   2.753
 4348TIP3    H112921   6.511   4.052   2.744
 4348TIP3    H212922   6.467   4.188   2.692
 4349TIP3   OH212923   6.625   3.924   2.769
 4349TIP3    H112924   6.550   3.875   2.809
 4349TIP3    H212925   6.697   3.859   2.785
 4350TIP3   OH212926   6.088   3.149   1.334
 4350TIP3    H112927   6.162   3.122   1.392
 4350TIP3    H212928   6.014   3.094   1.364
 4351TIP3   OH212929   6.144   3.408   1.793
 4351TIP3    H112930   6.184   3.319   1.808
 4351TIP3    H212931   6.203   3.442   1.724
 4352TIP3   OH212932   6.307   3.582   2.287
 4352TIP3    H112933   6.393   3.609   2.248
 4352TIP3    H212934   6.318   3.620   2.377
 4353TIP3   OH212935   6.373   3.726   2.519
 4353TIP3    H112936   6.297   3.759   2.570
 4353TIP3    H212937   6.406   3.808   2.475
 4354TIP3   OH212938   4.989   3.450   3.314
 4354TIP3    H112939   5.087   3.448   3.318
 4354TIP3    H212940   4.967   3.367   3.360
 4355TIP3   OH212941   6.829   3.318   3.076
 4355TIP3    H112942   6.886   3.252   3.031
 4355TIP3    H212943   6.798   3.373   3.001
 4356TIP3   OH212944   6.254   3.158   1.829
 4356TIP3    H112945   6.302   3.143   1.913
 4356TIP3    H212946   6.193   3.082   1.829
 4357TIP3   OH212947   4.954   3.144   2.648
 4357TIP3    H112948   5.017   3.071   2.659
 4357TIP3    H212949   5.014   3.220   2.643
 4358TIP3   OH212950   4.757   3.418   2.724
 4358TIP3    H112951   4.806   3.414   2.639
 4358TIP3    H212952   4.782   3.506   2.756
 4359TIP3   OH212953   6.699   3.458   2.884
 4359TIP3    H112954   6.613   3.499   2.908
 4359TIP3    H212955   6.667   3.388   2.823
 4360TIP3   OH212956   6.334   3.096   1.461
 4360TIP3    H112957   6.376   3.022   1.412
 4360TIP3    H212958   6.402   3.165   1.457
 4361TIP3   OH212959   4.739   2.922   2.222
 4361TIP3    H112960   4.646   2.920   2.250
 4361TIP3    H212961   4.736   2.981   2.144
 4362TIP3   OH212962   5.900   4.624   1.729
 4362TIP3    H112963   5.953   4.612   1.647
 4362TIP3    H212964   5.949   4.693   1.776
 4363TIP3   OH212965   4.959   2.999   3.037
 4363TIP3    H112966   4.909   2.998   3.120
 4363TIP3    H212967   4.893   3.040   2.977
 4364TIP3   OH212968   5.000   4.429   3.116
 4364TIP3    H112969   4.908   4.402   3.098
 4364TIP3    H212970   5.008   4.411   3.210
 4365TIP3   OH212971   5.177   4.460   2.663
 4365TIP3    H112972   5.127   4.535   2.625
 4365TIP3    H212973   5.263   4.476   2.618
 4366TIP3   OH212974   5.627   4.706   2.806
 4366TIP3    H112975   5.669   4.711   2.894
 4366TIP3    H212976   5.690   4.755   2.751
 4367TIP3   OH212977   5.802   4.857   2.660
 4367TIP3    H112978   5.872   4.806   2.617
 4367TIP3    H212979   5.855   4.915   2.719
 4368TIP3   OH212980   6.597   3.221   2.759
 4368TIP3    H112981   6.505   3.218   2.725
 4368TIP3    H212982   6.625   3.128   2.746
 4369TIP3   OH212983   4.856   4.719   2.686
 4369TIP3    H112984   4.766   4.751   2.661
 4369TIP3    H212985   4.863   4.756   2.775
 4370TIP3   OH212986   5.091   4.698   2.543
 4370TIP3    H112987   5.005   4.710   2.589
 4370TIP3    H212988   5.070   4.731   2.454
 4371TIP3   OH212989   5.518   4.727   2.340
 4371TIP3    H112990   5.446   4.747   2.276
 4371TIP3    H212991   5.529   4.815   2.383
 4372TIP3   OH212992   5.785   4.667   2.392
 4372TIP3    H112993   5.690   4.683   2.373
 4372TIP3    H212994   5.826   4.744   2.351
 4373TIP3   OH212995   5.994   4.859   2.309
 4373TIP3    H112996   5.980   4.943   2.261
 4373TIP3    H212997   6.019   4.798   2.236
 4374TIP3   OH212998   4.767   4.514   2.430
 4374TIP3    H112999   4.791   4.488   2.521
 4374TIP3    H213000   4.839   4.468   2.380
 4375TIP3   OH213001   4.960   4.383   2.286
 4375TIP3    H113002   4.975   4.300   2.337
 4375TIP3    H213003   5.050   4.421   2.283
 4376TIP3   OH213004   5.226   4.479   2.289
 4376TIP3    H113005   5.257   4.387   2.280
 4376TIP3    H213006   5.267   4.502   2.375
 4377TIP3   OH213007   5.802   3.136   2.377
 4377TIP3    H113008   5.757   3.068   2.431
 4377TIP3    H213009   5.873   3.085   2.335
 4378TIP3   OH213010   6.326   3.012   2.281
 4378TIP3    H113011   6.361   3.067   2.208
 4378TIP3    H213012   6.231   3.033   2.278
 4379TIP3   OH213013   6.420   3.116   2.046
 4379TIP3    H113014   6.494   3.066   2.006
 4379TIP3    H213015   6.452   3.208   2.032
 4380TIP3   OH213016   5.050   2.844   2.394
 4380TIP3    H113017   4.958   2.811   2.396
 4380TIP3    H213018   5.099   2.759   2.391
 4381TIP3   OH213019   4.836   2.714   2.042
 4381TIP3    H113020   4.865   2.773   1.970
 4381TIP3    H213021   4.806   2.778   2.109
 4382TIP3   OH213022   5.494   2.876   2.274
 4382TIP3    H113023   5.552   2.928   2.217
 4382TIP3    H213024   5.510   2.915   2.361
 4383TIP3   OH213025   6.043   3.022   2.259
 4383TIP3    H113026   6.036   2.986   2.170
 4383TIP3    H213027   6.028   2.942   2.314
 4384TIP3   OH213028   6.070   2.945   1.820
 4384TIP3    H113029   5.984   2.989   1.834
 4384TIP3    H213030   6.055   2.860   1.868
 4385TIP3   OH213031   4.556   4.283   1.821
 4385TIP3    H113032   4.469   4.252   1.788
 4385TIP3    H213033   4.543   4.379   1.811
 4386TIP3   OH213034   4.952   2.874   1.805
 4386TIP3    H113035   5.002   2.811   1.749
 4386TIP3    H213036   5.025   2.928   1.842
 4387TIP3   OH213037   5.467   3.048   1.904
 4387TIP3    H113038   5.525   3.001   1.966
 4387TIP3    H213039   5.487   3.141   1.930
 4388TIP3   OH213040   5.325   4.474   1.403
 4388TIP3    H113041   5.414   4.497   1.368
 4388TIP3    H213042   5.303   4.399   1.344
 4389TIP3   OH213043   6.045   4.592   1.495
 4389TIP3    H113044   6.036   4.494   1.484
 4389TIP3    H213045   5.996   4.624   1.417
 4390TIP3   OH213046   5.257   3.121   3.281
 4390TIP3    H113047   5.222   3.054   3.343
 4390TIP3    H213048   5.351   3.124   3.310
 4391TIP3   OH213049   5.503   3.121   3.403
 4391TIP3    H113050   5.590   3.104   3.364
 4391TIP3    H213051   5.495   3.049   3.469
 4392TIP3   OH213052   4.628   4.312   1.461
 4392TIP3    H113053   4.622   4.339   1.554
 4392TIP3    H213054   4.717   4.272   1.455
 4393TIP3   OH213055   6.330   3.180   3.192
 4393TIP3    H113056   6.350   3.152   3.284
 4393TIP3    H213057   6.419   3.179   3.151
 4394TIP3   OH213058   6.271   4.737   2.685
 4394TIP3    H113059   6.192   4.704   2.636
 4394TIP3    H213060   6.252   4.832   2.687
 4395TIP3   OH213061   7.537   4.107   1.451
 4395TIP3    H113062   7.510   4.199   1.432
 4395TIP3    H213063   7.459   4.059   1.420
 4396TIP3   OH213064   7.536   4.107   1.831
 4396TIP3    H113065   7.567   4.079   1.919
 4396TIP3    H213066   7.494   4.027   1.797
 4397TIP3   OH213067   6.836   4.003   2.195
 4397TIP3    H113068   6.866   3.936   2.259
 4397TIP3    H213069   6.912   4.063   2.194
 4398TIP3   OH213070   7.779   4.408   1.514
 4398TIP3    H113071   7.766   4.340   1.581
 4398TIP3    H213072   7.807   4.485   1.567
 4399TIP3   OH213073   6.806   4.413   1.921
 4399TIP3    H113074   6.797   4.315   1.925
 4399TIP3    H213075   6.903   4.422   1.918
 4400TIP3   OH213076   6.515   3.617   1.707
 4400TIP3    H113077   6.467   3.700   1.723
 4400TIP3    H213078   6.442   3.562   1.672
 4401TIP3   OH213079   6.573   3.903   1.877
 4401TIP3    H113080   6.621   3.827   1.915
 4401TIP3    H213081   6.635   3.934   1.809
 4402TIP3   OH213082   7.427   4.871   1.530
 4402TIP3    H113083   7.474   4.800   1.481
 4402TIP3    H213084   7.423   4.834   1.619
 4403TIP3   OH213085   7.335   4.333   1.879
 4403TIP3    H113086   7.373   4.257   1.833
 4403TIP3    H213087   7.418   4.379   1.904
 4404TIP3   OH213088   8.340   3.656   1.875
 4404TIP3    H113089   8.374   3.737   1.919
 4404TIP3    H213090   8.371   3.671   1.784
 4405TIP3   OH213091   7.746   3.836   1.913
 4405TIP3    H113092   7.789   3.751   1.934
 4405TIP3    H213093   7.717   3.820   1.822
 4406TIP3   OH213094   7.084   3.494   1.878
 4406TIP3    H113095   7.064   3.568   1.816
 4406TIP3    H213096   7.035   3.421   1.834
 4407TIP3   OH213097   7.778   3.585   1.500
 4407TIP3    H113098   7.850   3.569   1.566
 4407TIP3    H213099   7.831   3.621   1.427
 4408TIP3   OH213100   6.718   3.698   1.984
 4408TIP3    H113101   6.801   3.678   2.033
 4408TIP3    H213102   6.732   3.641   1.905
 4409TIP3   OH213103   7.160   3.895   1.775
 4409TIP3    H113104   7.253   3.869   1.790
 4409TIP3    H213105   7.121   3.810   1.745
 4410TIP3   OH213106   8.419   3.860   2.047
 4410TIP3    H113107   8.335   3.909   2.029
 4410TIP3    H213108   8.435   3.886   2.139
 4411TIP3   OH213109   7.081   3.478   2.312
 4411TIP3    H113110   7.021   3.516   2.245
 4411TIP3    H213111   7.030   3.495   2.394
 4412TIP3   OH213112   7.428   4.329   1.321
 4412TIP3    H113113   7.386   4.310   1.237
 4412TIP3    H213114   7.386   4.414   1.346
 4413TIP3   OH213115   7.188   4.253   2.108
 4413TIP3    H113116   7.125   4.318   2.147
 4413TIP3    H213117   7.229   4.305   2.037
 4414TIP3   OH213118   7.989   3.588   1.672
 4414TIP3    H113119   7.981   3.539   1.755
 4414TIP3    H213120   8.044   3.664   1.697
 4415TIP3   OH213121   6.952   3.593   2.097
 4415TIP3    H113122   7.014   3.666   2.121
 4415TIP3    H213123   7.001   3.553   2.022
 4416TIP3   OH213124   7.015   4.446   2.204
 4416TIP3    H113125   6.990   4.533   2.167
 4416TIP3    H213126   6.936   4.431   2.262
 4417TIP3   OH213127   6.413   4.138   1.441
 4417TIP3    H113128   6.368   4.169   1.361
 4417TIP3    H213129   6.443   4.222   1.481
 4418TIP3   OH213130   7.850   4.652   1.681
 4418TIP3    H113131   7.760   4.644   1.721
 4418TIP3    H213132   7.842   4.738   1.636
 4419TIP3   OH213133   8.140   3.554   2.044
 4419TIP3    H113134   8.053   3.584   2.014
 4419TIP3    H213135   8.200   3.586   1.973
 4420TIP3   OH213136   7.438   3.198   2.025
 4420TIP3    H113137   7.425   3.103   2.043
 4420TIP3    H213138   7.361   3.236   2.072
 4421TIP3   OH213139   7.552   4.699   1.356
 4421TIP3    H113140   7.602   4.617   1.334
 4421TIP3    H213141   7.613   4.765   1.315
 4422TIP3   OH213142   7.694   4.484   1.262
 4422TIP3    H113143   7.657   4.405   1.222
 4422TIP3    H213144   7.730   4.448   1.347
 4423TIP3   OH213145   8.077   4.566   2.025
 4423TIP3    H113146   8.065   4.489   1.966
 4423TIP3    H213147   8.059   4.641   1.964
 4424TIP3   OH213148   7.366   3.958   1.281
 4424TIP3    H113149   7.287   4.012   1.260
 4424TIP3    H213150   7.414   3.958   1.196
 4425TIP3   OH213151   7.326   3.745   0.997
 4425TIP3    H113152   7.392   3.795   1.048
 4425TIP3    H213153   7.385   3.681   0.951
 4426TIP3   OH213154   8.272   4.204   1.870
 4426TIP3    H113155   8.188   4.255   1.876
 4426TIP3    H213156   8.300   4.226   1.779
 4427TIP3   OH213157   7.715   4.041   1.254
 4427TIP3    H113158   7.660   4.066   1.332
 4427TIP3    H213159   7.799   4.016   1.298
 4428TIP3   OH213160   7.950   4.082   2.165
 4428TIP3    H113161   7.947   4.166   2.214
 4428TIP3    H213162   7.863   4.086   2.119
 4429TIP3   OH213163   6.947   4.040   1.670
 4429TIP3    H113164   6.907   3.982   1.602
 4429TIP3    H213165   7.025   3.987   1.699
 4430TIP3   OH213166   7.077   4.452   1.819
 4430TIP3    H113167   7.057   4.408   1.735
 4430TIP3    H213168   7.167   4.419   1.837
 4431TIP3   OH213169   7.086   4.010   2.024
 4431TIP3    H113170   7.119   3.992   1.934
 4431TIP3    H213171   7.128   4.097   2.044
 4432TIP3   OH213172   7.609   4.649   1.801
 4432TIP3    H113173   7.595   4.729   1.855
 4432TIP3    H213174   7.594   4.576   1.865
 4433TIP3   OH213175   7.221   4.568   2.348
 4433TIP3    H113176   7.161   4.630   2.395
 4433TIP3    H213177   7.155   4.514   2.299
 4434TIP3   OH213178   7.556   3.900   1.080
 4434TIP3    H113179   7.615   3.959   1.132
 4434TIP3    H213180   7.582   3.924   0.988
 4435TIP3   OH213181   6.974   4.125   2.447
 4435TIP3    H113182   6.980   4.211   2.493
 4435TIP3    H213183   6.879   4.105   2.460
 4436TIP3   OH213184   7.297   4.580   1.354
 4436TIP3    H113185   7.377   4.634   1.372
 4436TIP3    H213186   7.237   4.645   1.315
 4437TIP3   OH213187   7.016   4.736   2.435
 4437TIP3    H113188   6.980   4.735   2.345
 4437TIP3    H213189   6.937   4.715   2.490
 4438TIP3   OH213190   8.070   3.141   1.127
 4438TIP3    H113191   7.990   3.162   1.179
 4438TIP3    H213192   8.084   3.225   1.078
 4439TIP3   OH213193   6.815   3.882   1.472
 4439TIP3    H113194   6.748   3.927   1.417
 4439TIP3    H213195   6.772   3.798   1.491
 4440TIP3   OH213196   7.865   4.506   0.676
 4440TIP3    H113197   7.874   4.603   0.662
 4440TIP3    H213198   7.958   4.478   0.664
 4441TIP3   OH213199   6.595   4.266   2.382
 4441TIP3    H113200   6.528   4.244   2.314
 4441TIP3    H213201   6.631   4.179   2.407
 4442TIP3   OH213202   6.448   4.460   2.014
 4442TIP3    H113203   6.545   4.456   2.008
 4442TIP3    H213204   6.436   4.539   2.068
 4443TIP3   OH213205   8.314   4.910   2.071
 4443TIP3    H113206   8.312   4.814   2.084
 4443TIP3    H213207   8.231   4.936   2.116
 4444TIP3   OH213208   7.419   4.697   2.205
 4444TIP3    H113209   7.419   4.789   2.237
 4444TIP3    H213210   7.348   4.658   2.260
 4445TIP3   OH213211   7.177   4.826   1.159
 4445TIP3    H113212   7.139   4.803   1.072
 4445TIP3    H213213   7.145   4.917   1.172
 4446TIP3   OH213214   6.617   4.675   1.540
 4446TIP3    H113215   6.666   4.666   1.625
 4446TIP3    H213216   6.556   4.599   1.548
 4447TIP3   OH213217   7.389   4.733   0.797
 4447TIP3    H113218   7.445   4.660   0.763
 4447TIP3    H213219   7.417   4.738   0.891
 4448TIP3   OH213220   7.430   4.774   1.070
 4448TIP3    H113221   7.341   4.785   1.111
 4448TIP3    H213222   7.480   4.734   1.142
 4449TIP3   OH213223   8.204   4.043   2.345
 4449TIP3    H113224   8.123   4.055   2.293
 4449TIP3    H213225   8.219   3.947   2.334
 4450TIP3   OH213226   6.800   4.449   2.371
 4450TIP3    H113227   6.849   4.433   2.454
 4450TIP3    H213228   6.726   4.386   2.379
 4451TIP3   OH213229   7.199   3.273   2.154
 4451TIP3    H113230   7.109   3.243   2.129
 4451TIP3    H213231   7.175   3.356   2.200
 4452TIP3   OH213232   7.733   3.388   2.349
 4452TIP3    H113233   7.801   3.361   2.413
 4452TIP3    H213234   7.649   3.368   2.395
 4453TIP3   OH213235   7.972   3.817   2.267
 4453TIP3    H113236   7.923   3.814   2.352
 4453TIP3    H213237   7.948   3.905   2.232
 4454TIP3   OH213238   7.628   3.947   0.822
 4454TIP3    H113239   7.601   3.920   0.732
 4454TIP3    H213240   7.706   4.001   0.803
 4455TIP3   OH213241   7.343   3.324   1.125
 4455TIP3    H113242   7.313   3.321   1.218
 4455TIP3    H213243   7.306   3.239   1.093
 4456TIP3   OH213244   7.130   3.788   2.173
 4456TIP3    H113245   7.080   3.810   2.255
 4456TIP3    H213246   7.115   3.869   2.120
 4457TIP3   OH213247   7.015   3.674   1.687
 4457TIP3    H113248   6.922   3.649   1.705
 4457TIP3    H213249   7.027   3.633   1.599
 4458TIP3   OH213250   7.505   3.760   1.414
 4458TIP3    H113251   7.452   3.832   1.373
 4458TIP3    H213252   7.560   3.731   1.339
 4459TIP3   OH213253   7.679   4.039   2.501
 4459TIP3    H113254   7.657   3.967   2.564
 4459TIP3    H213255   7.773   4.053   2.523
 4460TIP3   OH213256   7.662   3.789   1.655
 4460TIP3    H113257   7.603   3.820   1.583
 4460TIP3    H213258   7.695   3.707   1.612
 4461TIP3   OH213259   6.950   3.818   2.382
 4461TIP3    H113260   6.973   3.882   2.450
 4461TIP3    H213261   6.938   3.736   2.434
 4462TIP3   OH213262   6.997   3.293   1.091
 4462TIP3    H113263   6.993   3.292   1.189
 4462TIP3    H213264   6.920   3.348   1.071
 4463TIP3   OH213265   6.543   3.340   1.960
 4463TIP3    H113266   6.617   3.372   2.016
 4463TIP3    H213267   6.588   3.307   1.881
 4464TIP3   OH213268   6.517   3.321   1.480
 4464TIP3    H113269   6.564   3.360   1.404
 4464TIP3    H213270   6.456   3.394   1.503
 4465TIP3   OH213271   7.673   4.036   2.077
 4465TIP3    H113272   7.705   3.964   2.019
 4465TIP3    H213273   7.643   3.984   2.155
 4466TIP3   OH213274   7.340   3.497   1.748
 4466TIP3    H113275   7.258   3.496   1.802
 4466TIP3    H213276   7.409   3.496   1.817
 4467TIP3   OH213277   6.777   3.553   1.756
 4467TIP3    H113278   6.682   3.560   1.730
 4467TIP3    H213279   6.799   3.461   1.734
 4468TIP3   OH213280   7.046   3.548   1.445
 4468TIP3    H113281   7.140   3.564   1.426
 4468TIP3    H213282   7.001   3.572   1.362
 4469TIP3   OH213283   7.833   3.573   1.950
 4469TIP3    H113284   7.799   3.585   2.041
 4469TIP3    H213285   7.768   3.511   1.914
 4470TIP3   OH213286   6.886   3.581   1.223
 4470TIP3    H113287   6.812   3.540   1.175
 4470TIP3    H213288   6.938   3.618   1.149
 4471TIP3   OH213289   8.003   5.261   2.169
 4471TIP3    H113290   8.001   5.285   2.075
 4471TIP3    H213291   8.080   5.312   2.201
 4472TIP3   OH213292   6.962   4.371   2.591
 4472TIP3    H113293   7.041   4.402   2.639
 4472TIP3    H213294   6.896   4.370   2.663
 4473TIP3   OH213295   7.425   3.824   1.846
 4473TIP3    H113296   7.499   3.786   1.796
 4473TIP3    H213297   7.435   3.783   1.933
 4474TIP3   OH213298   6.947   3.313   1.723
 4474TIP3    H113299   6.914   3.234   1.771
 4474TIP3    H213300   7.002   3.275   1.654
 4475TIP3   OH213301   7.402   3.720   2.137
 4475TIP3    H113302   7.312   3.758   2.150
 4475TIP3    H213303   7.459   3.782   2.187
 4476TIP3   OH213304   7.139   4.113   1.230
 4476TIP3    H113305   7.065   4.048   1.220
 4476TIP3    H213306   7.121   4.147   1.321
 4477TIP3   OH213307   8.039   4.349   1.861
 4477TIP3    H113308   8.063   4.398   1.779
 4477TIP3    H213309   7.954   4.307   1.836
 4478TIP3   OH213310   7.596   3.426   1.090
 4478TIP3    H113311   7.499   3.411   1.099
 4478TIP3    H213312   7.608   3.519   1.116
 4479TIP3   OH213313   7.539   4.431   2.228
 4479TIP3    H113314   7.559   4.409   2.319
 4479TIP3    H213315   7.499   4.520   2.235
 4480TIP3   OH213316   7.667   3.671   1.195
 4480TIP3    H113317   7.763   3.677   1.212
 4480TIP3    H213318   7.649   3.752   1.143
 4481TIP3   OH213319   6.830   4.133   1.908
 4481TIP3    H113320   6.869   4.105   1.823
 4481TIP3    H213321   6.870   4.071   1.970
 4482TIP3   OH213322   7.282   4.262   1.047
 4482TIP3    H113323   7.236   4.349   1.054
 4482TIP3    H213324   7.229   4.208   1.110
 4483TIP3   OH213325   6.711   4.054   2.519
 4483TIP3    H113326   6.730   4.041   2.614
 4483TIP3    H213327   6.641   3.988   2.504
 4484TIP3   OH213328   7.436   4.168   2.540
 4484TIP3    H113329   7.376   4.109   2.491
 4484TIP3    H213330   7.523   4.135   2.511
 4485TIP3   OH213331   7.699   4.690   2.123
 4485TIP3    H113332   7.602   4.689   2.136
 4485TIP3    H213333   7.727   4.741   2.201
 4486TIP3   OH213334   8.108   3.761   1.033
 4486TIP3    H113335   8.045   3.717   0.972
 4486TIP3    H213336   8.106   3.850   0.992
 4487TIP3   OH213337   8.327   4.619   2.114
 4487TIP3    H113338   8.229   4.614   2.106
 4487TIP3    H213339   8.352   4.589   2.023
 4488TIP3   OH213340   7.808   4.580   0.941
 4488TIP3    H113341   7.785   4.507   0.999
 4488TIP3    H213342   7.823   4.538   0.855
 4489TIP3   OH213343   7.804   4.211   1.780
 4489TIP3    H113344   7.711   4.185   1.793
 4489TIP3    H213345   7.838   4.131   1.734
 4490TIP3   OH213346   6.931   4.437   1.530
 4490TIP3    H113347   6.932   4.519   1.478
 4490TIP3    H213348   6.836   4.424   1.542
 4491TIP3   OH213349   6.493   3.743   1.232
 4491TIP3    H113350   6.540   3.826   1.255
 4491TIP3    H213351   6.417   3.748   1.295
 4492TIP3   OH213352   7.070   4.204   1.475
 4492TIP3    H113353   7.036   4.293   1.493
 4492TIP3    H213354   7.035   4.154   1.551
 4493TIP3   OH213355   7.200   4.782   2.001
 4493TIP3    H113356   7.242   4.855   1.951
 4493TIP3    H213357   7.276   4.748   2.050
 4494TIP3   OH213358   6.851   4.677   1.385
 4494TIP3    H113359   6.765   4.685   1.430
 4494TIP3    H213360   6.882   4.770   1.388
 4495TIP3   OH213361   7.589   4.416   1.959
 4495TIP3    H113362   7.580   4.415   2.057
 4495TIP3    H213363   7.670   4.364   1.947
 4496TIP3   OH213364   7.562   4.301   0.845
 4496TIP3    H113365   7.616   4.280   0.924
 4496TIP3    H213366   7.473   4.284   0.879
 4497TIP3   OH213367   7.838   4.950   2.010
 4497TIP3    H113368   7.759   4.894   2.002
 4497TIP3    H213369   7.822   5.015   1.938
 4498TIP3   OH213370   7.900   4.780   0.680
 4498TIP3    H113371   7.923   4.808   0.590
 4498TIP3    H213372   7.826   4.839   0.704
 4499TIP3   OH213373   6.923   3.560   2.528
 4499TIP3    H113374   6.827   3.566   2.544
 4499TIP3    H213375   6.950   3.501   2.601
 4500TIP3   OH213376   7.723   4.242   1.060
 4500TIP3    H113377   7.714   4.176   1.132
 4500TIP3    H213378   7.820   4.241   1.047
 4501TIP3   OH213379   6.640   4.645   2.159
 4501TIP3    H113380   6.692   4.570   2.192
 4501TIP3    H213381   6.665   4.713   2.223
 4502TIP3   OH213382   6.929   4.285   0.839
 4502TIP3    H113383   6.947   4.192   0.817
 4502TIP3    H213384   6.911   4.279   0.935
 4503TIP3   OH213385   6.877   4.292   1.112
 4503TIP3    H113386   6.947   4.268   1.174
 4503TIP3    H213387   6.878   4.391   1.119
 4504TIP3   OH213388   6.610   3.988   1.317
 4504TIP3    H113389   6.545   4.033   1.375
 4504TIP3    H213390   6.626   4.058   1.251
 4505TIP3   OH213391   7.759   3.625   2.209
 4505TIP3    H113392   7.839   3.663   2.248
 4505TIP3    H213393   7.745   3.544   2.263
 4506TIP3   OH213394   7.639   3.377   1.373
 4506TIP3    H113395   7.627   3.402   1.279
 4506TIP3    H213396   7.679   3.458   1.411
 4507TIP3   OH213397   7.140   4.492   1.060
 4507TIP3    H113398   7.053   4.517   1.097
 4507TIP3    H213399   7.158   4.571   1.006
 4508TIP3   OH213400   7.328   3.555   1.476
 4508TIP3    H113401   7.394   3.627   1.458
 4508TIP3    H213402   7.334   3.547   1.573
 4509TIP3   OH213403   7.598   3.875   2.284
 4509TIP3    H113404   7.617   3.929   2.364
 4509TIP3    H213405   7.653   3.796   2.299
 4510TIP3   OH213406   7.474   3.283   1.579
 4510TIP3    H113407   7.469   3.359   1.641
 4510TIP3    H213408   7.534   3.320   1.510
 4511TIP3   OH213409   6.881   4.563   1.132
 4511TIP3    H113410   6.859   4.635   1.068
 4511TIP3    H213411   6.867   4.609   1.217
 4512TIP3   OH213412   6.985   3.281   1.367
 4512TIP3    H113413   6.983   3.371   1.405
 4512TIP3    H213414   7.081   3.262   1.377
 4513TIP3   OH213415   8.240   3.776   2.266
 4513TIP3    H113416   8.142   3.774   2.272
 4513TIP3    H213417   8.252   3.733   2.180
 4514TIP3   OH213418   7.889   3.970   1.653
 4514TIP3    H113419   7.814   3.909   1.666
 4514TIP3    H213420   7.962   3.923   1.700
 4515TIP3   OH213421   6.600   4.199   1.122
 4515TIP3    H113422   6.659   4.275   1.133
 4515TIP3    H213423   6.652   4.147   1.057
 4516TIP3   OH213424   6.547   3.474   1.252
 4516TIP3    H113425   6.547   3.571   1.250
 4516TIP3    H213426   6.458   3.453   1.223
 4517TIP3   OH213427   7.858   4.924   1.603
 4517TIP3    H113428   7.815   4.971   1.528
 4517TIP3    H213429   7.952   4.943   1.581
 4518TIP3   OH213430   6.935   3.193   2.130
 4518TIP3    H113431   6.903   3.160   2.044
 4518TIP3    H213432   6.924   3.115   2.188
 4519TIP3   OH213433   6.474   4.407   1.513
 4519TIP3    H113434   6.403   4.441   1.569
 4519TIP3    H213435   6.450   4.448   1.427
 4520TIP3   OH213436   6.629   4.952   2.581
 4520TIP3    H113437   6.715   4.952   2.628
 4520TIP3    H213438   6.609   4.857   2.581
 4521TIP3   OH213439   7.112   4.919   2.626
 4521TIP3    H113440   7.207   4.900   2.633
 4521TIP3    H213441   7.087   4.860   2.552
 4522TIP3   OH213442   7.090   4.492   0.753
 4522TIP3    H113443   7.034   4.422   0.793
 4522TIP3    H213444   7.169   4.442   0.730
 4523TIP3   OH213445   7.752   4.823   2.358
 4523TIP3    H113446   7.742   4.754   2.428
 4523TIP3    H213447   7.828   4.875   2.390
 4524TIP3   OH213448   7.526   4.531   0.671
 4524TIP3    H113449   7.580   4.473   0.729
 4524TIP3    H213450   7.580   4.534   0.589
 4525TIP3   OH213451   6.761   4.360   2.782
 4525TIP3    H113452   6.777   4.264   2.788
 4525TIP3    H213453   6.673   4.362   2.739
 4526TIP3   OH213454   6.737   4.009   0.974
 4526TIP3    H113455   6.791   3.978   1.049
 4526TIP3    H213456   6.806   4.015   0.904
 4527TIP3   OH213457   7.369   4.444   2.555
 4527TIP3    H113458   7.326   4.460   2.469
 4527TIP3    H213459   7.399   4.351   2.548
 4528TIP3   OH213460   7.242   4.208   0.779
 4528TIP3    H113461   7.248   4.223   0.875
 4528TIP3    H213462   7.243   4.110   0.776
 4529TIP3   OH213463   7.861   4.451   2.162
 4529TIP3    H113464   7.935   4.497   2.118
 4529TIP3    H213465   7.789   4.516   2.149
 4530TIP3   OH213466   6.880   4.094   2.763
 4530TIP3    H113467   6.953   4.034   2.746
 4530TIP3    H213468   6.904   4.127   2.852
 4531TIP3   OH213469   6.944   3.914   1.197
 4531TIP3    H113470   6.918   3.875   1.282
 4531TIP3    H213471   6.981   3.837   1.149
 4532TIP3   OH213472   7.215   3.978   2.426
 4532TIP3    H113473   7.137   4.038   2.429
 4532TIP3    H213474   7.263   4.012   2.347
 4533TIP3   OH213475   7.046   3.705   1.039
 4533TIP3    H113476   7.020   3.710   0.944
 4533TIP3    H213477   7.143   3.713   1.032
 4534TIP3   OH213478   7.731   4.380   2.560
 4534TIP3    H113479   7.811   4.357   2.512
 4534TIP3    H213480   7.728   4.312   2.630
 4535TIP3   OH213481   7.871   4.037   0.696
 4535TIP3    H113482   7.842   3.989   0.617
 4535TIP3    H213483   7.837   4.127   0.675
 4536TIP3   OH213484   7.338   3.766   2.552
 4536TIP3    H113485   7.337   3.686   2.496
 4536TIP3    H213486   7.294   3.832   2.494
 4537TIP3   OH213487   7.340   3.551   2.359
 4537TIP3    H113488   7.367   3.594   2.275
 4537TIP3    H213489   7.246   3.530   2.340
 4538TIP3   OH213490   7.369   4.088   2.231
 4538TIP3    H113491   7.451   4.098   2.182
 4538TIP3    H213492   7.312   4.156   2.188
 4539TIP3   OH213493   7.952   4.055   2.615
 4539TIP3    H113494   8.000   3.971   2.621
 4539TIP3    H213495   8.019   4.114   2.579
 4540TIP3   OH213496   7.991   4.308   2.350
 4540TIP3    H113497   7.933   4.361   2.291
 4540TIP3    H213498   8.078   4.328   2.310
 4541TIP3   OH213499   7.216   3.879   2.782
 4541TIP3    H113500   7.146   3.812   2.797
 4541TIP3    H213501   7.250   3.853   2.694
 4542TIP3   OH213502   7.472   3.316   2.425
 4542TIP3    H113503   7.423   3.399   2.403
 4542TIP3    H213504   7.402   3.249   2.414
 4543TIP3   OH213505   7.598   3.821   2.642
 4543TIP3    H113506   7.586   3.810   2.738
 4543TIP3    H213507   7.508   3.797   2.612
 4544TIP3   OH213508   7.838   3.771   2.497
 4544TIP3    H113509   7.762   3.772   2.559
 4544TIP3    H213510   7.911   3.739   2.555
 4545TIP3   OH213511   8.068   3.711   2.649
 4545TIP3    H113512   8.080   3.615   2.667
 4545TIP3    H213513   8.064   3.749   2.739
 4546TIP3   OH213514   7.055   3.659   2.834
 4546TIP3    H113515   7.061   3.568   2.800
 4546TIP3    H213516   7.090   3.647   2.924
 4547TIP3   OH213517   7.567   3.326   2.683
 4547TIP3    H113518   7.635   3.256   2.677
 4547TIP3    H213519   7.527   3.320   2.594
 4548TIP3   OH213520   7.633   3.541   2.842
 4548TIP3    H113521   7.610   3.470   2.778
 4548TIP3    H213522   7.555   3.600   2.836
 4549TIP3   OH213523   6.856   4.765   0.954
 4549TIP3    H113524   6.949   4.774   0.928
 4549TIP3    H213525   6.813   4.805   0.875
 4550TIP3   OH213526   6.332   4.154   1.153
 4550TIP3    H113527   6.428   4.175   1.145
 4550TIP3    H213528   6.329   4.063   1.117
 4551TIP3   OH213529   6.249   4.763   1.570
 4551TIP3    H113530   6.180   4.702   1.537
 4551TIP3    H213531   6.292   4.707   1.638
 4552TIP3   OH213532   6.385   4.616   1.758
 4552TIP3    H113533   6.372   4.543   1.821
 4552TIP3    H213534   6.434   4.678   1.815
 4553TIP3   OH213535   8.110   5.015   1.559
 4553TIP3    H113536   8.137   5.049   1.646
 4553TIP3    H213537   8.170   5.062   1.499
 4554TIP3   OH213538   8.140   5.036   1.841
 4554TIP3    H113539   8.097   4.948   1.836
 4554TIP3    H213540   8.215   5.015   1.898
 4555TIP3   OH213541   8.187   4.712   2.414
 4555TIP3    H113542   8.113   4.721   2.477
 4555TIP3    H213543   8.227   4.801   2.418
 4556TIP3   OH213544   8.002   4.225   1.034
 4556TIP3    H113545   8.069   4.290   1.005
 4556TIP3    H213546   8.046   4.187   1.113
 4557TIP3   OH213547   8.131   4.094   1.238
 4557TIP3    H113548   8.064   4.051   1.297
 4557TIP3    H213549   8.193   4.133   1.302
 4558TIP3   OH213550   8.184   4.485   1.671
 4558TIP3    H113551   8.237   4.421   1.619
 4558TIP3    H213552   8.177   4.560   1.609
 4559TIP3   OH213553   8.016   4.785   1.866
 4559TIP3    H113554   7.945   4.828   1.917
 4559TIP3    H213555   7.966   4.738   1.796
 4560TIP3   OH213556   8.069   4.001   0.885
 4560TIP3    H113557   7.998   4.004   0.817
 4560TIP3    H213558   8.042   4.077   0.940
 4561TIP3   OH213559   7.937   3.676   0.841
 4561TIP3    H113560   7.900   3.712   0.760
 4561TIP3    H213561   7.912   3.581   0.832
 4562TIP3   OH213562   7.944   3.950   1.384
 4562TIP3    H113563   7.953   3.853   1.380
 4562TIP3    H213564   7.931   3.964   1.481
 4563TIP3   OH213565   6.571   4.022   2.130
 4563TIP3    H113566   6.570   3.993   2.037
 4563TIP3    H213567   6.668   4.024   2.147
 4564TIP3   OH213568   8.233   4.374   2.241
 4564TIP3    H113569   8.306   4.308   2.232
 4564TIP3    H213570   8.260   4.444   2.179
 4565TIP3   OH213571   8.420   4.181   2.258
 4565TIP3    H113572   8.345   4.130   2.298
 4565TIP3    H213573   8.493   4.117   2.273
 4566TIP3   OH213574   7.881   3.411   0.830
 4566TIP3    H113575   7.960   3.379   0.878
 4566TIP3    H213576   7.812   3.347   0.853
 4567TIP3   OH213577   7.940   3.665   1.279
 4567TIP3    H113578   7.981   3.576   1.295
 4567TIP3    H213579   7.999   3.698   1.210
 4568TIP3   OH213580   8.102   3.842   1.774
 4568TIP3    H113581   8.188   3.866   1.734
 4568TIP3    H213582   8.116   3.876   1.864
 4569TIP3   OH213583   8.170   3.984   2.007
 4569TIP3    H113584   8.092   4.018   2.055
 4569TIP3    H213585   8.203   4.065   1.962
 4570TIP3   OH213586   6.788   3.709   2.803
 4570TIP3    H113587   6.886   3.703   2.807
 4570TIP3    H213588   6.763   3.625   2.847
 4571TIP3   OH213589   8.623   3.575   2.565
 4571TIP3    H113590   8.682   3.507   2.523
 4571TIP3    H213591   8.597   3.628   2.487
 4572TIP3   OH213592   8.049   3.416   1.317
 4572TIP3    H113593   8.099   3.400   1.400
 4572TIP3    H213594   7.989   3.338   1.317
 4573TIP3   OH213595   6.749   3.401   2.133
 4573TIP3    H113596   6.812   3.327   2.146
 4573TIP3    H213597   6.811   3.477   2.130
 4574TIP3   OH213598   6.553   3.675   2.210
 4574TIP3    H113599   6.603   3.671   2.125
 4574TIP3    H213600   6.579   3.761   2.244
 4575TIP3   OH213601   8.494   3.716   2.370
 4575TIP3    H113602   8.404   3.752   2.382
 4575TIP3    H213603   8.474   3.643   2.309
 4576TIP3   OH213604   8.130   3.351   0.948
 4576TIP3    H113605   8.171   3.279   0.897
 4576TIP3    H213606   8.198   3.422   0.943
 4577TIP3   OH213607   6.535   3.176   1.708
 4577TIP3    H113608   6.443   3.176   1.738
 4577TIP3    H213609   6.532   3.237   1.631
 4578TIP3   OH213610   7.695   4.882   1.219
 4578TIP3    H113611   7.743   4.866   1.135
 4578TIP3    H213612   7.750   4.950   1.260
 4579TIP3   OH213613   6.755   3.257   2.524
 4579TIP3    H113614   6.706   3.254   2.608
 4579TIP3    H213615   6.689   3.298   2.465
 4580TIP3   OH213616   6.796   4.685   2.602
 4580TIP3    H113617   6.704   4.658   2.585
 4580TIP3    H213618   6.804   4.668   2.697
 4581TIP3   OH213619   6.973   4.717   2.149
 4581TIP3    H113620   6.924   4.792   2.111
 4581TIP3    H213621   7.059   4.732   2.105
 4582TIP3   OH213622   7.420   4.963   2.287
 4582TIP3    H113623   7.461   4.964   2.376
 4582TIP3    H213624   7.486   5.014   2.235
 4583TIP3   OH213625   7.598   5.115   2.145
 4583TIP3    H113626   7.670   5.064   2.105
 4583TIP3    H213627   7.649   5.172   2.206
 4584TIP3   OH213628   8.391   3.476   2.248
 4584TIP3    H113629   8.301   3.468   2.212
 4584TIP3    H213630   8.425   3.384   2.236
 4585TIP3   OH213631   6.651   4.977   2.171
 4585TIP3    H113632   6.561   5.010   2.149
 4585TIP3    H213633   6.660   5.012   2.261
 4586TIP3   OH213634   6.887   4.954   2.030
 4586TIP3    H113635   6.801   4.967   2.076
 4586TIP3    H213636   6.865   4.986   1.940
 4587TIP3   OH213637   7.313   4.984   1.828
 4587TIP3    H113638   7.243   5.004   1.763
 4587TIP3    H213639   7.325   5.070   1.872
 4588TIP3   OH213640   7.581   4.922   1.879
 4588TIP3    H113641   7.487   4.940   1.860
 4588TIP3    H213642   7.624   4.999   1.838
 4589TIP3   OH213643   7.789   5.115   1.795
 4589TIP3    H113644   7.775   5.200   1.748
 4589TIP3    H213645   7.815   5.055   1.722
 4590TIP3   OH213646   6.563   4.771   1.917
 4590TIP3    H113647   6.588   4.745   2.008
 4590TIP3    H213648   6.634   4.725   1.867
 4591TIP3   OH213649   6.755   4.640   1.773
 4591TIP3    H113650   6.771   4.557   1.823
 4591TIP3    H213651   6.846   4.677   1.770
 4592TIP3   OH213652   7.022   4.737   1.777
 4592TIP3    H113653   7.053   4.646   1.764
 4592TIP3    H213654   7.066   4.757   1.862
 4593TIP3   OH213655   7.595   3.391   1.861
 4593TIP3    H113656   7.553   3.322   1.916
 4593TIP3    H213657   7.670   3.344   1.821
 4594TIP3   OH213658   8.120   3.270   1.770
 4594TIP3    H113659   8.159   3.323   1.696
 4594TIP3    H213660   8.026   3.292   1.764
 4595TIP3   OH213661   8.215   3.374   1.534
 4595TIP3    H113662   8.288   3.322   1.496
 4595TIP3    H213663   8.249   3.465   1.519
 4596TIP3   OH213664   6.847   3.101   1.881
 4596TIP3    H113665   6.754   3.067   1.883
 4596TIP3    H213666   6.896   3.016   1.878
 4597TIP3   OH213667   6.629   2.970   1.527
 4597TIP3    H113668   6.661   3.030   1.457
 4597TIP3    H213669   6.602   3.034   1.596
 4598TIP3   OH213670   7.288   3.133   1.761
 4598TIP3    H113671   7.347   3.184   1.703
 4598TIP3    H213672   7.310   3.171   1.848
 4599TIP3   OH213673   7.835   3.280   1.747
 4599TIP3    H113674   7.836   3.243   1.657
 4599TIP3    H213675   7.822   3.199   1.801
 4600TIP3   OH213676   7.866   3.201   1.307
 4600TIP3    H113677   7.779   3.245   1.320
 4600TIP3    H213678   7.852   3.117   1.355
 4601TIP3   OH213679   6.347   4.535   1.313
 4601TIP3    H113680   6.261   4.508   1.277
 4601TIP3    H213681   6.342   4.631   1.298
 4602TIP3   OH213682   6.749   3.132   1.291
 4602TIP3    H113683   6.799   3.069   1.236
 4602TIP3    H213684   6.821   3.186   1.329
 4603TIP3   OH213685   7.263   3.304   1.391
 4603TIP3    H113686   7.323   3.259   1.453
 4603TIP3    H213687   7.283   3.397   1.416
 4604TIP3   OH213688   7.125   4.727   0.900
 4604TIP3    H113689   7.199   4.771   0.854
 4604TIP3    H213690   7.105   4.656   0.835
 4605TIP3   OH213691   7.840   4.847   0.988
 4605TIP3    H113692   7.834   4.749   0.974
 4605TIP3    H213693   7.793   4.878   0.908
 4606TIP3   OH213694   7.054   3.382   2.771
 4606TIP3    H113695   7.019   3.312   2.829
 4606TIP3    H213696   7.148   3.382   2.799
 4607TIP3   OH213697   7.303   3.379   2.892
 4607TIP3    H113698   7.388   3.353   2.852
 4607TIP3    H213699   7.290   3.308   2.958
 4608TIP3   OH213700   8.128   3.440   2.679
 4608TIP3    H113701   8.148   3.408   2.770
 4608TIP3    H213702   8.216   3.436   2.636
 4609TIP3   OH213703   8.068   4.993   2.171
 4609TIP3    H113704   7.989   4.961   2.123
 4609TIP3    H213705   8.048   5.088   2.175
 4610TIP3   OH213706   8.634   4.257   1.680
 4610TIP3    H113707   8.665   4.191   1.745
 4610TIP3    H213708   8.703   4.324   1.687
 4611TIP3   OH213709   8.596   4.671   1.415
 4611TIP3    H113710   8.593   4.573   1.417
 4611TIP3    H213711   8.691   4.685   1.400
 4612TIP3   OH213712   8.308   3.875   1.195
 4612TIP3    H113713   8.258   3.957   1.208
 4612TIP3    H213714   8.239   3.818   1.157
 4613TIP3   OH213715   8.372   4.162   1.366
 4613TIP3    H113716   8.418   4.083   1.402
 4613TIP3    H213717   8.424   4.181   1.287
 4614TIP3   OH213718   9.121   5.068   1.027
 4614TIP3    H113719   9.198   5.087   0.970
 4614TIP3    H213720   9.160   5.077   1.115
 4615TIP3   OH213721   9.075   4.596   1.370
 4615TIP3    H113722   9.085   4.546   1.287
 4615TIP3    H213723   9.169   4.600   1.396
 4616TIP3   OH213724   8.864   3.759   1.377
 4616TIP3    H113725   8.862   3.819   1.300
 4616TIP3    H213726   8.840   3.675   1.333
 4617TIP3   OH213727   8.514   3.955   1.470
 4617TIP3    H113728   8.595   3.932   1.520
 4617TIP3    H213729   8.527   3.898   1.391
 4618TIP3   OH213730   8.919   4.170   1.254
 4618TIP3    H113731   9.014   4.152   1.266
 4618TIP3    H213732   8.885   4.083   1.224
 4619TIP3   OH213733   8.869   3.734   1.809
 4619TIP3    H113734   8.810   3.768   1.740
 4619TIP3    H213735   8.816   3.752   1.889
 4620TIP3   OH213736   8.981   4.504   1.615
 4620TIP3    H113737   8.917   4.569   1.653
 4620TIP3    H213738   9.011   4.554   1.536
 4621TIP3   OH213739   8.741   3.854   1.593
 4621TIP3    H113740   8.811   3.920   1.613
 4621TIP3    H213741   8.784   3.809   1.515
 4622TIP3   OH213742   8.809   4.703   1.693
 4622TIP3    H113743   8.784   4.789   1.653
 4622TIP3    H213744   8.730   4.689   1.749
 4623TIP3   OH213745   8.207   4.393   0.932
 4623TIP3    H113746   8.163   4.416   0.847
 4623TIP3    H213747   8.236   4.481   0.964
 4624TIP3   OH213748   8.720   4.315   1.143
 4624TIP3    H113749   8.681   4.253   1.077
 4624TIP3    H213750   8.794   4.260   1.177
 4625TIP3   OH213751   8.844   4.724   1.295
 4625TIP3    H113752   8.827   4.679   1.210
 4625TIP3    H213753   8.927   4.681   1.327
 4626TIP3   OH213754   8.896   4.264   1.516
 4626TIP3    H113755   8.900   4.253   1.419
 4626TIP3    H213756   8.919   4.359   1.530
 4627TIP3   OH213757   9.014   4.826   1.837
 4627TIP3    H113758   8.953   4.888   1.884
 4627TIP3    H213759   8.950   4.773   1.786
 4628TIP3   OH213760   8.768   4.383   1.934
 4628TIP3    H113761   8.773   4.469   1.981
 4628TIP3    H213762   8.674   4.361   1.949
 4629TIP3   OH213763   9.080   4.859   0.853
 4629TIP3    H113764   9.104   4.920   0.927
 4629TIP3    H213765   8.999   4.902   0.824
 4630TIP3   OH213766   8.811   4.994   1.922
 4630TIP3    H113767   8.775   4.992   1.832
 4630TIP3    H213768   8.732   4.972   1.976
 4631TIP3   OH213769   8.609   4.137   0.962
 4631TIP3    H113770   8.539   4.180   0.907
 4631TIP3    H213771   8.572   4.049   0.975
 4632TIP3   OH213772   8.391   4.522   1.869
 4632TIP3    H113773   8.325   4.501   1.800
 4632TIP3    H213774   8.427   4.434   1.893
 4633TIP3   OH213775   8.245   4.714   1.505
 4633TIP3    H113776   8.341   4.712   1.493
 4633TIP3    H213777   8.233   4.796   1.555
 4634TIP3   OH213778   9.201   4.954   1.686
 4634TIP3    H113779   9.208   5.045   1.723
 4634TIP3    H213780   9.134   4.914   1.745
 4635TIP3   OH213781   8.415   4.933   1.025
 4635TIP3    H113782   8.461   4.922   1.112
 4635TIP3    H213783   8.356   4.856   1.027
 4636TIP3   OH213784   8.595   4.706   1.859
 4636TIP3    H113785   8.644   4.689   1.942
 4636TIP3    H213786   8.521   4.642   1.867
 4637TIP3   OH213787   8.990   3.549   1.650
 4637TIP3    H113788   8.910   3.506   1.617
 4637TIP3    H213789   8.952   3.618   1.707
 4638TIP3   OH213790   8.929   4.044   1.661
 4638TIP3    H113791   8.871   4.057   1.739
 4638TIP3    H213792   8.907   4.122   1.605
 4639TIP3   OH213793   8.808   3.935   1.173
 4639TIP3    H113794   8.719   3.901   1.197
 4639TIP3    H213795   8.814   3.900   1.081
 4640TIP3   OH213796   8.756   4.074   1.871
 4640TIP3    H113797   8.760   4.133   1.948
 4640TIP3    H213798   8.742   3.987   1.915
 4641TIP3   OH213799   8.772   3.572   0.577
 4641TIP3    H113800   8.757   3.546   0.669
 4641TIP3    H213801   8.686   3.607   0.550
 4642TIP3   OH213802   8.340   3.597   1.448
 4642TIP3    H113803   8.414   3.629   1.504
 4642TIP3    H213804   8.384   3.563   1.369
 4643TIP3   OH213805   8.312   3.578   0.969
 4643TIP3    H113806   8.357   3.617   0.891
 4643TIP3    H213807   8.251   3.651   0.991
 4644TIP3   OH213808   8.572   3.810   1.244
 4644TIP3    H113809   8.478   3.813   1.216
 4644TIP3    H213810   8.600   3.719   1.223
 4645TIP3   OH213811   8.806   3.837   0.920
 4645TIP3    H113812   8.892   3.818   0.878
 4645TIP3    H213813   8.747   3.846   0.842
 4646TIP3   OH213814   8.659   3.848   0.697
 4646TIP3    H113815   8.594   3.797   0.646
 4646TIP3    H213816   8.727   3.866   0.629
 4647TIP3   OH213817   8.758   4.627   2.078
 4647TIP3    H113818   8.836   4.658   2.128
 4647TIP3    H213819   8.692   4.626   2.150
 4648TIP3   OH213820   8.739   3.574   1.204
 4648TIP3    H113821   8.708   3.496   1.255
 4648TIP3    H213822   8.812   3.536   1.153
 4649TIP3   OH213823   8.887   4.395   0.711
 4649TIP3    H113824   8.841   4.309   0.713
 4649TIP3    H213825   8.914   4.407   0.804
 4650TIP3   OH213826   9.277   4.677   1.735
 4650TIP3    H113827   9.325   4.666   1.819
 4650TIP3    H213828   9.260   4.773   1.733
 4651TIP3   OH213829   8.636   4.398   1.398
 4651TIP3    H113830   8.658   4.367   1.308
 4651TIP3    H213831   8.653   4.320   1.453
 4652TIP3   OH213832   8.509   4.309   2.006
 4652TIP3    H113833   8.528   4.296   2.101
 4652TIP3    H213834   8.437   4.245   1.991
 4653TIP3   OH213835   9.202   4.389   2.051
 4653TIP3    H113836   9.119   4.353   2.010
 4653TIP3    H213837   9.260   4.313   2.034
 4654TIP3   OH213838   8.727   4.693   1.018
 4654TIP3    H113839   8.725   4.776   0.966
 4654TIP3    H213840   8.633   4.671   1.020
 4655TIP3   OH213841   8.289   4.001   0.718
 4655TIP3    H113842   8.337   4.083   0.741
 4655TIP3    H213843   8.214   4.005   0.782
 4656TIP3   OH213844   8.900   4.477   0.995
 4656TIP3    H113845   8.845   4.558   0.988
 4656TIP3    H213846   8.839   4.418   1.043
 4657TIP3   OH213847   8.996   5.036   1.488
 4657TIP3    H113848   9.034   5.109   1.435
 4657TIP3    H213849   9.074   5.006   1.539
 4658TIP3   OH213850   8.653   4.931   0.876
 4658TIP3    H113851   8.566   4.941   0.919
 4658TIP3    H213852   8.684   5.025   0.876
 4659TIP3   OH213853   8.717   3.821   2.020
 4659TIP3    H113854   8.621   3.816   2.030
 4659TIP3    H213855   8.748   3.757   2.087
 4660TIP3   OH213856   8.436   4.903   1.647
 4660TIP3    H113857   8.487   4.826   1.678
 4660TIP3    H213858   8.463   4.970   1.710
 4661TIP3   OH213859   8.636   4.546   0.671
 4661TIP3    H113860   8.726   4.507   0.670
 4661TIP3    H213861   8.654   4.639   0.647
 4662TIP3   OH213862   8.404   4.241   0.814
 4662TIP3    H113863   8.338   4.290   0.867
 4662TIP3    H213864   8.422   4.306   0.744
 4663TIP3   OH213865   8.613   4.818   0.623
 4663TIP3    H113866   8.671   4.880   0.574
 4663TIP3    H213867   8.624   4.853   0.714
 4664TIP3   OH213868   8.780   3.548   0.856
 4664TIP3    H113869   8.752   3.625   0.909
 4664TIP3    H213870   8.867   3.581   0.823
 4665TIP3   OH213871   8.379   4.478   0.619
 4665TIP3    H113872   8.456   4.527   0.654
 4665TIP3    H213873   8.428   4.405   0.575
 4666TIP3   OH213874   8.346   3.733   0.748
 4666TIP3    H113875   8.341   3.830   0.741
 4666TIP3    H213876   8.270   3.704   0.696
 4667TIP3   OH213877   8.721   3.454   1.619
 4667TIP3    H113878   8.697   3.416   1.532
 4667TIP3    H213879   8.722   3.375   1.677
 4668TIP3   OH213880   8.273   4.668   1.001
 4668TIP3    H113881   8.198   4.700   1.053
 4668TIP3    H213882   8.250   4.706   0.913
 4669TIP3   OH213883   8.425   5.209   2.068
 4669TIP3    H113884   8.511   5.208   2.116
 4669TIP3    H213885   8.404   5.114   2.067
 4670TIP3   OH213886   8.909   5.179   2.109
 4670TIP3    H113887   9.001   5.155   2.124
 4670TIP3    H213888   8.883   5.116   2.038
 4671TIP3   OH213889   8.557   4.616   2.268
 4671TIP3    H113890   8.572   4.520   2.275
 4671TIP3    H213891   8.469   4.618   2.225
 4672TIP3   OH213892   8.505   4.256   0.537
 4672TIP3    H113893   8.570   4.238   0.607
 4672TIP3    H213894   8.564   4.241   0.461
 4673TIP3   OH213895   9.153   4.694   2.044
 4673TIP3    H113896   9.118   4.719   1.956
 4673TIP3    H213897   9.163   4.598   2.037
 4674TIP3   OH213898   8.680   4.346   2.249
 4674TIP3    H113899   8.757   4.289   2.233
 4674TIP3    H213900   8.702   4.382   2.337
 4675TIP3   OH213901   8.740   4.161   0.690
 4675TIP3    H113902   8.718   4.117   0.774
 4675TIP3    H213903   8.771   4.086   0.635
 4676TIP3   OH213904   9.011   4.268   1.892
 4676TIP3    H113905   8.927   4.307   1.925
 4676TIP3    H213906   8.985   4.249   1.801
 4677TIP3   OH213907   8.847   3.949   0.527
 4677TIP3    H113908   8.820   3.943   0.434
 4677TIP3    H213909   8.940   3.976   0.520
 4678TIP3   OH213910   9.092   4.028   2.060
 4678TIP3    H113911   9.157   3.955   2.052
 4678TIP3    H213912   9.079   4.054   1.968
 4679TIP3   OH213913   9.130   3.829   1.820
 4679TIP3    H113914   9.171   3.741   1.807
 4679TIP3    H213915   9.041   3.801   1.851
 4680TIP3   OH213916   9.211   4.355   1.658
 4680TIP3    H113917   9.266   4.435   1.672
 4680TIP3    H213918   9.123   4.399   1.660
 4681TIP3   OH213919   8.962   4.165   2.256
 4681TIP3    H113920   8.920   4.082   2.286
 4681TIP3    H213921   9.016   4.129   2.182
 4682TIP3   OH213922   8.853   3.919   2.325
 4682TIP3    H113923   8.861   3.831   2.282
 4682TIP3    H213924   8.886   3.899   2.414
 4683TIP3   OH213925   8.122   4.399   0.664
 4683TIP3    H113926   8.211   4.437   0.647
 4683TIP3    H213927   8.125   4.317   0.610
 4684TIP3   OH213928   8.042   5.023   1.058
 4684TIP3    H113929   7.977   4.959   1.022
 4684TIP3    H213930   8.088   4.965   1.124
 4685TIP3   OH213931   8.179   4.875   1.245
 4685TIP3    H113932   8.167   4.799   1.304
 4685TIP3    H213933   8.230   4.935   1.303
 4686TIP3   OH213934   8.368   4.279   1.618
 4686TIP3    H113935   8.364   4.248   1.525
 4686TIP3    H213936   8.465   4.279   1.633
 4687TIP3   OH213937   8.585   3.968   2.296
 4687TIP3    H113938   8.683   3.959   2.293
 4687TIP3    H213939   8.561   3.882   2.335
 4688TIP3   OH213940   8.541   3.661   1.626
 4688TIP3    H113941   8.601   3.584   1.634
 4688TIP3    H213942   8.606   3.733   1.621
 4689TIP3   OH213943   8.348   3.934   1.695
 4689TIP3    H113944   8.397   3.923   1.612
 4689TIP3    H213945   8.380   4.019   1.726
 4690TIP3   OH213946   8.331   3.432   1.196
 4690TIP3    H113947   8.238   3.433   1.223
 4690TIP3    H213948   8.330   3.493   1.118
 4691TIP3   OH213949   8.547   3.530   2.014
 4691TIP3    H113950   8.498   3.515   2.096
 4691TIP3    H213951   8.476   3.558   1.953
 4692TIP3   OH213952   8.593   4.941   2.089
 4692TIP3    H113953   8.500   4.915   2.072
 4692TIP3    H213954   8.601   4.924   2.184
 4693TIP3   OH213955   8.770   4.973   1.637
 4693TIP3    H113956   8.720   5.048   1.598
 4693TIP3    H213957   8.855   4.988   1.590
 4694TIP3   OH213958   9.230   5.224   1.767
 4694TIP3    H113959   9.251   5.218   1.863
 4694TIP3    H213960   9.308   5.271   1.735
 4695TIP3   OH213961   8.448   5.233   1.659
 4695TIP3    H113962   8.359   5.266   1.634
 4695TIP3    H213963   8.454   5.267   1.749
 4696TIP3   OH213964   8.685   5.211   1.518
 4696TIP3    H113965   8.598   5.224   1.563
 4696TIP3    H213966   8.664   5.243   1.428
 4697TIP3   OH213967   9.094   5.241   1.312
 4697TIP3    H113968   9.023   5.257   1.245
 4697TIP3    H213969   9.104   5.330   1.351
 4698TIP3   OH213970   9.358   5.203   1.357
 4698TIP3    H113971   9.261   5.198   1.343
 4698TIP3    H213972   9.379   5.287   1.315
 4699TIP3   OH213973   8.358   5.027   1.405
 4699TIP3    H113974   8.385   5.000   1.496
 4699TIP3    H213975   8.429   4.983   1.354
 4700TIP3   OH213976   8.549   4.898   1.261
 4700TIP3    H113977   8.566   4.814   1.310
 4700TIP3    H213978   8.640   4.935   1.255
 4701TIP3   OH213979   8.814   4.997   1.262
 4701TIP3    H113980   8.838   4.903   1.251
 4701TIP3    H213981   8.858   5.017   1.346
 4702TIP3   OH213982   8.636   3.367   1.363
 4702TIP3    H113983   8.543   3.337   1.365
 4702TIP3    H213984   8.680   3.279   1.368
 4703TIP3   OH213985   8.425   3.226   1.010
 4703TIP3    H113986   8.456   3.287   0.941
 4703TIP3    H213987   8.399   3.288   1.081
 4704TIP3   OH213988   8.146   4.796   0.805
 4704TIP3    H113989   8.061   4.764   0.770
 4704TIP3    H213990   8.139   4.889   0.775
 4705TIP3   OH213991   8.542   3.388   0.788
 4705TIP3    H113992   8.583   3.324   0.727
 4705TIP3    H213993   8.618   3.437   0.823
 4706TIP3   OH213994   8.824   3.642   2.236
 4706TIP3    H113995   8.801   3.571   2.298
 4706TIP3    H213996   8.921   3.630   2.234
 4707TIP3   OH213997   9.063   3.656   2.385
 4707TIP3    H113998   9.107   3.622   2.304
 4707TIP3    H213999   9.055   3.574   2.438
 4708TIP3   OH214000   8.234   4.817   0.506
 4708TIP3    H114001   8.242   4.879   0.580
 4708TIP3    H214002   8.326   4.807   0.477
 4709TIP3   OH214003  -0.016   4.894   3.148
 4709TIP3    H114004  -0.046   4.984   3.126
 4709TIP3    H214005  -0.089   4.842   3.110
 4710TIP3   OH214006  -0.003   4.894   3.517
 4710TIP3    H114007   0.022   4.859   3.604
 4710TIP3    H214008  -0.043   4.817   3.474
 4711TIP3   OH214009   0.272   5.174   3.221
 4711TIP3    H114010   0.220   5.115   3.277
 4711TIP3    H214011   0.245   5.262   3.249
 4712TIP3   OH214012  -0.098   5.649   3.217
 4712TIP3    H114013  -0.075   5.579   3.154
 4712TIP3    H214014  -0.136   5.595   3.288
 4713TIP3   OH214015  -0.220   5.067   3.543
 4713TIP3    H114016  -0.141   5.017   3.514
 4713TIP3    H214017  -0.180   5.146   3.580
 4714TIP3   OH214018   0.801   4.441   3.571
 4714TIP3    H114019   0.832   4.526   3.606
 4714TIP3    H214020   0.811   4.455   3.475
 4715TIP3   OH214021   0.190   4.622   3.608
 4715TIP3    H114022   0.244   4.543   3.625
 4715TIP3    H214023   0.172   4.611   3.512
 4716TIP3   OH214024  -0.431   4.276   3.576
 4716TIP3    H114025  -0.466   4.356   3.532
 4716TIP3    H214026  -0.467   4.208   3.516
 4717TIP3   OH214027  -0.386   4.690   3.485
 4717TIP3    H114028  -0.293   4.660   3.486
 4717TIP3    H214029  -0.430   4.615   3.439
 4718TIP3   OH214030   0.878   4.652   3.739
 4718TIP3    H114031   0.794   4.698   3.719
 4718TIP3    H214032   0.885   4.671   3.833
 4719TIP3   OH214033  -0.127   5.109   3.014
 4719TIP3    H114034  -0.131   5.093   2.919
 4719TIP3    H214035  -0.105   5.203   3.016
 4720TIP3   OH214036   0.311   5.452   3.386
 4720TIP3    H114037   0.221   5.433   3.421
 4720TIP3    H214038   0.292   5.529   3.329
 4721TIP3   OH214039   0.589   4.342   3.732
 4721TIP3    H114040   0.502   4.366   3.697
 4721TIP3    H214041   0.649   4.372   3.661
 4722TIP3   OH214042  -0.112   3.981   3.712
 4722TIP3    H114043  -0.116   3.885   3.731
 4722TIP3    H214044  -0.181   4.014   3.772
 4723TIP3   OH214045   0.537   5.352   3.710
 4723TIP3    H114046   0.515   5.272   3.658
 4723TIP3    H214047   0.502   5.423   3.652
 4724TIP3   OH214048  -0.180   4.745   2.971
 4724TIP3    H114049  -0.257   4.799   2.945
 4724TIP3    H214050  -0.128   4.743   2.889
 4725TIP3   OH214051  -0.222   4.532   2.695
 4725TIP3    H114052  -0.154   4.583   2.743
 4725TIP3    H214053  -0.163   4.474   2.642
 4726TIP3   OH214054   0.724   4.997   3.562
 4726TIP3    H114055   0.637   5.043   3.564
 4726TIP3    H214056   0.750   5.011   3.469
 4727TIP3   OH214057   0.168   4.826   2.949
 4727TIP3    H114058   0.117   4.853   3.029
 4727TIP3    H214059   0.251   4.795   2.990
 4728TIP3   OH214060   0.401   4.870   3.854
 4728TIP3    H114061   0.396   4.953   3.905
 4728TIP3    H214062   0.316   4.874   3.806
 4729TIP3   OH214063  -0.456   4.786   3.727
 4729TIP3    H114064  -0.422   4.756   3.641
 4729TIP3    H214065  -0.417   4.875   3.735
 4730TIP3   OH214066   0.063   5.436   3.490
 4730TIP3    H114067   0.051   5.511   3.551
 4730TIP3    H214068   0.048   5.358   3.548
 4731TIP3   OH214069   0.006   4.693   2.772
 4731TIP3    H114070   0.068   4.748   2.824
 4731TIP3    H214071   0.034   4.714   2.679
 4732TIP3   OH214072  -0.273   5.417   3.064
 4732TIP3    H114073  -0.185   5.396   3.027
 4732TIP3    H214074  -0.308   5.470   2.989
 4733TIP3   OH214075   0.526   3.932   2.818
 4733TIP3    H114076   0.444   3.950   2.869
 4733TIP3    H214077   0.536   4.016   2.769
 4734TIP3   OH214078   0.319   5.296   2.358
 4734TIP3    H114079   0.329   5.393   2.350
 4734TIP3    H214080   0.412   5.267   2.350
 4735TIP3   OH214081  -0.364   5.599   2.866
 4735TIP3    H114082  -0.350   5.569   2.774
 4735TIP3    H214083  -0.324   5.687   2.865
 4736TIP3   OH214084  -0.154   5.506   2.507
 4736TIP3    H114085  -0.105   5.443   2.450
 4736TIP3    H214086  -0.110   5.490   2.592
 4737TIP3   OH214087   0.656   4.830   4.034
 4737TIP3    H114088   0.577   4.842   3.979
 4737TIP3    H214089   0.673   4.735   4.023
 4738TIP3   OH214090  -0.359   4.065   3.850
 4738TIP3    H114091  -0.427   4.032   3.791
 4738TIP3    H214092  -0.352   4.158   3.823
 4739TIP3   OH214093   0.187   4.175   4.038
 4739TIP3    H114094   0.257   4.149   4.102
 4739TIP3    H214095   0.105   4.155   4.086
 4740TIP3   OH214096   0.424   4.605   3.957
 4740TIP3    H114097   0.374   4.601   4.042
 4740TIP3    H214098   0.401   4.692   3.922
 4741TIP3   OH214099   0.079   4.735   2.513
 4741TIP3    H114100   0.054   4.707   2.423
 4741TIP3    H214101   0.159   4.787   2.495
 4742TIP3   OH214102  -0.199   4.112   2.807
 4742TIP3    H114103  -0.225   4.114   2.901
 4742TIP3    H214104  -0.258   4.043   2.775
 4743TIP3   OH214105  -0.435   4.559   3.872
 4743TIP3    H114106  -0.472   4.600   3.951
 4743TIP3    H214107  -0.440   4.635   3.810
 4744TIP3   OH214108  -0.540   4.449   3.383
 4744TIP3    H114109  -0.633   4.467   3.366
 4744TIP3    H214110  -0.514   4.408   3.298
 4745TIP3   OH214111  -0.045   4.543   3.103
 4745TIP3    H114112  -0.093   4.616   3.058
 4745TIP3    H214113   0.020   4.518   3.035
 4746TIP3   OH214114   0.135   4.826   4.190
 4746TIP3    H114115   0.112   4.753   4.252
 4746TIP3    H214116   0.229   4.839   4.212
 4747TIP3   OH214117   0.121   4.571   3.343
 4747TIP3    H114118   0.064   4.593   3.267
 4747TIP3    H214119   0.181   4.508   3.297
 4748TIP3   OH214120  -0.487   4.089   2.814
 4748TIP3    H114121  -0.512   4.059   2.904
 4748TIP3    H214122  -0.573   4.108   2.774
 4749TIP3   OH214123   0.120   4.824   3.769
 4749TIP3    H114124   0.154   4.753   3.710
 4749TIP3    H214125   0.096   4.770   3.847
 4750TIP3   OH214126  -0.195   4.288   3.432
 4750TIP3    H114127  -0.272   4.290   3.493
 4750TIP3    H214128  -0.120   4.282   3.494
 4751TIP3   OH214129  -0.499   4.334   3.133
 4751TIP3    H114130  -0.402   4.348   3.126
 4751TIP3    H214131  -0.532   4.369   3.048
 4752TIP3   OH214132   0.293   4.366   3.653
 4752TIP3    H114133   0.239   4.372   3.735
 4752TIP3    H214134   0.242   4.304   3.599
 4753TIP3   OH214135  -0.678   4.389   2.908
 4753TIP3    H114136  -0.702   4.309   2.858
 4753TIP3    H214137  -0.607   4.424   2.849
 4754TIP3   OH214138   0.452   6.055   3.861
 4754TIP3    H114139   0.452   6.079   3.767
 4754TIP3    H214140   0.530   6.104   3.894
 4755TIP3   OH214141  -0.119   4.609   3.530
 4755TIP3    H114142  -0.045   4.579   3.473
 4755TIP3    H214143  -0.096   4.568   3.614
 4756TIP3   OH214144  -0.562   4.102   3.413
 4756TIP3    H114145  -0.629   4.031   3.428
 4756TIP3    H214146  -0.524   4.072   3.329
 4757TIP3   OH214147  -0.147   4.501   3.841
 4757TIP3    H114148  -0.232   4.547   3.839
 4757TIP3    H214149  -0.085   4.567   3.879
 4758TIP3   OH214150  -0.405   4.894   2.905
 4758TIP3    H114151  -0.484   4.836   2.905
 4758TIP3    H214152  -0.412   4.934   2.995
 4759TIP3   OH214153   0.487   5.137   3.552
 4759TIP3    H114154   0.508   5.182   3.468
 4759TIP3    H214155   0.403   5.090   3.529
 4760TIP3   OH214156   0.054   4.212   2.779
 4760TIP3    H114157  -0.043   4.202   2.789
 4760TIP3    H214158   0.070   4.306   2.804
 4761TIP3   OH214159  -0.014   5.238   3.920
 4761TIP3    H114160   0.009   5.205   4.007
 4761TIP3    H214161  -0.099   5.285   3.939
 4762TIP3   OH214162   0.121   4.456   2.873
 4762TIP3    H114163   0.204   4.462   2.925
 4762TIP3    H214164   0.114   4.544   2.832
 4763TIP3   OH214165  -0.257   5.039   2.728
 4763TIP3    H114166  -0.298   5.127   2.743
 4763TIP3    H214167  -0.306   4.986   2.794
 4764TIP3   OH214168  -0.101   4.959   4.236
 4764TIP3    H114169  -0.157   4.889   4.197
 4764TIP3    H214170  -0.012   4.930   4.206
 4765TIP3   OH214171   0.157   5.499   3.804
 4765TIP3    H114172   0.069   5.463   3.821
 4765TIP3    H214173   0.177   5.540   3.891
 4766TIP3   OH214174   0.579   4.549   2.701
 4766TIP3    H114175   0.502   4.506   2.658
 4766TIP3    H214176   0.565   4.640   2.669
 4767TIP3   OH214177   0.785   5.421   3.789
 4767TIP3    H114178   0.688   5.413   3.805
 4767TIP3    H214179   0.801   5.347   3.728
 4768TIP3   OH214180   0.276   5.366   2.636
 4768TIP3    H114181   0.208   5.329   2.694
 4768TIP3    H214182   0.271   5.310   2.557
 4769TIP3   OH214183   0.257   4.995   3.480
 4769TIP3    H114184   0.164   4.968   3.485
 4769TIP3    H214185   0.293   4.920   3.428
 4770TIP3   OH214186  -0.438   4.989   3.153
 4770TIP3    H114187  -0.425   5.083   3.170
 4770TIP3    H214188  -0.475   4.958   3.237
 4771TIP3   OH214189   0.053   5.212   3.651
 4771TIP3    H114190   0.035   5.208   3.748
 4771TIP3    H214191   0.120   5.144   3.639
 4772TIP3   OH214192   0.013   5.099   2.529
 4772TIP3    H114193   0.071   5.069   2.604
 4772TIP3    H214194  -0.073   5.077   2.567
 4773TIP3   OH214195   0.296   5.734   3.698
 4773TIP3    H114196   0.221   5.672   3.706
 4773TIP3    H214197   0.264   5.796   3.629
 4774TIP3   OH214198   0.356   5.572   2.350
 4774TIP3    H114199   0.396   5.648   2.304
 4774TIP3    H214200   0.277   5.616   2.386
 4775TIP3   OH214201   0.175   5.012   2.732
 4775TIP3    H114202   0.164   4.963   2.816
 4775TIP3    H214203   0.272   5.022   2.731
 4776TIP3   OH214204  -0.564   5.054   2.558
 4776TIP3    H114205  -0.542   4.968   2.515
 4776TIP3    H214206  -0.551   5.033   2.651
 4777TIP3   OH214207   0.199   4.422   3.911
 4777TIP3    H114208   0.289   4.453   3.931
 4777TIP3    H214209   0.195   4.336   3.960
 4778TIP3   OH214210   0.101   4.182   3.067
 4778TIP3    H114211   0.085   4.195   2.972
 4778TIP3    H214212   0.162   4.257   3.085
 4779TIP3   OH214213  -0.403   5.263   2.759
 4779TIP3    H114214  -0.483   5.300   2.797
 4779TIP3    H214215  -0.377   5.332   2.695
 4780TIP3   OH214216  -0.226   4.347   3.165
 4780TIP3    H114217  -0.156   4.414   3.143
 4780TIP3    H214218  -0.209   4.336   3.261
 4781TIP3   OH214219   0.046   4.663   3.975
 4781TIP3    H114220   0.073   4.713   4.055
 4781TIP3    H214221   0.102   4.583   3.980
 4782TIP3   OH214222  -0.064   4.073   3.267
 4782TIP3    H114223  -0.067   4.144   3.334
 4782TIP3    H214224  -0.003   4.114   3.201
 4783TIP3   OH214225  -0.526   4.056   3.089
 4783TIP3    H114226  -0.537   4.151   3.110
 4783TIP3    H214227  -0.428   4.051   3.083
 4784TIP3   OH214228   0.692   4.563   3.952
 4784TIP3    H114229   0.594   4.562   3.960
 4784TIP3    H214230   0.701   4.520   3.866
 4785TIP3   OH214231   0.338   4.764   3.346
 4785TIP3    H114232   0.272   4.692   3.342
 4785TIP3    H214233   0.415   4.718   3.388
 4786TIP3   OH214234   0.311   5.719   3.292
 4786TIP3    H114235   0.268   5.771   3.220
 4786TIP3    H214236   0.405   5.730   3.268
 4787TIP3   OH214237  -0.422   5.274   2.455
 4787TIP3    H114238  -0.470   5.198   2.494
 4787TIP3    H214239  -0.361   5.229   2.394
 4788TIP3   OH214240   0.207   5.614   4.050
 4788TIP3    H114241   0.203   5.540   4.115
 4788TIP3    H214242   0.286   5.663   4.081
 4789TIP3   OH214243  -0.018   5.323   2.356
 4789TIP3    H114244   0.020   5.258   2.417
 4789TIP3    H214245   0.045   5.322   2.282
 4790TIP3   OH214246  -0.164   5.237   4.262
 4790TIP3    H114247  -0.211   5.264   4.180
 4790TIP3    H214248  -0.153   5.141   4.249
 4791TIP3   OH214249  -0.292   4.987   2.463
 4791TIP3    H114250  -0.285   5.004   2.560
 4791TIP3    H214251  -0.291   4.889   2.462
 4792TIP3   OH214252   0.315   5.236   3.855
 4792TIP3    H114253   0.383   5.288   3.808
 4792TIP3    H214254   0.236   5.291   3.841
 4793TIP3   OH214255  -0.606   4.703   2.888
 4793TIP3    H114256  -0.616   4.653   2.969
 4793TIP3    H214257  -0.564   4.637   2.829
 4794TIP3   OH214258  -0.262   4.771   4.109
 4794TIP3    H114259  -0.343   4.824   4.111
 4794TIP3    H214260  -0.227   4.797   4.021
 4795TIP3   OH214261  -0.493   4.496   2.746
 4795TIP3    H114262  -0.521   4.498   2.651
 4795TIP3    H214263  -0.395   4.500   2.735
 4796TIP3   OH214264   0.184   5.161   4.247
 4796TIP3    H114265   0.266   5.141   4.202
 4796TIP3    H214266   0.182   5.097   4.320
 4797TIP3   OH214267   0.320   4.827   2.388
 4797TIP3    H114268   0.297   4.781   2.305
 4797TIP3    H214269   0.286   4.917   2.365
 4798TIP3   OH214270  -0.199   4.538   4.254
 4798TIP3    H114271  -0.210   4.464   4.192
 4798TIP3    H214272  -0.229   4.615   4.202
 4799TIP3   OH214273  -0.219   4.329   4.043
 4799TIP3    H114274  -0.176   4.379   3.969
 4799TIP3    H214275  -0.312   4.344   4.023
 4800TIP3   OH214276  -0.181   4.892   3.879
 4800TIP3    H114277  -0.090   4.880   3.846
 4800TIP3    H214278  -0.196   4.986   3.861
 4801TIP3   OH214279   0.404   4.844   4.305
 4801TIP3    H114280   0.450   4.759   4.311
 4801TIP3    H214281   0.472   4.902   4.268
 4802TIP3   OH214282   0.444   5.096   4.044
 4802TIP3    H114283   0.386   5.148   3.984
 4802TIP3    H214284   0.532   5.114   4.002
 4803TIP3   OH214285  -0.074   4.103   4.116
 4803TIP3    H114286  -0.126   4.184   4.092
 4803TIP3    H214287  -0.142   4.034   4.108
 4804TIP3   OH214288   0.053   4.610   4.335
 4804TIP3    H114289   0.042   4.602   4.431
 4804TIP3    H214290  -0.036   4.582   4.306
 4805TIP3   OH214291   0.292   4.562   4.189
 4805TIP3    H114292   0.216   4.560   4.251
 4805TIP3    H214293   0.365   4.529   4.246
 4806TIP3   OH214294   0.518   4.498   4.339
 4806TIP3    H114295   0.532   4.403   4.357
 4806TIP3    H214296   0.516   4.537   4.429
 4807TIP3   OH214297   0.019   4.114   4.374
 4807TIP3    H114298   0.088   4.044   4.369
 4807TIP3    H214299  -0.019   4.107   4.284
 4808TIP3   OH214300   0.085   4.328   4.533
 4808TIP3    H114301   0.063   4.257   4.469
 4808TIP3    H214302   0.010   4.391   4.523
 4809TIP3   OH214303   0.571   5.791   3.248
 4809TIP3    H114304   0.597   5.835   3.331
 4809TIP3    H214305   0.608   5.851   3.181
 4810TIP3   OH214306   0.611   5.812   3.540
 4810TIP3    H114307   0.561   5.728   3.529
 4810TIP3    H214308   0.610   5.820   3.638
 4811TIP3   OH214309   0.638   5.501   4.101
 4811TIP3    H114310   0.566   5.508   4.168
 4811TIP3    H214311   0.680   5.588   4.108
 4812TIP3   OH214312   0.458   5.014   2.725
 4812TIP3    H114313   0.529   5.076   2.699
 4812TIP3    H214314   0.496   4.973   2.806
 4813TIP3   OH214315   0.580   4.881   2.931
 4813TIP3    H114316   0.515   4.830   2.984
 4813TIP3    H214317   0.639   4.917   2.999
 4814TIP3   OH214318   0.643   5.272   3.369
 4814TIP3    H114319   0.687   5.201   3.318
 4814TIP3    H214320   0.627   5.340   3.302
 4815TIP3   OH214321   0.479   5.574   3.558
 4815TIP3    H114322   0.407   5.615   3.609
 4815TIP3    H214323   0.426   5.529   3.487
 4816TIP3   OH214324   0.521   4.793   2.571
 4816TIP3    H114325   0.447   4.795   2.506
 4816TIP3    H214326   0.493   4.865   2.630
 4817TIP3   OH214327   0.385   4.462   2.528
 4817TIP3    H114328   0.345   4.500   2.450
 4817TIP3    H214329   0.361   4.367   2.519
 4818TIP3   OH214330   0.405   4.727   3.077
 4818TIP3    H114331   0.398   4.629   3.081
 4818TIP3    H214332   0.387   4.748   3.171
 4819TIP3   OH214333   0.686   5.162   3.933
 4819TIP3    H114334   0.757   5.094   3.925
 4819TIP3    H214335   0.710   5.225   3.864
 4820TIP3   OH214336   0.872   4.969   3.950
 4820TIP3    H114337   0.797   4.917   3.987
 4820TIP3    H214338   0.945   4.905   3.964
 4821TIP3   OH214339   0.338   4.192   2.507
 4821TIP3    H114340   0.414   4.170   2.565
 4821TIP3    H214341   0.266   4.138   2.543
 4822TIP3   OH214342   0.553   4.656   3.471
 4822TIP3    H114343   0.640   4.665   3.427
 4822TIP3    H214344   0.578   4.676   3.563
 4823TIP3   OH214345   0.631   4.777   3.709
 4823TIP3    H114346   0.547   4.807   3.747
 4823TIP3    H214347   0.659   4.855   3.657
 4824TIP3   OH214348   1.072   4.361   4.252
 4824TIP3    H114349   1.133   4.296   4.210
 4824TIP3    H214350   1.047   4.417   4.176
 4825TIP3   OH214351   0.947   4.505   4.057
 4825TIP3    H114352   0.858   4.542   4.075
 4825TIP3    H214353   0.921   4.430   3.999
 4826TIP3   OH214354   0.583   4.142   2.636
 4826TIP3    H114355   0.627   4.068   2.589
 4826TIP3    H214356   0.652   4.212   2.635
 4827TIP3   OH214357   0.121   5.721   2.894
 4827TIP3    H114358   0.106   5.627   2.868
 4827TIP3    H214359   0.211   5.716   2.929
 4828TIP3   OH214360  -0.115   5.759   3.977
 4828TIP3    H114361  -0.072   5.748   4.064
 4828TIP3    H214362  -0.047   5.802   3.924
 4829TIP3   OH214363   0.059   5.914   3.825
 4829TIP3    H114364   0.123   5.849   3.793
 4829TIP3    H214365   0.111   5.964   3.891
 4830TIP3   OH214366   0.844   4.266   3.937
 4830TIP3    H114367   0.754   4.261   3.900
 4830TIP3    H214368   0.875   4.173   3.925
 4831TIP3   OH214369  -0.218   5.870   3.510
 4831TIP3    H114370  -0.278   5.823   3.448
 4831TIP3    H214371  -0.250   5.822   3.593
 4832TIP3   OH214372   0.037   5.716   3.565
 4832TIP3    H114373  -0.053   5.738   3.538
 4832TIP3    H214374   0.089   5.783   3.518
 4833TIP3   OH214375   0.243   5.906   3.481
 4833TIP3    H114376   0.230   5.988   3.429
 4833TIP3    H214377   0.268   5.842   3.411
 4834TIP3   OH214378   0.038   4.178   3.547
 4834TIP3    H114379   0.007   4.103   3.600
 4834TIP3    H214380   0.121   4.142   3.507
 4835TIP3   OH214381   0.568   4.057   3.462
 4835TIP3    H114382   0.620   4.106   3.394
 4835TIP3    H214383   0.484   4.105   3.461
 4836TIP3   OH214384   0.688   4.166   3.246
 4836TIP3    H114385   0.749   4.124   3.184
 4836TIP3    H214386   0.682   4.257   3.210
 4837TIP3   OH214387  -0.252   3.925   3.453
 4837TIP3    H114388  -0.199   3.973   3.389
 4837TIP3    H214389  -0.217   3.959   3.537
 4838TIP3   OH214390   0.269   4.070   3.444
 4838TIP3    H114391   0.299   4.047   3.355
 4838TIP3    H214392   0.263   3.981   3.487
 4839TIP3   OH214393   0.309   3.971   2.978
 4839TIP3    H114394   0.249   4.040   3.012
 4839TIP3    H214395   0.294   3.898   3.041
 4840TIP3   OH214396  -0.259   4.093   3.078
 4840TIP3    H114397  -0.196   4.056   3.143
 4840TIP3    H214398  -0.246   4.188   3.098
 4841TIP3   OH214399  -0.411   5.518   2.607
 4841TIP3    H114400  -0.322   5.521   2.565
 4841TIP3    H214401  -0.460   5.477   2.533
 4842TIP3   OH214402   0.315   5.634   2.659
 4842TIP3    H114403   0.300   5.537   2.658
 4842TIP3    H214404   0.251   5.664   2.592
 4843TIP3   OH214405  -0.250   4.141   4.566
 4843TIP3    H114406  -0.165   4.135   4.521
 4843TIP3    H214407  -0.233   4.086   4.644
 4844TIP3   OH214408   0.580   4.228   4.369
 4844TIP3    H114409   0.600   4.196   4.460
 4844TIP3    H214410   0.668   4.224   4.327
 4845TIP3   OH214411   0.535   5.795   3.832
 4845TIP3    H114412   0.452   5.750   3.808
 4845TIP3    H214413   0.501   5.882   3.858
 4846TIP3   OH214414   1.784   5.152   2.632
 4846TIP3    H114415   1.756   5.243   2.610
 4846TIP3    H214416   1.709   5.102   2.594
 4847TIP3   OH214417   1.778   5.156   3.011
 4847TIP3    H114418   1.814   5.122   3.095
 4847TIP3    H214419   1.743   5.074   2.971
 4848TIP3   OH214420   1.084   5.052   3.377
 4848TIP3    H114421   1.113   4.981   3.437
 4848TIP3    H214422   1.170   5.092   3.355
 4849TIP3   OH214423   2.022   5.458   2.690
 4849TIP3    H114424   2.018   5.382   2.750
 4849TIP3    H214425   2.059   5.527   2.747
 4850TIP3   OH214426   1.059   5.459   3.108
 4850TIP3    H114427   1.050   5.361   3.107
 4850TIP3    H214428   1.155   5.466   3.089
 4851TIP3   OH214429   0.764   4.670   2.888
 4851TIP3    H114430   0.706   4.747   2.894
 4851TIP3    H214431   0.699   4.601   2.867
 4852TIP3   OH214432   0.826   4.952   3.058
 4852TIP3    H114433   0.870   4.872   3.093
 4852TIP3    H214434   0.872   4.964   2.974
 4853TIP3   OH214435   1.677   5.916   2.708
 4853TIP3    H114436   1.721   5.847   2.655
 4853TIP3    H214437   1.675   5.874   2.795
 4854TIP3   OH214438   1.583   5.380   3.058
 4854TIP3    H114439   1.619   5.301   3.014
 4854TIP3    H214440   1.668   5.424   3.079
 4855TIP3   OH214441   2.595   4.698   3.054
 4855TIP3    H114442   2.624   4.780   3.098
 4855TIP3    H214443   2.621   4.716   2.962
 4856TIP3   OH214444   1.992   4.881   3.091
 4856TIP3    H114445   2.038   4.797   3.111
 4856TIP3    H214446   1.965   4.865   2.998
 4857TIP3   OH214447   1.331   4.540   3.055
 4857TIP3    H114448   1.312   4.612   2.992
 4857TIP3    H214449   1.285   4.466   3.010
 4858TIP3   OH214450   2.028   4.631   2.676
 4858TIP3    H114451   2.100   4.615   2.741
 4858TIP3    H214452   2.081   4.666   2.601
 4859TIP3   OH214453   0.966   4.742   3.162
 4859TIP3    H114454   1.050   4.719   3.208
 4859TIP3    H214455   0.974   4.684   3.083
 4860TIP3   OH214456   1.406   4.939   2.958
 4860TIP3    H114457   1.501   4.914   2.968
 4860TIP3    H214458   1.368   4.856   2.923
 4861TIP3   OH214459   2.667   4.902   3.228
 4861TIP3    H114460   2.585   4.953   3.210
 4861TIP3    H214461   2.695   4.941   3.313
 4862TIP3   OH214462   1.330   4.523   3.489
 4862TIP3    H114463   1.269   4.559   3.421
 4862TIP3    H214464   1.278   4.540   3.570
 4863TIP3   OH214465   1.674   5.371   2.501
 4863TIP3    H114466   1.637   5.351   2.414
 4863TIP3    H214467   1.631   5.457   2.522
 4864TIP3   OH214468   1.438   5.299   3.284
 4864TIP3    H114469   1.380   5.366   3.324
 4864TIP3    H214470   1.481   5.348   3.211
 4865TIP3   OH214471   2.237   4.632   2.849
 4865TIP3    H114472   2.233   4.583   2.932
 4865TIP3    H214473   2.293   4.708   2.873
 4866TIP3   OH214474   1.200   4.638   3.274
 4866TIP3    H114475   1.264   4.709   3.296
 4866TIP3    H214476   1.248   4.596   3.198
 4867TIP3   OH214477   1.264   5.488   3.394
 4867TIP3    H114478   1.223   5.565   3.351
 4867TIP3    H214479   1.188   5.442   3.433
 4868TIP3   OH214480   0.663   5.181   2.617
 4868TIP3    H114481   0.614   5.205   2.536
 4868TIP3    H214482   0.688   5.268   2.654
 4869TIP3   OH214483   2.097   5.698   2.861
 4869TIP3    H114484   2.006   5.689   2.897
 4869TIP3    H214485   2.089   5.783   2.813
 4870TIP3   OH214486   2.389   4.596   3.219
 4870TIP3    H114487   2.302   4.629   3.189
 4870TIP3    H214488   2.449   4.630   3.150
 4871TIP3   OH214489   1.687   4.242   3.202
 4871TIP3    H114490   1.674   4.147   3.220
 4871TIP3    H214491   1.610   4.279   3.249
 4872TIP3   OH214492   1.798   5.746   2.531
 4872TIP3    H114493   1.847   5.662   2.512
 4872TIP3    H214494   1.861   5.810   2.490
 4873TIP3   OH214495   1.939   5.531   2.438
 4873TIP3    H114496   1.916   5.449   2.392
 4873TIP3    H214497   1.975   5.495   2.523
 4874TIP3   OH214498   2.322   5.613   3.201
 4874TIP3    H114499   2.315   5.532   3.144
 4874TIP3    H214500   2.313   5.684   3.135
 4875TIP3   OH214501   1.616   5.006   2.458
 4875TIP3    H114502   1.537   5.056   2.433
 4875TIP3    H214503   1.665   5.001   2.374
 4876TIP3   OH214504   1.575   4.789   2.175
 4876TIP3    H114505   1.643   4.839   2.223
 4876TIP3    H214506   1.632   4.725   2.128
 4877TIP3   OH214507   2.511   5.232   3.031
 4877TIP3    H114508   2.437   5.294   3.046
 4877TIP3    H214509   2.545   5.266   2.946
 4878TIP3   OH214510   1.961   5.087   2.430
 4878TIP3    H114511   1.910   5.111   2.511
 4878TIP3    H214512   2.046   5.060   2.470
 4879TIP3   OH214513   2.198   5.126   3.342
 4879TIP3    H114514   2.198   5.209   3.392
 4879TIP3    H214515   2.112   5.132   3.296
 4880TIP3   OH214516   1.196   5.086   2.847
 4880TIP3    H114517   1.153   5.028   2.780
 4880TIP3    H214518   1.272   5.032   2.876
 4881TIP3   OH214519   1.322   5.492   2.998
 4881TIP3    H114520   1.303   5.453   2.912
 4881TIP3    H214521   1.413   5.460   3.015
 4882TIP3   OH214522   1.330   5.056   3.204
 4882TIP3    H114523   1.362   5.031   3.115
 4882TIP3    H214524   1.377   5.141   3.220
 4883TIP3   OH214525   1.853   5.696   2.978
 4883TIP3    H114526   1.845   5.772   3.038
 4883TIP3    H214527   1.843   5.619   3.038
 4884TIP3   OH214528   1.475   5.614   3.522
 4884TIP3    H114529   1.418   5.676   3.571
 4884TIP3    H214530   1.408   5.558   3.478
 4885TIP3   OH214531   1.802   4.946   2.256
 4885TIP3    H114532   1.863   5.003   2.309
 4885TIP3    H214533   1.830   4.970   2.164
 4886TIP3   OH214534   1.222   5.179   3.623
 4886TIP3    H114535   1.224   5.264   3.672
 4886TIP3    H214536   1.129   5.155   3.633
 4887TIP3   OH214537   1.544   5.628   2.535
 4887TIP3    H114538   1.626   5.678   2.548
 4887TIP3    H214539   1.487   5.692   2.491
 4888TIP3   OH214540   1.274   5.791   3.602
 4888TIP3    H114541   1.245   5.790   3.508
 4888TIP3    H214542   1.194   5.769   3.650
 4889TIP3   OH214543   2.320   4.186   2.304
 4889TIP3    H114544   2.239   4.206   2.355
 4889TIP3    H214545   2.332   4.270   2.255
 4890TIP3   OH214546   1.061   4.929   2.654
 4890TIP3    H114547   0.995   4.970   2.595
 4890TIP3    H214548   1.023   4.841   2.668
 4891TIP3   OH214549   2.119   5.553   1.853
 4891TIP3    H114550   2.129   5.650   1.838
 4891TIP3    H214551   2.211   5.523   1.840
 4892TIP3   OH214552   0.840   5.334   3.542
 4892TIP3    H114553   0.777   5.292   3.478
 4892TIP3    H214554   0.890   5.255   3.572
 4893TIP3   OH214555   0.714   5.516   3.236
 4893TIP3    H114556   0.785   5.506   3.171
 4893TIP3    H214557   0.673   5.602   3.215
 4894TIP3   OH214558   2.556   5.952   3.242
 4894TIP3    H114559   2.565   5.855   3.254
 4894TIP3    H214560   2.475   5.968   3.294
 4895TIP3   OH214561   1.669   5.744   3.380
 4895TIP3    H114562   1.666   5.836   3.414
 4895TIP3    H214563   1.599   5.702   3.434
 4896TIP3   OH214564   1.426   5.870   2.334
 4896TIP3    H114565   1.382   5.851   2.249
 4896TIP3    H214566   1.396   5.960   2.355
 4897TIP3   OH214567   0.866   5.721   2.717
 4897TIP3    H114568   0.914   5.708   2.802
 4897TIP3    H214569   0.812   5.640   2.714
 4898TIP3   OH214570   1.629   5.771   1.974
 4898TIP3    H114571   1.689   5.701   1.937
 4898TIP3    H214572   1.665   5.780   2.065
 4899TIP3   OH214573   1.679   5.820   2.245
 4899TIP3    H114574   1.592   5.828   2.289
 4899TIP3    H214575   1.731   5.777   2.314
 4900TIP3   OH214576   2.451   5.085   3.519
 4900TIP3    H114577   2.374   5.097   3.462
 4900TIP3    H214578   2.468   4.989   3.509
 4901TIP3   OH214579   1.448   4.318   3.330
 4901TIP3    H114580   1.359   4.286   3.305
 4901TIP3    H214581   1.423   4.400   3.376
 4902TIP3   OH214582   1.982   4.433   3.525
 4902TIP3    H114583   2.050   4.406   3.590
 4902TIP3    H214584   1.898   4.413   3.572
 4903TIP3   OH214585   2.218   4.859   3.441
 4903TIP3    H114586   2.172   4.858   3.528
 4903TIP3    H214587   2.199   4.949   3.408
 4904TIP3   OH214588   1.876   4.995   2.000
 4904TIP3    H114589   1.847   4.967   1.911
 4904TIP3    H214590   1.961   5.038   1.978
 4905TIP3   OH214591   1.592   4.369   2.302
 4905TIP3    H114592   1.561   4.366   2.394
 4905TIP3    H214593   1.555   4.285   2.269
 4906TIP3   OH214594   1.379   4.833   3.351
 4906TIP3    H114595   1.329   4.855   3.432
 4906TIP3    H214596   1.364   4.914   3.297
 4907TIP3   OH214597   1.262   4.721   2.864
 4907TIP3    H114598   1.170   4.693   2.881
 4907TIP3    H214599   1.276   4.679   2.776
 4908TIP3   OH214600   1.754   4.805   2.590
 4908TIP3    H114601   1.702   4.876   2.548
 4908TIP3    H214602   1.811   4.776   2.516
 4909TIP3   OH214603   1.928   5.086   3.681
 4909TIP3    H114604   1.907   5.012   3.741
 4909TIP3    H214605   2.023   5.098   3.699
 4910TIP3   OH214606   1.911   4.834   2.831
 4910TIP3    H114607   1.853   4.864   2.758
 4910TIP3    H214608   1.946   4.752   2.788
 4911TIP3   OH214609   1.195   4.864   3.560
 4911TIP3    H114610   1.233   4.920   3.629
 4911TIP3    H214611   1.184   4.779   3.606
 4912TIP3   OH214612   1.247   4.339   2.268
 4912TIP3    H114613   1.241   4.337   2.366
 4912TIP3    H214614   1.168   4.391   2.245
 4913TIP3   OH214615   0.804   4.396   3.120
 4913TIP3    H114616   0.872   4.416   3.189
 4913TIP3    H214617   0.851   4.338   3.059
 4914TIP3   OH214618   0.773   4.364   2.656
 4914TIP3    H114619   0.819   4.404   2.579
 4914TIP3    H214620   0.709   4.436   2.676
 4915TIP3   OH214621   1.918   5.081   3.254
 4915TIP3    H114622   1.952   5.009   3.196
 4915TIP3    H214623   1.892   5.028   3.332
 4916TIP3   OH214624   1.589   4.543   2.925
 4916TIP3    H114625   1.507   4.540   2.979
 4916TIP3    H214626   1.658   4.540   2.994
 4917TIP3   OH214627   1.025   4.598   2.933
 4917TIP3    H114628   0.930   4.606   2.908
 4917TIP3    H214629   1.045   4.505   2.913
 4918TIP3   OH214630   1.295   4.594   2.622
 4918TIP3    H114631   1.389   4.608   2.602
 4918TIP3    H214632   1.249   4.617   2.538
 4919TIP3   OH214633   2.082   4.619   3.129
 4919TIP3    H114634   2.045   4.630   3.219
 4919TIP3    H214635   2.018   4.557   3.090
 4920TIP3   OH214636   1.134   4.628   2.401
 4920TIP3    H114637   1.061   4.584   2.354
 4920TIP3    H214638   1.185   4.663   2.325
 4921TIP3   OH214639   2.283   6.349   3.366
 4921TIP3    H114640   2.220   6.341   3.292
 4921TIP3    H214641   2.361   6.372   3.312
 4922TIP3   OH214642   1.209   5.425   3.763
 4922TIP3    H114643   1.289   5.450   3.814
 4922TIP3    H214644   1.143   5.420   3.834
 4923TIP3   OH214645   1.673   4.869   3.022
 4923TIP3    H114646   1.746   4.831   2.970
 4923TIP3    H214647   1.685   4.826   3.109
 4924TIP3   OH214648   1.199   4.357   2.902
 4924TIP3    H114649   1.164   4.278   2.947
 4924TIP3    H214650   1.250   4.318   2.829
 4925TIP3   OH214651   1.651   4.764   3.314
 4925TIP3    H114652   1.561   4.801   3.327
 4925TIP3    H214653   1.709   4.825   3.364
 4926TIP3   OH214654   1.385   5.160   2.406
 4926TIP3    H114655   1.314   5.092   2.396
 4926TIP3    H214656   1.368   5.192   2.498
 4927TIP3   OH214657   2.287   5.396   3.039
 4927TIP3    H114658   2.314   5.442   2.956
 4927TIP3    H214659   2.204   5.352   3.012
 4928TIP3   OH214660   1.845   4.471   2.267
 4928TIP3    H114661   1.749   4.456   2.277
 4928TIP3    H214662   1.858   4.565   2.293
 4929TIP3   OH214663   1.786   5.475   3.404
 4929TIP3    H114664   1.812   5.449   3.493
 4929TIP3    H214665   1.748   5.563   3.416
 4930TIP3   OH214666   1.918   4.717   2.372
 4930TIP3    H114667   2.015   4.721   2.388
 4930TIP3    H214668   1.903   4.796   2.318
 4931TIP3   OH214669   1.082   5.186   3.084
 4931TIP3    H114670   1.116   5.155   2.997
 4931TIP3    H214671   1.113   5.116   3.143
 4932TIP3   OH214672   1.531   5.307   2.226
 4932TIP3    H114673   1.484   5.393   2.234
 4932TIP3    H214674   1.478   5.251   2.287
 4933TIP3   OH214675   0.945   5.124   3.698
 4933TIP3    H114676   0.976   5.094   3.786
 4933TIP3    H214677   0.889   5.049   3.671
 4934TIP3   OH214678   1.685   5.214   3.716
 4934TIP3    H114679   1.627   5.154   3.666
 4934TIP3    H214680   1.773   5.180   3.690
 4935TIP3   OH214681   1.947   5.747   3.296
 4935TIP3    H114682   1.852   5.734   3.309
 4935TIP3    H214683   1.972   5.791   3.380
 4936TIP3   OH214684   2.329   4.782   2.229
 4936TIP3    H114685   2.276   4.762   2.148
 4936TIP3    H214686   2.377   4.861   2.200
 4937TIP3   OH214687   2.574   5.674   3.284
 4937TIP3    H114688   2.477   5.658   3.278
 4937TIP3    H214689   2.603   5.635   3.199
 4938TIP3   OH214690   2.053   5.626   2.116
 4938TIP3    H114691   2.037   5.554   2.178
 4938TIP3    H214692   2.070   5.579   2.032
 4939TIP3   OH214693   2.052   5.256   2.958
 4939TIP3    H114694   1.959   5.229   2.968
 4939TIP3    H214695   2.089   5.177   2.913
 4940TIP3   OH214696   1.179   5.486   2.715
 4940TIP3    H114697   1.182   5.564   2.657
 4940TIP3    H214698   1.085   5.461   2.709
 4941TIP3   OH214699   0.742   4.787   2.410
 4941TIP3    H114700   0.789   4.870   2.432
 4941TIP3    H214701   0.665   4.792   2.472
 4942TIP3   OH214702   1.317   5.250   2.652
 4942TIP3    H114703   1.285   5.339   2.675
 4942TIP3    H214704   1.283   5.198   2.727
 4943TIP3   OH214705   1.446   5.825   3.180
 4943TIP3    H114706   1.488   5.897   3.128
 4943TIP3    H214707   1.524   5.789   3.226
 4944TIP3   OH214708   1.099   5.722   2.561
 4944TIP3    H114709   1.013   5.731   2.606
 4944TIP3    H214710   1.131   5.815   2.563
 4945TIP3   OH214711   1.840   5.464   3.135
 4945TIP3    H114712   1.831   5.457   3.232
 4945TIP3    H214713   1.917   5.407   3.118
 4946TIP3   OH214714   1.812   5.354   2.020
 4946TIP3    H114715   1.867   5.330   2.098
 4946TIP3    H214716   1.725   5.325   2.051
 4947TIP3   OH214717   2.081   6.009   3.197
 4947TIP3    H114718   2.012   5.941   3.189
 4947TIP3    H214719   2.067   6.061   3.115
 4948TIP3   OH214720   2.152   5.829   1.839
 4948TIP3    H114721   2.192   5.902   1.789
 4948TIP3    H214722   2.071   5.875   1.871
 4949TIP3   OH214723   1.170   4.607   3.704
 4949TIP3    H114724   1.073   4.610   3.717
 4949TIP3    H214725   1.197   4.546   3.774
 4950TIP3   OH214726   1.971   5.291   2.239
 4950TIP3    H114727   1.962   5.222   2.307
 4950TIP3    H214728   2.068   5.287   2.223
 4951TIP3   OH214729   1.176   5.335   2.018
 4951TIP3    H114730   1.193   5.244   1.989
 4951TIP3    H214731   1.158   5.321   2.113
 4952TIP3   OH214732   1.123   5.339   2.292
 4952TIP3    H114733   1.197   5.309   2.346
 4952TIP3    H214734   1.130   5.437   2.299
 4953TIP3   OH214735   0.861   5.032   2.493
 4953TIP3    H114736   0.794   5.076   2.550
 4953TIP3    H214737   0.875   5.102   2.426
 4954TIP3   OH214738   2.004   4.672   3.388
 4954TIP3    H114739   2.087   4.709   3.422
 4954TIP3    H214740   1.993   4.590   3.442
 4955TIP3   OH214741   1.887   4.423   2.550
 4955TIP3    H114742   1.876   4.446   2.456
 4955TIP3    H214743   1.928   4.504   2.586
 4956TIP3   OH214744   1.389   5.537   2.240
 4956TIP3    H114745   1.302   5.566   2.275
 4956TIP3    H214746   1.406   5.606   2.176
 4957TIP3   OH214747   1.577   4.600   2.652
 4957TIP3    H114748   1.643   4.671   2.634
 4957TIP3    H214749   1.583   4.593   2.750
 4958TIP3   OH214750   1.846   4.919   3.462
 4958TIP3    H114751   1.869   4.970   3.542
 4958TIP3    H214752   1.902   4.840   3.471
 4959TIP3   OH214753   1.723   4.328   2.755
 4959TIP3    H114754   1.718   4.404   2.816
 4959TIP3    H214755   1.783   4.365   2.686
 4960TIP3   OH214756   1.132   5.613   2.306
 4960TIP3    H114757   1.101   5.682   2.243
 4960TIP3    H214758   1.116   5.656   2.393
 4961TIP3   OH214759   1.234   4.325   2.545
 4961TIP3    H114760   1.231   4.415   2.582
 4961TIP3    H214761   1.330   4.307   2.553
 4962TIP3   OH214762   2.487   4.818   3.446
 4962TIP3    H114763   2.389   4.814   3.447
 4962TIP3    H214764   2.505   4.788   3.356
 4963TIP3   OH214765   2.138   5.016   2.833
 4963TIP3    H114766   2.065   4.952   2.841
 4963TIP3    H214767   2.211   4.969   2.878
 4964TIP3   OH214768   0.851   5.244   2.299
 4964TIP3    H114769   0.919   5.313   2.308
 4964TIP3    H214770   0.895   5.188   2.232
 4965TIP3   OH214771   0.799   4.518   2.427
 4965TIP3    H114772   0.795   4.616   2.427
 4965TIP3    H214773   0.707   4.495   2.406
 4966TIP3   OH214774   2.105   5.971   2.780
 4966TIP3    H114775   2.063   6.018   2.705
 4966TIP3    H214776   2.199   5.989   2.760
 4967TIP3   OH214777   1.184   4.237   3.307
 4967TIP3    H114778   1.152   4.204   3.220
 4967TIP3    H214779   1.173   4.159   3.364
 4968TIP3   OH214780   0.725   5.470   2.693
 4968TIP3    H114781   0.641   5.489   2.736
 4968TIP3    H214782   0.704   5.499   2.602
 4969TIP3   OH214783   0.882   5.990   3.768
 4969TIP3    H114784   0.970   6.002   3.812
 4969TIP3    H214785   0.849   5.911   3.812
 4970TIP3   OH214786   1.361   5.966   3.802
 4970TIP3    H114787   1.454   5.946   3.820
 4970TIP3    H214788   1.346   5.911   3.723
 4971TIP3   OH214789   1.342   5.538   1.933
 4971TIP3    H114790   1.285   5.466   1.970
 4971TIP3    H214791   1.417   5.486   1.900
 4972TIP3   OH214792   1.997   5.871   3.540
 4972TIP3    H114793   1.985   5.797   3.605
 4972TIP3    H214794   2.082   5.909   3.568
 4973TIP3   OH214795   1.778   5.579   1.842
 4973TIP3    H114796   1.821   5.516   1.902
 4973TIP3    H214797   1.836   5.578   1.764
 4974TIP3   OH214798   1.011   5.405   3.959
 4974TIP3    H114799   1.029   5.309   3.965
 4974TIP3    H214800   0.923   5.407   3.917
 4975TIP3   OH214801   0.985   5.056   2.152
 4975TIP3    H114802   1.039   5.020   2.224
 4975TIP3    H214803   1.053   5.060   2.081
 4976TIP3   OH214804   1.617   5.487   3.733
 4976TIP3    H114805   1.579   5.501   3.644
 4976TIP3    H214806   1.650   5.395   3.728
 4977TIP3   OH214807   1.491   5.253   1.958
 4977TIP3    H114808   1.497   5.265   2.054
 4977TIP3    H214809   1.493   5.154   1.953
 4978TIP3   OH214810   2.109   5.497   3.340
 4978TIP3    H114811   2.185   5.539   3.294
 4978TIP3    H214812   2.039   5.562   3.320
 4979TIP3   OH214813   1.129   5.140   3.937
 4979TIP3    H114814   1.201   5.077   3.920
 4979TIP3    H214815   1.154   5.171   4.027
 4980TIP3   OH214816   1.195   4.958   2.375
 4980TIP3    H114817   1.168   4.916   2.458
 4980TIP3    H214818   1.231   4.883   2.324
 4981TIP3   OH214819   1.460   5.023   3.602
 4981TIP3    H114820   1.385   5.086   3.604
 4981TIP3    H214821   1.512   5.056   3.525
 4982TIP3   OH214822   1.294   4.752   2.215
 4982TIP3    H114823   1.269   4.754   2.120
 4982TIP3    H214824   1.392   4.757   2.208
 4983TIP3   OH214825   1.981   5.426   3.736
 4983TIP3    H114826   2.061   5.401   3.687
 4983TIP3    H214827   1.978   5.358   3.805
 4984TIP3   OH214828   2.110   5.085   1.877
 4984TIP3    H114829   2.093   5.037   1.794
 4984TIP3    H214830   2.079   5.175   1.850
 4985TIP3   OH214831   1.584   4.810   3.730
 4985TIP3    H114832   1.587   4.730   3.675
 4985TIP3    H214833   1.542   4.875   3.670
 4986TIP3   OH214834   1.588   4.598   3.537
 4986TIP3    H114835   1.617   4.637   3.452
 4986TIP3    H214836   1.495   4.574   3.517
 4987TIP3   OH214837   1.617   5.133   3.410
 4987TIP3    H114838   1.700   5.136   3.361
 4987TIP3    H214839   1.563   5.201   3.363
 4988TIP3   OH214840   2.200   5.101   3.791
 4988TIP3    H114841   2.246   5.016   3.801
 4988TIP3    H214842   2.271   5.156   3.754
 4989TIP3   OH214843   2.242   5.354   3.527
 4989TIP3    H114844   2.186   5.407   3.466
 4989TIP3    H214845   2.331   5.371   3.488
 4990TIP3   OH214846   1.461   4.926   3.957
 4990TIP3    H114847   1.394   4.855   3.972
 4990TIP3    H214848   1.498   4.898   3.871
 4991TIP3   OH214849   1.721   4.361   3.602
 4991TIP3    H114850   1.672   4.443   3.580
 4991TIP3    H214851   1.652   4.293   3.590
 4992TIP3   OH214852   1.846   4.868   3.819
 4992TIP3    H114853   1.837   4.853   3.915
 4992TIP3    H214854   1.756   4.841   3.791
 4993TIP3   OH214855   2.087   4.818   3.675
 4993TIP3    H114856   2.012   4.816   3.737
 4993TIP3    H214857   2.161   4.786   3.730
 4994TIP3   OH214858   2.312   4.754   3.825
 4994TIP3    H114859   2.327   4.659   3.844
 4994TIP3    H214860   2.311   4.794   3.915
 4995TIP3   OH214861   1.304   4.704   4.011
 4995TIP3    H114862   1.310   4.613   3.975
 4995TIP3    H214863   1.341   4.690   4.101
 4996TIP3   OH214864   1.815   4.371   3.859
 4996TIP3    H114865   1.883   4.301   3.855
 4996TIP3    H214866   1.776   4.364   3.770
 4997TIP3   OH214867   1.881   4.586   4.019
 4997TIP3    H114868   1.859   4.514   3.955
 4997TIP3    H214869   1.803   4.645   4.012
 4998TIP3   OH214870   1.102   5.817   2.120
 4998TIP3    H114871   1.197   5.811   2.101
 4998TIP3    H214872   1.072   5.864   2.040
 4999TIP3   OH214873   0.581   5.197   2.335
 4999TIP3    H114874   0.676   5.219   2.322
 4999TIP3    H214875   0.576   5.108   2.294
 5000TIP3   OH214876   0.493   5.816   2.749
 5000TIP3    H114877   0.429   5.753   2.708
 5000TIP3    H214878   0.538   5.757   2.813
 5001TIP3   OH214879   0.625   5.669   2.934
 5001TIP3    H114880   0.615   5.585   2.980
 5001TIP3    H214881   0.684   5.720   2.993
 5002TIP3   OH214882   2.355   6.068   2.736
 5002TIP3    H114883   2.391   6.098   2.821
 5002TIP3    H214884   2.423   6.099   2.673
 5003TIP3   OH214885   2.389   6.081   3.023
 5003TIP3    H114886   2.346   5.994   3.013
 5003TIP3    H214887   2.469   6.054   3.071
 5004TIP3   OH214888   2.428   5.766   3.585
 5004TIP3    H114889   2.362   5.766   3.657
 5004TIP3    H214890   2.476   5.849   3.599
 5005TIP3   OH214891   2.246   5.277   2.208
 5005TIP3    H114892   2.320   5.333   2.179
 5005TIP3    H214893   2.284   5.238   2.290
 5006TIP3   OH214894   2.364   5.160   2.418
 5006TIP3    H114895   2.315   5.093   2.470
 5006TIP3    H214896   2.449   5.166   2.467
 5007TIP3   OH214897   2.427   5.527   2.842
 5007TIP3    H114898   2.484   5.461   2.797
 5007TIP3    H214899   2.424   5.599   2.778
 5008TIP3   OH214900   2.265   5.833   3.039
 5008TIP3    H114901   2.189   5.861   3.092
 5008TIP3    H214902   2.221   5.780   2.968
 5009TIP3   OH214903   2.318   5.050   2.056
 5009TIP3    H114904   2.242   5.053   1.994
 5009TIP3    H214905   2.291   5.119   2.119
 5010TIP3   OH214906   2.175   4.719   2.010
 5010TIP3    H114907   2.147   4.756   1.927
 5010TIP3    H214908   2.153   4.624   1.999
 5011TIP3   OH214909   2.187   4.991   2.559
 5011TIP3    H114910   2.204   4.895   2.551
 5011TIP3    H214911   2.180   5.003   2.656
 5012TIP3   OH214912   0.820   5.070   3.307
 5012TIP3    H114913   0.818   5.037   3.214
 5012TIP3    H214914   0.917   5.069   3.323
 5013TIP3   OH214915   2.487   5.416   3.415
 5013TIP3    H114916   2.563   5.353   3.413
 5013TIP3    H214917   2.516   5.479   3.348
 5014TIP3   OH214918   2.675   5.231   3.485
 5014TIP3    H114919   2.596   5.174   3.496
 5014TIP3    H214920   2.743   5.164   3.464
 5015TIP3   OH214921   2.130   4.449   1.994
 5015TIP3    H114922   2.207   4.425   2.049
 5015TIP3    H214923   2.059   4.393   2.029
 5016TIP3   OH214924   2.191   4.710   2.455
 5016TIP3    H114925   2.234   4.623   2.468
 5016TIP3    H214926   2.246   4.743   2.379
 5017TIP3   OH214927   2.351   4.886   2.951
 5017TIP3    H114928   2.437   4.911   2.909
 5017TIP3    H214929   2.366   4.921   3.040
 5018TIP3   OH214930   2.419   5.026   3.186
 5018TIP3    H114931   2.341   5.063   3.231
 5018TIP3    H214932   2.451   5.103   3.134
 5019TIP3   OH214933   1.038   4.759   3.988
 5019TIP3    H114934   1.136   4.749   3.986
 5019TIP3    H214935   1.013   4.672   4.025
 5020TIP3   OH214936   2.872   4.618   3.741
 5020TIP3    H114937   2.931   4.553   3.696
 5020TIP3    H214938   2.842   4.673   3.666
 5021TIP3   OH214939   2.297   4.459   2.496
 5021TIP3    H114940   2.347   4.444   2.579
 5021TIP3    H214941   2.237   4.382   2.495
 5022TIP3   OH214942   0.999   4.444   3.315
 5022TIP3    H114943   1.062   4.370   3.324
 5022TIP3    H214944   1.061   4.519   3.308
 5023TIP3   OH214945   0.808   4.718   3.392
 5023TIP3    H114946   0.848   4.701   3.304
 5023TIP3    H214947   0.842   4.807   3.410
 5024TIP3   OH214948   2.741   4.757   3.550
 5024TIP3    H114949   2.654   4.798   3.565
 5024TIP3    H214950   2.715   4.687   3.487
 5025TIP3   OH214951   2.369   4.391   2.119
 5025TIP3    H114952   2.417   4.318   2.074
 5025TIP3    H214953   2.438   4.458   2.130
 5026TIP3   OH214954   0.786   4.219   2.882
 5026TIP3    H114955   0.699   4.240   2.919
 5026TIP3    H214956   0.789   4.280   2.805
 5027TIP3   OH214957   1.942   5.929   2.393
 5027TIP3    H114958   1.992   5.911   2.310
 5027TIP3    H214959   2.001   5.992   2.437
 5028TIP3   OH214960   1.005   4.304   3.703
 5028TIP3    H114961   0.953   4.299   3.785
 5028TIP3    H214962   0.940   4.343   3.642
 5029TIP3   OH214963   1.216   5.765   3.330
 5029TIP3    H114964   1.175   5.843   3.288
 5029TIP3    H214965   1.303   5.769   3.285
 5030TIP3   OH214966   1.666   6.009   3.467
 5030TIP3    H114967   1.711   6.008   3.554
 5030TIP3    H214968   1.732   6.057   3.412
 5031TIP3   OH214969   1.842   6.158   3.321
 5031TIP3    H114970   1.909   6.106   3.274
 5031TIP3    H214971   1.897   6.213   3.380
 5032TIP3   OH214972   2.640   4.522   3.423
 5032TIP3    H114973   2.550   4.518   3.388
 5032TIP3    H214974   2.670   4.429   3.410
 5033TIP3   OH214975   0.894   6.013   3.344
 5033TIP3    H114976   0.803   6.048   3.328
 5033TIP3    H214977   0.912   6.052   3.430
 5034TIP3   OH214978   1.133   5.997   3.207
 5034TIP3    H114979   1.046   6.012   3.251
 5034TIP3    H214980   1.116   6.032   3.117
 5035TIP3   OH214981   1.559   6.027   3.007
 5035TIP3    H114982   1.494   6.048   2.938
 5035TIP3    H214983   1.574   6.116   3.047
 5036TIP3   OH214984   1.829   5.972   3.060
 5036TIP3    H114985   1.735   5.984   3.036
 5036TIP3    H214986   1.873   6.042   3.010
 5037TIP3   OH214987   2.037   6.160   2.971
 5037TIP3    H114988   2.023   6.243   2.922
 5037TIP3    H214989   2.064   6.098   2.899
 5038TIP3   OH214990   0.812   5.813   3.090
 5038TIP3    H114991   0.857   5.834   3.174
 5038TIP3    H214992   0.885   5.769   3.040
 5039TIP3   OH214993   1.005   5.684   2.952
 5039TIP3    H114994   1.026   5.599   2.996
 5039TIP3    H214995   1.095   5.723   2.943
 5040TIP3   OH214996   1.269   5.781   2.954
 5040TIP3    H114997   1.302   5.691   2.936
 5040TIP3    H214998   1.316   5.799   3.038
 5041TIP3   OH214999   1.843   4.436   3.039
 5041TIP3    H115000   1.802   4.366   3.093
 5041TIP3    H215001   1.918   4.389   2.997
 5042TIP3   OH215002   2.369   4.316   2.948
 5042TIP3    H115003   2.407   4.367   2.874
 5042TIP3    H215004   2.274   4.336   2.941
 5043TIP3   OH215005   2.465   4.415   2.712
 5043TIP3    H115006   2.537   4.363   2.671
 5043TIP3    H215007   2.500   4.506   2.695
 5044TIP3   OH215008   1.095   4.146   3.058
 5044TIP3    H115009   1.003   4.109   3.059
 5044TIP3    H215010   1.146   4.062   3.055
 5045TIP3   OH215011   0.875   4.015   2.702
 5045TIP3    H115012   0.908   4.075   2.633
 5045TIP3    H215013   0.847   4.077   2.772
 5046TIP3   OH215014   1.537   4.178   2.938
 5046TIP3    H115015   1.596   4.228   2.879
 5046TIP3    H215016   1.559   4.216   3.024
 5047TIP3   OH215017   2.084   4.325   2.924
 5047TIP3    H115018   2.084   4.289   2.834
 5047TIP3    H215019   2.071   4.243   2.977
 5048TIP3   OH215020   2.114   4.245   2.484
 5048TIP3    H115021   2.028   4.288   2.496
 5048TIP3    H215022   2.099   4.160   2.531
 5049TIP3   OH215023   0.600   5.582   2.483
 5049TIP3    H115024   0.514   5.546   2.454
 5049TIP3    H215025   0.583   5.677   2.469
 5050TIP3   OH215026   0.998   4.176   2.467
 5050TIP3    H115027   1.048   4.113   2.412
 5050TIP3    H215028   1.070   4.230   2.505
 5051TIP3   OH215029   1.511   4.349   2.568
 5051TIP3    H115030   1.571   4.303   2.629
 5051TIP3    H215031   1.532   4.442   2.593
 5052TIP3   OH215032   1.370   5.776   2.067
 5052TIP3    H115033   1.459   5.797   2.032
 5052TIP3    H215034   1.348   5.700   2.008
 5053TIP3   OH215035   2.087   5.892   2.161
 5053TIP3    H115036   2.079   5.794   2.148
 5053TIP3    H215037   2.044   5.924   2.079
 5054TIP3   OH215038   1.302   4.428   3.951
 5054TIP3    H115039   1.269   4.356   4.007
 5054TIP3    H215040   1.397   4.428   3.976
 5055TIP3   OH215041   1.552   4.424   4.068
 5055TIP3    H115042   1.636   4.399   4.028
 5055TIP3    H215043   1.540   4.353   4.135
 5056TIP3   OH215044   0.675   5.616   2.124
 5056TIP3    H115045   0.672   5.634   2.219
 5056TIP3    H215046   0.763   5.572   2.114
 5057TIP3   OH215047   2.376   4.484   3.856
 5057TIP3    H115048   2.396   4.453   3.947
 5057TIP3    H215049   2.465   4.480   3.814
 5058TIP3   OH215050   2.311   6.037   3.356
 5058TIP3    H115051   2.236   6.003   3.303
 5058TIP3    H215052   2.310   6.130   3.331
 5059TIP3   OH215053   3.579   5.410   2.120
 5059TIP3    H115054   3.553   5.501   2.096
 5059TIP3    H215055   3.505   5.360   2.083
 5060TIP3   OH215056   3.573   5.414   2.499
 5060TIP3    H115057   3.611   5.377   2.581
 5060TIP3    H215058   3.540   5.334   2.454
 5061TIP3   OH215059   2.878   5.306   2.860
 5061TIP3    H115060   2.909   5.243   2.929
 5061TIP3    H215061   2.951   5.370   2.864
 5062TIP3   OH215062   3.822   5.714   2.176
 5062TIP3    H115063   3.812   5.638   2.234
 5062TIP3    H215064   3.851   5.783   2.237
 5063TIP3   OH215065   2.849   5.715   2.588
 5063TIP3    H115066   2.842   5.617   2.588
 5063TIP3    H215067   2.946   5.723   2.583
 5064TIP3   OH215068   2.621   5.203   2.541
 5064TIP3    H115069   2.667   5.124   2.576
 5064TIP3    H215070   2.669   5.218   2.458
 5065TIP3   OH215071   3.473   6.174   2.194
 5065TIP3    H115072   3.519   6.103   2.143
 5065TIP3    H215073   3.467   6.134   2.281
 5066TIP3   OH215074   3.379   5.637   2.542
 5066TIP3    H115075   3.415   5.557   2.501
 5066TIP3    H215076   3.464   5.681   2.565
 5067TIP3   OH215077   4.396   4.953   2.544
 5067TIP3    H115078   4.422   5.038   2.584
 5067TIP3    H215079   4.402   4.974   2.449
 5068TIP3   OH215080   3.781   5.132   2.584
 5068TIP3    H115081   3.830   5.049   2.596
 5068TIP3    H215082   3.770   5.133   2.486
 5069TIP3   OH215083   3.128   4.802   2.542
 5069TIP3    H115084   3.096   4.867   2.475
 5069TIP3    H215085   3.097   4.719   2.499
 5070TIP3   OH215086   3.831   4.891   2.159
 5070TIP3    H115087   3.902   4.869   2.223
 5070TIP3    H215088   3.877   4.959   2.106
 5071TIP3   OH215089   2.756   4.986   2.640
 5071TIP3    H115090   2.844   4.969   2.679
 5071TIP3    H215091   2.760   4.936   2.556
 5072TIP3   OH215092   3.201   5.191   2.438
 5072TIP3    H115093   3.294   5.165   2.451
 5072TIP3    H215094   3.160   5.107   2.409
 5073TIP3   OH215095   4.468   5.164   2.712
 5073TIP3    H115096   4.384   5.211   2.690
 5073TIP3    H215097   4.477   5.188   2.805
 5074TIP3   OH215098   3.125   4.779   2.975
 5074TIP3    H115099   3.067   4.817   2.907
 5074TIP3    H215100   3.074   4.800   3.056
 5075TIP3   OH215101   3.476   5.633   1.984
 5075TIP3    H115102   3.430   5.606   1.904
 5075TIP3    H215103   3.429   5.716   2.006
 5076TIP3   OH215104   3.233   5.554   2.771
 5076TIP3    H115105   3.169   5.617   2.812
 5076TIP3    H215106   3.273   5.608   2.700
 5077TIP3   OH215107   4.036   4.876   2.339
 5077TIP3    H115108   4.023   4.848   2.431
 5077TIP3    H215109   4.083   4.961   2.350
 5078TIP3   OH215110   2.994   4.894   2.760
 5078TIP3    H115111   3.055   4.968   2.784
 5078TIP3    H215112   3.045   4.857   2.684
 5079TIP3   OH215113   3.059   5.747   2.870
 5079TIP3    H115114   3.028   5.832   2.834
 5079TIP3    H215115   2.985   5.726   2.931
 5080TIP3   OH215116   2.455   5.438   2.104
 5080TIP3    H115117   2.415   5.465   2.020
 5080TIP3    H215118   2.488   5.522   2.141
 5081TIP3   OH215119   3.896   5.955   2.348
 5081TIP3    H115120   3.806   5.945   2.386
 5081TIP3    H215121   3.886   6.040   2.300
 5082TIP3   OH215122   4.185   4.856   2.708
 5082TIP3    H115123   4.096   4.882   2.677
 5082TIP3    H215124   4.242   4.887   2.635
 5083TIP3   OH215125   3.488   4.501   2.696
 5083TIP3    H115126   3.469   4.406   2.702
 5083TIP3    H215127   3.408   4.538   2.737
 5084TIP3   OH215128   3.597   6.002   2.019
 5084TIP3    H115129   3.646   5.918   2.000
 5084TIP3    H215130   3.658   6.066   1.977
 5085TIP3   OH215131   3.739   5.787   1.924
 5085TIP3    H115132   3.700   5.706   1.887
 5085TIP3    H215133   3.775   5.753   2.009
 5086TIP3   OH215134   4.122   5.868   2.687
 5086TIP3    H115135   4.109   5.789   2.630
 5086TIP3    H215136   4.105   5.941   2.624
 5087TIP3   OH215137   3.412   5.263   1.944
 5087TIP3    H115138   3.331   5.312   1.921
 5087TIP3    H215139   3.461   5.261   1.860
 5088TIP3   OH215140   3.371   5.048   1.658
 5088TIP3    H115141   3.437   5.096   1.712
 5088TIP3    H215142   3.428   4.982   1.614
 5089TIP3   OH215143   4.317   5.507   2.535
 5089TIP3    H115144   4.232   5.556   2.539
 5089TIP3    H215145   4.344   5.528   2.443
 5090TIP3   OH215146   3.754   5.350   1.916
 5090TIP3    H115147   3.711   5.369   2.002
 5090TIP3    H215148   3.829   5.293   1.946
 5091TIP3   OH215149   3.995   5.383   2.827
 5091TIP3    H115150   3.989   5.468   2.875
 5091TIP3    H215151   3.908   5.383   2.781
 5092TIP3   OH215152   2.992   5.342   2.330
 5092TIP3    H115153   2.947   5.281   2.267
 5092TIP3    H215154   3.067   5.286   2.361
 5093TIP3   OH215155   3.124   5.757   2.481
 5093TIP3    H115156   3.100   5.708   2.400
 5093TIP3    H215157   3.213   5.721   2.500
 5094TIP3   OH215158   3.132   5.310   2.687
 5094TIP3    H115159   3.163   5.290   2.596
 5094TIP3    H215160   3.173   5.397   2.706
 5095TIP3   OH215161   3.652   5.951   2.465
 5095TIP3    H115162   3.641   6.028   2.523
 5095TIP3    H215163   3.640   5.875   2.525
 5096TIP3   OH215164   3.265   5.874   3.008
 5096TIP3    H115165   3.205   5.932   3.058
 5096TIP3    H215166   3.200   5.816   2.962
 5097TIP3   OH215167   3.602   5.200   1.745
 5097TIP3    H115168   3.661   5.258   1.799
 5097TIP3    H215169   3.630   5.225   1.654
 5098TIP3   OH215170   3.342   5.882   2.017
 5098TIP3    H115171   3.422   5.934   2.036
 5098TIP3    H215172   3.282   5.948   1.980
 5099TIP3   OH215173   3.058   6.043   3.099
 5099TIP3    H115174   3.025   6.036   3.007
 5099TIP3    H215175   2.979   6.020   3.151
 5100TIP3   OH215176   4.113   4.440   1.788
 5100TIP3    H115177   4.035   4.460   1.844
 5100TIP3    H215178   4.130   4.529   1.750
 5101TIP3   OH215179   2.859   5.173   2.141
 5101TIP3    H115180   2.784   5.208   2.087
 5101TIP3    H215181   2.825   5.086   2.169
 5102TIP3   OH215182   3.914   5.810   1.338
 5102TIP3    H115183   3.923   5.907   1.325
 5102TIP3    H215184   4.007   5.781   1.326
 5103TIP3   OH215185   2.640   5.575   3.039
 5103TIP3    H115186   2.579   5.541   2.971
 5103TIP3    H215187   2.670   5.492   3.083
 5104TIP3   OH215188   2.493   5.762   2.677
 5104TIP3    H115189   2.587   5.745   2.666
 5104TIP3    H215190   2.494   5.839   2.737
 5105TIP3   OH215191   4.357   6.211   2.732
 5105TIP3    H115192   4.357   6.115   2.745
 5105TIP3    H215193   4.274   6.236   2.779
 5106TIP3   OH215194   3.463   6.000   2.867
 5106TIP3    H115195   3.462   6.092   2.901
 5106TIP3    H215196   3.391   5.959   2.921
 5107TIP3   OH215197   3.223   6.128   1.820
 5107TIP3    H115198   3.178   6.108   1.736
 5107TIP3    H215199   3.191   6.217   1.842
 5108TIP3   OH215200   2.662   5.977   2.205
 5108TIP3    H115201   2.710   5.967   2.290
 5108TIP3    H215202   2.610   5.895   2.205
 5109TIP3   OH215203   3.426   6.028   1.461
 5109TIP3    H115204   3.485   5.958   1.425
 5109TIP3    H215205   3.460   6.037   1.552
 5110TIP3   OH215206   3.475   6.076   1.731
 5110TIP3    H115207   3.387   6.085   1.775
 5110TIP3    H215208   3.526   6.033   1.802
 5111TIP3   OH215209   4.248   5.344   3.007
 5111TIP3    H115210   4.167   5.356   2.955
 5111TIP3    H215211   4.263   5.248   2.997
 5112TIP3   OH215212   2.854   5.743   3.056
 5112TIP3    H115213   2.905   5.692   3.121
 5112TIP3    H215214   2.777   5.684   3.044
 5113TIP3   OH215215   3.244   4.573   2.818
 5113TIP3    H115216   3.154   4.544   2.791
 5113TIP3    H215217   3.221   4.658   2.861
 5114TIP3   OH215218   3.777   4.690   3.012
 5114TIP3    H115219   3.844   4.662   3.078
 5114TIP3    H215220   3.692   4.670   3.057
 5115TIP3   OH215221   4.020   5.120   2.933
 5115TIP3    H115222   3.967   5.116   3.016
 5115TIP3    H215223   3.992   5.205   2.894
 5116TIP3   OH215224   3.672   5.249   1.486
 5116TIP3    H115225   3.644   5.222   1.396
 5116TIP3    H215226   3.754   5.296   1.466
 5117TIP3   OH215227   3.390   4.625   1.789
 5117TIP3    H115228   3.359   4.624   1.881
 5117TIP3    H215229   3.351   4.542   1.757
 5118TIP3   OH215230   3.173   5.090   2.839
 5118TIP3    H115231   3.123   5.114   2.920
 5118TIP3    H215232   3.158   5.170   2.784
 5119TIP3   OH215233   3.045   4.967   2.344
 5119TIP3    H115234   2.949   4.948   2.338
 5119TIP3    H215235   3.072   4.926   2.259
 5120TIP3   OH215236   3.549   5.061   2.075
 5120TIP3    H115237   3.497   5.134   2.034
 5120TIP3    H215238   3.614   5.040   2.005
 5121TIP3   OH215239   3.725   5.342   3.167
 5121TIP3    H115240   3.701   5.268   3.227
 5121TIP3    H215241   3.820   5.352   3.187
 5122TIP3   OH215242   3.699   5.086   2.319
 5122TIP3    H115243   3.648   5.119   2.243
 5122TIP3    H215244   3.740   5.008   2.276
 5123TIP3   OH215245   2.995   5.127   3.049
 5123TIP3    H115246   3.009   5.203   3.110
 5123TIP3    H215247   2.991   5.051   3.110
 5124TIP3   OH215248   3.043   4.594   1.756
 5124TIP3    H115249   3.038   4.594   1.853
 5124TIP3    H215250   2.967   4.651   1.734
 5125TIP3   OH215251   2.596   4.634   2.627
 5125TIP3    H115252   2.662   4.672   2.690
 5125TIP3    H215253   2.639   4.653   2.542
 5126TIP3   OH215254   3.722   5.339   2.742
 5126TIP3    H115255   3.749   5.264   2.683
 5126TIP3    H215256   3.689   5.287   2.819
 5127TIP3   OH215257   3.385   4.793   2.411
 5127TIP3    H115258   3.301   4.797   2.461
 5127TIP3    H215259   3.450   4.803   2.482
 5128TIP3   OH215260   3.098   4.845   2.105
 5128TIP3    H115261   3.188   4.870   2.078
 5128TIP3    H215262   3.042   4.873   2.029
 5129TIP3   OH215263   3.884   4.871   2.617
 5129TIP3    H115264   3.844   4.886   2.705
 5129TIP3    H215265   3.816   4.814   2.576
 5130TIP3   OH215266   2.936   4.883   1.887
 5130TIP3    H115267   2.858   4.844   1.844
 5130TIP3    H215268   2.984   4.918   1.810
 5131TIP3   OH215269   4.047   6.564   2.832
 5131TIP3    H115270   4.046   6.584   2.737
 5131TIP3    H215271   4.127   6.611   2.862
 5132TIP3   OH215272   3.470   5.123   2.506
 5132TIP3    H115273   3.548   5.093   2.455
 5132TIP3    H215274   3.486   5.083   2.593
 5133TIP3   OH215275   3.044   4.590   2.398
 5133TIP3    H115276   2.974   4.531   2.432
 5133TIP3    H215277   3.024   4.594   2.304
 5134TIP3   OH215278   3.445   5.019   2.806
 5134TIP3    H115279   3.356   5.058   2.814
 5134TIP3    H215280   3.503   5.084   2.851
 5135TIP3   OH215281   3.181   5.416   1.892
 5135TIP3    H115282   3.111   5.347   1.884
 5135TIP3    H215283   3.165   5.448   1.984
 5136TIP3   OH215284   4.084   5.650   2.525
 5136TIP3    H115285   4.106   5.698   2.442
 5136TIP3    H215286   3.998   5.608   2.502
 5137TIP3   OH215287   3.641   4.735   1.742
 5137TIP3    H115288   3.546   4.719   1.764
 5137TIP3    H215289   3.660   4.823   1.779
 5138TIP3   OH215290   3.592   5.738   2.890
 5138TIP3    H115291   3.598   5.703   2.980
 5138TIP3    H215292   3.542   5.820   2.902
 5139TIP3   OH215293   3.728   4.975   1.851
 5139TIP3    H115294   3.816   5.004   1.883
 5139TIP3    H215295   3.698   5.056   1.805
 5140TIP3   OH215296   2.879   5.441   2.571
 5140TIP3    H115297   2.912   5.406   2.486
 5140TIP3    H215298   2.912   5.374   2.633
 5141TIP3   OH215299   3.326   5.562   1.711
 5141TIP3    H115300   3.279   5.649   1.720
 5141TIP3    H215301   3.273   5.507   1.773
 5142TIP3   OH215302   2.700   5.374   3.209
 5142TIP3    H115303   2.799   5.381   3.212
 5142TIP3    H215304   2.687   5.285   3.174
 5143TIP3   OH215305   3.481   5.471   3.205
 5143TIP3    H115306   3.417   5.412   3.161
 5143TIP3    H215307   3.566   5.434   3.173
 5144TIP3   OH215308   3.744   6.003   2.782
 5144TIP3    H115309   3.649   5.988   2.797
 5144TIP3    H215310   3.769   6.048   2.865
 5145TIP3   OH215311   4.178   5.058   1.662
 5145TIP3    H115312   4.094   5.018   1.630
 5145TIP3    H215313   4.158   5.152   1.646
 5146TIP3   OH215314   4.372   5.922   2.775
 5146TIP3    H115315   4.274   5.916   2.768
 5146TIP3    H215316   4.397   5.891   2.686
 5147TIP3   OH215317   3.851   5.882   1.603
 5147TIP3    H115318   3.829   5.813   1.667
 5147TIP3    H215319   3.865   5.833   1.521
 5148TIP3   OH215320   3.845   5.521   2.451
 5148TIP3    H115321   3.752   5.494   2.458
 5148TIP3    H215322   3.883   5.437   2.416
 5149TIP3   OH215323   2.975   5.740   2.196
 5149TIP3    H115324   2.975   5.820   2.141
 5149TIP3    H215325   2.881   5.720   2.203
 5150TIP3   OH215326   2.534   5.056   1.890
 5150TIP3    H115327   2.585   5.133   1.922
 5150TIP3    H215328   2.462   5.052   1.957
 5151TIP3   OH215329   3.116   5.507   2.138
 5151TIP3    H115330   3.080   5.595   2.161
 5151TIP3    H215331   3.081   5.452   2.211
 5152TIP3   OH215332   3.244   6.084   2.666
 5152TIP3    H115333   3.288   6.154   2.614
 5152TIP3    H215334   3.320   6.046   2.713
 5153TIP3   OH215335   2.894   5.979   2.046
 5153TIP3    H115336   2.809   5.987   2.094
 5153TIP3    H215337   2.926   6.072   2.050
 5154TIP3   OH215338   3.637   5.720   2.621
 5154TIP3    H115339   3.629   5.716   2.719
 5154TIP3    H215340   3.712   5.660   2.605
 5155TIP3   OH215341   3.608   5.609   1.506
 5155TIP3    H115342   3.662   5.584   1.585
 5155TIP3    H215343   3.520   5.583   1.538
 5156TIP3   OH215344   3.882   6.254   2.677
 5156TIP3    H115345   3.806   6.193   2.672
 5156TIP3    H215346   3.864   6.315   2.602
 5157TIP3   OH215347   3.948   6.085   1.326
 5157TIP3    H115348   3.988   6.158   1.274
 5157TIP3    H215349   3.868   6.131   1.358
 5158TIP3   OH215350   2.970   4.859   3.194
 5158TIP3    H115351   2.874   4.867   3.207
 5158TIP3    H215352   2.996   4.800   3.266
 5159TIP3   OH215353   3.768   5.543   1.721
 5159TIP3    H115354   3.756   5.478   1.795
 5159TIP3    H215355   3.865   5.540   1.712
 5160TIP3   OH215356   2.680   5.948   2.827
 5160TIP3    H115357   2.730   5.868   2.847
 5160TIP3    H215358   2.720   6.011   2.888
 5161TIP3   OH215359   2.973   5.591   1.505
 5161TIP3    H115360   2.989   5.498   1.477
 5161TIP3    H215361   2.955   5.579   1.600
 5162TIP3   OH215362   2.919   5.596   1.777
 5162TIP3    H115363   2.989   5.564   1.835
 5162TIP3    H215364   2.926   5.693   1.787
 5163TIP3   OH215365   2.657   5.290   1.982
 5163TIP3    H115366   2.592   5.332   2.041
 5163TIP3    H215367   2.672   5.362   1.918
 5164TIP3   OH215368   3.803   4.928   2.875
 5164TIP3    H115369   3.884   4.963   2.913
 5164TIP3    H215370   3.788   4.846   2.927
 5165TIP3   OH215371   3.691   4.681   2.037
 5165TIP3    H115372   3.676   4.709   1.945
 5165TIP3    H215373   3.733   4.761   2.075
 5166TIP3   OH215374   3.185   5.794   1.725
 5166TIP3    H115375   3.099   5.821   1.762
 5166TIP3    H215376   3.202   5.867   1.665
 5167TIP3   OH215377   3.381   4.853   2.138
 5167TIP3    H115378   3.444   4.927   2.122
 5167TIP3    H215379   3.381   4.847   2.236
 5168TIP3   OH215380   3.643   5.177   2.946
 5168TIP3    H115381   3.661   5.229   3.027
 5168TIP3    H215382   3.697   5.097   2.959
 5169TIP3   OH215383   3.520   4.585   2.242
 5169TIP3    H115384   3.507   4.662   2.301
 5169TIP3    H215385   3.580   4.624   2.174
 5170TIP3   OH215386   2.928   5.870   1.793
 5170TIP3    H115387   2.898   5.939   1.731
 5170TIP3    H215388   2.912   5.912   1.880
 5171TIP3   OH215389   3.027   4.582   2.032
 5171TIP3    H115390   3.019   4.672   2.068
 5171TIP3    H215391   3.124   4.569   2.044
 5172TIP3   OH215392   4.286   5.075   2.927
 5172TIP3    H115393   4.188   5.075   2.937
 5172TIP3    H215394   4.293   5.036   2.839
 5173TIP3   OH215395   3.930   5.280   2.355
 5173TIP3    H115396   3.876   5.225   2.296
 5173TIP3    H215397   4.010   5.226   2.363
 5174TIP3   OH215398   2.646   5.503   1.784
 5174TIP3    H115399   2.716   5.570   1.795
 5174TIP3    H215400   2.691   5.445   1.719
 5175TIP3   OH215401   2.582   4.776   1.867
 5175TIP3    H115402   2.600   4.866   1.898
 5175TIP3    H215403   2.535   4.739   1.942
 5176TIP3   OH215404   3.902   6.228   2.267
 5176TIP3    H115405   3.859   6.275   2.192
 5176TIP3    H215406   3.996   6.245   2.246
 5177TIP3   OH215407   2.978   4.496   2.795
 5177TIP3    H115408   2.947   4.465   2.707
 5177TIP3    H215409   2.967   4.416   2.850
 5178TIP3   OH215410   2.523   5.723   2.177
 5178TIP3    H115411   2.445   5.746   2.228
 5178TIP3    H215412   2.497   5.756   2.088
 5179TIP3   OH215413   2.675   6.249   3.241
 5179TIP3    H115414   2.762   6.248   3.287
 5179TIP3    H215415   2.657   6.154   3.237
 5180TIP3   OH215416   3.155   6.224   3.287
 5180TIP3    H115417   3.247   6.197   3.299
 5180TIP3    H215418   3.129   6.163   3.214
 5181TIP3   OH215419   3.137   5.795   1.418
 5181TIP3    H115420   3.080   5.724   1.457
 5181TIP3    H215421   3.213   5.741   1.390
 5182TIP3   OH215422   3.793   6.128   3.025
 5182TIP3    H115423   3.784   6.056   3.091
 5182TIP3    H215424   3.873   6.174   3.055
 5183TIP3   OH215425   3.574   5.835   1.329
 5183TIP3    H115426   3.617   5.772   1.389
 5183TIP3    H215427   3.633   5.835   1.251
 5184TIP3   OH215428   2.799   5.676   3.454
 5184TIP3    H115429   2.854   5.598   3.434
 5184TIP3    H215430   2.720   5.660   3.398
 5185TIP3   OH215431   2.781   5.314   1.638
 5185TIP3    H115432   2.831   5.276   1.712
 5185TIP3    H215433   2.852   5.317   1.569
 5186TIP3   OH215434   3.412   5.745   3.217
 5186TIP3    H115435   3.365   5.753   3.132
 5186TIP3    H215436   3.442   5.651   3.215
 5187TIP3   OH215437   3.289   5.509   1.443
 5187TIP3    H115438   3.293   5.523   1.540
 5187TIP3    H215439   3.288   5.411   1.439
 5188TIP3   OH215440   3.908   5.752   2.828
 5188TIP3    H115441   3.978   5.800   2.781
 5188TIP3    H215442   3.832   5.810   2.813
 5189TIP3   OH215443   2.992   5.214   1.864
 5189TIP3    H115444   2.960   5.175   1.947
 5189TIP3    H215445   3.025   5.136   1.816
 5190TIP3   OH215446   3.273   5.278   3.099
 5190TIP3    H115447   3.193   5.332   3.120
 5190TIP3    H215448   3.304   5.318   3.015
 5191TIP3   OH215449   3.091   5.009   1.698
 5191TIP3    H115450   3.065   5.013   1.604
 5191TIP3    H215451   3.188   5.016   1.692
 5192TIP3   OH215452   3.780   5.685   3.225
 5192TIP3    H115453   3.855   5.655   3.173
 5192TIP3    H215454   3.772   5.614   3.292
 5193TIP3   OH215455   3.910   5.341   1.362
 5193TIP3    H115456   3.887   5.294   1.279
 5193TIP3    H215457   3.878   5.431   1.339
 5194TIP3   OH215458   3.389   5.062   3.213
 5194TIP3    H115459   3.384   4.985   3.154
 5194TIP3    H215460   3.345   5.132   3.160
 5195TIP3   OH215461   3.385   4.850   3.022
 5195TIP3    H115462   3.412   4.895   2.939
 5195TIP3    H215463   3.290   4.830   3.003
 5196TIP3   OH215464   3.417   5.396   2.896
 5196TIP3    H115465   3.495   5.398   2.839
 5196TIP3    H215466   3.357   5.458   2.851
 5197TIP3   OH215467   3.996   5.357   3.279
 5197TIP3    H115468   4.043   5.272   3.285
 5197TIP3    H215469   4.064   5.414   3.241
 5198TIP3   OH215470   4.037   5.611   3.017
 5198TIP3    H115471   3.978   5.662   2.957
 5198TIP3    H215472   4.124   5.629   2.975
 5199TIP3   OH215473   3.274   5.174   3.454
 5199TIP3    H115474   3.188   5.128   3.460
 5199TIP3    H215475   3.297   5.160   3.360
 5200TIP3   OH215476   3.517   4.617   3.090
 5200TIP3    H115477   3.469   4.700   3.066
 5200TIP3    H215478   3.448   4.550   3.077
 5201TIP3   OH215479   3.643   5.123   3.306
 5201TIP3    H115480   3.627   5.110   3.401
 5201TIP3    H215481   3.555   5.098   3.272
 5202TIP3   OH215482   3.883   5.073   3.161
 5202TIP3    H115483   3.806   5.074   3.222
 5202TIP3    H215484   3.955   5.041   3.219
 5203TIP3   OH215485   4.114   5.012   3.313
 5203TIP3    H115486   4.124   4.916   3.331
 5203TIP3    H215487   4.108   5.051   3.403
 5204TIP3   OH215488   3.090   4.961   3.501
 5204TIP3    H115489   3.106   4.874   3.462
 5204TIP3    H215490   3.132   4.951   3.589
 5205TIP3   OH215491   3.611   4.625   3.348
 5205TIP3    H115492   3.679   4.556   3.340
 5205TIP3    H215493   3.571   4.622   3.258
 5206TIP3   OH215494   3.678   4.840   3.507
 5206TIP3    H115495   3.654   4.771   3.441
 5206TIP3    H215496   3.602   4.902   3.501
 5207TIP3   OH215497   2.898   6.073   1.606
 5207TIP3    H115498   2.993   6.067   1.587
 5207TIP3    H215499   2.868   6.121   1.526
 5208TIP3   OH215500   2.378   5.455   1.820
 5208TIP3    H115501   2.473   5.476   1.808
 5208TIP3    H215502   2.373   5.365   1.781
 5209TIP3   OH215503   2.290   6.065   2.236
 5209TIP3    H115504   2.224   6.002   2.201
 5209TIP3    H215505   2.336   6.009   2.303
 5210TIP3   OH215506   2.424   5.920   2.425
 5210TIP3    H115507   2.419   5.842   2.482
 5210TIP3    H215508   2.480   5.978   2.480
 5211TIP3   OH215509   4.154   6.320   2.222
 5211TIP3    H115510   4.184   6.350   2.309
 5211TIP3    H215511   4.219   6.360   2.162
 5212TIP3   OH215512   4.186   6.338   2.505
 5212TIP3    H115513   4.140   6.251   2.499
 5212TIP3    H215514   4.260   6.313   2.562
 5213TIP3   OH215515   4.231   6.015   3.077
 5213TIP3    H115516   4.158   6.022   3.141
 5213TIP3    H215517   4.272   6.103   3.083
 5214TIP3   OH215518   4.047   5.528   1.700
 5214TIP3    H115519   4.119   5.588   1.675
 5214TIP3    H215520   4.084   5.486   1.781
 5215TIP3   OH215521   4.170   5.391   1.904
 5215TIP3    H115522   4.110   5.327   1.947
 5215TIP3    H215523   4.224   5.425   1.978
 5216TIP3   OH215524   4.231   5.787   2.335
 5216TIP3    H115525   4.281   5.720   2.285
 5216TIP3    H215526   4.219   5.858   2.269
 5217TIP3   OH215527   4.061   6.089   2.528
 5217TIP3    H115528   3.989   6.126   2.581
 5217TIP3    H215529   4.012   6.039   2.459
 5218TIP3   OH215530   4.115   5.309   1.543
 5218TIP3    H115531   4.040   5.311   1.480
 5218TIP3    H215532   4.085   5.378   1.606
 5219TIP3   OH215533   3.973   4.973   1.499
 5219TIP3    H115534   3.931   5.011   1.421
 5219TIP3    H215535   3.951   4.878   1.489
 5220TIP3   OH215536   2.615   5.329   2.791
 5220TIP3    H115537   2.615   5.295   2.699
 5220TIP3    H215538   2.712   5.328   2.810
 5221TIP3   OH215539   4.279   5.676   2.905
 5221TIP3    H115540   4.351   5.609   2.896
 5221TIP3    H215541   4.304   5.743   2.840
 5222TIP3   OH215542   4.465   5.482   2.923
 5222TIP3    H115543   4.389   5.432   2.960
 5222TIP3    H215544   4.537   5.417   2.937
 5223TIP3   OH215545   3.932   4.701   1.477
 5223TIP3    H115546   4.007   4.683   1.539
 5223TIP3    H215547   3.858   4.654   1.518
 5224TIP3   OH215548   4.155   5.131   2.438
 5224TIP3    H115549   4.238   5.162   2.397
 5224TIP3    H215550   4.161   5.175   2.525
 5225TIP3   OH215551   4.218   5.285   2.671
 5225TIP3    H115552   4.137   5.318   2.717
 5225TIP3    H215553   4.248   5.366   2.625
 5226TIP3   OH215554   2.824   5.004   3.455
 5226TIP3    H115555   2.922   5.005   3.461
 5226TIP3    H215556   2.806   4.923   3.507
 5227TIP3   OH215557   4.667   4.874   3.226
 5227TIP3    H115558   4.725   4.809   3.181
 5227TIP3    H215559   4.638   4.930   3.151
 5228TIP3   OH215560   4.121   4.686   1.964
 5228TIP3    H115561   4.141   4.705   2.058
 5228TIP3    H215562   4.038   4.635   1.973
 5229TIP3   OH215563   2.793   4.705   2.808
 5229TIP3    H115564   2.856   4.630   2.811
 5229TIP3    H215565   2.855   4.779   2.797
 5230TIP3   OH215566   2.598   4.974   2.872
 5230TIP3    H115567   2.648   4.969   2.788
 5230TIP3    H215568   2.625   5.061   2.905
 5231TIP3   OH215569   4.540   5.016   3.033
 5231TIP3    H115570   4.453   5.057   3.053
 5231TIP3    H215571   4.510   4.945   2.973
 5232TIP3   OH215572   4.176   4.656   1.607
 5232TIP3    H115573   4.221   4.582   1.563
 5232TIP3    H215574   4.244   4.725   1.610
 5233TIP3   OH215575   2.567   4.485   2.328
 5233TIP3    H115576   2.489   4.491   2.386
 5233TIP3    H215577   2.595   4.578   2.322
 5234TIP3   OH215578   3.739   6.185   1.879
 5234TIP3    H115579   3.789   6.168   1.797
 5234TIP3    H215580   3.796   6.249   1.924
 5235TIP3   OH215581   2.799   4.557   3.188
 5235TIP3    H115582   2.749   4.557   3.271
 5235TIP3    H215583   2.735   4.598   3.127
 5236TIP3   OH215584   2.838   5.999   3.271
 5236TIP3    H115585   2.756   5.952   3.244
 5236TIP3    H215586   2.864   5.949   3.349
 5237TIP3   OH215587   3.015   6.020   2.815
 5237TIP3    H115588   2.971   6.097   2.773
 5237TIP3    H215589   3.102   6.029   2.772
 5238TIP3   OH215590   3.464   6.267   2.954
 5238TIP3    H115591   3.508   6.265   3.041
 5238TIP3    H215592   3.530   6.315   2.900
 5239TIP3   OH215593   3.642   6.416   2.809
 5239TIP3    H115594   3.711   6.363   2.766
 5239TIP3    H215595   3.696   6.472   2.869
 5240TIP3   OH215596   4.437   4.779   2.909
 5240TIP3    H115597   4.347   4.777   2.874
 5240TIP3    H215598   4.465   4.686   2.897
 5241TIP3   OH215599   2.695   6.280   2.833
 5241TIP3    H115600   2.606   6.315   2.812
 5241TIP3    H215601   2.702   6.304   2.926
 5242TIP3   OH215602   2.933   6.258   2.694
 5242TIP3    H115603   2.846   6.270   2.738
 5242TIP3    H215604   2.913   6.288   2.603
 5243TIP3   OH215605   3.358   6.286   2.491
 5243TIP3    H115606   3.288   6.305   2.426
 5243TIP3    H215607   3.370   6.373   2.534
 5244TIP3   OH215608   3.626   6.227   2.545
 5244TIP3    H115609   3.532   6.241   2.523
 5244TIP3    H215610   3.668   6.302   2.499
 5245TIP3   OH215611   3.836   6.418   2.459
 5245TIP3    H115612   3.821   6.501   2.409
 5245TIP3    H215613   3.860   6.356   2.387
 5246TIP3   OH215614   2.605   6.070   2.584
 5246TIP3    H115615   2.634   6.044   2.674
 5246TIP3    H215616   2.677   6.026   2.532
 5247TIP3   OH215617   2.799   5.943   2.439
 5247TIP3    H115618   2.815   5.857   2.486
 5247TIP3    H215619   2.891   5.978   2.433
 5248TIP3   OH215620   3.067   6.037   2.440
 5248TIP3    H115621   3.097   5.945   2.427
 5248TIP3    H215622   3.111   6.056   2.525
 5249TIP3   OH215623   3.645   4.695   2.532
 5249TIP3    H115624   3.598   4.625   2.581
 5249TIP3    H215625   3.715   4.645   2.485
 5250TIP3   OH215626   4.165   4.571   2.436
 5250TIP3    H115627   4.203   4.624   2.363
 5250TIP3    H215628   4.071   4.594   2.431
 5251TIP3   OH215629   4.266   4.672   2.206
 5251TIP3    H115630   4.334   4.625   2.154
 5251TIP3    H215631   4.292   4.765   2.188
 5252TIP3   OH215632   2.886   4.400   2.550
 5252TIP3    H115633   2.795   4.364   2.551
 5252TIP3    H215634   2.939   4.318   2.541
 5253TIP3   OH215635   2.674   4.269   2.190
 5253TIP3    H115636   2.710   4.326   2.119
 5253TIP3    H215637   2.640   4.338   2.252
 5254TIP3   OH215638   3.348   4.422   2.426
 5254TIP3    H115639   3.393   4.483   2.366
 5254TIP3    H215640   3.338   4.477   2.505
 5255TIP3   OH215641   3.883   4.580   2.413
 5255TIP3    H115642   3.875   4.551   2.321
 5255TIP3    H215643   3.866   4.497   2.463
 5256TIP3   OH215644   3.907   4.500   1.969
 5256TIP3    H115645   3.824   4.549   1.986
 5256TIP3    H215646   3.890   4.416   2.018
 5257TIP3   OH215647   2.394   5.841   1.972
 5257TIP3    H115648   2.310   5.807   1.937
 5257TIP3    H215649   2.382   5.936   1.956
 5258TIP3   OH215650   2.790   4.430   1.961
 5258TIP3    H115651   2.843   4.373   1.903
 5258TIP3    H215652   2.858   4.490   1.997
 5259TIP3   OH215653   3.308   4.605   2.053
 5259TIP3    H115654   3.366   4.560   2.117
 5259TIP3    H215655   3.325   4.698   2.079
 5260TIP3   OH215656   3.166   6.032   1.554
 5260TIP3    H115657   3.255   6.053   1.519
 5260TIP3    H215658   3.144   5.957   1.495
 5261TIP3   OH215659   3.884   6.149   1.647
 5261TIP3    H115660   3.876   6.051   1.635
 5261TIP3    H215661   3.840   6.181   1.566
 5262TIP3   OH215662   3.098   4.677   3.433
 5262TIP3    H115663   3.065   4.610   3.494
 5262TIP3    H215664   3.192   4.682   3.460
 5263TIP3   OH215665   3.346   4.681   3.555
 5263TIP3    H115666   3.431   4.658   3.513
 5263TIP3    H215667   3.336   4.608   3.620
 5264TIP3   OH215668   2.471   5.871   1.612
 5264TIP3    H115669   2.471   5.891   1.707
 5264TIP3    H215670   2.559   5.827   1.600
 5265TIP3   OH215671   4.172   4.740   3.343
 5265TIP3    H115672   4.192   4.710   3.434
 5265TIP3    H215673   4.261   4.737   3.301
 5266TIP3   OH215674   4.112   6.295   2.836
 5266TIP3    H115675   4.034   6.261   2.787
 5266TIP3    H215676   4.091   6.390   2.839
 5267TIP3   OH215677   5.378   5.666   1.601
 5267TIP3    H115678   5.351   5.758   1.581
 5267TIP3    H215679   5.300   5.618   1.570
 5268TIP3   OH215680   5.380   5.664   1.980
 5268TIP3    H115681   5.408   5.636   2.069
 5268TIP3    H215682   5.334   5.586   1.947
 5269TIP3   OH215683   4.678   5.561   2.345
 5269TIP3    H115684   4.708   5.494   2.408
 5269TIP3    H215685   4.755   5.620   2.342
 5270TIP3   OH215686   5.621   5.965   1.664
 5270TIP3    H115687   5.605   5.899   1.731
 5270TIP3    H215688   5.647   6.042   1.716
 5271TIP3   OH215689   4.647   5.973   2.074
 5271TIP3    H115690   4.639   5.875   2.076
 5271TIP3    H215691   4.744   5.981   2.068
 5272TIP3   OH215692   4.354   5.179   1.866
 5272TIP3    H115693   4.300   5.260   1.870
 5272TIP3    H215694   4.283   5.113   1.859
 5273TIP3   OH215695   4.418   5.466   2.033
 5273TIP3    H115696   4.463   5.385   2.067
 5273TIP3    H215697   4.464   5.480   1.949
 5274TIP3   OH215698   5.268   6.430   1.679
 5274TIP3    H115699   5.315   6.359   1.630
 5274TIP3    H215700   5.262   6.392   1.767
 5275TIP3   OH215701   5.175   5.892   2.030
 5275TIP3    H115702   5.212   5.816   1.981
 5275TIP3    H215703   5.260   5.936   2.054
 5276TIP3   OH215704   6.188   5.212   2.029
 5276TIP3    H115705   6.217   5.295   2.073
 5276TIP3    H215706   6.207   5.233   1.936
 5277TIP3   OH215707   5.590   5.394   2.063
 5277TIP3    H115708   5.630   5.307   2.083
 5277TIP3    H215709   5.557   5.379   1.973
 5278TIP3   OH215710   4.927   5.053   2.027
 5278TIP3    H115711   4.903   5.126   1.966
 5278TIP3    H215712   4.878   4.979   1.985
 5279TIP3   OH215713   5.619   5.142   1.652
 5279TIP3    H115714   5.692   5.127   1.716
 5279TIP3    H215715   5.670   5.180   1.577
 5280TIP3   OH215716   4.559   5.255   2.135
 5280TIP3    H115717   4.641   5.233   2.182
 5280TIP3    H215718   4.568   5.197   2.056
 5281TIP3   OH215719   5.000   5.453   1.925
 5281TIP3    H115720   5.093   5.426   1.941
 5281TIP3    H215721   4.960   5.368   1.895
 5282TIP3   OH215722   6.262   5.420   2.198
 5282TIP3    H115723   6.178   5.467   2.179
 5282TIP3    H215724   6.277   5.446   2.290
 5283TIP3   OH215725   4.923   5.036   2.463
 5283TIP3    H115726   4.862   5.073   2.396
 5283TIP3    H215727   4.870   5.053   2.544
 5284TIP3   OH215728   5.271   5.888   1.470
 5284TIP3    H115729   5.226   5.867   1.387
 5284TIP3    H215730   5.228   5.972   1.495
 5285TIP3   OH215731   5.030   5.811   2.260
 5285TIP3    H115732   4.965   5.876   2.297
 5285TIP3    H215733   5.069   5.863   2.187
 5286TIP3   OH215734   5.833   5.144   1.822
 5286TIP3    H115735   5.815   5.099   1.906
 5286TIP3    H215736   5.883   5.222   1.850
 5287TIP3   OH215737   4.794   5.151   2.247
 5287TIP3    H115738   4.856   5.224   2.270
 5287TIP3    H215739   4.843   5.111   2.172
 5288TIP3   OH215740   4.856   6.004   2.356
 5288TIP3    H115741   4.830   6.089   2.316
 5288TIP3    H215742   4.777   5.988   2.413
 5289TIP3   OH215743   4.255   5.694   1.591
 5289TIP3    H115744   4.209   5.721   1.510
 5289TIP3    H215745   4.284   5.780   1.629
 5290TIP3   OH215746   5.692   6.210   1.832
 5290TIP3    H115747   5.602   6.202   1.872
 5290TIP3    H215748   5.683   6.296   1.786
 5291TIP3   OH215749   5.981   5.111   2.194
 5291TIP3    H115750   5.893   5.141   2.165
 5291TIP3    H215751   6.039   5.144   2.122
 5292TIP3   OH215752   5.281   4.756   2.178
 5292TIP3    H115753   5.265   4.661   2.193
 5292TIP3    H215754   5.203   4.795   2.223
 5293TIP3   OH215755   5.395   6.257   1.507
 5293TIP3    H115756   5.444   6.175   1.485
 5293TIP3    H215757   5.455   6.323   1.466
 5294TIP3   OH215758   5.536   6.041   1.412
 5294TIP3    H115759   5.493   5.964   1.374
 5294TIP3    H215760   5.572   6.005   1.496
 5295TIP3   OH215761   5.917   6.124   2.175
 5295TIP3    H115762   5.905   6.047   2.116
 5295TIP3    H215763   5.899   6.199   2.114
 5296TIP3   OH215764   5.208   5.516   1.431
 5296TIP3    H115765   5.127   5.568   1.412
 5296TIP3    H215766   5.253   5.517   1.346
 5297TIP3   OH215767   5.167   5.302   1.147
 5297TIP3    H115768   5.233   5.353   1.199
 5297TIP3    H215769   5.226   5.239   1.101
 5298TIP3   OH215770   6.112   5.760   2.019
 5298TIP3    H115771   6.029   5.812   2.025
 5298TIP3    H215772   6.141   5.786   1.929
 5299TIP3   OH215773   5.556   5.598   1.405
 5299TIP3    H115774   5.500   5.625   1.482
 5299TIP3    H215775   5.639   5.575   1.450
 5300TIP3   OH215776   5.791   5.640   2.314
 5300TIP3    H115777   5.788   5.724   2.364
 5300TIP3    H215778   5.704   5.643   2.270
 5301TIP3   OH215779   4.788   5.598   1.819
 5301TIP3    H115780   4.746   5.540   1.752
 5301TIP3    H215781   4.865   5.544   1.848
 5302TIP3   OH215782   4.918   6.010   1.969
 5302TIP3    H115783   4.896   5.967   1.886
 5302TIP3    H215784   5.008   5.976   1.987
 5303TIP3   OH215785   4.932   5.566   2.177
 5303TIP3    H115786   4.958   5.550   2.084
 5303TIP3    H215787   4.969   5.655   2.195
 5304TIP3   OH215788   5.451   6.207   1.952
 5304TIP3    H115789   5.436   6.286   2.006
 5304TIP3    H215790   5.435   6.134   2.015
 5305TIP3   OH215791   5.062   6.127   2.498
 5305TIP3    H115792   5.002   6.188   2.545
 5305TIP3    H215793   4.996   6.073   2.449
 5306TIP3   OH215794   5.399   5.456   1.230
 5306TIP3    H115795   5.455   5.517   1.282
 5306TIP3    H215796   5.424   5.481   1.137
 5307TIP3   OH215797   4.816   5.683   2.598
 5307TIP3    H115798   4.820   5.769   2.644
 5307TIP3    H215799   4.721   5.662   2.609
 5308TIP3   OH215800   5.139   6.138   1.507
 5308TIP3    H115801   5.217   6.194   1.524
 5308TIP3    H215802   5.078   6.198   1.463
 5309TIP3   OH215803   4.856   6.296   2.586
 5309TIP3    H115804   4.822   6.293   2.495
 5309TIP3    H215805   4.777   6.274   2.639
 5310TIP3   OH215806   5.910   4.697   1.276
 5310TIP3    H115807   5.830   4.717   1.329
 5310TIP3    H215808   5.925   4.784   1.232
 5311TIP3   OH215809   4.656   5.439   1.622
 5311TIP3    H115810   4.589   5.485   1.567
 5311TIP3    H215811   4.610   5.357   1.643
 5312TIP3   OH215812   5.709   6.066   0.825
 5312TIP3    H115813   5.717   6.163   0.814
 5312TIP3    H215814   5.803   6.038   0.816
 5313TIP3   OH215815   4.436   5.824   2.532
 5313TIP3    H115816   4.370   5.803   2.464
 5313TIP3    H215817   4.472   5.736   2.556
 5314TIP3   OH215818   4.289   6.020   2.162
 5314TIP3    H115819   4.385   6.009   2.155
 5314TIP3    H215820   4.282   6.097   2.220
 5315TIP3   OH215821   6.154   6.468   2.220
 5315TIP3    H115822   6.153   6.372   2.235
 5315TIP3    H215823   6.071   6.494   2.266
 5316TIP3   OH215824   5.261   6.255   2.356
 5316TIP3    H115825   5.259   6.347   2.388
 5316TIP3    H215826   5.188   6.215   2.410
 5317TIP3   OH215827   5.020   6.382   1.308
 5317TIP3    H115828   4.977   6.362   1.223
 5317TIP3    H215829   4.988   6.472   1.328
 5318TIP3   OH215830   4.458   6.234   1.691
 5318TIP3    H115831   4.506   6.224   1.776
 5318TIP3    H215832   4.402   6.154   1.693
 5319TIP3   OH215833   5.224   6.288   0.951
 5319TIP3    H115834   5.281   6.218   0.912
 5319TIP3    H215835   5.258   6.294   1.042
 5320TIP3   OH215836   5.273   6.332   1.221
 5320TIP3    H115837   5.183   6.342   1.260
 5320TIP3    H215838   5.321   6.291   1.294
 5321TIP3   OH215839   6.045   5.600   2.495
 5321TIP3    H115840   5.963   5.614   2.446
 5321TIP3    H215841   6.059   5.504   2.484
 5322TIP3   OH215842   4.640   6.008   2.523
 5322TIP3    H115843   4.690   5.989   2.605
 5322TIP3    H215844   4.567   5.944   2.529
 5323TIP3   OH215845   5.041   4.832   2.303
 5323TIP3    H115846   4.952   4.800   2.278
 5323TIP3    H215847   5.015   4.914   2.350
 5324TIP3   OH215848   5.572   4.947   2.499
 5324TIP3    H115849   5.639   4.919   2.565
 5324TIP3    H215850   5.487   4.927   2.544
 5325TIP3   OH215851   5.815   5.377   2.419
 5325TIP3    H115852   5.764   5.372   2.503
 5325TIP3    H215853   5.788   5.463   2.383
 5326TIP3   OH215854   5.471   5.502   0.972
 5326TIP3    H115855   5.440   5.478   0.883
 5326TIP3    H215856   5.549   5.557   0.951
 5327TIP3   OH215857   5.185   4.880   1.275
 5327TIP3    H115858   5.153   4.879   1.367
 5327TIP3    H215859   5.145   4.797   1.243
 5328TIP3   OH215860   4.974   5.345   2.326
 5328TIP3    H115861   4.921   5.366   2.405
 5328TIP3    H215862   4.959   5.426   2.271
 5329TIP3   OH215863   4.855   5.232   1.837
 5329TIP3    H115864   4.762   5.207   1.856
 5329TIP3    H215865   4.867   5.191   1.749
 5330TIP3   OH215866   5.347   5.319   1.565
 5330TIP3    H115867   5.292   5.390   1.525
 5330TIP3    H215868   5.400   5.289   1.489
 5331TIP3   OH215869   5.520   5.597   2.651
 5331TIP3    H115870   5.498   5.525   2.714
 5331TIP3    H215871   5.613   5.612   2.674
 5332TIP3   OH215872   5.504   5.348   1.805
 5332TIP3    H115873   5.444   5.379   1.735
 5332TIP3    H215874   5.535   5.265   1.761
 5333TIP3   OH215875   4.792   5.375   2.532
 5333TIP3    H115876   4.813   5.439   2.602
 5333TIP3    H215877   4.777   5.293   2.582
 5334TIP3   OH215878   4.838   4.851   1.242
 5334TIP3    H115879   4.833   4.848   1.340
 5334TIP3    H215880   4.760   4.907   1.222
 5335TIP3   OH215881   4.387   4.894   2.115
 5335TIP3    H115882   4.464   4.925   2.167
 5335TIP3    H215883   4.425   4.866   2.030
 5336TIP3   OH215884   4.369   4.873   1.626
 5336TIP3    H115885   4.416   4.916   1.552
 5336TIP3    H215886   4.304   4.944   1.648
 5337TIP3   OH215887   5.516   5.594   2.228
 5337TIP3    H115888   5.548   5.521   2.170
 5337TIP3    H215889   5.485   5.542   2.305
 5338TIP3   OH215890   5.182   5.053   1.899
 5338TIP3    H115891   5.098   5.052   1.948
 5338TIP3    H215892   5.247   5.056   1.971
 5339TIP3   OH215893   4.616   5.112   1.904
 5339TIP3    H115894   4.521   5.123   1.880
 5339TIP3    H215895   4.633   5.019   1.883
 5340TIP3   OH215896   4.888   5.106   1.595
 5340TIP3    H115897   4.981   5.124   1.572
 5340TIP3    H215898   4.839   5.129   1.513
 5341TIP3   OH215899   5.674   5.129   2.098
 5341TIP3    H115900   5.643   5.142   2.190
 5341TIP3    H215901   5.606   5.068   2.064
 5342TIP3   OH215902   4.729   5.137   1.376
 5342TIP3    H115903   4.651   5.098   1.331
 5342TIP3    H215904   4.778   5.173   1.299
 5343TIP3   OH215905   5.844   6.819   2.319
 5343TIP3    H115906   5.841   6.842   2.224
 5343TIP3    H215907   5.922   6.869   2.349
 5344TIP3   OH215908   4.802   5.930   2.741
 5344TIP3    H115909   4.882   5.960   2.790
 5344TIP3    H215910   4.737   5.926   2.814
 5345TIP3   OH215911   5.266   5.382   1.997
 5345TIP3    H115912   5.339   5.341   1.949
 5345TIP3    H215913   5.274   5.341   2.086
 5346TIP3   OH215914   4.793   4.869   1.876
 5346TIP3    H115915   4.754   4.792   1.922
 5346TIP3    H215916   4.838   4.828   1.801
 5347TIP3   OH215917   5.243   5.279   2.285
 5347TIP3    H115918   5.153   5.314   2.299
 5347TIP3    H215919   5.299   5.341   2.337
 5348TIP3   OH215920   4.981   5.670   1.382
 5348TIP3    H115921   4.907   5.605   1.371
 5348TIP3    H215922   4.961   5.704   1.473
 5349TIP3   OH215923   5.880   5.906   2.011
 5349TIP3    H115924   5.903   5.956   1.930
 5349TIP3    H215925   5.794   5.865   1.987
 5350TIP3   OH215926   5.437   4.983   1.241
 5350TIP3    H115927   5.340   4.967   1.250
 5350TIP3    H215928   5.447   5.077   1.266
 5351TIP3   OH215929   5.382   5.990   2.378
 5351TIP3    H115930   5.399   5.965   2.469
 5351TIP3    H215931   5.340   6.077   2.386
 5352TIP3   OH215932   5.508   5.229   1.345
 5352TIP3    H115933   5.603   5.238   1.362
 5352TIP3    H215934   5.487   5.310   1.294
 5353TIP3   OH215935   4.677   5.698   2.059
 5353TIP3    H115936   4.710   5.664   1.973
 5353TIP3    H215937   4.702   5.627   2.120
 5354TIP3   OH215938   5.124   5.820   1.202
 5354TIP3    H115939   5.078   5.907   1.207
 5354TIP3    H215940   5.069   5.766   1.263
 5355TIP3   OH215941   4.552   5.612   2.670
 5355TIP3    H115942   4.570   5.597   2.765
 5355TIP3    H215943   4.481   5.547   2.652
 5356TIP3   OH215944   5.276   5.727   2.689
 5356TIP3    H115945   5.216   5.667   2.642
 5356TIP3    H215946   5.363   5.693   2.659
 5357TIP3   OH215947   5.540   6.249   2.273
 5357TIP3    H115948   5.444   6.246   2.286
 5357TIP3    H215949   5.567   6.301   2.352
 5358TIP3   OH215950   5.952   5.316   1.181
 5358TIP3    H115951   5.888   5.274   1.119
 5358TIP3    H215952   5.949   5.407   1.143
 5359TIP3   OH215953   6.167   6.176   2.264
 5359TIP3    H115954   6.069   6.172   2.256
 5359TIP3    H215955   6.193   6.147   2.173
 5360TIP3   OH215956   5.652   6.138   1.091
 5360TIP3    H115957   5.623   6.069   1.151
 5360TIP3    H215958   5.662   6.092   1.006
 5361TIP3   OH215959   5.645   5.768   1.931
 5361TIP3    H115960   5.552   5.743   1.944
 5361TIP3    H215961   5.679   5.689   1.884
 5362TIP3   OH215962   4.772   5.995   1.682
 5362TIP3    H115963   4.772   6.077   1.628
 5362TIP3    H215964   4.677   5.979   1.691
 5363TIP3   OH215965   4.335   5.301   1.383
 5363TIP3    H115966   4.381   5.385   1.406
 5363TIP3    H215967   4.259   5.305   1.445
 5364TIP3   OH215968   4.913   5.763   1.627
 5364TIP3    H115969   4.877   5.852   1.645
 5364TIP3    H215970   4.875   5.712   1.701
 5365TIP3   OH215971   5.041   6.340   2.152
 5365TIP3    H115972   5.082   6.412   2.100
 5365TIP3    H215973   5.118   6.306   2.200
 5366TIP3   OH215974   4.693   6.234   1.535
 5366TIP3    H115975   4.606   6.243   1.580
 5366TIP3    H215976   4.724   6.327   1.537
 5367TIP3   OH215977   5.431   5.973   2.109
 5367TIP3    H115978   5.422   5.973   2.207
 5367TIP3    H215979   5.511   5.920   2.097
 5368TIP3   OH215980   5.405   5.860   0.992
 5368TIP3    H115981   5.456   5.838   1.073
 5368TIP3    H215982   5.314   5.843   1.021
 5369TIP3   OH215983   5.679   6.509   2.160
 5369TIP3    H115984   5.600   6.452   2.153
 5369TIP3    H215985   5.663   6.573   2.088
 5370TIP3   OH215986   5.743   6.339   0.817
 5370TIP3    H115987   5.765   6.401   0.744
 5370TIP3    H215988   5.666   6.387   0.853
 5371TIP3   OH215989   4.763   5.118   2.678
 5371TIP3    H115990   4.666   5.124   2.691
 5371TIP3    H215991   4.789   5.059   2.751
 5372TIP3   OH215992   5.564   5.799   1.209
 5372TIP3    H115993   5.555   5.734   1.282
 5372TIP3    H215994   5.661   5.798   1.197
 5373TIP3   OH215995   4.479   6.204   2.311
 5373TIP3    H115996   4.530   6.126   2.339
 5373TIP3    H215997   4.511   6.269   2.375
 5374TIP3   OH215998   4.773   5.844   0.992
 5374TIP3    H115999   4.785   5.752   0.965
 5374TIP3    H216000   4.752   5.835   1.087
 5375TIP3   OH216001   4.717   5.852   1.264
 5375TIP3    H116002   4.787   5.828   1.326
 5375TIP3    H216003   4.720   5.950   1.269
 5376TIP3   OH216004   4.454   5.547   1.467
 5376TIP3    H116005   4.387   5.589   1.525
 5376TIP3    H216006   4.466   5.617   1.400
 5377TIP3   OH216007   5.603   5.180   2.357
 5377TIP3    H116008   5.679   5.220   2.402
 5377TIP3    H216009   5.585   5.101   2.412
 5378TIP3   OH216010   5.484   4.933   1.523
 5378TIP3    H116011   5.466   4.958   1.430
 5378TIP3    H216012   5.520   5.016   1.560
 5379TIP3   OH216013   4.983   6.051   1.215
 5379TIP3    H116014   4.896   6.079   1.248
 5379TIP3    H216015   4.998   6.118   1.147
 5380TIP3   OH216016   5.173   5.111   1.626
 5380TIP3    H116017   5.236   5.185   1.610
 5380TIP3    H216018   5.175   5.106   1.724
 5381TIP3   OH216019   5.440   5.433   2.434
 5381TIP3    H116020   5.457   5.489   2.513
 5381TIP3    H216021   5.494   5.355   2.452
 5382TIP3   OH216022   5.316   4.842   1.731
 5382TIP3    H116023   5.304   4.921   1.788
 5382TIP3    H216024   5.376   4.879   1.662
 5383TIP3   OH216025   4.724   6.125   1.279
 5383TIP3    H116026   4.697   6.195   1.216
 5383TIP3    H216027   4.709   6.169   1.365
 5384TIP3   OH216028   4.827   4.838   1.518
 5384TIP3    H116029   4.822   4.928   1.555
 5384TIP3    H216030   4.923   4.822   1.528
 5385TIP3   OH216031   6.081   5.331   2.414
 5385TIP3    H116032   5.983   5.331   2.423
 5385TIP3    H216033   6.089   5.292   2.326
 5386TIP3   OH216034   5.731   5.526   1.802
 5386TIP3    H116035   5.654   5.468   1.816
 5386TIP3    H216036   5.802   5.479   1.852
 5387TIP3   OH216037   4.442   5.756   1.274
 5387TIP3    H116038   4.504   5.831   1.281
 5387TIP3    H216039   4.488   5.704   1.206
 5388TIP3   OH216040   4.390   5.031   1.393
 5388TIP3    H116041   4.388   5.129   1.398
 5388TIP3    H216042   4.296   5.010   1.396
 5389TIP3   OH216043   5.699   6.482   1.753
 5389TIP3    H116044   5.655   6.529   1.679
 5389TIP3    H216045   5.793   6.500   1.732
 5390TIP3   OH216046   4.779   4.750   2.279
 5390TIP3    H116047   4.744   4.719   2.194
 5390TIP3    H216048   4.765   4.672   2.337
 5391TIP3   OH216049   4.317   5.973   1.663
 5391TIP3    H116050   4.242   6.001   1.717
 5391TIP3    H216051   4.292   6.010   1.576
 5392TIP3   OH216052   4.469   6.510   2.733
 5392TIP3    H116053   4.556   6.507   2.778
 5392TIP3    H216054   4.447   6.415   2.730
 5393TIP3   OH216055   4.954   6.478   2.775
 5393TIP3    H116056   5.048   6.454   2.783
 5393TIP3    H216057   4.927   6.419   2.702
 5394TIP3   OH216058   4.934   6.052   0.911
 5394TIP3    H116059   4.876   5.980   0.943
 5394TIP3    H216060   5.005   6.001   0.869
 5395TIP3   OH216061   5.591   6.382   2.510
 5395TIP3    H116062   5.582   6.312   2.578
 5395TIP3    H216063   5.669   6.432   2.541
 5396TIP3   OH216064   5.368   6.091   0.818
 5396TIP3    H116065   5.419   6.030   0.874
 5396TIP3    H216066   5.425   6.100   0.739
 5397TIP3   OH216067   4.601   5.918   2.932
 5397TIP3    H116068   4.618   5.822   2.939
 5397TIP3    H216069   4.513   5.919   2.888
 5398TIP3   OH216070   4.577   5.568   1.124
 5398TIP3    H116071   4.631   5.537   1.198
 5398TIP3    H216072   4.646   5.575   1.054
 5399TIP3   OH216073   5.209   6.002   2.705
 5399TIP3    H116074   5.166   6.017   2.619
 5399TIP3    H216075   5.240   5.909   2.699
 5400TIP3   OH216076   5.090   5.765   0.931
 5400TIP3    H116077   5.089   5.781   1.028
 5400TIP3    H216078   5.083   5.667   0.928
 5401TIP3   OH216079   5.702   6.008   2.312
 5401TIP3    H116080   5.775   6.056   2.268
 5401TIP3    H216081   5.629   6.072   2.300
 5402TIP3   OH216082   4.721   5.653   2.913
 5402TIP3    H116083   4.792   5.589   2.897
 5402TIP3    H216084   4.745   5.684   3.003
 5403TIP3   OH216085   4.788   5.471   1.349
 5403TIP3    H116086   4.757   5.433   1.433
 5403TIP3    H216087   4.822   5.393   1.301
 5404TIP3   OH216088   5.058   5.538   2.578
 5404TIP3    H116089   4.978   5.595   2.580
 5404TIP3    H216090   5.103   5.571   2.497
 5405TIP3   OH216091   4.886   5.262   1.189
 5405TIP3    H116092   4.859   5.270   1.095
 5405TIP3    H216093   4.983   5.271   1.181
 5406TIP3   OH216094   5.572   5.938   2.710
 5406TIP3    H116095   5.653   5.915   2.664
 5406TIP3    H216096   5.569   5.872   2.781
 5407TIP3   OH216097   5.710   5.595   0.850
 5407TIP3    H116098   5.688   5.550   0.766
 5407TIP3    H216099   5.679   5.686   0.828
 5408TIP3   OH216100   5.182   5.324   2.700
 5408TIP3    H116101   5.177   5.244   2.644
 5408TIP3    H216102   5.136   5.391   2.644
 5409TIP3   OH216103   5.181   5.109   2.508
 5409TIP3    H116104   5.207   5.151   2.424
 5409TIP3    H216105   5.087   5.087   2.491
 5410TIP3   OH216106   5.211   5.647   2.381
 5410TIP3    H116107   5.292   5.657   2.330
 5410TIP3    H216108   5.152   5.713   2.339
 5411TIP3   OH216109   5.791   5.612   2.764
 5411TIP3    H116110   5.843   5.530   2.771
 5411TIP3    H216111   5.858   5.675   2.733
 5412TIP3   OH216112   5.832   5.865   2.500
 5412TIP3    H116113   5.774   5.918   2.441
 5412TIP3    H216114   5.920   5.886   2.459
 5413TIP3   OH216115   5.059   5.436   2.931
 5413TIP3    H116116   4.988   5.371   2.947
 5413TIP3    H216117   5.090   5.409   2.842
 5414TIP3   OH216118   5.313   4.874   2.576
 5414TIP3    H116119   5.264   4.956   2.553
 5414TIP3    H216120   5.243   4.806   2.565
 5415TIP3   OH216121   5.440   5.378   2.792
 5415TIP3    H116122   5.421   5.369   2.888
 5415TIP3    H216123   5.351   5.355   2.758
 5416TIP3   OH216124   5.677   5.325   2.646
 5416TIP3    H116125   5.601   5.330   2.707
 5416TIP3    H216126   5.750   5.297   2.704
 5417TIP3   OH216127   5.907   5.269   2.799
 5417TIP3    H116128   5.920   5.174   2.818
 5417TIP3    H216129   5.905   5.309   2.888
 5418TIP3   OH216130   4.897   5.217   2.983
 5418TIP3    H116131   4.901   5.125   2.950
 5418TIP3    H216132   4.930   5.206   3.074
 5419TIP3   OH216133   5.411   4.885   2.832
 5419TIP3    H116134   5.475   4.811   2.826
 5419TIP3    H216135   5.368   4.879   2.745
 5420TIP3   OH216136   5.474   5.099   2.994
 5420TIP3    H116137   5.452   5.029   2.928
 5420TIP3    H216138   5.396   5.158   2.987
 5421TIP3   OH216139   4.692   6.326   1.089
 5421TIP3    H116140   4.786   6.330   1.065
 5421TIP3    H216141   4.651   6.355   1.006
 5422TIP3   OH216142   4.173   5.711   1.308
 5422TIP3    H116143   4.268   5.733   1.296
 5422TIP3    H216144   4.169   5.622   1.267
 5423TIP3   OH216145   4.087   6.322   1.723
 5423TIP3    H116146   4.021   6.259   1.687
 5423TIP3    H216147   4.132   6.265   1.789
 5424TIP3   OH216148   4.223   6.175   1.910
 5424TIP3    H116149   4.213   6.099   1.970
 5424TIP3    H216150   4.275   6.235   1.967
 5425TIP3   OH216151   5.952   6.571   1.709
 5425TIP3    H116152   5.979   6.607   1.795
 5425TIP3    H216153   6.010   6.618   1.648
 5426TIP3   OH216154   5.981   6.595   1.992
 5426TIP3    H116155   5.937   6.507   1.986
 5426TIP3    H216156   6.056   6.571   2.049
 5427TIP3   OH216157   6.027   6.271   2.563
 5427TIP3    H116158   5.954   6.279   2.628
 5427TIP3    H216159   6.068   6.359   2.569
 5428TIP3   OH216160   5.844   5.782   1.184
 5428TIP3    H116161   5.910   5.848   1.155
 5428TIP3    H216162   5.888   5.745   1.263
 5429TIP3   OH216163   5.972   5.650   1.388
 5429TIP3    H116164   5.904   5.609   1.446
 5429TIP3    H216165   6.032   5.692   1.453
 5430TIP3   OH216166   6.026   6.042   1.822
 5430TIP3    H116167   6.078   5.980   1.767
 5430TIP3    H216168   6.017   6.119   1.762
 5431TIP3   OH216169   5.857   6.343   2.016
 5431TIP3    H116170   5.786   6.386   2.067
 5431TIP3    H216171   5.807   6.296   1.946
 5432TIP3   OH216172   5.909   5.556   1.035
 5432TIP3    H116173   5.838   5.561   0.967
 5432TIP3    H216174   5.883   5.634   1.089
 5433TIP3   OH216175   5.783   5.227   0.988
 5433TIP3    H116176   5.740   5.274   0.916
 5433TIP3    H216177   5.754   5.135   0.972
 5434TIP3   OH216178   5.787   5.507   1.535
 5434TIP3    H116179   5.793   5.410   1.531
 5434TIP3    H216180   5.772   5.522   1.631
 5435TIP3   OH216181   4.412   5.582   2.282
 5435TIP3    H116182   4.409   5.551   2.189
 5435TIP3    H216183   4.509   5.582   2.298
 5436TIP3   OH216184   6.074   5.932   2.391
 5436TIP3    H116185   6.148   5.867   2.382
 5436TIP3    H216186   6.101   6.003   2.330
 5437TIP3   OH216187   6.261   5.738   2.405
 5437TIP3    H116188   6.186   5.688   2.446
 5437TIP3    H216189   6.334   5.674   2.421
 5438TIP3   OH216190   5.727   4.958   0.966
 5438TIP3    H116191   5.795   4.936   1.032
 5438TIP3    H216192   5.647   4.910   0.997
 5439TIP3   OH216193   5.781   5.223   1.431
 5439TIP3    H116194   5.822   5.134   1.445
 5439TIP3    H216195   5.840   5.257   1.361
 5440TIP3   OH216196   5.944   5.396   1.925
 5440TIP3    H116197   6.030   5.423   1.886
 5440TIP3    H216198   5.955   5.434   2.014
 5441TIP3   OH216199   6.011   5.541   2.156
 5441TIP3    H116200   5.933   5.575   2.205
 5441TIP3    H216201   6.043   5.622   2.112
 5442TIP3   OH216202   4.630   5.269   2.957
 5442TIP3    H116203   4.727   5.262   2.959
 5442TIP3    H216204   4.605   5.183   2.998
 5443TIP3   OH216205   6.462   5.129   2.712
 5443TIP3    H116206   6.522   5.065   2.668
 5443TIP3    H216207   6.435   5.186   2.638
 5444TIP3   OH216208   5.893   4.972   1.465
 5444TIP3    H116209   5.939   4.958   1.550
 5444TIP3    H216210   5.830   4.897   1.466
 5445TIP3   OH216211   4.595   4.959   2.284
 5445TIP3    H116212   4.657   4.885   2.296
 5445TIP3    H216213   4.655   5.035   2.282
 5446TIP3   OH216214   4.398   5.233   2.364
 5446TIP3    H116215   4.440   5.223   2.276
 5446TIP3    H216216   4.425   5.323   2.388
 5447TIP3   OH216217   6.336   5.272   2.520
 5447TIP3    H116218   6.251   5.314   2.544
 5447TIP3    H216219   6.304   5.202   2.460
 5448TIP3   OH216220   5.972   4.909   1.101
 5448TIP3    H116221   6.020   4.841   1.050
 5448TIP3    H216222   6.034   4.984   1.097
 5449TIP3   OH216223   4.378   4.733   1.859
 5449TIP3    H116224   4.285   4.726   1.891
 5449TIP3    H216225   4.369   4.795   1.783
 5450TIP3   OH216226   5.539   6.438   1.369
 5450TIP3    H116227   5.585   6.423   1.284
 5450TIP3    H216228   5.592   6.510   1.407
 5451TIP3   OH216229   4.598   4.814   2.675
 5451TIP3    H116230   4.547   4.811   2.757
 5451TIP3    H216231   4.532   4.855   2.615
 5452TIP3   OH216232   4.636   6.248   2.754
 5452TIP3    H116233   4.546   6.216   2.734
 5452TIP3    H216234   4.646   6.221   2.846
 5453TIP3   OH216235   4.814   6.276   2.301
 5453TIP3    H116236   4.766   6.351   2.261
 5453TIP3    H216237   4.900   6.290   2.256
 5454TIP3   OH216238   5.260   6.521   2.439
 5454TIP3    H116239   5.303   6.522   2.527
 5454TIP3    H216240   5.326   6.572   2.386
 5455TIP3   OH216241   5.439   6.672   2.296
 5455TIP3    H116242   5.509   6.621   2.253
 5455TIP3    H216243   5.491   6.729   2.357
 5456TIP3   OH216244   6.234   5.035   2.396
 5456TIP3    H116245   6.142   5.031   2.362
 5456TIP3    H216246   6.263   4.942   2.384
 5457TIP3   OH216247   4.492   6.536   2.321
 5457TIP3    H116248   4.403   6.570   2.298
 5457TIP3    H216249   4.497   6.563   2.413
 5458TIP3   OH216250   4.729   6.513   2.181
 5458TIP3    H116251   4.642   6.526   2.225
 5458TIP3    H216252   4.709   6.544   2.090
 5459TIP3   OH216253   5.154   6.541   1.979
 5459TIP3    H116254   5.085   6.560   1.912
 5459TIP3    H216255   5.166   6.629   2.020
 5460TIP3   OH216256   5.422   6.481   2.030
 5460TIP3    H116257   5.327   6.497   2.010
 5460TIP3    H216258   5.464   6.557   1.986
 5461TIP3   OH216259   5.632   6.674   1.945
 5461TIP3    H116260   5.616   6.758   1.897
 5461TIP3    H216261   5.656   6.613   1.872
 5462TIP3   OH216262   4.402   6.328   2.070
 5462TIP3    H116263   4.430   6.301   2.160
 5462TIP3    H216264   4.473   6.284   2.018
 5463TIP3   OH216265   4.595   6.199   1.925
 5463TIP3    H116266   4.611   6.115   1.974
 5463TIP3    H216267   4.686   6.236   1.919
 5464TIP3   OH216268   4.862   6.294   1.927
 5464TIP3    H116269   4.893   6.203   1.914
 5464TIP3    H216270   4.906   6.314   2.012
 5465TIP3   OH216271   5.441   4.951   2.018
 5465TIP3    H116272   5.394   4.883   2.070
 5465TIP3    H216273   5.509   4.899   1.972
 5466TIP3   OH216274   5.963   4.827   1.919
 5466TIP3    H116275   5.998   4.882   1.846
 5466TIP3    H216276   5.868   4.847   1.915
 5467TIP3   OH216277   6.057   4.929   1.683
 5467TIP3    H116278   6.131   4.879   1.643
 5467TIP3    H216279   6.090   5.022   1.669
 5468TIP3   OH216280   4.688   4.659   2.031
 5468TIP3    H116281   4.595   4.628   2.032
 5468TIP3    H216282   4.736   4.574   2.027
 5469TIP3   OH216283   4.471   4.530   1.679
 5469TIP3    H116284   4.498   4.591   1.609
 5469TIP3    H216285   4.440   4.592   1.748
 5470TIP3   OH216286   5.132   4.688   1.910
 5470TIP3    H116287   5.191   4.743   1.855
 5470TIP3    H216288   5.144   4.729   1.997
 5471TIP3   OH216289   5.682   4.837   1.896
 5471TIP3    H116290   5.671   4.802   1.807
 5471TIP3    H216291   5.666   4.757   1.951
 5472TIP3   OH216292   5.708   4.759   1.457
 5472TIP3    H116293   5.622   4.804   1.470
 5472TIP3    H216294   5.692   4.675   1.505
 5473TIP3   OH216295   4.190   6.098   1.461
 5473TIP3    H116296   4.106   6.065   1.425
 5473TIP3    H216297   4.179   6.192   1.442
 5474TIP3   OH216298   4.590   4.690   1.438
 5474TIP3    H116299   4.641   4.627   1.385
 5474TIP3    H216300   4.660   4.744   1.479
 5475TIP3   OH216301   5.105   4.862   1.541
 5475TIP3    H116302   5.162   4.816   1.604
 5475TIP3    H216303   5.125   4.955   1.566
 5476TIP3   OH216304   4.963   6.291   1.044
 5476TIP3    H116305   5.047   6.320   1.002
 5476TIP3    H216306   4.940   6.218   0.982
 5477TIP3   OH216307   5.680   6.406   1.135
 5477TIP3    H116308   5.673   6.309   1.120
 5477TIP3    H216309   5.636   6.440   1.055
 5478TIP3   OH216310   4.896   4.940   2.922
 5478TIP3    H116311   4.860   4.870   2.980
 5478TIP3    H216312   4.989   4.940   2.951
 5479TIP3   OH216313   5.146   4.937   3.042
 5479TIP3    H116314   5.228   4.905   3.001
 5479TIP3    H216315   5.129   4.867   3.109
 5480TIP3   OH216316   4.265   6.121   1.098
 5480TIP3    H116317   4.268   6.151   1.190
 5480TIP3    H216318   4.354   6.081   1.086
 5481TIP3   OH216319   5.971   4.998   2.833
 5481TIP3    H116320   5.998   4.966   2.921
 5481TIP3    H216321   6.056   4.996   2.784
 5482TIP3   OH216322   5.908   6.551   2.322
 5482TIP3    H116323   5.830   6.518   2.273
 5482TIP3    H216324   5.888   6.646   2.325
 5483TIP3   OH216325   7.167   5.920   1.097
 5483TIP3    H116326   7.142   6.012   1.073
 5483TIP3    H216327   7.098   5.872   1.047
 5484TIP3   OH216328   7.153   5.920   1.474
 5484TIP3    H116329   7.201   5.889   1.553
 5484TIP3    H216330   7.172   5.852   1.408
 5485TIP3   OH216331   6.484   5.817   1.823
 5485TIP3    H116332   6.507   5.750   1.890
 5485TIP3    H216333   6.539   5.892   1.852
 5486TIP3   OH216334   7.418   6.221   1.151
 5486TIP3    H116335   7.405   6.155   1.220
 5486TIP3    H216336   7.444   6.300   1.202
 5487TIP3   OH216337   6.444   6.229   1.562
 5487TIP3    H116338   6.437   6.132   1.565
 5487TIP3    H216339   6.541   6.239   1.552
 5488TIP3   OH216340   6.153   5.434   1.343
 5488TIP3    H116341   6.103   5.516   1.358
 5488TIP3    H216342   6.082   5.377   1.307
 5489TIP3   OH216343   6.211   5.722   1.516
 5489TIP3    H116344   6.258   5.644   1.553
 5489TIP3    H216345   6.261   5.739   1.435
 5490TIP3   OH216346   7.064   6.688   1.167
 5490TIP3    H116347   7.109   6.616   1.118
 5490TIP3    H216348   7.057   6.649   1.255
 5491TIP3   OH216349   6.971   6.145   1.518
 5491TIP3    H116350   7.015   6.067   1.478
 5491TIP3    H216351   7.052   6.195   1.542
 5492TIP3   OH216352   7.985   5.468   1.515
 5492TIP3    H116353   8.013   5.551   1.558
 5492TIP3    H216354   8.005   5.488   1.422
 5493TIP3   OH216355   7.380   5.650   1.547
 5493TIP3    H116356   7.425   5.567   1.569
 5493TIP3    H216357   7.347   5.631   1.458
 5494TIP3   OH216358   7.416   5.412   1.147
 5494TIP3    H116359   7.493   5.390   1.204
 5494TIP3    H216360   7.463   5.439   1.065
 5495TIP3   OH216361   6.352   5.516   1.625
 5495TIP3    H116362   6.432   5.493   1.675
 5495TIP3    H216363   6.364   5.457   1.547
 5496TIP3   OH216364   8.058   5.675   1.685
 5496TIP3    H116365   7.975   5.724   1.665
 5496TIP3    H216366   8.073   5.703   1.777
 5497TIP3   OH216367   6.717   5.291   1.950
 5497TIP3    H116368   6.652   5.328   1.887
 5497TIP3    H216369   6.670   5.307   2.034
 5498TIP3   OH216370   7.061   6.137   0.965
 5498TIP3    H116371   7.031   6.123   0.873
 5498TIP3    H216372   7.021   6.224   0.984
 5499TIP3   OH216373   6.820   6.066   1.749
 5499TIP3    H116374   6.757   6.132   1.785
 5499TIP3    H216375   6.862   6.117   1.677
 5500TIP3   OH216376   7.632   5.399   1.311
 5500TIP3    H116377   7.623   5.354   1.395
 5500TIP3    H216378   7.683   5.479   1.335
 5501TIP3   OH216379   6.582   5.402   1.734
 5501TIP3    H116380   6.646   5.475   1.755
 5501TIP3    H216381   6.622   5.362   1.656
 5502TIP3   OH216382   6.651   6.261   1.843
 5502TIP3    H116383   6.626   6.347   1.803
 5502TIP3    H216384   6.572   6.247   1.900
 5503TIP3   OH216385   6.049   5.951   1.079
 5503TIP3    H116386   6.007   5.976   0.994
 5503TIP3    H216387   6.077   6.038   1.114
 5504TIP3   OH216388   7.488   6.467   1.320
 5504TIP3    H116389   7.398   6.458   1.358
 5504TIP3    H216390   7.480   6.552   1.272
 5505TIP3   OH216391   7.778   5.368   1.681
 5505TIP3    H116392   7.690   5.399   1.651
 5505TIP3    H216393   7.837   5.400   1.609
 5506TIP3   OH216394   7.074   5.012   1.662
 5506TIP3    H116395   7.063   4.917   1.681
 5506TIP3    H216396   6.997   5.049   1.710
 5507TIP3   OH216397   7.185   6.512   0.996
 5507TIP3    H116398   7.235   6.430   0.972
 5507TIP3    H216399   7.247   6.579   0.956
 5508TIP3   OH216400   7.328   6.303   0.901
 5508TIP3    H116401   7.319   6.228   0.839
 5508TIP3    H216402   7.363   6.259   0.981
 5509TIP3   OH216403   7.713   6.381   1.662
 5509TIP3    H116404   7.703   6.304   1.603
 5509TIP3    H216405   7.696   6.456   1.601
 5510TIP3   OH216406   7.006   5.777   0.918
 5510TIP3    H116407   6.925   5.828   0.897
 5510TIP3    H216408   7.046   5.768   0.830
 5511TIP3   OH216409   6.967   5.557   0.667
 5511TIP3    H116410   7.054   5.591   0.695
 5511TIP3    H216411   6.996   5.490   0.602
 5512TIP3   OH216412   7.909   6.016   1.506
 5512TIP3    H116413   7.826   6.069   1.512
 5512TIP3    H216414   7.938   6.041   1.416
 5513TIP3   OH216415   7.349   5.851   0.899
 5513TIP3    H116416   7.298   5.881   0.978
 5513TIP3    H216417   7.436   5.830   0.938
 5514TIP3   OH216418   7.587   5.897   1.802
 5514TIP3    H116419   7.585   5.979   1.854
 5514TIP3    H216420   7.501   5.903   1.755
 5515TIP3   OH216421   6.582   5.840   1.315
 5515TIP3    H116422   6.520   5.804   1.248
 5515TIP3    H216423   6.662   5.792   1.290
 5516TIP3   OH216424   6.712   6.262   1.457
 5516TIP3    H116425   6.693   6.229   1.368
 5516TIP3    H216426   6.803   6.230   1.473
 5517TIP3   OH216427   6.752   5.824   1.643
 5517TIP3    H116428   6.747   5.865   1.557
 5517TIP3    H216429   6.772   5.903   1.698
 5518TIP3   OH216430   7.247   6.463   1.440
 5518TIP3    H116431   7.231   6.544   1.492
 5518TIP3    H216432   7.230   6.391   1.503
 5519TIP3   OH216433   6.858   6.382   1.985
 5519TIP3    H116434   6.799   6.445   2.032
 5519TIP3    H216435   6.792   6.329   1.936
 5520TIP3   OH216436   7.201   5.716   0.714
 5520TIP3    H116437   7.255   5.762   0.782
 5520TIP3    H216438   7.228   5.763   0.634
 5521TIP3   OH216439   6.607   5.941   2.078
 5521TIP3    H116440   6.617   6.026   2.126
 5521TIP3    H216441   6.515   5.919   2.101
 5522TIP3   OH216442   6.930   6.393   1.005
 5522TIP3    H116443   7.008   6.449   1.017
 5522TIP3    H216444   6.867   6.450   0.959
 5523TIP3   OH216445   6.653   6.551   2.073
 5523TIP3    H116446   6.618   6.550   1.982
 5523TIP3    H216447   6.574   6.529   2.126
 5524TIP3   OH216448   7.699   4.946   0.772
 5524TIP3    H116449   7.619   4.965   0.825
 5524TIP3    H216450   7.710   5.031   0.725
 5525TIP3   OH216451   6.446   5.702   1.121
 5525TIP3    H116452   6.383   5.744   1.058
 5525TIP3    H216453   6.411   5.612   1.125
 5526TIP3   OH216454   6.232   6.080   2.019
 5526TIP3    H116455   6.165   6.060   1.951
 5526TIP3    H216456   6.267   5.992   2.043
 5527TIP3   OH216457   6.086   6.272   1.656
 5527TIP3    H116458   6.182   6.273   1.643
 5527TIP3    H216459   6.072   6.355   1.705
 5528TIP3   OH216460   7.951   6.725   1.708
 5528TIP3    H116461   7.949   6.628   1.721
 5528TIP3    H216462   7.868   6.750   1.753
 5529TIP3   OH216463   7.057   6.511   1.843
 5529TIP3    H116464   7.056   6.603   1.875
 5529TIP3    H216465   6.985   6.471   1.897
 5530TIP3   OH216466   6.792   6.644   0.805
 5530TIP3    H116467   6.778   6.636   0.709
 5530TIP3    H216468   6.779   6.740   0.819
 5531TIP3   OH216469   6.254   6.491   1.177
 5531TIP3    H116470   6.301   6.480   1.262
 5531TIP3    H216471   6.192   6.416   1.181
 5532TIP3   OH216472   7.046   6.559   0.749
 5532TIP3    H116473   6.954   6.574   0.779
 5532TIP3    H216474   7.086   6.515   0.826
 5533TIP3   OH216475   7.841   5.856   1.982
 5533TIP3    H116476   7.760   5.870   1.932
 5533TIP3    H216477   7.855   5.760   1.972
 5534TIP3   OH216478   6.437   6.263   2.009
 5534TIP3    H116479   6.486   6.247   2.092
 5534TIP3    H216480   6.362   6.200   2.017
 5535TIP3   OH216481   6.835   5.094   1.790
 5535TIP3    H116482   6.746   5.059   1.765
 5535TIP3    H216483   6.806   5.169   1.847
 5536TIP3   OH216484   7.370   5.202   1.986
 5536TIP3    H116485   7.438   5.176   2.051
 5536TIP3    H216486   7.286   5.183   2.033
 5537TIP3   OH216487   7.609   5.632   1.904
 5537TIP3    H116488   7.560   5.628   1.989
 5537TIP3    H216489   7.585   5.720   1.870
 5538TIP3   OH216490   6.758   5.600   1.801
 5538TIP3    H116491   6.713   5.623   1.885
 5538TIP3    H216492   6.752   5.684   1.751
 5539TIP3   OH216493   7.139   5.579   1.052
 5539TIP3    H116494   7.095   5.652   1.004
 5539TIP3    H216495   7.202   5.546   0.983
 5540TIP3   OH216496   7.316   5.853   2.137
 5540TIP3    H116497   7.294   5.781   2.200
 5540TIP3    H216498   7.409   5.870   2.160
 5541TIP3   OH216499   7.299   5.613   1.286
 5541TIP3    H116500   7.242   5.637   1.211
 5541TIP3    H216501   7.337   5.530   1.248
 5542TIP3   OH216502   6.588   5.631   2.019
 5542TIP3    H116503   6.611   5.695   2.087
 5542TIP3    H216504   6.575   5.549   2.072
 5543TIP3   OH216505   6.632   5.124   0.729
 5543TIP3    H116506   6.633   5.118   0.826
 5543TIP3    H216507   6.556   5.183   0.714
 5544TIP3   OH216508   6.181   5.152   1.597
 5544TIP3    H116509   6.252   5.187   1.654
 5544TIP3    H216510   6.228   5.128   1.516
 5545TIP3   OH216511   6.156   5.135   1.115
 5545TIP3    H116512   6.194   5.182   1.037
 5545TIP3    H216513   6.093   5.204   1.143
 5546TIP3   OH216514   7.308   5.850   1.711
 5546TIP3    H116515   7.341   5.776   1.656
 5546TIP3    H216516   7.279   5.800   1.790
 5547TIP3   OH216517   6.414   5.358   1.418
 5547TIP3    H116518   6.329   5.368   1.371
 5547TIP3    H216519   6.458   5.283   1.372
 5548TIP3   OH216520   6.681   5.365   1.087
 5548TIP3    H116521   6.772   5.383   1.061
 5548TIP3    H216522   6.631   5.388   1.005
 5549TIP3   OH216523   7.476   5.390   1.588
 5549TIP3    H116524   7.439   5.400   1.678
 5549TIP3    H216525   7.413   5.328   1.548
 5550TIP3   OH216526   6.519   5.395   0.866
 5550TIP3    H116527   6.452   5.355   0.807
 5550TIP3    H216528   6.578   5.436   0.799
 5551TIP3   OH216529   7.640   7.076   1.806
 5551TIP3    H116530   7.639   7.098   1.711
 5551TIP3    H216531   7.720   7.124   1.837
 5552TIP3   OH216532   6.600   6.184   2.228
 5552TIP3    H116533   6.679   6.215   2.277
 5552TIP3    H216534   6.534   6.183   2.301
 5553TIP3   OH216535   6.586   5.135   1.352
 5553TIP3    H116536   6.560   5.058   1.405
 5553TIP3    H216537   6.649   5.099   1.289
 5554TIP3   OH216538   7.030   5.525   1.779
 5554TIP3    H116539   6.947   5.575   1.792
 5554TIP3    H216540   7.098   5.586   1.813
 5555TIP3   OH216541   6.768   5.922   0.877
 5555TIP3    H116542   6.694   5.859   0.862
 5555TIP3    H216543   6.750   5.954   0.968
 5556TIP3   OH216544   7.678   6.164   1.498
 5556TIP3    H116545   7.702   6.213   1.417
 5556TIP3    H216546   7.593   6.122   1.473
 5557TIP3   OH216547   7.173   6.244   1.867
 5557TIP3    H116548   7.198   6.225   1.958
 5557TIP3    H216549   7.136   6.333   1.872
 5558TIP3   OH216550   7.304   5.485   0.858
 5558TIP3    H116551   7.401   5.485   0.855
 5558TIP3    H216552   7.279   5.531   0.776
 5559TIP3   OH216553   6.475   5.953   1.550
 5559TIP3    H116554   6.505   5.914   1.466
 5559TIP3    H216555   6.490   5.882   1.614
 5560TIP3   OH216556   6.924   6.085   0.726
 5560TIP3    H116557   6.876   6.171   0.720
 5560TIP3    H216558   6.861   6.030   0.778
 5561TIP3   OH216559   6.350   5.866   2.156
 5561TIP3    H116560   6.369   5.855   2.251
 5561TIP3    H216561   6.278   5.802   2.143
 5562TIP3   OH216562   7.074   5.984   2.176
 5562TIP3    H116563   7.015   5.922   2.129
 5562TIP3    H216564   7.162   5.950   2.149
 5563TIP3   OH216565   7.336   6.501   1.763
 5563TIP3    H116566   7.239   6.503   1.774
 5563TIP3    H216567   7.363   6.555   1.840
 5564TIP3   OH216568   7.708   5.592   0.712
 5564TIP3    H116569   7.739   5.523   0.650
 5564TIP3    H216570   7.708   5.671   0.655
 5565TIP3   OH216571   7.964   6.433   1.751
 5565TIP3    H116572   7.866   6.429   1.743
 5565TIP3    H216573   7.989   6.404   1.661
 5566TIP3   OH216574   7.446   6.026   1.419
 5566TIP3    H116575   7.352   6.006   1.431
 5566TIP3    H216576   7.478   5.946   1.372
 5567TIP3   OH216577   6.569   6.252   1.170
 5567TIP3    H116578   6.572   6.333   1.115
 5567TIP3    H216579   6.474   6.239   1.176
 5568TIP3   OH216580   6.135   5.554   0.873
 5568TIP3    H116581   6.179   5.640   0.890
 5568TIP3    H216582   6.056   5.562   0.931
 5569TIP3   OH216583   6.706   6.014   1.124
 5569TIP3    H116584   6.681   6.109   1.128
 5569TIP3    H216585   6.656   5.979   1.199
 5570TIP3   OH216586   6.837   6.596   1.638
 5570TIP3    H116587   6.877   6.669   1.587
 5570TIP3    H216588   6.915   6.563   1.687
 5571TIP3   OH216589   6.491   6.489   1.026
 5571TIP3    H116590   6.403   6.500   1.068
 5571TIP3    H216591   6.523   6.582   1.026
 5572TIP3   OH216592   7.226   6.230   1.598
 5572TIP3    H116593   7.216   6.228   1.696
 5572TIP3    H216594   7.311   6.184   1.587
 5573TIP3   OH216595   7.143   6.201   0.543
 5573TIP3    H116596   7.185   6.157   0.620
 5573TIP3    H216597   7.072   6.138   0.521
 5574TIP3   OH216598   7.474   6.766   1.647
 5574TIP3    H116599   7.395   6.710   1.638
 5574TIP3    H216600   7.460   6.830   1.574
 5575TIP3   OH216601   6.561   5.372   2.166
 5575TIP3    H116602   6.465   5.380   2.181
 5575TIP3    H216603   6.589   5.316   2.240
 5576TIP3   OH216604   7.339   6.074   0.727
 5576TIP3    H116605   7.343   5.996   0.784
 5576TIP3    H216606   7.432   6.075   0.694
 5577TIP3   OH216607   6.277   6.460   1.797
 5577TIP3    H116608   6.328   6.384   1.829
 5577TIP3    H216609   6.305   6.529   1.859
 5578TIP3   OH216610   6.512   6.066   0.485
 5578TIP3    H116611   6.572   5.993   0.467
 5578TIP3    H216612   6.525   6.079   0.581
 5579TIP3   OH216613   6.516   6.108   0.756
 5579TIP3    H116614   6.591   6.084   0.813
 5579TIP3    H216615   6.518   6.206   0.761
 5580TIP3   OH216616   6.249   5.803   0.955
 5580TIP3    H116617   6.182   5.849   1.010
 5580TIP3    H216618   6.264   5.872   0.887
 5581TIP3   OH216619   7.396   5.437   1.845
 5581TIP3    H116620   7.474   5.478   1.885
 5581TIP3    H216621   7.382   5.358   1.901
 5582TIP3   OH216622   7.271   5.196   1.012
 5582TIP3    H116623   7.220   5.189   0.928
 5582TIP3    H216624   7.304   5.287   1.010
 5583TIP3   OH216625   6.776   6.308   0.695
 5583TIP3    H116626   6.689   6.340   0.724
 5583TIP3    H216627   6.783   6.347   0.606
 5584TIP3   OH216628   6.980   5.397   1.180
 5584TIP3    H116629   7.021   5.452   1.109
 5584TIP3    H216630   7.028   5.313   1.162
 5585TIP3   OH216631   7.237   5.688   1.920
 5585TIP3    H116632   7.253   5.743   1.999
 5585TIP3    H216633   7.291   5.610   1.938
 5586TIP3   OH216634   7.124   5.115   1.223
 5586TIP3    H116635   7.173   5.155   1.298
 5586TIP3    H216636   7.183   5.139   1.147
 5587TIP3   OH216637   6.519   6.376   0.773
 5587TIP3    H116638   6.496   6.446   0.707
 5587TIP3    H216639   6.506   6.424   0.857
 5588TIP3   OH216640   6.613   5.096   1.004
 5588TIP3    H116641   6.610   5.185   1.043
 5588TIP3    H216642   6.706   5.074   1.025
 5589TIP3   OH216643   7.876   5.589   1.902
 5589TIP3    H116644   7.778   5.586   1.909
 5589TIP3    H216645   7.887   5.550   1.814
 5590TIP3   OH216646   7.526   5.785   1.293
 5590TIP3    H116647   7.452   5.723   1.301
 5590TIP3    H216648   7.599   5.737   1.338
 5591TIP3   OH216649   6.233   6.025   0.769
 5591TIP3    H116650   6.298   6.097   0.774
 5591TIP3    H216651   6.279   5.965   0.707
 5592TIP3   OH216652   6.180   5.282   0.887
 5592TIP3    H116653   6.190   5.379   0.887
 5592TIP3    H216654   6.091   5.272   0.852
 5593TIP3   OH216655   7.493   6.738   1.241
 5593TIP3    H116656   7.448   6.786   1.169
 5593TIP3    H216657   7.587   6.759   1.219
 5594TIP3   OH216658   6.573   5.009   1.768
 5594TIP3    H116659   6.541   4.976   1.681
 5594TIP3    H216660   6.562   4.931   1.825
 5595TIP3   OH216661   6.110   6.223   1.149
 5595TIP3    H116662   6.038   6.257   1.203
 5595TIP3    H216663   6.089   6.264   1.062
 5596TIP3   OH216664   6.266   6.767   2.220
 5596TIP3    H116665   6.352   6.765   2.266
 5596TIP3    H216666   6.244   6.672   2.217
 5597TIP3   OH216667   6.750   6.735   2.262
 5597TIP3    H116668   6.844   6.712   2.271
 5597TIP3    H216669   6.724   6.675   2.189
 5598TIP3   OH216670   7.388   6.638   1.996
 5598TIP3    H116671   7.379   6.568   2.065
 5598TIP3    H216672   7.465   6.689   2.028
 5599TIP3   OH216673   6.398   6.175   2.418
 5599TIP3    H116674   6.413   6.079   2.428
 5599TIP3    H216675   6.309   6.176   2.375
 5600TIP3   OH216676   6.366   5.826   0.648
 5600TIP3    H116677   6.425   5.794   0.718
 5600TIP3    H216678   6.431   5.826   0.574
 5601TIP3   OH216679   7.007   6.260   2.192
 5601TIP3    H116680   6.963   6.275   2.106
 5601TIP3    H216681   7.037   6.167   2.185
 5602TIP3   OH216682   6.966   6.008   0.461
 5602TIP3    H116683   6.914   6.032   0.540
 5602TIP3    H216684   6.901   5.957   0.407
 5603TIP3   OH216685   7.497   6.265   1.797
 5603TIP3    H116686   7.572   6.311   1.754
 5603TIP3    H216687   7.427   6.333   1.786
 5604TIP3   OH216688   6.518   5.906   2.399
 5604TIP3    H116689   6.592   5.845   2.387
 5604TIP3    H216690   6.540   5.941   2.488
 5605TIP3   OH216691   6.576   5.726   0.840
 5605TIP3    H116692   6.553   5.675   0.918
 5605TIP3    H216693   6.621   5.659   0.784
 5606TIP3   OH216694   6.852   5.791   2.059
 5606TIP3    H116695   6.776   5.852   2.064
 5606TIP3    H216696   6.902   5.827   1.982
 5607TIP3   OH216697   6.692   5.520   0.700
 5607TIP3    H116698   6.665   5.510   0.606
 5607TIP3    H216699   6.790   5.529   0.689
 5608TIP3   OH216700   7.367   6.194   2.196
 5608TIP3    H116701   7.450   6.172   2.151
 5608TIP3    H216702   7.365   6.128   2.268
 5609TIP3   OH216703   6.975   5.581   2.189
 5609TIP3    H116704   6.975   5.500   2.134
 5609TIP3    H216705   6.931   5.646   2.131
 5610TIP3   OH216706   6.976   5.364   1.998
 5610TIP3    H116707   7.003   5.407   1.915
 5610TIP3    H216708   6.882   5.343   1.980
 5611TIP3   OH216709   7.005   5.901   1.864
 5611TIP3    H116710   7.090   5.913   1.819
 5611TIP3    H216711   6.950   5.970   1.823
 5612TIP3   OH216712   7.587   5.870   2.250
 5612TIP3    H116713   7.636   5.787   2.263
 5612TIP3    H216714   7.655   5.929   2.217
 5613TIP3   OH216715   7.628   6.122   1.985
 5613TIP3    H116716   7.570   6.175   1.926
 5613TIP3    H216717   7.716   6.143   1.945
 5614TIP3   OH216718   6.850   5.695   2.415
 5614TIP3    H116719   6.782   5.628   2.433
 5614TIP3    H216720   6.887   5.663   2.330
 5615TIP3   OH216721   7.110   5.129   2.062
 5615TIP3    H116722   7.061   5.212   2.041
 5615TIP3    H216723   7.040   5.062   2.052
 5616TIP3   OH216724   7.236   5.636   2.280
 5616TIP3    H116725   7.226   5.625   2.376
 5616TIP3    H216726   7.146   5.611   2.251
 5617TIP3   OH216727   7.474   5.582   2.133
 5617TIP3    H116728   7.399   5.586   2.196
 5617TIP3    H216729   7.548   5.553   2.191
 5618TIP3   OH216730   7.706   5.525   2.284
 5618TIP3    H116731   7.716   5.429   2.304
 5618TIP3    H216732   7.699   5.565   2.374
 5619TIP3   OH216733   6.692   5.473   2.470
 5619TIP3    H116734   6.699   5.381   2.439
 5619TIP3    H216735   6.726   5.464   2.561
 5620TIP3   OH216736   7.205   5.140   2.319
 5620TIP3    H116737   7.272   5.070   2.314
 5620TIP3    H216738   7.165   5.133   2.230
 5621TIP3   OH216739   7.270   5.356   2.480
 5621TIP3    H116740   7.247   5.285   2.415
 5621TIP3    H216741   7.192   5.415   2.474
 5622TIP3   OH216742   6.484   6.570   0.584
 5622TIP3    H116743   6.548   6.631   0.542
 5622TIP3    H216744   6.403   6.595   0.536
 5623TIP3   OH216745   5.968   5.964   0.803
 5623TIP3    H116746   6.061   5.992   0.786
 5623TIP3    H216747   5.964   5.878   0.757
 5624TIP3   OH216748   5.883   6.579   1.210
 5624TIP3    H116749   5.817   6.517   1.172
 5624TIP3    H216750   5.928   6.520   1.274
 5625TIP3   OH216751   6.022   6.430   1.395
 5625TIP3    H116752   6.007   6.357   1.456
 5625TIP3    H216753   6.072   6.492   1.451
 5626TIP3   OH216754   7.741   6.839   1.198
 5626TIP3    H116755   7.773   6.867   1.285
 5626TIP3    H216756   7.812   6.869   1.139
 5627TIP3   OH216757   7.778   6.852   1.479
 5627TIP3    H116758   7.734   6.765   1.473
 5627TIP3    H216759   7.854   6.828   1.534
 5628TIP3   OH216760   7.824   6.526   2.051
 5628TIP3    H116761   7.750   6.535   2.115
 5628TIP3    H216762   7.864   6.615   2.055
 5629TIP3   OH216763   7.613   6.050   0.684
 5629TIP3    H116764   7.678   6.108   0.642
 5629TIP3    H216765   7.670   5.996   0.742
 5630TIP3   OH216766   7.771   5.907   0.869
 5630TIP3    H116767   7.702   5.867   0.926
 5630TIP3    H216768   7.831   5.948   0.934
 5631TIP3   OH216769   7.822   6.299   1.308
 5631TIP3    H116770   7.874   6.235   1.255
 5631TIP3    H216771   7.813   6.374   1.246
 5632TIP3   OH216772   7.654   6.600   1.503
 5632TIP3    H116773   7.582   6.642   1.553
 5632TIP3    H216774   7.604   6.552   1.433
 5633TIP3   OH216775   7.585   5.766   1.022
 5633TIP3    H116776   7.587   5.669   1.013
 5633TIP3    H216777   7.571   5.778   1.119
 5634TIP3   OH216778   6.212   5.834   1.769
 5634TIP3    H116779   6.206   5.806   1.676
 5634TIP3    H216780   6.310   5.836   1.781
 5635TIP3   OH216781   7.871   6.189   1.878
 5635TIP3    H116782   7.944   6.123   1.869
 5635TIP3    H216783   7.897   6.259   1.816
 5636TIP3   OH216784   8.057   5.995   1.895
 5636TIP3    H116785   7.982   5.945   1.935
 5636TIP3    H216786   8.129   5.930   1.910
 5637TIP3   OH216787   7.512   5.236   0.494
 5637TIP3    H116788   7.586   5.195   0.542
 5637TIP3    H216789   7.436   5.182   0.524
 5638TIP3   OH216790   7.578   5.482   0.927
 5638TIP3    H116791   7.625   5.395   0.932
 5638TIP3    H216792   7.626   5.524   0.852
 5639TIP3   OH216793   7.740   5.655   1.411
 5639TIP3    H116794   7.826   5.681   1.371
 5639TIP3    H216795   7.754   5.692   1.501
 5640TIP3   OH216796   7.808   5.798   1.644
 5640TIP3    H116797   7.730   5.832   1.692
 5640TIP3    H216798   7.840   5.878   1.598
 5641TIP3   OH216799   6.425   5.523   2.439
 5641TIP3    H116800   6.523   5.519   2.444
 5641TIP3    H216801   6.401   5.439   2.483
 5642TIP3   OH216802   8.261   5.389   2.200
 5642TIP3    H116803   8.319   5.323   2.156
 5642TIP3    H216804   8.232   5.444   2.124
 5643TIP3   OH216805   7.692   5.228   0.950
 5643TIP3    H116806   7.735   5.213   1.036
 5643TIP3    H216807   7.626   5.156   0.950
 5644TIP3   OH216808   6.382   5.212   1.777
 5644TIP3    H116809   6.446   5.139   1.785
 5644TIP3    H216810   6.442   5.289   1.771
 5645TIP3   OH216811   6.190   5.489   1.849
 5645TIP3    H116812   6.237   5.487   1.763
 5645TIP3    H216813   6.213   5.577   1.881
 5646TIP3   OH216814   8.132   5.529   2.007
 5646TIP3    H116815   8.045   5.569   2.029
 5646TIP3    H216816   8.101   5.458   1.947
 5647TIP3   OH216817   7.751   5.160   0.613
 5647TIP3    H116818   7.824   5.124   0.559
 5647TIP3    H216819   7.770   5.255   0.609
 5648TIP3   OH216820   6.170   4.984   1.340
 5648TIP3    H116821   6.079   4.990   1.376
 5648TIP3    H216822   6.169   5.051   1.269
 5649TIP3   OH216823   7.340   6.696   0.868
 5649TIP3    H116824   7.358   6.668   0.777
 5649TIP3    H216825   7.398   6.772   0.878
 5650TIP3   OH216826   6.392   5.071   2.161
 5650TIP3    H116827   6.343   5.068   2.245
 5650TIP3    H216828   6.326   5.112   2.102
 5651TIP3   OH216829   6.433   6.501   2.240
 5651TIP3    H116830   6.341   6.473   2.223
 5651TIP3    H216831   6.442   6.480   2.334
 5652TIP3   OH216832   6.611   6.531   1.787
 5652TIP3    H116833   6.561   6.606   1.748
 5652TIP3    H216834   6.697   6.547   1.742
 5653TIP3   OH216835   7.057   6.777   1.924
 5653TIP3    H116836   7.098   6.778   2.013
 5653TIP3    H216837   7.123   6.828   1.873
 5654TIP3   OH216838   7.235   6.929   1.783
 5654TIP3    H116839   7.306   6.878   1.741
 5654TIP3    H216840   7.287   6.986   1.844
 5655TIP3   OH216841   8.030   5.292   1.883
 5655TIP3    H116842   7.938   5.287   1.849
 5655TIP3    H216843   8.059   5.199   1.871
 5656TIP3   OH216844   6.288   6.790   1.810
 5656TIP3    H116845   6.200   6.824   1.784
 5656TIP3    H216846   6.294   6.824   1.900
 5657TIP3   OH216847   6.525   6.768   1.668
 5657TIP3    H116848   6.438   6.782   1.712
 5657TIP3    H216849   6.505   6.801   1.578
 5658TIP3   OH216850   6.950   6.797   1.466
 5658TIP3    H116851   6.881   6.816   1.400
 5658TIP3    H216852   6.961   6.886   1.507
 5659TIP3   OH216853   7.218   6.737   1.518
 5659TIP3    H116854   7.124   6.753   1.498
 5659TIP3    H216855   7.260   6.812   1.472
 5660TIP3   OH216856   7.430   6.932   1.432
 5660TIP3    H116857   7.411   7.015   1.383
 5660TIP3    H216858   7.452   6.870   1.359
 5661TIP3   OH216859   6.198   6.584   1.555
 5661TIP3    H116860   6.226   6.558   1.646
 5661TIP3    H216861   6.270   6.541   1.504
 5662TIP3   OH216862   6.391   6.456   1.412
 5662TIP3    H116863   6.408   6.372   1.461
 5662TIP3    H216864   6.481   6.494   1.405
 5663TIP3   OH216865   6.657   6.552   1.414
 5663TIP3    H116866   6.690   6.462   1.399
 5663TIP3    H216867   6.700   6.572   1.499
 5664TIP3   OH216868   7.223   5.196   1.473
 5664TIP3    H116869   7.187   5.138   1.543
 5664TIP3    H216870   7.311   5.156   1.456
 5665TIP3   OH216871   7.757   5.089   1.410
 5665TIP3    H116872   7.795   5.139   1.334
 5665TIP3    H216873   7.662   5.107   1.401
 5666TIP3   OH216874   7.852   5.187   1.173
 5666TIP3    H116875   7.925   5.136   1.132
 5666TIP3    H216876   7.885   5.279   1.158
 5667TIP3   OH216877   6.485   4.916   1.521
 5667TIP3    H116878   6.392   4.883   1.523
 5667TIP3    H216879   6.533   4.831   1.516
 5668TIP3   OH216880   6.257   4.783   1.166
 5668TIP3    H116881   6.301   4.847   1.110
 5668TIP3    H216882   6.227   4.841   1.240
 5669TIP3   OH216883   6.927   4.948   1.403
 5669TIP3    H116884   6.977   4.996   1.336
 5669TIP3    H216885   6.965   4.982   1.485
 5670TIP3   OH216886   7.471   5.095   1.385
 5670TIP3    H116887   7.474   5.061   1.295
 5670TIP3    H216888   7.459   5.011   1.437
 5671TIP3   OH216889   7.500   5.019   0.949
 5671TIP3    H116890   7.412   5.059   0.949
 5671TIP3    H216891   7.482   4.934   0.994
 5672TIP3   OH216892   5.986   6.358   0.951
 5672TIP3    H116893   5.901   6.326   0.914
 5672TIP3    H216894   5.980   6.451   0.923
 5673TIP3   OH216895   6.421   4.903   0.907
 5673TIP3    H116896   6.517   4.919   0.900
 5673TIP3    H216897   6.402   4.985   0.957
 5674TIP3   OH216898   6.876   5.114   1.070
 5674TIP3    H116899   6.953   5.055   1.066
 5674TIP3    H216900   6.905   5.182   1.009
 5675TIP3   OH216901   6.692   5.196   2.408
 5675TIP3    H116902   6.656   5.127   2.466
 5675TIP3    H216903   6.786   5.196   2.436
 5676TIP3   OH216904   6.940   5.192   2.528
 5676TIP3    H116905   7.026   5.167   2.490
 5676TIP3    H216906   6.927   5.122   2.595
 5677TIP3   OH216907   6.057   6.366   0.583
 5677TIP3    H116908   6.049   6.417   0.666
 5677TIP3    H216909   6.151   6.340   0.583
 5678TIP3   OH216910   7.764   5.253   2.316
 5678TIP3    H116911   7.783   5.223   2.408
 5678TIP3    H216912   7.853   5.249   2.275
 5679TIP3   OH216913   7.704   6.807   1.809
 5679TIP3    H116914   7.626   6.775   1.761
 5679TIP3    H216915   7.684   6.903   1.812
 5680TIP3   OH216916   8.937   6.167   0.965
 5680TIP3    H116917   8.996   6.171   1.043
 5680TIP3    H216918   8.914   6.072   0.965
 5681TIP3   OH216919   8.268   6.076   1.322
 5681TIP3    H116920   8.301   6.008   1.385
 5681TIP3    H216921   8.349   6.128   1.307
 5682TIP3   OH216922   8.234   6.476   1.060
 5682TIP3    H116923   8.228   6.378   1.056
 5682TIP3    H216924   8.330   6.488   1.063
 5683TIP3   OH216925   7.937   5.682   0.833
 5683TIP3    H116926   7.904   5.773   0.844
 5683TIP3    H216927   7.853   5.639   0.808
 5684TIP3   OH216928   8.013   5.977   1.000
 5684TIP3    H116929   8.058   5.898   1.037
 5684TIP3    H216930   8.077   6.005   0.933
 5685TIP3   OH216931   8.759   6.403   1.004
 5685TIP3    H116932   8.795   6.317   0.977
 5685TIP3    H216933   8.844   6.447   1.028
 5686TIP3   OH216934   9.194   5.930   1.041
 5686TIP3    H116935   9.196   5.833   1.057
 5686TIP3    H216936   9.157   5.934   0.952
 5687TIP3   OH216937   8.506   5.557   1.015
 5687TIP3    H116938   8.484   5.637   0.961
 5687TIP3    H216939   8.459   5.489   0.962
 5688TIP3   OH216940   8.150   5.764   1.104
 5688TIP3    H116941   8.234   5.748   1.151
 5688TIP3    H216942   8.163   5.708   1.025
 5689TIP3   OH216943   8.610   5.974   0.920
 5689TIP3    H116944   8.704   5.946   0.921
 5689TIP3    H216945   8.567   5.896   0.882
 5690TIP3   OH216946   8.515   5.551   1.438
 5690TIP3    H116947   8.455   5.587   1.370
 5690TIP3    H216948   8.463   5.568   1.518
 5691TIP3   OH216949   8.623   6.325   1.236
 5691TIP3    H116950   8.559   6.389   1.273
 5691TIP3    H216951   8.666   6.378   1.165
 5692TIP3   OH216952   8.381   5.667   1.227
 5692TIP3    H116953   8.445   5.739   1.246
 5692TIP3    H216954   8.428   5.623   1.152
 5693TIP3   OH216955   8.448   6.518   1.327
 5693TIP3    H116956   8.422   6.605   1.292
 5693TIP3    H216957   8.370   6.501   1.385
 5694TIP3   OH216958   8.871   5.271   1.155
 5694TIP3    H116959   8.854   5.175   1.160
 5694TIP3    H216960   8.788   5.306   1.195
 5695TIP3   OH216961   8.345   6.055   0.827
 5695TIP3    H116962   8.334   6.119   0.753
 5695TIP3    H216963   8.441   6.041   0.829
 5696TIP3   OH216964   8.520   6.528   0.932
 5696TIP3    H116965   8.477   6.450   0.893
 5696TIP3    H216966   8.606   6.491   0.960
 5697TIP3   OH216967   8.517   6.082   1.158
 5697TIP3    H116968   8.548   6.057   1.068
 5697TIP3    H216969   8.560   6.168   1.172
 5698TIP3   OH216970   8.653   6.637   1.476
 5698TIP3    H116971   8.593   6.701   1.520
 5698TIP3    H216972   8.588   6.585   1.425
 5699TIP3   OH216973   8.410   6.194   1.575
 5699TIP3    H116974   8.413   6.281   1.620
 5699TIP3    H216975   8.314   6.176   1.580
 5700TIP3   OH216976   8.449   6.808   1.559
 5700TIP3    H116977   8.414   6.808   1.468
 5700TIP3    H216978   8.370   6.786   1.613
 5701TIP3   OH216979   8.028   6.338   1.506
 5701TIP3    H116980   7.963   6.317   1.436
 5701TIP3    H216981   8.065   6.250   1.529
 5702TIP3   OH216982   7.884   6.529   1.144
 5702TIP3    H116983   7.978   6.522   1.125
 5702TIP3    H216984   7.879   6.608   1.198
 5703TIP3   OH216985   8.851   6.766   1.331
 5703TIP3    H116986   8.852   6.858   1.363
 5703TIP3    H216987   8.780   6.727   1.387
 5704TIP3   OH216988   8.235   6.520   1.496
 5704TIP3    H116989   8.283   6.502   1.579
 5704TIP3    H216990   8.159   6.457   1.503
 5705TIP3   OH216991   8.631   5.343   1.280
 5705TIP3    H116992   8.542   5.312   1.253
 5705TIP3    H216993   8.607   5.427   1.321
 5706TIP3   OH216994   9.155   5.462   1.477
 5706TIP3    H116995   9.202   5.441   1.559
 5706TIP3    H216996   9.062   5.442   1.504
 5707TIP3   OH216997   8.567   5.858   1.300
 5707TIP3    H116998   8.514   5.878   1.380
 5707TIP3    H216999   8.550   5.939   1.246
 5708TIP3   OH217000   8.428   5.754   0.857
 5708TIP3    H117001   8.342   5.715   0.838
 5708TIP3    H217002   8.469   5.768   0.768
 5709TIP3   OH217003   9.115   6.111   1.625
 5709TIP3    H117004   9.089   6.039   1.688
 5709TIP3    H217005   9.209   6.122   1.647
 5710TIP3   OH217006   8.386   5.889   1.506
 5710TIP3    H117007   8.405   5.954   1.575
 5710TIP3    H217008   8.372   5.807   1.558
 5711TIP3   OH217009   7.976   5.411   1.087
 5711TIP3    H117010   8.051   5.442   1.141
 5711TIP3    H217011   8.017   5.377   1.007
 5712TIP3   OH217012   8.104   5.463   0.590
 5712TIP3    H117013   8.121   5.556   0.566
 5712TIP3    H217014   8.007   5.460   0.594
 5713TIP3   OH217015   9.079   6.114   1.200
 5713TIP3    H117016   9.136   6.056   1.146
 5713TIP3    H217017   9.065   6.057   1.278
 5714TIP3   OH217018   8.766   5.493   0.939
 5714TIP3    H117019   8.678   5.528   0.962
 5714TIP3    H217020   8.819   5.573   0.934
 5715TIP3   OH217021   8.193   5.608   0.867
 5715TIP3    H117022   8.095   5.616   0.858
 5715TIP3    H217023   8.210   5.513   0.852
 5716TIP3   OH217024   9.170   5.660   1.074
 5716TIP3    H117025   9.174   5.665   1.172
 5716TIP3    H217026   9.129   5.572   1.058
 5717TIP3   OH217027   8.395   6.442   1.716
 5717TIP3    H117028   8.474   6.473   1.764
 5717TIP3    H217029   8.329   6.441   1.788
 5718TIP3   OH217030   8.878   5.890   0.969
 5718TIP3    H117031   8.912   5.819   0.913
 5718TIP3    H217032   8.881   5.851   1.058
 5719TIP3   OH217033   8.385   5.379   0.845
 5719TIP3    H117034   8.350   5.301   0.892
 5719TIP3    H217035   8.462   5.343   0.798
 5720TIP3   OH217036   8.837   5.793   1.261
 5720TIP3    H117037   8.746   5.826   1.272
 5720TIP3    H217038   8.890   5.857   1.311
 5721TIP3   OH217039   8.972   6.504   1.354
 5721TIP3    H117040   8.981   6.485   1.447
 5721TIP3    H217041   8.935   6.594   1.353
 5722TIP3   OH217042   8.266   6.203   1.039
 5722TIP3    H117043   8.286   6.158   0.954
 5722TIP3    H217044   8.300   6.138   1.102
 5723TIP3   OH217045   8.144   6.125   1.643
 5723TIP3    H117046   8.164   6.112   1.738
 5723TIP3    H217047   8.074   6.059   1.628
 5724TIP3   OH217048   8.868   6.239   1.664
 5724TIP3    H117049   8.806   6.181   1.615
 5724TIP3    H217050   8.954   6.205   1.631
 5725TIP3   OH217051   9.138   6.768   1.244
 5725TIP3    H117052   9.042   6.758   1.245
 5725TIP3    H217053   9.155   6.816   1.327
 5726TIP3   OH217054   8.632   6.848   1.131
 5726TIP3    H117055   8.664   6.933   1.099
 5726TIP3    H217056   8.711   6.813   1.176
 5727TIP3   OH217057   9.008   6.471   1.081
 5727TIP3    H117058   9.008   6.486   1.178
 5727TIP3    H217059   9.101   6.454   1.064
 5728TIP3   OH217060   8.356   5.632   1.654
 5728TIP3    H117061   8.259   5.636   1.666
 5728TIP3    H217062   8.382   5.570   1.724
 5729TIP3   OH217063   8.067   6.720   1.289
 5729TIP3    H117064   8.120   6.641   1.308
 5729TIP3    H217065   8.104   6.783   1.351
 5730TIP3   OH217066   9.221   5.697   1.356
 5730TIP3    H117067   9.252   5.744   1.437
 5730TIP3    H217068   9.184   5.616   1.395
 5731TIP3   OH217069   9.032   5.943   1.410
 5731TIP3    H117070   9.046   6.004   1.485
 5731TIP3    H217071   9.094   5.872   1.429
 5732TIP3   OH217072   8.367   5.264   1.254
 5732TIP3    H117073   8.336   5.231   1.167
 5732TIP3    H217074   8.357   5.186   1.311
 5733TIP3   OH217075   8.062   7.023   1.707
 5733TIP3    H117076   8.148   7.022   1.753
 5733TIP3    H217077   8.041   6.928   1.705
 5734TIP3   OH217078   8.545   6.989   1.752
 5734TIP3    H117079   8.640   6.971   1.757
 5734TIP3    H217080   8.519   6.932   1.677
 5735TIP3   OH217081   9.189   6.891   1.487
 5735TIP3    H117082   9.164   6.819   1.550
 5735TIP3    H217083   9.263   6.931   1.533
 5736TIP3   OH217084   8.194   6.430   1.906
 5736TIP3    H117085   8.210   6.334   1.910
 5736TIP3    H217086   8.106   6.433   1.863
 5737TIP3   OH217087   8.803   6.515   1.678
 5737TIP3    H117088   8.758   6.533   1.593
 5737TIP3    H217089   8.830   6.421   1.670
 5738TIP3   OH217090   8.312   6.164   1.888
 5738TIP3    H117091   8.386   6.107   1.868
 5738TIP3    H217092   8.337   6.197   1.977
 5739TIP3   OH217093   8.651   6.052   1.552
 5739TIP3    H117094   8.570   6.108   1.554
 5739TIP3    H217095   8.696   6.084   1.470
 5740TIP3   OH217096   9.161   6.454   1.692
 5740TIP3    H117097   9.229   6.423   1.633
 5740TIP3    H217098   9.157   6.382   1.759
 5741TIP3   OH217099   8.774   5.838   1.674
 5741TIP3    H117100   8.770   5.758   1.619
 5741TIP3    H217101   8.729   5.905   1.618
 5742TIP3   OH217102   8.774   5.623   1.482
 5742TIP3    H117103   8.798   5.667   1.398
 5742TIP3    H217104   8.680   5.600   1.465
 5743TIP3   OH217105   8.807   6.160   1.355
 5743TIP3    H117106   8.887   6.168   1.301
 5743TIP3    H217107   8.748   6.226   1.312
 5744TIP3   OH217108   9.392   6.130   1.733
 5744TIP3    H117109   9.424   6.044   1.765
 5744TIP3    H217110   9.475   6.179   1.726
 5745TIP3   OH217111   8.650   5.949   1.906
 5745TIP3    H117112   8.580   5.882   1.920
 5745TIP3    H217113   8.683   5.925   1.817
 5746TIP3   OH217114   8.903   5.388   1.545
 5746TIP3    H117115   8.852   5.469   1.525
 5746TIP3    H217116   8.834   5.318   1.534
 5747TIP3   OH217117   9.034   5.892   1.763
 5747TIP3    H117118   9.021   5.880   1.859
 5747TIP3    H217119   8.944   5.869   1.732
 5748TIP3   OH217120   9.262   5.811   1.611
 5748TIP3    H117121   9.186   5.834   1.668
 5748TIP3    H217122   9.332   5.798   1.678
 5749TIP3   OH217123   9.476   5.763   1.791
 5749TIP3    H117124   9.527   5.694   1.835
 5749TIP3    H217125   9.473   5.830   1.863
 5750TIP3   OH217126   8.488   5.730   1.958
 5750TIP3    H117127   8.493   5.639   1.923
 5750TIP3    H217128   8.523   5.718   2.048
 5751TIP3   OH217129   9.006   5.400   1.801
 5751TIP3    H117130   9.066   5.324   1.797
 5751TIP3    H217131   8.959   5.392   1.715
 5752TIP3   OH217132   9.069   5.615   1.963
 5752TIP3    H117133   9.044   5.544   1.900
 5752TIP3    H217134   8.990   5.673   1.960
 5753TIP3   OH217135   7.808   6.695   0.904
 5753TIP3    H117136   7.795   6.618   0.960
 5753TIP3    H217137   7.858   6.754   0.963
 5754TIP3   OH217138   8.004   6.091   1.255
 5754TIP3    H117139   8.003   6.063   1.161
 5754TIP3    H217140   8.101   6.095   1.272
 5755TIP3   OH217141   8.221   5.781   1.929
 5755TIP3    H117142   8.319   5.774   1.931
 5755TIP3    H217143   8.197   5.696   1.971
 5756TIP3   OH217144   8.183   5.472   1.260
 5756TIP3    H117145   8.246   5.398   1.270
 5756TIP3    H217146   8.243   5.548   1.256
 5757TIP3   OH217147   7.987   5.746   1.334
 5757TIP3    H117148   8.035   5.739   1.249
 5757TIP3    H217149   8.013   5.834   1.363
 5758TIP3   OH217150   7.964   5.256   0.830
 5758TIP3    H117151   7.872   5.248   0.862
 5758TIP3    H217152   7.957   5.317   0.757
 5759TIP3   OH217153   8.190   5.330   1.649
 5759TIP3    H117154   8.139   5.325   1.731
 5759TIP3    H217155   8.123   5.368   1.588
 5760TIP3   OH217156   8.229   6.757   1.727
 5760TIP3    H117157   8.138   6.729   1.708
 5760TIP3    H217158   8.237   6.739   1.821
 5761TIP3   OH217159   8.403   6.788   1.274
 5761TIP3    H117160   8.354   6.861   1.232
 5761TIP3    H217161   8.489   6.803   1.231
 5762TIP3   OH217162   8.850   7.031   1.414
 5762TIP3    H117163   8.894   7.041   1.501
 5762TIP3    H217164   8.913   7.078   1.356
 5763TIP3   OH217165   9.022   7.171   1.258
 5763TIP3    H117166   9.106   7.151   1.215
 5763TIP3    H217167   9.054   7.227   1.333
 5764TIP3   OH217168   8.086   7.047   1.298
 5764TIP3    H117169   7.997   7.080   1.273
 5764TIP3    H217170   8.092   7.082   1.388
 5765TIP3   OH217171   8.317   7.031   1.149
 5765TIP3    H117172   8.234   7.043   1.201
 5765TIP3    H217173   8.285   7.042   1.059
 5766TIP3   OH217174   7.983   6.857   1.059
 5766TIP3    H117175   8.013   6.829   1.148
 5766TIP3    H217176   8.053   6.811   1.006
 5767TIP3   OH217177   8.178   6.726   0.931
 5767TIP3    H117178   8.196   6.635   0.960
 5767TIP3    H217179   8.270   6.761   0.920
 5768TIP3   OH217180   8.440   6.798   0.921
 5768TIP3    H117181   8.472   6.706   0.921
 5768TIP3    H217182   8.498   6.838   0.988
 5769TIP3   OH217183   9.061   5.418   0.983
 5769TIP3    H117184   8.983   5.388   1.035
 5769TIP3    H217185   9.059   5.352   0.913
 5770TIP3   OH217186   8.281   5.172   1.005
 5770TIP3    H117187   8.188   5.139   1.005
 5770TIP3    H217188   8.329   5.087   1.001
 5771TIP3   OH217189   8.097   5.039   0.685
 5771TIP3    H117190   8.054   5.062   0.601
 5771TIP3    H217191   8.055   5.102   0.747
 5772TIP3   OH217192   8.717   5.205   0.890
 5772TIP3    H117193   8.752   5.271   0.827
 5772TIP3    H217194   8.734   5.252   0.973
 5773TIP3   OH217195   8.487   5.453   1.897
 5773TIP3    H117196   8.452   5.383   1.954
 5773TIP3    H217197   8.581   5.453   1.924
 5774TIP3   OH217198   8.736   5.449   2.017
 5774TIP3    H117199   8.821   5.421   1.980
 5774TIP3    H217200   8.721   5.380   2.084
 5775TIP3   OH217201  -0.054   7.002   2.838
 5775TIP3    H117202  -0.026   6.957   2.919
 5775TIP3    H217203  -0.055   7.095   2.861
 5776TIP3   OH217204   0.438   6.255   3.205
 5776TIP3    H117205   0.465   6.339   3.246
 5776TIP3    H217206   0.460   6.272   3.111
 5777TIP3   OH217207  -0.095   6.407   3.239
 5777TIP3    H117208  -0.074   6.314   3.247
 5777TIP3    H217209  -0.109   6.415   3.144
 5778TIP3   OH217210  -0.138   6.194   2.831
 5778TIP3    H117211  -0.068   6.174   2.897
 5778TIP3    H217212  -0.084   6.219   2.754
 5779TIP3   OH217213   0.512   6.460   3.380
 5779TIP3    H117214   0.432   6.511   3.355
 5779TIP3    H217215   0.534   6.501   3.465
 5780TIP3   OH217216   0.065   6.194   3.019
 5780TIP3    H117217   0.112   6.114   3.048
 5780TIP3    H217218   0.133   6.263   3.029
 5781TIP3   OH217219   0.228   6.157   3.361
 5781TIP3    H117220   0.168   6.233   3.356
 5781TIP3    H217221   0.296   6.181   3.294
 5782TIP3   OH217222   0.181   7.175   3.358
 5782TIP3    H117223   0.144   7.094   3.318
 5782TIP3    H217224   0.155   7.242   3.291
 5783TIP3   OH217225   0.380   6.793   3.194
 5783TIP3    H117226   0.295   6.842   3.203
 5783TIP3    H217227   0.406   6.822   3.104
 5784TIP3   OH217228  -0.198   6.587   2.563
 5784TIP3    H117229  -0.253   6.644   2.621
 5784TIP3    H217230  -0.111   6.594   2.607
 5785TIP3   OH217231   0.063   6.698   3.475
 5785TIP3    H117232   0.056   6.769   3.543
 5785TIP3    H217233  -0.026   6.700   3.438
 5786TIP3   OH217234   0.160   5.742   2.452
 5786TIP3    H117235   0.078   5.760   2.502
 5786TIP3    H217236   0.172   5.827   2.404
 5787TIP3   OH217237   0.417   7.505   3.393
 5787TIP3    H117238   0.416   7.409   3.412
 5787TIP3    H217239   0.324   7.528   3.413
 5788TIP3   OH217240   0.299   6.644   3.663
 5788TIP3    H117241   0.211   6.656   3.623
 5788TIP3    H217242   0.306   6.547   3.667
 5789TIP3   OH217243   0.077   6.404   3.551
 5789TIP3    H117244   0.043   6.394   3.643
 5789TIP3    H217245   0.031   6.486   3.526
 5790TIP3   OH217246  -0.237   6.397   2.990
 5790TIP3    H117247  -0.319   6.419   2.941
 5790TIP3    H217248  -0.211   6.316   2.942
 5791TIP3   OH217249   0.154   6.936   3.191
 5791TIP3    H117250   0.176   6.993   3.114
 5791TIP3    H217251   0.057   6.937   3.190
 5792TIP3   OH217252  -0.356   6.033   2.424
 5792TIP3    H117253  -0.433   6.085   2.397
 5792TIP3    H217254  -0.290   6.105   2.432
 5793TIP3   OH217255  -0.214   6.261   2.485
 5793TIP3    H117256  -0.130   6.275   2.533
 5793TIP3    H217257  -0.251   6.350   2.486
 5794TIP3   OH217258   0.204   6.363   2.363
 5794TIP3    H117259   0.138   6.317   2.306
 5794TIP3    H217260   0.197   6.451   2.320
 5795TIP3   OH217261   0.428   7.224   3.441
 5795TIP3    H117262   0.330   7.217   3.434
 5795TIP3    H217263   0.452   7.192   3.352
 5796TIP3   OH217264  -0.104   6.819   3.085
 5796TIP3    H117265  -0.183   6.781   3.125
 5796TIP3    H217266  -0.062   6.740   3.047
 5797TIP3   OH217267  -0.257   5.966   2.689
 5797TIP3    H117268  -0.295   5.998   2.605
 5797TIP3    H217269  -0.241   6.049   2.738
 5798TIP3   OH217270   0.339   6.369   3.595
 5798TIP3    H117271   0.241   6.369   3.586
 5798TIP3    H217272   0.364   6.355   3.502
 5799TIP3   OH217273  -0.020   6.575   2.983
 5799TIP3    H117274  -0.092   6.509   2.979
 5799TIP3    H217275   0.053   6.524   3.026
 5800TIP3   OH217276   0.020   7.475   2.929
 5800TIP3    H117277  -0.067   7.495   2.891
 5800TIP3    H217278   0.068   7.557   2.910
 5801TIP3   OH217279   0.066   6.658   3.910
 5801TIP3    H117280   0.096   6.584   3.964
 5801TIP3    H217281   0.120   6.731   3.940
 5802TIP3   OH217282   0.086   6.908   3.655
 5802TIP3    H117283   0.028   6.970   3.609
 5802TIP3    H217284   0.175   6.931   3.619
 5803TIP3   OH217285  -0.019   6.388   3.800
 5803TIP3    H117286  -0.097   6.374   3.857
 5803TIP3    H217287   0.054   6.367   3.862
 5804TIP3   OH217288   0.162   6.309   3.985
 5804TIP3    H117289   0.174   6.213   4.005
 5804TIP3    H217290   0.148   6.349   4.073
 5805TIP3   OH217291   0.204   7.712   2.885
 5805TIP3    H117292   0.240   7.679   2.970
 5805TIP3    H217293   0.264   7.675   2.819
 5806TIP3   OH217294   0.233   7.627   3.149
 5806TIP3    H117295   0.196   7.538   3.166
 5806TIP3    H217296   0.301   7.630   3.218
 5807TIP3   OH217297   0.271   7.323   3.729
 5807TIP3    H117298   0.221   7.318   3.812
 5807TIP3    H217299   0.319   7.408   3.738
 5808TIP3   OH217300   0.130   6.814   2.361
 5808TIP3    H117301   0.207   6.874   2.368
 5808TIP3    H217302   0.135   6.770   2.448
 5809TIP3   OH217303   0.227   6.686   2.579
 5809TIP3    H117304   0.160   6.645   2.637
 5809TIP3    H217305   0.289   6.728   2.642
 5810TIP3   OH217306   0.265   7.088   2.991
 5810TIP3    H117307   0.323   7.022   2.948
 5810TIP3    H217308   0.272   7.164   2.931
 5811TIP3   OH217309   0.083   7.373   3.183
 5811TIP3    H117310   0.021   7.434   3.224
 5811TIP3    H217311   0.064   7.388   3.088
 5812TIP3   OH217312   0.141   6.594   2.209
 5812TIP3    H117313   0.061   6.600   2.157
 5812TIP3    H217314   0.132   6.674   2.266
 5813TIP3   OH217315   0.023   6.271   2.183
 5813TIP3    H117316  -0.057   6.314   2.149
 5813TIP3    H217317   0.002   6.177   2.166
 5814TIP3   OH217318   0.042   6.547   2.717
 5814TIP3    H117319   0.042   6.450   2.707
 5814TIP3    H217320   0.026   6.560   2.812
 5815TIP3   OH217321   0.329   6.980   3.566
 5815TIP3    H117322   0.399   6.912   3.558
 5815TIP3    H217323   0.356   7.045   3.499
 5816TIP3   OH217324   0.511   6.785   3.586
 5816TIP3    H117325   0.436   6.733   3.622
 5816TIP3    H217326   0.583   6.720   3.600
 5817TIP3   OH217327  -0.012   5.997   2.139
 5817TIP3    H117328   0.053   5.977   2.209
 5817TIP3    H217329  -0.094   5.953   2.173
 5818TIP3   OH217330   0.037   6.269   2.617
 5818TIP3    H117331   0.075   6.179   2.628
 5818TIP3    H217332   0.091   6.301   2.543
 5819TIP3   OH217333   0.195   6.444   3.097
 5819TIP3    H117334   0.282   6.470   3.059
 5819TIP3    H217335   0.206   6.482   3.187
 5820TIP3   OH217336   0.268   6.580   3.329
 5820TIP3    H117337   0.194   6.619   3.380
 5820TIP3    H217338   0.303   6.660   3.284
 5821TIP3   OH217339   0.715   6.177   3.889
 5821TIP3    H117340   0.772   6.113   3.842
 5821TIP3    H217341   0.684   6.234   3.816
 5822TIP3   OH217342   0.140   6.017   2.648
 5822TIP3    H117343   0.187   5.993   2.731
 5822TIP3    H217344   0.079   5.940   2.640
 5823TIP3   OH217345   0.588   6.317   3.699
 5823TIP3    H117346   0.501   6.358   3.720
 5823TIP3    H217347   0.557   6.249   3.636
 5824TIP3   OH217348   0.225   5.954   2.280
 5824TIP3    H117349   0.263   5.880   2.228
 5824TIP3    H217350   0.293   6.024   2.271
 5825TIP3   OH217351   0.480   6.080   3.571
 5825TIP3    H117352   0.386   6.083   3.546
 5825TIP3    H217353   0.501   5.986   3.552
 5826TIP3   OH217354  -0.258   5.978   3.233
 5826TIP3    H117355  -0.294   5.889   3.243
 5826TIP3    H217356  -0.184   5.959   3.170
 5827TIP3   OH217357   0.213   5.899   3.111
 5827TIP3    H117358   0.251   5.927   3.025
 5827TIP3    H217359   0.120   5.883   3.087
 5828TIP3   OH217360   0.308   5.982   2.869
 5828TIP3    H117361   0.374   5.924   2.824
 5828TIP3    H217362   0.344   6.070   2.845
 5829TIP3   OH217363  -0.065   5.872   3.064
 5829TIP3    H117364  -0.042   5.834   2.977
 5829TIP3    H217365  -0.073   5.789   3.117
 5830TIP3   OH217366  -0.041   5.806   2.629
 5830TIP3    H117367  -0.127   5.850   2.647
 5830TIP3    H217368  -0.040   5.736   2.696
 5831TIP3   OH217369   0.218   6.041   4.011
 5831TIP3    H117370   0.237   6.007   4.101
 5831TIP3    H217371   0.306   6.035   3.968
 5832TIP3   OH217372   0.162   7.589   3.435
 5832TIP3    H117373   0.084   7.544   3.471
 5832TIP3    H217374   0.164   7.665   3.494
 5833TIP3   OH217375   1.422   6.965   2.266
 5833TIP3    H117376   1.396   7.058   2.247
 5833TIP3    H217377   1.344   6.918   2.232
 5834TIP3   OH217378   1.420   6.967   2.644
 5834TIP3    H117379   1.452   6.938   2.732
 5834TIP3    H217380   1.379   6.886   2.610
 5835TIP3   OH217381   0.719   6.865   3.013
 5835TIP3    H117382   0.752   6.797   3.075
 5835TIP3    H217383   0.800   6.916   2.998
 5836TIP3   OH217384   1.665   7.267   2.325
 5836TIP3    H117385   1.652   7.204   2.396
 5836TIP3    H217386   1.692   7.347   2.374
 5837TIP3   OH217387   0.693   7.269   2.740
 5837TIP3    H117388   0.686   7.171   2.741
 5837TIP3    H217389   0.790   7.278   2.731
 5838TIP3   OH217390   0.402   6.474   2.524
 5838TIP3    H117391   0.352   6.555   2.542
 5838TIP3    H217392   0.332   6.419   2.484
 5839TIP3   OH217393   0.464   6.766   2.698
 5839TIP3    H117394   0.512   6.687   2.731
 5839TIP3    H217395   0.517   6.791   2.621
 5840TIP3   OH217396   1.312   7.731   2.343
 5840TIP3    H117397   1.358   7.661   2.292
 5840TIP3    H217398   1.317   7.695   2.433
 5841TIP3   OH217399   1.220   7.192   2.695
 5841TIP3    H117400   1.259   7.117   2.648
 5841TIP3    H217401   1.303   7.239   2.719
 5842TIP3   OH217402   2.232   6.512   2.691
 5842TIP3    H117403   2.261   6.595   2.733
 5842TIP3    H217404   2.256   6.529   2.598
 5843TIP3   OH217405   1.631   6.694   2.728
 5843TIP3    H117406   1.676   6.609   2.747
 5843TIP3    H217407   1.602   6.680   2.636
 5844TIP3   OH217408   0.969   6.353   2.693
 5844TIP3    H117409   0.950   6.426   2.630
 5844TIP3    H217410   0.922   6.280   2.647
 5845TIP3   OH217411   1.663   6.445   2.314
 5845TIP3    H117412   1.735   6.429   2.380
 5845TIP3    H217413   1.716   6.480   2.240
 5846TIP3   OH217414   0.604   6.555   2.799
 5846TIP3    H117415   0.688   6.535   2.845
 5846TIP3    H217416   0.616   6.499   2.719
 5847TIP3   OH217417   1.044   6.753   2.593
 5847TIP3    H117418   1.138   6.728   2.604
 5847TIP3    H217419   1.006   6.670   2.559
 5848TIP3   OH217420   2.305   6.718   2.864
 5848TIP3    H117421   2.223   6.768   2.843
 5848TIP3    H217422   2.326   6.754   2.952
 5849TIP3   OH217423   0.966   6.337   3.127
 5849TIP3    H117424   0.907   6.374   3.058
 5849TIP3    H217425   0.914   6.358   3.207
 5850TIP3   OH217426   1.313   7.186   2.135
 5850TIP3    H117427   1.272   7.170   2.049
 5850TIP3    H217428   1.271   7.271   2.160
 5851TIP3   OH217429   1.073   7.112   2.922
 5851TIP3    H117430   1.012   7.179   2.959
 5851TIP3    H217431   1.117   7.162   2.850
 5852TIP3   OH217432   1.874   6.448   2.485
 5852TIP3    H117433   1.872   6.395   2.566
 5852TIP3    H217434   1.930   6.523   2.511
 5853TIP3   OH217435   0.837   6.451   2.911
 5853TIP3    H117436   0.900   6.524   2.933
 5853TIP3    H217437   0.885   6.411   2.835
 5854TIP3   OH217438   0.901   7.306   3.019
 5854TIP3    H117439   0.876   7.391   2.978
 5854TIP3    H217440   0.822   7.292   3.075
 5855TIP3   OH217441   0.338   7.002   2.272
 5855TIP3    H117442   0.333   7.031   2.179
 5855TIP3    H217443   0.358   7.088   2.315
 5856TIP3   OH217444   1.726   7.491   2.478
 5856TIP3    H117445   1.639   7.497   2.525
 5856TIP3    H217446   1.741   7.585   2.457
 5857TIP3   OH217447   2.026   6.414   2.858
 5857TIP3    H117448   1.939   6.442   2.826
 5857TIP3    H217449   2.086   6.445   2.787
 5858TIP3   OH217450   1.324   6.057   2.838
 5858TIP3    H117451   1.313   5.961   2.855
 5858TIP3    H217452   1.246   6.093   2.886
 5859TIP3   OH217453   1.434   7.559   2.164
 5859TIP3    H117454   1.487   7.477   2.147
 5859TIP3    H217455   1.498   7.625   2.128
 5860TIP3   OH217456   1.580   7.343   2.075
 5860TIP3    H117457   1.544   7.262   2.036
 5860TIP3    H217458   1.616   7.310   2.160
 5861TIP3   OH217459   1.956   7.434   2.829
 5861TIP3    H117460   1.950   7.352   2.776
 5861TIP3    H217461   1.927   7.500   2.765
 5862TIP3   OH217462   1.253   6.816   2.095
 5862TIP3    H117463   1.173   6.870   2.075
 5862TIP3    H217464   1.300   6.819   2.010
 5863TIP3   OH217465   1.213   6.602   1.813
 5863TIP3    H117466   1.279   6.653   1.865
 5863TIP3    H217467   1.273   6.540   1.767
 5864TIP3   OH217468   2.156   7.061   2.683
 5864TIP3    H117469   2.074   7.114   2.688
 5864TIP3    H217470   2.187   7.085   2.593
 5865TIP3   OH217471   1.600   6.899   2.068
 5865TIP3    H117472   1.546   6.925   2.147
 5865TIP3    H217473   1.684   6.875   2.112
 5866TIP3   OH217474   1.835   6.941   2.979
 5866TIP3    H117475   1.833   7.025   3.027
 5866TIP3    H217476   1.750   6.946   2.931
 5867TIP3   OH217477   0.832   6.900   2.485
 5867TIP3    H117478   0.790   6.841   2.418
 5867TIP3    H217479   0.909   6.846   2.513
 5868TIP3   OH217480   0.960   7.306   2.635
 5868TIP3    H117481   0.943   7.268   2.548
 5868TIP3    H217482   1.051   7.275   2.653
 5869TIP3   OH217483   0.967   6.871   2.839
 5869TIP3    H117484   1.001   6.849   2.750
 5869TIP3    H217485   1.012   6.956   2.858
 5870TIP3   OH217486   1.491   7.508   2.614
 5870TIP3    H117487   1.482   7.592   2.664
 5870TIP3    H217488   1.479   7.439   2.682
 5871TIP3   OH217489   1.107   7.427   3.164
 5871TIP3    H117490   1.046   7.490   3.209
 5871TIP3    H217491   1.042   7.373   3.114
 5872TIP3   OH217492   1.442   6.759   1.893
 5872TIP3    H117493   1.500   6.818   1.946
 5872TIP3    H217494   1.468   6.784   1.801
 5873TIP3   OH217495   0.862   6.983   3.265
 5873TIP3    H117496   0.866   7.070   3.309
 5873TIP3    H217497   0.766   6.965   3.271
 5874TIP3   OH217498   1.181   7.443   2.175
 5874TIP3    H117499   1.264   7.493   2.186
 5874TIP3    H217500   1.124   7.508   2.131
 5875TIP3   OH217501   0.902   7.597   3.247
 5875TIP3    H117502   0.867   7.595   3.156
 5875TIP3    H217503   0.823   7.575   3.301
 5876TIP3   OH217504   1.957   6.001   1.941
 5876TIP3    H117505   1.876   6.021   1.992
 5876TIP3    H217506   1.969   6.085   1.891
 5877TIP3   OH217507   0.702   6.739   2.292
 5877TIP3    H117508   0.640   6.785   2.231
 5877TIP3    H217509   0.657   6.653   2.299
 5878TIP3   OH217510   1.755   7.367   1.490
 5878TIP3    H117511   1.761   7.463   1.473
 5878TIP3    H217512   1.848   7.339   1.477
 5879TIP3   OH217513   0.481   7.126   3.195
 5879TIP3    H117514   0.417   7.102   3.127
 5879TIP3    H217515   0.518   7.040   3.222
 5880TIP3   OH217516   0.343   7.318   2.840
 5880TIP3    H117517   0.430   7.298   2.804
 5880TIP3    H217518   0.363   7.393   2.898
 5881TIP3   OH217519   2.212   7.768   2.905
 5881TIP3    H117520   2.198   7.672   2.904
 5881TIP3    H217521   2.121   7.799   2.925
 5882TIP3   OH217522   1.304   7.557   3.018
 5882TIP3    H117523   1.304   7.649   3.050
 5882TIP3    H217524   1.234   7.517   3.074
 5883TIP3   OH217525   1.064   7.683   1.986
 5883TIP3    H117526   1.046   7.670   1.891
 5883TIP3    H217527   1.035   7.775   2.002
 5884TIP3   OH217528   0.513   7.509   2.360
 5884TIP3    H117529   0.570   7.523   2.439
 5884TIP3    H217530   0.464   7.431   2.392
 5885TIP3   OH217531   1.312   7.608   1.611
 5885TIP3    H117532   1.359   7.539   1.559
 5885TIP3    H217533   1.350   7.596   1.700
 5886TIP3   OH217534   1.322   7.636   1.893
 5886TIP3    H117535   1.233   7.639   1.934
 5886TIP3    H217536   1.374   7.597   1.964
 5887TIP3   OH217537   2.089   6.900   3.160
 5887TIP3    H117538   2.010   6.915   3.107
 5887TIP3    H217539   2.104   6.804   3.147
 5888TIP3   OH217540   0.685   7.310   3.186
 5888TIP3    H117541   0.736   7.292   3.268
 5888TIP3    H217542   0.612   7.245   3.192
 5889TIP3   OH217543   1.085   6.130   2.969
 5889TIP3    H117544   0.995   6.101   2.941
 5889TIP3    H217545   1.061   6.215   3.012
 5890TIP3   OH217546   1.618   6.249   3.163
 5890TIP3    H117547   1.686   6.217   3.225
 5890TIP3    H217548   1.534   6.227   3.208
 5891TIP3   OH217549   1.860   6.677   3.082
 5891TIP3    H117550   1.808   6.675   3.165
 5891TIP3    H217551   1.836   6.764   3.044
 5892TIP3   OH217552   1.512   6.805   1.634
 5892TIP3    H117553   1.487   6.776   1.545
 5892TIP3    H217554   1.593   6.857   1.615
 5893TIP3   OH217555   1.227   6.185   1.937
 5893TIP3    H117556   1.198   6.181   2.031
 5893TIP3    H217557   1.192   6.099   1.906
 5894TIP3   OH217558   1.015   6.647   2.987
 5894TIP3    H117559   0.966   6.671   3.068
 5894TIP3    H217560   1.001   6.728   2.932
 5895TIP3   OH217561   0.901   6.533   2.502
 5895TIP3    H117562   0.808   6.508   2.518
 5895TIP3    H217563   0.914   6.493   2.413
 5896TIP3   OH217564   1.391   6.619   2.228
 5896TIP3    H117565   1.338   6.691   2.187
 5896TIP3    H217566   1.446   6.590   2.153
 5897TIP3   OH217567   1.565   6.898   3.314
 5897TIP3    H117568   1.544   6.826   3.377
 5897TIP3    H217569   1.659   6.914   3.336
 5898TIP3   OH217570   1.547   6.648   2.469
 5898TIP3    H117571   1.489   6.680   2.397
 5898TIP3    H217572   1.580   6.567   2.426
 5899TIP3   OH217573   0.834   6.678   3.196
 5899TIP3    H117574   0.866   6.742   3.262
 5899TIP3    H217575   0.825   6.597   3.249
 5900TIP3   OH217576   0.881   6.150   1.906
 5900TIP3    H117577   0.879   6.148   2.004
 5900TIP3    H217578   0.805   6.207   1.887
 5901TIP3   OH217579   0.428   6.203   2.777
 5901TIP3    H117580   0.507   6.232   2.827
 5901TIP3    H217581   0.464   6.169   2.694
 5902TIP3   OH217582   0.404   6.178   2.295
 5902TIP3    H117583   0.450   6.216   2.217
 5902TIP3    H217584   0.345   6.252   2.318
 5903TIP3   OH217585   1.557   6.894   2.892
 5903TIP3    H117586   1.590   6.822   2.833
 5903TIP3    H217587   1.528   6.842   2.969
 5904TIP3   OH217588   1.227   6.357   2.562
 5904TIP3    H117589   1.145   6.354   2.616
 5904TIP3    H217590   1.295   6.356   2.631
 5905TIP3   OH217591   0.663   6.410   2.573
 5905TIP3    H117592   0.568   6.418   2.545
 5905TIP3    H217593   0.686   6.319   2.547
 5906TIP3   OH217594   0.932   6.408   2.260
 5906TIP3    H117595   1.026   6.423   2.239
 5906TIP3    H217596   0.885   6.431   2.176
 5907TIP3   OH217597   1.720   6.432   2.767
 5907TIP3    H117598   1.682   6.444   2.856
 5907TIP3    H217599   1.657   6.370   2.727
 5908TIP3   OH217600   0.772   6.440   2.040
 5908TIP3    H117601   0.697   6.400   1.994
 5908TIP3    H217602   0.824   6.475   1.964
 5909TIP3   OH217603   1.888   8.122   2.985
 5909TIP3    H117604   1.886   8.132   2.887
 5909TIP3    H217605   1.969   8.170   3.007
 5910TIP3   OH217606   0.846   7.231   3.406
 5910TIP3    H117607   0.927   7.261   3.451
 5910TIP3    H217608   0.783   7.231   3.481
 5911TIP3   OH217609   1.311   6.682   2.658
 5911TIP3    H117610   1.384   6.646   2.606
 5911TIP3    H217611   1.325   6.641   2.745
 5912TIP3   OH217612   0.835   6.172   2.537
 5912TIP3    H117613   0.801   6.092   2.582
 5912TIP3    H217614   0.887   6.135   2.464
 5913TIP3   OH217615   1.287   6.577   2.956
 5913TIP3    H117616   1.198   6.617   2.964
 5913TIP3    H217617   1.345   6.640   3.002
 5914TIP3   OH217618   1.026   6.968   2.047
 5914TIP3    H117619   0.951   6.906   2.034
 5914TIP3    H217620   1.006   7.004   2.137
 5915TIP3   OH217621   1.925   7.208   2.676
 5915TIP3    H117622   1.950   7.258   2.594
 5915TIP3    H217623   1.840   7.168   2.650
 5916TIP3   OH217624   1.481   6.286   1.903
 5916TIP3    H117625   1.385   6.270   1.913
 5916TIP3    H217626   1.493   6.379   1.930
 5917TIP3   OH217627   1.417   7.285   3.045
 5917TIP3    H117628   1.449   7.272   3.135
 5917TIP3    H217629   1.389   7.378   3.045
 5918TIP3   OH217630   1.552   6.530   2.009
 5918TIP3    H117631   1.649   6.536   2.026
 5918TIP3    H217632   1.535   6.612   1.957
 5919TIP3   OH217633   0.716   6.993   2.721
 5919TIP3    H117634   0.752   6.966   2.634
 5919TIP3    H217635   0.758   6.930   2.781
 5920TIP3   OH217636   1.169   7.119   1.869
 5920TIP3    H117637   1.122   7.205   1.880
 5920TIP3    H217638   1.115   7.063   1.929
 5921TIP3   OH217639   0.595   6.918   3.336
 5921TIP3    H117640   0.616   6.900   3.430
 5921TIP3    H217641   0.531   6.848   3.316
 5922TIP3   OH217642   1.322   7.026   3.355
 5922TIP3    H117643   1.265   6.971   3.300
 5922TIP3    H217644   1.411   6.995   3.326
 5923TIP3   OH217645   1.585   7.538   2.947
 5923TIP3    H117646   1.488   7.549   2.948
 5923TIP3    H217647   1.611   7.600   3.019
 5924TIP3   OH217648   1.994   6.621   1.847
 5924TIP3    H117649   1.931   6.576   1.786
 5924TIP3    H217650   1.991   6.710   1.806
 5925TIP3   OH217651   2.209   7.468   2.929
 5925TIP3    H117652   2.112   7.472   2.916
 5925TIP3    H217653   2.237   7.444   2.838
 5926TIP3   OH217654   1.693   7.441   1.754
 5926TIP3    H117655   1.670   7.370   1.816
 5926TIP3    H217656   1.707   7.394   1.670
 5927TIP3   OH217657   1.690   7.068   2.598
 5927TIP3    H117658   1.596   7.045   2.607
 5927TIP3    H217659   1.724   6.990   2.549
 5928TIP3   OH217660   0.819   7.298   2.348
 5928TIP3    H117661   0.827   7.378   2.292
 5928TIP3    H217662   0.724   7.284   2.349
 5929TIP3   OH217663   0.398   6.589   2.110
 5929TIP3    H117664   0.431   6.681   2.098
 5929TIP3    H217665   0.308   6.606   2.142
 5930TIP3   OH217666   0.955   7.063   2.290
 5930TIP3    H117667   0.923   7.153   2.309
 5930TIP3    H217668   0.918   7.013   2.366
 5931TIP3   OH217669   1.086   7.641   2.815
 5931TIP3    H117670   1.127   7.714   2.763
 5931TIP3    H217671   1.164   7.607   2.862
 5932TIP3   OH217672   0.743   7.534   2.196
 5932TIP3    H117673   0.658   7.542   2.243
 5932TIP3    H217674   0.777   7.626   2.200
 5933TIP3   OH217675   1.474   7.275   2.774
 5933TIP3    H117676   1.467   7.270   2.872
 5933TIP3    H217677   1.556   7.227   2.758
 5934TIP3   OH217678   1.452   7.162   1.655
 5934TIP3    H117679   1.499   7.139   1.738
 5934TIP3    H217680   1.360   7.140   1.679
 5935TIP3   OH217681   1.713   7.831   2.844
 5935TIP3    H117682   1.665   7.751   2.816
 5935TIP3    H217683   1.715   7.882   2.761
 5936TIP3   OH217684   1.788   7.644   1.471
 5936TIP3    H117685   1.829   7.718   1.424
 5936TIP3    H217686   1.709   7.690   1.508
 5937TIP3   OH217687   0.808   6.420   3.343
 5937TIP3    H117688   0.712   6.425   3.358
 5937TIP3    H217689   0.836   6.361   3.415
 5938TIP3   OH217690   1.608   7.100   1.875
 5938TIP3    H117691   1.600   7.034   1.947
 5938TIP3    H217692   1.705   7.100   1.862
 5939TIP3   OH217693   0.518   7.502   2.977
 5939TIP3    H117694   0.576   7.429   3.005
 5939TIP3    H217695   0.551   7.574   3.032
 5940TIP3   OH217696   0.785   7.147   1.652
 5940TIP3    H117697   0.830   7.065   1.625
 5940TIP3    H217698   0.786   7.139   1.751
 5941TIP3   OH217699   0.789   7.159   1.923
 5941TIP3    H117700   0.842   7.132   1.998
 5941TIP3    H217701   0.779   7.256   1.936
 5942TIP3   OH217702   0.508   6.841   2.132
 5942TIP3    H117703   0.454   6.889   2.197
 5942TIP3    H217704   0.520   6.913   2.066
 5943TIP3   OH217705   1.642   6.487   3.026
 5943TIP3    H117706   1.726   6.522   3.060
 5943TIP3    H217707   1.630   6.405   3.078
 5944TIP3   OH217708   1.523   6.237   2.187
 5944TIP3    H117709   1.512   6.261   2.093
 5944TIP3    H217710   1.563   6.318   2.224
 5945TIP3   OH217711   1.030   7.349   1.903
 5945TIP3    H117712   0.941   7.382   1.926
 5945TIP3    H217713   1.054   7.407   1.830
 5946TIP3   OH217714   1.215   6.414   2.290
 5946TIP3    H117715   1.280   6.486   2.272
 5946TIP3    H217716   1.220   6.407   2.387
 5947TIP3   OH217717   1.482   6.733   3.099
 5947TIP3    H117718   1.505   6.787   3.177
 5947TIP3    H217719   1.539   6.654   3.109
 5948TIP3   OH217720   1.359   6.143   2.393
 5948TIP3    H117721   1.354   6.219   2.453
 5948TIP3    H217722   1.419   6.179   2.324
 5949TIP3   OH217723   0.763   7.435   1.943
 5949TIP3    H117724   0.757   7.517   1.889
 5949TIP3    H217725   0.753   7.471   2.034
 5950TIP3   OH217726   0.871   6.140   2.182
 5950TIP3    H117727   0.869   6.230   2.218
 5950TIP3    H217728   0.967   6.121   2.191
 5951TIP3   OH217729   2.128   6.631   3.084
 5951TIP3    H117730   2.030   6.630   3.086
 5951TIP3    H217731   2.143   6.597   2.994
 5952TIP3   OH217732   1.775   6.828   2.467
 5952TIP3    H117733   1.700   6.767   2.479
 5952TIP3    H217734   1.848   6.781   2.514
 5953TIP3   OH217735   0.517   7.068   1.988
 5953TIP3    H117736   0.515   7.161   1.962
 5953TIP3    H217737   0.555   7.028   1.907
 5954TIP3   OH217738   0.443   6.328   2.066
 5954TIP3    H117739   0.439   6.425   2.085
 5954TIP3    H217740   0.358   6.312   2.025
 5955TIP3   OH217741   1.750   7.776   2.426
 5955TIP3    H117742   1.728   7.831   2.348
 5955TIP3    H217743   1.841   7.805   2.447
 5956TIP3   OH217744   0.819   6.053   2.942
 5956TIP3    H117745   0.789   6.024   2.853
 5956TIP3    H217746   0.806   5.972   2.995
 5957TIP3   OH217747   0.353   7.271   2.326
 5957TIP3    H117748   0.292   7.329   2.374
 5957TIP3    H217749   0.364   7.314   2.241
 5958TIP3   OH217750   0.513   7.807   3.401
 5958TIP3    H117751   0.601   7.811   3.444
 5958TIP3    H217752   0.501   7.711   3.393
 5959TIP3   OH217753   0.996   7.778   3.441
 5959TIP3    H117754   1.091   7.761   3.448
 5959TIP3    H217755   0.973   7.720   3.366
 5960TIP3   OH217756   0.981   7.356   1.610
 5960TIP3    H117757   0.916   7.284   1.620
 5960TIP3    H217758   1.034   7.319   1.537
 5961TIP3   OH217759   1.630   7.687   3.178
 5961TIP3    H117760   1.626   7.614   3.244
 5961TIP3    H217761   1.711   7.735   3.203
 5962TIP3   OH217762   1.435   7.398   1.486
 5962TIP3    H117763   1.479   7.332   1.542
 5962TIP3    H217764   1.486   7.395   1.403
 5963TIP3   OH217765   0.649   7.217   3.601
 5963TIP3    H117766   0.667   7.121   3.602
 5963TIP3    H217767   0.564   7.220   3.552
 5964TIP3   OH217768   0.645   6.879   1.814
 5964TIP3    H117769   0.705   6.843   1.882
 5964TIP3    H217770   0.705   6.886   1.737
 5965TIP3   OH217771   1.252   7.302   3.370
 5965TIP3    H117772   1.214   7.320   3.282
 5965TIP3    H217773   1.285   7.210   3.361
 5966TIP3   OH217774   1.149   7.062   1.599
 5966TIP3    H117775   1.145   7.077   1.695
 5966TIP3    H217776   1.126   6.967   1.592
 5967TIP3   OH217777   1.748   7.312   2.975
 5967TIP3    H117778   1.821   7.357   2.929
 5967TIP3    H217779   1.678   7.379   2.964
 5968TIP3   OH217780   0.765   6.952   3.578
 5968TIP3    H117781   0.841   6.898   3.555
 5968TIP3    H217782   0.791   6.984   3.667
 5969TIP3   OH217783   0.834   6.770   2.012
 5969TIP3    H117784   0.804   6.731   2.096
 5969TIP3    H217785   0.870   6.693   1.965
 5970TIP3   OH217786   1.099   6.835   3.238
 5970TIP3    H117787   1.023   6.897   3.242
 5970TIP3    H217788   1.149   6.869   3.161
 5971TIP3   OH217789   0.933   6.562   1.854
 5971TIP3    H117790   0.906   6.570   1.761
 5971TIP3    H217791   1.030   6.572   1.847
 5972TIP3   OH217792   1.615   7.238   3.375
 5972TIP3    H117793   1.696   7.218   3.325
 5972TIP3    H217794   1.617   7.171   3.445
 5973TIP3   OH217795   1.753   6.896   1.514
 5973TIP3    H117796   1.734   6.852   1.429
 5973TIP3    H217797   1.722   6.987   1.491
 5974TIP3   OH217798   1.223   6.625   3.366
 5974TIP3    H117799   1.224   6.545   3.309
 5974TIP3    H217800   1.180   6.691   3.308
 5975TIP3   OH217801   1.225   6.410   3.174
 5975TIP3    H117802   1.253   6.454   3.091
 5975TIP3    H217803   1.131   6.389   3.154
 5976TIP3   OH217804   1.254   6.947   3.047
 5976TIP3    H117805   1.337   6.956   2.999
 5976TIP3    H217806   1.198   7.015   3.003
 5977TIP3   OH217807   1.834   6.917   3.426
 5977TIP3    H117808   1.887   6.837   3.435
 5977TIP3    H217809   1.899   6.981   3.394
 5978TIP3   OH217810   1.876   7.167   3.163
 5978TIP3    H117811   1.818   7.221   3.104
 5978TIP3    H217812   1.964   7.187   3.123
 5979TIP3   OH217813   1.101   6.738   3.596
 5979TIP3    H117814   1.032   6.671   3.610
 5979TIP3    H217815   1.135   6.714   3.508
 5980TIP3   OH217816   1.359   6.176   3.240
 5980TIP3    H117817   1.310   6.258   3.217
 5980TIP3    H217818   1.290   6.108   3.226
 5981TIP3   OH217819   1.485   6.679   3.456
 5981TIP3    H117820   1.473   6.669   3.552
 5981TIP3    H217821   1.395   6.655   3.425
 5982TIP3   OH217822   1.724   6.630   3.312
 5982TIP3    H117823   1.645   6.633   3.370
 5982TIP3    H217824   1.793   6.596   3.372
 5983TIP3   OH217825   1.978   6.566   3.467
 5983TIP3    H117826   1.965   6.471   3.487
 5983TIP3    H217827   1.953   6.610   3.551
 5984TIP3   OH217828   0.939   6.519   3.648
 5984TIP3    H117829   0.950   6.429   3.611
 5984TIP3    H217830   0.975   6.506   3.738
 5985TIP3   OH217831   1.450   6.184   3.499
 5985TIP3    H117832   1.519   6.114   3.493
 5985TIP3    H217833   1.413   6.179   3.408
 5986TIP3   OH217834   1.518   6.400   3.656
 5986TIP3    H117835   1.495   6.328   3.592
 5986TIP3    H217836   1.440   6.459   3.649
 5987TIP3   OH217837   0.296   7.460   2.556
 5987TIP3    H117838   0.252   7.404   2.621
 5987TIP3    H217839   0.334   7.529   2.612
 5988TIP3   OH217840   2.073   7.569   3.231
 5988TIP3    H117841   1.999   7.580   3.293
 5988TIP3    H217842   2.112   7.659   3.230
 5989TIP3   OH217843   1.888   7.085   1.847
 5989TIP3    H117844   1.956   7.149   1.819
 5989TIP3    H217845   1.931   7.046   1.927
 5990TIP3   OH217846   2.016   6.952   2.051
 5990TIP3    H117847   1.950   6.911   2.111
 5990TIP3    H217848   2.081   6.991   2.113
 5991TIP3   OH217849   2.071   7.344   2.486
 5991TIP3    H117850   2.122   7.283   2.430
 5991TIP3    H217851   2.058   7.420   2.427
 5992TIP3   OH217852   1.954   6.859   1.698
 5992TIP3    H117853   1.882   6.863   1.631
 5992TIP3    H217854   1.928   6.936   1.754
 5993TIP3   OH217855   1.823   6.533   1.655
 5993TIP3    H117856   1.785   6.572   1.576
 5993TIP3    H217857   1.798   6.439   1.644
 5994TIP3   OH217858   1.830   6.809   2.198
 5994TIP3    H117859   1.839   6.712   2.194
 5994TIP3    H217860   1.817   6.823   2.295
 5995TIP3   OH217861   0.456   6.888   2.945
 5995TIP3    H117862   0.454   6.855   2.853
 5995TIP3    H217863   0.553   6.889   2.962
 5996TIP3   OH217864   2.119   7.231   3.055
 5996TIP3    H117865   2.192   7.167   3.045
 5996TIP3    H217866   2.147   7.304   2.996
 5997TIP3   OH217867   2.305   7.037   3.075
 5997TIP3    H117868   2.230   6.988   3.114
 5997TIP3    H217869   2.377   6.972   3.088
 5998TIP3   OH217870   1.769   6.267   1.639
 5998TIP3    H117871   1.847   6.238   1.691
 5998TIP3    H217872   1.699   6.206   1.666
 5999TIP3   OH217873   1.825   6.524   2.093
 5999TIP3    H117874   1.866   6.435   2.109
 5999TIP3    H217875   1.885   6.557   2.024
 6000TIP3   OH217876   1.989   6.700   2.588
 6000TIP3    H117877   2.075   6.726   2.548
 6000TIP3    H217878   2.003   6.737   2.678
 6001TIP3   OH217879   2.057   6.843   2.823
 6001TIP3    H117880   1.978   6.878   2.868
 6001TIP3    H217881   2.089   6.923   2.775
 6002TIP3   OH217882   0.672   6.567   3.614
 6002TIP3    H117883   0.770   6.563   3.619
 6002TIP3    H217884   0.649   6.484   3.661
 6003TIP3   OH217885   1.935   6.274   2.131
 6003TIP3    H117886   1.984   6.258   2.214
 6003TIP3    H217887   1.875   6.197   2.130
 6004TIP3   OH217888   0.635   6.261   2.956
 6004TIP3    H117889   0.698   6.186   2.961
 6004TIP3    H217890   0.697   6.336   2.946
 6005TIP3   OH217891   0.442   6.533   3.025
 6005TIP3    H117892   0.489   6.527   2.940
 6005TIP3    H217893   0.470   6.620   3.056
 6006TIP3   OH217894   2.377   6.566   3.205
 6006TIP3    H117895   2.288   6.607   3.201
 6006TIP3    H217896   2.369   6.499   3.135
 6007TIP3   OH217897   2.016   6.211   1.761
 6007TIP3    H117898   2.057   6.137   1.712
 6007TIP3    H217899   2.085   6.280   1.756
 6008TIP3   OH217900   0.422   6.046   2.530
 6008TIP3    H117901   0.328   6.035   2.550
 6008TIP3    H217902   0.419   6.099   2.447
 6009TIP3   OH217903   1.581   7.742   2.032
 6009TIP3    H117904   1.632   7.727   1.949
 6009TIP3    H217905   1.638   7.805   2.079
 6010TIP3   OH217906   0.638   6.111   3.336
 6010TIP3    H117907   0.591   6.117   3.421
 6010TIP3    H217908   0.575   6.156   3.277
 6011TIP3   OH217909   0.687   7.547   3.417
 6011TIP3    H117910   0.596   7.516   3.398
 6011TIP3    H217911   0.696   7.527   3.511
 6012TIP3   OH217912   0.858   7.577   2.962
 6012TIP3    H117913   0.814   7.655   2.922
 6012TIP3    H217914   0.945   7.589   2.920
 6013TIP3   OH217915   1.305   7.823   3.102
 6013TIP3    H117916   1.349   7.825   3.190
 6013TIP3    H217917   1.371   7.872   3.048
 6014TIP3   OH217918   1.483   7.972   2.957
 6014TIP3    H117919   1.554   7.922   2.912
 6014TIP3    H217920   1.537   8.029   3.016
 6015TIP3   OH217921   2.274   6.330   3.069
 6015TIP3    H117922   2.187   6.326   3.024
 6015TIP3    H217923   2.308   6.238   3.051
 6016TIP3   OH217924   0.530   7.830   2.987
 6016TIP3    H117925   0.448   7.875   2.959
 6016TIP3    H217926   0.545   7.873   3.073
 6017TIP3   OH217927   0.772   7.812   2.845
 6017TIP3    H117928   0.685   7.826   2.888
 6017TIP3    H217929   0.755   7.846   2.754
 6018TIP3   OH217930   1.194   7.843   2.645
 6018TIP3    H117931   1.133   7.867   2.572
 6018TIP3    H217932   1.211   7.931   2.684
 6019TIP3   OH217933   1.463   7.776   2.691
 6019TIP3    H117934   1.372   7.802   2.669
 6019TIP3    H217935   1.515   7.850   2.655
 6020TIP3   OH217936   1.661   7.974   2.610
 6020TIP3    H117937   1.656   8.058   2.560
 6020TIP3    H217938   1.704   7.915   2.545
 6021TIP3   OH217939   0.448   7.623   2.732
 6021TIP3    H117940   0.478   7.602   2.823
 6021TIP3    H217941   0.520   7.578   2.681
 6022TIP3   OH217942   0.650   7.499   2.594
 6022TIP3    H117943   0.666   7.414   2.642
 6022TIP3    H217944   0.741   7.535   2.590
 6023TIP3   OH217945   0.910   7.596   2.593
 6023TIP3    H117946   0.946   7.507   2.576
 6023TIP3    H217947   0.957   7.617   2.676
 6024TIP3   OH217948   1.483   6.251   2.677
 6024TIP3    H117949   1.440   6.181   2.729
 6024TIP3    H217950   1.556   6.204   2.633
 6025TIP3   OH217951   2.006   6.136   2.587
 6025TIP3    H117952   2.043   6.184   2.510
 6025TIP3    H217953   1.910   6.150   2.576
 6026TIP3   OH217954   2.101   6.232   2.349
 6026TIP3    H117955   2.173   6.179   2.309
 6026TIP3    H217956   2.135   6.323   2.333
 6027TIP3   OH217957   0.731   5.961   2.697
 6027TIP3    H117958   0.638   5.929   2.697
 6027TIP3    H217959   0.779   5.875   2.692
 6028TIP3   OH217960   0.515   5.829   2.341
 6028TIP3    H117961   0.548   5.887   2.270
 6028TIP3    H217962   0.488   5.893   2.409
 6029TIP3   OH217963   1.174   5.994   2.576
 6029TIP3    H117964   1.232   6.042   2.514
 6029TIP3    H217965   1.201   6.031   2.661
 6030TIP3   OH217966   1.721   6.138   2.559
 6030TIP3    H117967   1.723   6.100   2.471
 6030TIP3    H217968   1.709   6.058   2.615
 6031TIP3   OH217969   1.752   6.061   2.121
 6031TIP3    H117970   1.664   6.101   2.132
 6031TIP3    H217971   1.739   5.975   2.168
 6032TIP3   OH217972   0.637   5.988   2.109
 6032TIP3    H117973   0.686   5.924   2.053
 6032TIP3    H217974   0.709   6.043   2.145
 6033TIP3   OH217975   1.148   6.164   2.204
 6033TIP3    H117976   1.208   6.116   2.264
 6033TIP3    H217977   1.170   6.256   2.230
 6034TIP3   OH217978   1.066   7.593   1.717
 6034TIP3    H117979   1.155   7.616   1.679
 6034TIP3    H217980   1.049   7.512   1.664
 6035TIP3   OH217981   1.726   7.707   1.799
 6035TIP3    H117982   1.718   7.610   1.785
 6035TIP3    H217983   1.681   7.741   1.719
 6036TIP3   OH217984   0.942   6.237   3.580
 6036TIP3    H117985   0.908   6.169   3.640
 6036TIP3    H217986   1.036   6.240   3.608
 6037TIP3   OH217987   1.189   6.237   3.704
 6037TIP3    H117988   1.274   6.215   3.663
 6037TIP3    H217989   1.180   6.166   3.771
 6038TIP3   OH217990   2.015   6.291   3.494
 6038TIP3    H117991   2.024   6.257   3.586
 6038TIP3    H217992   2.096   6.258   3.454
 6039TIP3   OH217993   1.950   7.852   2.989
 6039TIP3    H117994   1.874   7.821   2.936
 6039TIP3    H217995   1.933   7.948   2.987
 6040TIP3   OH217996   3.219   7.224   1.753
 6040TIP3    H117997   3.190   7.315   1.732
 6040TIP3    H217998   3.142   7.174   1.719
 6041TIP3   OH217999   3.217   7.224   2.132
 6041TIP3    H118000   3.248   7.192   2.218
 6041TIP3    H218001   3.177   7.145   2.094
 6042TIP3   OH218002   2.518   7.120   2.499
 6042TIP3    H118003   2.551   7.053   2.561
 6042TIP3    H218004   2.596   7.176   2.488
 6043TIP3   OH218005   3.460   7.525   1.813
 6043TIP3    H118006   3.447   7.455   1.878
 6043TIP3    H218007   3.490   7.599   1.869
 6044TIP3   OH218008   2.489   7.527   2.220
 6044TIP3    H118009   2.480   7.429   2.225
 6044TIP3    H218010   2.586   7.536   2.217
 6045TIP3   OH218011   2.195   6.732   2.009
 6045TIP3    H118012   2.147   6.816   2.023
 6045TIP3    H218013   2.124   6.678   1.970
 6046TIP3   OH218014   2.254   7.019   2.178
 6046TIP3    H118015   2.303   6.942   2.215
 6046TIP3    H218016   2.314   7.049   2.109
 6047TIP3   OH218017   3.110   7.989   1.830
 6047TIP3    H118018   3.156   7.918   1.781
 6047TIP3    H218019   3.102   7.949   1.918
 6048TIP3   OH218020   3.017   7.449   2.181
 6048TIP3    H118021   3.054   7.372   2.134
 6048TIP3    H218022   3.101   7.494   2.204
 6049TIP3   OH218023   4.028   6.770   2.177
 6049TIP3    H118024   4.058   6.853   2.220
 6049TIP3    H218025   4.052   6.786   2.085
 6050TIP3   OH218026   3.428   6.952   2.214
 6050TIP3    H118027   3.471   6.866   2.234
 6050TIP3    H218028   3.398   6.937   2.123
 6051TIP3   OH218029   2.765   6.610   2.179
 6051TIP3    H118030   2.746   6.683   2.116
 6051TIP3    H218031   2.718   6.536   2.135
 6052TIP3   OH218032   3.459   6.702   1.801
 6052TIP3    H118033   3.532   6.686   1.866
 6052TIP3    H218034   3.512   6.737   1.726
 6053TIP3   OH218035   2.400   6.812   2.285
 6053TIP3    H118036   2.483   6.792   2.333
 6053TIP3    H218037   2.412   6.757   2.206
 6054TIP3   OH218038   2.841   7.010   2.079
 6054TIP3    H118039   2.935   6.985   2.091
 6054TIP3    H218040   2.802   6.926   2.046
 6055TIP3   OH218041   4.104   6.977   2.348
 6055TIP3    H118042   4.020   7.024   2.327
 6055TIP3    H218043   4.114   6.999   2.441
 6056TIP3   OH218044   2.764   6.594   2.613
 6056TIP3    H118045   2.703   6.630   2.545
 6056TIP3    H218046   2.712   6.612   2.694
 6057TIP3   OH218047   3.110   7.444   1.622
 6057TIP3    H118048   3.068   7.423   1.538
 6057TIP3    H218049   3.067   7.529   1.645
 6058TIP3   OH218050   2.871   7.369   2.409
 6058TIP3    H118051   2.807   7.434   2.446
 6058TIP3    H218052   2.911   7.420   2.336
 6059TIP3   OH218053   3.670   6.704   1.972
 6059TIP3    H118054   3.666   6.651   2.052
 6059TIP3    H218055   3.726   6.779   1.999
 6060TIP3   OH218056   2.633   6.709   2.398
 6060TIP3    H118057   2.696   6.781   2.420
 6060TIP3    H218058   2.682   6.667   2.322
 6061TIP3   OH218059   2.697   7.560   2.506
 6061TIP3    H118060   2.675   7.648   2.468
 6061TIP3    H218061   2.617   7.546   2.561
 6062TIP3   OH218062   2.093   7.252   1.742
 6062TIP3    H118063   2.052   7.280   1.658
 6062TIP3    H218064   2.123   7.338   1.779
 6063TIP3   OH218065   3.533   7.769   1.984
 6063TIP3    H118066   3.442   7.760   2.022
 6063TIP3    H218067   3.524   7.854   1.936
 6064TIP3   OH218068   3.822   6.673   2.345
 6064TIP3    H118069   3.734   6.699   2.313
 6064TIP3    H218070   3.881   6.703   2.273
 6065TIP3   OH218071   3.120   6.313   2.325
 6065TIP3    H118072   3.109   6.217   2.344
 6065TIP3    H218073   3.042   6.349   2.373
 6066TIP3   OH218074   3.235   7.816   1.657
 6066TIP3    H118075   3.284   7.733   1.636
 6066TIP3    H218076   3.296   7.881   1.615
 6067TIP3   OH218077   3.375   7.601   1.562
 6067TIP3    H118078   3.341   7.521   1.519
 6067TIP3    H218079   3.411   7.565   1.646
 6068TIP3   OH218080   3.758   7.682   2.325
 6068TIP3    H118081   3.747   7.604   2.266
 6068TIP3    H218082   3.741   7.756   2.264
 6069TIP3   OH218083   3.050   7.076   1.582
 6069TIP3    H118084   2.969   7.127   1.560
 6069TIP3    H218085   3.096   7.073   1.496
 6070TIP3   OH218086   3.008   6.859   1.299
 6070TIP3    H118087   3.076   6.910   1.347
 6070TIP3    H218088   3.065   6.796   1.252
 6071TIP3   OH218089   3.953   7.319   2.171
 6071TIP3    H118090   3.870   7.371   2.175
 6071TIP3    H218091   3.983   7.341   2.080
 6072TIP3   OH218092   3.396   7.158   1.554
 6072TIP3    H118093   3.342   7.182   1.633
 6072TIP3    H218094   3.480   7.132   1.598
 6073TIP3   OH218095   3.632   7.198   2.465
 6073TIP3    H118096   3.628   7.283   2.512
 6073TIP3    H218097   3.545   7.200   2.419
 6074TIP3   OH218098   2.629   7.156   1.971
 6074TIP3    H118099   2.587   7.099   1.904
 6074TIP3    H218100   2.706   7.102   1.999
 6075TIP3   OH218101   2.760   7.568   2.119
 6075TIP3    H118102   2.738   7.525   2.035
 6075TIP3    H218103   2.850   7.533   2.136
 6076TIP3   OH218104   2.766   7.126   2.326
 6076TIP3    H118105   2.798   7.105   2.236
 6076TIP3    H218106   2.809   7.213   2.344
 6077TIP3   OH218107   3.290   7.765   2.102
 6077TIP3    H118108   3.277   7.844   2.158
 6077TIP3    H218109   3.276   7.691   2.164
 6078TIP3   OH218110   2.902   7.683   2.650
 6078TIP3    H118111   2.841   7.747   2.694
 6078TIP3    H218112   2.837   7.631   2.599
 6079TIP3   OH218113   3.237   7.016   1.380
 6079TIP3    H118114   3.296   7.075   1.432
 6079TIP3    H218115   3.264   7.040   1.288
 6080TIP3   OH218116   2.658   7.239   2.751
 6080TIP3    H118117   2.661   7.327   2.795
 6080TIP3    H218118   2.562   7.221   2.757
 6081TIP3   OH218119   2.980   7.696   1.656
 6081TIP3    H118120   3.059   7.751   1.674
 6081TIP3    H218121   2.919   7.759   1.616
 6082TIP3   OH218122   2.699   7.855   2.737
 6082TIP3    H118123   2.666   7.852   2.645
 6082TIP3    H218124   2.619   7.830   2.789
 6083TIP3   OH218125   3.753   6.257   1.428
 6083TIP3    H118126   3.672   6.277   1.479
 6083TIP3    H218127   3.766   6.341   1.378
 6084TIP3   OH218128   2.495   6.999   1.776
 6084TIP3    H118129   2.430   7.044   1.719
 6084TIP3    H218130   2.454   6.912   1.788
 6085TIP3   OH218131   3.552   7.624   0.977
 6085TIP3    H118132   3.561   7.721   0.962
 6085TIP3    H218133   3.645   7.595   0.964
 6086TIP3   OH218134   2.276   7.382   2.683
 6086TIP3    H118135   2.211   7.362   2.612
 6086TIP3    H218136   2.313   7.294   2.704
 6087TIP3   OH218137   2.130   7.581   2.325
 6087TIP3    H118138   2.226   7.587   2.314
 6087TIP3    H218139   2.112   7.656   2.383
 6088TIP3   OH218140   3.995   8.026   2.371
 6088TIP3    H118141   3.994   7.929   2.382
 6088TIP3    H218142   3.911   8.050   2.416
 6089TIP3   OH218143   3.102   7.811   2.508
 6089TIP3    H118144   3.100   7.905   2.539
 6089TIP3    H218145   3.028   7.773   2.560
 6090TIP3   OH218146   2.861   7.942   1.457
 6090TIP3    H118147   2.815   7.923   1.374
 6090TIP3    H218148   2.829   8.031   1.481
 6091TIP3   OH218149   2.299   7.792   1.841
 6091TIP3    H118150   2.347   7.782   1.926
 6091TIP3    H218151   2.239   7.716   1.847
 6092TIP3   OH218152   3.063   7.843   1.098
 6092TIP3    H118153   3.122   7.773   1.061
 6092TIP3    H218154   3.098   7.852   1.189
 6093TIP3   OH218155   3.113   7.891   1.368
 6093TIP3    H118156   3.025   7.900   1.410
 6093TIP3    H218157   3.163   7.848   1.439
 6094TIP3   OH218158   3.884   7.158   2.646
 6094TIP3    H118159   3.804   7.170   2.591
 6094TIP3    H218160   3.900   7.062   2.634
 6095TIP3   OH218161   2.482   7.563   2.673
 6095TIP3    H118162   2.531   7.546   2.756
 6095TIP3    H218163   2.407   7.501   2.680
 6096TIP3   OH218164   2.880   6.389   2.454
 6096TIP3    H118165   2.791   6.358   2.428
 6096TIP3    H218166   2.855   6.471   2.500
 6097TIP3   OH218167   3.415   6.506   2.650
 6097TIP3    H118168   3.483   6.475   2.713
 6097TIP3    H218169   3.331   6.483   2.696
 6098TIP3   OH218170   3.655   6.933   2.569
 6098TIP3    H118171   3.605   6.930   2.653
 6098TIP3    H218172   3.630   7.020   2.532
 6099TIP3   OH218173   3.313   7.064   1.124
 6099TIP3    H118174   3.280   7.037   1.036
 6099TIP3    H218175   3.395   7.111   1.100
 6100TIP3   OH218176   3.026   6.439   1.426
 6100TIP3    H118177   2.994   6.436   1.518
 6100TIP3    H218178   2.988   6.355   1.393
 6101TIP3   OH218179   2.813   6.904   2.474
 6101TIP3    H118180   2.761   6.926   2.555
 6101TIP3    H218181   2.797   6.985   2.420
 6102TIP3   OH218182   2.696   6.791   1.988
 6102TIP3    H118183   2.604   6.764   2.005
 6102TIP3    H218184   2.710   6.750   1.899
 6103TIP3   OH218185   3.187   6.876   1.715
 6103TIP3    H118186   3.134   6.948   1.673
 6103TIP3    H218187   3.242   6.846   1.640
 6104TIP3   OH218188   3.362   7.157   2.805
 6104TIP3    H118189   3.339   7.083   2.865
 6104TIP3    H218190   3.457   7.166   2.823
 6105TIP3   OH218191   3.345   6.906   1.955
 6105TIP3    H118192   3.285   6.935   1.883
 6105TIP3    H218193   3.378   6.824   1.913
 6106TIP3   OH218194   2.632   6.934   2.683
 6106TIP3    H118195   2.658   6.998   2.751
 6106TIP3    H218196   2.622   6.852   2.735
 6107TIP3   OH218197   2.681   6.410   1.392
 6107TIP3    H118198   2.674   6.408   1.490
 6107TIP3    H218199   2.602   6.463   1.370
 6108TIP3   OH218200   2.224   6.456   2.264
 6108TIP3    H118201   2.301   6.487   2.317
 6108TIP3    H218202   2.265   6.423   2.182
 6109TIP3   OH218203   2.198   6.436   1.782
 6109TIP3    H118204   2.244   6.474   1.705
 6109TIP3    H218205   2.138   6.510   1.803
 6110TIP3   OH218206   3.356   7.152   2.379
 6110TIP3    H118207   3.388   7.079   2.320
 6110TIP3    H218208   3.326   7.098   2.455
 6111TIP3   OH218209   3.023   6.616   2.050
 6111TIP3    H118210   2.941   6.611   2.103
 6111TIP3    H218211   3.092   6.610   2.118
 6112TIP3   OH218212   2.458   6.668   2.058
 6112TIP3    H118213   2.364   6.674   2.031
 6112TIP3    H218214   2.482   6.576   2.034
 6113TIP3   OH218215   2.728   6.665   1.746
 6113TIP3    H118216   2.822   6.679   1.725
 6113TIP3    H218217   2.682   6.688   1.662
 6114TIP3   OH218218   3.516   6.690   2.253
 6114TIP3    H118219   3.478   6.700   2.343
 6114TIP3    H218220   3.453   6.627   2.214
 6115TIP3   OH218221   2.567   6.698   1.524
 6115TIP3    H118222   2.495   6.654   1.476
 6115TIP3    H218223   2.620   6.734   1.450
 6116TIP3   OH218224   3.685   8.378   2.469
 6116TIP3    H118225   3.683   8.398   2.374
 6116TIP3    H218226   3.765   8.425   2.498
 6117TIP3   OH218227   2.643   7.485   2.894
 6117TIP3    H118228   2.722   7.518   2.941
 6117TIP3    H218229   2.577   7.488   2.966
 6118TIP3   OH218230   3.107   6.941   2.147
 6118TIP3    H118231   3.178   6.901   2.095
 6118TIP3    H218232   3.117   6.897   2.234
 6119TIP3   OH218233   2.630   6.429   2.024
 6119TIP3    H118234   2.597   6.349   2.070
 6119TIP3    H218235   2.684   6.391   1.954
 6120TIP3   OH218236   3.084   6.835   2.437
 6120TIP3    H118237   2.994   6.872   2.450
 6120TIP3    H218238   3.141   6.897   2.487
 6121TIP3   OH218239   2.820   7.229   1.531
 6121TIP3    H118240   2.748   7.163   1.520
 6121TIP3    H218241   2.802   7.262   1.623
 6122TIP3   OH218242   3.721   7.465   2.162
 6122TIP3    H118243   3.745   7.514   2.080
 6122TIP3    H218244   3.636   7.422   2.136
 6123TIP3   OH218245   3.278   6.541   1.392
 6123TIP3    H118246   3.182   6.525   1.401
 6123TIP3    H218247   3.288   6.635   1.417
 6124TIP3   OH218248   3.223   7.548   2.528
 6124TIP3    H118249   3.238   7.523   2.619
 6124TIP3    H218250   3.180   7.635   2.535
 6125TIP3   OH218251   3.348   6.788   1.497
 6125TIP3    H118252   3.445   6.793   1.512
 6125TIP3    H218253   3.331   6.868   1.443
 6126TIP3   OH218254   2.512   7.248   2.208
 6126TIP3    H118255   2.550   7.221   2.122
 6126TIP3    H218256   2.554   7.185   2.269
 6127TIP3   OH218257   2.965   7.378   1.351
 6127TIP3    H118258   2.918   7.464   1.358
 6127TIP3    H218259   2.911   7.323   1.412
 6128TIP3   OH218260   2.393   7.170   2.820
 6128TIP3    H118261   2.412   7.156   2.915
 6128TIP3    H218262   2.323   7.104   2.804
 6129TIP3   OH218263   3.117   7.284   2.841
 6129TIP3    H118264   3.058   7.227   2.790
 6129TIP3    H218265   3.205   7.250   2.813
 6130TIP3   OH218266   3.381   7.809   2.424
 6130TIP3    H118267   3.285   7.803   2.436
 6130TIP3    H218268   3.407   7.860   2.503
 6131TIP3   OH218269   3.790   6.878   1.334
 6131TIP3    H118270   3.728   6.833   1.272
 6131TIP3    H218271   3.788   6.966   1.292
 6132TIP3   OH218272   4.009   7.736   2.414
 6132TIP3    H118273   3.911   7.730   2.405
 6132TIP3    H218274   4.035   7.705   2.324
 6133TIP3   OH218275   3.488   7.697   1.240
 6133TIP3    H118276   3.466   7.625   1.301
 6133TIP3    H218277   3.503   7.651   1.156
 6134TIP3   OH218278   3.486   7.326   2.082
 6134TIP3    H118279   3.393   7.300   2.093
 6134TIP3    H218280   3.521   7.247   2.036
 6135TIP3   OH218281   2.613   7.553   1.831
 6135TIP3    H118282   2.613   7.635   1.778
 6135TIP3    H218283   2.518   7.539   1.844
 6136TIP3   OH218284   2.176   6.859   1.534
 6136TIP3    H118285   2.223   6.942   1.554
 6136TIP3    H218286   2.100   6.864   1.595
 6137TIP3   OH218287   2.753   7.320   1.777
 6137TIP3    H118288   2.717   7.409   1.794
 6137TIP3    H218289   2.716   7.270   1.852
 6138TIP3   OH218290   2.883   7.900   2.300
 6138TIP3    H118291   2.924   7.972   2.248
 6138TIP3    H218292   2.959   7.864   2.347
 6139TIP3   OH218293   2.533   7.792   1.685
 6139TIP3    H118294   2.447   7.800   1.731
 6139TIP3    H218295   2.564   7.885   1.687
 6140TIP3   OH218296   3.273   7.533   2.259
 6140TIP3    H118297   3.264   7.530   2.357
 6140TIP3    H218298   3.350   7.477   2.245
 6141TIP3   OH218299   3.244   7.424   1.143
 6141TIP3    H118300   3.298   7.400   1.222
 6141TIP3    H218301   3.156   7.398   1.173
 6142TIP3   OH218302   3.519   8.068   2.312
 6142TIP3    H118303   3.441   8.010   2.304
 6142TIP3    H218304   3.504   8.131   2.239
 6143TIP3   OH218305   3.585   7.899   0.963
 6143TIP3    H118306   3.626   7.971   0.911
 6143TIP3    H218307   3.505   7.947   0.994
 6144TIP3   OH218308   2.605   6.678   2.831
 6144TIP3    H118309   2.509   6.677   2.841
 6144TIP3    H218310   2.633   6.614   2.898
 6145TIP3   OH218311   3.405   7.360   1.361
 6145TIP3    H118312   3.395   7.293   1.431
 6145TIP3    H218313   3.502   7.357   1.347
 6146TIP3   OH218314   2.339   7.763   2.451
 6146TIP3    H118315   2.386   7.694   2.500
 6146TIP3    H218316   2.295   7.814   2.521
 6147TIP3   OH218317   2.611   7.406   1.142
 6147TIP3    H118318   2.626   7.314   1.113
 6147TIP3    H218319   2.593   7.393   1.237
 6148TIP3   OH218320   2.557   7.410   1.415
 6148TIP3    H118321   2.628   7.383   1.474
 6148TIP3    H218322   2.561   7.508   1.421
 6149TIP3   OH218323   2.292   7.104   1.618
 6149TIP3    H118324   2.227   7.149   1.675
 6149TIP3    H218325   2.307   7.173   1.551
 6150TIP3   OH218326   3.438   6.744   2.513
 6150TIP3    H118327   3.523   6.777   2.548
 6150TIP3    H218328   3.425   6.661   2.565
 6151TIP3   OH218329   3.319   6.493   1.674
 6151TIP3    H118330   3.308   6.516   1.580
 6151TIP3    H218331   3.360   6.575   1.710
 6152TIP3   OH218332   2.823   7.608   1.364
 6152TIP3    H118333   2.736   7.635   1.399
 6152TIP3    H218334   2.839   7.679   1.300
 6153TIP3   OH218335   3.010   6.671   1.777
 6153TIP3    H118336   3.076   6.742   1.759
 6153TIP3    H218337   3.016   6.664   1.875
 6154TIP3   OH218338   3.279   6.990   2.585
 6154TIP3    H118339   3.301   7.041   2.665
 6154TIP3    H218340   3.334   6.910   2.595
 6155TIP3   OH218341   3.156   6.400   1.880
 6155TIP3    H118342   3.151   6.476   1.940
 6155TIP3    H218343   3.216   6.435   1.810
 6156TIP3   OH218344   2.565   7.683   1.430
 6156TIP3    H118345   2.535   7.752   1.368
 6156TIP3    H218346   2.549   7.726   1.517
 6157TIP3   OH218347   2.666   6.396   1.669
 6157TIP3    H118348   2.665   6.487   1.705
 6157TIP3    H218349   2.762   6.377   1.677
 6158TIP3   OH218350   3.922   6.891   2.564
 6158TIP3    H118351   3.824   6.890   2.572
 6158TIP3    H218352   3.932   6.846   2.479
 6159TIP3   OH218353   3.571   7.086   1.954
 6159TIP3    H118354   3.496   7.025   1.965
 6159TIP3    H218355   3.643   7.038   2.001
 6160TIP3   OH218356   2.283   7.314   1.424
 6160TIP3    H118357   2.347   7.386   1.433
 6160TIP3    H218358   2.330   7.260   1.356
 6161TIP3   OH218359   2.229   6.589   1.558
 6161TIP3    H118360   2.229   6.687   1.552
 6161TIP3    H218361   2.146   6.567   1.514
 6162TIP3   OH218362   3.539   8.041   1.904
 6162TIP3    H118363   3.497   8.088   1.829
 6162TIP3    H218364   3.633   8.059   1.883
 6163TIP3   OH218365   2.614   6.309   2.432
 6163TIP3    H118366   2.585   6.275   2.345
 6163TIP3    H218367   2.605   6.230   2.489
 6164TIP3   OH218368   2.155   7.525   1.812
 6164TIP3    H118369   2.084   7.558   1.869
 6164TIP3    H218370   2.131   7.566   1.726
 6165TIP3   OH218371   2.307   8.069   2.883
 6165TIP3    H118372   2.394   8.055   2.926
 6165TIP3    H218373   2.277   7.977   2.871
 6166TIP3   OH218374   2.797   8.033   2.927
 6166TIP3    H118375   2.890   8.010   2.930
 6166TIP3    H218376   2.766   7.976   2.854
 6167TIP3   OH218377   2.775   7.609   1.056
 6167TIP3    H118378   2.719   7.538   1.094
 6167TIP3    H218379   2.850   7.557   1.024
 6168TIP3   OH218380   3.430   7.942   2.662
 6168TIP3    H118381   3.422   7.870   2.729
 6168TIP3    H218382   3.509   7.990   2.691
 6169TIP3   OH218383   3.211   7.650   0.966
 6169TIP3    H118384   3.256   7.587   1.025
 6169TIP3    H218385   3.267   7.650   0.887
 6170TIP3   OH218386   2.441   7.475   3.084
 6170TIP3    H118387   2.457   7.379   3.085
 6170TIP3    H218388   2.353   7.478   3.039
 6171TIP3   OH218389   2.419   7.127   1.275
 6171TIP3    H118390   2.474   7.093   1.348
 6171TIP3    H218391   2.486   7.131   1.204
 6172TIP3   OH218392   3.049   7.560   2.856
 6172TIP3    H118393   3.006   7.576   2.770
 6172TIP3    H218394   3.079   7.467   2.848
 6173TIP3   OH218395   2.927   7.324   1.082
 6173TIP3    H118396   2.931   7.337   1.179
 6173TIP3    H218397   2.927   7.226   1.077
 6174TIP3   OH218398   3.544   7.567   2.464
 6174TIP3    H118399   3.617   7.612   2.418
 6174TIP3    H218400   3.471   7.630   2.449
 6175TIP3   OH218401   2.560   7.206   3.066
 6175TIP3    H118402   2.638   7.156   3.041
 6175TIP3    H218403   2.586   7.241   3.154
 6176TIP3   OH218404   2.628   7.029   1.499
 6176TIP3    H118405   2.601   6.987   1.582
 6176TIP3    H218406   2.664   6.954   1.448
 6177TIP3   OH218407   2.897   7.095   2.728
 6177TIP3    H118408   2.818   7.154   2.729
 6177TIP3    H218409   2.945   7.128   2.649
 6178TIP3   OH218410   2.727   6.822   1.339
 6178TIP3    H118411   2.701   6.825   1.245
 6178TIP3    H218412   2.825   6.828   1.332
 6179TIP3   OH218413   3.415   7.497   2.862
 6179TIP3    H118414   3.491   7.471   2.808
 6179TIP3    H218415   3.411   7.426   2.929
 6180TIP3   OH218416   3.549   7.154   1.001
 6180TIP3    H118417   3.529   7.108   0.918
 6180TIP3    H218418   3.518   7.245   0.977
 6181TIP3   OH218419   3.019   6.882   2.854
 6181TIP3    H118420   3.020   6.801   2.798
 6181TIP3    H218421   2.976   6.947   2.795
 6182TIP3   OH218422   3.021   6.670   2.661
 6182TIP3    H118423   3.050   6.709   2.576
 6182TIP3    H218424   2.928   6.645   2.641
 6183TIP3   OH218425   3.051   7.206   2.535
 6183TIP3    H118426   3.132   7.211   2.483
 6183TIP3    H218427   2.994   7.272   2.489
 6184TIP3   OH218428   3.634   7.172   2.917
 6184TIP3    H118429   3.679   7.086   2.921
 6184TIP3    H218430   3.703   7.227   2.877
 6185TIP3   OH218431   3.673   7.426   2.654
 6185TIP3    H118432   3.615   7.478   2.593
 6185TIP3    H218433   3.760   7.444   2.613
 6186TIP3   OH218434   2.897   6.995   3.084
 6186TIP3    H118435   2.828   6.926   3.096
 6186TIP3    H218436   2.932   6.972   2.996
 6187TIP3   OH218437   3.155   6.433   2.726
 6187TIP3    H118438   3.104   6.514   2.704
 6187TIP3    H218439   3.086   6.364   2.714
 6188TIP3   OH218440   3.279   6.938   2.943
 6188TIP3    H118441   3.267   6.924   3.038
 6188TIP3    H218442   3.190   6.912   2.912
 6189TIP3   OH218443   3.521   6.892   2.800
 6189TIP3    H118444   3.445   6.887   2.860
 6189TIP3    H218445   3.594   6.856   2.855
 6190TIP3   OH218446   3.750   6.827   2.950
 6190TIP3    H118447   3.763   6.731   2.966
 6190TIP3    H218448   3.747   6.864   3.041
 6191TIP3   OH218449   2.735   6.775   3.136
 6191TIP3    H118450   2.741   6.685   3.099
 6191TIP3    H218451   2.772   6.761   3.225
 6192TIP3   OH218452   3.249   6.443   2.984
 6192TIP3    H118453   3.316   6.372   2.980
 6192TIP3    H218454   3.210   6.436   2.894
 6193TIP3   OH218455   3.315   6.657   3.142
 6193TIP3    H118456   3.294   6.585   3.078
 6193TIP3    H218457   3.237   6.715   3.134
 6194TIP3   OH218458   2.535   7.886   1.244
 6194TIP3    H118459   2.630   7.882   1.224
 6194TIP3    H218460   2.503   7.934   1.165
 6195TIP3   OH218461   2.015   7.267   1.461
 6195TIP3    H118462   2.110   7.289   1.447
 6195TIP3    H218463   2.010   7.178   1.418
 6196TIP3   OH218464   1.929   7.881   1.872
 6196TIP3    H118465   1.862   7.818   1.838
 6196TIP3    H218466   1.974   7.825   1.940
 6197TIP3   OH218467   2.065   7.736   2.061
 6197TIP3    H118468   2.056   7.663   2.124
 6197TIP3    H218469   2.115   7.800   2.116
 6198TIP3   OH218470   3.791   8.134   1.859
 6198TIP3    H118471   3.822   8.168   1.945
 6198TIP3    H218472   3.854   8.172   1.797
 6199TIP3   OH218473   3.822   8.154   2.144
 6199TIP3    H118474   3.778   8.066   2.136
 6199TIP3    H218475   3.899   8.128   2.196
 6200TIP3   OH218476   3.869   7.829   2.715
 6200TIP3    H118477   3.795   7.837   2.778
 6200TIP3    H218478   3.909   7.918   2.719
 6201TIP3   OH218479   3.683   7.342   1.335
 6201TIP3    H118480   3.752   7.405   1.305
 6201TIP3    H218481   3.727   7.303   1.414
 6202TIP3   OH218482   3.812   7.210   1.538
 6202TIP3    H118483   3.746   7.167   1.597
 6202TIP3    H218484   3.877   7.247   1.601
 6203TIP3   OH218485   3.866   7.600   1.971
 6203TIP3    H118486   3.919   7.535   1.920
 6203TIP3    H218487   3.859   7.674   1.908
 6204TIP3   OH218488   3.698   7.902   2.166
 6204TIP3    H118489   3.626   7.942   2.217
 6204TIP3    H218490   3.650   7.853   2.096
 6205TIP3   OH218491   3.750   7.116   1.186
 6205TIP3    H118492   3.679   7.119   1.118
 6205TIP3    H218493   3.723   7.193   1.241
 6206TIP3   OH218494   3.620   6.790   1.141
 6206TIP3    H118495   3.581   6.829   1.063
 6206TIP3    H218496   3.595   6.695   1.131
 6207TIP3   OH218497   3.626   7.065   1.685
 6207TIP3    H118498   3.635   6.968   1.679
 6207TIP3    H218499   3.613   7.078   1.782
 6208TIP3   OH218500   2.253   7.134   2.433
 6208TIP3    H118501   2.251   7.107   2.339
 6208TIP3    H218502   2.350   7.138   2.448
 6209TIP3   OH218503   3.915   7.490   2.543
 6209TIP3    H118504   3.988   7.424   2.534
 6209TIP3    H218505   3.941   7.557   2.478
 6210TIP3   OH218506   4.101   7.296   2.563
 6210TIP3    H118507   4.026   7.245   2.600
 6210TIP3    H218508   4.173   7.231   2.576
 6211TIP3   OH218509   3.565   6.524   1.126
 6211TIP3    H118510   3.641   6.494   1.179
 6211TIP3    H218511   3.493   6.464   1.152
 6212TIP3   OH218512   3.622   6.781   1.580
 6212TIP3    H118513   3.663   6.692   1.596
 6212TIP3    H218514   3.681   6.814   1.510
 6213TIP3   OH218515   3.785   6.957   2.075
 6213TIP3    H118516   3.871   6.983   2.034
 6213TIP3    H218517   3.799   6.992   2.165
 6214TIP3   OH218518   3.854   7.100   2.308
 6214TIP3    H118519   3.774   7.134   2.354
 6214TIP3    H218520   3.886   7.180   2.262
 6215TIP3   OH218521   2.465   6.817   3.108
 6215TIP3    H118522   2.563   6.814   3.106
 6215TIP3    H218523   2.445   6.736   3.157
 6216TIP3   OH218524   4.305   6.691   2.864
 6216TIP3    H118525   4.364   6.624   2.822
 6216TIP3    H218526   4.277   6.745   2.786
 6217TIP3   OH218527   3.730   6.531   1.618
 6217TIP3    H118528   3.780   6.515   1.701
 6217TIP3    H218529   3.671   6.453   1.617
 6218TIP3   OH218530   2.431   6.518   2.440
 6218TIP3    H118531   2.492   6.442   2.447
 6218TIP3    H218532   2.493   6.592   2.431
 6219TIP3   OH218533   2.235   6.792   2.511
 6219TIP3    H118534   2.284   6.783   2.427
 6219TIP3    H218535   2.262   6.880   2.539
 6220TIP3   OH218536   4.176   6.831   2.668
 6220TIP3    H118537   4.087   6.869   2.685
 6220TIP3    H218538   4.151   6.757   2.609
 6221TIP3   OH218539   3.813   6.467   1.249
 6221TIP3    H118540   3.854   6.394   1.198
 6221TIP3    H218541   3.881   6.537   1.243
 6222TIP3   OH218542   2.217   6.297   2.012
 6222TIP3    H118543   2.123   6.293   2.037
 6222TIP3    H218544   2.216   6.354   1.933
 6223TIP3   OH218545   3.377   7.999   1.517
 6223TIP3    H118546   3.425   7.982   1.434
 6223TIP3    H218547   3.434   8.064   1.560
 6224TIP3   OH218548   2.437   6.380   2.831
 6224TIP3    H118549   2.384   6.370   2.911
 6224TIP3    H218550   2.371   6.412   2.767
 6225TIP3   OH218551   2.483   7.801   2.907
 6225TIP3    H118552   2.390   7.780   2.887
 6225TIP3    H218553   2.486   7.783   3.001
 6226TIP3   OH218554   2.663   7.830   2.456
 6226TIP3    H118555   2.598   7.892   2.418
 6226TIP3    H218556   2.742   7.857   2.405
 6227TIP3   OH218557   3.102   8.079   2.589
 6227TIP3    H118558   3.145   8.081   2.678
 6227TIP3    H218559   3.167   8.129   2.536
 6228TIP3   OH218560   3.279   8.230   2.446
 6228TIP3    H118561   3.349   8.179   2.402
 6228TIP3    H218562   3.333   8.286   2.506
 6229TIP3   OH218563   4.074   6.591   2.547
 6229TIP3    H118564   3.983   6.583   2.514
 6229TIP3    H218565   4.106   6.499   2.536
 6230TIP3   OH218566   2.338   8.104   2.468
 6230TIP3    H118567   2.249   8.134   2.441
 6230TIP3    H218568   2.321   8.084   2.560
 6231TIP3   OH218569   2.573   8.074   2.330
 6231TIP3    H118570   2.488   8.086   2.378
 6231TIP3    H218571   2.549   8.102   2.240
 6232TIP3   OH218572   2.996   8.100   2.128
 6232TIP3    H118573   2.925   8.117   2.063
 6232TIP3    H218574   3.006   8.188   2.169
 6233TIP3   OH218575   3.263   8.040   2.182
 6233TIP3    H118576   3.169   8.055   2.161
 6233TIP3    H218577   3.306   8.113   2.136
 6234TIP3   OH218578   3.473   8.232   2.096
 6234TIP3    H118579   3.457   8.316   2.047
 6234TIP3    H218580   3.498   8.171   2.023
 6235TIP3   OH218581   2.246   7.886   2.211
 6235TIP3    H118582   2.262   7.866   2.306
 6235TIP3    H218583   2.320   7.837   2.170
 6236TIP3   OH218584   2.439   7.753   2.072
 6236TIP3    H118585   2.454   7.670   2.124
 6236TIP3    H218586   2.529   7.791   2.070
 6237TIP3   OH218587   2.705   7.853   2.076
 6237TIP3    H118588   2.735   7.761   2.064
 6237TIP3    H218589   2.746   7.873   2.162
 6238TIP3   OH218590   3.277   6.507   2.163
 6238TIP3    H118591   3.235   6.437   2.217
 6238TIP3    H218592   3.350   6.459   2.120
 6239TIP3   OH218593   3.803   6.391   2.073
 6239TIP3    H118594   3.839   6.440   1.996
 6239TIP3    H218595   3.707   6.405   2.063
 6240TIP3   OH218596   3.897   6.489   1.835
 6240TIP3    H118597   3.970   6.437   1.795
 6240TIP3    H218598   3.931   6.580   1.819
 6241TIP3   OH218599   2.528   6.216   2.183
 6241TIP3    H118600   2.436   6.183   2.184
 6241TIP3    H218601   2.577   6.131   2.180
 6242TIP3   OH218602   2.310   6.086   1.828
 6242TIP3    H118603   2.344   6.143   1.757
 6242TIP3    H218604   2.285   6.151   1.896
 6243TIP3   OH218605   2.969   6.252   2.062
 6243TIP3    H118606   3.029   6.299   2.003
 6243TIP3    H218607   2.996   6.285   2.149
 6244TIP3   OH218608   3.519   6.395   2.046
 6244TIP3    H118609   3.518   6.357   1.958
 6244TIP3    H218610   3.506   6.315   2.102
 6245TIP3   OH218611   3.548   6.317   1.608
 6245TIP3    H118612   3.460   6.358   1.619
 6245TIP3    H218613   3.535   6.232   1.656
 6246TIP3   OH218614   2.031   7.655   1.610
 6246TIP3    H118615   1.946   7.622   1.576
 6246TIP3    H218616   2.022   7.749   1.590
 6247TIP3   OH218617   2.431   6.247   1.592
 6247TIP3    H118618   2.480   6.183   1.537
 6247TIP3    H218619   2.504   6.300   1.629
 6248TIP3   OH218620   2.943   6.421   1.692
 6248TIP3    H118621   3.003   6.373   1.752
 6248TIP3    H218622   2.966   6.513   1.717
 6249TIP3   OH218623   2.803   7.847   1.191
 6249TIP3    H118624   2.892   7.868   1.156
 6249TIP3    H218625   2.781   7.771   1.132
 6250TIP3   OH218626   3.520   7.963   1.285
 6250TIP3    H118627   3.513   7.865   1.272
 6250TIP3    H218628   3.478   7.995   1.203
 6251TIP3   OH218629   2.733   6.500   3.077
 6251TIP3    H118630   2.698   6.427   3.131
 6251TIP3    H218631   2.828   6.496   3.101
 6252TIP3   OH218632   2.985   6.496   3.194
 6252TIP3    H118633   3.068   6.470   3.150
 6252TIP3    H218634   2.975   6.424   3.260
 6253TIP3   OH218635   2.109   7.684   1.250
 6253TIP3    H118636   2.107   7.709   1.343
 6253TIP3    H218637   2.197   7.642   1.239
 6254TIP3   OH218638   3.810   6.557   2.980
 6254TIP3    H118639   3.829   6.523   3.071
 6254TIP3    H218640   3.898   6.550   2.937
 6255TIP3   OH218641   3.748   8.108   2.475
 6255TIP3    H118642   3.670   8.076   2.424
 6255TIP3    H218643   3.728   8.204   2.475
 6256TIP3   OH218644   5.014   7.480   1.240
 6256TIP3    H118645   4.986   7.572   1.218
 6256TIP3    H218646   4.939   7.430   1.203
 6257TIP3   OH218647   5.014   7.482   1.619
 6257TIP3    H118648   5.044   7.447   1.704
 6257TIP3    H218649   4.973   7.404   1.578
 6258TIP3   OH218650   4.313   7.378   1.987
 6258TIP3    H118651   4.346   7.309   2.048
 6258TIP3    H218652   4.394   7.429   1.971
 6259TIP3   OH218653   5.256   7.782   1.299
 6259TIP3    H118654   5.243   7.712   1.364
 6259TIP3    H218655   5.286   7.856   1.354
 6260TIP3   OH218656   4.285   7.785   1.713
 6260TIP3    H118657   4.277   7.687   1.714
 6260TIP3    H218658   4.381   7.794   1.701
 6261TIP3   OH218659   3.991   6.989   1.496
 6261TIP3    H118660   3.942   7.072   1.508
 6261TIP3    H218661   3.921   6.934   1.457
 6262TIP3   OH218662   4.051   7.276   1.666
 6262TIP3    H118663   4.100   7.199   1.702
 6262TIP3    H218664   4.109   7.303   1.593
 6263TIP3   OH218665   4.906   8.244   1.317
 6263TIP3    H118666   4.951   8.174   1.266
 6263TIP3    H218667   4.901   8.203   1.404
 6264TIP3   OH218668   4.812   7.706   1.669
 6264TIP3    H118669   4.849   7.630   1.620
 6264TIP3    H218670   4.897   7.750   1.691
 6265TIP3   OH218671   5.826   7.026   1.665
 6265TIP3    H118672   5.855   7.110   1.706
 6265TIP3    H218673   5.847   7.042   1.571
 6266TIP3   OH218674   5.224   7.208   1.701
 6266TIP3    H118675   5.267   7.122   1.720
 6266TIP3    H218676   5.194   7.194   1.610
 6267TIP3   OH218677   4.562   6.867   1.666
 6267TIP3    H118678   4.542   6.939   1.603
 6267TIP3    H218679   4.515   6.793   1.621
 6268TIP3   OH218680   5.256   6.960   1.289
 6268TIP3    H118681   5.330   6.943   1.352
 6268TIP3    H218682   5.306   6.993   1.212
 6269TIP3   OH218683   4.196   7.069   1.772
 6269TIP3    H118684   4.279   7.049   1.819
 6269TIP3    H218685   4.208   7.013   1.692
 6270TIP3   OH218686   4.636   7.267   1.568
 6270TIP3    H118687   4.731   7.242   1.578
 6270TIP3    H218688   4.598   7.183   1.533
 6271TIP3   OH218689   5.900   7.234   1.835
 6271TIP3    H118690   5.818   7.281   1.813
 6271TIP3    H218691   5.909   7.258   1.929
 6272TIP3   OH218692   4.560   6.851   2.100
 6272TIP3    H118693   4.499   6.887   2.032
 6272TIP3    H218694   4.508   6.869   2.181
 6273TIP3   OH218695   4.907   7.701   1.109
 6273TIP3    H118696   4.865   7.681   1.024
 6273TIP3    H218697   4.862   7.785   1.133
 6274TIP3   OH218698   4.667   7.625   1.896
 6274TIP3    H118699   4.604   7.691   1.933
 6274TIP3    H218700   4.708   7.675   1.822
 6275TIP3   OH218701   5.468   6.960   1.459
 6275TIP3    H118702   5.462   6.908   1.540
 6275TIP3    H218703   5.523   7.035   1.486
 6276TIP3   OH218704   4.430   6.965   1.884
 6276TIP3    H118705   4.493   7.037   1.907
 6276TIP3    H218706   4.478   6.924   1.808
 6277TIP3   OH218707   4.494   7.819   1.994
 6277TIP3    H118708   4.468   7.903   1.952
 6277TIP3    H218709   4.414   7.804   2.050
 6278TIP3   OH218710   3.888   7.509   1.229
 6278TIP3    H118711   3.849   7.535   1.143
 6278TIP3    H218712   3.919   7.594   1.264
 6279TIP3   OH218713   5.329   8.025   1.471
 6279TIP3    H118714   5.238   8.017   1.509
 6279TIP3    H218715   5.321   8.110   1.423
 6280TIP3   OH218716   5.618   6.928   1.832
 6280TIP3    H118717   5.530   6.954   1.800
 6280TIP3    H218718   5.677   6.958   1.760
 6281TIP3   OH218719   4.917   6.570   1.814
 6281TIP3    H118720   4.903   6.474   1.830
 6281TIP3    H218721   4.839   6.607   1.860
 6282TIP3   OH218722   5.030   8.072   1.142
 6282TIP3    H118723   5.079   7.989   1.122
 6282TIP3    H218724   5.093   8.137   1.102
 6283TIP3   OH218725   5.173   7.857   1.047
 6283TIP3    H118726   5.135   7.778   1.007
 6283TIP3    H218727   5.208   7.822   1.131
 6284TIP3   OH218728   5.555   7.938   1.813
 6284TIP3    H118729   5.544   7.861   1.753
 6284TIP3    H218730   5.537   8.013   1.752
 6285TIP3   OH218731   4.846   7.334   1.070
 6285TIP3    H118732   4.766   7.384   1.046
 6285TIP3    H218733   4.892   7.327   0.985
 6286TIP3   OH218734   4.802   7.118   0.787
 6286TIP3    H118735   4.872   7.167   0.834
 6286TIP3    H218736   4.857   7.051   0.740
 6287TIP3   OH218737   5.750   7.576   1.658
 6287TIP3    H118738   5.666   7.628   1.661
 6287TIP3    H218739   5.780   7.598   1.567
 6288TIP3   OH218740   5.193   7.415   1.042
 6288TIP3    H118741   5.139   7.440   1.121
 6288TIP3    H218742   5.277   7.389   1.085
 6289TIP3   OH218743   5.428   7.454   1.952
 6289TIP3    H118744   5.424   7.540   1.998
 6289TIP3    H218745   5.342   7.456   1.906
 6290TIP3   OH218746   4.424   7.413   1.459
 6290TIP3    H118747   4.381   7.356   1.392
 6290TIP3    H218748   4.501   7.359   1.486
 6291TIP3   OH218749   4.552   7.820   1.608
 6291TIP3    H118750   4.532   7.783   1.521
 6291TIP3    H218751   4.643   7.787   1.624
 6292TIP3   OH218752   4.560   7.383   1.814
 6292TIP3    H118753   4.592   7.360   1.724
 6292TIP3    H218754   4.605   7.469   1.831
 6293TIP3   OH218755   5.086   8.022   1.589
 6293TIP3    H118756   5.073   8.101   1.644
 6293TIP3    H218757   5.072   7.948   1.651
 6294TIP3   OH218758   4.699   7.941   2.137
 6294TIP3    H118759   4.637   8.003   2.182
 6294TIP3    H218760   4.635   7.887   2.087
 6295TIP3   OH218761   5.031   7.272   0.871
 6295TIP3    H118762   5.092   7.332   0.920
 6295TIP3    H218763   5.054   7.296   0.777
 6296TIP3   OH218764   4.455   7.496   2.239
 6296TIP3    H118765   4.457   7.584   2.283
 6296TIP3    H218766   4.359   7.477   2.243
 6297TIP3   OH218767   4.774   7.954   1.150
 6297TIP3    H118768   4.854   8.009   1.160
 6297TIP3    H218769   4.716   8.009   1.097
 6298TIP3   OH218770   4.494   8.111   2.223
 6298TIP3    H118771   4.460   8.109   2.131
 6298TIP3    H218772   4.413   8.088   2.274
 6299TIP3   OH218773   5.551   6.513   0.916
 6299TIP3    H118774   5.468   6.534   0.964
 6299TIP3    H218775   5.564   6.595   0.863
 6300TIP3   OH218776   4.288   7.256   1.268
 6300TIP3    H118777   4.226   7.300   1.207
 6300TIP3    H218778   4.252   7.167   1.272
 6301TIP3   OH218779   4.072   7.640   2.169
 6301TIP3    H118780   4.008   7.617   2.099
 6301TIP3    H218781   4.109   7.552   2.194
 6302TIP3   OH218782   3.927   7.830   1.805
 6302TIP3    H118783   4.022   7.823   1.791
 6302TIP3    H218784   3.921   7.912   1.857
 6303TIP3   OH218785   5.792   8.284   1.859
 6303TIP3    H118786   5.790   8.187   1.868
 6303TIP3    H218787   5.707   8.307   1.903
 6304TIP3   OH218788   4.899   8.068   1.994
 6304TIP3    H118789   4.897   8.161   2.025
 6304TIP3    H218790   4.826   8.030   2.047
 6305TIP3   OH218791   4.656   8.196   0.943
 6305TIP3    H118792   4.614   8.177   0.857
 6305TIP3    H218793   4.627   8.287   0.963
 6306TIP3   OH218794   4.094   8.048   1.329
 6306TIP3    H118795   4.143   8.038   1.413
 6306TIP3    H218796   4.039   7.968   1.331
 6307TIP3   OH218797   4.852   8.090   0.604
 6307TIP3    H118798   4.918   8.040   0.556
 6307TIP3    H218799   4.893   8.101   0.692
 6308TIP3   OH218800   4.912   8.147   0.866
 6308TIP3    H118801   4.820   8.154   0.901
 6308TIP3    H218802   4.957   8.103   0.940
 6309TIP3   OH218803   5.680   7.414   2.132
 6309TIP3    H118804   5.601   7.428   2.078
 6309TIP3    H218805   5.696   7.319   2.120
 6310TIP3   OH218806   4.277   7.823   2.161
 6310TIP3    H118807   4.328   7.803   2.242
 6310TIP3    H218808   4.203   7.758   2.166
 6311TIP3   OH218809   4.677   6.645   1.941
 6311TIP3    H118810   4.588   6.614   1.915
 6311TIP3    H218811   4.652   6.728   1.986
 6312TIP3   OH218812   5.210   6.762   2.137
 6312TIP3    H118813   5.278   6.732   2.201
 6312TIP3    H218814   5.126   6.740   2.182
 6313TIP3   OH218815   5.452   7.190   2.056
 6313TIP3    H118816   5.401   7.187   2.140
 6313TIP3    H218817   5.426   7.276   2.018
 6314TIP3   OH218818   5.097   7.321   0.615
 6314TIP3    H118819   5.072   7.285   0.528
 6314TIP3    H218820   5.183   7.362   0.594
 6315TIP3   OH218821   4.823   6.706   0.907
 6315TIP3    H118822   4.778   6.679   0.989
 6315TIP3    H218823   4.815   6.625   0.851
 6316TIP3   OH218824   4.609   7.161   1.961
 6316TIP3    H118825   4.557   7.182   2.042
 6316TIP3    H218826   4.593   7.241   1.907
 6317TIP3   OH218827   4.493   7.047   1.475
 6317TIP3    H118828   4.400   7.021   1.491
 6317TIP3    H218829   4.507   7.008   1.386
 6318TIP3   OH218830   4.983   7.133   1.203
 6318TIP3    H118831   4.930   7.204   1.160
 6318TIP3    H218832   5.038   7.102   1.129
 6319TIP3   OH218833   5.158   7.414   2.292
 6319TIP3    H118834   5.135   7.339   2.352
 6319TIP3    H218835   5.253   7.423   2.310
 6320TIP3   OH218836   5.140   7.163   1.442
 6320TIP3    H118837   5.081   7.191   1.369
 6320TIP3    H218838   5.174   7.081   1.399
 6321TIP3   OH218839   4.428   7.190   2.170
 6321TIP3    H118840   4.456   7.253   2.238
 6321TIP3    H218841   4.416   7.108   2.220
 6322TIP3   OH218842   4.489   6.676   0.884
 6322TIP3    H118843   4.479   6.660   0.979
 6322TIP3    H218844   4.403   6.714   0.861
 6323TIP3   OH218845   4.021   6.713   1.751
 6323TIP3    H118846   4.098   6.744   1.803
 6323TIP3    H218847   4.060   6.680   1.669
 6324TIP3   OH218848   3.994   6.692   1.271
 6324TIP3    H118849   4.040   6.730   1.192
 6324TIP3    H218850   3.934   6.766   1.291
 6325TIP3   OH218851   5.154   7.408   1.866
 6325TIP3    H118852   5.185   7.336   1.807
 6325TIP3    H218853   5.122   7.354   1.942
 6326TIP3   OH218854   4.821   6.870   1.537
 6326TIP3    H118855   4.737   6.867   1.589
 6326TIP3    H218856   4.888   6.869   1.608
 6327TIP3   OH218857   4.254   6.924   1.546
 6327TIP3    H118858   4.160   6.931   1.518
 6327TIP3    H218859   4.278   6.833   1.521
 6328TIP3   OH218860   4.524   6.924   1.232
 6328TIP3    H118861   4.618   6.934   1.210
 6328TIP3    H218862   4.478   6.945   1.147
 6329TIP3   OH218863   5.312   6.945   1.741
 6329TIP3    H118864   5.274   6.957   1.830
 6329TIP3    H218865   5.248   6.883   1.701
 6330TIP3   OH218866   4.361   6.956   1.011
 6330TIP3    H118867   4.292   6.910   0.960
 6330TIP3    H218868   4.417   6.991   0.939
 6331TIP3   OH218869   5.481   8.634   1.956
 6331TIP3    H118870   5.477   8.654   1.860
 6331TIP3    H218871   5.559   8.684   1.984
 6332TIP3   OH218872   4.438   7.744   2.379
 6332TIP3    H118873   4.518   7.774   2.426
 6332TIP3    H218874   4.374   7.743   2.453
 6333TIP3   OH218875   4.903   7.197   1.634
 6333TIP3    H118876   4.974   7.158   1.580
 6333TIP3    H218877   4.915   7.153   1.720
 6334TIP3   OH218878   4.428   6.686   1.511
 6334TIP3    H118879   4.395   6.605   1.555
 6334TIP3    H218880   4.475   6.650   1.434
 6335TIP3   OH218881   4.880   7.091   1.926
 6335TIP3    H118882   4.790   7.128   1.937
 6335TIP3    H218883   4.937   7.153   1.974
 6336TIP3   OH218884   4.616   7.486   1.018
 6336TIP3    H118885   4.543   7.420   1.007
 6336TIP3    H218886   4.598   7.519   1.110
 6337TIP3   OH218887   5.517   7.721   1.649
 6337TIP3    H118888   5.542   7.770   1.567
 6337TIP3    H218889   5.432   7.679   1.623
 6338TIP3   OH218890   5.075   6.798   0.881
 6338TIP3    H118891   4.978   6.781   0.886
 6338TIP3    H218892   5.082   6.893   0.902
 6339TIP3   OH218893   5.018   7.803   2.015
 6339TIP3    H118894   5.035   7.780   2.107
 6339TIP3    H218895   4.978   7.892   2.021
 6340TIP3   OH218896   5.144   7.046   0.988
 6340TIP3    H118897   5.241   7.050   0.998
 6340TIP3    H218898   5.125   7.123   0.932
 6341TIP3   OH218899   4.308   7.507   1.695
 6341TIP3    H118900   4.345   7.480   1.608
 6341TIP3    H218901   4.349   7.442   1.754
 6342TIP3   OH218902   4.763   7.635   0.840
 6342TIP3    H118903   4.718   7.723   0.848
 6342TIP3    H218904   4.707   7.581   0.899
 6343TIP3   OH218905   4.187   7.429   2.308
 6343TIP3    H118906   4.208   7.412   2.402
 6343TIP3    H218907   4.120   7.361   2.290
 6344TIP3   OH218908   4.913   7.541   2.328
 6344TIP3    H118909   4.854   7.483   2.277
 6344TIP3    H218910   5.001   7.507   2.299
 6345TIP3   OH218911   5.178   8.063   1.912
 6345TIP3    H118912   5.081   8.060   1.922
 6345TIP3    H218913   5.203   8.117   1.990
 6346TIP3   OH218914   5.585   7.131   0.822
 6346TIP3    H118915   5.525   7.089   0.757
 6346TIP3    H218916   5.583   7.221   0.783
 6347TIP3   OH218917   5.805   7.993   1.900
 6347TIP3    H118918   5.708   7.987   1.892
 6347TIP3    H218919   5.832   7.962   1.811
 6348TIP3   OH218920   5.292   7.950   0.720
 6348TIP3    H118921   5.259   7.894   0.793
 6348TIP3    H218922   5.297   7.888   0.647
 6349TIP3   OH218923   5.282   7.582   1.570
 6349TIP3    H118924   5.189   7.557   1.580
 6349TIP3    H218925   5.317   7.503   1.523
 6350TIP3   OH218926   4.410   7.812   1.324
 6350TIP3    H118927   4.414   7.891   1.267
 6350TIP3    H218928   4.315   7.793   1.323
 6351TIP3   OH218929   3.972   7.115   1.020
 6351TIP3    H118930   4.019   7.198   1.041
 6351TIP3    H218931   3.896   7.121   1.082
 6352TIP3   OH218932   4.549   7.577   1.265
 6352TIP3    H118933   4.515   7.667   1.283
 6352TIP3    H218934   4.511   7.527   1.340
 6353TIP3   OH218935   4.678   8.155   1.789
 6353TIP3    H118936   4.717   8.227   1.736
 6353TIP3    H218937   4.756   8.120   1.834
 6354TIP3   OH218938   4.330   8.049   1.174
 6354TIP3    H118939   4.244   8.059   1.217
 6354TIP3    H218940   4.363   8.142   1.174
 6355TIP3   OH218941   5.068   7.789   1.746
 6355TIP3    H118942   5.061   7.785   1.844
 6355TIP3    H218943   5.146   7.734   1.730
 6356TIP3   OH218944   5.017   7.682   0.651
 6356TIP3    H118945   5.074   7.654   0.726
 6356TIP3    H218946   4.929   7.654   0.682
 6357TIP3   OH218947   5.315   8.325   1.799
 6357TIP3    H118948   5.237   8.268   1.789
 6357TIP3    H218949   5.301   8.389   1.725
 6358TIP3   OH218950   4.401   6.935   2.317
 6358TIP3    H118951   4.304   6.936   2.328
 6358TIP3    H218952   4.427   6.871   2.385
 6359TIP3   OH218953   5.199   7.617   0.850
 6359TIP3    H118954   5.190   7.548   0.919
 6359TIP3    H218955   5.296   7.613   0.835
 6360TIP3   OH218956   4.115   8.019   1.949
 6360TIP3    H118957   4.167   7.941   1.975
 6360TIP3    H218958   4.151   8.085   2.009
 6361TIP3   OH218959   4.404   7.662   0.629
 6361TIP3    H118960   4.422   7.571   0.598
 6361TIP3    H218961   4.385   7.646   0.724
 6362TIP3   OH218962   4.352   7.666   0.906
 6362TIP3    H118963   4.429   7.642   0.959
 6362TIP3    H218964   4.357   7.764   0.908
 6363TIP3   OH218965   4.089   7.360   1.104
 6363TIP3    H118966   4.024   7.406   1.160
 6363TIP3    H218967   4.106   7.428   1.037
 6364TIP3   OH218968   5.234   7.001   2.000
 6364TIP3    H118969   5.319   7.033   2.035
 6364TIP3    H218970   5.221   6.918   2.052
 6365TIP3   OH218971   5.113   6.749   1.161
 6365TIP3    H118972   5.099   6.769   1.066
 6365TIP3    H218973   5.153   6.833   1.193
 6366TIP3   OH218974   4.623   7.865   0.861
 6366TIP3    H118975   4.536   7.900   0.887
 6366TIP3    H218976   4.628   7.894   0.768
 6367TIP3   OH218977   4.807   6.926   1.263
 6367TIP3    H118978   4.872   6.997   1.244
 6367TIP3    H218979   4.813   6.921   1.361
 6368TIP3   OH218980   5.075   7.247   2.072
 6368TIP3    H118981   5.097   7.298   2.152
 6368TIP3    H218982   5.130   7.167   2.082
 6369TIP3   OH218983   4.953   6.656   1.368
 6369TIP3    H118984   4.942   6.736   1.423
 6369TIP3    H218985   5.012   6.691   1.297
 6370TIP3   OH218986   4.361   7.940   0.915
 6370TIP3    H118987   4.332   8.009   0.852
 6370TIP3    H218988   4.347   7.985   1.001
 6371TIP3   OH218989   4.461   6.650   1.161
 6371TIP3    H118990   4.459   6.743   1.191
 6371TIP3    H218991   4.557   6.632   1.167
 6372TIP3   OH218992   5.719   7.147   2.051
 6372TIP3    H118993   5.621   7.146   2.060
 6372TIP3    H218994   5.728   7.105   1.965
 6373TIP3   OH218995   5.367   7.342   1.442
 6373TIP3    H118996   5.292   7.281   1.451
 6373TIP3    H218997   5.439   7.293   1.488
 6374TIP3   OH218998   4.079   7.570   0.910
 6374TIP3    H118999   4.146   7.641   0.918
 6374TIP3    H219000   4.124   7.515   0.842
 6375TIP3   OH219001   4.023   6.845   1.047
 6375TIP3    H119002   4.026   6.942   1.039
 6375TIP3    H219003   3.942   6.824   0.998
 6376TIP3   OH219004   5.335   8.297   1.392
 6376TIP3    H119005   5.292   8.344   1.317
 6376TIP3    H219006   5.429   8.316   1.370
 6377TIP3   OH219007   4.411   6.566   1.918
 6377TIP3    H119008   4.381   6.533   1.831
 6377TIP3    H219009   4.402   6.487   1.975
 6378TIP3   OH219010   3.954   7.786   1.301
 6378TIP3    H119011   3.876   7.817   1.350
 6378TIP3    H219012   3.934   7.823   1.212
 6379TIP3   OH219013   4.106   8.324   2.372
 6379TIP3    H119014   4.194   8.322   2.416
 6379TIP3    H219015   4.086   8.229   2.367
 6380TIP3   OH219016   4.590   8.290   2.416
 6380TIP3    H119017   4.685   8.270   2.419
 6380TIP3    H219018   4.563   8.233   2.340
 6381TIP3   OH219019   4.586   7.863   0.576
 6381TIP3    H119020   4.520   7.792   0.587
 6381TIP3    H219021   4.622   7.840   0.489
 6382TIP3   OH219022   5.224   8.199   2.150
 6382TIP3    H119023   5.218   8.127   2.216
 6382TIP3    H219024   5.305   8.247   2.178
 6383TIP3   OH219025   4.238   7.731   2.571
 6383TIP3    H119026   4.255   7.635   2.573
 6383TIP3    H219027   4.151   7.734   2.525
 6384TIP3   OH219028   4.214   7.383   0.761
 6384TIP3    H119029   4.271   7.349   0.832
 6384TIP3    H219030   4.282   7.392   0.690
 6385TIP3   OH219031   4.845   7.816   2.343
 6385TIP3    H119032   4.804   7.832   2.256
 6385TIP3    H219033   4.876   7.723   2.335
 6386TIP3   OH219034   4.724   7.569   0.572
 6386TIP3    H119035   4.722   7.589   0.667
 6386TIP3    H219036   4.721   7.471   0.571
 6387TIP3   OH219037   5.340   7.824   1.952
 6387TIP3    H119038   5.413   7.868   1.905
 6387TIP3    H219039   5.268   7.888   1.936
 6388TIP3   OH219040   4.356   7.466   2.551
 6388TIP3    H119041   4.430   7.410   2.528
 6388TIP3    H219042   4.383   7.498   2.640
 6389TIP3   OH219043   4.424   7.286   0.987
 6389TIP3    H119044   4.399   7.239   1.068
 6389TIP3    H219045   4.461   7.213   0.932
 6390TIP3   OH219046   4.693   7.351   2.215
 6390TIP3    H119047   4.614   7.410   2.216
 6390TIP3    H219048   4.741   7.384   2.135
 6391TIP3   OH219049   4.523   7.080   0.829
 6391TIP3    H119050   4.497   7.080   0.735
 6391TIP3    H219051   4.621   7.084   0.821
 6392TIP3   OH219052   5.211   7.754   2.349
 6392TIP3    H119053   5.287   7.727   2.295
 6392TIP3    H219054   5.207   7.683   2.416
 6393TIP3   OH219055   5.340   7.420   0.528
 6393TIP3    H119056   5.374   7.396   0.439
 6393TIP3    H219057   5.316   7.514   0.513
 6394TIP3   OH219058   4.815   7.138   2.340
 6394TIP3    H119059   4.816   7.058   2.284
 6394TIP3    H219060   4.772   7.204   2.282
 6395TIP3   OH219061   4.818   6.925   2.148
 6395TIP3    H119062   4.846   6.966   2.063
 6395TIP3    H219063   4.725   6.902   2.129
 6396TIP3   OH219064   4.847   7.463   2.022
 6396TIP3    H119065   4.929   7.468   1.970
 6396TIP3    H219066   4.790   7.529   1.976
 6397TIP3   OH219067   5.430   7.428   2.403
 6397TIP3    H119068   5.475   7.343   2.408
 6397TIP3    H219069   5.498   7.485   2.364
 6398TIP3   OH219070   5.469   7.682   2.141
 6398TIP3    H119071   5.411   7.735   2.080
 6398TIP3    H219072   5.556   7.701   2.100
 6399TIP3   OH219073   4.693   7.252   2.570
 6399TIP3    H119074   4.625   7.182   2.583
 6399TIP3    H219075   4.728   7.228   2.482
 6400TIP3   OH219076   4.951   6.689   2.213
 6400TIP3    H119077   4.901   6.771   2.190
 6400TIP3    H219078   4.882   6.621   2.201
 6401TIP3   OH219079   5.076   7.194   2.430
 6401TIP3    H119080   5.063   7.181   2.525
 6401TIP3    H219081   4.986   7.169   2.398
 6402TIP3   OH219082   5.317   7.147   2.287
 6402TIP3    H119083   5.240   7.144   2.347
 6402TIP3    H219084   5.390   7.112   2.343
 6403TIP3   OH219085   5.548   7.084   2.437
 6403TIP3    H119086   5.559   6.988   2.454
 6403TIP3    H219087   5.543   7.121   2.527
 6404TIP3   OH219088   4.533   7.032   2.622
 6404TIP3    H119089   4.538   6.942   2.586
 6404TIP3    H219090   4.570   7.017   2.712
 6405TIP3   OH219091   5.046   6.699   2.470
 6405TIP3    H119092   5.112   6.628   2.465
 6405TIP3    H219093   5.005   6.693   2.381
 6406TIP3   OH219094   5.111   6.914   2.629
 6406TIP3    H119095   5.090   6.842   2.565
 6406TIP3    H219096   5.033   6.972   2.622
 6407TIP3   OH219097   4.326   8.141   0.728
 6407TIP3    H119098   4.422   8.143   0.708
 6407TIP3    H219099   4.291   8.177   0.644
 6408TIP3   OH219100   3.812   7.523   0.949
 6408TIP3    H119101   3.906   7.546   0.933
 6408TIP3    H219102   3.807   7.435   0.907
 6409TIP3   OH219103   3.723   8.137   1.360
 6409TIP3    H119104   3.657   8.073   1.324
 6409TIP3    H219105   3.769   8.080   1.426
 6410TIP3   OH219106   3.859   7.991   1.547
 6410TIP3    H119107   3.851   7.914   1.605
 6410TIP3    H219108   3.913   8.050   1.603
 6411TIP3   OH219109   5.586   8.391   1.348
 6411TIP3    H119110   5.623   8.428   1.429
 6411TIP3    H219111   5.648   8.421   1.280
 6412TIP3   OH219112   5.618   8.412   1.634
 6412TIP3    H119113   5.574   8.325   1.621
 6412TIP3    H219114   5.697   8.382   1.681
 6413TIP3   OH219115   5.667   8.086   2.203
 6413TIP3    H119116   5.592   8.093   2.265
 6413TIP3    H219117   5.706   8.176   2.208
 6414TIP3   OH219118   5.476   7.599   0.829
 6414TIP3    H119119   5.550   7.656   0.800
 6414TIP3    H219120   5.517   7.557   0.908
 6415TIP3   OH219121   5.608   7.465   1.026
 6415TIP3    H119122   5.544   7.422   1.086
 6415TIP3    H219123   5.675   7.502   1.087
 6416TIP3   OH219124   5.662   7.855   1.459
 6416TIP3    H119125   5.714   7.791   1.406
 6416TIP3    H219126   5.659   7.933   1.399
 6417TIP3   OH219127   5.495   8.158   1.654
 6417TIP3    H119128   5.421   8.200   1.702
 6417TIP3    H219129   5.448   8.110   1.582
 6418TIP3   OH219130   5.548   7.370   0.691
 6418TIP3    H119131   5.469   7.369   0.633
 6418TIP3    H219132   5.526   7.449   0.745
 6419TIP3   OH219133   5.417   7.055   0.618
 6419TIP3    H119134   5.363   7.074   0.540
 6419TIP3    H219135   5.395   6.960   0.630
 6420TIP3   OH219136   5.422   7.321   1.172
 6420TIP3    H119137   5.430   7.225   1.164
 6420TIP3    H219138   5.409   7.334   1.269
 6421TIP3   OH219139   4.049   7.395   1.919
 6421TIP3    H119140   4.047   7.365   1.825
 6421TIP3    H219141   4.146   7.397   1.935
 6422TIP3   OH219142   5.712   7.746   2.030
 6422TIP3    H119143   5.784   7.681   2.020
 6422TIP3    H219144   5.735   7.813   1.964
 6423TIP3   OH219145   5.897   7.553   2.050
 6423TIP3    H119146   5.822   7.502   2.086
 6423TIP3    H219147   5.970   7.487   2.063
 6424TIP3   OH219148   5.350   6.796   0.636
 6424TIP3    H119149   5.430   6.748   0.665
 6424TIP3    H219150   5.279   6.729   0.646
 6425TIP3   OH219151   5.420   7.039   1.068
 6425TIP3    H119152   5.460   6.950   1.083
 6425TIP3    H219153   5.478   7.070   0.995
 6426TIP3   OH219154   5.582   7.213   1.562
 6426TIP3    H119155   5.667   7.239   1.521
 6426TIP3    H219156   5.595   7.249   1.652
 6427TIP3   OH219157   5.650   7.356   1.795
 6427TIP3    H119158   5.571   7.390   1.841
 6427TIP3    H219159   5.682   7.436   1.748
 6428TIP3   OH219160   4.267   7.084   2.598
 6428TIP3    H119161   4.364   7.075   2.595
 6428TIP3    H219162   4.242   6.997   2.635
 6429TIP3   OH219163   6.102   6.948   2.350
 6429TIP3    H119164   6.160   6.881   2.307
 6429TIP3    H219165   6.073   7.002   2.274
 6430TIP3   OH219166   5.526   6.788   1.106
 6430TIP3    H119167   5.575   6.770   1.189
 6430TIP3    H219168   5.466   6.711   1.103
 6431TIP3   OH219169   4.227   6.775   1.927
 6431TIP3    H119170   4.289   6.699   1.934
 6431TIP3    H219171   4.290   6.848   1.918
 6432TIP3   OH219172   4.031   7.049   1.997
 6432TIP3    H119173   4.079   7.039   1.913
 6432TIP3    H219174   4.062   7.136   2.026
 6433TIP3   OH219175   5.972   7.087   2.156
 6433TIP3    H119176   5.884   7.126   2.173
 6433TIP3    H219177   5.946   7.014   2.096
 6434TIP3   OH219178   5.617   6.719   0.740
 6434TIP3    H119179   5.660   6.650   0.685
 6434TIP3    H219180   5.677   6.795   0.726
 6435TIP3   OH219181   4.014   6.554   1.501
 6435TIP3    H119182   3.919   6.549   1.524
 6435TIP3    H219183   4.012   6.611   1.420
 6436TIP3   OH219184   5.180   8.252   1.008
 6436TIP3    H119185   5.224   8.237   0.922
 6436TIP3    H219186   5.233   8.324   1.045
 6437TIP3   OH219187   4.235   6.636   2.315
 6437TIP3    H119188   4.182   6.625   2.395
 6437TIP3    H219189   4.168   6.670   2.253
 6438TIP3   OH219190   4.273   8.061   2.391
 6438TIP3    H119191   4.183   8.030   2.370
 6438TIP3    H219192   4.282   8.038   2.484
 6439TIP3   OH219193   4.451   8.091   1.938
 6439TIP3    H119194   4.404   8.167   1.897
 6439TIP3    H219195   4.537   8.104   1.893
 6440TIP3   OH219196   4.898   8.335   2.077
 6440TIP3    H119197   4.942   8.338   2.165
 6440TIP3    H219198   4.962   8.385   2.022
 6441TIP3   OH219199   5.075   8.486   1.934
 6441TIP3    H119200   5.144   8.437   1.887
 6441TIP3    H219201   5.128   8.543   1.993
 6442TIP3   OH219202   5.870   6.849   2.034
 6442TIP3    H119203   5.779   6.844   1.999
 6442TIP3    H219204   5.900   6.756   2.022
 6443TIP3   OH219205   4.128   8.348   1.960
 6443TIP3    H119206   4.040   8.383   1.934
 6443TIP3    H219207   4.135   8.381   2.050
 6444TIP3   OH219208   4.365   8.326   1.818
 6444TIP3    H119209   4.278   8.340   1.862
 6444TIP3    H219210   4.347   8.359   1.728
 6445TIP3   OH219211   4.790   8.354   1.617
 6445TIP3    H119212   4.723   8.374   1.548
 6445TIP3    H219213   4.803   8.443   1.657
 6446TIP3   OH219214   5.059   8.297   1.670
 6446TIP3    H119215   4.965   8.312   1.648
 6446TIP3    H219216   5.102   8.369   1.621
 6447TIP3   OH219217   5.270   8.489   1.583
 6447TIP3    H119218   5.253   8.572   1.534
 6447TIP3    H219219   5.294   8.428   1.509
 6448TIP3   OH219220   4.038   8.141   1.707
 6448TIP3    H119221   4.067   8.116   1.797
 6448TIP3    H219222   4.110   8.098   1.655
 6449TIP3   OH219223   4.232   8.014   1.563
 6449TIP3    H119224   4.250   7.929   1.610
 6449TIP3    H219225   4.322   8.051   1.555
 6450TIP3   OH219226   4.497   8.109   1.565
 6450TIP3    H119227   4.531   8.019   1.547
 6450TIP3    H219228   4.543   8.128   1.649
 6451TIP3   OH219229   5.077   6.766   1.656
 6451TIP3    H119230   5.032   6.695   1.706
 6451TIP3    H219231   5.145   6.717   1.606
 6452TIP3   OH219232   5.600   6.648   1.562
 6452TIP3    H119233   5.636   6.697   1.485
 6452TIP3    H219234   5.504   6.662   1.551
 6453TIP3   OH219235   5.694   6.744   1.324
 6453TIP3    H119236   5.766   6.693   1.281
 6453TIP3    H219237   5.726   6.836   1.307
 6454TIP3   OH219238   4.324   6.473   1.670
 6454TIP3    H119239   4.232   6.440   1.671
 6454TIP3    H219240   4.373   6.388   1.666
 6455TIP3   OH219241   4.108   6.342   1.315
 6455TIP3    H119242   4.141   6.399   1.243
 6455TIP3    H219243   4.082   6.408   1.382
 6456TIP3   OH219244   4.767   6.505   1.550
 6456TIP3    H119245   4.825   6.554   1.489
 6456TIP3    H219246   4.791   6.544   1.635
 6457TIP3   OH219247   5.318   6.652   1.533
 6457TIP3    H119248   5.310   6.618   1.443
 6457TIP3    H219249   5.302   6.571   1.586
 6458TIP3   OH219250   5.346   6.574   1.097
 6458TIP3    H119251   5.257   6.614   1.099
 6458TIP3    H219252   5.329   6.489   1.142
 6459TIP3   OH219253   3.826   7.913   1.100
 6459TIP3    H119254   3.742   7.879   1.063
 6459TIP3    H219255   3.816   8.007   1.079
 6460TIP3   OH219256   4.228   6.501   1.080
 6460TIP3    H119257   4.277   6.439   1.023
 6460TIP3    H219258   4.301   6.555   1.117
 6461TIP3   OH219259   4.736   6.673   1.182
 6461TIP3    H119260   4.801   6.629   1.238
 6461TIP3    H219261   4.762   6.767   1.199
 6462TIP3   OH219262   4.593   8.119   0.671
 6462TIP3    H119263   4.686   8.133   0.642
 6462TIP3    H219264   4.579   8.032   0.627
 6463TIP3   OH219265   5.318   8.218   0.769
 6463TIP3    H119266   5.307   8.121   0.754
 6463TIP3    H219267   5.273   8.255   0.691
 6464TIP3   OH219268   4.531   6.756   2.563
 6464TIP3    H119269   4.498   6.683   2.617
 6464TIP3    H219270   4.626   6.756   2.588
 6465TIP3   OH219271   4.782   6.753   2.680
 6465TIP3    H119272   4.865   6.725   2.639
 6465TIP3    H219273   4.769   6.682   2.747
 6466TIP3   OH219274   3.903   7.932   0.738
 6466TIP3    H119275   3.911   7.964   0.829
 6466TIP3    H219276   3.992   7.893   0.722
 6467TIP3   OH219277   5.606   6.812   2.467
 6467TIP3    H119278   5.625   6.780   2.558
 6467TIP3    H219279   5.694   6.807   2.425
 6468TIP3   OH219280   5.543   8.364   1.963
 6468TIP3    H119281   5.467   8.332   1.910
 6468TIP3    H219282   5.524   8.460   1.962
 6469TIP3   OH219283   6.811   7.734   1.100
 6469TIP3    H119284   6.836   7.698   1.186
 6469TIP3    H219285   6.764   7.660   1.059
 6470TIP3   OH219286   6.109   7.635   1.477
 6470TIP3    H119287   6.147   7.567   1.536
 6470TIP3    H219288   6.188   7.686   1.453
 6471TIP3   OH219289   6.083   8.038   1.212
 6471TIP3    H119290   6.076   7.941   1.209
 6471TIP3    H219291   6.177   8.047   1.182
 6472TIP3   OH219292   5.787   7.245   0.982
 6472TIP3    H119293   5.739   7.329   0.995
 6472TIP3    H219294   5.717   7.190   0.944
 6473TIP3   OH219295   5.848   7.533   1.150
 6473TIP3    H119296   5.897   7.456   1.186
 6473TIP3    H219297   5.911   7.569   1.086
 6474TIP3   OH219298   6.610   7.961   1.169
 6474TIP3    H119299   6.630   7.895   1.101
 6474TIP3    H219300   6.698   8.002   1.178
 6475TIP3   OH219301   7.624   7.278   1.157
 6475TIP3    H119302   7.653   7.360   1.203
 6475TIP3    H219303   7.658   7.293   1.068
 6476TIP3   OH219304   7.020   7.463   1.198
 6476TIP3    H119305   7.060   7.374   1.204
 6476TIP3    H219306   6.995   7.466   1.103
 6477TIP3   OH219307   6.361   7.123   1.154
 6477TIP3    H119308   6.340   7.195   1.090
 6477TIP3    H219309   6.313   7.049   1.109
 6478TIP3   OH219310   7.005   7.198   0.847
 6478TIP3    H119311   7.084   7.175   0.899
 6478TIP3    H219312   7.052   7.211   0.763
 6479TIP3   OH219313   5.992   7.325   1.260
 6479TIP3    H119314   6.075   7.305   1.305
 6479TIP3    H219315   6.003   7.271   1.179
 6480TIP3   OH219316   6.439   7.524   1.056
 6480TIP3    H119317   6.531   7.493   1.068
 6480TIP3    H219318   6.395   7.445   1.019
 6481TIP3   OH219319   7.694   7.490   1.319
 6481TIP3    H119320   7.607   7.534   1.309
 6481TIP3    H219321   7.713   7.509   1.412
 6482TIP3   OH219322   6.356   7.108   1.587
 6482TIP3    H119323   6.296   7.143   1.519
 6482TIP3    H219324   6.303   7.126   1.668
 6483TIP3   OH219325   6.463   7.882   1.387
 6483TIP3    H119326   6.399   7.948   1.419
 6483TIP3    H219327   6.501   7.927   1.308
 6484TIP3   OH219328   7.268   7.227   0.967
 6484TIP3    H119329   7.267   7.167   1.042
 6484TIP3    H219330   7.315   7.306   1.000
 6485TIP3   OH219331   6.227   7.222   1.371
 6485TIP3    H119332   6.290   7.294   1.392
 6485TIP3    H219333   6.274   7.181   1.295
 6486TIP3   OH219334   6.292   8.074   1.486
 6486TIP3    H119335   6.263   8.148   1.429
 6486TIP3    H219336   6.210   8.063   1.539
 6487TIP3   OH219337   5.678   7.756   0.732
 6487TIP3    H119338   5.629   7.797   0.659
 6487TIP3    H219339   5.702   7.834   0.785
 6488TIP3   OH219340   7.140   8.308   0.971
 6488TIP3    H119341   7.053   8.276   1.004
 6488TIP3    H219342   7.118   8.319   0.877
 6489TIP3   OH219343   7.411   7.191   1.323
 6489TIP3    H119344   7.321   7.205   1.288
 6489TIP3    H219345   7.468   7.214   1.248
 6490TIP3   OH219346   6.715   6.827   1.303
 6490TIP3    H119347   6.698   6.732   1.315
 6490TIP3    H219348   6.636   6.865   1.348
 6491TIP3   OH219349   7.504   7.873   1.154
 6491TIP3    H119350   7.421   7.877   1.099
 6491TIP3    H219351   7.564   7.840   1.085
 6492TIP3   OH219352   7.227   7.727   1.431
 6492TIP3    H119353   7.190   7.792   1.492
 6492TIP3    H219354   7.147   7.712   1.377
 6493TIP3   OH219355   6.196   7.646   0.969
 6493TIP3    H119356   6.170   7.610   0.882
 6493TIP3    H219357   6.291   7.629   0.971
 6494TIP3   OH219358   6.337   8.064   1.111
 6494TIP3    H119359   6.330   8.056   1.012
 6494TIP3    H219360   6.431   8.039   1.118
 6495TIP3   OH219361   6.359   7.639   1.302
 6495TIP3    H119362   6.384   7.618   1.209
 6495TIP3    H219363   6.398   7.727   1.315
 6496TIP3   OH219364   6.889   8.274   1.072
 6496TIP3    H119365   6.865   8.353   1.122
 6496TIP3    H219366   6.871   8.200   1.133
 6497TIP3   OH219367   6.495   8.196   1.626
 6497TIP3    H119368   6.433   8.260   1.667
 6497TIP3    H219369   6.431   8.143   1.573
 6498TIP3   OH219370   6.252   7.750   1.729
 6498TIP3    H119371   6.253   7.838   1.770
 6498TIP3    H219372   6.156   7.733   1.727
 6499TIP3   OH219373   6.291   8.369   1.710
 6499TIP3    H119374   6.259   8.367   1.617
 6499TIP3    H219375   6.210   8.344   1.760
 6500TIP3   OH219376   6.087   7.500   0.756
 6500TIP3    H119377   6.033   7.552   0.694
 6500TIP3    H219378   6.023   7.434   0.785
 6501TIP3   OH219379   5.869   7.896   1.657
 6501TIP3    H119380   5.805   7.876   1.585
 6501TIP3    H219381   5.905   7.808   1.678
 6502TIP3   OH219382   5.725   8.081   1.299
 6502TIP3    H119383   5.818   8.078   1.275
 6502TIP3    H219384   5.718   8.168   1.342
 6503TIP3   OH219385   7.581   8.542   1.342
 6503TIP3    H119386   7.549   8.453   1.324
 6503TIP3    H219387   7.502   8.577   1.391
 6504TIP3   OH219388   6.699   8.320   1.483
 6504TIP3    H119389   6.695   8.414   1.511
 6504TIP3    H219390   6.622   8.284   1.533
 6505TIP3   OH219391   5.881   8.302   0.813
 6505TIP3    H119392   5.954   8.300   0.879
 6505TIP3    H219393   5.831   8.223   0.842
 6506TIP3   OH219394   7.467   7.676   1.607
 6506TIP3    H119395   7.382   7.661   1.564
 6506TIP3    H219396   7.498   7.583   1.616
 6507TIP3   OH219397   6.073   8.081   1.650
 6507TIP3    H119398   6.124   8.057   1.730
 6507TIP3    H219399   5.999   8.016   1.652
 6508TIP3   OH219400   6.474   6.902   1.428
 6508TIP3    H119401   6.385   6.870   1.402
 6508TIP3    H219402   6.449   6.985   1.472
 6509TIP3   OH219403   7.006   7.019   1.623
 6509TIP3    H119404   7.073   6.989   1.688
 6509TIP3    H219405   6.922   6.997   1.668
 6510TIP3   OH219406   7.253   7.459   1.549
 6510TIP3    H119407   7.201   7.442   1.631
 6510TIP3    H219408   7.198   7.524   1.503
 6511TIP3   OH219409   6.408   7.417   1.449
 6511TIP3    H119410   6.354   7.438   1.528
 6511TIP3    H219411   6.392   7.497   1.393
 6512TIP3   OH219412   6.294   7.299   0.960
 6512TIP3    H119413   6.199   7.283   0.978
 6512TIP3    H219414   6.300   7.264   0.869
 6513TIP3   OH219415   6.957   7.670   1.778
 6513TIP3    H119416   6.930   7.597   1.838
 6513TIP3    H219417   7.051   7.678   1.801
 6514TIP3   OH219418   6.926   7.444   0.938
 6514TIP3    H119419   6.904   7.490   0.853
 6514TIP3    H219420   6.945   7.354   0.904
 6515TIP3   OH219421   6.228   7.447   1.656
 6515TIP3    H119422   6.246   7.512   1.726
 6515TIP3    H219423   6.213   7.365   1.707
 6516TIP3   OH219424   5.815   6.970   1.241
 6516TIP3    H119425   5.895   7.000   1.288
 6516TIP3    H219426   5.848   6.938   1.155
 6517TIP3   OH219427   5.794   6.954   0.760
 6517TIP3    H119428   5.839   6.990   0.681
 6517TIP3    H219429   5.730   7.026   0.778
 6518TIP3   OH219430   6.966   7.665   1.364
 6518TIP3    H119431   6.987   7.594   1.298
 6518TIP3    H219432   6.922   7.611   1.433
 6519TIP3   OH219433   6.621   7.115   1.031
 6519TIP3    H119434   6.535   7.119   1.078
 6519TIP3    H219435   6.684   7.127   1.104
 6520TIP3   OH219436   6.049   7.181   1.033
 6520TIP3    H119437   5.955   7.189   1.005
 6520TIP3    H219438   6.072   7.090   1.007
 6521TIP3   OH219439   6.320   7.180   0.705
 6521TIP3    H119440   6.417   7.191   0.718
 6521TIP3    H219441   6.302   7.239   0.630
 6522TIP3   OH219442   7.112   7.199   1.233
 6522TIP3    H119443   7.068   7.213   1.320
 6522TIP3    H219444   7.048   7.141   1.189
 6523TIP3   OH219445   7.273   8.886   1.444
 6523TIP3    H119446   7.275   8.909   1.349
 6523TIP3    H219447   7.345   8.942   1.479
 6524TIP3   OH219448   6.235   8.000   1.866
 6524TIP3    H119449   6.314   8.032   1.913
 6524TIP3    H219450   6.169   7.998   1.939
 6525TIP3   OH219451   6.700   7.450   1.123
 6525TIP3    H119452   6.778   7.428   1.068
 6525TIP3    H219453   6.717   7.403   1.206
 6526TIP3   OH219454   6.228   6.942   0.998
 6526TIP3    H119455   6.190   6.862   1.041
 6526TIP3    H219456   6.274   6.904   0.922
 6527TIP3   OH219457   6.676   7.345   1.414
 6527TIP3    H119458   6.586   7.382   1.421
 6527TIP3    H219459   6.731   7.411   1.461
 6528TIP3   OH219460   6.845   8.069   1.506
 6528TIP3    H119461   6.820   8.029   1.591
 6528TIP3    H219462   6.785   8.146   1.502
 6529TIP3   OH219463   6.097   7.761   1.192
 6529TIP3    H119464   6.127   7.738   1.101
 6529TIP3    H219465   6.144   7.693   1.242
 6530TIP3   OH219466   5.983   7.683   1.795
 6530TIP3    H119467   6.001   7.667   1.889
 6530TIP3    H219468   5.914   7.618   1.775
 6531TIP3   OH219469   6.710   7.797   1.814
 6531TIP3    H119470   6.648   7.741   1.765
 6531TIP3    H219471   6.796   7.762   1.783
 6532TIP3   OH219472   6.984   8.328   1.396
 6532TIP3    H119473   6.888   8.312   1.403
 6532TIP3    H219474   7.000   8.377   1.479
 6533TIP3   OH219475   7.079   7.829   1.097
 6533TIP3    H119476   6.984   7.813   1.079
 6533TIP3    H219477   7.118   7.762   1.037
 6534TIP3   OH219478   5.756   7.367   0.511
 6534TIP3    H119479   5.796   7.452   0.537
 6534TIP3    H219480   5.677   7.367   0.569
 6535TIP3   OH219481   6.474   8.410   1.279
 6535TIP3    H119482   6.507   8.481   1.222
 6535TIP3    H219483   6.556   8.377   1.318
 6536TIP3   OH219484   6.871   8.044   1.232
 6536TIP3    H119485   6.867   8.038   1.329
 6536TIP3    H219486   6.941   7.981   1.209
 6537TIP3   OH219487   7.112   8.584   1.285
 6537TIP3    H119488   7.036   8.524   1.273
 6537TIP3    H219489   7.098   8.646   1.210
 6538TIP3   OH219490   6.196   7.191   1.804
 6538TIP3    H119491   6.099   7.194   1.814
 6538TIP3    H219492   6.222   7.127   1.873
 6539TIP3   OH219493   5.910   8.279   1.438
 6539TIP3    H119494   5.961   8.197   1.451
 6539TIP3    H219495   5.956   8.339   1.498
 6540TIP3   OH219496   5.875   7.593   0.603
 6540TIP3    H119497   5.817   7.651   0.657
 6540TIP3    H219498   5.914   7.658   0.539
 6541TIP3   OH219499   7.030   7.259   1.492
 6541TIP3    H119500   7.116   7.283   1.529
 6541TIP3    H219501   7.011   7.174   1.539
 6542TIP3   OH219502   6.585   7.197   0.765
 6542TIP3    H119503   6.661   7.244   0.727
 6542TIP3    H219504   6.608   7.190   0.860
 6543TIP3   OH219505   6.870   7.503   1.558
 6543TIP3    H119506   6.890   7.553   1.639
 6543TIP3    H219507   6.922   7.421   1.569
 6544TIP3   OH219508   6.761   6.931   0.856
 6544TIP3    H119509   6.726   6.996   0.921
 6544TIP3    H219510   6.842   6.976   0.828
 6545TIP3   OH219511   6.249   6.907   0.659
 6545TIP3    H119512   6.246   7.001   0.686
 6545TIP3    H219513   6.339   6.883   0.690
 6546TIP3   OH219514   7.517   7.404   1.537
 6546TIP3    H119515   7.419   7.408   1.548
 6546TIP3    H219516   7.521   7.349   1.457
 6547TIP3   OH219517   7.169   7.608   0.960
 6547TIP3    H119518   7.094   7.558   0.925
 6547TIP3    H219519   7.238   7.539   0.968
 6548TIP3   OH219520   5.823   7.103   0.524
 6548TIP3    H119521   5.797   7.198   0.517
 6548TIP3    H219522   5.754   7.061   0.471
 6549TIP3   OH219523   6.209   6.823   1.405
 6549TIP3    H119524   6.178   6.791   1.317
 6549TIP3    H219525   6.197   6.744   1.461
 6550TIP3   OH219526   5.733   8.064   0.829
 6550TIP3    H119527   5.646   8.105   0.839
 6550TIP3    H219528   5.740   8.048   0.733
 6551TIP3   OH219529   5.901   8.580   1.859
 6551TIP3    H119530   5.989   8.575   1.902
 6551TIP3    H219531   5.879   8.485   1.853
 6552TIP3   OH219532   6.390   8.544   1.904
 6552TIP3    H119533   6.484   8.521   1.900
 6552TIP3    H219534   6.356   8.490   1.830
 6553TIP3   OH219535   7.022   8.458   1.638
 6553TIP3    H119536   7.015   8.385   1.705
 6553TIP3    H219537   7.101   8.506   1.668
 6554TIP3   OH219538   6.034   7.988   2.057
 6554TIP3    H119539   6.051   7.892   2.059
 6554TIP3    H219540   5.947   7.991   2.012
 6555TIP3   OH219541   6.642   8.073   1.830
 6555TIP3    H119542   6.596   8.090   1.745
 6555TIP3    H219543   6.670   7.979   1.821
 6556TIP3   OH219544   7.157   8.087   1.428
 6556TIP3    H119545   7.159   8.158   1.362
 6556TIP3    H219546   7.062   8.092   1.451
 6557TIP3   OH219547   6.151   7.724   2.040
 6557TIP3    H119548   6.225   7.667   2.014
 6557TIP3    H219549   6.179   7.755   2.128
 6558TIP3   OH219550   6.492   7.611   1.704
 6558TIP3    H119551   6.410   7.665   1.706
 6558TIP3    H219552   6.536   7.643   1.622
 6559TIP3   OH219553   7.008   8.010   1.839
 6559TIP3    H119554   7.086   7.983   1.790
 6559TIP3    H219555   6.999   7.939   1.905
 6560TIP3   OH219556   6.613   7.395   1.826
 6560TIP3    H119557   6.611   7.315   1.770
 6560TIP3    H219558   6.569   7.461   1.768
 6561TIP3   OH219559   6.614   7.181   1.635
 6561TIP3    H119560   6.641   7.223   1.550
 6561TIP3    H219561   6.520   7.158   1.616
 6562TIP3   OH219562   6.647   7.727   1.511
 6562TIP3    H119563   6.719   7.724   1.447
 6562TIP3    H219564   6.584   7.787   1.466
 6563TIP3   OH219565   7.225   7.683   1.888
 6563TIP3    H119566   7.267   7.597   1.902
 6563TIP3    H219567   7.300   7.738   1.862
 6564TIP3   OH219568   7.272   7.952   1.634
 6564TIP3    H119569   7.227   8.007   1.565
 6564TIP3    H219570   7.338   7.904   1.583
 6565TIP3   OH219571   6.491   7.508   2.058
 6565TIP3    H119572   6.422   7.440   2.071
 6565TIP3    H219573   6.524   7.485   1.969
 6566TIP3   OH219574   6.747   6.945   1.699
 6566TIP3    H119575   6.697   7.027   1.677
 6566TIP3    H219576   6.678   6.877   1.687
 6567TIP3   OH219577   6.872   7.452   1.916
 6567TIP3    H119578   6.858   7.437   2.011
 6567TIP3    H219579   6.782   7.427   1.883
 6568TIP3   OH219580   7.114   7.400   1.772
 6568TIP3    H119581   7.036   7.399   1.831
 6568TIP3    H219582   7.185   7.367   1.830
 6569TIP3   OH219583   7.345   7.340   1.922
 6569TIP3    H119584   7.355   7.244   1.940
 6569TIP3    H219585   7.338   7.378   2.012
 6570TIP3   OH219586   6.330   7.289   2.109
 6570TIP3    H119587   6.334   7.198   2.072
 6570TIP3    H219588   6.365   7.273   2.198
 6571TIP3   OH219589   6.842   6.956   1.957
 6571TIP3    H119590   6.908   6.884   1.951
 6571TIP3    H219591   6.801   6.949   1.868
 6572TIP3   OH219592   6.908   7.171   2.115
 6572TIP3    H119593   6.886   7.099   2.052
 6572TIP3    H219594   6.830   7.229   2.109
 6573TIP3   OH219595   5.512   8.399   0.846
 6573TIP3    H119596   5.449   8.333   0.810
 6573TIP3    H219597   5.557   8.347   0.916
 6574TIP3   OH219598   5.641   8.260   1.041
 6574TIP3    H119599   5.651   8.173   1.082
 6574TIP3    H219600   5.706   8.313   1.091
 6575TIP3   OH219601   7.423   8.669   1.118
 6575TIP3    H119602   7.376   8.584   1.110
 6575TIP3    H219603   7.502   8.640   1.166
 6576TIP3   OH219604   7.466   8.335   1.679
 6576TIP3    H119605   7.390   8.344   1.741
 6576TIP3    H219606   7.504   8.425   1.686
 6577TIP3   OH219607   7.307   8.419   1.155
 6577TIP3    H119608   7.232   8.452   1.207
 6577TIP3    H219609   7.259   8.369   1.085
 6578TIP3   OH219610   5.845   7.648   1.406
 6578TIP3    H119611   5.843   7.622   1.312
 6578TIP3    H219612   5.942   7.653   1.421
 6579TIP3   OH219613   7.649   7.845   1.496
 6579TIP3    H119614   7.597   7.782   1.552
 6579TIP3    H219615   7.739   7.816   1.523
 6580TIP3   OH219616   7.393   7.461   1.049
 6580TIP3    H119617   7.467   7.506   1.005
 6580TIP3    H219618   7.398   7.497   1.139
 6581TIP3   OH219619   7.446   7.620   1.283
 6581TIP3    H119620   7.363   7.633   1.333
 6581TIP3    H219621   7.447   7.699   1.228
 6582TIP3   OH219622   6.063   7.341   2.085
 6582TIP3    H119623   6.160   7.331   2.082
 6582TIP3    H219624   6.038   7.254   2.122
 6583TIP3   OH219625   7.896   7.203   1.836
 6583TIP3    H119626   7.956   7.137   1.794
 6583TIP3    H219627   7.871   7.259   1.760
 6584TIP3   OH219628   6.025   7.031   1.415
 6584TIP3    H119629   6.087   6.956   1.421
 6584TIP3    H219630   6.086   7.106   1.405
 6585TIP3   OH219631   5.828   7.305   1.486
 6585TIP3    H119632   5.875   7.295   1.401
 6585TIP3    H219633   5.855   7.395   1.510
 6586TIP3   OH219634   7.770   7.346   1.640
 6586TIP3    H119635   7.681   7.382   1.660
 6586TIP3    H219636   7.745   7.271   1.583
 6587TIP3   OH219637   5.809   6.817   0.992
 6587TIP3    H119638   5.714   6.806   1.008
 6587TIP3    H219639   5.810   6.869   0.909
 6588TIP3   OH219640   6.031   6.889   1.800
 6588TIP3    H119641   5.978   6.883   1.882
 6588TIP3    H219642   5.965   6.927   1.739
 6589TIP3   OH219643   6.070   8.319   1.880
 6589TIP3    H119644   5.981   8.287   1.854
 6589TIP3    H219645   6.074   8.293   1.973
 6590TIP3   OH219646   6.247   8.352   1.430
 6590TIP3    H119647   6.200   8.426   1.385
 6590TIP3    H219648   6.332   8.361   1.382
 6591TIP3   OH219649   6.695   8.591   1.564
 6591TIP3    H119650   6.738   8.596   1.652
 6591TIP3    H219651   6.758   8.641   1.509
 6592TIP3   OH219652   6.873   8.742   1.421
 6592TIP3    H119653   6.942   8.689   1.380
 6592TIP3    H219654   6.925   8.799   1.481
 6593TIP3   OH219655   7.666   7.105   1.520
 6593TIP3    H119656   7.574   7.095   1.487
 6593TIP3    H219657   7.698   7.013   1.510
 6594TIP3   OH219658   5.925   8.608   1.445
 6594TIP3    H119659   5.838   8.642   1.418
 6594TIP3    H219660   5.924   8.631   1.538
 6595TIP3   OH219661   6.165   8.585   1.307
 6595TIP3    H119662   6.076   8.599   1.347
 6595TIP3    H219663   6.148   8.614   1.214
 6596TIP3   OH219664   6.594   8.612   1.105
 6596TIP3    H119665   6.518   8.620   1.043
 6596TIP3    H219666   6.597   8.703   1.141
 6597TIP3   OH219667   6.857   8.554   1.156
 6597TIP3    H119668   6.760   8.558   1.137
 6597TIP3    H219669   6.887   8.634   1.113
 6598TIP3   OH219670   7.070   8.754   1.061
 6598TIP3    H119671   7.023   8.826   1.018
 6598TIP3    H219672   7.093   8.696   0.987
 6599TIP3   OH219673   5.833   8.396   1.195
 6599TIP3    H119674   5.864   8.371   1.284
 6599TIP3    H219675   5.906   8.356   1.141
 6600TIP3   OH219676   6.029   8.275   1.050
 6600TIP3    H119677   6.051   8.186   1.086
 6600TIP3    H219678   6.119   8.311   1.034
 6601TIP3   OH219679   6.295   8.367   1.040
 6601TIP3    H119680   6.326   8.286   0.996
 6601TIP3    H219681   6.340   8.360   1.126
 6602TIP3   OH219682   6.880   7.021   1.148
 6602TIP3    H119683   6.831   6.949   1.192
 6602TIP3    H219684   6.948   6.972   1.097
 6603TIP3   OH219685   7.391   6.919   1.063
 6603TIP3    H119686   7.429   6.946   0.978
 6603TIP3    H219687   7.295   6.918   1.044
 6604TIP3   OH219688   7.511   6.964   0.817
 6604TIP3    H119689   7.607   6.949   0.817
 6604TIP3    H219690   7.509   7.060   0.802
 6605TIP3   OH219691   6.120   6.731   1.158
 6605TIP3    H119692   6.028   6.700   1.155
 6605TIP3    H219693   6.168   6.645   1.151
 6606TIP3   OH219694   5.924   6.598   0.807
 6606TIP3    H119695   5.945   6.654   0.729
 6606TIP3    H219696   5.880   6.662   0.866
 6607TIP3   OH219697   6.560   6.757   1.044
 6607TIP3    H119698   6.613   6.807   0.980
 6607TIP3    H219699   6.579   6.803   1.126
 6608TIP3   OH219700   7.113   6.907   1.017
 6608TIP3    H119701   7.116   6.870   0.928
 6608TIP3    H219702   7.096   6.826   1.071
 6609TIP3   OH219703   6.019   6.755   0.588
 6609TIP3    H119704   6.058   6.697   0.519
 6609TIP3    H219705   6.096   6.812   0.611
 6610TIP3   OH219706   6.510   6.917   0.731
 6610TIP3    H119707   6.592   6.885   0.770
 6610TIP3    H219708   6.535   7.010   0.715
 6611TIP3   OH219709   6.327   7.012   2.049
 6611TIP3    H119710   6.294   6.940   2.105
 6611TIP3    H219711   6.422   7.012   2.075
 6612TIP3   OH219712   6.578   7.009   2.167
 6612TIP3    H119713   6.661   6.981   2.126
 6612TIP3    H219714   6.564   6.938   2.234
 6613TIP3   OH219715   7.402   7.069   1.954
 6613TIP3    H119716   7.421   7.037   2.045
 6613TIP3    H219717   7.491   7.063   1.912
 6614TIP3   OH219718   7.339   8.620   1.449
 6614TIP3    H119719   7.261   8.589   1.397
 6614TIP3    H219720   7.320   8.716   1.448
 6615TIP3   OH219721   8.151   7.370   1.079
 6615TIP3    H119722   8.085   7.382   1.012
 6615TIP3    H219723   8.099   7.388   1.161
 6616TIP3   OH219724   8.053   8.001   1.222
 6616TIP3    H119725   8.051   8.087   1.269
 6616TIP3    H219726   7.983   8.014   1.157
 6617TIP3   OH219727   7.874   8.269   1.135
 6617TIP3    H119728   7.922   8.293   1.216
 6617TIP3    H219729   7.789   8.311   1.145
 6618TIP3   OH219730   8.805   7.275   1.098
 6618TIP3    H119731   8.870   7.247   1.165
 6618TIP3    H219732   8.720   7.250   1.138
 6619TIP3   OH219733   7.974   7.702   1.170
 6619TIP3    H119734   8.044   7.764   1.194
 6619TIP3    H219735   8.004   7.618   1.209
 6620TIP3   OH219736   8.033   8.238   1.362
 6620TIP3    H119737   8.099   8.309   1.362
 6620TIP3    H219738   7.976   8.261   1.438
 6621TIP3   OH219739   7.997   7.442   1.296
 6621TIP3    H119740   7.900   7.448   1.305
 6621TIP3    H219741   8.021   7.379   1.365
 6622TIP3   OH219742   7.976   7.084   0.889
 6622TIP3    H119743   7.975   7.038   0.803
 6622TIP3    H219744   7.985   7.009   0.951
 6623TIP3   OH219745   7.681   8.819   1.394
 6623TIP3    H119746   7.774   8.819   1.368
 6623TIP3    H219747   7.652   8.737   1.352
 6624TIP3   OH219748   7.831   8.240   1.553
 6624TIP3    H119749   7.864   8.147   1.552
 6624TIP3    H219750   7.736   8.228   1.548
 6625TIP3   OH219751   7.932   7.979   1.535
 6625TIP3    H119752   8.005   7.935   1.488
 6625TIP3    H219753   7.977   8.009   1.617
 6626TIP3   OH219754   8.276   7.850   1.179
 6626TIP3    H119755   8.206   7.915   1.204
 6626TIP3    H219756   8.279   7.861   1.083
 6627TIP3   OH219757   8.399   7.648   1.316
 6627TIP3    H119758   8.405   7.570   1.258
 6627TIP3    H219759   8.362   7.716   1.255
 6628TIP3   OH219760   8.409   7.439   1.119
 6628TIP3    H119761   8.433   7.467   1.029
 6628TIP3    H219762   8.316   7.410   1.106
 6629TIP3   OH219763   8.283   7.764   1.543
 6629TIP3    H119764   8.214   7.696   1.556
 6629TIP3    H219765   8.318   7.738   1.455
 6630TIP3   OH219766   8.541   7.201   1.187
 6630TIP3    H119767   8.498   7.286   1.166
 6630TIP3    H219768   8.467   7.138   1.174
 6631TIP3   OH219769   8.645   7.738   1.426
 6631TIP3    H119770   8.625   7.700   1.514
 6631TIP3    H219771   8.564   7.711   1.378
 6632TIP3   OH219772   8.118   7.548   1.597
 6632TIP3    H119773   8.128   7.459   1.557
 6632TIP3    H219774   8.157   7.532   1.685
 6633TIP3   OH219775   8.634   7.208   1.445
 6633TIP3    H119776   8.703   7.140   1.438
 6633TIP3    H219777   8.598   7.206   1.354
 6634TIP3   OH219778   8.693   7.419   1.609
 6634TIP3    H119779   8.677   7.351   1.539
 6634TIP3    H219780   8.616   7.479   1.596
 6635TIP3   OH219781   7.848   7.609   1.570
 6635TIP3    H119782   7.945   7.601   1.566
 6635TIP3    H219783   7.827   7.522   1.610
 6636TIP3   OH219784   7.855   7.323   0.946
 6636TIP3    H119785   7.905   7.238   0.952
 6636TIP3    H219786   7.900   7.363   0.870
 6637TIP3   OH219787   7.642   7.581   0.969
 6637TIP3    H119788   7.693   7.500   0.960
 6637TIP3    H219789   7.713   7.647   0.974
 6638TIP3   OH219790   7.829   7.148   1.290
 6638TIP3    H119791   7.777   7.137   1.372
 6638TIP3    H219792   7.760   7.180   1.229
 6639TIP3   OH219793   7.854   8.555   1.410
 6639TIP3    H119794   7.771   8.551   1.360
 6639TIP3    H219795   7.826   8.531   1.499
 6640TIP3   OH219796   8.123   7.267   1.534
 6640TIP3    H119797   8.091   7.196   1.592
 6640TIP3    H219798   8.218   7.269   1.559
 6641TIP3   OH219799   8.372   7.266   1.652
 6641TIP3    H119800   8.457   7.242   1.611
 6641TIP3    H219801   8.362   7.194   1.718
 6642TIP3   OH219802   9.141   7.301   1.464
 6642TIP3    H119803   9.193   7.305   1.545
 6642TIP3    H219804   9.203   7.334   1.397
 6643TIP3   OH219805   0.354   7.993   3.536
 6643TIP3    H119806   0.408   7.926   3.490
 6643TIP3    H219807   0.317   8.044   3.461
 6644TIP3   OH219808   0.220   8.130   3.333
 6644TIP3    H119809   0.130   8.158   3.347
 6644TIP3    H219810   0.207   8.053   3.274
 6645TIP3   OH219811   0.125   7.893   3.200
 6645TIP3    H119812   0.030   7.888   3.184
 6645TIP3    H219813   0.150   7.798   3.193
 6646TIP3   OH219814   1.862   8.331   2.324
 6646TIP3    H119815   1.901   8.409   2.367
 6646TIP3    H219816   1.890   8.345   2.232
 6647TIP3   OH219817   1.277   8.512   2.362
 6647TIP3    H119818   1.317   8.424   2.382
 6647TIP3    H219819   1.235   8.493   2.276
 6648TIP3   OH219820   1.300   8.252   1.952
 6648TIP3    H119821   1.369   8.238   2.021
 6648TIP3    H219822   1.359   8.285   1.880
 6649TIP3   OH219823   1.956   8.535   2.496
 6649TIP3    H119824   1.875   8.580   2.464
 6649TIP3    H219825   1.936   8.531   2.591
 6650TIP3   OH219826   0.607   8.145   2.769
 6650TIP3    H119827   0.554   8.181   2.695
 6650TIP3    H219828   0.552   8.171   2.846
 6651TIP3   OH219829   1.507   8.261   2.123
 6651TIP3    H119830   1.512   8.205   2.201
 6651TIP3    H219831   1.563   8.337   2.148
 6652TIP3   OH219832   0.488   8.249   2.549
 6652TIP3    H119833   0.532   8.336   2.562
 6652TIP3    H219834   0.493   8.243   2.452
 6653TIP3   OH219835   1.664   8.236   2.499
 6653TIP3    H119836   1.576   8.256   2.463
 6653TIP3    H219837   1.724   8.262   2.425
 6654TIP3   OH219838   0.957   7.873   2.470
 6654TIP3    H119839   0.951   7.778   2.491
 6654TIP3    H219840   0.882   7.908   2.523
 6655TIP3   OH219841   1.497   8.755   2.606
 6655TIP3    H119842   1.511   8.837   2.557
 6655TIP3    H219843   1.406   8.731   2.577
 6656TIP3   OH219844   1.599   7.816   1.580
 6656TIP3    H119845   1.513   7.834   1.623
 6656TIP3    H219846   1.613   7.897   1.526
 6657TIP3   OH219847   1.733   8.729   2.777
 6657TIP3    H119848   1.645   8.717   2.735
 6657TIP3    H219849   1.759   8.635   2.787
 6658TIP3   OH219850   0.721   7.947   2.607
 6658TIP3    H119851   0.632   7.917   2.580
 6658TIP3    H219852   0.697   8.028   2.656
 6659TIP3   OH219853   1.256   8.064   2.799
 6659TIP3    H119854   1.326   8.034   2.860
 6659TIP3    H219855   1.174   8.041   2.846
 6660TIP3   OH219856   1.502   8.482   2.722
 6660TIP3    H119857   1.451   8.475   2.806
 6660TIP3    H219858   1.470   8.565   2.685
 6661TIP3   OH219859   0.645   8.473   2.603
 6661TIP3    H119860   0.597   8.488   2.686
 6661TIP3    H219861   0.624   8.552   2.549
 6662TIP3   OH219862   1.207   8.703   2.960
 6662TIP3    H119863   1.205   8.618   3.010
 6662TIP3    H219864   1.301   8.727   2.975
 6663TIP3   OH219865   1.190   8.450   2.106
 6663TIP3    H119866   1.095   8.451   2.080
 6663TIP3    H219867   1.218   8.362   2.074
 6664TIP3   OH219868   0.471   8.494   2.856
 6664TIP3    H119869   0.450   8.531   2.943
 6664TIP3    H219870   0.456   8.400   2.874
 6665TIP3   OH219871   1.239   8.700   2.547
 6665TIP3    H119872   1.246   8.630   2.478
 6665TIP3    H219873   1.171   8.659   2.604
 6666TIP3   OH219874   0.905   8.186   2.202
 6666TIP3    H119875   0.811   8.160   2.202
 6666TIP3    H219876   0.935   8.166   2.292
 6667TIP3   OH219877   1.352   8.248   2.407
 6667TIP3    H119878   1.315   8.258   2.496
 6667TIP3    H219879   1.292   8.180   2.371
 6668TIP3   OH219880   0.961   8.505   2.279
 6668TIP3    H119881   0.998   8.417   2.262
 6668TIP3    H219882   0.948   8.502   2.374
 6669TIP3   OH219883   0.920   8.384   2.595
 6669TIP3    H119884   0.834   8.430   2.590
 6669TIP3    H219885   0.979   8.451   2.636
 6670TIP3   OH219886   0.950   8.706   3.077
 6670TIP3    H119887   0.888   8.747   3.015
 6670TIP3    H219888   1.028   8.687   3.022
 6671TIP3   OH219889   0.451   8.235   2.985
 6671TIP3    H119890   0.357   8.223   3.001
 6671TIP3    H219891   0.487   8.169   3.047
 6672TIP3   OH219892   1.275   8.307   2.668
 6672TIP3    H119893   1.363   8.334   2.697
 6672TIP3    H219894   1.263   8.222   2.716
 6673TIP3   OH219895   1.142   8.072   1.808
 6673TIP3    H119896   1.146   8.098   1.716
 6673TIP3    H219897   1.200   8.137   1.853
 6674TIP3   OH219898   1.112   8.545   2.735
 6674TIP3    H119899   1.144   8.594   2.814
 6674TIP3    H219900   1.166   8.464   2.736
 6675TIP3   OH219901   1.007   7.968   2.042
 6675TIP3    H119902   0.982   8.051   2.089
 6675TIP3    H219903   1.051   8.004   1.963
 6676TIP3   OH219904   1.770   8.451   2.707
 6676TIP3    H119905   1.673   8.449   2.724
 6676TIP3    H219906   1.772   8.391   2.631
 6677TIP3   OH219907   1.403   8.632   2.087
 6677TIP3    H119908   1.339   8.567   2.120
 6677TIP3    H219909   1.483   8.607   2.137
 6678TIP3   OH219910   0.458   7.857   2.584
 6678TIP3    H119911   0.429   7.813   2.503
 6678TIP3    H219912   0.452   7.784   2.649
 6679TIP3   OH219913   0.428   8.753   3.185
 6679TIP3    H119914   0.462   8.669   3.217
 6679TIP3    H219915   0.427   8.809   3.266
 6680TIP3   OH219916   0.748   8.591   2.840
 6680TIP3    H119917   0.656   8.615   2.860
 6680TIP3    H219918   0.752   8.600   2.743
 6681TIP3   OH219919   0.863   8.415   3.016
 6681TIP3    H119920   0.870   8.334   2.961
 6681TIP3    H219921   0.824   8.477   2.951
 6682TIP3   OH219922   0.865   8.220   2.814
 6682TIP3    H119923   0.892   8.267   2.731
 6682TIP3    H219924   0.771   8.199   2.795
 6683TIP3   OH219925   1.466   8.728   3.050
 6683TIP3    H119926   1.528   8.656   3.072
 6683TIP3    H219927   1.516   8.808   3.079
 6684TIP3   OH219928   0.717   8.562   3.226
 6684TIP3    H119929   0.666   8.479   3.235
 6684TIP3    H219930   0.773   8.543   3.149
 6685TIP3   OH219931   0.997   7.988   2.879
 6685TIP3    H119932   0.949   8.071   2.854
 6685TIP3    H219933   0.928   7.921   2.864
 6686TIP3   OH219934   1.130   8.473   3.090
 6686TIP3    H119935   1.122   8.471   3.186
 6686TIP3    H219936   1.037   8.454   3.065
 6687TIP3   OH219937   1.366   8.439   2.949
 6687TIP3    H119938   1.288   8.431   3.008
 6687TIP3    H219939   1.439   8.412   3.008
 6688TIP3   OH219940   1.598   8.388   3.102
 6688TIP3    H119941   1.607   8.292   3.118
 6688TIP3    H219942   1.589   8.425   3.192
 6689TIP3   OH219943   0.583   8.331   3.286
 6689TIP3    H119944   0.588   8.241   3.248
 6689TIP3    H219945   0.619   8.316   3.375
 6690TIP3   OH219946   1.088   7.998   3.136
 6690TIP3    H119947   1.158   7.930   3.130
 6690TIP3    H219948   1.051   7.993   3.046
 6691TIP3   OH219949   1.155   8.212   3.295
 6691TIP3    H119950   1.134   8.142   3.230
 6691TIP3    H219951   1.078   8.272   3.287
 6692TIP3   OH219952   1.462   8.615   1.823
 6692TIP3    H119953   1.488   8.522   1.822
 6692TIP3    H219954   1.454   8.634   1.919
 6693TIP3   OH219955   1.959   8.877   2.718
 6693TIP3    H119956   1.873   8.839   2.744
 6693TIP3    H219957   2.015   8.797   2.730
 6694TIP3   OH219958   1.462   8.338   1.751
 6694TIP3    H119959   1.506   8.251   1.768
 6694TIP3    H219960   1.469   8.334   1.653
 6695TIP3   OH219961   1.623   8.516   2.213
 6695TIP3    H119962   1.709   8.542   2.174
 6695TIP3    H219963   1.641   8.545   2.304
 6696TIP3   OH219964   1.703   8.643   2.444
 6696TIP3    H119965   1.630   8.671   2.500
 6696TIP3    H219966   1.751   8.727   2.428
 6697TIP3   OH219967   0.320   8.397   3.274
 6697TIP3    H119968   0.415   8.378   3.267
 6697TIP3    H219969   0.285   8.309   3.296
 6698TIP3   OH219970   2.148   8.252   3.013
 6698TIP3    H119971   2.205   8.183   2.971
 6698TIP3    H219972   2.119   8.303   2.935
 6699TIP3   OH219973   1.570   8.088   1.778
 6699TIP3    H119974   1.620   8.070   1.860
 6699TIP3    H219975   1.512   8.009   1.773
 6700TIP3   OH219976   0.278   8.075   2.571
 6700TIP3    H119977   0.335   8.001   2.598
 6700TIP3    H219978   0.340   8.150   2.577
 6701TIP3   OH219979   2.019   8.391   2.815
 6701TIP3    H119980   1.926   8.419   2.825
 6701TIP3    H219981   2.006   8.316   2.755
 6702TIP3   OH219982   1.678   8.014   1.399
 6702TIP3    H119983   1.709   7.946   1.336
 6702TIP3    H219984   1.739   8.089   1.382
 6703TIP3   OH219985   0.287   7.986   2.994
 6703TIP3    H119986   0.231   7.954   3.067
 6703TIP3    H219987   0.238   7.954   2.917
 6704TIP3   OH219988   1.908   8.140   2.711
 6704TIP3    H119989   1.823   8.137   2.664
 6704TIP3    H219990   1.947   8.056   2.677
 6705TIP3   OH219991   1.140   8.064   2.339
 6705TIP3    H119992   1.083   7.993   2.374
 6705TIP3    H219993   1.191   8.019   2.270
 6706TIP3   OH219994   1.651   7.948   2.225
 6706TIP3    H119995   1.684   7.999   2.148
 6706TIP3    H219996   1.555   7.959   2.217
 6707TIP3   OH219997   1.742   8.049   1.987
 6707TIP3    H119998   1.815   7.997   1.947
 6707TIP3    H219999   1.774   8.141   1.970
 6708TIP3   OH220000   0.812   7.802   2.215
 6708TIP3    H120001   0.861   7.852   2.148
 6708TIP3    H220002   0.846   7.842   2.297
 6709TIP3   OH220003   1.368   7.950   2.193
 6709TIP3    H120004   1.359   7.910   2.106
 6709TIP3    H220005   1.349   7.873   2.252
 6710TIP3   OH220006   1.390   7.876   1.763
 6710TIP3    H120007   1.298   7.904   1.759
 6710TIP3    H220008   1.381   7.790   1.808
 6711TIP3   OH220009   0.578   8.054   3.221
 6711TIP3    H120010   0.543   7.987   3.282
 6711TIP3    H220011   0.672   8.056   3.249
 6712TIP3   OH220012   0.825   8.053   3.343
 6712TIP3    H120013   0.910   8.032   3.301
 6712TIP3    H220014   0.817   7.980   3.408
 6713TIP3   OH220015   1.649   8.116   3.130
 6713TIP3    H120016   1.670   8.081   3.219
 6713TIP3    H220017   1.736   8.109   3.085
 6714TIP3   OH220018   1.825   8.552   1.644
 6714TIP3    H120019   1.790   8.638   1.672
 6714TIP3    H220020   1.758   8.492   1.680
 6715TIP3   OH220021   3.665   8.582   1.813
 6715TIP3    H120022   3.697   8.664   1.854
 6715TIP3    H220023   3.689   8.597   1.720
 6716TIP3   OH220024   3.065   8.769   1.845
 6716TIP3    H120025   3.108   8.683   1.867
 6716TIP3    H220026   3.029   8.749   1.757
 6717TIP3   OH220027   2.404   8.424   1.815
 6717TIP3    H120028   2.384   8.498   1.753
 6717TIP3    H220029   2.356   8.351   1.770
 6718TIP3   OH220030   3.097   8.513   1.439
 6718TIP3    H120031   3.171   8.498   1.503
 6718TIP3    H220032   3.148   8.549   1.364
 6719TIP3   OH220033   2.030   8.612   1.931
 6719TIP3    H120034   2.116   8.597   1.971
 6719TIP3    H220035   2.043   8.575   1.842
 6720TIP3   OH220036   2.487   8.829   1.714
 6720TIP3    H120037   2.575   8.790   1.734
 6720TIP3    H220038   2.439   8.753   1.677
 6721TIP3   OH220039   3.751   8.784   1.988
 6721TIP3    H120040   3.672   8.831   1.955
 6721TIP3    H220041   3.755   8.816   2.079
 6722TIP3   OH220042   2.402   8.412   2.252
 6722TIP3    H120043   2.338   8.440   2.184
 6722TIP3    H220044   2.348   8.421   2.333
 6723TIP3   OH220045   3.308   8.519   1.608
 6723TIP3    H120046   3.309   8.465   1.688
 6723TIP3    H220047   3.361   8.597   1.635
 6724TIP3   OH220048   2.272   8.518   2.034
 6724TIP3    H120049   2.335   8.591   2.050
 6724TIP3    H220050   2.317   8.474   1.958
 6725TIP3   OH220051   3.459   8.487   1.983
 6725TIP3    H120052   3.371   8.512   1.949
 6725TIP3    H220053   3.519   8.517   1.911
 6726TIP3   OH220054   2.759   8.127   1.965
 6726TIP3    H120055   2.744   8.032   1.981
 6726TIP3    H220056   2.680   8.165   2.010
 6727TIP3   OH220057   2.641   8.680   0.992
 6727TIP3    H120058   2.732   8.709   1.000
 6727TIP3    H220059   2.639   8.638   0.904
 6728TIP3   OH220060   3.295   9.011   2.090
 6728TIP3    H120061   3.307   9.095   2.042
 6728TIP3    H220062   3.204   8.985   2.060
 6729TIP3   OH220063   3.390   8.072   1.065
 6729TIP3    H120064   3.309   8.092   1.116
 6729TIP3    H220065   3.402   8.156   1.015
 6730TIP3   OH220066   3.517   8.974   2.276
 6730TIP3    H120067   3.438   8.968   2.220
 6730TIP3    H220068   3.544   8.880   2.279
 6731TIP3   OH220069   2.518   8.204   2.089
 6731TIP3    H120070   2.428   8.171   2.066
 6731TIP3    H220071   2.493   8.286   2.136
 6732TIP3   OH220072   3.051   8.322   2.286
 6732TIP3    H120073   3.118   8.290   2.350
 6732TIP3    H220074   2.966   8.299   2.330
 6733TIP3   OH220075   3.295   8.736   2.207
 6733TIP3    H120076   3.246   8.733   2.293
 6733TIP3    H220077   3.264   8.819   2.168
 6734TIP3   OH220078   2.664   8.252   1.061
 6734TIP3    H120079   2.633   8.252   1.154
 6734TIP3    H220080   2.626   8.167   1.031
 6735TIP3   OH220081   2.443   8.728   2.101
 6735TIP3    H120082   2.381   8.737   2.175
 6735TIP3    H220083   2.420   8.804   2.045
 6736TIP3   OH220084   2.333   8.608   1.631
 6736TIP3    H120085   2.240   8.580   1.642
 6736TIP3    H220086   2.353   8.568   1.543
 6737TIP3   OH220087   2.836   8.694   1.354
 6737TIP3    H120088   2.754   8.742   1.329
 6737TIP3    H220089   2.877   8.675   1.267
 6738TIP3   OH220090   3.001   8.958   2.446
 6738TIP3    H120091   2.998   8.874   2.498
 6738TIP3    H220092   3.093   8.985   2.462
 6739TIP3   OH220093   2.973   8.709   1.593
 6739TIP3    H120094   2.914   8.725   1.516
 6739TIP3    H220095   3.017   8.629   1.556
 6740TIP3   OH220096   2.283   8.748   2.343
 6740TIP3    H120097   2.238   8.786   2.419
 6740TIP3    H220098   2.256   8.655   2.354
 6741TIP3   OH220099   2.309   8.217   1.018
 6741TIP3    H120100   2.312   8.228   1.115
 6741TIP3    H220101   2.212   8.213   1.003
 6742TIP3   OH220102   1.859   8.278   1.896
 6742TIP3    H120103   1.936   8.302   1.951
 6742TIP3    H220104   1.898   8.234   1.819
 6743TIP3   OH220105   1.827   8.264   1.411
 6743TIP3    H120106   1.880   8.298   1.338
 6743TIP3    H220107   1.774   8.341   1.434
 6744TIP3   OH220108   3.039   8.954   2.040
 6744TIP3    H120109   3.040   8.889   1.965
 6744TIP3    H220110   2.967   8.914   2.093
 6745TIP3   OH220111   2.661   8.422   1.686
 6745TIP3    H120112   2.577   8.424   1.736
 6745TIP3    H220113   2.726   8.432   1.757
 6746TIP3   OH220114   2.093   8.486   1.690
 6746TIP3    H120115   1.999   8.487   1.662
 6746TIP3    H220116   2.120   8.394   1.673
 6747TIP3   OH220117   2.382   8.474   1.401
 6747TIP3    H120118   2.474   8.495   1.375
 6747TIP3    H220119   2.331   8.502   1.321
 6748TIP3   OH220120   3.149   8.506   1.893
 6748TIP3    H120121   3.109   8.515   1.982
 6748TIP3    H220122   3.089   8.441   1.852
 6749TIP3   OH220123   2.236   8.511   1.182
 6749TIP3    H120124   2.157   8.478   1.137
 6749TIP3    H220125   2.279   8.559   1.107
 6750TIP3   OH220126   2.739   8.736   1.777
 6750TIP3    H120127   2.821   8.714   1.730
 6750TIP3    H220128   2.761   8.718   1.870
 6751TIP3   OH220129   2.266   8.245   1.663
 6751TIP3    H120130   2.233   8.164   1.708
 6751TIP3    H220131   2.320   8.207   1.592
 6752TIP3   OH220132   2.719   8.643   2.082
 6752TIP3    H120133   2.632   8.685   2.073
 6752TIP3    H220134   2.774   8.712   2.123
 6753TIP3   OH220135   2.913   8.364   1.032
 6753TIP3    H120136   2.817   8.343   1.039
 6753TIP3    H220137   2.918   8.460   1.050
 6754TIP3   OH220138   2.984   8.623   1.119
 6754TIP3    H120139   3.076   8.609   1.150
 6754TIP3    H220140   2.994   8.705   1.068
 6755TIP3   OH220141   2.742   8.963   2.569
 6755TIP3    H120142   2.680   9.009   2.510
 6755TIP3    H220143   2.816   8.942   2.510
 6756TIP3   OH220144   3.424   8.683   0.976
 6756TIP3    H120145   3.362   8.644   0.911
 6756TIP3    H220146   3.428   8.773   0.942
 6757TIP3   OH220147   2.236   8.489   2.470
 6757TIP3    H120148   2.139   8.486   2.476
 6757TIP3    H220149   2.260   8.416   2.529
 6758TIP3   OH220150   3.070   8.564   2.155
 6758TIP3    H120151   3.160   8.589   2.182
 6758TIP3    H220152   3.057   8.479   2.203
 6759TIP3   OH220153   2.958   8.306   1.310
 6759TIP3    H120154   2.944   8.330   1.217
 6759TIP3    H220155   2.997   8.388   1.348
 6760TIP3   OH220156   2.662   8.482   1.414
 6760TIP3    H120157   2.727   8.554   1.400
 6760TIP3    H220158   2.659   8.477   1.512
 6761TIP3   OH220159   2.907   8.801   2.223
 6761TIP3    H120160   2.939   8.848   2.302
 6761TIP3    H220161   2.961   8.720   2.223
 6762TIP3   OH220162   2.793   8.214   1.519
 6762TIP3    H120163   2.780   8.293   1.575
 6762TIP3    H220164   2.853   8.250   1.449
 6763TIP3   OH220165   2.305   8.214   1.302
 6763TIP3    H120166   2.308   8.304   1.340
 6763TIP3    H220167   2.399   8.190   1.310
 6764TIP3   OH220168   3.563   8.708   2.205
 6764TIP3    H120169   3.466   8.700   2.212
 6764TIP3    H220170   3.576   8.666   2.118
 6765TIP3   OH220171   3.199   8.885   1.575
 6765TIP3    H120172   3.130   8.822   1.602
 6765TIP3    H220173   3.275   8.857   1.629
 6766TIP3   OH220174   2.253   8.124   2.069
 6766TIP3    H120175   2.222   8.089   1.983
 6766TIP3    H220176   2.242   8.046   2.128
 6767TIP3   OH220177   2.225   9.016   2.695
 6767TIP3    H120178   2.246   8.925   2.674
 6767TIP3    H220179   2.134   9.008   2.729
 6768TIP3   OH220180   2.542   8.860   2.326
 6768TIP3    H120181   2.447   8.839   2.337
 6768TIP3    H220182   2.553   8.846   2.230
 6769TIP3   OH220183   2.367   8.613   0.969
 6769TIP3    H120184   2.362   8.631   0.873
 6769TIP3    H220185   2.459   8.641   0.990
 6770TIP3   OH220186   2.659   8.675   2.501
 6770TIP3    H120187   2.662   8.593   2.447
 6770TIP3    H220188   2.622   8.738   2.437
 6771TIP3   OH220189   2.661   8.480   2.301
 6771TIP3    H120190   2.688   8.523   2.218
 6771TIP3    H220191   2.567   8.457   2.282
 6772TIP3   OH220192   3.279   8.993   2.549
 6772TIP3    H120193   3.296   8.899   2.564
 6772TIP3    H220194   3.366   9.023   2.520
 6773TIP3   OH220195   2.520   8.812   2.719
 6773TIP3    H120196   2.468   8.728   2.717
 6773TIP3    H220197   2.573   8.804   2.637
 6774TIP3   OH220198   2.793   8.246   2.363
 6774TIP3    H120199   2.743   8.327   2.341
 6774TIP3    H220200   2.724   8.177   2.352
 6775TIP3   OH220201   2.925   8.728   2.576
 6775TIP3    H120202   2.912   8.725   2.672
 6775TIP3    H220203   2.833   8.708   2.548
 6776TIP3   OH220204   3.166   8.708   2.442
 6776TIP3    H120205   3.086   8.689   2.495
 6776TIP3    H220206   3.237   8.668   2.496
 6777TIP3   OH220207   3.392   8.642   2.590
 6777TIP3    H120208   3.402   8.546   2.606
 6777TIP3    H220209   3.386   8.679   2.681
 6778TIP3   OH220210   2.375   8.589   2.777
 6778TIP3    H120211   2.372   8.501   2.734
 6778TIP3    H220212   2.417   8.564   2.862
 6779TIP3   OH220213   2.887   8.257   2.620
 6779TIP3    H120214   2.953   8.185   2.614
 6779TIP3    H220215   2.846   8.250   2.532
 6780TIP3   OH220216   2.955   8.469   2.780
 6780TIP3    H120217   2.932   8.399   2.716
 6780TIP3    H220218   2.877   8.529   2.773
 6781TIP3   OH220219   3.258   8.610   0.772
 6781TIP3    H120220   3.218   8.622   0.685
 6781TIP3    H220221   3.237   8.515   0.784
 6782TIP3   OH220222   3.292   8.860   1.321
 6782TIP3    H120223   3.293   8.763   1.330
 6782TIP3    H220224   3.269   8.886   1.413
 6783TIP3   OH220225   3.728   9.134   2.213
 6783TIP3    H120226   3.653   9.075   2.234
 6783TIP3    H220227   3.802   9.070   2.212
 6784TIP3   OH220228   3.199   8.347   0.778
 6784TIP3    H120229   3.278   8.308   0.820
 6784TIP3    H220230   3.131   8.278   0.789
 6785TIP3   OH220231   3.251   8.586   1.216
 6785TIP3    H120232   3.294   8.498   1.230
 6785TIP3    H220233   3.312   8.623   1.149
 6786TIP3   OH220234   3.419   8.768   1.702
 6786TIP3    H120235   3.504   8.796   1.660
 6786TIP3    H220236   3.438   8.802   1.792
 6787TIP3   OH220237   3.498   8.894   1.934
 6787TIP3    H120238   3.422   8.926   1.985
 6787TIP3    H220239   3.548   8.978   1.918
 6788TIP3   OH220240   2.111   8.655   2.763
 6788TIP3    H120241   2.205   8.631   2.747
 6788TIP3    H220242   2.076   8.567   2.789
 6789TIP3   OH220243   3.940   8.504   2.500
 6789TIP3    H120244   4.000   8.438   2.458
 6789TIP3    H220245   3.915   8.559   2.424
 6790TIP3   OH220246   3.369   8.343   1.255
 6790TIP3    H120247   3.418   8.328   1.338
 6790TIP3    H220248   3.309   8.266   1.254
 6791TIP3   OH220249   2.065   8.328   2.077
 6791TIP3    H120250   2.128   8.254   2.087
 6791TIP3    H220251   2.126   8.403   2.067
 6792TIP3   OH220252   1.871   8.615   2.154
 6792TIP3    H120253   1.919   8.603   2.068
 6792TIP3    H220254   1.893   8.707   2.173
 6793TIP3   OH220255   3.814   8.648   2.305
 6793TIP3    H120256   3.723   8.682   2.316
 6793TIP3    H220257   3.795   8.572   2.245
 6794TIP3   OH220258   3.451   8.281   0.884
 6794TIP3    H120259   3.490   8.206   0.835
 6794TIP3    H220260   3.521   8.349   0.879
 6795TIP3   OH220261   1.850   8.122   1.648
 6795TIP3    H120262   1.756   8.109   1.670
 6795TIP3    H220263   1.844   8.172   1.564
 6796TIP3   OH220264   2.081   8.225   2.475
 6796TIP3    H120265   2.046   8.150   2.527
 6796TIP3    H220266   2.011   8.236   2.409
 6797TIP3   OH220267   3.710   8.406   2.185
 6797TIP3    H120268   3.620   8.398   2.149
 6797TIP3    H220269   3.743   8.314   2.173
 6798TIP3   OH220270   2.922   8.324   1.808
 6798TIP3    H120271   2.873   8.255   1.856
 6798TIP3    H220272   2.987   8.273   1.758
 6799TIP3   OH220273   3.441   8.206   1.712
 6799TIP3    H120274   3.477   8.255   1.634
 6799TIP3    H220275   3.345   8.219   1.700
 6800TIP3   OH220276   3.534   8.304   1.473
 6800TIP3    H120277   3.607   8.251   1.433
 6800TIP3    H220278   3.568   8.395   1.457
 6801TIP3   OH220279   2.166   8.031   1.819
 6801TIP3    H120280   2.074   7.997   1.821
 6801TIP3    H220281   2.215   7.947   1.816
 6802TIP3   OH220282   1.958   7.894   1.468
 6802TIP3    H120283   1.989   7.953   1.396
 6802TIP3    H220284   1.918   7.957   1.530
 6803TIP3   OH220285   2.607   8.064   1.698
 6803TIP3    H120286   2.667   8.114   1.641
 6803TIP3    H220287   2.627   8.101   1.785
 6804TIP3   OH220288   3.160   8.209   1.682
 6804TIP3    H120289   3.153   8.172   1.593
 6804TIP3    H220290   3.144   8.130   1.738
 6805TIP3   OH220291   3.185   8.132   1.245
 6805TIP3    H120292   3.098   8.173   1.257
 6805TIP3    H220293   3.171   8.047   1.292
 6806TIP3   OH220294   2.068   8.060   1.244
 6806TIP3    H120295   2.113   7.998   1.183
 6806TIP3    H220296   2.145   8.111   1.278
 6807TIP3   OH220297   2.583   8.234   1.327
 6807TIP3    H120298   2.641   8.187   1.390
 6807TIP3    H220299   2.604   8.327   1.353
 6808TIP3   OH220300   2.371   8.323   2.721
 6808TIP3    H120301   2.336   8.242   2.761
 6808TIP3    H220302   2.466   8.315   2.742
 6809TIP3   OH220303   2.625   8.314   2.835
 6809TIP3    H120304   2.705   8.283   2.790
 6809TIP3    H220305   2.610   8.241   2.899
 6810TIP3   OH220306   3.447   8.371   2.617
 6810TIP3    H120307   3.466   8.338   2.707
 6810TIP3    H220308   3.535   8.365   2.574
 6811TIP3   OH220309   3.628   8.817   1.131
 6811TIP3    H120310   3.585   8.889   1.178
 6811TIP3    H220311   3.554   8.756   1.114
 6812TIP3   OH220312   5.462   8.839   1.301
 6812TIP3    H120313   5.494   8.922   1.340
 6812TIP3    H220314   5.484   8.853   1.208
 6813TIP3   OH220315   4.859   9.023   1.333
 6813TIP3    H120316   4.903   8.939   1.354
 6813TIP3    H220317   4.825   9.004   1.244
 6814TIP3   OH220318   4.199   8.680   1.302
 6814TIP3    H120319   4.182   8.754   1.240
 6814TIP3    H220320   4.153   8.608   1.256
 6815TIP3   OH220321   4.893   8.772   0.927
 6815TIP3    H120322   4.970   8.757   0.986
 6815TIP3    H220323   4.940   8.806   0.848
 6816TIP3   OH220324   3.823   8.866   1.419
 6816TIP3    H120325   3.912   8.854   1.459
 6816TIP3    H220326   3.839   8.831   1.330
 6817TIP3   OH220327   4.282   9.084   1.197
 6817TIP3    H120328   4.370   9.048   1.220
 6817TIP3    H220329   4.236   9.006   1.162
 6818TIP3   OH220330   5.549   9.044   1.473
 6818TIP3    H120331   5.469   9.090   1.440
 6818TIP3    H220332   5.542   9.064   1.567
 6819TIP3   OH220333   4.196   8.666   1.738
 6819TIP3    H120334   4.135   8.698   1.668
 6819TIP3    H220335   4.143   8.685   1.818
 6820TIP3   OH220336   5.103   8.775   1.098
 6820TIP3    H120337   5.108   8.719   1.176
 6820TIP3    H220338   5.157   8.852   1.123
 6821TIP3   OH220339   4.065   8.772   1.521
 6821TIP3    H120340   4.125   8.849   1.538
 6821TIP3    H220341   4.113   8.732   1.445
 6822TIP3   OH220342   5.255   8.744   1.471
 6822TIP3    H120343   5.167   8.767   1.438
 6822TIP3    H220344   5.314   8.773   1.398
 6823TIP3   OH220345   4.554   8.384   1.451
 6823TIP3    H120346   4.540   8.289   1.465
 6823TIP3    H220347   4.476   8.421   1.497
 6824TIP3   OH220348   5.095   9.269   1.572
 6824TIP3    H120349   5.099   9.356   1.531
 6824TIP3    H220350   5.003   9.241   1.549
 6825TIP3   OH220351   5.183   8.343   0.560
 6825TIP3    H120352   5.101   8.343   0.615
 6825TIP3    H220353   5.184   8.437   0.535
 6826TIP3   OH220354   5.314   9.233   1.761
 6826TIP3    H120355   5.231   9.225   1.710
 6826TIP3    H220356   5.341   9.139   1.765
 6827TIP3   OH220357   4.315   8.458   1.579
 6827TIP3    H120358   4.225   8.428   1.553
 6827TIP3    H220359   4.291   8.543   1.622
 6828TIP3   OH220360   4.847   8.577   1.772
 6828TIP3    H120361   4.915   8.549   1.836
 6828TIP3    H220362   4.763   8.555   1.818
 6829TIP3   OH220363   5.094   8.987   1.693
 6829TIP3    H120364   5.046   8.984   1.780
 6829TIP3    H220365   5.061   9.076   1.666
 6830TIP3   OH220366   4.400   8.494   0.544
 6830TIP3    H120367   4.460   8.542   0.603
 6830TIP3    H220368   4.458   8.424   0.512
 6831TIP3   OH220369   4.236   8.979   1.575
 6831TIP3    H120370   4.203   8.995   1.666
 6831TIP3    H220371   4.228   9.065   1.533
 6832TIP3   OH220372   4.131   8.861   1.112
 6832TIP3    H120373   4.038   8.833   1.128
 6832TIP3    H220374   4.145   8.824   1.023
 6833TIP3   OH220375   4.629   8.955   0.836
 6833TIP3    H120376   4.546   8.998   0.806
 6833TIP3    H220377   4.669   8.929   0.752
 6834TIP3   OH220378   4.986   9.179   1.843
 6834TIP3    H120379   4.950   9.116   1.899
 6834TIP3    H220380   4.925   9.253   1.867
 6835TIP3   OH220381   4.768   8.966   1.077
 6835TIP3    H120382   4.711   8.982   0.999
 6835TIP3    H220383   4.815   8.888   1.040
 6836TIP3   OH220384   4.048   9.007   1.828
 6836TIP3    H120385   4.041   9.042   1.917
 6836TIP3    H220386   4.037   8.911   1.846
 6837TIP3   OH220387   4.084   8.496   0.510
 6837TIP3    H120388   4.131   8.489   0.595
 6837TIP3    H220389   3.994   8.480   0.537
 6838TIP3   OH220390   3.657   8.529   1.385
 6838TIP3    H120391   3.732   8.560   1.440
 6838TIP3    H220392   3.700   8.492   1.307
 6839TIP3   OH220393   3.633   8.504   0.903
 6839TIP3    H120394   3.686   8.541   0.830
 6839TIP3    H220395   3.576   8.579   0.926
 6840TIP3   OH220396   4.835   9.212   1.525
 6840TIP3    H120397   4.838   9.146   1.451
 6840TIP3    H220398   4.765   9.168   1.579
 6841TIP3   OH220399   4.459   8.680   1.173
 6841TIP3    H120400   4.376   8.681   1.224
 6841TIP3    H220401   4.525   8.689   1.243
 6842TIP3   OH220402   3.891   8.742   1.178
 6842TIP3    H120403   3.797   8.745   1.151
 6842TIP3    H220404   3.918   8.651   1.158
 6843TIP3   OH220405   4.159   8.737   0.869
 6843TIP3    H120406   4.255   8.748   0.853
 6843TIP3    H220407   4.118   8.773   0.788
 6844TIP3   OH220408   4.949   8.762   1.381
 6844TIP3    H120409   4.907   8.771   1.469
 6844TIP3    H220410   4.889   8.698   1.338
 6845TIP3   OH220411   3.995   8.774   0.636
 6845TIP3    H120412   3.917   8.728   0.603
 6845TIP3    H220413   4.056   8.766   0.561
 6846TIP3   OH220414   4.535   8.995   1.263
 6846TIP3    H120415   4.615   8.972   1.214
 6846TIP3    H220416   4.558   8.974   1.354
 6847TIP3   OH220417   4.063   8.502   1.146
 6847TIP3    H120418   4.034   8.420   1.190
 6847TIP3    H220419   4.117   8.469   1.073
 6848TIP3   OH220420   4.514   8.898   1.566
 6848TIP3    H120421   4.428   8.943   1.557
 6848TIP3    H220422   4.570   8.967   1.609
 6849TIP3   OH220423   4.481   9.257   2.017
 6849TIP3    H120424   4.421   9.343   2.043
 6849TIP3    H220425   4.397   9.220   2.141
 6850TIP3   OH220426   4.034   8.746   1.954
 6850TIP3    H120427   3.937   8.745   1.964
 6850TIP3    H220428   4.063   8.683   2.022
 6851TIP3   OH220429   4.866   8.820   1.642
 6851TIP3    H120430   4.954   8.847   1.674
 6851TIP3    H220431   4.852   8.735   1.690
 6852TIP3   OH220432   4.734   8.576   0.790
 6852TIP3    H120433   4.736   8.605   0.695
 6852TIP3    H220434   4.790   8.646   0.828
 6853TIP3   OH220435   4.442   8.744   0.900
 6853TIP3    H120436   4.520   8.799   0.880
 6853TIP3    H220437   4.449   8.734   0.998
 6854TIP3   OH220438   4.702   9.055   1.703
 6854TIP3    H120439   4.731   9.096   1.786
 6854TIP3    H220440   4.755   8.974   1.701
 6855TIP3   OH220441   4.595   8.471   1.005
 6855TIP3    H120442   4.580   8.550   1.061
 6855TIP3    H220443   4.649   8.509   0.932
 6856TIP3   OH220444   4.098   8.467   0.795
 6856TIP3    H120445   4.102   8.559   0.828
 6856TIP3    H220446   4.193   8.443   0.807
 6857TIP3   OH220447   5.361   8.964   1.688
 6857TIP3    H120448   5.263   8.960   1.700
 6857TIP3    H220449   5.367   8.917   1.603
 6858TIP3   OH220450   4.989   9.146   1.073
 6858TIP3    H120451   4.923   9.076   1.088
 6858TIP3    H220452   5.066   9.113   1.124
 6859TIP3   OH220453   3.667   8.669   0.675
 6859TIP3    H120454   3.659   8.765   0.684
 6859TIP3    H220455   3.578   8.640   0.651
 6860TIP3   OH220456   4.048   8.380   1.556
 6860TIP3    H120457   4.019   8.348   1.468
 6860TIP3    H220458   4.039   8.301   1.612
 6861TIP3   OH220459   4.033   9.266   2.158
 6861TIP3    H120460   4.074   9.186   2.191
 6861TIP3    H220461   4.020   9.321   2.239
 6862TIP3   OH220462   4.323   9.081   1.821
 6862TIP3    H120463   4.246   9.135   1.831
 6862TIP3    H220464   4.363   9.113   1.738
 6863TIP3   OH220465   4.455   8.918   1.990
 6863TIP3    H120466   4.465   8.841   1.932
 6863TIP3    H220467   4.410   8.981   1.929
 6864TIP3   OH220468   4.457   8.729   1.779
 6864TIP3    H120469   4.484   8.776   1.697
 6864TIP3    H220470   4.363   8.711   1.762
 6865TIP3   OH220471   5.124   9.267   2.087
 6865TIP3    H120472   5.118   9.175   2.076
 6865TIP3    H220473   5.183   9.295   2.023
 6866TIP3   OH220474   4.313   9.079   2.191
 6866TIP3    H120475   4.257   9.000   2.216
 6866TIP3    H220476   4.360   9.041   2.113
 6867TIP3   OH220477   4.589   8.501   1.852
 6867TIP3    H120478   4.541   8.582   1.825
 6867TIP3    H220479   4.521   8.432   1.838
 6868TIP3   OH220480   4.724   8.994   2.061
 6868TIP3    H120481   4.712   8.990   2.154
 6868TIP3    H220482   4.632   8.975   2.030
 6869TIP3   OH220483   4.955   8.917   1.932
 6869TIP3    H120484   4.878   8.922   1.990
 6869TIP3    H220485   5.029   8.898   1.987
 6870TIP3   OH220486   5.192   8.899   2.077
 6870TIP3    H120487   5.201   8.803   2.093
 6870TIP3    H220488   5.185   8.936   2.167
 6871TIP3   OH220489   4.169   8.849   2.260
 6871TIP3    H120490   4.176   8.760   2.219
 6871TIP3    H220491   4.205   8.830   2.349
 6872TIP3   OH220492   4.681   8.511   2.109
 6872TIP3    H120493   4.749   8.442   2.102
 6872TIP3    H220494   4.642   8.507   2.020
 6873TIP3   OH220495   4.748   8.725   2.268
 6873TIP3    H120496   4.726   8.655   2.203
 6873TIP3    H220497   4.671   8.785   2.260
 6874TIP3   OH220498   5.112   9.120   0.830
 6874TIP3    H120499   5.109   9.023   0.821
 6874TIP3    H220500   5.077   9.133   0.921
 6875TIP3   OH220501   5.527   9.387   1.691
 6875TIP3    H120502   5.450   9.333   1.719
 6875TIP3    H220503   5.598   9.321   1.698
 6876TIP3   OH220504   5.070   8.860   0.729
 6876TIP3    H120505   5.097   8.765   0.738
 6876TIP3    H220506   5.080   8.869   0.633
 6877TIP3   OH220507   5.216   9.027   1.189
 6877TIP3    H120508   5.299   9.054   1.146
 6877TIP3    H220509   5.235   9.060   1.279
 6878TIP3   OH220510   5.298   9.154   1.419
 6878TIP3    H120511   5.221   9.184   1.472
 6878TIP3    H220512   5.344   9.239   1.403
 6879TIP3   OH220513   3.899   8.910   2.239
 6879TIP3    H120514   3.996   8.896   2.232
 6879TIP3    H220515   3.874   8.822   2.274
 6880TIP3   OH220516   5.740   8.763   1.987
 6880TIP3    H120517   5.797   8.696   1.945
 6880TIP3    H220518   5.711   8.817   1.910
 6881TIP3   OH220519   5.149   8.602   0.753
 6881TIP3    H120520   5.206   8.582   0.829
 6881TIP3    H220521   5.090   8.524   0.751
 6882TIP3   OH220522   3.860   8.584   1.568
 6882TIP3    H120523   3.926   8.512   1.573
 6882TIP3    H220524   3.919   8.661   1.554
 6883TIP3   OH220525   3.666   8.870   1.642
 6883TIP3    H120526   3.714   8.858   1.557
 6883TIP3    H220527   3.692   8.961   1.662
 6884TIP3   OH220528   5.611   8.904   1.792
 6884TIP3    H120529   5.520   8.939   1.804
 6884TIP3    H220530   5.590   8.830   1.732
 6885TIP3   OH220531   3.651   8.368   1.136
 6885TIP3    H120532   3.557   8.363   1.160
 6885TIP3    H220533   3.648   8.423   1.055
 6886TIP3   OH220534   3.872   8.449   1.952
 6886TIP3    H120535   3.817   8.441   2.032
 6886TIP3    H220536   3.806   8.484   1.888
 6887TIP3   OH220537   5.506   8.663   1.672
 6887TIP3    H120538   5.416   8.655   1.635
 6887TIP3    H220539   5.538   8.571   1.661
 6888TIP3   OH220540   4.718   8.582   1.296
 6888TIP3    H120541   4.670   8.510   1.342
 6888TIP3    H220542   4.782   8.533   1.242
 6889TIP3   OH220543   5.236   8.466   1.202
 6889TIP3    H120544   5.273   8.514   1.124
 6889TIP3    H220545   5.140   8.476   1.188
 6890TIP3   OH220546   5.330   8.564   0.965
 6890TIP3    H120547   5.401   8.512   0.923
 6890TIP3    H220548   5.360   8.655   0.943
 6891TIP3   OH220549   3.961   8.288   1.308
 6891TIP3    H120550   3.869   8.254   1.308
 6891TIP3    H220551   4.010   8.203   1.304
 6892TIP3   OH220552   3.744   8.156   0.952
 6892TIP3    H120553   3.780   8.213   0.881
 6892TIP3    H220554   3.720   8.222   1.020
 6893TIP3   OH220555   4.403   8.319   1.189
 6893TIP3    H120556   4.457   8.367   1.124
 6893TIP3    H220557   4.432   8.361   1.272
 6894TIP3   OH220558   4.955   8.466   1.169
 6894TIP3    H120559   4.947   8.433   1.079
 6894TIP3    H220560   4.939   8.384   1.222
 6895TIP3   OH220561   4.980   8.384   0.738
 6895TIP3    H120562   4.894   8.423   0.718
 6895TIP3    H220563   4.955   8.302   0.786
 6896TIP3   OH220564   3.866   8.320   0.721
 6896TIP3    H120565   3.910   8.252   0.665
 6896TIP3    H220566   3.944   8.368   0.756
 6897TIP3   OH220567   4.365   8.484   0.849
 6897TIP3    H120568   4.443   8.444   0.890
 6897TIP3    H220569   4.391   8.578   0.849
 6898TIP3   OH220570   4.167   8.569   2.199
 6898TIP3    H120571   4.136   8.496   2.255
 6898TIP3    H220572   4.263   8.570   2.223
 6899TIP3   OH220573   4.418   8.568   2.317
 6899TIP3    H120574   4.501   8.543   2.273
 6899TIP3    H220575   4.408   8.495   2.382
 6900TIP3   OH220576   5.243   8.627   2.104
 6900TIP3    H120577   5.263   8.595   2.195
 6900TIP3    H220578   5.331   8.621   2.061
 6901TIP3   OH220579   5.621   9.125   0.887
 6901TIP3    H120580   5.705   9.113   0.935
 6901TIP3    H220581   5.633   9.063   0.814
 6902TIP3   OH220582   5.991   8.929   1.224
 6902TIP3    H120583   5.930   8.951   1.151
 6902TIP3    H220584   5.934   8.944   1.302
 6903TIP3   OH220585   5.865   9.029   0.996
 6903TIP3    H120586   5.929   9.099   1.021
 6903TIP3    H220587   5.898   9.013   0.904
 6904TIP3   OH220588   6.363   8.627   0.964
 6904TIP3    H120589   6.326   8.538   0.981
 6904TIP3    H220590   6.282   8.681   0.969
 6905TIP3   OH220591   6.107   8.713   1.069
 6905TIP3    H120592   6.018   8.683   1.043
 6905TIP3    H220593   6.086   8.801   1.106
 6906TIP3   OH220594   6.643   8.840   1.259
 6906TIP3    H120595   6.708   8.805   1.323
 6906TIP3    H220596   6.557   8.816   1.299
 6907TIP3   OH220597   6.902   9.271   1.186
 6907TIP3    H120598   6.853   9.253   1.269
 6907TIP3    H220599   6.838   9.323   1.137
 6908TIP3   OH220600   6.025   9.239   1.068
 6908TIP3    H120601   5.978   9.253   1.152
 6908TIP3    H220602   6.039   9.327   1.032
 6909TIP3   OH220603   6.604   9.470   1.412
 6909TIP3    H120604   6.596   9.385   1.460
 6909TIP3    H220605   6.696   9.494   1.432
 6910TIP3   OH220606   5.872   9.266   1.319
 6910TIP3    H120607   5.829   9.304   1.398
 6910TIP3    H220608   5.845   9.173   1.330
 6911TIP3   OH220609   5.463   8.785   0.873
 6911TIP3    H120610   5.533   8.813   0.936
 6911TIP3    H220611   5.512   8.740   0.804
 6912TIP3   OH220612   6.306   9.149   1.081
 6912TIP3    H120613   6.231   9.192   1.036
 6912TIP3    H220614   6.368   9.223   1.095
 6913TIP3   OH220615   6.346   9.510   1.508
 6913TIP3    H120616   6.300   9.481   1.427
 6913TIP3    H220617   6.433   9.469   1.493
 6914TIP3   OH220618   5.828   9.004   1.440
 6914TIP3    H120619   5.731   9.004   1.451
 6914TIP3    H220620   5.855   8.938   1.506
 6915TIP3   OH220621   6.659   9.097   1.146
 6915TIP3    H120622   6.754   9.096   1.159
 6915TIP3    H220623   6.636   9.005   1.170
 6916TIP3   OH220624   6.497   9.318   1.196
 6916TIP3    H120625   6.543   9.359   1.271
 6916TIP3    H220626   6.549   9.236   1.182
 6917TIP3   OH220627   7.171   9.204   1.155
 6917TIP3    H120628   7.080   9.228   1.181
 6917TIP3    H220629   7.169   9.218   1.060
 6918TIP3   OH220630   5.841   8.638   1.048
 6918TIP3    H120631   5.811   8.607   0.959
 6918TIP3    H220632   5.834   8.556   1.101
 6919TIP3   OH220633   5.827   9.524   1.643
 6919TIP3    H120634   5.860   9.440   1.676
 6919TIP3    H220635   5.815   9.578   1.724
 6920TIP3   OH220636   6.138   9.368   1.309
 6920TIP3    H120637   6.041   9.354   1.315
 6920TIP3    H220638   6.154   9.366   1.214
 6921TIP3   OH220639   6.257   9.187   1.476
 6921TIP3    H120640   6.259   9.103   1.424
 6921TIP3    H220641   6.214   9.245   1.410
 6922TIP3   OH220642   6.249   8.986   1.286
 6922TIP3    H120643   6.278   9.036   1.206
 6922TIP3    H220644   6.157   8.965   1.261
 6923TIP3   OH220645   6.879   9.511   1.520
 6923TIP3    H120646   6.888   9.416   1.538
 6923TIP3    H220647   6.966   9.528   1.482
 6924TIP3   OH220648   6.116   9.326   1.690
 6924TIP3    H120649   6.055   9.249   1.698
 6924TIP3    H220650   6.160   9.305   1.605
 6925TIP3   OH220651   6.389   8.758   1.338
 6925TIP3    H120652   6.337   8.838   1.316
 6925TIP3    H220653   6.322   8.688   1.322
 6926TIP3   OH220654   6.514   9.254   1.551
 6926TIP3    H120655   6.501   9.242   1.647
 6926TIP3    H220656   6.426   9.223   1.520
 6927TIP3   OH220657   6.763   9.224   1.416
 6927TIP3    H120658   6.681   9.200   1.463
 6927TIP3    H220659   6.832   9.182   1.471
 6928TIP3   OH220660   6.979   9.152   1.568
 6928TIP3    H120661   6.992   9.056   1.585
 6928TIP3    H220662   6.979   9.191   1.658
 6929TIP3   OH220663   5.965   9.104   1.746
 6929TIP3    H120664   5.968   9.014   1.707
 6929TIP3    H220665   6.002   9.087   1.835
 6930TIP3   OH220666   6.479   8.769   1.596
 6930TIP3    H120667   6.544   8.697   1.587
 6930TIP3    H220668   6.438   8.765   1.507
 6931TIP3   OH220669   6.545   8.983   1.755
 6931TIP3    H120670   6.523   8.912   1.690
 6931TIP3    H220671   6.467   9.041   1.748
 6932TIP3   OH220672   5.698   9.168   1.729
 6932TIP3    H120673   5.794   9.151   1.720
 6932TIP3    H220674   5.670   9.080   1.762
 6933TIP3   OH220675   7.517   9.028   1.456
 6933TIP3    H120676   7.569   8.944   1.446
 6933TIP3    H220677   7.479   9.039   1.368
 6934TIP3   OH220678   5.660   8.846   1.056
 6934TIP3    H120679   5.719   8.767   1.060
 6934TIP3    H220680   5.726   8.915   1.039
 6935TIP3   OH220681   5.467   9.125   1.125
 6935TIP3    H120682   5.510   9.113   1.038
 6935TIP3    H220683   5.488   9.217   1.144
 6936TIP3   OH220684   5.669   8.709   1.442
 6936TIP3    H120685   5.612   8.698   1.520
 6936TIP3    H220686   5.603   8.741   1.376
 6937TIP3   OH220687   7.319   8.917   1.172
 6937TIP3    H120688   7.229   8.918   1.134
 6937TIP3    H220689   7.350   8.828   1.144
 6938TIP3   OH220690   5.747   8.546   0.811
 6938TIP3    H120691   5.659   8.507   0.793
 6938TIP3    H220692   5.804   8.468   0.792
 6939TIP3   OH220693   5.963   8.830   1.690
 6939TIP3    H120694   5.931   8.754   1.742
 6939TIP3    H220695   6.059   8.828   1.711
 6940TIP3   OH220696   6.216   8.826   1.805
 6940TIP3    H120697   6.296   8.798   1.759
 6940TIP3    H220698   6.203   8.753   1.869
 6941TIP3   OH220699   7.039   8.883   1.592
 6941TIP3    H120700   7.060   8.851   1.682
 6941TIP3    H220701   7.126   8.876   1.547
 6942TIP3   OH220702   1.777   0.222   6.062
 6942TIP3    H120703   1.839   0.172   6.117
 6942TIP3    H220704   1.790   0.311   6.100
 6943TIP3   OH220705   1.398   0.649   6.082
 6943TIP3    H120706   1.442   0.578   6.031
 6943TIP3    H220707   1.428   0.632   6.172
 6944TIP3   OH220708   1.817   0.443   6.235
 6944TIP3    H120709   1.735   0.450   6.286
 6944TIP3    H220710   1.824   0.534   6.197
 6945TIP3   OH220711   1.536   0.488   5.907
 6945TIP3    H120712   1.579   0.404   5.881
 6945TIP3    H220713   1.600   0.553   5.871
 6946TIP3   OH220714   1.645   0.248   5.815
 6946TIP3    H120715   1.683   0.188   5.747
 6946TIP3    H220716   1.710   0.242   5.887
 6947TIP3   OH220717   2.082   0.355   6.579
 6947TIP3    H120718   2.041   0.277   6.536
 6947TIP3    H220719   2.049   0.429   6.524
 6948TIP3   OH220720   2.276   0.006   6.427
 6948TIP3    H120721   2.180   0.021   6.438
 6948TIP3    H220722   2.288   0.023   6.332
 6949TIP3   OH220723   1.855   0.301   5.231
 6949TIP3    H120724   1.861   0.398   5.216
 6949TIP3    H220725   1.947   0.273   5.217
 6950TIP3   OH220726   2.299   0.701   6.627
 6950TIP3    H120727   2.299   0.604   6.640
 6950TIP3    H220728   2.216   0.725   6.674
 6951TIP3   OH220729   1.168   0.623   5.705
 6951TIP3    H120730   1.123   0.608   5.621
 6951TIP3    H220731   1.136   0.711   5.733
 6952TIP3   OH220732   1.370   0.517   5.358
 6952TIP3    H120733   1.432   0.451   5.318
 6952TIP3    H220734   1.406   0.524   5.448
 6953TIP3   OH220735   1.423   0.569   5.628
 6953TIP3    H120736   1.334   0.577   5.670
 6953TIP3    H220737   1.482   0.570   5.705
 6954TIP3   OH220738   1.985   1.052   6.725
 6954TIP3    H120739   1.985   1.073   6.629
 6954TIP3    H220740   2.065   1.099   6.755
 6955TIP3   OH220741   2.017   0.132   6.413
 6955TIP3    H120742   2.066   0.183   6.344
 6955TIP3    H220743   1.925   0.149   6.388
 6956TIP3   OH220744   2.323   0.417   6.668
 6956TIP3    H120745   2.225   0.408   6.665
 6956TIP3    H220746   2.344   0.383   6.578
 6957TIP3   OH220747   1.795   0.361   5.495
 6957TIP3    H120748   1.764   0.282   5.540
 6957TIP3    H220749   1.803   0.330   5.403
 6958TIP3   OH220750   1.576   0.109   5.393
 6958TIP3    H120751   1.601   0.074   5.480
 6958TIP3    H220752   1.478   0.101   5.398
 6959TIP3   OH220753   1.830   0.738   6.560
 6959TIP3    H120754   1.744   0.692   6.554
 6959TIP3    H220755   1.817   0.810   6.495
 6960TIP3   OH220756   1.888   0.576   5.219
 6960TIP3    H120757   1.927   0.652   5.170
 6960TIP3    H220758   1.806   0.620   5.249
 6961TIP3   OH220759   1.719   0.038   5.645
 6961TIP3    H120760   1.709  -0.053   5.678
 6961TIP3    H220761   1.812   0.033   5.613
 6962TIP3   OH220762   1.843   0.706   6.156
 6962TIP3    H120763   1.801   0.756   6.082
 6962TIP3    H220764   1.937   0.731   6.139
 6963TIP3   OH220765   1.809   0.589   6.886
 6963TIP3    H120766   1.719   0.581   6.922
 6963TIP3    H220767   1.843   0.664   6.937
 6964TIP3   OH220768   1.531   0.338   5.229
 6964TIP3    H120769   1.567   0.263   5.279
 6964TIP3    H220770   1.579   0.331   5.144
 6965TIP3   OH220771   1.894  -0.164   5.236
 6965TIP3    H120772   1.859  -0.214   5.160
 6965TIP3    H220773   1.847  -0.079   5.223
 6966TIP3   OH220774   2.090   0.808   6.115
 6966TIP3    H120775   2.128   0.846   6.196
 6966TIP3    H220776   2.160   0.827   6.050
 6967TIP3   OH220777   2.126   0.827   6.401
 6967TIP3    H120778   2.085   0.739   6.392
 6967TIP3    H220779   2.203   0.804   6.454
 6968TIP3   OH220780   2.189   0.498   6.962
 6968TIP3    H120781   2.110   0.501   7.019
 6968TIP3    H220782   2.221   0.590   6.970
 6969TIP3   OH220783   1.990   0.018   5.595
 6969TIP3    H120784   2.060   0.079   5.566
 6969TIP3    H220785   2.033  -0.027   5.671
 6970TIP3   OH220786   2.114  -0.113   5.805
 6970TIP3    H120787   2.046  -0.100   5.873
 6970TIP3    H220788   2.194  -0.076   5.847
 6971TIP3   OH220789   2.161   0.268   6.223
 6971TIP3    H120790   2.222   0.207   6.178
 6971TIP3    H220791   2.169   0.349   6.168
 6972TIP3   OH220792   2.003   0.573   6.422
 6972TIP3    H120793   1.937   0.621   6.476
 6972TIP3    H220794   1.949   0.530   6.354
 6973TIP3   OH220795   2.058  -0.206   5.442
 6973TIP3    H120796   1.994  -0.196   5.367
 6973TIP3    H220797   2.027  -0.135   5.500
 6974TIP3   OH220798   2.226   0.170   6.801
 6974TIP3    H120799   2.289   0.096   6.788
 6974TIP3    H220800   2.243   0.229   6.726
 6975TIP3   OH220801   2.394  -0.046   6.817
 6975TIP3    H120802   2.332  -0.117   6.839
 6975TIP3    H220803   2.480  -0.086   6.834
 6976TIP3   OH220804   1.679   0.668   5.772
 6976TIP3    H120805   1.730   0.656   5.688
 6976TIP3    H220806   1.731   0.738   5.816
 6977TIP3   OH220807   1.578   0.925   6.681
 6977TIP3    H120808   1.633   0.846   6.671
 6977TIP3    H220809   1.625   0.969   6.755
 6978TIP3   OH220810   1.336   0.785   6.370
 6978TIP3    H120811   1.243   0.783   6.340
 6978TIP3    H220812   1.337   0.868   6.422
 6979TIP3   OH220813   1.584   0.707   6.429
 6979TIP3    H120814   1.494   0.735   6.405
 6979TIP3    H220815   1.635   0.784   6.398
 6980TIP3   OH220816   1.774   0.904   6.348
 6980TIP3    H120817   1.759   0.991   6.304
 6980TIP3    H220818   1.803   0.849   6.273
 6981TIP3   OH220819   1.109   0.498   5.432
 6981TIP3    H120820   1.203   0.523   5.413
 6981TIP3    H220821   1.104   0.421   5.375
 6982TIP3   OH220822   1.816   0.630   5.539
 6982TIP3    H120823   1.812   0.533   5.522
 6982TIP3    H220824   1.778   0.666   5.457
 6983TIP3   OH220825   2.055   0.783   6.733
 6983TIP3    H120826   1.977   0.742   6.691
 6983TIP3    H220827   2.029   0.877   6.730
 6984TIP3   OH220828   3.319   0.152   5.496
 6984TIP3    H120829   3.292   0.244   5.478
 6984TIP3    H220830   3.243   0.104   5.459
 6985TIP3   OH220831   3.319   0.154   5.873
 6985TIP3    H120832   3.349   0.118   5.958
 6985TIP3    H220833   3.274   0.076   5.835
 6986TIP3   OH220834   2.615   0.052   6.235
 6986TIP3    H120835   2.650  -0.012   6.299
 6986TIP3    H220836   2.688   0.115   6.231
 6987TIP3   OH220837   3.561   0.457   5.555
 6987TIP3    H120838   3.546   0.387   5.620
 6987TIP3    H220839   3.588   0.531   5.611
 6988TIP3   OH220840   2.593   0.450   5.975
 6988TIP3    H120841   2.584   0.352   5.973
 6988TIP3    H220842   2.689   0.460   5.965
 6989TIP3   OH220843   2.287  -0.348   5.757
 6989TIP3    H120844   2.251  -0.259   5.774
 6989TIP3    H220845   2.212  -0.388   5.712
 6990TIP3   OH220846   2.358  -0.054   5.912
 6990TIP3    H120847   2.406  -0.128   5.956
 6990TIP3    H220848   2.427  -0.017   5.855
 6991TIP3   OH220849   3.208   0.918   5.569
 6991TIP3    H120850   3.257   0.844   5.527
 6991TIP3    H220851   3.197   0.886   5.660
 6992TIP3   OH220852   3.116   0.378   5.924
 6992TIP3    H120853   3.154   0.302   5.876
 6992TIP3    H220854   3.200   0.424   5.947
 6993TIP3   OH220855   3.529  -0.112   5.957
 6993TIP3    H120856   3.562  -0.200   5.980
 6993TIP3    H220857   3.498  -0.126   5.865
 6994TIP3   OH220858   2.503  -0.257   6.026
 6994TIP3    H120859   2.579  -0.283   6.082
 6994TIP3    H220860   2.521  -0.313   5.948
 6995TIP3   OH220861   2.942  -0.058   5.825
 6995TIP3    H120862   3.033  -0.091   5.839
 6995TIP3    H220863   2.897  -0.140   5.793
 6996TIP3   OH220864   4.177  -0.116   6.112
 6996TIP3    H120865   4.113  -0.048   6.083
 6996TIP3    H220866   4.224  -0.071   6.184
 6997TIP3   OH220867   3.213   0.375   5.369
 6997TIP3    H120868   3.177   0.350   5.283
 6997TIP3    H220869   3.169   0.461   5.386
 6998TIP3   OH220870   2.975   0.295   6.158
 6998TIP3    H120871   2.910   0.359   6.194
 6998TIP3    H220872   3.013   0.345   6.084
 6999TIP3   OH220873   2.743  -0.354   6.127
 6999TIP3    H120874   2.807  -0.284   6.149
 6999TIP3    H220875   2.780  -0.393   6.048
 7000TIP3   OH220876   2.799   0.490   6.248
 7000TIP3    H120877   2.773   0.575   6.207
 7000TIP3    H220878   2.720   0.475   6.304
 7001TIP3   OH220879   2.195   0.185   5.481
 7001TIP3    H120880   2.135   0.218   5.412
 7001TIP3    H220881   2.221   0.270   5.524
 7002TIP3   OH220882   3.633   0.698   5.724
 7002TIP3    H120883   3.544   0.690   5.764
 7002TIP3    H220884   3.625   0.784   5.679
 7003TIP3   OH220885   3.336   0.742   5.400
 7003TIP3    H120886   3.387   0.661   5.377
 7003TIP3    H220887   3.395   0.810   5.360
 7004TIP3   OH220888   3.477   0.529   5.303
 7004TIP3    H120889   3.445   0.447   5.262
 7004TIP3    H220890   3.513   0.495   5.388
 7005TIP3   OH220891   3.858   0.611   6.068
 7005TIP3    H120892   3.846   0.535   6.008
 7005TIP3    H220893   3.839   0.687   6.009
 7006TIP3   OH220894   3.146   0.012   5.328
 7006TIP3    H120895   3.062   0.043   5.292
 7006TIP3    H220896   3.200   0.001   5.247
 7007TIP3   OH220897   3.113  -0.212   5.040
 7007TIP3    H120898   3.189  -0.162   5.075
 7007TIP3    H220899   3.152  -0.301   5.032
 7008TIP3   OH220900   4.052   0.245   5.914
 7008TIP3    H120901   3.968   0.297   5.918
 7008TIP3    H220902   4.081   0.269   5.824
 7009TIP3   OH220903   3.500   0.091   5.298
 7009TIP3    H120904   3.446   0.114   5.376
 7009TIP3    H220905   3.583   0.062   5.341
 7010TIP3   OH220906   3.730   0.134   6.200
 7010TIP3    H120907   3.727   0.218   6.248
 7010TIP3    H220908   3.643   0.137   6.153
 7011TIP3   OH220909   2.733   0.087   5.712
 7011TIP3    H120910   2.687   0.028   5.647
 7011TIP3    H220911   2.807   0.030   5.742
 7012TIP3   OH220912   2.859   0.495   5.862
 7012TIP3    H120913   2.840   0.447   5.780
 7012TIP3    H220914   2.949   0.464   5.883
 7013TIP3   OH220915   2.871   0.052   6.071
 7013TIP3    H120916   2.899   0.031   5.980
 7013TIP3    H220917   2.912   0.140   6.087
 7014TIP3   OH220918   3.393   0.694   5.844
 7014TIP3    H120919   3.376   0.775   5.895
 7014TIP3    H220920   3.376   0.623   5.909
 7015TIP3   OH220921   3.002   0.612   6.393
 7015TIP3    H120922   2.941   0.676   6.438
 7015TIP3    H220923   2.937   0.560   6.342
 7016TIP3   OH220924   3.321  -0.041   5.126
 7016TIP3    H120925   3.397  -0.006   5.176
 7016TIP3    H220926   3.353  -0.030   5.034
 7017TIP3   OH220927   2.739   0.178   6.488
 7017TIP3    H120928   2.746   0.262   6.538
 7017TIP3    H220929   2.646   0.154   6.507
 7018TIP3   OH220930   3.076   0.629   5.380
 7018TIP3    H120931   3.157   0.674   5.413
 7018TIP3    H220932   3.015   0.703   5.370
 7019TIP3   OH220933   2.798   0.783   6.478
 7019TIP3    H120934   2.764   0.783   6.387
 7019TIP3    H220935   2.718   0.760   6.531
 7020TIP3   OH220936   2.590  -0.066   5.524
 7020TIP3    H120937   2.517  -0.040   5.463
 7020TIP3    H220938   2.575  -0.161   5.534
 7021TIP3   OH220939   3.648   0.556   4.718
 7021TIP3    H120940   3.656   0.654   4.706
 7021TIP3    H220941   3.741   0.528   4.702
 7022TIP3   OH220942   2.379   0.312   6.423
 7022TIP3    H120943   2.311   0.290   6.357
 7022TIP3    H220944   2.411   0.224   6.451
 7023TIP3   OH220945   2.232   0.499   6.069
 7023TIP3    H120946   2.325   0.500   6.043
 7023TIP3    H220947   2.223   0.586   6.111
 7024TIP3   OH220948   4.096   0.956   6.115
 7024TIP3    H120949   4.092   0.860   6.128
 7024TIP3    H220950   4.012   0.983   6.159
 7025TIP3   OH220951   3.203   0.741   6.250
 7025TIP3    H120952   3.201   0.834   6.281
 7025TIP3    H220953   3.129   0.703   6.303
 7026TIP3   OH220954   2.960   0.871   5.199
 7026TIP3    H120955   2.916   0.864   5.113
 7026TIP3    H220956   2.923   0.953   5.236
 7027TIP3   OH220957   3.162   0.770   4.842
 7027TIP3    H120958   3.223   0.703   4.804
 7027TIP3    H220959   3.199   0.782   4.932
 7028TIP3   OH220960   3.213   0.818   5.111
 7028TIP3    H120961   3.126   0.832   5.155
 7028TIP3    H220962   3.265   0.784   5.186
 7029TIP3   OH220963   3.987   0.081   6.405
 7029TIP3    H120964   3.913   0.123   6.360
 7029TIP3    H220965   4.002   0.002   6.351
 7030TIP3   OH220966   2.583   0.495   6.414
 7030TIP3    H120967   2.631   0.477   6.498
 7030TIP3    H220968   2.508   0.432   6.421
 7031TIP3   OH220969   3.665  -0.049   6.406
 7031TIP3    H120970   3.694  -0.138   6.381
 7031TIP3    H220971   3.673   0.002   6.324
 7032TIP3   OH220972   3.410   0.001   4.868
 7032TIP3    H120973   3.380  -0.041   4.785
 7032TIP3    H220974   3.492   0.045   4.839
 7033TIP3   OH220975   2.922  -0.167   6.224
 7033TIP3    H120976   2.861  -0.147   6.298
 7033TIP3    H220977   2.905  -0.090   6.165
 7034TIP3   OH220978   2.782  -0.255   5.723
 7034TIP3    H120979   2.708  -0.309   5.755
 7034TIP3    H220980   2.806  -0.303   5.641
 7035TIP3   OH220981   3.291  -0.188   5.450
 7035TIP3    H120982   3.234  -0.116   5.417
 7035TIP3    H220983   3.339  -0.212   5.369
 7036TIP3   OH220984   3.457   0.125   6.507
 7036TIP3    H120985   3.473   0.222   6.518
 7036TIP3    H220986   3.545   0.089   6.530
 7037TIP3   OH220987   3.449  -0.163   5.694
 7037TIP3    H120988   3.390  -0.131   5.623
 7037TIP3    H220989   3.480  -0.245   5.654
 7038TIP3   OH220990   2.738  -0.124   6.420
 7038TIP3    H120991   2.744  -0.065   6.497
 7038TIP3    H220992   2.691  -0.201   6.455
 7039TIP3   OH220993   3.463   0.085   6.127
 7039TIP3    H120994   3.488   0.010   6.068
 7039TIP3    H220995   3.420   0.038   6.201
 7040TIP3   OH220996   2.555  -0.404   5.799
 7040TIP3    H120997   2.461  -0.387   5.774
 7040TIP3    H220998   2.564  -0.498   5.777
 7041TIP3   OH220999   2.841  -0.384   5.487
 7041TIP3    H121000   2.929  -0.410   5.454
 7041TIP3    H221001   2.785  -0.393   5.408
 7042TIP3   OH221002   2.653  -0.364   5.265
 7042TIP3    H121003   2.600  -0.419   5.204
 7042TIP3    H221004   2.719  -0.329   5.201
 7043TIP3   OH221005   3.785   1.306   6.212
 7043TIP3    H121006   3.782   1.331   6.118
 7043TIP3    H221007   3.862   1.357   6.243
 7044TIP3   OH221008   2.744   0.416   6.634
 7044TIP3    H121009   2.823   0.447   6.683
 7044TIP3    H221010   2.678   0.417   6.706
 7045TIP3   OH221011   3.211  -0.126   5.897
 7045TIP3    H121012   3.268  -0.180   5.841
 7045TIP3    H221013   3.206  -0.179   5.979
 7046TIP3   OH221014   3.189  -0.242   6.191
 7046TIP3    H121015   3.099  -0.205   6.198
 7046TIP3    H221016   3.241  -0.183   6.248
 7047TIP3   OH221017   2.888   0.192   5.259
 7047TIP3    H121018   2.839   0.105   5.257
 7047TIP3    H221019   2.890   0.206   5.357
 7048TIP3   OH221020   3.822   0.392   5.904
 7048TIP3    H121021   3.845   0.443   5.823
 7048TIP3    H221022   3.736   0.351   5.879
 7049TIP3   OH221023   3.325   0.482   6.270
 7049TIP3    H121024   3.332   0.457   6.363
 7049TIP3    H221025   3.281   0.569   6.274
 7050TIP3   OH221026   2.612   0.172   5.949
 7050TIP3    H121027   2.653   0.147   5.864
 7050TIP3    H221028   2.651   0.110   6.011
 7051TIP3   OH221029   3.073   0.308   5.097
 7051TIP3    H121030   3.025   0.392   5.104
 7051TIP3    H221031   3.017   0.250   5.153
 7052TIP3   OH221032   2.491   0.101   6.568
 7052TIP3    H121033   2.503   0.082   6.663
 7052TIP3    H221034   2.416   0.044   6.543
 7053TIP3   OH221035   3.206   0.219   6.592
 7053TIP3    H121036   3.126   0.175   6.553
 7053TIP3    H221037   3.276   0.179   6.536
 7054TIP3   OH221038   3.482   0.735   6.168
 7054TIP3    H121039   3.386   0.733   6.179
 7054TIP3    H221040   3.508   0.788   6.246
 7055TIP3   OH221041   3.935  -0.241   5.027
 7055TIP3    H121042   3.849  -0.264   4.983
 7055TIP3    H221043   3.929  -0.144   5.016
 7056TIP3   OH221044   4.108   0.661   6.158
 7056TIP3    H121045   4.010   0.660   6.148
 7056TIP3    H221046   4.134   0.635   6.067
 7057TIP3   OH221047   3.594   0.625   4.985
 7057TIP3    H121048   3.562   0.557   5.046
 7057TIP3    H221049   3.600   0.579   4.900
 7058TIP3   OH221050   3.587   0.255   5.826
 7058TIP3    H121051   3.493   0.230   5.836
 7058TIP3    H221052   3.620   0.176   5.778
 7059TIP3   OH221053   2.705   0.482   5.561
 7059TIP3    H121054   2.703   0.572   5.523
 7059TIP3    H221055   2.617   0.478   5.601
 7060TIP3   OH221056   2.273  -0.217   5.274
 7060TIP3    H121057   2.321  -0.135   5.296
 7060TIP3    H221058   2.199  -0.211   5.338
 7061TIP3   OH221059   2.855   0.253   5.519
 7061TIP3    H121060   2.812   0.338   5.539
 7061TIP3    H221061   2.821   0.197   5.592
 7062TIP3   OH221062   2.983   0.827   6.048
 7062TIP3    H121063   3.019   0.900   5.993
 7062TIP3    H221064   3.062   0.796   6.094
 7063TIP3   OH221065   2.623   0.724   5.428
 7063TIP3    H121066   2.550   0.758   5.484
 7063TIP3    H221067   2.673   0.809   5.420
 7064TIP3   OH221068   3.371   0.461   6.002
 7064TIP3    H121069   3.364   0.462   6.100
 7064TIP3    H221070   3.451   0.408   5.989
 7065TIP3   OH221071   3.345   0.355   4.886
 7065TIP3    H121072   3.400   0.330   4.964
 7065TIP3    H221073   3.259   0.321   4.915
 7066TIP3   OH221074   3.620   0.995   6.052
 7066TIP3    H121075   3.540   0.941   6.044
 7066TIP3    H221076   3.605   1.062   5.981
 7067TIP3   OH221077   3.686   0.830   4.706
 7067TIP3    H121078   3.713   0.899   4.644
 7067TIP3    H221079   3.605   0.873   4.741
 7068TIP3   OH221080   3.505   0.293   5.104
 7068TIP3    H121081   3.491   0.222   5.170
 7068TIP3    H221082   3.601   0.286   5.091
 7069TIP3   OH221083   2.420   0.690   6.211
 7069TIP3    H121084   2.474   0.613   6.234
 7069TIP3    H221085   2.457   0.758   6.269
 7070TIP3   OH221086   2.384   0.027   5.359
 7070TIP3    H121087   2.320   0.076   5.415
 7070TIP3    H221088   2.435   0.098   5.320
 7071TIP3   OH221089   2.891   0.519   5.099
 7071TIP3    H121090   2.836   0.588   5.143
 7071TIP3    H221091   2.948   0.580   5.049
 7072TIP3   OH221092   3.134  -0.405   5.519
 7072TIP3    H121093   3.177  -0.320   5.497
 7072TIP3    H221094   3.094  -0.387   5.605
 7073TIP3   OH221095   3.373  -0.094   6.349
 7073TIP3    H121096   3.391  -0.018   6.407
 7073TIP3    H221097   3.459  -0.138   6.347
 7074TIP3   OH221098   2.650   0.586   5.182
 7074TIP3    H121099   2.621   0.653   5.115
 7074TIP3    H221100   2.629   0.635   5.265
 7075TIP3   OH221101   3.671   0.017   5.695
 7075TIP3    H121102   3.599  -0.047   5.707
 7075TIP3    H221103   3.746  -0.027   5.742
 7076TIP3   OH221104   2.305  -0.504   5.285
 7076TIP3    H121105   2.355  -0.420   5.284
 7076TIP3    H221106   2.221  -0.473   5.321
 7077TIP3   OH221107   3.640   0.968   5.645
 7077TIP3    H121108   3.597   1.015   5.571
 7077TIP3    H221109   3.734   0.988   5.624
 7078TIP3   OH221110   2.249   0.440   5.562
 7078TIP3    H121111   2.209   0.497   5.630
 7078TIP3    H221112   2.247   0.499   5.485
 7079TIP3   OH221113   2.409   0.997   6.627
 7079TIP3    H121114   2.497   0.995   6.671
 7079TIP3    H221115   2.388   0.902   6.623
 7080TIP3   OH221116   2.894   0.964   6.671
 7080TIP3    H121117   2.989   0.946   6.675
 7080TIP3    H221118   2.867   0.906   6.596
 7081TIP3   OH221119   2.883   0.536   4.795
 7081TIP3    H121120   2.867   0.459   4.851
 7081TIP3    H221121   2.955   0.501   4.738
 7082TIP3   OH221122   3.531   0.869   6.406
 7082TIP3    H121123   3.527   0.798   6.473
 7082TIP3    H221124   3.609   0.921   6.434
 7083TIP3   OH221125   3.310   0.580   4.708
 7083TIP3    H121126   3.357   0.517   4.765
 7083TIP3    H221127   3.366   0.582   4.628
 7084TIP3   OH221128   2.547   0.409   6.824
 7084TIP3    H121129   2.556   0.313   6.838
 7084TIP3    H221130   2.459   0.414   6.782
 7085TIP3   OH221131   3.153   0.493   6.598
 7085TIP3    H121132   3.105   0.506   6.514
 7085TIP3    H221133   3.177   0.398   6.594
 7086TIP3   OH221134   3.016   0.259   4.831
 7086TIP3    H121135   3.038   0.260   4.926
 7086TIP3    H221136   3.015   0.161   4.817
 7087TIP3   OH221137   3.644   0.496   6.207
 7087TIP3    H121138   3.715   0.545   6.161
 7087TIP3    H221139   3.570   0.558   6.196
 7088TIP3   OH221140   2.655   0.125   6.813
 7088TIP3    H121141   2.736   0.078   6.790
 7088TIP3    H221142   2.680   0.164   6.899
 7089TIP3   OH221143   2.743  -0.038   5.257
 7089TIP3    H121144   2.707  -0.091   5.330
 7089TIP3    H221145   2.763  -0.107   5.190
 7090TIP3   OH221146   2.996   0.098   6.465
 7090TIP3    H121147   2.904   0.132   6.469
 7090TIP3    H221148   3.011   0.091   6.369
 7091TIP3   OH221149   2.828  -0.241   5.085
 7091TIP3    H121150   2.801  -0.244   4.991
 7091TIP3    H221151   2.925  -0.239   5.076
 7092TIP3   OH221152   3.506   0.391   6.589
 7092TIP3    H121153   3.597   0.414   6.567
 7092TIP3    H221154   3.514   0.354   6.680
 7093TIP3   OH221155   3.655   0.084   4.743
 7093TIP3    H121156   3.630   0.038   4.660
 7093TIP3    H221157   3.620   0.174   4.721
 7094TIP3   OH221158   3.080  -0.132   6.589
 7094TIP3    H121159   3.091  -0.213   6.535
 7094TIP3    H221160   3.077  -0.060   6.522
 7095TIP3   OH221161   3.186   0.143   6.252
 7095TIP3    H121162   3.250   0.161   6.182
 7095TIP3    H221163   3.116   0.208   6.232
 7096TIP3   OH221164   3.736   0.112   6.669
 7096TIP3    H121165   3.764   0.023   6.647
 7096TIP3    H221166   3.798   0.168   6.621
 7097TIP3   OH221167   3.778   0.351   6.390
 7097TIP3    H121168   3.715   0.404   6.335
 7097TIP3    H221169   3.863   0.378   6.348
 7098TIP3   OH221170   2.974  -0.059   6.828
 7098TIP3    H121171   2.905  -0.127   6.829
 7098TIP3    H221172   3.018  -0.081   6.743
 7099TIP3   OH221173   3.457  -0.031   6.745
 7099TIP3    H121174   3.372  -0.031   6.791
 7099TIP3    H221175   3.430  -0.017   6.653
 7100TIP3   OH221176   2.633   0.792   4.976
 7100TIP3    H121177   2.729   0.805   4.963
 7100TIP3    H221178   2.600   0.854   4.908
 7101TIP3   OH221179   2.110   0.198   5.191
 7101TIP3    H121180   2.206   0.206   5.193
 7101TIP3    H221181   2.099   0.107   5.155
 7102TIP3   OH221182   2.007   0.807   5.624
 7102TIP3    H121183   1.950   0.736   5.589
 7102TIP3    H221184   2.071   0.757   5.678
 7103TIP3   OH221185   2.160   0.655   5.797
 7103TIP3    H121186   2.162   0.592   5.871
 7103TIP3    H221187   2.216   0.726   5.834
 7104TIP3   OH221188   3.893   1.059   5.601
 7104TIP3    H121189   3.917   1.094   5.689
 7104TIP3    H221190   3.950   1.111   5.543
 7105TIP3   OH221191   3.920   1.082   5.883
 7105TIP3    H121192   3.879   0.993   5.880
 7105TIP3    H221193   3.997   1.062   5.939
 7106TIP3   OH221194   3.970   0.756   6.459
 7106TIP3    H121195   3.895   0.767   6.521
 7106TIP3    H221196   4.010   0.845   6.461
 7107TIP3   OH221197   3.788   0.271   5.077
 7107TIP3    H121198   3.858   0.334   5.055
 7107TIP3    H221199   3.825   0.229   5.157
 7108TIP3   OH221200   3.915   0.136   5.279
 7108TIP3    H121201   3.847   0.096   5.338
 7108TIP3    H221202   3.976   0.177   5.343
 7109TIP3   OH221203   3.967   0.530   5.715
 7109TIP3    H121204   4.018   0.467   5.661
 7109TIP3    H221205   3.956   0.605   5.653
 7110TIP3   OH221206   3.798   0.830   5.910
 7110TIP3    H121207   3.727   0.875   5.960
 7110TIP3    H221208   3.747   0.784   5.840
 7111TIP3   OH221209   3.849   0.038   4.932
 7111TIP3    H121210   3.780   0.046   4.862
 7111TIP3    H221211   3.823   0.114   4.987
 7112TIP3   OH221212   3.723  -0.304   4.877
 7112TIP3    H121213   3.685  -0.234   4.823
 7112TIP3    H221214   3.642  -0.350   4.907
 7113TIP3   OH221215   3.731   0.003   5.429
 7113TIP3    H121216   3.719  -0.092   5.407
 7113TIP3    H221217   3.716   0.005   5.526
 7114TIP3   OH221218   2.351   0.074   6.165
 7114TIP3    H121219   2.353   0.044   6.073
 7114TIP3    H221220   2.447   0.073   6.187
 7115TIP3   OH221221   4.020   0.415   6.284
 7115TIP3    H121222   4.094   0.352   6.267
 7115TIP3    H221223   4.041   0.488   6.222
 7116TIP3   OH221224   4.204   0.210   6.295
 7116TIP3    H121225   4.137   0.163   6.349
 7116TIP3    H221226   4.287   0.176   6.332
 7117TIP3   OH221227   3.720  -0.244   5.322
 7117TIP3    H121228   3.764  -0.311   5.379
 7117TIP3    H221229   3.759  -0.259   5.235
 7118TIP3   OH221230   3.890  -0.084   5.823
 7118TIP3    H121231   3.979  -0.073   5.783
 7118TIP3    H221232   3.909  -0.060   5.915
 7119TIP3   OH221233   3.953   0.038   6.068
 7119TIP3    H121234   3.869   0.080   6.099
 7119TIP3    H221235   3.988   0.110   6.010
 7120TIP3   OH221236   2.360  -0.287   6.262
 7120TIP3    H121237   2.398  -0.281   6.173
 7120TIP3    H221238   2.355  -0.195   6.289
 7121TIP3   OH221239   3.475   0.926   5.259
 7121TIP3    H121240   3.529   0.914   5.177
 7121TIP3    H221241   3.525   0.995   5.305
 7122TIP3   OH221242   2.578   0.732   6.646
 7122TIP3    H121243   2.486   0.704   6.626
 7122TIP3    H221244   2.584   0.711   6.740
 7123TIP3   OH221245   2.756   0.762   6.194
 7123TIP3    H121246   2.705   0.836   6.154
 7123TIP3    H221247   2.841   0.779   6.149
 7124TIP3   OH221248   3.202   1.007   6.330
 7124TIP3    H121249   3.243   1.012   6.419
 7124TIP3    H221250   3.266   1.059   6.278
 7125TIP3   OH221251   3.380   1.159   6.190
 7125TIP3    H121252   3.451   1.111   6.146
 7125TIP3    H221253   3.431   1.218   6.250
 7126TIP3   OH221254   2.434   1.023   6.217
 7126TIP3    H121255   2.346   1.054   6.188
 7126TIP3    H221256   2.436   1.056   6.307
 7127TIP3   OH221257   2.672   0.999   6.074
 7127TIP3    H121258   2.585   1.013   6.118
 7127TIP3    H221259   2.652   1.029   5.983
 7128TIP3   OH221260   3.097   1.028   5.871
 7128TIP3    H121261   3.022   1.044   5.809
 7128TIP3    H221262   3.107   1.117   5.911
 7129TIP3   OH221263   3.363   0.968   5.922
 7129TIP3    H121264   3.269   0.985   5.904
 7129TIP3    H221265   3.405   1.045   5.881
 7130TIP3   OH221266   3.572   1.161   5.839
 7130TIP3    H121267   3.557   1.246   5.792
 7130TIP3    H221268   3.596   1.101   5.765
 7131TIP3   OH221269   2.325   0.805   5.969
 7131TIP3    H121270   2.372   0.783   6.052
 7131TIP3    H221271   2.396   0.785   5.904
 7132TIP3   OH221272   2.532   0.686   5.839
 7132TIP3    H121273   2.563   0.604   5.883
 7132TIP3    H221274   2.613   0.728   5.807
 7133TIP3   OH221275   2.812   0.781   5.813
 7133TIP3    H121276   2.837   0.687   5.811
 7133TIP3    H221277   2.842   0.806   5.901
 7134TIP3   OH221278   2.141   0.580   5.340
 7134TIP3    H121279   2.050   0.559   5.309
 7134TIP3    H221280   2.132   0.676   5.352
 7135TIP3   OH221281   2.904   0.774   4.934
 7135TIP3    H121282   2.993   0.798   4.901
 7135TIP3    H221283   2.883   0.703   4.870
 7136TIP3   OH221284   3.624   0.893   5.028
 7136TIP3    H121285   3.616   0.796   5.016
 7136TIP3    H221286   3.579   0.926   4.947
 7137TIP3   OH221287   2.212   0.614   4.992
 7137TIP3    H121288   2.195   0.642   5.083
 7137TIP3    H221289   2.298   0.569   4.998
 7138TIP3   OH221290   3.849   1.038   6.214
 7138TIP3    H121291   3.770   1.007   6.166
 7138TIP3    H221292   3.831   1.134   6.217
 7139TIP3   OH221293   5.115   0.409   4.983
 7139TIP3    H121294   5.088   0.501   4.964
 7139TIP3    H221295   5.038   0.361   4.948
 7140TIP3   OH221296   5.113   0.410   5.360
 7140TIP3    H121297   5.146   0.378   5.445
 7140TIP3    H221298   5.069   0.330   5.325
 7141TIP3   OH221299   4.413   0.309   5.724
 7141TIP3    H121300   4.451   0.245   5.788
 7141TIP3    H221301   4.489   0.369   5.712
 7142TIP3   OH221302   5.356   0.713   5.043
 7142TIP3    H121303   5.343   0.644   5.109
 7142TIP3    H221304   5.385   0.788   5.097
 7143TIP3   OH221305   4.384   0.714   5.451
 7143TIP3    H121306   4.376   0.617   5.454
 7143TIP3    H221307   4.480   0.724   5.449
 7144TIP3   OH221308   4.087  -0.088   5.242
 7144TIP3    H121309   4.043  -0.002   5.259
 7144TIP3    H221310   4.015  -0.137   5.200
 7145TIP3   OH221311   4.154   0.204   5.408
 7145TIP3    H121312   4.203   0.128   5.446
 7145TIP3    H221313   4.215   0.234   5.340
 7146TIP3   OH221314   5.001   1.172   5.057
 7146TIP3    H121315   5.051   1.101   5.012
 7146TIP3    H221316   5.000   1.142   5.149
 7147TIP3   OH221317   4.912   0.634   5.411
 7147TIP3    H121318   4.951   0.559   5.363
 7147TIP3    H221319   4.996   0.681   5.434
 7148TIP3   OH221320   5.323   0.142   5.445
 7148TIP3    H121321   5.362   0.056   5.465
 7148TIP3    H221322   5.295   0.130   5.353
 7149TIP3   OH221323   4.297  -0.005   5.516
 7149TIP3    H121324   4.377  -0.029   5.567
 7149TIP3    H221325   4.315  -0.057   5.435
 7150TIP3   OH221326   4.738   0.198   5.313
 7150TIP3    H121327   4.829   0.167   5.325
 7150TIP3    H221328   4.693   0.116   5.280
 7151TIP3   OH221329   5.969   0.141   5.588
 7151TIP3    H121330   5.903   0.204   5.552
 7151TIP3    H221331   6.012   0.194   5.655
 7152TIP3   OH221332   5.006   0.630   4.854
 7152TIP3    H121333   4.968   0.608   4.768
 7152TIP3    H221334   4.964   0.716   4.873
 7153TIP3   OH221335   4.770   0.552   5.646
 7153TIP3    H121336   4.706   0.617   5.680
 7153TIP3    H221337   4.811   0.601   5.572
 7154TIP3   OH221338   4.537  -0.097   5.613
 7154TIP3    H121339   4.602  -0.028   5.637
 7154TIP3    H221340   4.579  -0.138   5.536
 7155TIP3   OH221341   4.593   0.747   5.733
 7155TIP3    H121342   4.570   0.834   5.695
 7155TIP3    H221343   4.514   0.733   5.790
 7156TIP3   OH221344   3.996   0.443   4.966
 7156TIP3    H121345   3.931   0.473   4.901
 7156TIP3    H221346   4.021   0.528   5.009
 7157TIP3   OH221347   5.428   0.954   5.211
 7157TIP3    H121348   5.338   0.947   5.250
 7157TIP3    H221349   5.421   1.041   5.166
 7158TIP3   OH221350   5.130   1.000   4.886
 7158TIP3    H121351   5.181   0.918   4.863
 7158TIP3    H221352   5.191   1.067   4.845
 7159TIP3   OH221353   5.272   0.786   4.791
 7159TIP3    H121354   5.242   0.705   4.748
 7159TIP3    H221355   5.307   0.751   4.876
 7160TIP3   OH221356   5.654   0.868   5.555
 7160TIP3    H121357   5.642   0.792   5.494
 7160TIP3    H221358   5.635   0.944   5.496
 7161TIP3   OH221359   4.946   0.263   4.811
 7161TIP3    H121360   4.865   0.311   4.785
 7161TIP3    H221361   4.993   0.255   4.726
 7162TIP3   OH221362   4.900   0.047   4.536
 7162TIP3    H121363   4.976   0.095   4.574
 7162TIP3    H221364   4.949  -0.020   4.483
 7163TIP3   OH221365   5.848   0.501   5.402
 7163TIP3    H121366   5.765   0.554   5.405
 7163TIP3    H221367   5.879   0.523   5.312
 7164TIP3   OH221368   5.293   0.345   4.783
 7164TIP3    H121369   5.239   0.369   4.862
 7164TIP3    H221370   5.377   0.317   4.826
 7165TIP3   OH221371   5.524   0.389   5.687
 7165TIP3    H121372   5.523   0.473   5.736
 7165TIP3    H221373   5.439   0.396   5.638
 7166TIP3   OH221374   4.527   0.343   5.200
 7166TIP3    H121375   4.484   0.284   5.134
 7166TIP3    H221376   4.602   0.287   5.230
 7167TIP3   OH221377   4.656   0.755   5.348
 7167TIP3    H121378   4.637   0.706   5.267
 7167TIP3    H221379   4.746   0.722   5.369
 7168TIP3   OH221380   4.665   0.309   5.559
 7168TIP3    H121381   4.694   0.287   5.468
 7168TIP3    H221382   4.708   0.396   5.575
 7169TIP3   OH221383   5.186   0.951   5.330
 7169TIP3    H121384   5.173   1.032   5.382
 7169TIP3    H221385   5.171   0.880   5.396
 7170TIP3   OH221386   4.799   0.869   5.878
 7170TIP3    H121387   4.740   0.932   5.925
 7170TIP3    H221388   4.732   0.817   5.829
 7171TIP3   OH221389   5.134   0.197   4.612
 7171TIP3    H121390   5.195   0.254   4.664
 7171TIP3    H221391   5.161   0.221   4.520
 7172TIP3   OH221392   4.537   0.431   5.980
 7172TIP3    H121393   4.543   0.517   6.027
 7172TIP3    H221394   4.441   0.412   5.991
 7173TIP3   OH221395   4.874   0.885   4.874
 7173TIP3    H121396   4.955   0.933   4.900
 7173TIP3    H221397   4.813   0.958   4.854
 7174TIP3   OH221398   4.594   1.038   5.964
 7174TIP3    H121399   4.558   1.038   5.874
 7174TIP3    H221400   4.515   1.016   6.018
 7175TIP3   OH221401   4.389   0.191   5.007
 7175TIP3    H121402   4.316   0.218   4.949
 7175TIP3    H221403   4.371   0.097   5.022
 7176TIP3   OH221404   5.448   0.811   4.207
 7176TIP3    H121405   5.457   0.908   4.191
 7176TIP3    H221406   5.541   0.782   4.194
 7177TIP3   OH221407   4.171   0.571   5.911
 7177TIP3    H121408   4.105   0.551   5.842
 7177TIP3    H221409   4.205   0.482   5.935
 7178TIP3   OH221410   4.026   0.762   5.546
 7178TIP3    H121411   4.122   0.760   5.538
 7178TIP3    H221412   4.013   0.843   5.598
 7179TIP3   OH221413   5.893   1.213   5.602
 7179TIP3    H121414   5.889   1.117   5.615
 7179TIP3    H221415   5.809   1.241   5.646
 7180TIP3   OH221416   4.997   0.999   5.735
 7180TIP3    H121417   4.998   1.092   5.767
 7180TIP3    H221418   4.926   0.960   5.790
 7181TIP3   OH221419   4.752   1.125   4.686
 7181TIP3    H121420   4.712   1.117   4.598
 7181TIP3    H221421   4.727   1.216   4.713
 7182TIP3   OH221422   4.197   0.979   5.069
 7182TIP3    H121423   4.245   0.969   5.155
 7182TIP3    H221424   4.130   0.910   5.080
 7183TIP3   OH221425   4.958   1.025   4.329
 7183TIP3    H121426   5.019   0.958   4.291
 7183TIP3    H221427   4.996   1.038   4.419
 7184TIP3   OH221428   5.007   1.077   4.599
 7184TIP3    H121429   4.921   1.085   4.646
 7184TIP3    H221430   5.064   1.041   4.670
 7185TIP3   OH221431   5.787   0.330   5.880
 7185TIP3    H121432   5.714   0.382   5.842
 7185TIP3    H221433   5.766   0.242   5.848
 7186TIP3   OH221434   4.378   0.751   5.900
 7186TIP3    H121435   4.427   0.737   5.984
 7186TIP3    H221436   4.303   0.689   5.908
 7187TIP3   OH221437   5.461   0.206   5.892
 7187TIP3    H121438   5.485   0.117   5.862
 7187TIP3    H221439   5.467   0.259   5.810
 7188TIP3   OH221440   5.213   0.248   4.356
 7188TIP3    H121441   5.174   0.225   4.269
 7188TIP3    H221442   5.291   0.299   4.329
 7189TIP3   OH221443   4.717   0.088   5.710
 7189TIP3    H121444   4.656   0.110   5.784
 7189TIP3    H221445   4.701   0.166   5.651
 7190TIP3   OH221446   4.578   0.001   5.209
 7190TIP3    H121447   4.503  -0.053   5.242
 7190TIP3    H221448   4.602  -0.047   5.127
 7191TIP3   OH221449   5.088   0.067   4.943
 7191TIP3    H121450   5.035   0.139   4.902
 7191TIP3    H221451   5.135   0.031   4.865
 7192TIP3   OH221452   5.266   0.395   5.988
 7192TIP3    H121453   5.245   0.349   6.073
 7192TIP3    H221454   5.362   0.386   5.988
 7193TIP3   OH221455   5.245   0.094   5.183
 7193TIP3    H121456   5.186   0.125   5.111
 7193TIP3    H221457   5.277   0.011   5.144
 7194TIP3   OH221458   4.533   0.132   5.907
 7194TIP3    H121459   4.544   0.192   5.983
 7194TIP3    H221460   4.491   0.054   5.946
 7195TIP3   OH221461   5.256   0.345   5.610
 7195TIP3    H121462   5.282   0.268   5.553
 7195TIP3    H221463   5.217   0.300   5.686
 7196TIP3   OH221464   4.350  -0.148   5.287
 7196TIP3    H121465   4.257  -0.129   5.262
 7196TIP3    H221466   4.355  -0.243   5.276
 7197TIP3   OH221467   4.637  -0.131   4.974
 7197TIP3    H121468   4.725  -0.152   4.941
 7197TIP3    H221469   4.582  -0.139   4.894
 7198TIP3   OH221470   4.455  -0.112   4.751
 7198TIP3    H121471   4.399  -0.161   4.688
 7198TIP3    H221472   4.519  -0.073   4.687
 7199TIP3   OH221473   5.582   1.562   5.699
 7199TIP3    H121474   5.579   1.589   5.605
 7199TIP3    H221475   5.657   1.614   5.732
 7200TIP3   OH221476   4.538   0.672   6.123
 7200TIP3    H121477   4.619   0.702   6.168
 7200TIP3    H221478   4.474   0.678   6.197
 7201TIP3   OH221479   5.006   0.130   5.382
 7201TIP3    H121480   5.066   0.079   5.327
 7201TIP3    H221481   5.003   0.078   5.463
 7202TIP3   OH221482   4.984   0.013   5.688
 7202TIP3    H121483   4.895   0.054   5.686
 7202TIP3    H221484   5.036   0.077   5.739
 7203TIP3   OH221485   4.713   0.415   4.756
 7203TIP3    H121486   4.643   0.347   4.752
 7203TIP3    H221487   4.697   0.452   4.847
 7204TIP3   OH221488   5.618   0.649   5.391
 7204TIP3    H121489   5.643   0.699   5.310
 7204TIP3    H221490   5.532   0.609   5.365
 7205TIP3   OH221491   5.116   0.733   5.757
 7205TIP3    H121492   5.138   0.712   5.849
 7205TIP3    H221493   5.078   0.822   5.764
 7206TIP3   OH221494   5.233  -0.047   4.724
 7206TIP3    H121495   5.331  -0.038   4.733
 7206TIP3    H221496   5.212   0.027   4.665
 7207TIP3   OH221497   4.409   0.435   5.437
 7207TIP3    H121498   4.448   0.408   5.351
 7207TIP3    H221499   4.448   0.370   5.497
 7208TIP3   OH221500   4.865   0.564   4.584
 7208TIP3    H121501   4.814   0.648   4.588
 7208TIP3    H221502   4.813   0.507   4.644
 7209TIP3   OH221503   4.280   0.357   6.053
 7209TIP3    H121504   4.303   0.340   6.147
 7209TIP3    H221505   4.209   0.293   6.037
 7210TIP3   OH221506   5.014   0.481   6.073
 7210TIP3    H121507   4.941   0.431   6.029
 7210TIP3    H221508   5.092   0.453   6.022
 7211TIP3   OH221509   5.277   0.988   5.655
 7211TIP3    H121510   5.180   0.991   5.666
 7211TIP3    H221511   5.306   1.042   5.731
 7212TIP3   OH221512   5.687   0.061   4.562
 7212TIP3    H121513   5.628   0.013   4.499
 7212TIP3    H221514   5.684   0.149   4.519
 7213TIP3   OH221515   5.904   0.918   5.645
 7213TIP3    H121516   5.806   0.917   5.634
 7213TIP3    H221517   5.930   0.892   5.553
 7214TIP3   OH221518   5.381   0.884   4.469
 7214TIP3    H121519   5.364   0.812   4.531
 7214TIP3    H221520   5.399   0.838   4.385
 7215TIP3   OH221521   5.383   0.512   5.313
 7215TIP3    H121522   5.289   0.488   5.322
 7215TIP3    H221523   5.416   0.433   5.265
 7216TIP3   OH221524   4.506   0.737   5.057
 7216TIP3    H121525   4.508   0.820   5.006
 7216TIP3    H221526   4.412   0.731   5.080
 7217TIP3   OH221527   4.064   0.050   4.759
 7217TIP3    H121528   4.115   0.127   4.790
 7217TIP3    H221529   3.992   0.047   4.826
 7218TIP3   OH221530   4.649   0.506   5.004
 7218TIP3    H121531   4.611   0.594   5.023
 7218TIP3    H221532   4.616   0.454   5.079
 7219TIP3   OH221533   4.778   1.084   5.531
 7219TIP3    H121534   4.818   1.158   5.481
 7219TIP3    H221535   4.854   1.051   5.580
 7220TIP3   OH221536   4.428   0.978   4.907
 7220TIP3    H121537   4.343   0.985   4.956
 7220TIP3    H221538   4.460   1.070   4.913
 7221TIP3   OH221539   5.167   0.717   5.489
 7221TIP3    H121540   5.158   0.718   5.587
 7221TIP3    H221541   5.248   0.667   5.476
 7222TIP3   OH221542   5.140   0.609   4.374
 7222TIP3    H121543   5.196   0.586   4.451
 7222TIP3    H221544   5.053   0.582   4.408
 7223TIP3   OH221545   5.416   1.251   5.538
 7223TIP3    H121546   5.335   1.197   5.530
 7223TIP3    H221547   5.402   1.318   5.468
 7224TIP3   OH221548   5.481   1.086   4.192
 7224TIP3    H121549   5.519   1.157   4.138
 7224TIP3    H221550   5.401   1.133   4.224
 7225TIP3   OH221551   5.301   0.547   4.591
 7225TIP3    H121552   5.291   0.479   4.660
 7225TIP3    H221553   5.398   0.543   4.577
 7226TIP3   OH221554   4.217   0.947   5.690
 7226TIP3    H121555   4.271   0.874   5.725
 7226TIP3    H221556   4.244   1.019   5.748
 7227TIP3   OH221557   4.185   0.285   4.845
 7227TIP3    H121558   4.120   0.334   4.902
 7227TIP3    H221559   4.232   0.357   4.802
 7228TIP3   OH221560   4.701   0.782   4.573
 7228TIP3    H121561   4.625   0.813   4.626
 7228TIP3    H221562   4.741   0.866   4.547
 7229TIP3   OH221563   4.930  -0.149   5.005
 7229TIP3    H121564   4.972  -0.063   4.985
 7229TIP3    H221565   4.891  -0.133   5.091
 7230TIP3   OH221566   5.167   0.165   5.848
 7230TIP3    H121567   5.182   0.248   5.898
 7230TIP3    H221568   5.256   0.128   5.849
 7231TIP3   OH221569   4.443   0.851   4.655
 7231TIP3    H121570   4.422   0.926   4.595
 7231TIP3    H221571   4.436   0.894   4.743
 7232TIP3   OH221572   5.467   0.275   5.182
 7232TIP3    H121573   5.396   0.210   5.194
 7232TIP3    H221574   5.542   0.231   5.229
 7233TIP3   OH221575   5.436   1.224   5.131
 7233TIP3    H121576   5.394   1.271   5.056
 7233TIP3    H221577   5.530   1.245   5.112
 7234TIP3   OH221578   4.046   0.708   5.039
 7234TIP3    H121579   3.982   0.745   5.102
 7234TIP3    H221580   4.020   0.756   4.957
 7235TIP3   OH221581   4.207   1.255   6.113
 7235TIP3    H121582   4.293   1.255   6.159
 7235TIP3    H221583   4.187   1.160   6.111
 7236TIP3   OH221584   4.688   1.221   6.158
 7236TIP3    H121585   4.784   1.205   6.165
 7236TIP3    H221586   4.666   1.162   6.083
 7237TIP3   OH221587   4.675   0.793   4.281
 7237TIP3    H121588   4.674   0.728   4.352
 7237TIP3    H221589   4.750   0.759   4.227
 7238TIP3   OH221590   5.331   1.125   5.887
 7238TIP3    H121591   5.320   1.057   5.958
 7238TIP3    H221592   5.406   1.178   5.919
 7239TIP3   OH221593   5.107   0.837   4.194
 7239TIP3    H121594   5.157   0.778   4.252
 7239TIP3    H221595   5.161   0.839   4.113
 7240TIP3   OH221596   4.337   0.661   6.313
 7240TIP3    H121597   4.354   0.565   6.317
 7240TIP3    H221598   4.250   0.665   6.269
 7241TIP3   OH221599   4.371   0.386   4.536
 7241TIP3    H121600   4.384   0.306   4.593
 7241TIP3    H221601   4.406   0.347   4.451
 7242TIP3   OH221602   4.946   0.749   6.087
 7242TIP3    H121603   4.904   0.760   5.999
 7242TIP3    H221604   4.978   0.656   6.083
 7243TIP3   OH221605   4.806   0.515   4.320
 7243TIP3    H121606   4.830   0.521   4.415
 7243TIP3    H221607   4.816   0.417   4.308
 7244TIP3   OH221608   5.439   0.752   5.694
 7244TIP3    H121609   5.512   0.799   5.648
 7244TIP3    H221610   5.367   0.817   5.682
 7245TIP3   OH221611   4.453   0.386   6.298
 7245TIP3    H121612   4.535   0.343   6.272
 7245TIP3    H221613   4.478   0.422   6.385
 7246TIP3   OH221614   4.517   0.219   4.730
 7246TIP3    H121615   4.499   0.173   4.814
 7246TIP3    H221616   4.557   0.147   4.676
 7247TIP3   OH221617   4.798   0.354   5.951
 7247TIP3    H121618   4.706   0.389   5.955
 7247TIP3    H221619   4.815   0.351   5.855
 7248TIP3   OH221620   4.624   0.018   4.574
 7248TIP3    H121621   4.600   0.006   4.479
 7248TIP3    H221622   4.722   0.017   4.567
 7249TIP3   OH221623   5.310   0.689   6.097
 7249TIP3    H121624   5.383   0.656   6.043
 7249TIP3    H221625   5.301   0.619   6.164
 7250TIP3   OH221626   5.447   0.340   4.230
 7250TIP3    H121627   5.425   0.296   4.145
 7250TIP3    H221628   5.415   0.431   4.208
 7251TIP3   OH221629   4.868   0.121   6.076
 7251TIP3    H121630   4.891   0.047   6.017
 7251TIP3    H221631   4.870   0.200   6.015
 7252TIP3   OH221632   4.977   0.389   5.727
 7252TIP3    H121633   5.049   0.419   5.671
 7252TIP3    H221634   4.910   0.458   5.711
 7253TIP3   OH221635   5.527   0.371   6.153
 7253TIP3    H121636   5.564   0.284   6.139
 7253TIP3    H221637   5.591   0.432   6.116
 7254TIP3   OH221638   5.573   0.604   5.875
 7254TIP3    H121639   5.510   0.659   5.821
 7254TIP3    H221640   5.657   0.634   5.834
 7255TIP3   OH221641   4.767   0.197   6.315
 7255TIP3    H121642   4.699   0.129   6.310
 7255TIP3    H221643   4.816   0.179   6.231
 7256TIP3   OH221644   5.209   0.237   6.191
 7256TIP3    H121645   5.173   0.216   6.279
 7256TIP3    H221646   5.228   0.148   6.156
 7257TIP3   OH221647   4.426   1.058   4.460
 7257TIP3    H121648   4.523   1.063   4.449
 7257TIP3    H221649   4.397   1.121   4.391
 7258TIP3   OH221650   3.906   0.454   4.675
 7258TIP3    H121651   4.002   0.455   4.679
 7258TIP3    H221652   3.891   0.363   4.641
 7259TIP3   OH221653   3.828   1.066   5.101
 7259TIP3    H121654   3.759   1.006   5.066
 7259TIP3    H221655   3.870   1.008   5.168
 7260TIP3   OH221656   3.966   0.915   5.286
 7260TIP3    H121657   3.949   0.845   5.351
 7260TIP3    H221658   4.014   0.979   5.342
 7261TIP3   OH221659   5.688   1.317   5.088
 7261TIP3    H121660   5.713   1.352   5.176
 7261TIP3    H221661   5.748   1.366   5.029
 7262TIP3   OH221662   5.716   1.338   5.370
 7262TIP3    H121663   5.676   1.249   5.367
 7262TIP3    H221664   5.793   1.320   5.426
 7263TIP3   OH221665   5.766   1.012   5.947
 7263TIP3    H121666   5.691   1.023   6.008
 7263TIP3    H221667   5.806   1.102   5.947
 7264TIP3   OH221668   5.580   0.528   4.563
 7264TIP3    H121669   5.648   0.592   4.534
 7264TIP3    H221670   5.623   0.489   4.643
 7265TIP3   OH221671   5.708   0.395   4.766
 7265TIP3    H121672   5.643   0.353   4.827
 7265TIP3    H221673   5.774   0.433   4.828
 7266TIP3   OH221674   5.762   0.786   5.201
 7266TIP3    H121675   5.814   0.723   5.147
 7266TIP3    H221676   5.754   0.862   5.139
 7267TIP3   OH221677   5.594   1.086   5.397
 7267TIP3    H121678   5.523   1.132   5.447
 7267TIP3    H221679   5.543   1.040   5.327
 7268TIP3   OH221680   5.644   0.299   4.415
 7268TIP3    H121681   5.574   0.309   4.346
 7268TIP3    H221682   5.621   0.376   4.471
 7269TIP3   OH221683   5.527  -0.031   4.361
 7269TIP3    H121684   5.482   0.040   4.314
 7269TIP3    H221685   5.483  -0.109   4.324
 7270TIP3   OH221686   5.523   0.253   4.916
 7270TIP3    H121687   5.532   0.157   4.915
 7270TIP3    H221688   5.508   0.271   5.012
 7271TIP3   OH221689   4.149   0.319   5.663
 7271TIP3    H121690   4.147   0.293   5.568
 7271TIP3    H221691   4.246   0.325   5.678
 7272TIP3   OH221692   5.812   0.677   5.769
 7272TIP3    H121693   5.886   0.614   5.757
 7272TIP3    H221694   5.834   0.749   5.708
 7273TIP3   OH221695   5.998   0.479   5.785
 7273TIP3    H121696   5.937   0.422   5.836
 7273TIP3    H221697   6.085   0.457   5.819
 7274TIP3   OH221698   5.504  -0.030   4.761
 7274TIP3    H121699   5.551  -0.067   4.839
 7274TIP3    H221700   5.578   0.002   4.706
 7275TIP3   OH221701   5.685   0.173   5.309
 7275TIP3    H121702   5.774   0.184   5.268
 7275TIP3    H221703   5.705   0.198   5.400
 7276TIP3   OH221704   5.746   0.294   5.552
 7276TIP3    H121705   5.664   0.337   5.587
 7276TIP3    H221706   5.782   0.367   5.496
 7277TIP3   OH221707   4.145  -0.018   5.745
 7277TIP3    H121708   4.189  -0.030   5.659
 7277TIP3    H221709   4.162   0.075   5.761
 7278TIP3   OH221710   5.269   1.184   4.744
 7278TIP3    H121711   5.324   1.171   4.664
 7278TIP3    H221712   5.321   1.250   4.793
 7279TIP3   OH221713   4.374   0.984   6.131
 7279TIP3    H121714   4.281   0.960   6.116
 7279TIP3    H221715   4.383   0.974   6.227
 7280TIP3   OH221716   4.551   1.018   5.678
 7280TIP3    H121717   4.503   1.094   5.640
 7280TIP3    H221718   4.638   1.034   5.634
 7281TIP3   OH221719   4.997   1.265   5.816
 7281TIP3    H121720   5.038   1.267   5.905
 7281TIP3    H221721   5.063   1.316   5.764
 7282TIP3   OH221722   5.177   1.415   5.676
 7282TIP3    H121723   5.250   1.367   5.635
 7282TIP3    H221724   5.226   1.475   5.737
 7283TIP3   OH221725   4.228   1.276   5.704
 7283TIP3    H121726   4.139   1.310   5.679
 7283TIP3    H221727   4.239   1.318   5.790
 7284TIP3   OH221728   4.463   1.254   5.559
 7284TIP3    H121729   4.377   1.268   5.605
 7284TIP3    H221730   4.444   1.290   5.471
 7285TIP3   OH221731   4.890   1.286   5.357
 7285TIP3    H121732   4.821   1.309   5.292
 7285TIP3    H221733   4.904   1.372   5.402
 7286TIP3   OH221734   5.159   1.223   5.407
 7286TIP3    H121735   5.065   1.243   5.390
 7286TIP3    H221736   5.202   1.302   5.370
 7287TIP3   OH221737   5.365   1.416   5.326
 7287TIP3    H121738   5.352   1.502   5.280
 7287TIP3    H221739   5.392   1.357   5.252
 7288TIP3   OH221740   4.140   1.072   5.446
 7288TIP3    H121741   4.165   1.047   5.538
 7288TIP3    H221742   4.213   1.028   5.397
 7289TIP3   OH221743   4.334   0.942   5.302
 7289TIP3    H121744   4.349   0.859   5.354
 7289TIP3    H221745   4.424   0.980   5.300
 7290TIP3   OH221746   4.599   1.037   5.307
 7290TIP3    H121747   4.632   0.945   5.298
 7290TIP3    H221748   4.642   1.062   5.391
 7291TIP3   OH221749   3.930   0.844   4.836
 7291TIP3    H121750   3.843   0.815   4.804
 7291TIP3    H221751   3.922   0.939   4.817
 7292TIP3   OH221752   4.698   1.036   4.416
 7292TIP3    H121753   4.789   1.055   4.386
 7292TIP3    H221754   4.679   0.958   4.359
 7293TIP3   OH221755   5.418   1.150   4.514
 7293TIP3    H121756   5.408   1.053   4.501
 7293TIP3    H221757   5.374   1.183   4.432
 7294TIP3   OH221758   4.012   0.873   4.473
 7294TIP3    H121759   3.986   0.916   4.556
 7294TIP3    H221760   4.094   0.828   4.497
 7295TIP3   OH221761   5.646   1.295   5.701
 7295TIP3    H121762   5.566   1.264   5.653
 7295TIP3    H221763   5.628   1.391   5.704
 7296TIP3   OH221764   6.913   0.670   4.470
 7296TIP3    H121765   6.884   0.761   4.448
 7296TIP3    H221766   6.837   0.620   4.434
 7297TIP3   OH221767   6.910   0.668   4.846
 7297TIP3    H121768   6.940   0.632   4.931
 7297TIP3    H221769   6.867   0.591   4.806
 7298TIP3   OH221770   6.209   0.569   5.216
 7298TIP3    H121771   6.250   0.503   5.275
 7298TIP3    H221772   6.287   0.619   5.188
 7299TIP3   OH221773   7.153   0.970   4.529
 7299TIP3    H121774   7.137   0.899   4.592
 7299TIP3    H221775   7.182   1.043   4.586
 7300TIP3   OH221776   6.180   0.970   4.940
 7300TIP3    H121777   6.173   0.873   4.942
 7300TIP3    H221778   6.277   0.980   4.933
 7301TIP3   OH221779   5.879   0.163   4.733
 7301TIP3    H121780   5.835   0.249   4.745
 7301TIP3    H221781   5.816   0.119   4.673
 7302TIP3   OH221782   5.949   0.459   4.894
 7302TIP3    H121783   5.999   0.383   4.931
 7302TIP3    H221784   6.008   0.490   4.825
 7303TIP3   OH221785   6.804   1.435   4.546
 7303TIP3    H121786   6.849   1.363   4.497
 7303TIP3    H221787   6.795   1.396   4.634
 7304TIP3   OH221788   6.708   0.891   4.900
 7304TIP3    H121789   6.744   0.816   4.850
 7304TIP3    H221790   6.792   0.937   4.921
 7305TIP3   OH221791   7.121   0.402   4.931
 7305TIP3    H121792   7.156   0.315   4.954
 7305TIP3    H221793   7.093   0.388   4.838
 7306TIP3   OH221794   6.094   0.252   5.004
 7306TIP3    H121795   6.175   0.227   5.053
 7306TIP3    H221796   6.110   0.199   4.923
 7307TIP3   OH221797   6.532   0.455   4.804
 7307TIP3    H121798   6.625   0.425   4.811
 7307TIP3    H221799   6.488   0.374   4.770
 7308TIP3   OH221800   7.762   0.394   5.091
 7308TIP3    H121801   7.706   0.468   5.061
 7308TIP3    H221802   7.819   0.434   5.159
 7309TIP3   OH221803   6.806   0.890   4.339
 7309TIP3    H121804   6.760   0.862   4.259
 7309TIP3    H221805   6.759   0.974   4.359
 7310TIP3   OH221806   6.567   0.809   5.132
 7310TIP3    H121807   6.503   0.875   5.166
 7310TIP3    H221808   6.607   0.858   5.057
 7311TIP3   OH221809   6.335   0.160   5.098
 7311TIP3    H121810   6.402   0.227   5.121
 7311TIP3    H221811   6.375   0.118   5.021
 7312TIP3   OH221812   6.390   1.004   5.221
 7312TIP3    H121813   6.366   1.090   5.181
 7312TIP3    H221814   6.311   0.990   5.277
 7313TIP3   OH221815   5.783   0.696   4.458
 7313TIP3    H121816   5.745   0.723   4.373
 7313TIP3    H221817   5.815   0.781   4.495
 7314TIP3   OH221818   7.225   1.212   4.700
 7314TIP3    H121819   7.134   1.203   4.738
 7314TIP3    H221820   7.216   1.297   4.653
 7315TIP3   OH221821   6.926   1.260   4.373
 7315TIP3    H121822   6.975   1.177   4.353
 7315TIP3    H221823   6.986   1.324   4.330
 7316TIP3   OH221824   7.068   1.046   4.278
 7316TIP3    H121825   7.029   0.966   4.239
 7316TIP3    H221826   7.105   1.009   4.362
 7317TIP3   OH221827   7.449   1.125   5.041
 7317TIP3    H121828   7.439   1.048   4.981
 7317TIP3    H221829   7.433   1.200   4.980
 7318TIP3   OH221830   6.740   0.539   4.285
 7318TIP3    H121831   6.657   0.585   4.260
 7318TIP3    H221832   6.785   0.531   4.199
 7319TIP3   OH221833   6.700   0.307   4.020
 7319TIP3    H121834   6.770   0.352   4.070
 7319TIP3    H221835   6.755   0.244   3.968
 7320TIP3   OH221836   7.644   0.757   4.884
 7320TIP3    H121837   7.561   0.810   4.889
 7320TIP3    H221838   7.675   0.782   4.795
 7321TIP3   OH221839   7.089   0.603   4.271
 7321TIP3    H121840   7.034   0.627   4.349
 7321TIP3    H221841   7.172   0.576   4.314
 7322TIP3   OH221842   7.321   0.647   5.176
 7322TIP3    H121843   7.320   0.730   5.226
 7322TIP3    H221844   7.237   0.654   5.127
 7323TIP3   OH221845   6.322   0.601   4.688
 7323TIP3    H121846   6.277   0.543   4.622
 7323TIP3    H221847   6.397   0.544   4.717
 7324TIP3   OH221848   6.450   1.010   4.836
 7324TIP3    H121849   6.430   0.968   4.751
 7324TIP3    H221850   6.540   0.976   4.855
 7325TIP3   OH221851   6.454   0.568   5.046
 7325TIP3    H121852   6.486   0.542   4.957
 7325TIP3    H221853   6.503   0.652   5.061
 7326TIP3   OH221854   6.982   1.208   4.818
 7326TIP3    H121855   6.969   1.288   4.872
 7326TIP3    H221856   6.968   1.135   4.881
 7327TIP3   OH221857   6.595   1.127   5.364
 7327TIP3    H121858   6.536   1.189   5.411
 7327TIP3    H221859   6.529   1.074   5.315
 7328TIP3   OH221860   6.933   0.453   4.099
 7328TIP3    H121861   6.992   0.512   4.153
 7328TIP3    H221862   6.960   0.478   4.007
 7329TIP3   OH221863   6.336   0.685   5.472
 7329TIP3    H121864   6.341   0.772   5.517
 7329TIP3    H221865   6.239   0.670   5.473
 7330TIP3   OH221866   6.671   1.140   4.373
 7330TIP3    H121867   6.751   1.193   4.390
 7330TIP3    H221868   6.611   1.203   4.331
 7331TIP3   OH221869   6.390   1.295   5.451
 7331TIP3    H121870   6.354   1.294   5.361
 7331TIP3    H221871   6.311   1.272   5.505
 7332TIP3   OH221872   6.182   0.450   4.498
 7332TIP3    H121873   6.116   0.483   4.435
 7332TIP3    H221874   6.165   0.355   4.500
 7333TIP3   OH221875   7.244   1.067   3.694
 7333TIP3    H121876   7.253   1.164   3.677
 7333TIP3    H221877   7.337   1.038   3.681
 7334TIP3   OH221878   5.966   0.829   5.398
 7334TIP3    H121879   5.901   0.809   5.327
 7334TIP3    H221880   6.001   0.741   5.421
 7335TIP3   OH221881   5.823   1.017   5.035
 7335TIP3    H121882   5.919   1.013   5.023
 7335TIP3    H221883   5.813   1.099   5.086
 7336TIP3   OH221884   7.687   1.469   5.086
 7336TIP3    H121885   7.686   1.373   5.101
 7336TIP3    H221886   7.604   1.495   5.132
 7337TIP3   OH221887   6.793   1.256   5.221
 7337TIP3    H121888   6.793   1.349   5.254
 7337TIP3    H221889   6.722   1.217   5.277
 7338TIP3   OH221890   6.553   1.385   4.173
 7338TIP3    H121891   6.507   1.364   4.090
 7338TIP3    H221892   6.519   1.474   4.195
 7339TIP3   OH221893   5.991   1.235   4.558
 7339TIP3    H121894   6.040   1.225   4.643
 7339TIP3    H221895   5.934   1.157   4.561
 7340TIP3   OH221896   6.755   1.286   3.814
 7340TIP3    H121897   6.814   1.217   3.777
 7340TIP3    H221898   6.790   1.294   3.906
 7341TIP3   OH221899   6.805   1.335   4.085
 7341TIP3    H121900   6.717   1.343   4.127
 7341TIP3    H221901   6.855   1.290   4.155
 7342TIP3   OH221902   7.579   0.594   5.378
 7342TIP3    H121903   7.507   0.631   5.325
 7342TIP3    H221904   7.599   0.512   5.333
 7343TIP3   OH221905   6.175   1.008   5.387
 7343TIP3    H121906   6.222   0.993   5.471
 7343TIP3    H221907   6.099   0.946   5.395
 7344TIP3   OH221908   7.244   0.463   5.373
 7344TIP3    H121909   7.290   0.379   5.356
 7344TIP3    H221910   7.267   0.517   5.296
 7345TIP3   OH221911   7.009   0.501   3.842
 7345TIP3    H121912   6.971   0.480   3.754
 7345TIP3    H221913   7.085   0.557   3.816
 7346TIP3   OH221914   6.514   0.347   5.194
 7346TIP3    H121915   6.453   0.368   5.268
 7346TIP3    H221916   6.498   0.424   5.136
 7347TIP3   OH221917   6.376   0.257   4.701
 7347TIP3    H121918   6.299   0.205   4.730
 7347TIP3    H221919   6.398   0.212   4.617
 7348TIP3   OH221920   6.868   0.342   4.438
 7348TIP3    H121921   6.814   0.407   4.388
 7348TIP3    H221922   6.915   0.297   4.367
 7349TIP3   OH221923   7.061   0.654   5.483
 7349TIP3    H121924   7.042   0.602   5.565
 7349TIP3    H221925   7.157   0.641   5.479
 7350TIP3   OH221926   7.039   0.352   4.665
 7350TIP3    H121927   6.978   0.392   4.600
 7350TIP3    H221928   7.060   0.270   4.618
 7351TIP3   OH221929   6.332   0.388   5.392
 7351TIP3    H121930   6.337   0.450   5.467
 7351TIP3    H221931   6.288   0.310   5.429
 7352TIP3   OH221932   7.051   0.601   5.098
 7352TIP3    H121933   7.079   0.527   5.039
 7352TIP3    H221934   7.020   0.554   5.176
 7353TIP3   OH221935   6.145   0.110   4.775
 7353TIP3    H121936   6.051   0.125   4.751
 7353TIP3    H221937   6.156   0.017   4.751
 7354TIP3   OH221938   6.425   0.127   4.467
 7354TIP3    H121939   6.520   0.111   4.448
 7354TIP3    H221940   6.383   0.118   4.380
 7355TIP3   OH221941   6.243   0.148   4.235
 7355TIP3    H121942   6.193   0.091   4.176
 7355TIP3    H221943   6.309   0.186   4.173
 7356TIP3   OH221944   7.377   1.820   5.186
 7356TIP3    H121945   7.377   1.845   5.092
 7356TIP3    H221946   7.456   1.868   5.218
 7357TIP3   OH221947   6.334   0.927   5.611
 7357TIP3    H121948   6.416   0.959   5.655
 7357TIP3    H221949   6.270   0.937   5.684
 7358TIP3   OH221950   6.803   0.387   4.866
 7358TIP3    H121951   6.861   0.340   4.805
 7358TIP3    H221952   6.803   0.328   4.943
 7359TIP3   OH221953   6.776   0.258   5.192
 7359TIP3    H121954   6.692   0.305   5.175
 7359TIP3    H221955   6.832   0.329   5.231
 7360TIP3   OH221956   6.498   0.681   4.242
 7360TIP3    H121957   6.431   0.609   4.235
 7360TIP3    H221958   6.486   0.709   4.336
 7361TIP3   OH221959   7.414   0.906   4.878
 7361TIP3    H121960   7.438   0.956   4.797
 7361TIP3    H221961   7.329   0.865   4.853
 7362TIP3   OH221962   6.913   0.990   5.244
 7362TIP3    H121963   6.936   0.968   5.335
 7362TIP3    H221964   6.874   1.079   5.252
 7363TIP3   OH221965   7.039   0.198   4.160
 7363TIP3    H121966   7.124   0.205   4.206
 7363TIP3    H221967   7.017   0.290   4.140
 7364TIP3   OH221968   6.205   0.691   4.923
 7364TIP3    H121969   6.241   0.667   4.835
 7364TIP3    H221970   6.249   0.625   4.979
 7365TIP3   OH221971   6.656   0.821   4.069
 7365TIP3    H121972   6.611   0.909   4.075
 7365TIP3    H221973   6.598   0.768   4.126
 7366TIP3   OH221974   6.075   0.617   5.539
 7366TIP3    H121975   6.099   0.601   5.632
 7366TIP3    H221976   6.003   0.552   5.524
 7367TIP3   OH221977   6.808   0.736   5.560
 7367TIP3    H121978   6.740   0.683   5.514
 7367TIP3    H221979   6.890   0.709   5.514
 7368TIP3   OH221980   7.073   1.250   5.139
 7368TIP3    H121981   6.976   1.248   5.152
 7368TIP3    H221982   7.101   1.301   5.218
 7369TIP3   OH221983   7.484   0.315   4.048
 7369TIP3    H121984   7.427   0.267   3.984
 7369TIP3    H221985   7.480   0.403   4.006
 7370TIP3   OH221986   7.700   1.176   5.131
 7370TIP3    H121987   7.602   1.173   5.121
 7370TIP3    H221988   7.726   1.148   5.041
 7371TIP3   OH221989   7.180   1.140   3.957
 7371TIP3    H121990   7.158   1.067   4.017
 7371TIP3    H221991   7.195   1.095   3.872
 7372TIP3   OH221992   7.179   0.768   4.800
 7372TIP3    H121993   7.085   0.743   4.809
 7372TIP3    H221994   7.214   0.689   4.753
 7373TIP3   OH221995   6.305   0.997   4.551
 7373TIP3    H121996   6.306   1.078   4.495
 7373TIP3    H221997   6.210   0.980   4.555
 7374TIP3   OH221998   5.869   0.298   4.252
 7374TIP3    H121999   5.918   0.381   4.270
 7374TIP3    H222000   5.793   0.307   4.313
 7375TIP3   OH222001   6.446   0.764   4.494
 7375TIP3    H122002   6.409   0.852   4.514
 7375TIP3    H222003   6.410   0.711   4.568
 7376TIP3   OH222004   6.574   1.341   5.018
 7376TIP3    H122005   6.616   1.413   4.968
 7376TIP3    H222006   6.650   1.306   5.067
 7377TIP3   OH222007   6.224   1.237   4.400
 7377TIP3    H122008   6.139   1.244   4.447
 7377TIP3    H222009   6.255   1.330   4.403
 7378TIP3   OH222010   6.964   0.975   4.975
 7378TIP3    H122011   6.955   0.974   5.073
 7378TIP3    H222012   7.043   0.921   4.962
 7379TIP3   OH222013   6.936   0.867   3.859
 7379TIP3    H122014   6.989   0.843   3.938
 7379TIP3    H222015   6.848   0.840   3.889
 7380TIP3   OH222016   7.212   1.509   5.027
 7380TIP3    H122017   7.133   1.452   5.020
 7380TIP3    H222018   7.195   1.573   4.955
 7381TIP3   OH222019   7.277   1.342   3.679
 7381TIP3    H122020   7.323   1.414   3.632
 7381TIP3    H222021   7.197   1.390   3.708
 7382TIP3   OH222022   7.097   0.803   4.075
 7382TIP3    H122023   7.086   0.736   4.146
 7382TIP3    H222024   7.194   0.799   4.063
 7383TIP3   OH222025   6.013   1.204   5.177
 7383TIP3    H122026   6.067   1.130   5.208
 7383TIP3    H222027   6.041   1.275   5.237
 7384TIP3   OH222028   6.302   0.850   3.859
 7384TIP3    H122029   6.318   0.758   3.828
 7384TIP3    H222030   6.283   0.835   3.954
 7385TIP3   OH222031   6.248   0.853   4.133
 7385TIP3    H122032   6.324   0.822   4.184
 7385TIP3    H222033   6.255   0.950   4.140
 7386TIP3   OH222034   5.981   0.545   4.331
 7386TIP3    H122035   5.918   0.592   4.390
 7386TIP3    H222036   6.000   0.615   4.266
 7387TIP3   OH222037   6.515   1.052   4.081
 7387TIP3    H122038   6.428   1.080   4.116
 7387TIP3    H222039   6.530   1.120   4.013
 7388TIP3   OH222040   6.704   0.103   4.486
 7388TIP3    H122041   6.778   0.160   4.459
 7388TIP3    H222042   6.710   0.109   4.582
 7389TIP3   OH222043   6.962   0.421   5.338
 7389TIP3    H122044   6.978   0.503   5.388
 7389TIP3    H222045   7.053   0.386   5.335
 7390TIP3   OH222046   6.258   1.127   4.146
 7390TIP3    H122047   6.227   1.197   4.084
 7390TIP3    H222048   6.242   1.170   4.233
 7391TIP3   OH222049   7.266   0.530   4.671
 7391TIP3    H122050   7.193   0.466   4.678
 7391TIP3    H222051   7.339   0.483   4.717
 7392TIP3   OH222052   5.975   0.759   4.139
 7392TIP3    H122053   6.044   0.828   4.149
 7392TIP3    H222054   6.021   0.702   4.072
 7393TIP3   OH222055   5.898   0.009   4.255
 7393TIP3    H122056   5.943   0.096   4.261
 7393TIP3    H222057   5.813   0.031   4.295
 7394TIP3   OH222058   7.232   1.484   4.619
 7394TIP3    H122059   7.190   1.531   4.544
 7394TIP3    H222060   7.326   1.504   4.599
 7395TIP3   OH222061   5.849   0.972   4.529
 7395TIP3    H122062   5.774   1.003   4.582
 7395TIP3    H222063   5.827   1.010   4.441
 7396TIP3   OH222064   6.004   1.511   5.598
 7396TIP3    H122065   6.089   1.513   5.646
 7396TIP3    H222066   5.983   1.416   5.598
 7397TIP3   OH222067   6.485   1.478   5.643
 7397TIP3    H122068   6.580   1.460   5.652
 7397TIP3    H222069   6.462   1.419   5.569
 7398TIP3   OH222070   6.468   1.053   3.774
 7398TIP3    H122071   6.411   0.981   3.810
 7398TIP3    H222072   6.542   1.000   3.739
 7399TIP3   OH222073   7.126   1.382   5.375
 7399TIP3    H122074   7.116   1.314   5.445
 7399TIP3    H222075   7.202   1.434   5.407
 7400TIP3   OH222076   6.903   1.095   3.683
 7400TIP3    H122077   6.949   1.031   3.741
 7400TIP3    H222078   6.959   1.094   3.603
 7401TIP3   OH222079   6.133   0.919   5.800
 7401TIP3    H122080   6.147   0.823   5.806
 7401TIP3    H222081   6.045   0.923   5.755
 7402TIP3   OH222082   6.110   0.569   3.993
 7402TIP3    H122083   6.165   0.534   4.064
 7402TIP3    H222084   6.177   0.575   3.921
 7403TIP3   OH222085   6.742   1.005   5.573
 7403TIP3    H122086   6.701   1.017   5.485
 7403TIP3    H222087   6.774   0.912   5.570
 7404TIP3   OH222088   6.618   0.771   3.799
 7404TIP3    H122089   6.622   0.783   3.896
 7404TIP3    H222090   6.621   0.673   3.794
 7405TIP3   OH222091   7.235   1.010   5.179
 7405TIP3    H122092   7.308   1.057   5.134
 7405TIP3    H222093   7.163   1.073   5.167
 7406TIP3   OH222094   6.255   0.630   5.783
 7406TIP3    H122095   6.345   0.611   5.754
 7406TIP3    H222096   6.273   0.671   5.870
 7407TIP3   OH222097   6.317   0.473   4.217
 7407TIP3    H122098   6.297   0.427   4.300
 7407TIP3    H222099   6.355   0.400   4.163
 7408TIP3   OH222100   6.593   0.601   5.434
 7408TIP3    H122101   6.502   0.640   5.439
 7408TIP3    H222102   6.616   0.613   5.340
 7409TIP3   OH222103   6.418   0.272   4.060
 7409TIP3    H122104   6.396   0.267   3.965
 7409TIP3    H222105   6.516   0.271   4.054
 7410TIP3   OH222106   7.107   0.946   5.582
 7410TIP3    H122107   7.181   0.914   5.529
 7410TIP3    H222108   7.098   0.874   5.648
 7411TIP3   OH222109   7.244   0.597   3.717
 7411TIP3    H122110   7.221   0.552   3.632
 7411TIP3    H222111   7.213   0.688   3.695
 7412TIP3   OH222112   6.666   0.377   5.562
 7412TIP3    H122113   6.695   0.303   5.504
 7412TIP3    H222114   6.654   0.451   5.497
 7413TIP3   OH222115   6.770   0.646   5.215
 7413TIP3    H122116   6.847   0.670   5.161
 7413TIP3    H222117   6.707   0.717   5.193
 7414TIP3   OH222118   7.325   0.625   5.638
 7414TIP3    H122119   7.369   0.540   5.632
 7414TIP3    H222120   7.391   0.686   5.601
 7415TIP3   OH222121   7.369   0.864   5.363
 7415TIP3    H122122   7.308   0.919   5.307
 7415TIP3    H222123   7.455   0.890   5.323
 7416TIP3   OH222124   6.557   0.458   5.798
 7416TIP3    H122125   6.539   0.365   5.812
 7416TIP3    H222126   6.610   0.452   5.715
 7417TIP3   OH222127   7.004   0.483   5.673
 7417TIP3    H122128   6.978   0.454   5.762
 7417TIP3    H222129   7.035   0.400   5.633
 7418TIP3   OH222130   6.227   1.332   3.960
 7418TIP3    H122131   6.323   1.326   3.940
 7418TIP3    H222132   6.197   1.378   3.880
 7419TIP3   OH222133   5.707   0.710   4.177
 7419TIP3    H122134   5.802   0.733   4.162
 7419TIP3    H222135   5.703   0.621   4.136
 7420TIP3   OH222136   5.621   1.323   4.588
 7420TIP3    H122137   5.554   1.261   4.553
 7420TIP3    H222138   5.666   1.267   4.655
 7421TIP3   OH222139   5.757   1.176   4.776
 7421TIP3    H122140   5.746   1.102   4.836
 7421TIP3    H222141   5.808   1.237   4.832
 7422TIP3   OH222142   7.482   1.581   4.574
 7422TIP3    H122143   7.512   1.609   4.663
 7422TIP3    H222144   7.552   1.616   4.517
 7423TIP3   OH222145   7.514   1.595   4.857
 7423TIP3    H122146   7.471   1.507   4.854
 7423TIP3    H222147   7.590   1.574   4.913
 7424TIP3   OH222148   7.561   1.270   5.432
 7424TIP3    H122149   7.487   1.280   5.495
 7424TIP3    H222150   7.602   1.359   5.434
 7425TIP3   OH222151   7.377   0.783   4.050
 7425TIP3    H122152   7.445   0.848   4.022
 7425TIP3    H222153   7.421   0.744   4.129
 7426TIP3   OH222154   7.506   0.648   4.252
 7426TIP3    H122155   7.440   0.607   4.312
 7426TIP3    H222156   7.570   0.688   4.315
 7427TIP3   OH222157   7.558   1.043   4.687
 7427TIP3    H122158   7.611   0.979   4.636
 7427TIP3    H222159   7.550   1.118   4.625
 7428TIP3   OH222160   7.390   1.345   4.882
 7428TIP3    H122161   7.319   1.386   4.934
 7428TIP3    H222162   7.340   1.296   4.813
 7429TIP3   OH222163   7.441   0.555   3.902
 7429TIP3    H122164   7.371   0.564   3.833
 7429TIP3    H222165   7.417   0.631   3.958
 7430TIP3   OH222166   7.329   0.226   3.844
 7430TIP3    H122167   7.281   0.298   3.802
 7430TIP3    H222168   7.274   0.150   3.819
 7431TIP3   OH222169   7.319   0.511   4.402
 7431TIP3    H122170   7.308   0.415   4.390
 7431TIP3    H222171   7.307   0.522   4.499
 7432TIP3   OH222172   5.944   0.575   5.150
 7432TIP3    H122173   5.944   0.549   5.056
 7432TIP3    H222174   6.042   0.583   5.165
 7433TIP3   OH222175   7.613   0.928   5.257
 7433TIP3    H122176   7.686   0.864   5.242
 7433TIP3    H222177   7.636   1.001   5.196
 7434TIP3   OH222178   7.796   0.723   5.268
 7434TIP3    H122179   7.730   0.676   5.323
 7434TIP3    H222180   7.879   0.689   5.304
 7435TIP3   OH222181   7.310   0.248   4.272
 7435TIP3    H122182   7.351   0.183   4.330
 7435TIP3    H222183   7.376   0.263   4.203
 7436TIP3   OH222184   7.485   0.421   4.798
 7436TIP3    H122185   7.572   0.441   4.756
 7436TIP3    H222186   7.502   0.452   4.889
 7437TIP3   OH222187   7.542   0.552   5.039
 7437TIP3    H122188   7.460   0.595   5.071
 7437TIP3    H222189   7.579   0.624   4.982
 7438TIP3   OH222190   5.939   0.240   5.231
 7438TIP3    H122191   5.984   0.223   5.146
 7438TIP3    H222192   5.960   0.333   5.243
 7439TIP3   OH222193   7.066   1.444   4.233
 7439TIP3    H122194   7.116   1.425   4.150
 7439TIP3    H222195   7.128   1.500   4.281
 7440TIP3   OH222196   6.171   1.239   5.618
 7440TIP3    H122197   6.077   1.217   5.604
 7440TIP3    H222198   6.179   1.232   5.714
 7441TIP3   OH222199   6.347   1.276   5.165
 7441TIP3    H122200   6.299   1.352   5.127
 7441TIP3    H222201   6.433   1.290   5.122
 7442TIP3   OH222202   6.793   1.523   5.303
 7442TIP3    H122203   6.835   1.523   5.392
 7442TIP3    H222204   6.860   1.574   5.252
 7443TIP3   OH222205   6.973   1.674   5.161
 7443TIP3    H122206   7.045   1.622   5.122
 7443TIP3    H222207   7.023   1.731   5.223
 7444TIP3   OH222208   6.024   1.534   5.190
 7444TIP3    H122209   5.935   1.567   5.167
 7444TIP3    H222210   6.035   1.573   5.277
 7445TIP3   OH222211   6.260   1.513   5.047
 7445TIP3    H122212   6.174   1.526   5.092
 7445TIP3    H222213   6.240   1.546   4.957
 7446TIP3   OH222214   6.687   1.543   4.844
 7446TIP3    H122215   6.617   1.564   4.780
 7446TIP3    H222216   6.699   1.630   4.889
 7447TIP3   OH222217   6.955   1.481   4.896
 7447TIP3    H122218   6.861   1.498   4.876
 7447TIP3    H222219   6.998   1.559   4.856
 7448TIP3   OH222220   7.164   1.674   4.813
 7448TIP3    H122221   7.150   1.758   4.764
 7448TIP3    H222222   7.190   1.613   4.741
 7449TIP3   OH222223   5.936   1.329   4.934
 7449TIP3    H122224   5.962   1.304   5.025
 7449TIP3    H222225   6.008   1.284   4.884
 7450TIP3   OH222226   6.129   1.199   4.791
 7450TIP3    H122227   6.146   1.115   4.839
 7450TIP3    H222228   6.220   1.236   4.786
 7451TIP3   OH222229   6.396   1.296   4.793
 7451TIP3    H122230   6.427   1.204   4.780
 7451TIP3    H222231   6.439   1.316   4.878
 7452TIP3   OH222232   5.723   1.100   4.327
 7452TIP3    H122233   5.639   1.067   4.292
 7452TIP3    H222234   5.712   1.194   4.309
 7453TIP3   OH222235   6.495   1.291   3.906
 7453TIP3    H122236   6.585   1.311   3.871
 7453TIP3    H222237   6.473   1.215   3.848
 7454TIP3   OH222238   7.211   1.406   4.002
 7454TIP3    H122239   7.205   1.308   3.989
 7454TIP3    H222240   7.171   1.437   3.918
 7455TIP3   OH222241   5.801   1.127   3.965
 7455TIP3    H122242   5.801   1.151   4.058
 7455TIP3    H222243   5.889   1.085   3.953
 7456TIP3   OH222244   7.442   1.552   5.188
 7456TIP3    H122245   7.362   1.520   5.140
 7456TIP3    H222246   7.422   1.648   5.192
 7457TIP3   OH222247   8.708   0.924   3.949
 7457TIP3    H122248   8.684   1.018   3.939
 7457TIP3    H222249   8.625   0.881   3.921
 7458TIP3   OH222250   8.694   0.917   4.334
 7458TIP3    H122251   8.734   0.896   4.421
 7458TIP3    H222252   8.653   0.831   4.312
 7459TIP3   OH222253   8.004   0.823   4.699
 7459TIP3    H122254   8.041   0.758   4.763
 7459TIP3    H222255   8.082   0.879   4.684
 7460TIP3   OH222256   8.947   1.225   4.016
 7460TIP3    H122257   8.944   1.157   4.085
 7460TIP3    H222258   8.978   1.302   4.068
 7461TIP3   OH222259   7.976   1.227   4.427
 7461TIP3    H122260   7.968   1.129   4.429
 7461TIP3    H222261   8.072   1.237   4.420
 7462TIP3   OH222262   7.675   0.410   4.220
 7462TIP3    H122263   7.638   0.498   4.239
 7462TIP3    H222264   7.608   0.377   4.157
 7463TIP3   OH222265   7.745   0.717   4.381
 7463TIP3    H122266   7.796   0.642   4.419
 7463TIP3    H222267   7.807   0.752   4.314
 7464TIP3   OH222268   8.600   1.686   4.033
 7464TIP3    H122269   8.642   1.612   3.986
 7464TIP3    H222270   8.594   1.651   4.123
 7465TIP3   OH222271   8.505   1.147   4.385
 7465TIP3    H122272   8.543   1.070   4.340
 7465TIP3    H222273   8.588   1.195   4.406
 7466TIP3   OH222274   8.922   0.667   4.412
 7466TIP3    H122275   8.947   0.583   4.451
 7466TIP3    H222276   8.894   0.642   4.321
 7467TIP3   OH222277   7.888   0.510   4.487
 7467TIP3    H122278   7.970   0.487   4.537
 7467TIP3    H222279   7.908   0.458   4.406
 7468TIP3   OH222280   8.330   0.712   4.286
 7468TIP3    H122281   8.422   0.680   4.299
 7468TIP3    H222282   8.286   0.630   4.255
 7469TIP3   OH222283   8.615   1.159   3.811
 7469TIP3    H122284   8.557   1.124   3.741
 7469TIP3    H222285   8.560   1.234   3.844
 7470TIP3   OH222286   8.363   1.065   4.618
 7470TIP3    H122287   8.299   1.130   4.653
 7470TIP3    H222288   8.403   1.114   4.543
 7471TIP3   OH222289   8.124   0.416   4.579
 7471TIP3    H122290   8.189   0.480   4.615
 7471TIP3    H222291   8.177   0.368   4.515
 7472TIP3   OH222292   8.186   1.260   4.708
 7472TIP3    H122293   8.161   1.346   4.668
 7472TIP3    H222294   8.107   1.246   4.765
 7473TIP3   OH222295   7.580   0.952   3.945
 7473TIP3    H122296   7.541   0.978   3.860
 7473TIP3    H222297   7.611   1.037   3.981
 7474TIP3   OH222298   9.009   1.452   4.174
 7474TIP3    H122299   8.919   1.454   4.214
 7474TIP3    H222300   9.014   1.541   4.135
 7475TIP3   OH222301   8.720   1.504   3.862
 7475TIP3    H122302   8.780   1.429   3.843
 7475TIP3    H222303   8.775   1.579   3.829
 7476TIP3   OH222304   8.872   1.279   3.756
 7476TIP3    H122305   8.789   1.227   3.759
 7476TIP3    H222306   8.909   1.257   3.845
 7477TIP3   OH222307   8.532   0.778   3.787
 7477TIP3    H122308   8.451   0.827   3.764
 7477TIP3    H222309   8.576   0.769   3.701
 7478TIP3   OH222310   8.492   0.576   3.505
 7478TIP3    H122311   8.574   0.609   3.545
 7478TIP3    H222312   8.521   0.490   3.469
 7479TIP3   OH222313   8.896   0.853   3.768
 7479TIP3    H122314   8.827   0.880   3.833
 7479TIP3    H222315   8.974   0.855   3.826
 7480TIP3   OH222316   9.125   0.905   4.652
 7480TIP3    H122317   9.115   0.979   4.713
 7480TIP3    H222318   9.041   0.905   4.605
 7481TIP3   OH222319   8.119   0.857   4.174
 7481TIP3    H122320   8.075   0.799   4.108
 7481TIP3    H222321   8.194   0.800   4.203
 7482TIP3   OH222322   8.246   1.266   4.323
 7482TIP3    H122323   8.226   1.224   4.238
 7482TIP3    H222324   8.336   1.233   4.342
 7483TIP3   OH222325   8.254   0.824   4.531
 7483TIP3    H122326   8.286   0.800   4.441
 7483TIP3    H222327   8.300   0.908   4.549
 7484TIP3   OH222328   8.772   1.467   4.303
 7484TIP3    H122329   8.763   1.546   4.360
 7484TIP3    H222330   8.763   1.393   4.365
 7485TIP3   OH222331   8.391   1.383   4.851
 7485TIP3    H122332   8.332   1.446   4.898
 7485TIP3    H222333   8.326   1.330   4.803
 7486TIP3   OH222334   8.727   0.707   3.593
 7486TIP3    H122335   8.792   0.759   3.644
 7486TIP3    H222336   8.757   0.725   3.501
 7487TIP3   OH222337   8.128   0.946   4.953
 7487TIP3    H122338   8.135   1.030   5.002
 7487TIP3    H222339   8.033   0.925   4.965
 7488TIP3   OH222340   8.466   1.392   3.862
 7488TIP3    H122341   8.546   1.446   3.876
 7488TIP3    H222342   8.406   1.454   3.818
 7489TIP3   OH222343   8.186   1.552   4.938
 7489TIP3    H122344   8.151   1.550   4.847
 7489TIP3    H222345   8.106   1.530   4.992
 7490TIP3   OH222346   7.981   0.706   3.980
 7490TIP3    H122347   7.913   0.744   3.920
 7490TIP3    H222348   7.955   0.614   3.986
 7491TIP3   OH222349   7.763   1.085   4.885
 7491TIP3    H122350   7.699   1.063   4.814
 7491TIP3    H222351   7.798   0.997   4.910
 7492TIP3   OH222352   7.620   1.275   4.520
 7492TIP3    H122353   7.715   1.266   4.507
 7492TIP3    H222354   7.615   1.354   4.576
 7493TIP3   OH222355   8.589   1.512   4.708
 7493TIP3    H122356   8.589   1.605   4.741
 7493TIP3    H222357   8.518   1.473   4.764
 7494TIP3   OH222358   8.350   1.642   3.659
 7494TIP3    H122359   8.300   1.620   3.578
 7494TIP3    H222360   8.316   1.731   3.682
 7495TIP3   OH222361   7.786   1.492   4.045
 7495TIP3    H122362   7.835   1.481   4.130
 7495TIP3    H222363   7.732   1.411   4.045
 7496TIP3   OH222364   8.555   1.546   3.300
 7496TIP3    H122365   8.615   1.475   3.268
 7496TIP3    H222366   8.584   1.555   3.393
 7497TIP3   OH222367   8.601   1.591   3.572
 7497TIP3    H122368   8.511   1.601   3.611
 7497TIP3    H222369   8.649   1.552   3.646
 7498TIP3   OH222370   7.970   1.266   4.875
 7498TIP3    H122371   8.020   1.249   4.957
 7498TIP3    H222372   7.896   1.202   4.882
 7499TIP3   OH222373   8.798   0.756   3.329
 7499TIP3    H122374   8.776   0.732   3.236
 7499TIP3    H222375   8.845   0.840   3.318
 7500TIP3   OH222376   8.305   0.599   4.681
 7500TIP3    H122377   8.249   0.622   4.758
 7500TIP3    H222378   8.288   0.676   4.623
 7501TIP3   OH222379   8.172   0.514   4.185
 7501TIP3    H122380   8.098   0.462   4.219
 7501TIP3    H222381   8.194   0.466   4.102
 7502TIP3   OH222382   8.677   0.582   3.905
 7502TIP3    H122383   8.613   0.653   3.885
 7502TIP3    H222384   8.728   0.583   3.823
 7503TIP3   OH222385   8.873   0.888   4.961
 7503TIP3    H122386   8.843   0.845   5.046
 7503TIP3    H222387   8.964   0.908   4.986
 7504TIP3   OH222388   8.819   0.594   4.166
 7504TIP3    H122389   8.776   0.642   4.093
 7504TIP3    H222390   8.858   0.520   4.118
 7505TIP3   OH222391   8.118   0.647   4.880
 7505TIP3    H122392   8.144   0.701   4.957
 7505TIP3    H222393   8.093   0.563   4.921
 7506TIP3   OH222394   8.831   0.860   4.575
 7506TIP3    H122395   8.871   0.788   4.521
 7506TIP3    H222396   8.825   0.818   4.662
 7507TIP3   OH222397   7.943   0.366   4.260
 7507TIP3    H122398   7.849   0.381   4.234
 7507TIP3    H222399   7.961   0.278   4.226
 7508TIP3   OH222400   8.228   0.383   3.949
 7508TIP3    H122401   8.315   0.360   3.912
 7508TIP3    H222402   8.170   0.377   3.871
 7509TIP3   OH222403   8.044   0.401   3.729
 7509TIP3    H122404   7.989   0.347   3.669
 7509TIP3    H222405   8.107   0.436   3.663
 7510TIP3   OH222406   9.165   2.083   4.670
 7510TIP3    H122407   9.169   2.100   4.573
 7510TIP3    H222408   9.236   2.141   4.702
 7511TIP3   OH222409   8.130   1.187   5.096
 7511TIP3    H122410   8.211   1.216   5.141
 7511TIP3    H222411   8.067   1.190   5.170
 7512TIP3   OH222412   8.598   0.645   4.351
 7512TIP3    H122413   8.668   0.602   4.299
 7512TIP3    H222414   8.597   0.592   4.432
 7513TIP3   OH222415   8.572   0.522   4.661
 7513TIP3    H122416   8.484   0.562   4.660
 7513TIP3    H222417   8.624   0.584   4.715
 7514TIP3   OH222418   8.308   0.929   3.735
 7514TIP3    H122419   8.235   0.863   3.723
 7514TIP3    H222420   8.288   0.962   3.826
 7515TIP3   OH222421   8.717   1.248   4.731
 7515TIP3    H122422   8.728   1.224   4.824
 7515TIP3    H222423   8.672   1.334   4.736
 7516TIP3   OH222424   8.001   0.947   4.410
 7516TIP3    H122425   8.038   0.922   4.323
 7516TIP3    H222426   8.044   0.884   4.469
 7517TIP3   OH222427   8.453   1.078   3.556
 7517TIP3    H122428   8.406   1.165   3.562
 7517TIP3    H222429   8.397   1.024   3.616
 7518TIP3   OH222430   7.869   0.874   5.029
 7518TIP3    H122431   7.898   0.856   5.121
 7518TIP3    H222432   7.804   0.804   5.013
 7519TIP3   OH222433   8.613   0.992   5.046
 7519TIP3    H122434   8.536   0.946   5.004
 7519TIP3    H222435   8.687   0.960   4.992
 7520TIP3   OH222436   8.867   1.504   4.627
 7520TIP3    H122437   8.771   1.504   4.640
 7520TIP3    H222438   8.896   1.559   4.703
 7521TIP3   OH222439   8.992   1.368   3.420
 7521TIP3    H122440   8.970   1.350   3.513
 7521TIP3    H222441   8.916   1.329   3.374
 7522TIP3   OH222442   8.944   1.037   4.280
 7522TIP3    H122443   8.859   0.989   4.287
 7522TIP3    H222444   9.008   0.966   4.269
 7523TIP3   OH222445   8.102   1.253   4.036
 7523TIP3    H122446   8.103   1.335   3.982
 7523TIP3    H222447   8.007   1.235   4.041
 7524TIP3   OH222448   7.667   0.554   3.740
 7524TIP3    H122449   7.714   0.638   3.756
 7524TIP3    H222450   7.590   0.564   3.799
 7525TIP3   OH222451   8.244   1.021   3.981
 7525TIP3    H122452   8.206   1.109   3.999
 7525TIP3    H222453   8.206   0.968   4.054
 7526TIP3   OH222454   8.370   1.598   4.505
 7526TIP3    H122455   8.412   1.670   4.454
 7526TIP3    H222456   8.447   1.563   4.553
 7527TIP3   OH222457   8.023   1.493   3.892
 7527TIP3    H122458   7.935   1.501   3.934
 7527TIP3    H222459   8.052   1.586   3.891
 7528TIP3   OH222460   8.759   1.233   4.458
 7528TIP3    H122461   8.759   1.227   4.556
 7528TIP3    H222462   8.837   1.179   4.434
 7529TIP3   OH222463   8.726   1.129   3.349
 7529TIP3    H122464   8.780   1.094   3.423
 7529TIP3    H222465   8.637   1.103   3.376
 7530TIP3   OH222466   8.997   1.765   4.515
 7530TIP3    H122467   8.917   1.712   4.500
 7530TIP3    H222468   8.991   1.829   4.441
 7531TIP3   OH222469   8.897   1.037   3.549
 7531TIP3    H122470   8.884   0.979   3.627
 7531TIP3    H222471   8.970   1.093   3.579
 7532TIP3   OH222472   7.807   1.461   4.665
 7532TIP3    H122473   7.861   1.386   4.692
 7532TIP3    H222474   7.839   1.529   4.726
 7533TIP3   OH222475   8.132   1.091   3.347
 7533TIP3    H122476   8.116   0.999   3.319
 7533TIP3    H222477   8.090   1.092   3.436
 7534TIP3   OH222478   8.046   1.109   3.613
 7534TIP3    H122479   8.114   1.086   3.677
 7534TIP3    H222480   8.046   1.208   3.617
 7535TIP3   OH222481   7.779   0.803   3.818
 7535TIP3    H122482   7.715   0.849   3.876
 7535TIP3    H222483   7.794   0.872   3.751
 7536TIP3   OH222484   8.314   1.310   3.568
 7536TIP3    H122485   8.225   1.333   3.602
 7536TIP3    H222486   8.324   1.379   3.500
 7537TIP3   OH222487   8.525   0.362   3.981
 7537TIP3    H122488   8.566   0.449   3.961
 7537TIP3    H222489   8.481   0.380   4.066
 7538TIP3   OH222490   8.754   0.661   4.842
 7538TIP3    H122491   8.789   0.746   4.873
 7538TIP3    H222492   8.830   0.623   4.794
 7539TIP3   OH222493   8.056   1.380   3.635
 7539TIP3    H122494   8.027   1.449   3.571
 7539TIP3    H222495   8.038   1.425   3.720
 7540TIP3   OH222496   7.769   1.013   3.628
 7540TIP3    H122497   7.824   1.093   3.631
 7540TIP3    H222498   7.819   0.963   3.560
 7541TIP3   OH222499   7.692   0.265   3.745
 7541TIP3    H122500   7.735   0.353   3.747
 7541TIP3    H222501   7.605   0.287   3.781
 7542TIP3   OH222502   9.045   1.743   4.117
 7542TIP3    H122503   9.009   1.795   4.041
 7542TIP3    H222504   9.122   1.698   4.076
 7543TIP3   OH222505   7.649   1.230   4.019
 7543TIP3    H122506   7.570   1.259   4.066
 7543TIP3    H222507   7.629   1.266   3.929
 7544TIP3   OH222508   7.799   1.768   5.085
 7544TIP3    H122509   7.886   1.769   5.132
 7544TIP3    H222510   7.780   1.673   5.084
 7545TIP3   OH222511   8.281   1.735   5.129
 7545TIP3    H122512   8.376   1.716   5.138
 7545TIP3    H222513   8.258   1.676   5.055
 7546TIP3   OH222514   8.265   1.312   3.260
 7546TIP3    H122515   8.207   1.241   3.299
 7546TIP3    H222516   8.336   1.257   3.224
 7547TIP3   OH222517   8.920   1.639   4.864
 7547TIP3    H122518   8.910   1.569   4.932
 7547TIP3    H222519   8.995   1.691   4.898
 7548TIP3   OH222520   8.704   1.349   3.181
 7548TIP3    H122521   8.732   1.264   3.223
 7548TIP3    H222522   8.742   1.343   3.091
 7549TIP3   OH222523   7.930   1.175   5.287
 7549TIP3    H122524   7.947   1.079   5.292
 7549TIP3    H222525   7.842   1.177   5.242
 7550TIP3   OH222526   7.908   0.826   3.477
 7550TIP3    H122527   7.962   0.794   3.551
 7550TIP3    H222528   7.975   0.831   3.407
 7551TIP3   OH222529   8.538   1.260   5.060
 7551TIP3    H122530   8.497   1.271   4.973
 7551TIP3    H222531   8.572   1.168   5.057
 7552TIP3   OH222532   8.435   1.014   3.284
 7552TIP3    H122533   8.417   1.037   3.377
 7552TIP3    H222534   8.395   0.926   3.277
 7553TIP3   OH222535   9.038   1.272   4.664
 7553TIP3    H122536   9.085   1.312   4.589
 7553TIP3    H222537   8.956   1.325   4.663
 7554TIP3   OH222538   8.045   0.900   5.270
 7554TIP3    H122539   8.125   0.852   5.246
 7554TIP3    H222540   8.071   0.935   5.358
 7555TIP3   OH222541   8.118   0.728   3.703
 7555TIP3    H122542   8.091   0.688   3.787
 7555TIP3    H222543   8.152   0.651   3.653
 7556TIP3   OH222544   8.392   0.874   4.931
 7556TIP3    H122545   8.298   0.903   4.931
 7556TIP3    H222546   8.412   0.865   4.836
 7557TIP3   OH222547   8.216   0.520   3.548
 7557TIP3    H122548   8.187   0.528   3.455
 7557TIP3    H222549   8.313   0.530   3.538
 7558TIP3   OH222550   8.900   1.199   5.067
 7558TIP3    H122551   8.978   1.171   5.018
 7558TIP3    H222552   8.895   1.132   5.138
 7559TIP3   OH222553   8.421   0.613   5.025
 7559TIP3    H122554   8.502   0.570   5.060
 7559TIP3    H222555   8.454   0.697   4.988
 7560TIP3   OH222556   8.569   0.902   4.706
 7560TIP3    H122557   8.644   0.923   4.648
 7560TIP3    H222558   8.505   0.971   4.681
 7561TIP3   OH222559   9.121   0.878   5.115
 7561TIP3    H122560   9.168   0.794   5.111
 7561TIP3    H222561   9.190   0.943   5.094
 7562TIP3   OH222562   9.176   1.134   4.850
 7562TIP3    H122563   9.113   1.185   4.794
 7562TIP3    H222564   9.256   1.144   4.795
 7563TIP3   OH222565   8.365   0.708   5.283
 7563TIP3    H122566   8.293   0.642   5.288
 7563TIP3    H222567   8.401   0.685   5.196
 7564TIP3   OH222568   8.801   0.744   5.171
 7564TIP3    H122569   8.759   0.725   5.257
 7564TIP3    H222570   8.814   0.654   5.136
 7565TIP3   OH222571   8.023   1.589   3.462
 7565TIP3    H122572   8.109   1.599   3.417
 7565TIP3    H222573   7.961   1.595   3.388
 7566TIP3   OH222574   7.503   0.965   3.666
 7566TIP3    H122575   7.597   0.989   3.650
 7566TIP3    H222576   7.498   0.878   3.622
 7567TIP3   OH222577   7.412   1.579   4.078
 7567TIP3    H122578   7.352   1.512   4.038
 7567TIP3    H222579   7.461   1.523   4.142
 7568TIP3   OH222580   7.551   1.436   4.264
 7568TIP3    H122581   7.544   1.357   4.321
 7568TIP3    H222582   7.605   1.494   4.321
 7569TIP3   OH222583   9.162   1.550   4.397
 7569TIP3    H122584   9.095   1.614   4.426
 7569TIP3    H222585   9.119   1.508   4.320
 7570TIP3   OH222586   7.740   0.836   4.635
 7570TIP3    H122587   7.739   0.807   4.541
 7570TIP3    H222588   7.838   0.839   4.651
 7571TIP3   OH222589   7.729   0.501   4.712
 7571TIP3    H122590   7.781   0.495   4.629
 7571TIP3    H222591   7.754   0.588   4.743
 7572TIP3   OH222592   8.843   1.713   3.749
 7572TIP3    H122593   8.881   1.685   3.662
 7572TIP3    H222594   8.914   1.768   3.784
 7573TIP3   OH222595   7.966   1.502   5.105
 7573TIP3    H122596   7.874   1.473   5.090
 7573TIP3    H222597   7.976   1.484   5.200
 7574TIP3   OH222598   8.143   1.533   4.652
 7574TIP3    H122599   8.096   1.609   4.613
 7574TIP3    H222600   8.230   1.546   4.609
 7575TIP3   OH222601   8.589   1.779   4.791
 7575TIP3    H122602   8.631   1.780   4.879
 7575TIP3    H222603   8.655   1.829   4.738
 7576TIP3   OH222604   8.768   1.930   4.648
 7576TIP3    H122605   8.839   1.880   4.605
 7576TIP3    H222606   8.820   1.987   4.709
 7577TIP3   OH222607   7.820   1.792   4.675
 7577TIP3    H122608   7.731   1.827   4.654
 7577TIP3    H222609   7.831   1.826   4.765
 7578TIP3   OH222610   8.057   1.770   4.534
 7578TIP3    H122611   7.970   1.783   4.579
 7578TIP3    H222612   8.038   1.802   4.444
 7579TIP3   OH222613   8.482   1.799   4.331
 7579TIP3    H122614   8.414   1.821   4.266
 7579TIP3    H222615   8.496   1.886   4.375
 7580TIP3   OH222616   8.749   1.737   4.384
 7580TIP3    H122617   8.656   1.757   4.362
 7580TIP3    H222618   8.796   1.813   4.343
 7581TIP3   OH222619   8.951   1.925   4.302
 7581TIP3    H122620   8.937   2.012   4.257
 7581TIP3    H222621   8.987   1.870   4.229
 7582TIP3   OH222622   7.731   1.586   4.423
 7582TIP3    H122623   7.760   1.560   4.513
 7582TIP3    H222624   7.803   1.542   4.371
 7583TIP3   OH222625   7.924   1.457   4.279
 7583TIP3    H122626   7.941   1.372   4.326
 7583TIP3    H222627   8.015   1.494   4.273
 7584TIP3   OH222628   8.191   1.553   4.281
 7584TIP3    H122629   8.223   1.462   4.266
 7584TIP3    H222630   8.236   1.572   4.365
 7585TIP3   OH222631   7.513   1.356   3.825
 7585TIP3    H122632   7.431   1.322   3.784
 7585TIP3    H222633   7.515   1.445   3.784
 7586TIP3   OH222634   8.294   1.550   3.393
 7586TIP3    H122635   8.382   1.569   3.355
 7586TIP3    H222636   8.268   1.474   3.335
 7587TIP3   OH222637   8.939   1.630   3.514
 7587TIP3    H122638   8.983   1.552   3.477
 7587TIP3    H222639   8.919   1.681   3.433
 7588TIP3   OH222640   9.206   1.813   4.690
 7588TIP3    H122641   9.142   1.772   4.627
 7588TIP3    H222642   9.182   1.908   4.678
 7589TIP3   OH222643   1.159   1.711   5.645
 7589TIP3    H122644   1.132   1.803   5.626
 7589TIP3    H222645   1.081   1.663   5.613
 7590TIP3   OH222646   1.159   1.711   6.023
 7590TIP3    H122647   1.189   1.683   6.111
 7590TIP3    H222648   1.116   1.631   5.989
 7591TIP3   OH222649   0.497   1.644   6.399
 7591TIP3    H122650   0.532   1.564   6.443
 7591TIP3    H222651   0.578   1.690   6.373
 7592TIP3   OH222652   1.402   2.012   5.706
 7592TIP3    H122653   1.387   1.945   5.775
 7592TIP3    H222654   1.429   2.089   5.759
 7593TIP3   OH222655   0.424   2.011   6.114
 7593TIP3    H122656   0.420   1.913   6.118
 7593TIP3    H222657   0.521   2.025   6.111
 7594TIP3   OH222658   1.048   2.476   5.723
 7594TIP3    H122659   1.096   2.405   5.675
 7594TIP3    H222660   1.045   2.441   5.812
 7595TIP3   OH222661   0.956   1.935   6.076
 7595TIP3    H122662   0.995   1.862   6.026
 7595TIP3    H222663   1.040   1.982   6.099
 7596TIP3   OH222664   1.968   1.257   6.071
 7596TIP3    H122665   1.998   1.340   6.114
 7596TIP3    H222666   1.988   1.277   5.978
 7597TIP3   OH222667   1.371   1.439   6.107
 7597TIP3    H122668   1.413   1.353   6.124
 7597TIP3    H222669   1.338   1.425   6.016
 7598TIP3   OH222670   1.401   1.189   5.694
 7598TIP3    H122671   1.474   1.175   5.759
 7598TIP3    H222672   1.451   1.225   5.620
 7599TIP3   OH222673   0.795   1.509   5.970
 7599TIP3    H122674   0.887   1.480   5.987
 7599TIP3    H222675   0.755   1.423   5.943
 7600TIP3   OH222676   2.043   1.464   6.242
 7600TIP3    H122677   1.961   1.513   6.221
 7600TIP3    H222678   2.059   1.495   6.333
 7601TIP3   OH222679   1.049   1.931   5.516
 7601TIP3    H122680   1.011   1.915   5.429
 7601TIP3    H222681   1.008   2.016   5.540
 7602TIP3   OH222682   0.811   1.857   6.304
 7602TIP3    H122683   0.749   1.924   6.339
 7602TIP3    H222684   0.856   1.907   6.232
 7603TIP3   OH222685   1.611   1.192   5.866
 7603TIP3    H122686   1.606   1.144   5.950
 7603TIP3    H222687   1.666   1.269   5.890
 7604TIP3   OH222688   0.634   2.049   6.397
 7604TIP3    H122689   0.613   2.139   6.363
 7604TIP3    H222690   0.554   2.032   6.451
 7605TIP3   OH222691   0.072   1.751   5.622
 7605TIP3    H122692  -0.001   1.776   5.565
 7605TIP3    H222693   0.074   1.824   5.687
 7606TIP3   OH222694   1.473   2.255   5.875
 7606TIP3    H122695   1.383   2.248   5.914
 7606TIP3    H222696   1.465   2.342   5.829
 7607TIP3   OH222697   1.762   1.157   6.237
 7607TIP3    H122698   1.676   1.188   6.206
 7607TIP3    H222699   1.823   1.190   6.167
 7608TIP3   OH222700   1.176   2.302   5.553
 7608TIP3    H122701   1.226   2.221   5.529
 7608TIP3    H222702   1.233   2.369   5.509
 7609TIP3   OH222703   1.315   2.087   5.455
 7609TIP3    H122704   1.284   2.007   5.411
 7609TIP3    H222705   1.352   2.052   5.539
 7610TIP3   OH222706   1.699   2.169   6.219
 7610TIP3    H122707   1.688   2.093   6.159
 7610TIP3    H222708   1.680   2.245   6.159
 7611TIP3   OH222709   0.989   1.563   5.474
 7611TIP3    H122710   0.910   1.616   5.452
 7611TIP3    H222711   1.037   1.562   5.389
 7612TIP3   OH222712   0.948   1.344   5.197
 7612TIP3    H122713   1.016   1.397   5.243
 7612TIP3    H222714   1.006   1.284   5.146
 7613TIP3   OH222715   1.894   1.805   6.063
 7613TIP3    H122716   1.811   1.858   6.067
 7613TIP3    H222717   1.924   1.830   5.973
 7614TIP3   OH222718   1.337   1.644   5.448
 7614TIP3    H122719   1.283   1.670   5.526
 7614TIP3    H222720   1.421   1.620   5.492
 7615TIP3   OH222721   1.573   1.685   6.358
 7615TIP3    H122722   1.570   1.771   6.405
 7615TIP3    H222723   1.486   1.688   6.312
 7616TIP3   OH222724   0.580   1.657   5.876
 7616TIP3    H122725   0.540   1.604   5.804
 7616TIP3    H222726   0.657   1.602   5.901
 7617TIP3   OH222727   0.696   2.051   6.015
 7617TIP3    H122728   0.679   2.010   5.928
 7617TIP3    H222729   0.787   2.022   6.033
 7618TIP3   OH222730   0.699   1.631   6.195
 7618TIP3    H122731   0.740   1.601   6.110
 7618TIP3    H222732   0.753   1.710   6.218
 7619TIP3   OH222733   1.232   2.252   5.995
 7619TIP3    H122734   1.217   2.333   6.046
 7619TIP3    H222735   1.216   2.181   6.060
 7620TIP3   OH222736   0.850   2.157   6.543
 7620TIP3    H122737   0.787   2.218   6.587
 7620TIP3    H222738   0.786   2.107   6.488
 7621TIP3   OH222739   1.178   1.503   5.273
 7621TIP3    H122740   1.237   1.563   5.325
 7621TIP3    H222741   1.205   1.526   5.181
 7622TIP3   OH222742   0.600   1.736   6.646
 7622TIP3    H122743   0.596   1.825   6.688
 7622TIP3    H222744   0.514   1.730   6.603
 7623TIP3   OH222745   0.921   2.185   5.551
 7623TIP3    H122746   1.001   2.238   5.567
 7623TIP3    H222747   0.861   2.250   5.511
 7624TIP3   OH222748   0.631   2.294   6.618
 7624TIP3    H122749   0.606   2.337   6.535
 7624TIP3    H222750   0.575   2.336   6.684
 7625TIP3   OH222751   1.693   0.746   5.320
 7625TIP3    H122752   1.612   0.768   5.371
 7625TIP3    H222753   1.708   0.829   5.271
 7626TIP3   OH222754   0.475   1.515   5.666
 7626TIP3    H122755   0.403   1.563   5.622
 7626TIP3    H222756   0.431   1.430   5.683
 7627TIP3   OH222757   1.491   2.113   4.868
 7627TIP3    H122758   1.500   2.210   4.854
 7627TIP3    H222759   1.584   2.084   4.857
 7628TIP3   OH222760   0.061   2.063   6.218
 7628TIP3    H122761   0.151   2.034   6.196
 7628TIP3    H222762   0.082   2.145   6.267
 7629TIP3   OH222763   1.937   2.515   6.265
 7629TIP3    H122764   1.934   2.418   6.277
 7629TIP3    H222765   1.853   2.540   6.309
 7630TIP3   OH222766   1.044   2.290   6.395
 7630TIP3    H122767   1.050   2.383   6.425
 7630TIP3    H222768   0.972   2.256   6.453
 7631TIP3   OH222769   0.783   2.420   5.354
 7631TIP3    H122770   0.773   2.414   5.258
 7631TIP3    H222771   0.771   2.514   5.373
 7632TIP3   OH222772   0.240   2.279   5.735
 7632TIP3    H122773   0.291   2.272   5.818
 7632TIP3    H222774   0.181   2.202   5.744
 7633TIP3   OH222775   1.051   2.405   5.282
 7633TIP3    H122776   0.962   2.384   5.314
 7633TIP3    H222777   1.105   2.336   5.322
 7634TIP3   OH222778   1.825   1.645   6.540
 7634TIP3    H122779   1.746   1.661   6.486
 7634TIP3    H222780   1.840   1.549   6.525
 7635TIP3   OH222781   0.411   2.033   6.564
 7635TIP3    H122782   0.472   2.055   6.637
 7635TIP3    H222783   0.340   1.988   6.613
 7636TIP3   OH222784   1.346   0.987   6.555
 7636TIP3    H122785   1.433   0.965   6.597
 7636TIP3    H222786   1.290   0.994   6.634
 7637TIP3   OH222787   1.595   1.421   6.457
 7637TIP3    H122788   1.546   1.417   6.542
 7637TIP3    H222789   1.572   1.508   6.422
 7638TIP3   OH222790   1.254   1.549   5.018
 7638TIP3    H122791   1.221   1.524   4.929
 7638TIP3    H222792   1.332   1.603   4.994
 7639TIP3   OH222793   0.954   0.930   5.327
 7639TIP3    H122794   0.919   0.939   5.418
 7639TIP3    H222795   0.948   0.835   5.317
 7640TIP3   OH222796   0.804   1.434   6.354
 7640TIP3    H122797   0.727   1.414   6.408
 7640TIP3    H222798   0.767   1.497   6.289
 7641TIP3   OH222799   0.674   1.281   5.889
 7641TIP3    H122800   0.589   1.242   5.914
 7641TIP3    H222801   0.680   1.249   5.797
 7642TIP3   OH222802   1.133   1.370   5.607
 7642TIP3    H122803   1.078   1.440   5.566
 7642TIP3    H222804   1.185   1.338   5.530
 7643TIP3   OH222805   1.304   1.645   6.695
 7643TIP3    H122806   1.288   1.571   6.756
 7643TIP3    H222807   1.398   1.663   6.712
 7644TIP3   OH222808   1.286   1.393   5.848
 7644TIP3    H122809   1.227   1.426   5.777
 7644TIP3    H222810   1.318   1.312   5.804
 7645TIP3   OH222811   1.299   1.640   6.270
 7645TIP3    H122812   1.330   1.567   6.211
 7645TIP3    H222813   1.267   1.587   6.346
 7646TIP3   OH222814   0.973   1.113   5.938
 7646TIP3    H122815   0.884   1.120   5.976
 7646TIP3    H222816   1.029   1.116   6.017
 7647TIP3   OH222817   0.668   1.181   5.637
 7647TIP3    H122818   0.763   1.172   5.619
 7647TIP3    H222819   0.627   1.169   5.549
 7648TIP3   OH222820   1.457   1.175   6.145
 7648TIP3    H122821   1.423   1.189   6.236
 7648TIP3    H222822   1.391   1.113   6.111
 7649TIP3   OH222823   0.515   1.155   5.402
 7649TIP3    H122824   0.433   1.155   5.350
 7649TIP3    H222825   0.573   1.209   5.343
 7650TIP3   OH222826   1.627   2.864   6.362
 7650TIP3    H122827   1.623   2.888   6.268
 7650TIP3    H222828   1.703   2.916   6.393
 7651TIP3   OH222829   0.593   1.978   6.780
 7651TIP3    H122830   0.681   2.013   6.800
 7651TIP3    H222831   0.549   2.007   6.861
 7652TIP3   OH222832   1.052   1.431   6.042
 7652TIP3    H122833   1.123   1.389   5.990
 7652TIP3    H222834   1.061   1.387   6.129
 7653TIP3   OH222835   1.039   1.313   6.312
 7653TIP3    H122836   0.955   1.359   6.336
 7653TIP3    H222837   1.101   1.357   6.373
 7654TIP3   OH222838   0.759   1.716   5.422
 7654TIP3    H122839   0.685   1.653   5.413
 7654TIP3    H222840   0.743   1.751   5.514
 7655TIP3   OH222841   1.662   1.951   6.054
 7655TIP3    H122842   1.686   2.002   5.973
 7655TIP3    H222843   1.576   1.911   6.029
 7656TIP3   OH222844   1.214   1.027   5.288
 7656TIP3    H122845   1.116   1.019   5.293
 7656TIP3    H222846   1.230   1.122   5.307
 7657TIP3   OH222847   1.160   2.033   6.421
 7657TIP3    H122848   1.181   2.019   6.514
 7657TIP3    H222849   1.121   2.122   6.421
 7658TIP3   OH222850   1.290   1.274   5.387
 7658TIP3    H122851   1.386   1.283   5.404
 7658TIP3    H222852   1.270   1.355   5.335
 7659TIP3   OH222853   0.445   1.730   6.106
 7659TIP3    H122854   0.482   1.709   6.018
 7659TIP3    H222855   0.515   1.694   6.163
 7660TIP3   OH222856   0.909   1.862   5.242
 7660TIP3    H122857   0.862   1.948   5.251
 7660TIP3    H222858   0.855   1.807   5.303
 7661TIP3   OH222859   1.058   1.767   6.735
 7661TIP3    H122860   1.003   1.720   6.670
 7661TIP3    H222861   1.147   1.739   6.706
 7662TIP3   OH222862   1.322   2.289   6.318
 7662TIP3    H122863   1.225   2.291   6.329
 7662TIP3    H222864   1.349   2.344   6.395
 7663TIP3   OH222865   1.732   1.365   5.226
 7663TIP3    H122866   1.669   1.321   5.164
 7663TIP3    H222867   1.728   1.455   5.186
 7664TIP3   OH222868   1.950   2.222   6.308
 7664TIP3    H122869   1.852   2.218   6.299
 7664TIP3    H222870   1.975   2.193   6.217
 7665TIP3   OH222871   1.438   2.184   5.135
 7665TIP3    H122872   1.405   2.114   5.193
 7665TIP3    H222873   1.445   2.139   5.049
 7666TIP3   OH222874   1.427   1.814   5.975
 7666TIP3    H122875   1.333   1.789   5.987
 7666TIP3    H222876   1.460   1.735   5.928
 7667TIP3   OH222877   0.555   2.041   5.724
 7667TIP3    H122878   0.560   2.123   5.672
 7667TIP3    H222879   0.460   2.030   5.734
 7668TIP3   OH222880   0.693   1.808   5.667
 7668TIP3    H122881   0.659   1.898   5.686
 7668TIP3    H222882   0.662   1.760   5.747
 7669TIP3   OH222883   0.822   2.384   6.194
 7669TIP3    H122884   0.860   2.462   6.149
 7669TIP3    H222885   0.899   2.354   6.246
 7670TIP3   OH222886   0.473   2.281   5.575
 7670TIP3    H122887   0.388   2.292   5.623
 7670TIP3    H222888   0.507   2.373   5.579
 7671TIP3   OH222889   1.211   2.018   6.153
 7671TIP3    H122890   1.203   2.018   6.251
 7671TIP3    H222891   1.293   1.968   6.140
 7672TIP3   OH222892   1.185   1.908   5.036
 7672TIP3    H122893   1.238   1.884   5.116
 7672TIP3    H222894   1.096   1.895   5.069
 7673TIP3   OH222895   1.461   2.553   6.202
 7673TIP3    H122896   1.381   2.499   6.195
 7673TIP3    H222897   1.446   2.619   6.131
 7674TIP3   OH222898   1.526   2.388   4.855
 7674TIP3    H122899   1.566   2.460   4.803
 7674TIP3    H222900   1.446   2.434   4.887
 7675TIP3   OH222901   1.345   1.848   5.256
 7675TIP3    H122902   1.337   1.780   5.326
 7675TIP3    H222903   1.442   1.846   5.241
 7676TIP3   OH222904   0.254   2.239   6.358
 7676TIP3    H122905   0.322   2.175   6.384
 7676TIP3    H222906   0.283   2.318   6.406
 7677TIP3   OH222907   0.538   1.914   5.025
 7677TIP3    H122908   0.572   1.828   4.994
 7677TIP3    H222909   0.533   1.896   5.121
 7678TIP3   OH222910   0.496   1.897   5.307
 7678TIP3    H122911   0.573   1.870   5.360
 7678TIP3    H222912   0.501   1.995   5.317
 7679TIP3   OH222913   0.245   1.574   5.516
 7679TIP3    H122914   0.184   1.630   5.570
 7679TIP3    H222915   0.267   1.637   5.446
 7680TIP3   OH222916   1.383   1.223   6.404
 7680TIP3    H122917   1.463   1.264   6.441
 7680TIP3    H222918   1.369   1.145   6.462
 7681TIP3   OH222919   1.267   0.981   5.563
 7681TIP3    H122920   1.249   1.006   5.470
 7681TIP3    H222921   1.303   1.065   5.599
 7682TIP3   OH222922   0.759   2.083   5.259
 7682TIP3    H122923   0.682   2.130   5.296
 7682TIP3    H222924   0.789   2.148   5.192
 7683TIP3   OH222925   0.956   1.172   5.673
 7683TIP3    H122926   1.020   1.243   5.655
 7683TIP3    H222927   0.961   1.166   5.771
 7684TIP3   OH222928   1.225   1.478   6.475
 7684TIP3    H122929   1.236   1.534   6.554
 7684TIP3    H222930   1.281   1.401   6.496
 7685TIP3   OH222931   1.107   0.888   5.769
 7685TIP3    H122932   1.078   0.964   5.822
 7685TIP3    H222933   1.164   0.931   5.702
 7686TIP3   OH222934   0.497   2.169   5.321
 7686TIP3    H122935   0.479   2.242   5.258
 7686TIP3    H222936   0.488   2.215   5.407
 7687TIP3   OH222937   1.862   1.378   6.460
 7687TIP3    H122938   1.764   1.376   6.464
 7687TIP3    H222939   1.876   1.341   6.371
 7688TIP3   OH222940   1.513   1.572   5.846
 7688TIP3    H122941   1.436   1.513   5.859
 7688TIP3    H222942   1.584   1.525   5.894
 7689TIP3   OH222943   0.221   1.807   5.309
 7689TIP3    H122944   0.292   1.870   5.330
 7689TIP3    H222945   0.269   1.750   5.246
 7690TIP3   OH222946   1.481   2.527   5.796
 7690TIP3    H122947   1.437   2.574   5.722
 7690TIP3    H222948   1.575   2.547   5.775
 7691TIP3   OH222949   0.097   2.025   5.724
 7691TIP3    H122950   0.009   2.059   5.746
 7691TIP3    H222951   0.100   2.046   5.629
 7692TIP3   OH222952   0.274   2.561   6.757
 7692TIP3    H122953   0.346   2.566   6.824
 7692TIP3    H222954   0.230   2.479   6.781
 7693TIP3   OH222955   1.378   2.427   6.551
 7693TIP3    H122956   1.369   2.358   6.621
 7693TIP3    H222957   1.452   2.481   6.584
 7694TIP3   OH222958   1.141   2.134   4.841
 7694TIP3    H122959   1.187   2.097   4.917
 7694TIP3    H222960   1.210   2.140   4.773
 7695TIP3   OH222961   0.364   1.614   5.173
 7695TIP3    H122962   0.422   1.583   5.245
 7695TIP3    H222963   0.430   1.617   5.100
 7696TIP3   OH222964   0.988   2.044   6.750
 7696TIP3    H122965   0.951   2.067   6.662
 7696TIP3    H222966   1.020   1.952   6.737
 7697TIP3   OH222967   0.846   1.810   4.974
 7697TIP3    H122968   0.866   1.827   5.068
 7697TIP3    H222969   0.860   1.713   4.971
 7698TIP3   OH222970   1.484   2.055   6.356
 7698TIP3    H122971   1.557   2.101   6.311
 7698TIP3    H222972   1.412   2.120   6.344
 7699TIP3   OH222973   0.559   1.518   5.383
 7699TIP3    H122974   0.550   1.487   5.475
 7699TIP3    H222975   0.603   1.443   5.339
 7700TIP3   OH222976   0.823   1.579   6.622
 7700TIP3    H122977   0.756   1.651   6.625
 7700TIP3    H222978   0.876   1.603   6.543
 7701TIP3   OH222979   0.669   1.308   5.233
 7701TIP3    H122980   0.644   1.314   5.138
 7701TIP3    H222981   0.766   1.315   5.226
 7702TIP3   OH222982   1.349   1.980   6.754
 7702TIP3    H122983   1.429   1.965   6.703
 7702TIP3    H222984   1.354   1.911   6.823
 7703TIP3   OH222985   1.493   1.642   4.893
 7703TIP3    H122986   1.470   1.597   4.810
 7703TIP3    H222987   1.461   1.732   4.871
 7704TIP3   OH222988   0.996   1.384   6.731
 7704TIP3    H122989   0.944   1.315   6.689
 7704TIP3    H222990   0.936   1.460   6.713
 7705TIP3   OH222991   0.992   1.700   6.441
 7705TIP3    H122992   1.070   1.696   6.383
 7705TIP3    H222993   0.935   1.763   6.391
 7706TIP3   OH222994   1.576   1.659   6.810
 7706TIP3    H122995   1.626   1.577   6.808
 7706TIP3    H222996   1.639   1.722   6.772
 7707TIP3   OH222997   1.613   1.912   6.544
 7707TIP3    H122998   1.555   1.965   6.485
 7707TIP3    H222999   1.700   1.933   6.504
 7708TIP3   OH223000   1.243   1.424   6.840
 7708TIP3    H123001   1.227   1.432   6.935
 7708TIP3    H223002   1.152   1.408   6.804
 7709TIP3   OH223003   1.464   1.371   6.687
 7709TIP3    H123004   1.390   1.379   6.750
 7709TIP3    H223005   1.538   1.343   6.745
 7710TIP3   OH223006   1.688   1.315   6.844
 7710TIP3    H123007   1.703   1.220   6.860
 7710TIP3    H223008   1.686   1.353   6.934
 7711TIP3   OH223009   0.483   2.366   5.124
 7711TIP3    H123010   0.579   2.378   5.109
 7711TIP3    H223011   0.448   2.413   5.046
 7712TIP3   OH223012  -0.042   1.727   5.362
 7712TIP3    H123013   0.046   1.770   5.353
 7712TIP3    H223014  -0.022   1.637   5.328
 7713TIP3   OH223015  -0.122   2.360   5.751
 7713TIP3    H123016  -0.210   2.322   5.749
 7713TIP3    H223017  -0.083   2.315   5.829
 7714TIP3   OH223018  -0.006   2.230   5.959
 7714TIP3    H123019   0.005   2.150   6.011
 7714TIP3    H223020   0.052   2.292   6.009
 7715TIP3   OH223021   1.733   2.619   5.752
 7715TIP3    H123022   1.760   2.655   5.838
 7715TIP3    H223023   1.794   2.663   5.691
 7716TIP3   OH223024   1.762   2.640   6.035
 7716TIP3    H123025   1.719   2.552   6.029
 7716TIP3    H223026   1.839   2.619   6.088
 7717TIP3   OH223027   1.811   2.315   6.609
 7717TIP3    H123028   1.736   2.324   6.670
 7717TIP3    H223029   1.851   2.404   6.611
 7718TIP3   OH223030   1.625   1.828   5.227
 7718TIP3    H123031   1.692   1.894   5.199
 7718TIP3    H223032   1.669   1.790   5.306
 7719TIP3   OH223033   1.754   1.695   5.430
 7719TIP3    H123034   1.687   1.655   5.490
 7719TIP3    H223035   1.817   1.735   5.493
 7720TIP3   OH223036   1.807   2.088   5.865
 7720TIP3    H123037   1.859   2.025   5.811
 7720TIP3    H223038   1.799   2.164   5.804
 7721TIP3   OH223039   1.639   2.388   6.060
 7721TIP3    H123040   1.568   2.433   6.110
 7721TIP3    H223041   1.589   2.342   5.990
 7722TIP3   OH223042   1.692   1.604   5.078
 7722TIP3    H123043   1.620   1.607   5.010
 7722TIP3    H223044   1.664   1.680   5.133
 7723TIP3   OH223045   1.564   1.277   5.032
 7723TIP3    H123046   1.520   1.319   4.957
 7723TIP3    H223047   1.537   1.184   5.021
 7724TIP3   OH223048   1.567   1.553   5.578
 7724TIP3    H123049   1.575   1.456   5.573
 7724TIP3    H223050   1.554   1.568   5.674
 7725TIP3   OH223051   1.855   1.977   6.435
 7725TIP3    H123052   1.929   1.913   6.425
 7725TIP3    H223053   1.880   2.047   6.372
 7726TIP3   OH223054   2.041   1.783   6.454
 7726TIP3    H123055   1.966   1.733   6.494
 7726TIP3    H223056   2.114   1.719   6.467
 7727TIP3   OH223057   1.505   1.012   5.019
 7727TIP3    H123058   1.580   0.981   5.073
 7727TIP3    H223059   1.433   0.952   5.042
 7728TIP3   OH223060   1.563   1.269   5.474
 7728TIP3    H123061   1.604   1.181   5.489
 7728TIP3    H223062   1.621   1.303   5.404
 7729TIP3   OH223063   1.726   1.444   5.968
 7729TIP3    H123064   1.812   1.470   5.928
 7729TIP3    H223065   1.739   1.481   6.057
 7730TIP3   OH223066   1.794   1.588   6.201
 7730TIP3    H123067   1.715   1.622   6.247
 7730TIP3    H223068   1.826   1.668   6.154
 7731TIP3   OH223069   2.247   1.178   6.757
 7731TIP3    H123070   2.305   1.112   6.713
 7731TIP3    H223071   2.217   1.232   6.681
 7732TIP3   OH223072   1.673   1.020   5.510
 7732TIP3    H123073   1.722   1.005   5.593
 7732TIP3    H223074   1.613   0.942   5.510
 7733TIP3   OH223075   2.116   1.317   6.564
 7733TIP3    H123076   2.028   1.357   6.578
 7733TIP3    H223077   2.091   1.246   6.503
 7734TIP3   OH223078   1.753   0.955   5.143
 7734TIP3    H123079   1.795   0.882   5.092
 7734TIP3    H223080   1.820   1.025   5.137
 7735TIP3   OH223081   1.323   2.483   5.415
 7735TIP3    H123082   1.368   2.470   5.329
 7735TIP3    H223083   1.377   2.553   5.455
 7736TIP3   OH223084   0.404   2.229   6.830
 7736TIP3    H123085   0.313   2.233   6.800
 7736TIP3    H223086   0.412   2.301   6.894
 7737TIP3   OH223087   0.592   2.318   6.332
 7737TIP3    H123088   0.549   2.399   6.296
 7737TIP3    H223089   0.681   2.331   6.292
 7738TIP3   OH223090   1.062   2.546   6.473
 7738TIP3    H123091   1.070   2.576   6.565
 7738TIP3    H223092   1.113   2.615   6.426
 7739TIP3   OH223093   1.221   2.724   6.337
 7739TIP3    H123094   1.292   2.669   6.299
 7739TIP3    H223095   1.272   2.781   6.399
 7740TIP3   OH223096   2.015   1.081   6.441
 7740TIP3    H123097   1.924   1.075   6.405
 7740TIP3    H223098   2.046   0.988   6.429
 7741TIP3   OH223099   0.268   2.573   6.367
 7741TIP3    H123100   0.180   2.612   6.349
 7741TIP3    H223101   0.284   2.607   6.457
 7742TIP3   OH223102   0.505   2.552   6.223
 7742TIP3    H123103   0.419   2.570   6.266
 7742TIP3    H223104   0.491   2.593   6.135
 7743TIP3   OH223105   0.937   2.589   6.020
 7743TIP3    H123106   0.866   2.611   5.957
 7743TIP3    H223107   0.947   2.674   6.068
 7744TIP3   OH223108   1.204   2.525   6.072
 7744TIP3    H123109   1.109   2.543   6.054
 7744TIP3    H223110   1.246   2.604   6.033
 7745TIP3   OH223111   1.414   2.719   5.989
 7745TIP3    H123112   1.398   2.803   5.941
 7745TIP3    H223113   1.437   2.659   5.916
 7746TIP3   OH223114   0.182   2.366   6.106
 7746TIP3    H123115   0.205   2.355   6.200
 7746TIP3    H223116   0.259   2.325   6.063
 7747TIP3   OH223117   0.380   2.242   5.965
 7747TIP3    H123118   0.398   2.159   6.015
 7747TIP3    H223119   0.469   2.282   5.963
 7748TIP3   OH223120   0.642   2.339   5.971
 7748TIP3    H123121   0.677   2.249   5.959
 7748TIP3    H223122   0.686   2.363   6.054
 7749TIP3   OH223123   1.230   0.991   6.063
 7749TIP3    H123124   1.181   0.907   6.069
 7749TIP3    H223125   1.303   0.965   6.004
 7750TIP3   OH223126   1.742   0.872   5.965
 7750TIP3    H123127   1.783   0.926   5.893
 7750TIP3    H223128   1.648   0.896   5.957
 7751TIP3   OH223129   1.833   0.982   5.733
 7751TIP3    H123130   1.904   0.926   5.692
 7751TIP3    H223131   1.870   1.072   5.714
 7752TIP3   OH223132   1.459   0.881   5.940
 7752TIP3    H123133   1.453   0.850   5.848
 7752TIP3    H223134   1.443   0.798   5.991
 7753TIP3   OH223135   1.488   0.808   5.499
 7753TIP3    H123136   1.403   0.853   5.511
 7753TIP3    H223137   1.470   0.721   5.541
 7754TIP3   OH223138  -0.043   2.143   5.511
 7754TIP3    H123139  -0.099   2.105   5.443
 7754TIP3    H223140  -0.049   2.238   5.491
 7755TIP3   OH223141   0.866   0.933   5.589
 7755TIP3    H123142   0.925   0.873   5.638
 7755TIP3    H223143   0.900   1.020   5.620
 7756TIP3   OH223144   1.462   2.452   5.178
 7756TIP3    H123145   1.457   2.354   5.165
 7756TIP3    H223146   1.418   2.483   5.097
 7757TIP3   OH223147   0.052   2.169   5.146
 7757TIP3    H123148   0.044   2.212   5.232
 7757TIP3    H223149   0.142   2.133   5.146
 7758TIP3   OH223150   1.748   1.045   6.874
 7758TIP3    H123151   1.771   1.011   6.963
 7758TIP3    H223152   1.833   1.038   6.828
 7759TIP3   OH223153   1.690   2.595   6.366
 7759TIP3    H123154   1.611   2.564   6.317
 7759TIP3    H223155   1.671   2.691   6.368
 7760TIP3   OH223156   2.946   1.958   5.124
 7760TIP3    H123157   2.946   2.055   5.110
 7760TIP3    H223158   2.851   1.947   5.136
 7761TIP3   OH223159   2.990   1.940   5.495
 7761TIP3    H123160   2.986   1.948   5.592
 7761TIP3    H223161   2.906   1.897   5.475
 7762TIP3   OH223162   2.256   1.864   5.877
 7762TIP3    H123163   2.289   1.798   5.940
 7762TIP3    H223164   2.332   1.924   5.872
 7763TIP3   OH223165   3.196   2.266   5.192
 7763TIP3    H123166   3.183   2.204   5.265
 7763TIP3    H223167   3.220   2.347   5.239
 7764TIP3   OH223168   2.221   2.269   5.605
 7764TIP3    H123169   2.209   2.172   5.603
 7764TIP3    H223170   2.318   2.273   5.610
 7765TIP3   OH223171   1.935   1.478   5.387
 7765TIP3    H123172   1.885   1.561   5.403
 7765TIP3    H223173   1.864   1.422   5.352
 7766TIP3   OH223174   1.991   1.765   5.558
 7766TIP3    H123175   2.041   1.688   5.595
 7766TIP3    H223176   2.052   1.800   5.493
 7767TIP3   OH223177   2.850   2.733   5.211
 7767TIP3    H123178   2.898   2.663   5.161
 7767TIP3    H223179   2.821   2.682   5.288
 7768TIP3   OH223180   2.763   2.159   5.587
 7768TIP3    H123181   2.739   2.173   5.494
 7768TIP3    H223182   2.840   2.219   5.595
 7769TIP3   OH223183   3.767   1.514   5.558
 7769TIP3    H123184   3.794   1.596   5.603
 7769TIP3    H223185   3.784   1.537   5.465
 7770TIP3   OH223186   3.168   1.695   5.599
 7770TIP3    H123187   3.208   1.607   5.613
 7770TIP3    H223188   3.134   1.685   5.508
 7771TIP3   OH223189   2.498   1.352   5.562
 7771TIP3    H123190   2.477   1.420   5.494
 7771TIP3    H223191   2.456   1.273   5.521
 7772TIP3   OH223192   3.196   1.448   5.180
 7772TIP3    H123193   3.267   1.431   5.246
 7772TIP3    H223194   3.251   1.482   5.106
 7773TIP3   OH223195   2.136   1.557   5.664
 7773TIP3    H123196   2.219   1.536   5.712
 7773TIP3    H223197   2.146   1.499   5.586
 7774TIP3   OH223198   2.583   1.753   5.443
 7774TIP3    H123199   2.674   1.726   5.469
 7774TIP3    H223200   2.541   1.666   5.426
 7775TIP3   OH223201   3.838   1.720   5.730
 7775TIP3    H123202   3.756   1.770   5.709
 7775TIP3    H223203   3.857   1.753   5.819
 7776TIP3   OH223204   2.496   1.334   5.991
 7776TIP3    H123205   2.440   1.381   5.926
 7776TIP3    H223206   2.448   1.355   6.074
 7777TIP3   OH223207   2.855   2.188   4.992
 7777TIP3    H123208   2.805   2.182   4.910
 7777TIP3    H223209   2.822   2.275   5.025
 7778TIP3   OH223210   2.600   2.107   5.797
 7778TIP3    H123211   2.544   2.183   5.825
 7778TIP3    H223212   2.651   2.145   5.722
 7779TIP3   OH223213   3.409   1.446   5.352
 7779TIP3    H123214   3.393   1.403   5.437
 7779TIP3    H223215   3.460   1.524   5.378
 7780TIP3   OH223216   2.370   1.454   5.778
 7780TIP3    H123217   2.431   1.527   5.800
 7780TIP3    H223218   2.419   1.412   5.703
 7781TIP3   OH223219   2.433   2.310   5.883
 7781TIP3    H123220   2.409   2.398   5.848
 7781TIP3    H223221   2.354   2.294   5.940
 7782TIP3   OH223222   1.831   1.995   5.121
 7782TIP3    H123223   1.788   2.023   5.039
 7782TIP3    H223224   1.860   2.081   5.159
 7783TIP3   OH223225   3.276   2.512   5.357
 7783TIP3    H123226   3.188   2.503   5.402
 7783TIP3    H223227   3.263   2.598   5.313
 7784TIP3   OH223228   3.559   1.412   5.723
 7784TIP3    H123229   3.472   1.443   5.695
 7784TIP3    H223230   3.618   1.446   5.652
 7785TIP3   OH223231   2.868   1.060   5.716
 7785TIP3    H123232   2.844   0.965   5.715
 7785TIP3    H223233   2.784   1.097   5.751
 7786TIP3   OH223234   3.004   2.566   5.059
 7786TIP3    H123235   3.035   2.482   5.021
 7786TIP3    H223236   3.047   2.630   4.999
 7787TIP3   OH223237   3.119   2.342   4.936
 7787TIP3    H123238   3.060   2.269   4.911
 7787TIP3    H223239   3.153   2.310   5.022
 7788TIP3   OH223240   3.496   2.426   5.705
 7788TIP3    H123241   3.483   2.349   5.646
 7788TIP3    H223242   3.476   2.501   5.645
 7789TIP3   OH223243   2.750   1.809   4.932
 7789TIP3    H123244   2.705   1.895   4.919
 7789TIP3    H223245   2.826   1.818   4.870
 7790TIP3   OH223246   2.751   1.595   4.703
 7790TIP3    H123247   2.824   1.656   4.727
 7790TIP3    H223248   2.801   1.535   4.644
 7791TIP3   OH223249   3.689   2.060   5.548
 7791TIP3    H123250   3.607   2.114   5.554
 7791TIP3    H223251   3.720   2.087   5.459
 7792TIP3   OH223252   3.134   1.898   4.934
 7792TIP3    H123253   3.080   1.926   5.011
 7792TIP3    H223254   3.219   1.876   4.977
 7793TIP3   OH223255   3.370   1.942   5.845
 7793TIP3    H123256   3.366   2.028   5.892
 7793TIP3    H223257   3.282   1.943   5.801
 7794TIP3   OH223258   2.358   1.891   5.358
 7794TIP3    H123259   2.324   1.839   5.282
 7794TIP3    H223260   2.442   1.847   5.379
 7795TIP3   OH223261   2.507   1.870   5.700
 7795TIP3    H123262   2.539   1.862   5.609
 7795TIP3    H223263   2.544   1.956   5.729
 7796TIP3   OH223264   3.043   2.511   5.486
 7796TIP3    H123265   3.010   2.589   5.533
 7796TIP3    H223266   3.016   2.437   5.544
 7797TIP3   OH223267   2.639   2.426   6.032
 7797TIP3    H123268   2.579   2.490   6.075
 7797TIP3    H223269   2.575   2.374   5.979
 7798TIP3   OH223270   2.967   1.766   4.762
 7798TIP3    H123271   3.031   1.821   4.812
 7798TIP3    H223272   2.994   1.788   4.669
 7799TIP3   OH223273   2.394   1.982   6.131
 7799TIP3    H123274   2.399   2.070   6.174
 7799TIP3    H223275   2.298   1.965   6.138
 7800TIP3   OH223276   2.733   2.449   5.004
 7800TIP3    H123277   2.746   2.454   5.101
 7800TIP3    H223278   2.649   2.495   4.995
 7801TIP3   OH223279   2.435   2.597   6.115
 7801TIP3    H123280   2.401   2.598   6.023
 7801TIP3    H223281   2.355   2.574   6.167
 7802TIP3   OH223282   3.489   0.996   4.810
 7802TIP3    H123283   3.408   1.018   4.862
 7802TIP3    H223284   3.502   1.078   4.760
 7803TIP3   OH223285   2.236   1.735   5.143
 7803TIP3    H123286   2.168   1.790   5.097
 7803TIP3    H223287   2.182   1.660   5.171
 7804TIP3   OH223288   3.288   2.369   4.349
 7804TIP3    H123289   3.297   2.467   4.343
 7804TIP3    H223290   3.382   2.341   4.343
 7805TIP3   OH223291   2.013   2.127   6.063
 7805TIP3    H123292   1.948   2.107   5.993
 7805TIP3    H223293   2.049   2.039   6.085
 7806TIP3   OH223294   1.868   2.317   5.700
 7806TIP3    H123295   1.963   2.316   5.685
 7806TIP3    H223296   1.857   2.400   5.749
 7807TIP3   OH223297   3.732   2.771   5.751
 7807TIP3    H123298   3.730   2.674   5.763
 7807TIP3    H223299   3.649   2.797   5.796
 7808TIP3   OH223300   2.841   2.554   5.889
 7808TIP3    H123301   2.839   2.648   5.917
 7808TIP3    H223302   2.767   2.517   5.941
 7809TIP3   OH223303   2.593   2.693   4.831
 7809TIP3    H123304   2.546   2.675   4.747
 7809TIP3    H223305   2.562   2.781   4.856
 7810TIP3   OH223306   2.035   2.536   5.222
 7810TIP3    H123307   2.085   2.527   5.306
 7810TIP3    H223308   1.977   2.459   5.227
 7811TIP3   OH223309   2.801   2.589   4.478
 7811TIP3    H123310   2.861   2.518   4.445
 7811TIP3    H223311   2.831   2.598   4.571
 7812TIP3   OH223312   2.845   2.632   4.750
 7812TIP3    H123313   2.756   2.644   4.791
 7812TIP3    H223314   2.889   2.586   4.824
 7813TIP3   OH223315   3.622   1.901   6.026
 7813TIP3    H123316   3.542   1.917   5.974
 7813TIP3    H223317   3.635   1.805   6.014
 7814TIP3   OH223318   2.219   2.309   6.052
 7814TIP3    H123319   2.268   2.293   6.135
 7814TIP3    H223320   2.144   2.246   6.059
 7815TIP3   OH223321   2.621   1.124   5.832
 7815TIP3    H123322   2.559   1.084   5.767
 7815TIP3    H223323   2.569   1.198   5.870
 7816TIP3   OH223324   3.150   1.250   6.030
 7816TIP3    H123325   3.217   1.221   6.095
 7816TIP3    H223326   3.065   1.229   6.074
 7817TIP3   OH223327   3.392   1.678   5.948
 7817TIP3    H123328   3.342   1.675   6.032
 7817TIP3    H223329   3.367   1.765   5.911
 7818TIP3   OH223330   3.043   1.811   4.508
 7818TIP3    H123331   3.016   1.780   4.419
 7818TIP3    H223332   3.129   1.852   4.487
 7819TIP3   OH223333   2.765   1.183   4.810
 7819TIP3    H123334   2.730   1.178   4.901
 7819TIP3    H223335   2.724   1.104   4.771
 7820TIP3   OH223336   2.549   1.649   5.852
 7820TIP3    H123337   2.499   1.672   5.933
 7820TIP3    H223338   2.535   1.730   5.797
 7821TIP3   OH223339   2.430   1.529   5.364
 7821TIP3    H123340   2.338   1.510   5.393
 7821TIP3    H223341   2.430   1.488   5.277
 7822TIP3   OH223342   2.890   1.611   5.072
 7822TIP3    H123343   2.903   1.705   5.050
 7822TIP3    H223344   2.964   1.570   5.023
 7823TIP3   OH223345   3.098   1.900   6.182
 7823TIP3    H123346   3.077   1.827   6.244
 7823TIP3    H223347   3.192   1.914   6.202
 7824TIP3   OH223348   3.083   1.648   5.341
 7824TIP3    H123349   3.026   1.690   5.275
 7824TIP3    H223350   3.111   1.567   5.292
 7825TIP3   OH223351   2.369   1.678   6.063
 7825TIP3    H123352   2.394   1.744   6.129
 7825TIP3    H223353   2.358   1.597   6.116
 7826TIP3   OH223354   2.422   1.157   4.767
 7826TIP3    H123355   2.409   1.149   4.864
 7826TIP3    H223356   2.341   1.206   4.742
 7827TIP3   OH223357   1.960   1.203   5.640
 7827TIP3    H123358   2.039   1.228   5.692
 7827TIP3    H223359   1.997   1.158   5.562
 7828TIP3   OH223360   1.935   1.182   5.159
 7828TIP3    H123361   1.979   1.222   5.081
 7828TIP3    H223362   1.874   1.254   5.183
 7829TIP3   OH223363   3.098   1.898   5.764
 7829TIP3    H123364   3.125   1.828   5.700
 7829TIP3    H223365   3.063   1.842   5.837
 7830TIP3   OH223366   2.753   1.338   5.433
 7830TIP3    H123367   2.673   1.346   5.489
 7830TIP3    H223368   2.823   1.358   5.497
 7831TIP3   OH223369   2.195   1.410   5.435
 7831TIP3    H123370   2.100   1.419   5.411
 7831TIP3    H223371   2.212   1.316   5.418
 7832TIP3   OH223372   3.253   1.430   5.629
 7832TIP3    H123373   3.220   1.444   5.720
 7832TIP3    H223374   3.184   1.370   5.594
 7833TIP3   OH223375   2.302   1.438   4.910
 7833TIP3    H123376   2.228   1.395   4.864
 7833TIP3    H223377   2.356   1.466   4.834
 7834TIP3   OH223378   3.422   3.121   5.849
 7834TIP3    H123379   3.419   3.145   5.755
 7834TIP3    H223380   3.500   3.171   5.880
 7835TIP3   OH223381   2.379   2.230   6.272
 7835TIP3    H123382   2.459   2.262   6.318
 7835TIP3    H223383   2.314   2.233   6.345
 7836TIP3   OH223384   2.837   1.674   5.526
 7836TIP3    H123385   2.918   1.649   5.480
 7836TIP3    H223386   2.852   1.641   5.616
 7837TIP3   OH223387   2.369   1.172   5.391
 7837TIP3    H123388   2.366   1.104   5.463
 7837TIP3    H223389   2.431   1.125   5.333
 7838TIP3   OH223390   2.821   1.581   5.818
 7838TIP3    H123391   2.731   1.618   5.831
 7838TIP3    H223392   2.878   1.642   5.869
 7839TIP3   OH223393   2.551   1.988   4.911
 7839TIP3    H123394   2.485   1.917   4.908
 7839TIP3    H223395   2.537   2.021   5.004
 7840TIP3   OH223396   3.459   2.208   5.542
 7840TIP3    H123397   3.482   2.259   5.461
 7840TIP3    H223398   3.373   2.168   5.517
 7841TIP3   OH223399   3.018   1.285   4.774
 7841TIP3    H123400   2.921   1.270   4.780
 7841TIP3    H223401   3.028   1.381   4.792
 7842TIP3   OH223402   2.958   2.290   5.910
 7842TIP3    H123403   2.977   2.274   6.003
 7842TIP3    H223404   2.919   2.379   5.910
 7843TIP3   OH223405   3.084   1.533   4.879
 7843TIP3    H123406   3.180   1.536   4.893
 7843TIP3    H223407   3.070   1.610   4.819
 7844TIP3   OH223408   2.244   1.991   5.591
 7844TIP3    H123409   2.282   1.967   5.503
 7844TIP3    H223410   2.290   1.929   5.650
 7845TIP3   OH223411   2.702   2.124   4.730
 7845TIP3    H123412   2.657   2.212   4.732
 7845TIP3    H223413   2.644   2.075   4.792
 7846TIP3   OH223414   2.129   1.914   6.200
 7846TIP3    H123415   2.149   1.901   6.295
 7846TIP3    H223416   2.059   1.849   6.184
 7847TIP3   OH223417   2.855   2.027   6.222
 7847TIP3    H123418   2.796   1.972   6.168
 7847TIP3    H223419   2.942   1.995   6.192
 7848TIP3   OH223420   3.122   2.548   5.809
 7848TIP3    H123421   3.025   2.548   5.814
 7848TIP3    H223422   3.144   2.604   5.886
 7849TIP3   OH223423   3.746   2.479   5.794
 7849TIP3    H123424   3.648   2.475   5.785
 7849TIP3    H223425   3.772   2.450   5.704
 7850TIP3   OH223426   3.230   2.441   4.620
 7850TIP3    H123427   3.200   2.379   4.688
 7850TIP3    H223428   3.237   2.387   4.540
 7851TIP3   OH223429   3.229   2.071   5.459
 7851TIP3    H123430   3.137   2.039   5.474
 7851TIP3    H223431   3.265   1.993   5.413
 7852TIP3   OH223432   2.320   2.273   5.185
 7852TIP3    H123433   2.383   2.347   5.195
 7852TIP3    H223434   2.235   2.315   5.200
 7853TIP3   OH223435   1.915   1.603   4.917
 7853TIP3    H123436   1.957   1.690   4.936
 7853TIP3    H223437   1.836   1.608   4.975
 7854TIP3   OH223438   2.502   2.055   5.165
 7854TIP3    H123439   2.492   2.152   5.177
 7854TIP3    H223440   2.447   2.026   5.239
 7855TIP3   OH223441   2.619   2.643   5.685
 7855TIP3    H123442   2.656   2.714   5.629
 7855TIP3    H223443   2.699   2.606   5.724
 7856TIP3   OH223444   2.261   2.546   5.051
 7856TIP3    H123445   2.181   2.550   5.106
 7856TIP3    H223446   2.297   2.636   5.063
 7857TIP3   OH223447   3.014   2.277   5.641
 7857TIP3    H123448   3.003   2.275   5.738
 7857TIP3    H223449   3.093   2.223   5.628
 7858TIP3   OH223450   2.984   2.169   4.518
 7858TIP3    H123451   3.036   2.142   4.597
 7858TIP3    H223452   2.895   2.145   4.548
 7859TIP3   OH223453   3.257   2.810   5.690
 7859TIP3    H123454   3.177   2.755   5.681
 7859TIP3    H223455   3.242   2.876   5.618
 7860TIP3   OH223456   3.322   2.645   4.342
 7860TIP3    H123457   3.359   2.719   4.292
 7860TIP3    H223458   3.241   2.689   4.377
 7861TIP3   OH223459   2.342   1.422   6.210
 7861TIP3    H123460   2.245   1.424   6.221
 7861TIP3    H223461   2.368   1.358   6.278
 7862TIP3   OH223462   3.140   2.096   4.733
 7862TIP3    H123463   3.132   2.034   4.808
 7862TIP3    H223464   3.238   2.102   4.726
 7863TIP3   OH223465   2.057   2.506   5.841
 7863TIP3    H123466   2.110   2.431   5.872
 7863TIP3    H223467   2.088   2.577   5.899
 7864TIP3   OH223468   2.350   2.151   4.522
 7864TIP3    H123469   2.362   2.058   4.493
 7864TIP3    H223470   2.334   2.140   4.618
 7865TIP3   OH223471   2.300   2.153   4.795
 7865TIP3    H123472   2.359   2.139   4.871
 7865TIP3    H223473   2.295   2.251   4.795
 7866TIP3   OH223474   2.034   1.853   4.997
 7866TIP3    H123475   1.967   1.894   5.056
 7866TIP3    H223476   2.041   1.925   4.930
 7867TIP3   OH223477   3.180   1.484   5.887
 7867TIP3    H123478   3.258   1.523   5.929
 7867TIP3    H223479   3.163   1.404   5.942
 7868TIP3   OH223480   3.061   1.240   5.051
 7868TIP3    H123481   3.047   1.264   4.957
 7868TIP3    H223482   3.099   1.323   5.087
 7869TIP3   OH223483   2.557   2.350   4.737
 7869TIP3    H123484   2.472   2.375   4.777
 7869TIP3    H223485   2.578   2.431   4.689
 7870TIP3   OH223486   3.015   1.733   5.966
 7870TIP3    H123487   3.035   1.790   6.043
 7870TIP3    H223488   3.073   1.656   5.980
 7871TIP3   OH223489   2.899   1.155   5.257
 7871TIP3    H123490   2.887   1.231   5.318
 7871TIP3    H223491   2.962   1.191   5.191
 7872TIP3   OH223492   2.299   2.424   4.808
 7872TIP3    H123493   2.271   2.496   4.747
 7872TIP3    H223494   2.284   2.467   4.896
 7873TIP3   OH223495   2.402   1.130   5.040
 7873TIP3    H123496   2.380   1.215   5.079
 7873TIP3    H223497   2.498   1.124   5.058
 7874TIP3   OH223498   3.658   1.633   5.947
 7874TIP3    H123499   3.560   1.632   5.953
 7874TIP3    H223500   3.670   1.601   5.857
 7875TIP3   OH223501   3.311   1.827   5.331
 7875TIP3    H123502   3.233   1.772   5.353
 7875TIP3    H223503   3.382   1.781   5.381
 7876TIP3   OH223504   2.020   2.058   4.807
 7876TIP3    H123505   2.077   2.136   4.815
 7876TIP3    H223506   2.066   2.012   4.733
 7877TIP3   OH223507   1.968   1.334   4.934
 7877TIP3    H123508   1.964   1.432   4.932
 7877TIP3    H223509   1.884   1.310   4.894
 7878TIP3   OH223510   3.278   2.786   5.285
 7878TIP3    H123511   3.233   2.829   5.209
 7878TIP3    H223512   3.371   2.805   5.261
 7879TIP3   OH223513   1.891   2.269   5.193
 7879TIP3    H123514   1.816   2.304   5.244
 7879TIP3    H223515   1.873   2.310   5.106
 7880TIP3   OH223516   2.047   2.812   6.263
 7880TIP3    H123517   2.134   2.811   6.309
 7880TIP3    H223518   2.027   2.717   6.260
 7881TIP3   OH223519   2.531   2.777   6.309
 7881TIP3    H123520   2.626   2.761   6.312
 7881TIP3    H223521   2.505   2.720   6.234
 7882TIP3   OH223522   2.512   2.355   4.431
 7882TIP3    H123523   2.454   2.287   4.474
 7882TIP3    H223524   2.586   2.299   4.404
 7883TIP3   OH223525   3.166   2.688   6.043
 7883TIP3    H123526   3.160   2.616   6.110
 7883TIP3    H223527   3.246   2.737   6.072
 7884TIP3   OH223528   2.950   2.394   4.345
 7884TIP3    H123529   2.989   2.329   4.407
 7884TIP3    H223530   3.014   2.395   4.272
 7885TIP3   OH223531   2.179   2.219   6.464
 7885TIP3    H123532   2.195   2.123   6.465
 7885TIP3    H223533   2.091   2.223   6.419
 7886TIP3   OH223534   2.151   1.876   4.646
 7886TIP3    H123535   2.202   1.839   4.719
 7886TIP3    H223536   2.219   1.880   4.576
 7887TIP3   OH223537   2.786   2.304   6.236
 7887TIP3    H123538   2.745   2.323   6.150
 7887TIP3    H223539   2.816   2.211   6.226
 7888TIP3   OH223540   2.667   2.071   4.461
 7888TIP3    H123541   2.668   2.085   4.558
 7888TIP3    H223542   2.665   1.973   4.457
 7889TIP3   OH223543   3.281   2.311   5.843
 7889TIP3    H123544   3.354   2.358   5.799
 7889TIP3    H223545   3.208   2.374   5.830
 7890TIP3   OH223546   2.296   1.951   6.446
 7890TIP3    H123547   2.374   1.900   6.421
 7890TIP3    H223548   2.323   1.986   6.533
 7891TIP3   OH223549   2.434   1.729   4.929
 7891TIP3    H123550   2.347   1.728   4.975
 7891TIP3    H223551   2.410   1.682   4.845
 7892TIP3   OH223552   2.634   1.838   6.106
 7892TIP3    H123553   2.556   1.898   6.108
 7892TIP3    H223554   2.683   1.872   6.027
 7893TIP3   OH223555   2.466   1.561   4.716
 7893TIP3    H123556   2.433   1.563   4.624
 7893TIP3    H223557   2.562   1.565   4.700
 7894TIP3   OH223558   3.149   2.240   6.242
 7894TIP3    H123559   3.226   2.218   6.189
 7894TIP3    H223560   3.150   2.171   6.310
 7895TIP3   OH223561   3.281   1.901   4.382
 7895TIP3    H123562   3.259   1.849   4.301
 7895TIP3    H223563   3.248   1.989   4.355
 7896TIP3   OH223564   2.757   1.627   6.232
 7896TIP3    H123565   2.756   1.547   6.176
 7896TIP3    H223566   2.714   1.693   6.174
 7897TIP3   OH223567   2.756   1.412   6.040
 7897TIP3    H123568   2.785   1.453   5.956
 7897TIP3    H223569   2.665   1.385   6.018
 7898TIP3   OH223570   2.789   1.950   5.913
 7898TIP3    H123571   2.871   1.963   5.862
 7898TIP3    H223572   2.729   2.015   5.871
 7899TIP3   OH223573   3.370   1.916   6.296
 7899TIP3    H123574   3.420   1.833   6.299
 7899TIP3    H223575   3.435   1.978   6.259
 7900TIP3   OH223576   3.410   2.168   6.032
 7900TIP3    H123577   3.352   2.221   5.972
 7900TIP3    H223578   3.497   2.189   5.991
 7901TIP3   OH223579   2.635   1.739   6.464
 7901TIP3    H123580   2.566   1.670   6.476
 7901TIP3    H223581   2.669   1.717   6.375
 7902TIP3   OH223582   2.891   1.178   6.107
 7902TIP3    H123583   2.841   1.259   6.082
 7902TIP3    H223584   2.822   1.109   6.093
 7903TIP3   OH223585   3.018   1.681   6.322
 7903TIP3    H123586   3.004   1.670   6.418
 7903TIP3    H223587   2.928   1.657   6.290
 7904TIP3   OH223588   3.257   1.630   6.177
 7904TIP3    H123589   3.180   1.632   6.238
 7904TIP3    H223590   3.329   1.600   6.235
 7905TIP3   OH223591   3.487   1.571   6.330
 7905TIP3    H123592   3.498   1.476   6.348
 7905TIP3    H223593   3.482   1.610   6.420
 7906TIP3   OH223594   2.473   1.520   6.515
 7906TIP3    H123595   2.478   1.430   6.478
 7906TIP3    H223596   2.509   1.506   6.605
 7907TIP3   OH223597   2.986   1.186   6.364
 7907TIP3    H123598   3.052   1.114   6.356
 7907TIP3    H223599   2.945   1.181   6.275
 7908TIP3   OH223600   3.051   1.400   6.524
 7908TIP3    H123601   3.029   1.330   6.458
 7908TIP3    H223602   2.974   1.460   6.516
 7909TIP3   OH223603   2.271   2.628   4.621
 7909TIP3    H123604   2.366   2.627   4.602
 7909TIP3    H223605   2.240   2.678   4.543
 7910TIP3   OH223606   1.751   2.010   4.841
 7910TIP3    H123607   1.846   2.033   4.827
 7910TIP3    H223608   1.746   1.923   4.797
 7911TIP3   OH223609   1.665   2.625   5.252
 7911TIP3    H123610   1.598   2.563   5.216
 7911TIP3    H223611   1.710   2.568   5.318
 7912TIP3   OH223612   1.802   2.478   5.438
 7912TIP3    H123613   1.790   2.403   5.499
 7912TIP3    H223614   1.854   2.538   5.494
 7913TIP3   OH223615   3.531   2.875   5.238
 7913TIP3    H123616   3.554   2.907   5.327
 7913TIP3    H223617   3.591   2.926   5.181
 7914TIP3   OH223618   3.559   2.896   5.519
 7914TIP3    H123619   3.515   2.808   5.516
 7914TIP3    H223620   3.634   2.874   5.577
 7915TIP3   OH223621   3.607   2.572   6.095
 7915TIP3    H123622   3.532   2.581   6.157
 7915TIP3    H223623   3.647   2.661   6.098
 7916TIP3   OH223624   3.419   2.092   4.720
 7916TIP3    H123625   3.491   2.152   4.690
 7916TIP3    H223626   3.463   2.048   4.796
 7917TIP3   OH223627   3.549   1.953   4.918
 7917TIP3    H123628   3.482   1.912   4.978
 7917TIP3    H223629   3.613   1.992   4.980
 7918TIP3   OH223630   3.604   2.345   5.352
 7918TIP3    H123631   3.656   2.283   5.298
 7918TIP3    H223632   3.590   2.419   5.290
 7919TIP3   OH223633   3.435   2.645   5.546
 7919TIP3    H123634   3.362   2.688   5.596
 7919TIP3    H223635   3.385   2.599   5.475
 7920TIP3   OH223636   3.493   1.881   4.553
 7920TIP3    H123637   3.416   1.876   4.492
 7920TIP3    H223638   3.459   1.947   4.617
 7921TIP3   OH223639   3.289   1.541   4.532
 7921TIP3    H123640   3.347   1.590   4.472
 7921TIP3    H223641   3.309   1.449   4.508
 7922TIP3   OH223642   3.363   1.809   5.064
 7922TIP3    H123643   3.373   1.712   5.062
 7922TIP3    H223644   3.350   1.825   5.161
 7923TIP3   OH223645   1.991   1.879   5.813
 7923TIP3    H123646   1.988   1.853   5.719
 7923TIP3    H223647   2.088   1.884   5.827
 7924TIP3   OH223648   3.652   2.234   5.922
 7924TIP3    H123649   3.726   2.170   5.912
 7924TIP3    H223650   3.676   2.304   5.859
 7925TIP3   OH223651   3.837   2.039   5.940
 7925TIP3    H123652   3.763   1.990   5.980
 7925TIP3    H223653   3.910   1.975   5.953
 7926TIP3   OH223654   3.312   1.262   4.494
 7926TIP3    H123655   3.379   1.247   4.562
 7926TIP3    H223656   3.234   1.215   4.527
 7927TIP3   OH223657   3.356   1.521   4.963
 7927TIP3    H123658   3.400   1.434   4.978
 7927TIP3    H223659   3.407   1.554   4.888
 7928TIP3   OH223660   3.522   1.699   5.455
 7928TIP3    H123661   3.608   1.726   5.415
 7928TIP3    H223662   3.534   1.737   5.544
 7929TIP3   OH223663   3.589   1.843   5.687
 7929TIP3    H123664   3.511   1.878   5.735
 7929TIP3    H223665   3.621   1.924   5.641
 7930TIP3   OH223666   2.205   1.569   6.487
 7930TIP3    H123667   2.303   1.563   6.486
 7930TIP3    H223668   2.182   1.484   6.528
 7931TIP3   OH223669   4.042   1.434   6.244
 7931TIP3    H123670   4.101   1.369   6.199
 7931TIP3    H223671   4.012   1.489   6.168
 7932TIP3   OH223672   3.467   1.272   4.997
 7932TIP3    H123673   3.517   1.259   5.080
 7932TIP3    H223674   3.406   1.196   5.000
 7933TIP3   OH223675   2.168   1.258   5.814
 7933TIP3    H123676   2.224   1.180   5.827
 7933TIP3    H223677   2.234   1.330   5.810
 7934TIP3   OH223678   1.973   1.536   5.891
 7934TIP3    H123679   2.020   1.529   5.806
 7934TIP3    H223680   1.998   1.624   5.919
 7935TIP3   OH223681   3.913   1.574   6.051
 7935TIP3    H123682   3.826   1.616   6.071
 7935TIP3    H223683   3.883   1.504   5.990
 7936TIP3   OH223684   1.951   1.047   5.392
 7936TIP3    H123685   1.857   1.040   5.415
 7936TIP3    H223686   1.949   1.101   5.311
 7937TIP3   OH223687   3.112   2.746   4.890
 7937TIP3    H123688   3.168   2.732   4.811
 7937TIP3    H223689   3.164   2.809   4.942
 7938TIP3   OH223690   2.176   1.125   6.209
 7938TIP3    H123691   2.123   1.116   6.290
 7938TIP3    H223692   2.109   1.157   6.146
 7939TIP3   OH223693   2.215   2.543   6.282
 7939TIP3    H123694   2.123   2.518   6.264
 7939TIP3    H223695   2.221   2.531   6.378
 7940TIP3   OH223696   2.392   2.579   5.830
 7940TIP3    H123697   2.344   2.654   5.790
 7940TIP3    H223698   2.478   2.595   5.786
 7941TIP3   OH223699   2.838   2.822   5.968
 7941TIP3    H123700   2.881   2.826   6.056
 7941TIP3    H223701   2.903   2.874   5.915
 7942TIP3   OH223702   3.015   2.975   5.827
 7942TIP3    H123703   3.084   2.925   5.781
 7942TIP3    H223704   3.069   3.032   5.887
 7943TIP3   OH223705   3.811   1.338   5.926
 7943TIP3    H123706   3.720   1.336   5.892
 7943TIP3    H223707   3.839   1.245   5.913
 7944TIP3   OH223708   2.068   2.834   5.854
 7944TIP3    H123709   1.980   2.869   5.829
 7944TIP3    H223710   2.077   2.874   5.942
 7945TIP3   OH223711   2.305   2.815   5.712
 7945TIP3    H123712   2.218   2.828   5.755
 7945TIP3    H223713   2.287   2.846   5.621
 7946TIP3   OH223714   2.730   2.843   5.511
 7946TIP3    H123715   2.663   2.863   5.442
 7946TIP3    H223716   2.743   2.931   5.551
 7947TIP3   OH223717   2.998   2.786   5.564
 7947TIP3    H123718   2.904   2.798   5.540
 7947TIP3    H223719   3.039   2.859   5.515
 7948TIP3   OH223720   3.212   2.977   5.477
 7948TIP3    H123721   3.195   3.060   5.428
 7948TIP3    H223722   3.234   2.915   5.404
 7949TIP3   OH223723   1.980   2.629   5.598
 7949TIP3    H123724   2.007   2.605   5.689
 7949TIP3    H223725   2.054   2.587   5.547
 7950TIP3   OH223726   2.176   2.501   5.454
 7950TIP3    H123727   2.192   2.415   5.500
 7950TIP3    H223728   2.267   2.536   5.447
 7951TIP3   OH223729   2.440   2.595   5.451
 7951TIP3    H123730   2.496   2.530   5.401
 7951TIP3    H223731   2.492   2.600   5.533
 7952TIP3   OH223732   3.019   1.253   5.547
 7952TIP3    H123733   2.971   1.187   5.600
 7952TIP3    H223734   3.087   1.199   5.503
 7953TIP3   OH223735   3.541   1.129   5.449
 7953TIP3    H123736   3.577   1.184   5.376
 7953TIP3    H223737   3.446   1.150   5.446
 7954TIP3   OH223738   3.635   1.231   5.213
 7954TIP3    H123739   3.709   1.183   5.172
 7954TIP3    H223740   3.666   1.324   5.200
 7955TIP3   OH223741   2.043   0.831   5.200
 7955TIP3    H123742   2.076   0.894   5.133
 7955TIP3    H223743   2.024   0.891   5.275
 7956TIP3   OH223744   2.731   0.979   5.414
 7956TIP3    H123745   2.780   1.062   5.407
 7956TIP3    H223746   2.662   1.000   5.482
 7957TIP3   OH223747   3.261   1.140   5.426
 7957TIP3    H123748   3.250   1.105   5.337
 7957TIP3    H223749   3.243   1.060   5.481
 7958TIP3   OH223750   3.284   1.060   4.987
 7958TIP3    H123751   3.198   1.104   4.999
 7958TIP3    H223752   3.269   0.976   5.036
 7959TIP3   OH223753   1.768   2.400   4.991
 7959TIP3    H123754   1.683   2.368   4.956
 7959TIP3    H223755   1.758   2.495   4.971
 7960TIP3   OH223756   2.165   0.989   4.971
 7960TIP3    H123757   2.212   0.926   4.913
 7960TIP3    H223758   2.239   1.040   5.009
 7961TIP3   OH223759   2.678   1.172   5.083
 7961TIP3    H123760   2.734   1.114   5.137
 7961TIP3    H223761   2.706   1.257   5.120
 7962TIP3   OH223762   2.540   2.591   4.570
 7962TIP3    H123763   2.628   2.614   4.535
 7962TIP3    H223764   2.518   2.515   4.512
 7963TIP3   OH223765   3.264   2.709   4.662
 7963TIP3    H123766   3.254   2.611   4.651
 7963TIP3    H223767   3.213   2.740   4.584
 7964TIP3   OH223768   2.471   1.244   6.455
 7964TIP3    H123769   2.439   1.171   6.511
 7964TIP3    H223770   2.566   1.244   6.480
 7965TIP3   OH223771   2.722   1.241   6.573
 7965TIP3    H123772   2.805   1.215   6.530
 7965TIP3    H223773   2.710   1.168   6.638
 7966TIP3   OH223774   1.843   2.423   4.629
 7966TIP3    H123775   1.845   2.459   4.718
 7966TIP3    H223776   1.934   2.386   4.618
 7967TIP3   OH223777   3.547   1.299   6.359
 7967TIP3    H123778   3.566   1.269   6.451
 7967TIP3    H223779   3.635   1.296   6.317
 7968TIP3   OH223780   3.486   2.853   5.852
 7968TIP3    H123781   3.407   2.821   5.803
 7968TIP3    H223782   3.466   2.949   5.854
 7969TIP3   OH223783   4.753   2.223   4.616
 7969TIP3    H123784   4.727   2.316   4.600
 7969TIP3    H223785   4.672   2.178   4.589
 7970TIP3   OH223786   4.753   2.227   4.999
 7970TIP3    H123787   4.782   2.207   5.090
 7970TIP3    H223788   4.708   2.146   4.973
 7971TIP3   OH223789   4.053   2.123   5.363
 7971TIP3    H123790   4.083   2.055   5.426
 7971TIP3    H223791   4.129   2.183   5.362
 7972TIP3   OH223792   4.994   2.525   4.681
 7972TIP3    H123793   4.980   2.458   4.748
 7972TIP3    H223794   5.022   2.602   4.734
 7973TIP3   OH223795   4.020   2.528   5.088
 7973TIP3    H123796   4.012   2.431   5.091
 7973TIP3    H223797   4.116   2.539   5.092
 7974TIP3   OH223798   3.734   1.739   4.878
 7974TIP3    H123799   3.675   1.816   4.885
 7974TIP3    H223800   3.678   1.676   4.831
 7975TIP3   OH223801   3.786   2.021   5.046
 7975TIP3    H123802   3.835   1.945   5.083
 7975TIP3    H223803   3.848   2.055   4.980
 7976TIP3   OH223804   4.641   2.989   4.695
 7976TIP3    H123805   4.690   2.917   4.650
 7976TIP3    H223806   4.633   2.956   4.785
 7977TIP3   OH223807   4.551   2.453   5.027
 7977TIP3    H123808   4.598   2.374   4.995
 7977TIP3    H223809   4.625   2.499   5.071
 7978TIP3   OH223810   5.562   1.771   5.045
 7978TIP3    H123811   5.590   1.853   5.092
 7978TIP3    H223812   5.580   1.796   4.953
 7979TIP3   OH223813   4.953   1.944   5.082
 7979TIP3    H123814   5.002   1.862   5.100
 7979TIP3    H223815   4.930   1.933   4.988
 7980TIP3   OH223816   4.296   1.607   5.047
 7980TIP3    H123817   4.278   1.683   4.987
 7980TIP3    H223818   4.247   1.537   5.000
 7981TIP3   OH223819   4.994   1.699   4.667
 7981TIP3    H123820   5.065   1.685   4.733
 7981TIP3    H223821   5.046   1.738   4.594
 7982TIP3   OH223822   3.932   1.814   5.151
 7982TIP3    H123823   4.015   1.795   5.198
 7982TIP3    H223824   3.943   1.756   5.072
 7983TIP3   OH223825   4.378   2.013   4.934
 7983TIP3    H123826   4.471   1.988   4.954
 7983TIP3    H223827   4.338   1.926   4.915
 7984TIP3   OH223828   5.634   1.977   5.217
 7984TIP3    H123829   5.551   2.027   5.198
 7984TIP3    H223830   5.656   2.011   5.305
 7985TIP3   OH223831   4.295   1.594   5.479
 7985TIP3    H123832   4.236   1.634   5.413
 7985TIP3    H223833   4.245   1.613   5.561
 7986TIP3   OH223834   4.647   2.448   4.485
 7986TIP3    H123835   4.600   2.426   4.404
 7986TIP3    H223836   4.603   2.531   4.511
 7987TIP3   OH223837   4.378   2.359   5.275
 7987TIP3    H123838   4.326   2.432   5.313
 7987TIP3    H223839   4.466   2.400   5.268
 7988TIP3   OH223840   5.205   1.703   4.840
 7988TIP3    H123841   5.188   1.662   4.926
 7988TIP3    H223842   5.257   1.782   4.865
 7989TIP3   OH223843   4.166   1.710   5.264
 7989TIP3    H123844   4.226   1.784   5.289
 7989TIP3    H223845   4.218   1.670   5.192
 7990TIP3   OH223846   4.227   2.566   5.375
 7990TIP3    H123847   4.208   2.654   5.338
 7990TIP3    H223848   4.148   2.554   5.432
 7991TIP3   OH223849   3.628   2.254   4.609
 7991TIP3    H123850   3.581   2.281   4.528
 7991TIP3    H223851   3.657   2.339   4.646
 7992TIP3   OH223852   5.064   2.768   4.845
 7992TIP3    H123853   4.977   2.759   4.889
 7992TIP3    H223854   5.055   2.856   4.803
 7993TIP3   OH223855   5.356   1.666   5.209
 7993TIP3    H123856   5.269   1.702   5.184
 7993TIP3    H223857   5.415   1.702   5.139
 7994TIP3   OH223858   4.653   1.314   5.191
 7994TIP3    H123859   4.640   1.220   5.212
 7994TIP3    H223860   4.576   1.354   5.239
 7995TIP3   OH223861   4.770   2.816   4.524
 7995TIP3    H123862   4.820   2.734   4.502
 7995TIP3    H223863   4.829   2.882   4.482
 7996TIP3   OH223864   4.912   2.600   4.427
 7996TIP3    H123865   4.864   2.523   4.395
 7996TIP3    H223866   4.947   2.566   4.513
 7997TIP3   OH223867   5.271   2.684   5.190
 7997TIP3    H123868   5.275   2.604   5.133
 7997TIP3    H223869   5.273   2.757   5.125
 7998TIP3   OH223870   4.580   2.074   4.448
 7998TIP3    H123871   4.502   2.129   4.427
 7998TIP3    H223872   4.627   2.074   4.363
 7999TIP3   OH223873   4.552   1.839   4.187
 7999TIP3    H123874   4.616   1.901   4.227
 7999TIP3    H223875   4.609   1.791   4.125
 8000TIP3   OH223876   5.484   2.313   5.031
 8000TIP3    H123877   5.403   2.369   5.044
 8000TIP3    H223878   5.513   2.345   4.944
 8001TIP3   OH223879   4.930   2.157   4.420
 8001TIP3    H123880   4.875   2.183   4.497
 8001TIP3    H223881   5.014   2.133   4.466
 8002TIP3   OH223882   5.170   2.197   5.335
 8002TIP3    H123883   5.164   2.278   5.389
 8002TIP3    H223884   5.082   2.199   5.291
 8003TIP3   OH223885   4.162   2.153   4.836
 8003TIP3    H123886   4.128   2.095   4.766
 8003TIP3    H223887   4.242   2.106   4.866
 8004TIP3   OH223888   4.294   2.575   4.982
 8004TIP3    H123889   4.276   2.521   4.904
 8004TIP3    H223890   4.381   2.540   5.010
 8005TIP3   OH223891   4.299   2.119   5.185
 8005TIP3    H123892   4.336   2.110   5.095
 8005TIP3    H223893   4.333   2.208   5.212
 8006TIP3   OH223894   4.828   2.762   4.976
 8006TIP3    H123895   4.800   2.843   5.022
 8006TIP3    H223896   4.814   2.692   5.042
 8007TIP3   OH223897   4.435   2.701   5.532
 8007TIP3    H123898   4.363   2.761   5.560
 8007TIP3    H223899   4.387   2.635   5.479
 8008TIP3   OH223900   4.773   2.014   4.247
 8008TIP3    H123901   4.830   2.076   4.299
 8008TIP3    H223902   4.797   2.039   4.155
 8009TIP3   OH223903   4.188   2.238   5.621
 8009TIP3    H123904   4.193   2.328   5.659
 8009TIP3    H223905   4.092   2.222   5.629
 8010TIP3   OH223906   4.514   2.695   4.518
 8010TIP3    H123907   4.591   2.750   4.542
 8010TIP3    H223908   4.451   2.760   4.485
 8011TIP3   OH223909   4.223   2.862   5.602
 8011TIP3    H123910   4.190   2.856   5.511
 8011TIP3    H223911   4.144   2.835   5.655
 8012TIP3   OH223912   5.286   1.258   4.294
 8012TIP3    H123913   5.206   1.280   4.345
 8012TIP3    H223914   5.300   1.342   4.244
 8013TIP3   OH223915   4.032   1.982   4.625
 8013TIP3    H123916   3.969   2.041   4.578
 8013TIP3    H223917   3.970   1.921   4.667
 8014TIP3   OH223918   5.083   2.626   3.842
 8014TIP3    H123919   5.091   2.724   3.829
 8014TIP3    H223920   5.176   2.598   3.831
 8015TIP3   OH223921   3.809   2.384   5.549
 8015TIP3    H123922   3.743   2.363   5.480
 8015TIP3    H223923   3.845   2.296   5.573
 8016TIP3   OH223924   3.664   2.577   5.180
 8016TIP3    H123925   3.760   2.573   5.175
 8016TIP3    H223926   3.650   2.656   5.235
 8017TIP3   OH223927   5.530   3.034   5.235
 8017TIP3    H123928   5.533   2.935   5.247
 8017TIP3    H223929   5.446   3.052   5.283
 8018TIP3   OH223930   4.601   2.835   5.343
 8018TIP3    H123931   4.616   2.913   5.399
 8018TIP3    H223932   4.578   2.767   5.410
 8019TIP3   OH223933   4.393   2.944   4.322
 8019TIP3    H123934   4.348   2.923   4.239
 8019TIP3    H223935   4.358   3.032   4.345
 8020TIP3   OH223936   3.833   2.793   4.708
 8020TIP3    H123937   3.881   2.784   4.793
 8020TIP3    H223938   3.773   2.717   4.714
 8021TIP3   OH223939   4.596   2.844   3.965
 8021TIP3    H123940   4.655   2.775   3.928
 8021TIP3    H223941   4.630   2.853   4.056
 8022TIP3   OH223942   4.646   2.891   4.236
 8022TIP3    H123943   4.557   2.901   4.278
 8022TIP3    H223944   4.696   2.851   4.308
 8023TIP3   OH223945   5.418   2.156   5.515
 8023TIP3    H123946   5.340   2.175   5.461
 8023TIP3    H223947   5.430   2.060   5.502
 8024TIP3   OH223948   4.011   2.569   5.540
 8024TIP3    H123949   4.062   2.551   5.621
 8024TIP3    H223950   3.938   2.504   5.547
 8025TIP3   OH223951   4.415   1.390   5.321
 8025TIP3    H123952   4.324   1.360   5.297
 8025TIP3    H223953   4.392   1.473   5.367
 8026TIP3   OH223954   4.947   1.502   5.515
 8026TIP3    H123955   5.015   1.480   5.582
 8026TIP3    H223956   4.863   1.486   5.563
 8027TIP3   OH223957   5.187   1.934   5.433
 8027TIP3    H123958   5.138   1.929   5.518
 8027TIP3    H223959   5.164   2.023   5.400
 8028TIP3   OH223960   4.848   2.063   3.991
 8028TIP3    H123961   4.813   2.039   3.903
 8028TIP3    H223962   4.926   2.115   3.967
 8029TIP3   OH223963   4.514   1.454   4.290
 8029TIP3    H123964   4.526   1.445   4.386
 8029TIP3    H223965   4.508   1.361   4.264
 8030TIP3   OH223966   4.345   1.903   5.340
 8030TIP3    H123967   4.299   1.930   5.422
 8030TIP3    H223968   4.330   1.983   5.284
 8031TIP3   OH223969   4.230   1.790   4.859
 8031TIP3    H123970   4.137   1.763   4.876
 8031TIP3    H223971   4.239   1.774   4.765
 8032TIP3   OH223972   4.717   1.873   4.578
 8032TIP3    H123973   4.664   1.947   4.539
 8032TIP3    H223974   4.772   1.847   4.503
 8033TIP3   OH223975   4.913   2.145   5.665
 8033TIP3    H123976   4.880   2.078   5.728
 8033TIP3    H223977   5.003   2.161   5.699
 8034TIP3   OH223978   4.878   1.905   4.821
 8034TIP3    H123979   4.818   1.939   4.751
 8034TIP3    H223980   4.908   1.823   4.776
 8035TIP3   OH223981   4.161   1.934   5.548
 8035TIP3    H123982   4.196   2.001   5.609
 8035TIP3    H223983   4.153   1.855   5.605
 8036TIP3   OH223984   3.754   1.458   5.132
 8036TIP3    H123985   3.834   1.487   5.181
 8036TIP3    H223986   3.788   1.428   5.046
 8037TIP3   OH223987   4.913   2.165   5.236
 8037TIP3    H123988   4.922   2.075   5.197
 8037TIP3    H223989   4.854   2.150   5.312
 8038TIP3   OH223990   4.551   1.610   4.917
 8038TIP3    H123991   4.472   1.611   4.974
 8038TIP3    H223992   4.623   1.617   4.981
 8039TIP3   OH223993   3.992   1.667   4.917
 8039TIP3    H123994   3.897   1.684   4.896
 8039TIP3    H223995   4.000   1.573   4.898
 8040TIP3   OH223996   5.052   1.685   5.111
 8040TIP3    H123997   5.023   1.700   5.204
 8040TIP3    H223998   4.980   1.628   5.079
 8041TIP3   OH223999   5.218   3.379   5.336
 8041TIP3    H124000   5.218   3.405   5.242
 8041TIP3    H224001   5.296   3.427   5.369
 8042TIP3   OH224002   4.172   2.487   5.758
 8042TIP3    H124003   4.252   2.520   5.804
 8042TIP3    H224004   4.108   2.489   5.831
 8043TIP3   OH224005   4.638   1.937   5.011
 8043TIP3    H124006   4.718   1.906   4.965
 8043TIP3    H224007   4.652   1.904   5.101
 8044TIP3   OH224008   4.172   1.421   4.879
 8044TIP3    H124009   4.123   1.354   4.933
 8044TIP3    H224010   4.248   1.369   4.850
 8045TIP3   OH224011   4.617   1.835   5.307
 8045TIP3    H124012   4.528   1.875   5.319
 8045TIP3    H224013   4.676   1.896   5.356
 8046TIP3   OH224014   4.358   2.232   4.398
 8046TIP3    H124015   4.286   2.166   4.388
 8046TIP3    H224016   4.338   2.267   4.489
 8047TIP3   OH224017   5.254   2.463   5.026
 8047TIP3    H124018   5.278   2.514   4.946
 8047TIP3    H224019   5.168   2.424   5.001
 8048TIP3   OH224020   4.798   1.541   4.264
 8048TIP3    H124021   4.701   1.552   4.257
 8048TIP3    H224022   4.828   1.633   4.281
 8049TIP3   OH224023   4.885   1.784   4.356
 8049TIP3    H124024   4.980   1.796   4.377
 8049TIP3    H224025   4.863   1.867   4.308
 8050TIP3   OH224026   4.041   2.247   5.074
 8050TIP3    H124027   4.084   2.221   4.991
 8050TIP3    H224028   4.086   2.190   5.139
 8051TIP3   OH224029   4.499   2.380   4.217
 8051TIP3    H124030   4.452   2.466   4.224
 8051TIP3    H224031   4.446   2.325   4.279
 8052TIP3   OH224032   3.923   2.172   5.688
 8052TIP3    H124033   3.945   2.158   5.782
 8052TIP3    H224034   3.854   2.105   5.673
 8053TIP3   OH224035   5.324   1.878   4.199
 8053TIP3    H124036   5.261   1.834   4.137
 8053TIP3    H224037   5.320   1.967   4.159
 8054TIP3   OH224038   5.527   2.763   5.254
 8054TIP3    H124039   5.436   2.728   5.259
 8054TIP3    H224040   5.563   2.710   5.180
 8055TIP3   OH224041   5.027   2.697   4.109
 8055TIP3    H124042   4.995   2.629   4.170
 8055TIP3    H224043   5.034   2.650   4.024
 8056TIP3   OH224044   5.019   2.329   4.941
 8056TIP3    H124045   4.928   2.301   4.961
 8056TIP3    H224046   5.054   2.248   4.900
 8057TIP3   OH224047   4.143   2.550   4.690
 8057TIP3    H124048   4.145   2.636   4.643
 8057TIP3    H224049   4.050   2.542   4.712
 8058TIP3   OH224050   3.710   1.876   4.390
 8058TIP3    H124051   3.752   1.956   4.425
 8058TIP3    H224052   3.637   1.863   4.455
 8059TIP3   OH224053   4.285   2.320   4.642
 8059TIP3    H124054   4.250   2.410   4.658
 8059TIP3    H224055   4.251   2.273   4.720
 8060TIP3   OH224056   4.410   2.899   5.164
 8060TIP3    H124057   4.460   2.969   5.120
 8060TIP3    H224058   4.480   2.863   5.224
 8061TIP3   OH224059   4.065   2.795   4.550
 8061TIP3    H124060   3.979   2.801   4.597
 8061TIP3    H224061   4.095   2.888   4.554
 8062TIP3   OH224062   4.823   2.539   5.150
 8062TIP3    H124063   4.792   2.514   5.241
 8062TIP3    H224064   4.873   2.460   5.128
 8063TIP3   OH224065   4.777   2.424   4.009
 8063TIP3    H124066   4.830   2.399   4.088
 8063TIP3    H224067   4.688   2.400   4.038
 8064TIP3   OH224068   5.046   3.064   5.173
 8064TIP3    H124069   4.960   3.022   5.152
 8064TIP3    H224070   5.045   3.136   5.105
 8065TIP3   OH224071   5.119   2.901   3.830
 8065TIP3    H124072   5.155   2.973   3.775
 8065TIP3    H224073   5.039   2.947   3.863
 8066TIP3   OH224074   4.139   1.675   5.697
 8066TIP3    H124075   4.043   1.682   5.710
 8066TIP3    H224076   4.165   1.616   5.769
 8067TIP3   OH224077   4.937   2.357   4.224
 8067TIP3    H124078   4.927   2.293   4.297
 8067TIP3    H224079   5.035   2.357   4.214
 8068TIP3   OH224080   3.854   2.761   5.327
 8068TIP3    H124081   3.908   2.687   5.359
 8068TIP3    H224082   3.882   2.831   5.387
 8069TIP3   OH224083   4.144   2.407   4.008
 8069TIP3    H124084   4.160   2.315   3.979
 8069TIP3    H224085   4.127   2.395   4.104
 8070TIP3   OH224086   4.091   2.411   4.282
 8070TIP3    H124087   4.160   2.386   4.345
 8070TIP3    H224088   4.094   2.509   4.287
 8071TIP3   OH224089   3.834   2.115   4.489
 8071TIP3    H124090   3.764   2.154   4.545
 8071TIP3    H224091   3.840   2.183   4.420
 8072TIP3   OH224092   4.981   1.733   5.368
 8072TIP3    H124093   5.048   1.783   5.417
 8072TIP3    H224094   4.962   1.659   5.428
 8073TIP3   OH224095   4.854   1.493   4.540
 8073TIP3    H124096   4.839   1.520   4.448
 8073TIP3    H224097   4.893   1.574   4.579
 8074TIP3   OH224098   4.355   2.608   4.229
 8074TIP3    H124099   4.269   2.636   4.266
 8074TIP3    H224100   4.372   2.681   4.167
 8075TIP3   OH224101   4.541   1.668   4.645
 8075TIP3    H124102   4.601   1.743   4.625
 8075TIP3    H224103   4.546   1.665   4.743
 8076TIP3   OH224104   4.796   1.995   5.455
 8076TIP3    H124105   4.818   2.066   5.519
 8076TIP3    H224106   4.865   1.930   5.474
 8077TIP3   OH224107   4.692   1.398   4.747
 8077TIP3    H124108   4.690   1.471   4.812
 8077TIP3    H224109   4.751   1.437   4.679
 8078TIP3   OH224110   4.098   2.684   4.296
 8078TIP3    H124111   4.068   2.754   4.234
 8078TIP3    H224112   4.082   2.726   4.383
 8079TIP3   OH224113   4.216   1.457   4.493
 8079TIP3    H124114   4.168   1.449   4.579
 8079TIP3    H224115   4.301   1.415   4.520
 8080TIP3   OH224116   5.453   1.888   5.434
 8080TIP3    H124117   5.355   1.887   5.439
 8080TIP3    H224118   5.466   1.860   5.342
 8081TIP3   OH224119   5.106   2.084   4.818
 8081TIP3    H124120   5.029   2.027   4.835
 8081TIP3    H224121   5.177   2.039   4.868
 8082TIP3   OH224122   3.815   2.317   4.290
 8082TIP3    H124123   3.880   2.389   4.301
 8082TIP3    H224124   3.862   2.264   4.221
 8083TIP3   OH224125   5.072   3.041   4.769
 8083TIP3    H124126   5.030   3.088   4.694
 8083TIP3    H224127   5.167   3.060   4.750
 8084TIP3   OH224128   4.151   1.309   5.297
 8084TIP3    H124129   4.117   1.277   5.211
 8084TIP3    H224130   4.139   1.231   5.355
 8085TIP3   OH224131   3.688   2.527   4.678
 8085TIP3    H124132   3.618   2.559   4.736
 8085TIP3    H224133   3.662   2.568   4.593
 8086TIP3   OH224134   3.844   3.069   5.749
 8086TIP3    H124135   3.930   3.069   5.796
 8086TIP3    H224136   3.823   2.974   5.747
 8087TIP3   OH224137   4.326   3.035   5.796
 8087TIP3    H124138   4.421   3.019   5.799
 8087TIP3    H224139   4.299   2.979   5.720
 8088TIP3   OH224140   4.308   2.611   3.922
 8088TIP3    H124141   4.252   2.539   3.960
 8088TIP3    H224142   4.383   2.559   3.888
 8089TIP3   OH224143   4.744   2.652   3.832
 8089TIP3    H124144   4.790   2.588   3.890
 8089TIP3    H224145   4.799   2.653   3.752
 8090TIP3   OH224146   3.974   2.475   5.951
 8090TIP3    H124147   3.990   2.379   5.952
 8090TIP3    H224148   3.887   2.479   5.906
 8091TIP3   OH224149   3.947   2.133   4.136
 8091TIP3    H124150   4.000   2.102   4.211
 8091TIP3    H224151   4.017   2.135   4.066
 8092TIP3   OH224152   4.460   2.327   3.949
 8092TIP3    H124153   4.464   2.340   4.046
 8092TIP3    H224154   4.461   2.229   3.944
 8093TIP3   OH224155   5.078   2.611   5.374
 8093TIP3    H124156   5.139   2.635   5.302
 8093TIP3    H224157   4.996   2.587   5.326
 8094TIP3   OH224158   4.092   2.208   5.933
 8094TIP3    H124159   4.170   2.157   5.908
 8094TIP3    H224160   4.119   2.243   6.020
 8095TIP3   OH224161   4.164   2.035   4.372
 8095TIP3    H124162   4.128   2.004   4.457
 8095TIP3    H224163   4.174   1.956   4.319
 8096TIP3   OH224164   4.421   2.087   5.583
 8096TIP3    H124165   4.350   2.153   5.601
 8096TIP3    H224166   4.476   2.137   5.521
 8097TIP3   OH224167   4.980   2.505   5.736
 8097TIP3    H124168   5.002   2.454   5.656
 8097TIP3    H224169   4.935   2.437   5.788
 8098TIP3   OH224170   5.086   2.156   3.866
 8098TIP3    H124171   5.062   2.109   3.784
 8098TIP3    H224172   5.052   2.246   3.844
 8099TIP3   OH224173   4.551   1.884   5.720
 8099TIP3    H124174   4.554   1.804   5.663
 8099TIP3    H224175   4.510   1.950   5.660
 8100TIP3   OH224176   4.555   1.666   5.525
 8100TIP3    H124177   4.583   1.712   5.443
 8100TIP3    H224178   4.461   1.647   5.506
 8101TIP3   OH224179   5.167   2.172   5.786
 8101TIP3    H124180   5.221   2.092   5.790
 8101TIP3    H224181   5.230   2.236   5.748
 8102TIP3   OH224182   5.216   2.423   5.512
 8102TIP3    H124183   5.155   2.485   5.465
 8102TIP3    H224184   5.300   2.445   5.466
 8103TIP3   OH224185   4.431   1.996   5.949
 8103TIP3    H124186   4.361   1.929   5.963
 8103TIP3    H224187   4.465   1.969   5.861
 8104TIP3   OH224188   4.687   1.432   5.593
 8104TIP3    H124189   4.639   1.515   5.570
 8104TIP3    H224190   4.616   1.365   5.581
 8105TIP3   OH224191   4.815   1.936   5.811
 8105TIP3    H124192   4.800   1.923   5.907
 8105TIP3    H224193   4.725   1.914   5.778
 8106TIP3   OH224194   5.052   1.874   5.660
 8106TIP3    H124195   4.977   1.889   5.721
 8106TIP3    H224196   5.125   1.852   5.721
 8107TIP3   OH224197   5.282   1.827   5.817
 8107TIP3    H124198   5.293   1.732   5.836
 8107TIP3    H224199   5.278   1.868   5.906
 8108TIP3   OH224200   4.269   1.777   6.002
 8108TIP3    H124201   4.278   1.687   5.965
 8108TIP3    H224202   4.304   1.764   6.092
 8109TIP3   OH224203   4.781   1.441   5.850
 8109TIP3    H124204   4.849   1.372   5.844
 8109TIP3    H224205   4.742   1.436   5.761
 8110TIP3   OH224206   4.846   1.656   6.012
 8110TIP3    H124207   4.824   1.587   5.945
 8110TIP3    H224208   4.770   1.717   6.003
 8111TIP3   OH224209   4.068   2.887   4.110
 8111TIP3    H124210   4.163   2.883   4.091
 8111TIP3    H224211   4.038   2.935   4.030
 8112TIP3   OH224212   3.547   2.270   4.324
 8112TIP3    H124213   3.642   2.293   4.313
 8112TIP3    H224214   3.544   2.181   4.284
 8113TIP3   OH224215   3.465   2.882   4.737
 8113TIP3    H124216   3.397   2.820   4.703
 8113TIP3    H224217   3.508   2.825   4.805
 8114TIP3   OH224218   3.599   2.733   4.925
 8114TIP3    H124219   3.585   2.660   4.987
 8114TIP3    H224220   3.649   2.794   4.983
 8115TIP3   OH224221   5.325   3.132   4.725
 8115TIP3    H124222   5.350   3.164   4.814
 8115TIP3    H224223   5.386   3.182   4.668
 8116TIP3   OH224224   5.357   3.153   5.007
 8116TIP3    H124225   5.315   3.064   5.003
 8116TIP3    H224226   5.429   3.133   5.069
 8117TIP3   OH224227   5.219   2.342   4.202
 8117TIP3    H124228   5.286   2.408   4.177
 8117TIP3    H224229   5.259   2.302   4.282
 8118TIP3   OH224230   5.345   2.210   4.405
 8118TIP3    H124231   5.278   2.168   4.463
 8118TIP3    H224232   5.408   2.249   4.469
 8119TIP3   OH224233   5.396   2.600   4.835
 8119TIP3    H124234   5.453   2.538   4.785
 8119TIP3    H224235   5.388   2.676   4.774
 8120TIP3   OH224236   5.231   2.906   5.026
 8120TIP3    H124237   5.161   2.945   5.080
 8120TIP3    H224238   5.181   2.855   4.959
 8121TIP3   OH224239   5.285   2.119   4.050
 8121TIP3    H124240   5.212   2.121   3.983
 8121TIP3    H224241   5.255   2.194   4.107
 8122TIP3   OH224242   5.156   1.792   4.005
 8122TIP3    H124243   5.112   1.831   3.928
 8122TIP3    H224244   5.129   1.698   3.997
 8123TIP3   OH224245   5.161   2.066   4.551
 8123TIP3    H124246   5.168   1.969   4.547
 8123TIP3    H224247   5.146   2.082   4.647
 8124TIP3   OH224248   3.787   2.136   5.300
 8124TIP3    H124249   3.785   2.110   5.205
 8124TIP3    H224250   3.885   2.141   5.315
 8125TIP3   OH224251   5.448   2.496   5.390
 8125TIP3    H124252   5.523   2.434   5.402
 8125TIP3    H224253   5.491   2.581   5.404
 8126TIP3   OH224254   5.632   2.299   5.430
 8126TIP3    H124255   5.558   2.248   5.469
 8126TIP3    H224256   5.706   2.235   5.439
 8127TIP3   OH224257   5.097   1.527   3.997
 8127TIP3    H124258   5.175   1.495   4.047
 8127TIP3    H224259   5.028   1.462   4.018
 8128TIP3   OH224260   5.155   1.782   4.447
 8128TIP3    H124261   5.196   1.693   4.462
 8128TIP3    H224262   5.214   1.815   4.377
 8129TIP3   OH224263   5.317   1.955   4.941
 8129TIP3    H124264   5.404   1.982   4.902
 8129TIP3    H224265   5.329   1.994   5.030
 8130TIP3   OH224266   5.384   2.098   5.173
 8130TIP3    H124267   5.308   2.133   5.224
 8130TIP3    H224268   5.417   2.180   5.129
 8131TIP3   OH224269   4.001   1.824   5.969
 8131TIP3    H124270   4.099   1.820   5.973
 8131TIP3    H224271   3.978   1.740   6.014
 8132TIP3   OH224272   5.839   1.690   5.731
 8132TIP3    H124273   5.897   1.625   5.685
 8132TIP3    H224274   5.808   1.746   5.656
 8133TIP3   OH224275   5.265   1.532   4.483
 8133TIP3    H124276   5.313   1.518   4.567
 8133TIP3    H224277   5.205   1.455   4.483
 8134TIP3   OH224278   3.966   1.517   5.299
 8134TIP3    H124279   4.030   1.444   5.313
 8134TIP3    H224280   4.026   1.594   5.298
 8135TIP3   OH224281   3.769   1.791   5.378
 8135TIP3    H124282   3.817   1.788   5.293
 8135TIP3    H224283   3.792   1.879   5.410
 8136TIP3   OH224284   5.709   1.830   5.539
 8136TIP3    H124285   5.625   1.873   5.563
 8136TIP3    H224286   5.676   1.762   5.477
 8137TIP3   OH224287   5.346   1.467   4.115
 8137TIP3    H124288   5.386   1.395   4.063
 8137TIP3    H224289   5.413   1.537   4.109
 8138TIP3   OH224290   3.749   1.312   4.885
 8138TIP3    H124291   3.654   1.304   4.905
 8138TIP3    H224292   3.745   1.350   4.794
 8139TIP3   OH224293   4.908   2.999   4.382
 8139TIP3    H124294   4.961   2.986   4.300
 8139TIP3    H224295   4.962   3.065   4.430
 8140TIP3   OH224296   3.970   1.372   5.690
 8140TIP3    H124297   3.920   1.371   5.774
 8140TIP3    H224298   3.904   1.414   5.631
 8141TIP3   OH224299   4.010   2.800   5.771
 8141TIP3    H124300   3.918   2.774   5.753
 8141TIP3    H224301   4.016   2.786   5.866
 8142TIP3   OH224302   4.187   2.835   5.318
 8142TIP3    H124303   4.142   2.912   5.277
 8142TIP3    H224304   4.274   2.846   5.275
 8143TIP3   OH224305   4.632   3.090   5.460
 8143TIP3    H124306   4.679   3.087   5.546
 8143TIP3    H224307   4.699   3.136   5.404
 8144TIP3   OH224308   4.814   3.232   5.312
 8144TIP3    H124309   4.886   3.183   5.270
 8144TIP3    H224310   4.865   3.290   5.374
 8145TIP3   OH224311   5.608   1.595   5.413
 8145TIP3    H124312   5.517   1.594   5.379
 8145TIP3    H224313   5.635   1.501   5.400
 8146TIP3   OH224314   3.865   3.093   5.338
 8146TIP3    H124315   3.776   3.127   5.317
 8146TIP3    H224316   3.875   3.127   5.428
 8147TIP3   OH224317   4.102   3.072   5.197
 8147TIP3    H124318   4.015   3.084   5.243
 8147TIP3    H224319   4.081   3.104   5.108
 8148TIP3   OH224320   4.533   3.103   4.990
 8148TIP3    H124321   4.458   3.122   4.931
 8148TIP3    H224322   4.542   3.188   5.038
 8149TIP3   OH224323   4.799   3.041   5.045
 8149TIP3    H124324   4.703   3.055   5.030
 8149TIP3    H224325   4.837   3.120   5.004
 8150TIP3   OH224326   5.009   3.234   4.963
 8150TIP3    H124327   4.993   3.318   4.914
 8150TIP3    H224328   5.031   3.172   4.890
 8151TIP3   OH224329   3.779   2.887   5.084
 8151TIP3    H124330   3.803   2.861   5.175
 8151TIP3    H224331   3.851   2.842   5.035
 8152TIP3   OH224332   3.972   2.756   4.940
 8152TIP3    H124333   3.987   2.673   4.990
 8152TIP3    H224334   4.063   2.793   4.938
 8153TIP3   OH224335   4.238   2.852   4.944
 8153TIP3    H124336   4.268   2.760   4.936
 8153TIP3    H224337   4.283   2.875   5.028
 8154TIP3   OH224338   4.808   1.506   5.022
 8154TIP3    H124339   4.768   1.440   5.081
 8154TIP3    H224340   4.887   1.460   4.988
 8155TIP3   OH224341   5.336   1.384   4.934
 8155TIP3    H124342   5.373   1.440   4.863
 8155TIP3    H224343   5.242   1.410   4.933
 8156TIP3   OH224344   5.431   1.491   4.700
 8156TIP3    H124345   5.505   1.440   4.660
 8156TIP3    H224346   5.464   1.583   4.687
 8157TIP3   OH224347   4.064   1.221   5.045
 8157TIP3    H124348   3.971   1.191   5.045
 8157TIP3    H224349   4.111   1.135   5.042
 8158TIP3   OH224350   3.855   1.085   4.696
 8158TIP3    H124351   3.875   1.140   4.616
 8158TIP3    H224352   3.815   1.154   4.752
 8159TIP3   OH224353   4.500   1.254   4.926
 8159TIP3    H124354   4.564   1.303   4.872
 8159TIP3    H224355   4.521   1.287   5.015
 8160TIP3   OH224356   5.050   1.396   4.915
 8160TIP3    H124357   5.053   1.360   4.825
 8160TIP3    H224358   5.036   1.314   4.968
 8161TIP3   OH224359   5.080   1.318   4.474
 8161TIP3    H124360   4.995   1.362   4.488
 8161TIP3    H224361   5.067   1.234   4.522
 8162TIP3   OH224362   3.566   2.655   4.475
 8162TIP3    H124363   3.480   2.624   4.441
 8162TIP3    H224364   3.554   2.751   4.462
 8163TIP3   OH224365   3.984   1.209   4.475
 8163TIP3    H124366   4.026   1.179   4.392
 8163TIP3    H224367   4.002   1.303   4.480
 8164TIP3   OH224368   4.483   1.418   4.564
 8164TIP3    H124369   4.544   1.377   4.628
 8164TIP3    H224370   4.501   1.513   4.587
 8165TIP3   OH224371   4.336   2.848   4.058
 8165TIP3    H124372   4.425   2.870   4.022
 8165TIP3    H224373   4.314   2.773   3.999
 8166TIP3   OH224374   5.055   2.965   4.151
 8166TIP3    H124375   5.048   2.867   4.138
 8166TIP3    H224376   5.011   2.998   4.070
 8167TIP3   OH224377   4.269   1.496   5.937
 8167TIP3    H124378   4.234   1.428   5.997
 8167TIP3    H224379   4.363   1.498   5.965
 8168TIP3   OH224380   4.517   1.495   6.058
 8168TIP3    H124381   4.603   1.474   6.019
 8168TIP3    H224382   4.507   1.424   6.124
 8169TIP3   OH224383   3.639   2.681   4.115
 8169TIP3    H124384   3.637   2.708   4.208
 8169TIP3    H224385   3.730   2.643   4.106
 8170TIP3   OH224386   5.342   1.555   5.846
 8170TIP3    H124387   5.362   1.525   5.938
 8170TIP3    H224388   5.431   1.553   5.805
 8171TIP3   OH224389   5.279   3.110   5.333
 8171TIP3    H124390   5.199   3.080   5.286
 8171TIP3    H224391   5.262   3.207   5.339
 8172TIP3   OH224392   6.550   2.481   4.102
 8172TIP3    H124393   6.520   2.573   4.088
 8172TIP3    H224394   6.472   2.432   4.071
 8173TIP3   OH224395   6.545   2.477   4.484
 8173TIP3    H124396   6.578   2.458   4.574
 8173TIP3    H224397   6.504   2.393   4.460
 8174TIP3   OH224398   5.850   2.377   4.844
 8174TIP3    H124399   5.874   2.309   4.910
 8174TIP3    H224400   5.916   2.445   4.864
 8175TIP3   OH224401   6.791   2.778   4.169
 8175TIP3    H124402   6.776   2.717   4.242
 8175TIP3    H224403   6.818   2.859   4.215
 8176TIP3   OH224404   5.815   2.785   4.570
 8176TIP3    H124405   5.807   2.688   4.579
 8176TIP3    H224406   5.911   2.796   4.583
 8177TIP3   OH224407   5.527   1.993   4.360
 8177TIP3    H124408   5.475   2.074   4.377
 8177TIP3    H224409   5.456   1.935   4.325
 8178TIP3   OH224410   5.583   2.276   4.532
 8178TIP3    H124411   5.630   2.200   4.573
 8178TIP3    H224412   5.645   2.303   4.463
 8179TIP3   OH224413   6.434   3.245   4.180
 8179TIP3    H124414   6.484   3.172   4.136
 8179TIP3    H224415   6.432   3.216   4.272
 8180TIP3   OH224416   6.348   2.704   4.528
 8180TIP3    H124417   6.393   2.627   4.490
 8180TIP3    H224418   6.428   2.754   4.556
 8181TIP3   OH224419   7.356   2.031   4.525
 8181TIP3    H124420   7.386   2.108   4.577
 8181TIP3    H224421   7.406   2.042   4.442
 8182TIP3   OH224422   6.765   2.212   4.563
 8182TIP3    H124423   6.800   2.125   4.588
 8182TIP3    H224424   6.725   2.192   4.476
 8183TIP3   OH224425   6.096   1.870   4.529
 8183TIP3    H124426   6.072   1.942   4.468
 8183TIP3    H224427   6.048   1.795   4.487
 8184TIP3   OH224428   6.791   1.961   4.157
 8184TIP3    H124429   6.864   1.942   4.220
 8184TIP3    H224430   6.842   1.989   4.079
 8185TIP3   OH224431   5.730   2.072   4.637
 8185TIP3    H124432   5.812   2.051   4.687
 8185TIP3    H224433   5.742   2.013   4.560
 8186TIP3   OH224434   6.175   2.269   4.422
 8186TIP3    H124435   6.267   2.242   4.444
 8186TIP3    H224436   6.134   2.183   4.398
 8187TIP3   OH224437   7.428   2.234   4.699
 8187TIP3    H124438   7.343   2.282   4.687
 8187TIP3    H224439   7.449   2.259   4.790
 8188TIP3   OH224440   6.092   1.851   4.966
 8188TIP3    H124441   6.031   1.889   4.900
 8188TIP3    H224442   6.042   1.868   5.048
 8189TIP3   OH224443   6.426   2.696   3.977
 8189TIP3    H124444   6.406   2.692   3.883
 8189TIP3    H224445   6.394   2.786   3.999
 8190TIP3   OH224446   6.198   2.626   4.762
 8190TIP3    H124447   6.133   2.689   4.803
 8190TIP3    H224448   6.241   2.683   4.695
 8191TIP3   OH224449   7.013   1.972   4.321
 8191TIP3    H124450   6.993   1.907   4.390
 8191TIP3    H224451   7.050   2.045   4.374
 8192TIP3   OH224452   5.963   1.967   4.750
 8192TIP3    H124453   6.024   2.040   4.775
 8192TIP3    H224454   6.014   1.926   4.676
 8193TIP3   OH224455   6.024   2.819   4.855
 8193TIP3    H124456   6.000   2.908   4.823
 8193TIP3    H224457   5.947   2.803   4.915
 8194TIP3   OH224458   5.428   2.509   4.092
 8194TIP3    H124459   5.375   2.534   4.014
 8194TIP3    H224460   5.448   2.597   4.131
 8195TIP3   OH224461   6.860   3.024   4.331
 8195TIP3    H124462   6.771   3.017   4.373
 8195TIP3    H224463   6.854   3.112   4.289
 8196TIP3   OH224464   7.153   1.928   4.698
 8196TIP3    H124465   7.064   1.958   4.670
 8196TIP3    H224466   7.210   1.959   4.625
 8197TIP3   OH224467   6.449   1.572   4.678
 8197TIP3    H124468   6.437   1.477   4.697
 8197TIP3    H224469   6.371   1.609   4.726
 8198TIP3   OH224470   6.563   3.070   4.010
 8198TIP3    H124471   6.614   2.990   3.985
 8198TIP3    H224472   6.623   3.138   3.970
 8199TIP3   OH224473   6.702   2.854   3.917
 8199TIP3    H124474   6.682   2.773   3.868
 8199TIP3    H224475   6.739   2.819   4.001
 8200TIP3   OH224476   7.087   2.940   4.679
 8200TIP3    H124477   7.076   2.863   4.619
 8200TIP3    H224478   7.069   3.015   4.619
 8201TIP3   OH224479   6.382   2.333   3.930
 8201TIP3    H124480   6.309   2.388   3.896
 8201TIP3    H224481   6.436   2.322   3.850
 8202TIP3   OH224482   6.338   2.118   3.656
 8202TIP3    H124483   6.410   2.169   3.697
 8202TIP3    H224484   6.391   2.051   3.607
 8203TIP3   OH224485   7.281   2.568   4.516
 8203TIP3    H124486   7.201   2.624   4.526
 8203TIP3    H224487   7.314   2.601   4.429
 8204TIP3   OH224488   6.727   2.413   3.910
 8204TIP3    H124489   6.664   2.440   3.982
 8204TIP3    H224490   6.809   2.408   3.960
 8205TIP3   OH224491   6.961   2.456   4.818
 8205TIP3    H124492   6.961   2.538   4.871
 8205TIP3    H224493   6.874   2.463   4.775
 8206TIP3   OH224494   5.963   2.409   4.331
 8206TIP3    H124495   5.918   2.341   4.278
 8206TIP3    H224496   6.041   2.360   4.366
 8207TIP3   OH224497   6.095   2.830   4.472
 8207TIP3    H124498   6.071   2.772   4.399
 8207TIP3    H224499   6.185   2.799   4.494
 8208TIP3   OH224500   6.102   2.383   4.674
 8208TIP3    H124501   6.139   2.369   4.585
 8208TIP3    H224502   6.139   2.470   4.701
 8209TIP3   OH224503   6.621   3.021   4.455
 8209TIP3    H124504   6.606   3.103   4.505
 8209TIP3    H224505   6.605   2.951   4.522
 8210TIP3   OH224506   6.231   2.940   5.001
 8210TIP3    H124507   6.173   3.003   5.049
 8210TIP3    H224508   6.164   2.888   4.953
 8211TIP3   OH224509   6.566   2.274   3.733
 8211TIP3    H124510   6.628   2.333   3.782
 8211TIP3    H224511   6.591   2.296   3.640
 8212TIP3   OH224512   5.983   2.502   5.094
 8212TIP3    H124513   5.988   2.584   5.146
 8212TIP3    H224514   5.891   2.476   5.115
 8213TIP3   OH224515   6.307   2.954   4.008
 8213TIP3    H124516   6.386   3.007   4.028
 8213TIP3    H224517   6.248   3.021   3.970
 8214TIP3   OH224518   6.027   3.109   5.089
 8214TIP3    H124519   5.989   3.108   4.999
 8214TIP3    H224520   5.948   3.089   5.144
 8215TIP3   OH224521   7.083   1.516   3.782
 8215TIP3    H124522   7.001   1.535   3.831
 8215TIP3    H224523   7.094   1.597   3.728
 8216TIP3   OH224524   5.830   2.282   4.126
 8216TIP3    H124525   5.748   2.289   4.073
 8216TIP3    H224526   5.831   2.186   4.143
 8217TIP3   OH224527   6.881   2.883   3.330
 8217TIP3    H124528   6.889   2.979   3.315
 8217TIP3    H224529   6.973   2.854   3.318
 8218TIP3   OH224530   5.612   2.633   5.029
 8218TIP3    H124531   5.542   2.608   4.967
 8218TIP3    H224532   5.646   2.548   5.062
 8219TIP3   OH224533   5.460   2.834   4.666
 8219TIP3    H124534   5.556   2.832   4.665
 8219TIP3    H224535   5.444   2.911   4.723
 8220TIP3   OH224536   7.326   3.283   4.724
 8220TIP3    H124537   7.323   3.187   4.740
 8220TIP3    H224538   7.242   3.310   4.769
 8221TIP3   OH224539   6.430   3.070   4.858
 8221TIP3    H124540   6.430   3.163   4.891
 8221TIP3    H224541   6.359   3.031   4.914
 8222TIP3   OH224542   6.191   3.196   3.813
 8222TIP3    H124543   6.146   3.185   3.727
 8222TIP3    H224544   6.163   3.287   3.839
 8223TIP3   OH224545   5.629   3.048   4.193
 8223TIP3    H124546   5.677   3.041   4.278
 8223TIP3    H224547   5.560   2.982   4.206
 8224TIP3   OH224548   6.393   3.100   3.450
 8224TIP3    H124549   6.453   3.031   3.415
 8224TIP3    H224550   6.427   3.111   3.542
 8225TIP3   OH224551   6.442   3.147   3.721
 8225TIP3    H124552   6.354   3.159   3.763
 8225TIP3    H224553   6.494   3.115   3.796
 8226TIP3   OH224554   7.216   2.416   4.999
 8226TIP3    H124555   7.132   2.428   4.952
 8226TIP3    H224556   7.230   2.320   4.990
 8227TIP3   OH224557   5.813   2.820   5.025
 8227TIP3    H124558   5.856   2.808   5.112
 8227TIP3    H224559   5.737   2.759   5.033
 8228TIP3   OH224560   6.210   1.648   4.807
 8228TIP3    H124561   6.121   1.616   4.782
 8228TIP3    H224562   6.185   1.729   4.856
 8229TIP3   OH224563   6.743   1.762   5.002
 8229TIP3    H124564   6.812   1.735   5.067
 8229TIP3    H224565   6.660   1.742   5.050
 8230TIP3   OH224566   6.983   2.192   4.921
 8230TIP3    H124567   6.935   2.186   5.006
 8230TIP3    H224568   6.957   2.280   4.888
 8231TIP3   OH224569   6.644   2.322   3.480
 8231TIP3    H124570   6.608   2.295   3.393
 8231TIP3    H224571   6.725   2.369   3.452
 8232TIP3   OH224572   6.357   1.696   3.780
 8232TIP3    H124573   6.322   1.692   3.871
 8232TIP3    H224574   6.318   1.613   3.744
 8233TIP3   OH224575   6.141   2.162   4.827
 8233TIP3    H124576   6.091   2.183   4.909
 8233TIP3    H224577   6.125   2.244   4.774
 8234TIP3   OH224578   6.019   2.053   4.338
 8234TIP3    H124579   5.930   2.017   4.360
 8234TIP3    H224580   6.037   2.007   4.253
 8235TIP3   OH224581   6.518   2.136   4.069
 8235TIP3    H124582   6.463   2.205   4.026
 8235TIP3    H224583   6.571   2.104   3.994
 8236TIP3   OH224584   6.690   2.412   5.153
 8236TIP3    H124585   6.668   2.340   5.217
 8236TIP3    H224586   6.783   2.429   5.177
 8237TIP3   OH224587   6.672   2.163   4.308
 8237TIP3    H124588   6.610   2.191   4.237
 8237TIP3    H224589   6.704   2.080   4.266
 8238TIP3   OH224590   5.962   2.191   5.036
 8238TIP3    H124591   5.976   2.258   5.105
 8238TIP3    H224592   5.949   2.110   5.089
 8239TIP3   OH224593   6.012   1.669   3.745
 8239TIP3    H124594   6.003   1.665   3.842
 8239TIP3    H224595   5.932   1.719   3.721
 8240TIP3   OH224596   5.553   1.715   4.614
 8240TIP3    H124597   5.629   1.745   4.669
 8240TIP3    H224598   5.596   1.678   4.535
 8241TIP3   OH224599   5.529   1.695   4.137
 8241TIP3    H124600   5.573   1.732   4.058
 8241TIP3    H224601   5.466   1.767   4.157
 8242TIP3   OH224602   6.682   2.410   4.728
 8242TIP3    H124603   6.717   2.337   4.672
 8242TIP3    H224604   6.654   2.359   4.807
 8243TIP3   OH224605   6.353   1.876   4.403
 8243TIP3    H124606   6.270   1.870   4.455
 8243TIP3    H224607   6.420   1.868   4.473
 8244TIP3   OH224608   5.788   1.925   4.408
 8244TIP3    H124609   5.693   1.933   4.383
 8244TIP3    H224610   5.809   1.832   4.388
 8245TIP3   OH224611   6.057   1.928   4.099
 8245TIP3    H124612   6.151   1.936   4.075
 8245TIP3    H224613   6.010   1.946   4.013
 8246TIP3   OH224614   6.841   1.947   4.598
 8246TIP3    H124615   6.814   1.958   4.692
 8246TIP3    H224616   6.775   1.883   4.567
 8247TIP3   OH224617   5.895   1.959   3.879
 8247TIP3    H124618   5.829   1.911   3.825
 8247TIP3    H224619   5.948   2.001   3.808
 8248TIP3   OH224620   7.015   3.634   4.823
 8248TIP3    H124621   7.012   3.660   4.729
 8248TIP3    H224622   7.090   3.686   4.856
 8249TIP3   OH224623   5.961   2.741   5.256
 8249TIP3    H124624   6.040   2.775   5.303
 8249TIP3    H224625   5.902   2.722   5.330
 8250TIP3   OH224626   6.435   2.200   4.502
 8250TIP3    H124627   6.504   2.153   4.454
 8250TIP3    H224628   6.440   2.160   4.591
 8251TIP3   OH224629   5.961   1.686   4.377
 8251TIP3    H124630   5.925   1.608   4.425
 8251TIP3    H224631   6.012   1.645   4.307
 8252TIP3   OH224632   6.413   2.099   4.786
 8252TIP3    H124633   6.323   2.133   4.804
 8252TIP3    H224634   6.470   2.157   4.840
 8253TIP3   OH224635   6.154   2.481   3.873
 8253TIP3    H124636   6.102   2.399   3.871
 8253TIP3    H224637   6.132   2.517   3.962
 8254TIP3   OH224638   7.053   2.721   4.514
 8254TIP3    H124639   7.076   2.772   4.434
 8254TIP3    H224640   6.965   2.684   4.491
 8255TIP3   OH224641   6.608   1.798   3.752
 8255TIP3    H124642   6.512   1.778   3.755
 8255TIP3    H224643   6.612   1.894   3.768
 8256TIP3   OH224644   6.547   2.803   4.882
 8256TIP3    H124645   6.571   2.783   4.974
 8256TIP3    H224646   6.510   2.893   4.890
 8257TIP3   OH224647   6.681   2.051   3.853
 8257TIP3    H124648   6.778   2.052   3.849
 8257TIP3    H224649   6.656   2.125   3.794
 8258TIP3   OH224650   5.840   2.506   4.565
 8258TIP3    H124651   5.886   2.472   4.486
 8258TIP3    H224652   5.874   2.448   4.635
 8259TIP3   OH224653   6.301   2.640   3.704
 8259TIP3    H124654   6.252   2.725   3.708
 8259TIP3    H224655   6.246   2.583   3.762
 8260TIP3   OH224656   5.727   2.423   5.170
 8260TIP3    H124657   5.754   2.425   5.265
 8260TIP3    H224658   5.650   2.365   5.173
 8261TIP3   OH224659   6.447   2.542   5.193
 8261TIP3    H124660   6.387   2.481   5.148
 8261TIP3    H224661   6.535   2.508   5.165
 8262TIP3   OH224662   6.709   3.059   4.778
 8262TIP3    H124663   6.612   3.062   4.791
 8262TIP3    H224664   6.739   3.112   4.855
 8263TIP3   OH224665   7.112   2.130   3.692
 8263TIP3    H124666   7.053   2.091   3.622
 8263TIP3    H224667   7.119   2.220   3.655
 8264TIP3   OH224668   7.337   2.991   4.769
 8264TIP3    H124669   7.239   2.988   4.760
 8264TIP3    H224670   7.363   2.963   4.678
 8265TIP3   OH224671   6.819   2.955   3.593
 8265TIP3    H124672   6.795   2.883   3.653
 8265TIP3    H224673   6.833   2.910   3.508
 8266TIP3   OH224674   6.814   2.586   4.431
 8266TIP3    H124675   6.721   2.562   4.448
 8266TIP3    H224676   6.846   2.505   4.387
 8267TIP3   OH224677   5.923   2.803   4.169
 8267TIP3    H124678   5.938   2.888   4.122
 8267TIP3    H224679   5.840   2.824   4.214
 8268TIP3   OH224680   5.505   2.114   3.890
 8268TIP3    H124681   5.543   2.202   3.905
 8268TIP3    H224682   5.426   2.116   3.948
 8269TIP3   OH224683   6.027   2.558   4.108
 8269TIP3    H124684   6.029   2.656   4.127
 8269TIP3    H224685   6.051   2.524   4.198
 8270TIP3   OH224686   6.212   3.155   4.654
 8270TIP3    H124687   6.252   3.229   4.604
 8270TIP3    H224688   6.288   3.124   4.705
 8271TIP3   OH224689   5.865   3.050   4.038
 8271TIP3    H124690   5.778   3.061   4.082
 8271TIP3    H224691   5.898   3.143   4.041
 8272TIP3   OH224692   6.599   2.787   4.614
 8272TIP3    H124693   6.588   2.789   4.712
 8272TIP3    H224694   6.684   2.743   4.606
 8273TIP3   OH224695   6.575   2.679   3.496
 8273TIP3    H124696   6.626   2.656   3.576
 8273TIP3    H224697   6.485   2.656   3.525
 8274TIP3   OH224698   6.850   3.322   4.662
 8274TIP3    H124699   6.769   3.268   4.654
 8274TIP3    H224700   6.834   3.389   4.591
 8275TIP3   OH224701   6.914   3.157   3.316
 8275TIP3    H124702   6.950   3.229   3.262
 8275TIP3    H224703   6.834   3.203   3.350
 8276TIP3   OH224704   5.935   1.931   5.182
 8276TIP3    H124705   5.840   1.940   5.200
 8276TIP3    H224706   5.963   1.875   5.256
 8277TIP3   OH224707   6.733   2.620   3.719
 8277TIP3    H124708   6.726   2.548   3.784
 8277TIP3    H224709   6.830   2.617   3.699
 8278TIP3   OH224710   5.653   3.016   4.813
 8278TIP3    H124711   5.702   2.944   4.855
 8278TIP3    H224712   5.671   3.089   4.875
 8279TIP3   OH224713   5.944   2.661   3.504
 8279TIP3    H124714   5.958   2.576   3.459
 8279TIP3    H224715   5.919   2.633   3.592
 8280TIP3   OH224716   5.906   2.661   3.819
 8280TIP3    H124717   6.002   2.666   3.807
 8280TIP3    H224718   5.883   2.755   3.803
 8281TIP3   OH224719   5.654   2.412   3.979
 8281TIP3    H124720   5.570   2.429   4.028
 8281TIP3    H224721   5.631   2.457   3.894
 8282TIP3   OH224722   6.776   1.993   4.857
 8282TIP3    H124723   6.848   2.037   4.905
 8282TIP3    H224724   6.757   1.915   4.914
 8283TIP3   OH224725   6.646   1.751   4.029
 8283TIP3    H124726   6.634   1.770   3.934
 8283TIP3    H224727   6.685   1.834   4.062
 8284TIP3   OH224728   6.144   2.859   3.718
 8284TIP3    H124729   6.059   2.894   3.751
 8284TIP3    H224730   6.170   2.932   3.659
 8285TIP3   OH224731   6.341   1.930   4.131
 8285TIP3    H124732   6.407   2.000   4.115
 8285TIP3    H224733   6.345   1.921   4.229
 8286TIP3   OH224734   6.612   2.249   4.938
 8286TIP3    H124735   6.627   2.305   5.016
 8286TIP3    H224736   6.666   2.171   4.960
 8287TIP3   OH224737   6.484   1.657   4.235
 8287TIP3    H124738   6.481   1.734   4.295
 8287TIP3    H224739   6.544   1.692   4.164
 8288TIP3   OH224740   5.886   2.934   3.783
 8288TIP3    H124741   5.861   3.003   3.717
 8288TIP3    H224742   5.874   2.983   3.867
 8289TIP3   OH224743   5.995   1.653   4.022
 8289TIP3    H124744   5.992   1.743   4.059
 8289TIP3    H224745   6.091   1.635   4.030
 8290TIP3   OH224746   7.249   2.148   4.918
 8290TIP3    H124747   7.152   2.147   4.926
 8290TIP3    H224748   7.259   2.103   4.833
 8291TIP3   OH224749   6.896   2.340   4.302
 8291TIP3    H124750   6.816   2.288   4.322
 8291TIP3    H224751   6.963   2.299   4.361
 8292TIP3   OH224752   5.607   2.576   3.770
 8292TIP3    H124753   5.652   2.662   3.770
 8292TIP3    H224754   5.660   2.528   3.703
 8293TIP3   OH224755   5.557   1.844   3.911
 8293TIP3    H124756   5.555   1.942   3.906
 8293TIP3    H224757   5.476   1.819   3.866
 8294TIP3   OH224758   6.870   3.294   4.255
 8294TIP3    H124759   6.827   3.342   4.181
 8294TIP3    H224760   6.964   3.315   4.235
 8295TIP3   OH224761   5.946   1.566   4.784
 8295TIP3    H124762   5.914   1.533   4.698
 8295TIP3    H224763   5.935   1.488   4.842
 8296TIP3   OH224764   5.482   2.773   4.162
 8296TIP3    H124765   5.420   2.810   4.226
 8296TIP3    H224766   5.457   2.823   4.081
 8297TIP3   OH224767   5.640   3.325   5.235
 8297TIP3    H124768   5.725   3.324   5.282
 8297TIP3    H224769   5.618   3.230   5.234
 8298TIP3   OH224770   6.124   3.293   5.279
 8298TIP3    H124771   6.218   3.272   5.287
 8298TIP3    H224772   6.098   3.234   5.206
 8299TIP3   OH224773   6.105   2.867   3.408
 8299TIP3    H124774   6.051   2.795   3.448
 8299TIP3    H224775   6.179   2.816   3.370
 8300TIP3   OH224776   6.765   3.194   5.010
 8300TIP3    H124777   6.754   3.127   5.081
 8300TIP3    H224778   6.840   3.248   5.044
 8301TIP3   OH224779   6.540   2.907   3.318
 8301TIP3    H124780   6.590   2.847   3.376
 8301TIP3    H224781   6.595   2.910   3.237
 8302TIP3   OH224782   5.749   2.390   3.626
 8302TIP3    H124783   5.785   2.314   3.673
 8302TIP3    H224784   5.813   2.397   3.552
 8303TIP3   OH224785   6.382   2.819   5.208
 8303TIP3    H124786   6.337   2.834   5.123
 8303TIP3    H224787   6.411   2.725   5.202
 8304TIP3   OH224788   6.255   2.582   3.436
 8304TIP3    H124789   6.262   2.595   3.533
 8304TIP3    H224790   6.259   2.484   3.431
 8305TIP3   OH224791   6.871   2.823   4.812
 8305TIP3    H124792   6.946   2.871   4.771
 8305TIP3    H224793   6.800   2.891   4.804
 8306TIP3   OH224794   5.903   2.445   5.403
 8306TIP3    H124795   5.984   2.398   5.424
 8306TIP3    H224796   5.892   2.500   5.482
 8307TIP3   OH224797   6.227   2.353   5.080
 8307TIP3    H124798   6.148   2.411   5.084
 8307TIP3    H224799   6.273   2.386   5.000
 8308TIP3   OH224800   6.054   2.080   3.693
 8308TIP3    H124801   6.029   2.083   3.598
 8308TIP3    H224802   6.151   2.088   3.687
 8309TIP3   OH224803   6.741   2.752   5.213
 8309TIP3    H124804   6.825   2.733   5.171
 8309TIP3    H224805   6.738   2.687   5.285
 8310TIP3   OH224806   6.880   2.412   3.355
 8310TIP3    H124807   6.859   2.365   3.272
 8310TIP3    H224808   6.848   2.502   3.331
 8311TIP3   OH224809   6.350   2.140   5.205
 8311TIP3    H124810   6.348   2.060   5.149
 8311TIP3    H224811   6.305   2.206   5.149
 8312TIP3   OH224812   6.351   1.925   5.010
 8312TIP3    H124813   6.377   1.966   4.926
 8312TIP3    H224814   6.257   1.903   4.994
 8313TIP3   OH224815   6.379   2.459   4.881
 8313TIP3    H124816   6.464   2.474   4.836
 8313TIP3    H224817   6.323   2.528   4.841
 8314TIP3   OH224818   6.960   2.428   5.266
 8314TIP3    H124819   7.011   2.347   5.283
 8314TIP3    H224820   7.029   2.489   5.236
 8315TIP3   OH224821   7.003   2.679   4.999
 8315TIP3    H124822   6.943   2.733   4.942
 8315TIP3    H224823   7.090   2.702   4.960
 8316TIP3   OH224824   6.228   2.252   5.436
 8316TIP3    H124825   6.157   2.186   5.450
 8316TIP3    H224826   6.261   2.225   5.348
 8317TIP3   OH224827   6.483   1.689   5.078
 8317TIP3    H124828   6.434   1.772   5.057
 8317TIP3    H224829   6.413   1.622   5.068
 8318TIP3   OH224830   6.610   2.195   5.296
 8318TIP3    H124831   6.600   2.184   5.392
 8318TIP3    H224832   6.520   2.170   5.267
 8319TIP3   OH224833   6.847   2.138   5.148
 8319TIP3    H124834   6.773   2.145   5.211
 8319TIP3    H224835   6.921   2.111   5.206
 8320TIP3   OH224836   7.077   2.083   5.300
 8320TIP3    H124837   7.090   1.988   5.321
 8320TIP3    H224838   7.073   2.124   5.389
 8321TIP3   OH224839   6.065   2.033   5.488
 8321TIP3    H124840   6.073   1.941   5.454
 8321TIP3    H224841   6.100   2.022   5.579
 8322TIP3   OH224842   6.578   1.699   5.336
 8322TIP3    H124843   6.646   1.629   5.331
 8322TIP3    H224844   6.538   1.692   5.247
 8323TIP3   OH224845   6.644   1.915   5.496
 8323TIP3    H124846   6.621   1.844   5.432
 8323TIP3    H224847   6.566   1.974   5.490
 8324TIP3   OH224848   5.862   3.131   3.592
 8324TIP3    H124849   5.958   3.139   3.577
 8324TIP3    H224850   5.831   3.189   3.520
 8325TIP3   OH224851   5.342   2.522   3.816
 8325TIP3    H124852   5.434   2.547   3.795
 8325TIP3    H224853   5.334   2.435   3.770
 8326TIP3   OH224854   5.259   3.136   4.227
 8326TIP3    H124855   5.191   3.075   4.191
 8326TIP3    H224856   5.302   3.077   4.293
 8327TIP3   OH224857   5.400   2.985   4.410
 8327TIP3    H124858   5.383   2.916   4.477
 8327TIP3    H224859   5.447   3.050   4.465
 8328TIP3   OH224860   7.123   3.385   4.213
 8328TIP3    H124861   7.146   3.421   4.300
 8328TIP3    H224862   7.178   3.438   4.154
 8329TIP3   OH224863   7.151   3.409   4.493
 8329TIP3    H124864   7.109   3.320   4.490
 8329TIP3    H224865   7.225   3.390   4.553
 8330TIP3   OH224866   7.197   3.085   5.067
 8330TIP3    H124867   7.124   3.094   5.131
 8330TIP3    H224868   7.238   3.174   5.071
 8331TIP3   OH224869   7.011   2.602   3.686
 8331TIP3    H124870   7.078   2.666   3.656
 8331TIP3    H224871   7.057   2.562   3.763
 8332TIP3   OH224872   7.135   2.473   3.889
 8332TIP3    H124873   7.087   2.427   3.960
 8332TIP3    H224874   7.218   2.500   3.933
 8333TIP3   OH224875   7.194   2.857   4.323
 8333TIP3    H124876   7.249   2.797   4.269
 8333TIP3    H224877   7.186   2.935   4.265
 8334TIP3   OH224878   7.027   3.157   4.519
 8334TIP3    H124879   6.957   3.203   4.571
 8334TIP3    H224880   6.975   3.112   4.450
 8335TIP3   OH224881   7.080   2.374   3.540
 8335TIP3    H124882   7.009   2.375   3.471
 8335TIP3    H224883   7.052   2.452   3.592
 8336TIP3   OH224884   6.945   2.050   3.496
 8336TIP3    H124885   6.911   2.086   3.413
 8336TIP3    H224886   6.922   1.955   3.487
 8337TIP3   OH224887   7.020   2.283   4.071
 8337TIP3    H124888   6.953   2.224   4.027
 8337TIP3    H224889   6.965   2.319   4.147
 8338TIP3   OH224890   5.583   2.398   4.784
 8338TIP3    H124891   5.581   2.368   4.691
 8338TIP3    H224892   5.680   2.398   4.801
 8339TIP3   OH224893   7.245   2.747   4.893
 8339TIP3    H124894   7.318   2.683   4.885
 8339TIP3    H224895   7.274   2.819   4.835
 8340TIP3   OH224896   7.430   2.553   4.909
 8340TIP3    H124897   7.357   2.504   4.951
 8340TIP3    H224898   7.504   2.490   4.924
 8341TIP3   OH224899   6.892   1.785   3.486
 8341TIP3    H124900   6.969   1.748   3.533
 8341TIP3    H224901   6.822   1.719   3.502
 8342TIP3   OH224902   6.972   2.045   3.932
 8342TIP3    H124903   6.998   1.950   3.945
 8342TIP3    H224904   7.016   2.063   3.846
 8343TIP3   OH224905   7.113   2.216   4.423
 8343TIP3    H124906   7.202   2.245   4.394
 8343TIP3    H224907   7.117   2.246   4.516
 8344TIP3   OH224908   7.176   2.354   4.656
 8344TIP3    H124909   7.102   2.389   4.710
 8344TIP3    H224910   7.210   2.436   4.615
 8345TIP3   OH224911   5.796   2.079   5.450
 8345TIP3    H124912   5.894   2.078   5.457
 8345TIP3    H224913   5.774   1.997   5.499
 8346TIP3   OH224914   7.632   1.946   5.216
 8346TIP3    H124915   7.692   1.881   5.174
 8346TIP3    H224916   7.606   2.002   5.141
 8347TIP3   OH224917   7.051   1.791   3.977
 8347TIP3    H124918   7.109   1.769   4.053
 8347TIP3    H224919   6.995   1.711   3.972
 8348TIP3   OH224920   5.761   1.774   4.786
 8348TIP3    H124921   5.823   1.700   4.799
 8348TIP3    H224922   5.822   1.850   4.785
 8349TIP3   OH224923   5.564   2.047   4.864
 8349TIP3    H124924   5.615   2.047   4.780
 8349TIP3    H224925   5.586   2.133   4.901
 8350TIP3   OH224926   7.506   2.089   5.022
 8350TIP3    H124927   7.420   2.128   5.048
 8350TIP3    H224928   7.475   2.016   4.964
 8351TIP3   OH224929   7.144   1.724   3.603
 8351TIP3    H124930   7.181   1.648   3.553
 8351TIP3    H224931   7.213   1.792   3.591
 8352TIP3   OH224932   5.547   1.553   4.365
 8352TIP3    H124933   5.453   1.550   4.391
 8352TIP3    H224934   5.545   1.611   4.286
 8353TIP3   OH224935   6.708   3.251   3.871
 8353TIP3    H124936   6.759   3.242   3.788
 8353TIP3    H224937   6.754   3.323   3.916
 8354TIP3   OH224938   5.766   1.628   5.177
 8354TIP3    H124939   5.718   1.628   5.261
 8354TIP3    H224940   5.700   1.670   5.118
 8355TIP3   OH224941   5.809   3.059   5.254
 8355TIP3    H124942   5.716   3.031   5.240
 8355TIP3    H224943   5.824   3.032   5.345
 8356TIP3   OH224944   5.985   3.088   4.801
 8356TIP3    H124945   5.935   3.164   4.765
 8356TIP3    H224946   6.071   3.105   4.757
 8357TIP3   OH224947   6.431   3.335   4.940
 8357TIP3    H124948   6.471   3.337   5.029
 8357TIP3    H224949   6.497   3.388   4.889
 8358TIP3   OH224950   6.610   3.487   4.799
 8358TIP3    H124951   6.684   3.438   4.760
 8358TIP3    H224952   6.659   3.546   4.861
 8359TIP3   OH224953   7.404   1.850   4.899
 8359TIP3    H124954   7.312   1.841   4.869
 8359TIP3    H224955   7.435   1.757   4.889
 8360TIP3   OH224956   5.661   3.347   4.827
 8360TIP3    H124957   5.572   3.382   4.804
 8360TIP3    H224958   5.672   3.385   4.915
 8361TIP3   OH224959   5.897   3.325   4.683
 8361TIP3    H124960   5.812   3.339   4.729
 8361TIP3    H224961   5.878   3.362   4.595
 8362TIP3   OH224962   6.324   3.357   4.481
 8362TIP3    H124963   6.255   3.379   4.415
 8362TIP3    H224964   6.337   3.444   4.524
 8363TIP3   OH224965   6.592   3.294   4.530
 8363TIP3    H124966   6.498   3.313   4.514
 8363TIP3    H224967   6.634   3.373   4.493
 8364TIP3   OH224968   6.801   3.488   4.449
 8364TIP3    H124969   6.786   3.573   4.403
 8364TIP3    H224970   6.825   3.429   4.375
 8365TIP3   OH224971   5.574   3.142   4.570
 8365TIP3    H124972   5.599   3.118   4.662
 8365TIP3    H224973   5.646   3.098   4.521
 8366TIP3   OH224974   5.767   3.012   4.424
 8366TIP3    H124975   5.782   2.931   4.478
 8366TIP3    H224976   5.856   3.052   4.424
 8367TIP3   OH224977   6.030   3.107   4.432
 8367TIP3    H124978   6.065   3.016   4.426
 8367TIP3    H224979   6.073   3.136   4.515
 8368TIP3   OH224980   6.607   1.765   4.516
 8368TIP3    H124981   6.564   1.697   4.572
 8368TIP3    H224982   6.678   1.713   4.473
 8369TIP3   OH224983   7.135   1.648   4.421
 8369TIP3    H124984   7.168   1.701   4.346
 8369TIP3    H224985   7.038   1.660   4.414
 8370TIP3   OH224986   7.237   1.757   4.183
 8370TIP3    H124987   7.295   1.689   4.142
 8370TIP3    H224988   7.299   1.830   4.188
 8371TIP3   OH224989   5.857   1.475   4.535
 8371TIP3    H124990   5.765   1.441   4.536
 8371TIP3    H224991   5.907   1.390   4.532
 8372TIP3   OH224992   5.643   1.343   4.183
 8372TIP3    H124993   5.674   1.400   4.110
 8372TIP3    H224994   5.615   1.409   4.250
 8373TIP3   OH224995   6.299   1.509   4.415
 8373TIP3    H124996   6.360   1.557   4.357
 8373TIP3    H224997   6.322   1.543   4.502
 8374TIP3   OH224998   6.853   1.653   4.395
 8374TIP3    H124999   6.847   1.610   4.309
 8374TIP3    H225000   6.838   1.576   4.455
 8375TIP3   OH225001   6.876   1.575   3.962
 8375TIP3    H125002   6.787   1.612   3.970
 8375TIP3    H225003   6.865   1.490   4.008
 8376TIP3   OH225004   5.362   2.914   3.964
 8376TIP3    H125005   5.277   2.883   3.930
 8376TIP3    H225006   5.353   3.009   3.945
 8377TIP3   OH225007   5.760   1.503   3.947
 8377TIP3    H125008   5.808   1.440   3.890
 8377TIP3    H225009   5.833   1.556   3.983
 8378TIP3   OH225010   6.272   1.680   4.045
 8378TIP3    H125011   6.330   1.629   4.104
 8378TIP3    H225012   6.297   1.771   4.071
 8379TIP3   OH225013   6.134   3.103   3.548
 8379TIP3    H125014   6.221   3.128   3.510
 8379TIP3    H225015   6.112   3.029   3.487
 8380TIP3   OH225016   6.852   3.222   3.637
 8380TIP3    H125017   6.842   3.125   3.624
 8380TIP3    H225018   6.806   3.256   3.558
 8381TIP3   OH225019   6.066   1.754   5.423
 8381TIP3    H125020   6.030   1.686   5.483
 8381TIP3    H225021   6.160   1.755   5.452
 8382TIP3   OH225022   6.313   1.751   5.545
 8382TIP3    H125023   6.399   1.727   5.507
 8382TIP3    H225024   6.302   1.680   5.612
 8383TIP3   OH225025   5.435   2.935   3.602
 8383TIP3    H125026   5.434   2.975   3.690
 8383TIP3    H225027   5.526   2.899   3.595
 8384TIP3   OH225028   7.138   1.812   5.333
 8384TIP3    H125029   7.157   1.782   5.425
 8384TIP3    H225030   7.227   1.808   5.292
 8385TIP3   OH225031   7.080   3.366   4.824
 8385TIP3    H125032   7.000   3.334   4.777
 8385TIP3    H225033   7.060   3.462   4.828
 8386TIP3   OH225034   8.344   2.738   3.593
 8386TIP3    H125035   8.315   2.829   3.572
 8386TIP3    H225036   8.268   2.688   3.559
 8387TIP3   OH225037   8.341   2.739   3.973
 8387TIP3    H125038   8.374   2.709   4.060
 8387TIP3    H225039   8.303   2.658   3.936
 8388TIP3   OH225040   7.642   2.631   4.339
 8388TIP3    H125041   7.674   2.566   4.404
 8388TIP3    H225042   7.718   2.691   4.335
 8389TIP3   OH225043   8.588   3.039   3.654
 8389TIP3    H125044   8.572   2.968   3.717
 8389TIP3    H225045   8.613   3.113   3.711
 8390TIP3   OH225046   7.613   3.040   4.061
 8390TIP3    H125047   7.604   2.942   4.066
 8390TIP3    H225048   7.710   3.049   4.058
 8391TIP3   OH225049   7.380   2.522   4.010
 8391TIP3    H125050   7.441   2.457   4.050
 8391TIP3    H225051   7.440   2.574   3.954
 8392TIP3   OH225052   8.238   3.508   3.670
 8392TIP3    H125053   8.282   3.435   3.621
 8392TIP3    H225054   8.226   3.468   3.757
 8393TIP3   OH225055   8.142   2.963   4.020
 8393TIP3    H125056   8.181   2.886   3.976
 8393TIP3    H225057   8.226   3.009   4.044
 8394TIP3   OH225058   9.085   2.310   4.029
 8394TIP3    H125059   9.150   2.360   4.083
 8394TIP3    H225060   9.133   2.307   3.944
 8395TIP3   OH225061   8.552   2.467   4.054
 8395TIP3    H125062   8.596   2.383   4.075
 8395TIP3    H225063   8.523   2.450   3.962
 8396TIP3   OH225064   7.890   2.125   4.022
 8396TIP3    H125065   7.874   2.196   3.956
 8396TIP3    H225066   7.848   2.049   3.976
 8397TIP3   OH225067   8.586   2.217   3.642
 8397TIP3    H125068   8.658   2.200   3.707
 8397TIP3    H225069   8.639   2.252   3.567
 8398TIP3   OH225070   7.529   2.316   4.116
 8398TIP3    H125071   7.610   2.302   4.168
 8398TIP3    H225072   7.551   2.263   4.036
 8399TIP3   OH225073   7.967   2.524   3.918
 8399TIP3    H125074   8.062   2.500   3.931
 8399TIP3    H225075   7.930   2.439   3.887
 8400TIP3   OH225076   9.225   2.490   4.184
 8400TIP3    H125077   9.140   2.540   4.183
 8400TIP3    H225078   9.267   2.523   4.266
 8401TIP3   OH225079   7.889   2.108   4.452
 8401TIP3    H125080   7.827   2.144   4.386
 8401TIP3    H225081   7.838   2.125   4.534
 8402TIP3   OH225082   8.235   2.959   3.463
 8402TIP3    H125083   8.195   2.937   3.378
 8402TIP3    H225084   8.191   3.043   3.485
 8403TIP3   OH225085   7.995   2.883   4.248
 8403TIP3    H125086   7.932   2.948   4.287
 8403TIP3    H225087   8.037   2.935   4.177
 8404TIP3   OH225088   8.798   2.216   3.813
 8404TIP3    H125089   8.790   2.167   3.895
 8404TIP3    H225090   8.853   2.292   3.840
 8405TIP3   OH225091   7.756   2.224   4.238
 8405TIP3    H125092   7.819   2.295   4.263
 8405TIP3    H225093   7.808   2.182   4.165
 8406TIP3   OH225094   7.822   3.076   4.344
 8406TIP3    H125095   7.797   3.163   4.307
 8406TIP3    H225096   7.744   3.061   4.402
 8407TIP3   OH225097   7.217   2.767   3.582
 8407TIP3    H125098   7.177   2.794   3.497
 8407TIP3    H225099   7.247   2.853   3.618
 8408TIP3   OH225100   8.659   3.283   3.823
 8408TIP3    H125101   8.569   3.273   3.863
 8408TIP3    H225102   8.648   3.368   3.777
 8409TIP3   OH225103   8.926   2.176   4.198
 8409TIP3    H125104   8.839   2.205   4.167
 8409TIP3    H225105   8.985   2.218   4.131
 8410TIP3   OH225106   8.244   1.827   4.164
 8410TIP3    H125107   8.234   1.732   4.184
 8410TIP3    H225108   8.167   1.864   4.212
 8411TIP3   OH225109   8.360   3.331   3.497
 8411TIP3    H125110   8.408   3.248   3.476
 8411TIP3    H225111   8.421   3.395   3.454
 8412TIP3   OH225112   8.501   3.116   3.403
 8412TIP3    H125113   8.469   3.036   3.358
 8412TIP3    H225114   8.536   3.078   3.486
 8413TIP3   OH225115   8.881   3.197   4.163
 8413TIP3    H125116   8.868   3.118   4.106
 8413TIP3    H225117   8.864   3.271   4.101
 8414TIP3   OH225118   8.175   2.590   3.422
 8414TIP3    H125119   8.095   2.641   3.398
 8414TIP3    H225120   8.222   2.586   3.337
 8415TIP3   OH225121   8.133   2.374   3.139
 8415TIP3    H125122   8.202   2.424   3.187
 8415TIP3    H225123   8.189   2.309   3.092
 8416TIP3   OH225124   9.076   2.833   4.011
 8416TIP3    H125125   8.992   2.884   4.016
 8416TIP3    H225126   9.104   2.850   3.919
 8417TIP3   OH225127   8.521   2.673   3.394
 8417TIP3    H125128   8.467   2.697   3.473
 8417TIP3    H225129   8.605   2.645   3.438
 8418TIP3   OH225130   8.756   2.713   4.305
 8418TIP3    H125131   8.753   2.795   4.358
 8418TIP3    H225132   8.670   2.717   4.260
 8419TIP3   OH225133   7.755   2.671   3.813
 8419TIP3    H125134   7.713   2.613   3.745
 8419TIP3    H225135   7.832   2.617   3.840
 8420TIP3   OH225136   7.884   3.080   3.960
 8420TIP3    H125137   7.864   3.039   3.874
 8420TIP3    H225138   7.974   3.047   3.978
 8421TIP3   OH225139   7.887   2.644   4.162
 8421TIP3    H125140   7.925   2.620   4.075
 8421TIP3    H225141   7.934   2.727   4.184
 8422TIP3   OH225142   8.418   3.279   3.942
 8422TIP3    H125143   8.403   3.358   3.997
 8422TIP3    H225144   8.402   3.205   4.005
 8423TIP3   OH225145   8.028   3.198   4.488
 8423TIP3    H125146   7.969   3.260   4.535
 8423TIP3    H225147   7.962   3.145   4.439
 8424TIP3   OH225148   8.362   2.531   3.220
 8424TIP3    H125149   8.422   2.589   3.272
 8424TIP3    H225150   8.389   2.555   3.128
 8425TIP3   OH225151   7.781   2.756   4.587
 8425TIP3    H125152   7.787   2.842   4.633
 8425TIP3    H225153   7.686   2.736   4.600
 8426TIP3   OH225154   8.105   3.211   3.496
 8426TIP3    H125155   8.184   3.265   3.514
 8426TIP3    H225156   8.044   3.274   3.455
 8427TIP3   OH225157   7.823   3.366   4.576
 8427TIP3    H125158   7.787   3.365   4.485
 8427TIP3    H225159   7.744   3.345   4.630
 8428TIP3   OH225160   8.888   1.789   3.297
 8428TIP3    H125161   8.798   1.804   3.332
 8428TIP3    H225162   8.892   1.853   3.224
 8429TIP3   OH225163   7.617   2.513   3.621
 8429TIP3    H125164   7.556   2.561   3.562
 8429TIP3    H225165   7.583   2.424   3.615
 8430TIP3   OH225166   8.676   3.140   2.817
 8430TIP3    H125167   8.684   3.236   2.801
 8430TIP3    H225168   8.769   3.111   2.804
 8431TIP3   OH225169   7.402   2.897   4.523
 8431TIP3    H125170   7.336   2.874   4.455
 8431TIP3    H225171   7.439   2.810   4.549
 8432TIP3   OH225172   7.256   3.087   4.160
 8432TIP3    H125173   7.352   3.089   4.149
 8432TIP3    H225174   7.241   3.169   4.209
 8433TIP3   OH225175   9.112   3.545   4.202
 8433TIP3    H125176   9.119   3.449   4.218
 8433TIP3    H225177   9.032   3.565   4.256
 8434TIP3   OH225178   8.227   3.327   4.345
 8434TIP3    H125179   8.226   3.420   4.378
 8434TIP3    H225180   8.155   3.287   4.400
 8435TIP3   OH225181   7.987   3.456   3.297
 8435TIP3    H125182   7.941   3.437   3.214
 8435TIP3    H225183   7.954   3.545   3.320
 8436TIP3   OH225184   7.425   3.306   3.681
 8436TIP3    H125185   7.473   3.296   3.766
 8436TIP3    H225186   7.363   3.232   3.688
 8437TIP3   OH225187   8.189   3.358   2.938
 8437TIP3    H125188   8.248   3.288   2.901
 8437TIP3    H225189   8.224   3.366   3.029
 8438TIP3   OH225190   8.239   3.406   3.209
 8438TIP3    H125191   8.150   3.415   3.250
 8438TIP3    H225192   8.287   3.360   3.279
 8439TIP3   OH225193   9.019   2.678   4.477
 8439TIP3    H125194   8.934   2.685   4.431
 8439TIP3    H225195   9.035   2.581   4.471
 8440TIP3   OH225196   7.607   3.079   4.512
 8440TIP3    H125197   7.657   3.064   4.595
 8440TIP3    H225198   7.533   3.016   4.521
 8441TIP3   OH225199   8.004   1.902   4.295
 8441TIP3    H125200   7.914   1.873   4.269
 8441TIP3    H225201   7.981   1.985   4.342
 8442TIP3   OH225202   8.540   2.019   4.489
 8442TIP3    H125203   8.609   1.991   4.553
 8442TIP3    H225204   8.457   1.998   4.536
 8443TIP3   OH225205   8.774   2.446   4.405
 8443TIP3    H125206   8.729   2.443   4.492
 8443TIP3    H225207   8.754   2.536   4.373
 8444TIP3   OH225208   8.437   2.580   2.964
 8444TIP3    H125209   8.406   2.552   2.876
 8444TIP3    H225210   8.520   2.625   2.940
 8445TIP3   OH225211   8.154   1.955   3.267
 8445TIP3    H125212   8.118   1.949   3.357
 8445TIP3    H225213   8.114   1.873   3.229
 8446TIP3   OH225214   7.935   2.420   4.313
 8446TIP3    H125215   7.889   2.443   4.396
 8446TIP3    H225216   7.919   2.501   4.259
 8447TIP3   OH225217   7.820   2.303   3.829
 8447TIP3    H125218   7.726   2.282   3.836
 8447TIP3    H225219   7.840   2.266   3.740
 8448TIP3   OH225220   8.313   2.391   3.555
 8448TIP3    H125221   8.260   2.462   3.513
 8448TIP3    H225222   8.368   2.360   3.480
 8449TIP3   OH225223   8.487   2.670   4.642
 8449TIP3    H125224   8.465   2.597   4.704
 8449TIP3    H225225   8.581   2.684   4.663
 8450TIP3   OH225226   8.468   2.419   3.795
 8450TIP3    H125227   8.409   2.447   3.722
 8450TIP3    H225228   8.503   2.337   3.753
 8451TIP3   OH225229   7.754   2.447   4.525
 8451TIP3    H125230   7.787   2.510   4.590
 8451TIP3    H225231   7.748   2.365   4.577
 8452TIP3   OH225232   7.809   1.929   3.234
 8452TIP3    H125233   7.800   1.918   3.331
 8452TIP3    H225234   7.724   1.972   3.212
 8453TIP3   OH225235   7.328   1.955   3.628
 8453TIP3    H125236   7.369   1.988   3.546
 8453TIP3    H225237   7.261   2.024   3.643
 8454TIP3   OH225238   8.479   2.667   4.218
 8454TIP3    H125239   8.512   2.594   4.160
 8454TIP3    H225240   8.451   2.614   4.296
 8455TIP3   OH225241   8.149   2.133   3.891
 8455TIP3    H125242   8.070   2.125   3.948
 8455TIP3    H225243   8.221   2.124   3.956
 8456TIP3   OH225244   7.576   2.164   3.890
 8456TIP3    H125245   7.506   2.136   3.829
 8456TIP3    H225246   7.635   2.086   3.886
 8457TIP3   OH225247   7.853   2.184   3.586
 8457TIP3    H125248   7.948   2.192   3.565
 8457TIP3    H225249   7.809   2.203   3.500
 8458TIP3   OH225250   8.638   2.205   4.092
 8458TIP3    H125251   8.602   2.216   4.183
 8458TIP3    H225252   8.576   2.141   4.054
 8459TIP3   OH225253   7.690   2.217   3.364
 8459TIP3    H125254   7.621   2.168   3.315
 8459TIP3    H225255   7.745   2.250   3.290
 8460TIP3   OH225256   8.810   3.892   4.309
 8460TIP3    H125257   8.808   3.913   4.214
 8460TIP3    H225258   8.887   3.942   4.340
 8461TIP3   OH225259   7.769   3.001   4.732
 8461TIP3    H125260   7.849   3.032   4.780
 8461TIP3    H225261   7.704   3.001   4.805
 8462TIP3   OH225262   8.232   2.455   3.986
 8462TIP3    H125263   8.304   2.416   3.935
 8462TIP3    H225264   8.243   2.412   4.073
 8463TIP3   OH225265   7.753   1.948   3.864
 8463TIP3    H125266   7.722   1.867   3.910
 8463TIP3    H225267   7.804   1.911   3.791
 8464TIP3   OH225268   8.209   2.350   4.278
 8464TIP3    H125269   8.120   2.389   4.291
 8464TIP3    H225270   8.268   2.410   4.328
 8465TIP3   OH225271   7.945   2.744   3.371
 8465TIP3    H125272   7.873   2.678   3.360
 8465TIP3    H225273   7.927   2.777   3.462
 8466TIP3   OH225274   8.844   2.979   4.001
 8466TIP3    H125275   8.866   3.026   3.917
 8466TIP3    H225276   8.759   2.935   3.979
 8467TIP3   OH225277   8.404   2.057   3.230
 8467TIP3    H125278   8.308   2.038   3.241
 8467TIP3    H225279   8.412   2.151   3.258
 8468TIP3   OH225280   8.347   3.062   4.368
 8468TIP3    H125281   8.369   3.037   4.459
 8468TIP3    H225282   8.305   3.149   4.378
 8469TIP3   OH225283   8.474   2.303   3.337
 8469TIP3    H125284   8.571   2.307   3.351
 8469TIP3    H225285   8.457   2.381   3.282
 8470TIP3   OH225286   7.630   2.752   4.048
 8470TIP3    H125287   7.673   2.733   3.962
 8470TIP3    H225288   7.687   2.703   4.109
 8471TIP3   OH225289   8.090   2.892   3.191
 8471TIP3    H125290   8.043   2.979   3.198
 8471TIP3    H225291   8.037   2.837   3.252
 8472TIP3   OH225292   7.517   2.686   4.661
 8472TIP3    H125293   7.543   2.676   4.755
 8472TIP3    H225294   7.451   2.616   4.652
 8473TIP3   OH225295   8.244   2.799   4.679
 8473TIP3    H125296   8.187   2.739   4.629
 8473TIP3    H225297   8.333   2.766   4.654
 8474TIP3   OH225298   8.506   3.325   4.261
 8474TIP3    H125299   8.410   3.319   4.276
 8474TIP3    H225300   8.533   3.373   4.342
 8475TIP3   OH225301   8.909   2.384   3.185
 8475TIP3    H125302   8.850   2.339   3.121
 8475TIP3    H225303   8.933   2.459   3.129
 8476TIP3   OH225304   9.133   3.242   4.245
 8476TIP3    H125305   9.035   3.241   4.242
 8476TIP3    H225306   9.154   3.207   4.156
 8477TIP3   OH225307   8.614   3.211   3.081
 8477TIP3    H125308   8.593   3.138   3.141
 8477TIP3    H225309   8.630   3.167   2.996
 8478TIP3   OH225310   8.611   2.842   3.922
 8478TIP3    H125311   8.518   2.816   3.934
 8478TIP3    H225312   8.644   2.762   3.874
 8479TIP3   OH225313   7.738   3.068   3.672
 8479TIP3    H125314   7.740   3.149   3.619
 8479TIP3    H225315   7.643   3.053   3.681
 8480TIP3   OH225316   7.302   2.374   3.374
 8480TIP3    H125317   7.348   2.458   3.394
 8480TIP3    H225318   7.225   2.379   3.435
 8481TIP3   OH225319   7.878   2.834   3.617
 8481TIP3    H125320   7.843   2.924   3.634
 8481TIP3    H225321   7.842   2.784   3.693
 8482TIP3   OH225322   8.007   3.412   4.142
 8482TIP3    H125323   8.049   3.485   4.092
 8482TIP3    H225324   8.084   3.377   4.191
 8483TIP3   OH225325   7.659   3.307   3.525
 8483TIP3    H125326   7.573   3.315   3.570
 8483TIP3    H225327   7.690   3.400   3.527
 8484TIP3   OH225328   8.398   3.047   4.100
 8484TIP3    H125329   8.388   3.045   4.198
 8484TIP3    H225330   8.476   2.991   4.087
 8485TIP3   OH225331   8.370   2.938   2.983
 8485TIP3    H125332   8.423   2.914   3.063
 8485TIP3    H225333   8.282   2.911   3.013
 8486TIP3   OH225334   8.645   3.580   4.152
 8486TIP3    H125335   8.568   3.521   4.147
 8486TIP3    H225336   8.627   3.643   4.079
 8487TIP3   OH225337   8.709   3.414   2.804
 8487TIP3    H125338   8.744   3.482   2.743
 8487TIP3    H225339   8.630   3.461   2.836
 8488TIP3   OH225340   7.732   2.191   4.670
 8488TIP3    H125341   7.637   2.195   4.688
 8488TIP3    H225342   7.763   2.132   4.741
 8489TIP3   OH225343   8.528   2.876   3.203
 8489TIP3    H125344   8.519   2.807   3.271
 8489TIP3    H225345   8.625   2.872   3.187
 8490TIP3   OH225346   7.448   3.275   4.300
 8490TIP3    H125347   7.500   3.201   4.335
 8490TIP3    H225348   7.472   3.345   4.362
 8491TIP3   OH225349   7.737   2.920   2.982
 8491TIP3    H125350   7.752   2.828   2.953
 8491TIP3    H225351   7.718   2.907   3.077
 8492TIP3   OH225352   7.683   2.924   3.255
 8492TIP3    H125353   7.755   2.897   3.313
 8492TIP3    H225354   7.687   3.022   3.262
 8493TIP3   OH225355   7.418   2.619   3.458
 8493TIP3    H125356   7.352   2.664   3.514
 8493TIP3    H225357   7.433   2.688   3.390
 8494TIP3   OH225358   8.564   2.256   4.351
 8494TIP3    H125359   8.646   2.294   4.386
 8494TIP3    H225360   8.553   2.175   4.405
 8495TIP3   OH225361   8.443   2.009   3.514
 8495TIP3    H125362   8.431   2.032   3.420
 8495TIP3    H225363   8.484   2.091   3.550
 8496TIP3   OH225364   7.948   3.122   3.204
 8496TIP3    H125365   7.861   3.150   3.239
 8496TIP3    H225366   7.964   3.192   3.139
 8497TIP3   OH225367   8.135   2.187   3.619
 8497TIP3    H125368   8.201   2.258   3.600
 8497TIP3    H225369   8.142   2.179   3.716
 8498TIP3   OH225370   8.406   2.505   4.425
 8498TIP3    H125371   8.427   2.557   4.505
 8498TIP3    H225372   8.461   2.425   4.437
 8499TIP3   OH225373   8.281   1.914   3.720
 8499TIP3    H125374   8.281   1.989   3.782
 8499TIP3    H225375   8.340   1.949   3.650
 8500TIP3   OH225376   7.691   3.197   3.270
 8500TIP3    H125377   7.660   3.267   3.207
 8500TIP3    H225378   7.674   3.241   3.357
 8501TIP3   OH225379   7.790   1.912   3.512
 8501TIP3    H125380   7.796   2.003   3.545
 8501TIP3    H225381   7.885   1.886   3.517
 8502TIP3   OH225382   9.042   2.408   4.406
 8502TIP3    H125383   8.944   2.402   4.409
 8502TIP3    H225384   9.060   2.373   4.317
 8503TIP3   OH225385   8.687   2.606   3.790
 8503TIP3    H125386   8.615   2.542   3.803
 8503TIP3    H225387   8.762   2.563   3.837
 8504TIP3   OH225388   7.408   2.828   3.264
 8504TIP3    H125389   7.473   2.901   3.273
 8504TIP3    H225390   7.455   2.774   3.196
 8505TIP3   OH225391   7.350   2.104   3.403
 8505TIP3    H125392   7.350   2.201   3.392
 8505TIP3    H225393   7.278   2.077   3.344
 8506TIP3   OH225394   8.665   3.555   3.744
 8506TIP3    H125395   8.622   3.603   3.670
 8506TIP3    H225396   8.759   3.575   3.723
 8507TIP3   OH225397   7.733   1.828   4.272
 8507TIP3    H125398   7.709   1.791   4.184
 8507TIP3    H225399   7.729   1.748   4.329
 8508TIP3   OH225400   7.280   3.038   3.652
 8508TIP3    H125401   7.208   3.073   3.707
 8508TIP3    H225402   7.258   3.079   3.566
 8509TIP3   OH225403   7.437   3.582   4.721
 8509TIP3    H125404   7.522   3.582   4.769
 8509TIP3    H225405   7.415   3.487   4.721
 8510TIP3   OH225406   7.921   3.550   4.765
 8510TIP3    H125407   8.014   3.527   4.774
 8510TIP3    H225408   7.894   3.491   4.692
 8511TIP3   OH225409   7.901   3.124   2.896
 8511TIP3    H125410   7.844   3.052   2.933
 8511TIP3    H225411   7.976   3.072   2.863
 8512TIP3   OH225412   8.560   3.453   4.499
 8512TIP3    H125413   8.548   3.383   4.568
 8512TIP3    H225414   8.636   3.503   4.533
 8513TIP3   OH225415   8.336   3.165   2.807
 8513TIP3    H125416   8.383   3.102   2.864
 8513TIP3    H225417   8.390   3.165   2.726
 8514TIP3   OH225418   7.568   2.990   4.922
 8514TIP3    H125419   7.584   2.894   4.930
 8514TIP3    H225420   7.480   2.992   4.880
 8515TIP3   OH225421   7.544   2.641   3.116
 8515TIP3    H125422   7.600   2.607   3.188
 8515TIP3    H225423   7.611   2.645   3.044
 8516TIP3   OH225424   8.176   3.074   4.696
 8516TIP3    H125425   8.134   3.089   4.609
 8516TIP3    H225426   8.207   2.982   4.689
 8517TIP3   OH225427   8.052   2.838   2.922
 8517TIP3    H125428   8.056   2.851   3.019
 8517TIP3    H225429   8.053   2.740   2.917
 8518TIP3   OH225430   8.668   3.081   4.302
 8518TIP3    H125431   8.742   3.128   4.258
 8518TIP3    H225432   8.595   3.145   4.289
 8519TIP3   OH225433   7.687   2.721   4.903
 8519TIP3    H125434   7.763   2.664   4.885
 8519TIP3    H225435   7.710   2.756   4.992
 8520TIP3   OH225436   7.753   2.543   3.339
 8520TIP3    H125437   7.729   2.498   3.420
 8520TIP3    H225438   7.790   2.470   3.285
 8521TIP3   OH225439   8.018   2.605   4.563
 8521TIP3    H125440   7.944   2.669   4.568
 8521TIP3    H225441   8.070   2.640   4.487
 8522TIP3   OH225442   7.853   2.338   3.180
 8522TIP3    H125443   7.827   2.339   3.085
 8522TIP3    H225444   7.951   2.342   3.172
 8523TIP3   OH225445   8.539   3.010   4.700
 8523TIP3    H125446   8.621   2.987   4.655
 8523TIP3    H225447   8.536   2.944   4.771
 8524TIP3   OH225448   8.674   2.669   2.840
 8524TIP3    H125449   8.653   2.621   2.758
 8524TIP3    H225450   8.642   2.759   2.816
 8525TIP3   OH225451   8.143   2.396   4.694
 8525TIP3    H125452   8.146   2.315   4.638
 8525TIP3    H225453   8.100   2.461   4.634
 8526TIP3   OH225454   8.147   2.183   4.500
 8526TIP3    H125455   8.176   2.223   4.416
 8526TIP3    H225456   8.054   2.160   4.480
 8527TIP3   OH225457   8.174   2.718   4.373
 8527TIP3    H125458   8.258   2.724   4.326
 8527TIP3    H225459   8.120   2.786   4.328
 8528TIP3   OH225460   8.758   2.686   4.754
 8528TIP3    H125461   8.805   2.602   4.767
 8528TIP3    H225462   8.830   2.743   4.724
 8529TIP3   OH225463   8.798   2.938   4.490
 8529TIP3    H125464   8.741   2.991   4.430
 8529TIP3    H225465   8.886   2.956   4.450
 8530TIP3   OH225466   8.020   2.511   4.921
 8530TIP3    H125467   7.952   2.442   4.937
 8530TIP3    H225468   8.057   2.482   4.835
 8531TIP3   OH225469   8.280   1.947   4.566
 8531TIP3    H125470   8.231   2.029   4.544
 8531TIP3    H225471   8.210   1.878   4.555
 8532TIP3   OH225472   8.405   2.453   4.783
 8532TIP3    H125473   8.397   2.440   4.879
 8532TIP3    H225474   8.315   2.426   4.756
 8533TIP3   OH225475   8.645   2.401   4.638
 8533TIP3    H125476   8.570   2.401   4.701
 8533TIP3    H225477   8.719   2.370   4.694
 8534TIP3   OH225478   8.873   2.340   4.789
 8534TIP3    H125479   8.885   2.244   4.808
 8534TIP3    H225480   8.869   2.379   4.878
 8535TIP3   OH225481   7.861   2.289   4.975
 8535TIP3    H125482   7.870   2.198   4.941
 8535TIP3    H225483   7.898   2.278   5.065
 8536TIP3   OH225484   8.374   1.956   4.824
 8536TIP3    H125485   8.442   1.886   4.819
 8536TIP3    H225486   8.335   1.949   4.734
 8537TIP3   OH225487   8.440   2.171   4.983
 8537TIP3    H125488   8.418   2.100   4.919
 8537TIP3    H225489   8.362   2.230   4.976
 8538TIP3   OH225490   7.660   3.400   3.083
 8538TIP3    H125491   7.756   3.396   3.063
 8538TIP3    H225492   7.629   3.449   3.004
 8539TIP3   OH225493   7.141   2.780   3.302
 8539TIP3    H125494   7.235   2.803   3.286
 8539TIP3    H225495   7.135   2.692   3.259
 8540TIP3   OH225496   7.057   3.394   3.711
 8540TIP3    H125497   6.988   3.333   3.676
 8540TIP3    H225498   7.099   3.336   3.778
 8541TIP3   OH225499   7.193   3.246   3.898
 8541TIP3    H125500   7.178   3.173   3.961
 8541TIP3    H225501   7.242   3.308   3.955
 8542TIP3   OH225502   8.916   3.653   3.699
 8542TIP3    H125503   8.950   3.678   3.786
 8542TIP3    H225504   8.987   3.683   3.639
 8543TIP3   OH225505   8.950   3.667   3.982
 8543TIP3    H125506   8.903   3.580   3.977
 8543TIP3    H225507   9.023   3.640   4.040
 8544TIP3   OH225508   8.992   3.344   4.552
 8544TIP3    H125509   8.920   3.350   4.618
 8544TIP3    H225510   9.034   3.432   4.560
 8545TIP3   OH225511   8.803   2.859   3.173
 8545TIP3    H125512   8.872   2.924   3.148
 8545TIP3    H225513   8.845   2.816   3.251
 8546TIP3   OH225514   8.923   2.723   3.375
 8546TIP3    H125515   8.856   2.678   3.432
 8546TIP3    H225516   8.983   2.763   3.441
 8547TIP3   OH225517   8.989   3.109   3.806
 8547TIP3    H125518   9.035   3.053   3.741
 8547TIP3    H225519   8.977   3.191   3.755
 8548TIP3   OH225520   8.823   3.417   4.004
 8548TIP3    H125521   8.753   3.457   4.058
 8548TIP3    H225522   8.772   3.369   3.936
 8549TIP3   OH225523   8.881   2.639   3.018
 8549TIP3    H125524   8.804   2.635   2.957
 8549TIP3    H225525   8.849   2.710   3.078
 8550TIP3   OH225526   8.734   2.305   2.992
 8550TIP3    H125527   8.720   2.344   2.905
 8550TIP3    H225528   8.712   2.210   2.974
 8551TIP3   OH225529   8.750   2.578   3.525
 8551TIP3    H125530   8.759   2.481   3.518
 8551TIP3    H225531   8.734   2.591   3.621
 8552TIP3   OH225532   7.380   2.651   4.269
 8552TIP3    H125533   7.381   2.628   4.174
 8552TIP3    H225534   7.476   2.653   4.288
 8553TIP3   OH225535   9.042   3.003   4.380
 8553TIP3    H125536   9.116   2.939   4.372
 8553TIP3    H225537   9.071   3.074   4.321
 8554TIP3   OH225538   9.238   2.818   4.403
 8554TIP3    H125539   9.159   2.770   4.436
 8554TIP3    H225540   9.304   2.746   4.412
 8555TIP3   OH225541   8.687   2.038   2.966
 8555TIP3    H125542   8.762   2.004   3.018
 8555TIP3    H225543   8.613   1.979   2.990
 8556TIP3   OH225544   8.750   2.297   3.419
 8556TIP3    H125545   8.791   2.209   3.435
 8556TIP3    H225546   8.806   2.329   3.345
 8557TIP3   OH225547   8.900   2.490   3.905
 8557TIP3    H125548   8.984   2.519   3.865
 8557TIP3    H225549   8.922   2.496   4.000
 8558TIP3   OH225550   8.978   2.615   4.153
 8558TIP3    H125551   8.898   2.647   4.198
 8558TIP3    H225552   9.008   2.694   4.105
 8559TIP3   OH225553   7.595   2.338   4.941
 8559TIP3    H125554   7.693   2.334   4.946
 8559TIP3    H225555   7.571   2.255   4.986
 8560TIP3   OH225556   8.855   2.046   3.466
 8560TIP3    H125557   8.892   2.031   3.555
 8560TIP3    H225558   8.794   1.970   3.458
 8561TIP3   OH225559   7.547   2.038   4.300
 8561TIP3    H125560   7.602   1.958   4.293
 8561TIP3    H225561   7.613   2.106   4.278
 8562TIP3   OH225562   7.346   2.313   4.325
 8562TIP3    H125563   7.425   2.311   4.267
 8562TIP3    H225564   7.371   2.386   4.385
 8563TIP3   OH225565   9.287   2.334   4.525
 8563TIP3    H125566   9.207   2.386   4.546
 8563TIP3    H225567   9.250   2.274   4.457
 8564TIP3   OH225568   8.936   1.966   3.080
 8564TIP3    H125569   8.981   1.881   3.061
 8564TIP3    H225570   8.989   2.026   3.024
 8565TIP3   OH225571   7.328   1.838   3.870
 8565TIP3    H125572   7.238   1.804   3.869
 8565TIP3    H225573   7.337   1.879   3.782
 8566TIP3   OH225574   8.504   3.514   3.358
 8566TIP3    H125575   8.548   3.493   3.273
 8566TIP3    H225576   8.567   3.574   3.399
 8567TIP3   OH225577   7.563   1.892   4.667
 8567TIP3    H125578   7.514   1.883   4.750
 8567TIP3    H225579   7.493   1.924   4.607
 8568TIP3   OH225580   7.604   3.314   4.743
 8568TIP3    H125581   7.511   3.288   4.726
 8568TIP3    H225582   7.612   3.298   4.838
 8569TIP3   OH225583   7.781   3.347   4.290
 8569TIP3    H125584   7.731   3.422   4.252
 8569TIP3    H225585   7.866   3.362   4.245
 8570TIP3   OH225586   8.227   3.593   4.428
 8570TIP3    H125587   8.268   3.594   4.517
 8570TIP3    H225588   8.293   3.644   4.376
 8571TIP3   OH225589   8.406   3.745   4.285
 8571TIP3    H125590   8.477   3.691   4.247
 8571TIP3    H225591   8.457   3.801   4.347
 8572TIP3   OH225592   9.191   2.108   4.392
 8572TIP3    H125593   9.105   2.108   4.347
 8572TIP3    H225594   9.228   2.023   4.363
 8573TIP3   OH225595   7.458   3.605   4.313
 8573TIP3    H125596   7.369   3.639   4.289
 8573TIP3    H225597   7.466   3.641   4.402
 8574TIP3   OH225598   7.694   3.584   4.171
 8574TIP3    H125599   7.608   3.597   4.217
 8574TIP3    H225600   7.674   3.618   4.081
 8575TIP3   OH225601   8.121   3.614   3.968
 8575TIP3    H125602   8.050   3.634   3.904
 8575TIP3    H225603   8.132   3.702   4.011
 8576TIP3   OH225604   8.388   3.554   4.020
 8576TIP3    H125605   8.293   3.568   4.001
 8576TIP3    H225606   8.428   3.631   3.978
 8577TIP3   OH225607   8.602   3.747   3.937
 8577TIP3    H125608   8.583   3.829   3.886
 8577TIP3    H225609   8.623   3.684   3.865
 8578TIP3   OH225610   7.370   3.400   4.057
 8578TIP3    H125611   7.395   3.375   4.149
 8578TIP3    H225612   7.442   3.355   4.008
 8579TIP3   OH225613   7.563   3.270   3.914
 8579TIP3    H125614   7.579   3.186   3.963
 8579TIP3    H225615   7.653   3.308   3.910
 8580TIP3   OH225616   7.829   3.366   3.917
 8580TIP3    H125617   7.860   3.275   3.905
 8580TIP3    H225618   7.871   3.388   4.002
 8581TIP3   OH225619   8.399   2.021   4.000
 8581TIP3    H125620   8.360   1.951   4.055
 8581TIP3    H225621   8.475   1.975   3.959
 8582TIP3   OH225622   8.927   1.909   3.933
 8582TIP3    H125623   8.960   1.956   3.853
 8582TIP3    H225624   8.831   1.917   3.921
 8583TIP3   OH225625   9.016   2.000   3.693
 8583TIP3    H125626   9.100   1.957   3.669
 8583TIP3    H225627   9.040   2.095   3.681
 8584TIP3   OH225628   7.655   1.732   4.022
 8584TIP3    H125629   7.563   1.700   4.021
 8584TIP3    H225630   7.704   1.647   4.018
 8585TIP3   OH225631   7.426   1.596   3.671
 8585TIP3    H125632   7.473   1.638   3.597
 8585TIP3    H225633   7.414   1.669   3.733
 8586TIP3   OH225634   8.094   1.768   3.904
 8586TIP3    H125635   8.153   1.814   3.842
 8586TIP3    H225636   8.126   1.800   3.989
 8587TIP3   OH225637   8.640   1.910   3.889
 8587TIP3    H125638   8.650   1.871   3.801
 8587TIP3    H225639   8.629   1.829   3.943
 8588TIP3   OH225640   8.664   1.836   3.452
 8588TIP3    H125641   8.577   1.877   3.466
 8588TIP3    H225642   8.652   1.750   3.497
 8589TIP3   OH225643   7.157   3.171   3.451
 8589TIP3    H125644   7.072   3.139   3.416
 8589TIP3    H225645   7.147   3.266   3.433
 8590TIP3   OH225646   7.559   1.760   3.432
 8590TIP3    H125647   7.601   1.677   3.397
 8590TIP3    H225648   7.638   1.807   3.465
 8591TIP3   OH225649   8.067   1.938   3.531
 8591TIP3    H125650   8.125   1.884   3.587
 8591TIP3    H225651   8.095   2.028   3.559
 8592TIP3   OH225652   7.929   3.361   3.031
 8592TIP3    H125653   8.018   3.383   2.995
 8592TIP3    H225654   7.907   3.286   2.972
 8593TIP3   OH225655   8.645   3.477   3.125
 8593TIP3    H125656   8.639   3.379   3.112
 8593TIP3    H225657   8.603   3.509   3.043
 8594TIP3   OH225658   7.861   2.012   4.912
 8594TIP3    H125659   7.827   1.942   4.970
 8594TIP3    H225660   7.956   2.012   4.939
 8595TIP3   OH225661   8.110   2.008   5.031
 8595TIP3    H125662   8.195   1.984   4.993
 8595TIP3    H225663   8.098   1.938   5.099
 8596TIP3   OH225664   7.232   3.197   3.088
 8596TIP3    H125665   7.231   3.225   3.181
 8596TIP3    H225666   7.322   3.156   3.079
 8597TIP3   OH225667   8.932   2.069   4.821
 8597TIP3    H125668   8.954   2.038   4.912
 8597TIP3    H225669   9.020   2.067   4.778
 8598TIP3   OH225670   8.872   3.623   4.315
 8598TIP3    H125671   8.794   3.589   4.266
 8598TIP3    H225672   8.850   3.718   4.317
 8599TIP3   OH225673   9.095   2.504   3.353
 8599TIP3    H125674   9.029   2.576   3.351
 8599TIP3    H225675   9.047   2.437   3.300
 8600TIP3   OH225676   9.153   2.794   3.508
 8600TIP3    H125677   9.184   2.709   3.542
 8600TIP3    H225678   9.190   2.791   3.418
 8601TIP3   OH225679   9.005   3.030   3.092
 8601TIP3    H125680   8.990   3.033   2.996
 8601TIP3    H225681   9.040   3.119   3.111
 8602TIP3   OH225682   9.196   3.139   3.996
 8602TIP3    H125683   9.123   3.108   3.938
 8602TIP3    H225684   9.230   3.055   4.035
 8603TIP3   OH225685   9.057   3.346   3.646
 8603TIP3    H125686   9.153   3.349   3.636
 8603TIP3    H225687   9.041   3.426   3.698
 8604TIP3   OH225688   9.189   3.567   3.189
 8604TIP3    H125689   9.245   3.560   3.269
 8604TIP3    H225690   9.146   3.480   3.186
 8605TIP3   OH225691   9.340   3.364   4.028
 8605TIP3    H125692   9.377   3.330   4.110
 8605TIP3    H225693   9.276   3.292   4.007
 8606TIP3   OH225694   9.111   2.243   3.620
 8606TIP3    H125695   9.179   2.289   3.671
 8606TIP3    H225696   9.123   2.279   3.531
 8607TIP3   OH225697   9.296   2.936   4.151
 8607TIP3    H125698   9.318   2.905   4.241
 8607TIP3    H225699   9.230   2.871   4.124
 8608TIP3   OH225700   9.078   2.698   2.837
 8608TIP3    H125701   9.149   2.696   2.903
 8608TIP3    H225702   9.001   2.676   2.894
 8609TIP3   OH225703   9.236   3.537   3.794
 8609TIP3    H125704   9.278   3.461   3.839
 8609TIP3    H225705   9.269   3.611   3.847
 8610TIP3   OH225706   9.076   3.301   3.143
 8610TIP3    H125707   8.994   3.325   3.186
 8610TIP3    H225708   9.060   3.340   3.054
 8611TIP3   OH225709   9.227   3.833   4.214
 8611TIP3    H125710   9.317   3.815   4.245
 8611TIP3    H225711   9.195   3.741   4.205
 8612TIP3   OH225712   9.362   3.274   4.395
 8612TIP3    H125713   9.391   3.191   4.436
 8612TIP3    H225714   9.277   3.249   4.352
 8613TIP3   OH225715   8.934   3.044   2.783
 8613TIP3    H125716   9.032   3.036   2.788
 8613TIP3    H225717   8.914   2.961   2.733
 8614TIP3   OH225718   8.842   3.654   3.206
 8614TIP3    H125719   8.781   3.588   3.165
 8614TIP3    H225720   8.893   3.596   3.267
 8615TIP3   OH225721   8.977   3.504   3.393
 8615TIP3    H125722   8.972   3.427   3.451
 8615TIP3    H225723   9.036   3.562   3.444
 8616TIP3   OH225724   9.199   2.905   3.757
 8616TIP3    H125725   9.173   2.872   3.668
 8616TIP3    H225726   9.282   2.950   3.737
 8617TIP3   OH225727   9.375   2.585   4.414
 8617TIP3    H125728   9.466   2.618   4.426
 8617TIP3    H225729   9.372   2.509   4.474
 8618TIP3   OH225730   9.148   2.582   3.805
 8618TIP3    H125731   9.210   2.507   3.814
 8618TIP3    H225732   9.193   2.654   3.849
 8619TIP3   OH225733   9.102   2.117   3.322
 8619TIP3    H125734   9.007   2.102   3.334
 8619TIP3    H225735   9.107   2.138   3.227
 8620TIP3   OH225736   9.390   3.591   4.255
 8620TIP3    H125737   9.318   3.545   4.209
 8620TIP3    H225738   9.400   3.537   4.335
 8621TIP3   OH225739   9.242   3.855   3.802
 8621TIP3    H125740   9.159   3.900   3.776
 8621TIP3    H225741   9.259   3.898   3.887
 8622TIP3   OH225742   9.497   3.848   3.673
 8622TIP3    H125743   9.404   3.849   3.702
 8622TIP3    H225744   9.489   3.875   3.579
 8623TIP3   OH225745   9.165   3.653   3.545
 8623TIP3    H125746   9.196   3.632   3.636
 8623TIP3    H225747   9.242   3.618   3.495
 8624TIP3   OH225748   9.371   3.542   3.392
 8624TIP3    H125749   9.397   3.448   3.391
 8624TIP3    H225750   9.459   3.585   3.399
 8625TIP3   OH225751   8.951   3.427   2.940
 8625TIP3    H125752   8.867   3.394   2.903
 8625TIP3    H225753   8.943   3.521   2.916
 8626TIP3   OH225754   9.046   3.464   2.584
 8626TIP3    H125755   9.024   3.478   2.677
 8626TIP3    H225756   9.108   3.390   2.588
 8627TIP3   OH225757   0.797   3.525   5.282
 8627TIP3    H125758   0.770   3.617   5.263
 8627TIP3    H225759   0.718   3.477   5.251
 8628TIP3   OH225760   0.793   3.526   5.663
 8628TIP3    H125761   0.826   3.498   5.750
 8628TIP3    H225762   0.753   3.444   5.629
 8629TIP3   OH225763   0.092   3.422   6.022
 8629TIP3    H125764   0.119   3.352   6.085
 8629TIP3    H225765   0.170   3.480   6.025
 8630TIP3   OH225766   1.036   3.829   5.344
 8630TIP3    H125767   1.027   3.758   5.410
 8630TIP3    H225768   1.069   3.903   5.398
 8631TIP3   OH225769   0.074   3.830   5.753
 8631TIP3    H125770   0.059   3.733   5.757
 8631TIP3    H225771   0.171   3.834   5.751
 8632TIP3   OH225772  -0.273   3.030   5.537
 8632TIP3    H125773  -0.269   3.124   5.563
 8632TIP3    H225774  -0.281   2.987   5.624
 8633TIP3   OH225775  -0.162   3.317   5.703
 8633TIP3    H125776  -0.112   3.245   5.746
 8633TIP3    H225777  -0.099   3.353   5.640
 8634TIP3   OH225778   0.687   4.289   5.361
 8634TIP3    H125779   0.733   4.220   5.310
 8634TIP3    H225780   0.687   4.251   5.450
 8635TIP3   OH225781   0.595   3.752   5.709
 8635TIP3    H125782   0.633   3.674   5.665
 8635TIP3    H225783   0.679   3.797   5.734
 8636TIP3   OH225784   1.607   3.072   5.707
 8636TIP3    H125785   1.635   3.154   5.752
 8636TIP3    H225786   1.630   3.091   5.615
 8637TIP3   OH225787   1.006   3.254   5.744
 8637TIP3    H125788   1.049   3.169   5.765
 8637TIP3    H225789   0.976   3.238   5.652
 8638TIP3   OH225790   0.342   2.913   5.710
 8638TIP3    H125791   0.325   2.986   5.647
 8638TIP3    H225792   0.294   2.840   5.665
 8639TIP3   OH225793   1.037   3.003   5.330
 8639TIP3    H125794   1.109   2.987   5.396
 8639TIP3    H225795   1.091   3.038   5.257
 8640TIP3   OH225796  -0.021   3.112   5.810
 8640TIP3    H125797   0.056   3.097   5.868
 8640TIP3    H225798   0.002   3.054   5.735
 8641TIP3   OH225799   0.420   3.313   5.604
 8641TIP3    H125800   0.514   3.287   5.621
 8641TIP3    H225801   0.382   3.228   5.575
 8642TIP3   OH225802   1.680   3.278   5.879
 8642TIP3    H125803   1.597   3.326   5.860
 8642TIP3    H225804   1.698   3.309   5.969
 8643TIP3   OH225805   0.340   2.894   6.141
 8643TIP3    H125806   0.281   2.933   6.074
 8643TIP3    H225807   0.290   2.915   6.223
 8644TIP3   OH225808   0.688   3.746   5.152
 8644TIP3    H125809   0.646   3.727   5.067
 8644TIP3    H225810   0.645   3.831   5.175
 8645TIP3   OH225811   0.449   3.670   5.938
 8645TIP3    H125812   0.385   3.734   5.977
 8645TIP3    H225813   0.491   3.723   5.867
 8646TIP3   OH225814   1.248   3.006   5.502
 8646TIP3    H125815   1.242   2.956   5.584
 8646TIP3    H225816   1.303   3.082   5.528
 8647TIP3   OH225817   0.210   3.012   5.929
 8647TIP3    H125818   0.272   3.085   5.952
 8647TIP3    H225819   0.260   2.970   5.855
 8648TIP3   OH225820   0.277   3.862   6.033
 8648TIP3    H125821   0.253   3.950   5.997
 8648TIP3    H225822   0.199   3.847   6.091
 8649TIP3   OH225823  -0.277   3.576   5.218
 8649TIP3    H125824  -0.363   3.608   5.186
 8649TIP3    H225825  -0.265   3.631   5.298
 8650TIP3   OH225826   1.108   4.070   5.512
 8650TIP3    H125827   1.018   4.062   5.550
 8650TIP3    H225828   1.101   4.156   5.467
 8651TIP3   OH225829   1.400   2.972   5.874
 8651TIP3    H125830   1.313   3.002   5.844
 8651TIP3    H225831   1.459   3.004   5.803
 8652TIP3   OH225832   0.697   2.616   5.853
 8652TIP3    H125833   0.686   2.522   5.874
 8652TIP3    H225834   0.622   2.654   5.903
 8653TIP3   OH225835   0.811   4.119   5.185
 8653TIP3    H125836   0.860   4.036   5.166
 8653TIP3    H225837   0.872   4.184   5.144
 8654TIP3   OH225838   0.953   3.903   5.092
 8654TIP3    H125839   0.919   3.823   5.051
 8654TIP3    H225840   0.989   3.868   5.177
 8655TIP3   OH225841   1.334   3.985   5.856
 8655TIP3    H125842   1.326   3.907   5.796
 8655TIP3    H225843   1.321   4.059   5.793
 8656TIP3   OH225844   0.626   3.376   5.111
 8656TIP3    H125845   0.547   3.430   5.089
 8656TIP3    H225846   0.675   3.376   5.027
 8657TIP3   OH225847   0.586   3.162   4.828
 8657TIP3    H125848   0.652   3.212   4.879
 8657TIP3    H225849   0.645   3.099   4.781
 8658TIP3   OH225850   1.530   3.618   5.698
 8658TIP3    H125851   1.448   3.672   5.704
 8658TIP3    H225852   1.561   3.643   5.609
 8659TIP3   OH225853   0.974   3.459   5.084
 8659TIP3    H125854   0.920   3.484   5.163
 8659TIP3    H225855   1.058   3.434   5.127
 8660TIP3   OH225856   1.210   3.500   5.995
 8660TIP3    H125857   1.208   3.584   6.045
 8660TIP3    H225858   1.123   3.505   5.950
 8661TIP3   OH225859   0.209   3.458   5.500
 8661TIP3    H125860   0.168   3.400   5.433
 8661TIP3    H225861   0.286   3.405   5.529
 8662TIP3   OH225862   0.342   3.874   5.646
 8662TIP3    H125863   0.319   3.825   5.566
 8662TIP3    H225864   0.431   3.838   5.666
 8663TIP3   OH225865   0.348   3.428   5.854
 8663TIP3    H125866   0.380   3.410   5.764
 8663TIP3    H225867   0.389   3.515   5.875
 8664TIP3   OH225868   0.865   4.068   5.631
 8664TIP3    H125869   0.856   4.146   5.688
 8664TIP3    H225870   0.854   3.993   5.694
 8665TIP3   OH225871   0.481   3.987   6.178
 8665TIP3    H125872   0.422   4.050   6.225
 8665TIP3    H225873   0.415   3.933   6.129
 8666TIP3   OH225874   0.815   3.319   4.910
 8666TIP3    H125875   0.874   3.378   4.962
 8666TIP3    H225876   0.842   3.343   4.818
 8667TIP3   OH225877   0.245   3.546   6.273
 8667TIP3    H125878   0.247   3.635   6.315
 8667TIP3    H225879   0.151   3.522   6.287
 8668TIP3   OH225880   0.557   3.998   5.185
 8668TIP3    H125881   0.637   4.051   5.202
 8668TIP3    H225882   0.496   4.063   5.148
 8669TIP3   OH225883   0.279   4.159   6.266
 8669TIP3    H125884   0.242   4.151   6.176
 8669TIP3    H225885   0.208   4.119   6.321
 8670TIP3   OH225886   1.333   2.560   4.958
 8670TIP3    H125887   1.251   2.578   5.008
 8670TIP3    H225888   1.344   2.644   4.908
 8671TIP3   OH225889   0.078   3.298   5.307
 8671TIP3    H125890   0.016   3.341   5.244
 8671TIP3    H225891   0.032   3.215   5.325
 8672TIP3   OH225892   1.130   3.927   4.507
 8672TIP3    H125893   1.138   4.023   4.492
 8672TIP3    H225894   1.222   3.897   4.494
 8673TIP3   OH225895  -0.143   3.699   6.208
 8673TIP3    H125896  -0.192   3.657   6.136
 8673TIP3    H225897  -0.108   3.620   6.253
 8674TIP3   OH225898   1.568   4.328   5.899
 8674TIP3    H125899   1.570   4.232   5.912
 8674TIP3    H225900   1.486   4.352   5.947
 8675TIP3   OH225901   0.677   4.117   6.034
 8675TIP3    H125902   0.677   4.209   6.068
 8675TIP3    H225903   0.607   4.076   6.090
 8676TIP3   OH225904   0.437   4.244   4.988
 8676TIP3    H125905   0.394   4.225   4.902
 8676TIP3    H225906   0.407   4.334   5.008
 8677TIP3   OH225907  -0.083   4.081   5.341
 8677TIP3    H125908  -0.064   4.055   5.434
 8677TIP3    H225909  -0.169   4.040   5.322
 8678TIP3   OH225910   0.640   4.144   4.628
 8678TIP3    H125911   0.700   4.075   4.591
 8678TIP3    H225912   0.676   4.154   4.719
 8679TIP3   OH225913   0.690   4.193   4.899
 8679TIP3    H125914   0.603   4.201   4.943
 8679TIP3    H225915   0.743   4.152   4.969
 8680TIP3   OH225916   1.461   3.458   6.177
 8680TIP3    H125917   1.382   3.472   6.123
 8680TIP3    H225918   1.477   3.363   6.165
 8681TIP3   OH225919   0.066   3.873   6.200
 8681TIP3    H125920   0.111   3.864   6.287
 8681TIP3    H225921  -0.005   3.806   6.208
 8682TIP3   OH225922   0.459   2.691   5.985
 8682TIP3    H125923   0.369   2.660   5.961
 8682TIP3    H225924   0.436   2.774   6.030
 8683TIP3   OH225925   0.995   2.807   6.179
 8683TIP3    H125926   1.061   2.779   6.247
 8683TIP3    H225927   0.909   2.785   6.222
 8684TIP3   OH225928   1.232   3.235   6.098
 8684TIP3    H125929   1.183   3.232   6.183
 8684TIP3    H225930   1.208   3.323   6.062
 8685TIP3   OH225931   0.889   3.366   4.653
 8685TIP3    H125932   0.859   3.339   4.564
 8685TIP3    H225933   0.971   3.414   4.630
 8686TIP3   OH225934   0.597   2.749   4.954
 8686TIP3    H125935   0.572   2.745   5.049
 8686TIP3    H225936   0.581   2.658   4.927
 8687TIP3   OH225937   0.391   3.206   6.004
 8687TIP3    H125938   0.340   3.228   6.084
 8687TIP3    H225939   0.376   3.287   5.950
 8688TIP3   OH225940   0.274   3.092   5.517
 8688TIP3    H125941   0.180   3.068   5.533
 8688TIP3    H225942   0.288   3.050   5.429
 8689TIP3   OH225943   0.764   3.177   5.244
 8689TIP3    H125944   0.711   3.249   5.203
 8689TIP3    H225945   0.820   3.148   5.169
 8690TIP3   OH225946   0.939   3.460   6.333
 8690TIP3    H125947   0.916   3.386   6.394
 8690TIP3    H225948   1.034   3.471   6.353
 8691TIP3   OH225949   0.922   3.207   5.485
 8691TIP3    H125950   0.863   3.237   5.414
 8691TIP3    H225951   0.955   3.125   5.442
 8692TIP3   OH225952   0.212   3.237   6.210
 8692TIP3    H125953   0.230   3.302   6.279
 8692TIP3    H225954   0.200   3.155   6.262
 8693TIP3   OH225955   0.261   2.708   4.924
 8693TIP3    H125956   0.254   2.709   5.022
 8693TIP3    H225957   0.184   2.763   4.899
 8694TIP3   OH225958  -0.200   2.777   5.759
 8694TIP3    H125959  -0.144   2.801   5.836
 8694TIP3    H225960  -0.151   2.701   5.725
 8695TIP3   OH225961  -0.210   2.766   5.328
 8695TIP3    H125962  -0.176   2.786   5.238
 8695TIP3    H225963  -0.260   2.847   5.345
 8696TIP3   OH225964   0.931   3.454   5.907
 8696TIP3    H125965   0.964   3.382   5.849
 8696TIP3    H225966   0.903   3.402   5.985
 8697TIP3   OH225967   0.598   2.917   5.579
 8697TIP3    H125968   0.519   2.914   5.635
 8697TIP3    H225969   0.670   2.913   5.645
 8698TIP3   OH225970   0.032   2.968   5.579
 8698TIP3    H125971  -0.059   2.957   5.547
 8698TIP3    H225972   0.069   2.878   5.567
 8699TIP3   OH225973   0.305   2.965   5.276
 8699TIP3    H125974   0.400   2.982   5.259
 8699TIP3    H225975   0.262   2.991   5.192
 8700TIP3   OH225976   1.094   2.992   5.781
 8700TIP3    H125977   1.059   3.003   5.873
 8700TIP3    H225978   1.029   2.930   5.744
 8701TIP3   OH225979   0.145   2.999   5.053
 8701TIP3    H125980   0.075   2.955   5.002
 8701TIP3    H225981   0.198   3.038   4.980
 8702TIP3   OH225982   1.262   4.681   5.999
 8702TIP3    H125983   1.263   4.702   5.904
 8702TIP3    H225984   1.343   4.726   6.030
 8703TIP3   OH225985   0.229   3.785   6.420
 8703TIP3    H125986   0.307   3.819   6.467
 8703TIP3    H225987   0.161   3.795   6.490
 8704TIP3   OH225988   0.684   3.243   5.676
 8704TIP3    H125989   0.758   3.203   5.627
 8704TIP3    H225990   0.693   3.201   5.764
 8705TIP3   OH225991   0.204   2.734   5.554
 8705TIP3    H125992   0.173   2.654   5.602
 8705TIP3    H225993   0.266   2.696   5.490
 8706TIP3   OH225994   0.662   3.140   5.964
 8706TIP3    H125995   0.572   3.175   5.980
 8706TIP3    H225996   0.719   3.199   6.017
 8707TIP3   OH225997   0.398   3.532   5.060
 8707TIP3    H125998   0.325   3.466   5.050
 8707TIP3    H225999   0.380   3.565   5.152
 8708TIP3   OH226000   1.300   3.768   5.691
 8708TIP3    H126001   1.325   3.817   5.609
 8708TIP3    H226002   1.214   3.726   5.666
 8709TIP3   OH226003   0.855   2.845   4.919
 8709TIP3    H126004   0.758   2.834   4.929
 8709TIP3    H226005   0.870   2.938   4.946
 8710TIP3   OH226006   0.797   3.849   6.058
 8710TIP3    H126007   0.821   3.825   6.148
 8710TIP3    H226008   0.759   3.937   6.068
 8711TIP3   OH226009   0.927   3.090   5.024
 8711TIP3    H126010   1.023   3.095   5.043
 8711TIP3    H226011   0.911   3.171   4.973
 8712TIP3   OH226012   0.092   3.554   5.737
 8712TIP3    H126013   0.133   3.522   5.654
 8712TIP3    H226014   0.124   3.491   5.802
 8713TIP3   OH226015   0.542   3.680   4.880
 8713TIP3    H126016   0.495   3.766   4.887
 8713TIP3    H226017   0.489   3.625   4.942
 8714TIP3   OH226018  -0.007   3.477   6.351
 8714TIP3    H126019   0.003   3.465   6.447
 8714TIP3    H226020  -0.097   3.441   6.334
 8715TIP3   OH226021   0.695   3.587   6.371
 8715TIP3    H126022   0.636   3.528   6.322
 8715TIP3    H226023   0.783   3.553   6.343
 8716TIP3   OH226024   0.957   4.110   5.953
 8716TIP3    H126025   0.861   4.107   5.967
 8716TIP3    H226026   0.985   4.161   6.032
 8717TIP3   OH226027   1.369   3.181   4.862
 8717TIP3    H126028   1.306   3.136   4.801
 8717TIP3    H226029   1.363   3.271   4.822
 8718TIP3   OH226030   1.585   4.037   5.946
 8718TIP3    H126031   1.487   4.033   5.937
 8718TIP3    H226032   1.612   4.008   5.856
 8719TIP3   OH226033   1.064   4.000   4.770
 8719TIP3    H126034   1.045   3.928   4.832
 8719TIP3    H226035   1.081   3.953   4.686
 8720TIP3   OH226036   1.063   3.629   5.610
 8720TIP3    H126037   0.970   3.603   5.623
 8720TIP3    H226038   1.098   3.550   5.565
 8721TIP3   OH226039   0.194   3.856   5.358
 8721TIP3    H126040   0.198   3.937   5.304
 8721TIP3    H226041   0.100   3.847   5.375
 8722TIP3   OH226042  -0.247   3.163   5.070
 8722TIP3    H126043  -0.180   3.234   5.077
 8722TIP3    H226044  -0.315   3.202   5.129
 8723TIP3   OH226045   0.330   3.621   5.305
 8723TIP3    H126046   0.296   3.711   5.324
 8723TIP3    H226047   0.295   3.571   5.381
 8724TIP3   OH226048   0.461   4.203   5.830
 8724TIP3    H126049   0.506   4.273   5.779
 8724TIP3    H226050   0.535   4.165   5.879
 8725TIP3   OH226051   0.143   4.099   5.201
 8725TIP3    H126052   0.057   4.101   5.249
 8725TIP3    H226053   0.166   4.194   5.205
 8726TIP3   OH226054   0.850   3.835   5.789
 8726TIP3    H126055   0.841   3.832   5.887
 8726TIP3    H226056   0.930   3.782   5.776
 8727TIP3   OH226057   0.822   3.725   4.674
 8727TIP3    H126058   0.876   3.701   4.752
 8727TIP3    H226059   0.734   3.701   4.706
 8728TIP3   OH226060   1.096   4.371   5.843
 8728TIP3    H126061   1.018   4.312   5.834
 8728TIP3    H226062   1.081   4.433   5.769
 8729TIP3   OH226063   1.163   4.202   4.492
 8729TIP3    H126064   1.202   4.274   4.441
 8729TIP3    H226065   1.082   4.248   4.525
 8730TIP3   OH226066   0.190   2.978   6.363
 8730TIP3    H126067   0.097   2.987   6.389
 8730TIP3    H226068   0.223   2.916   6.430
 8731TIP3   OH226069   0.983   3.661   4.890
 8731TIP3    H126070   0.973   3.594   4.961
 8731TIP3    H226071   1.080   3.659   4.877
 8732TIP3   OH226072  -0.069   4.086   5.983
 8732TIP3    H126073  -0.041   3.994   5.990
 8732TIP3    H226074  -0.064   4.114   6.075
 8733TIP3   OH226075   0.188   3.708   4.672
 8733TIP3    H126076   0.205   3.617   4.643
 8733TIP3    H226077   0.172   3.696   4.767
 8734TIP3   OH226078   0.138   3.712   4.945
 8734TIP3    H126079   0.210   3.686   5.005
 8734TIP3    H226080   0.141   3.810   4.951
 8735TIP3   OH226081  -0.106   3.392   5.126
 8735TIP3    H126082  -0.172   3.447   5.175
 8735TIP3    H226083  -0.085   3.457   5.057
 8736TIP3   OH226084   1.018   3.043   6.040
 8736TIP3    H126085   1.098   3.080   6.080
 8736TIP3    H226086   1.004   2.962   6.094
 8737TIP3   OH226087   0.893   2.799   5.204
 8737TIP3    H126088   0.888   2.821   5.109
 8737TIP3    H226089   0.937   2.878   5.241
 8738TIP3   OH226090   0.400   3.909   4.893
 8738TIP3    H126091   0.313   3.938   4.928
 8738TIP3    H226092   0.418   3.982   4.831
 8739TIP3   OH226093   0.585   2.973   5.305
 8739TIP3    H126094   0.652   3.043   5.288
 8739TIP3    H226095   0.593   2.964   5.403
 8740TIP3   OH226096   0.859   3.293   6.115
 8740TIP3    H126097   0.878   3.346   6.195
 8740TIP3    H226098   0.913   3.213   6.129
 8741TIP3   OH226099   0.734   2.701   5.409
 8741TIP3    H126100   0.735   2.773   5.474
 8741TIP3    H226101   0.793   2.738   5.339
 8742TIP3   OH226102   0.141   3.983   4.954
 8742TIP3    H126103   0.111   4.055   4.894
 8742TIP3    H226104   0.137   4.028   5.042
 8743TIP3   OH226105   0.247   2.699   5.198
 8743TIP3    H126106   0.241   2.789   5.236
 8743TIP3    H226107   0.343   2.683   5.211
 8744TIP3   OH226108   1.499   3.192   6.097
 8744TIP3    H126109   1.401   3.190   6.103
 8744TIP3    H226110   1.512   3.155   6.008
 8745TIP3   OH226111   1.149   3.388   5.484
 8745TIP3    H126112   1.074   3.327   5.497
 8745TIP3    H226113   1.222   3.341   5.531
 8746TIP3   OH226114  -0.127   3.625   4.944
 8746TIP3    H126115  -0.053   3.687   4.959
 8746TIP3    H226116  -0.086   3.567   4.876
 8747TIP3   OH226117  -0.195   2.891   5.086
 8747TIP3    H126118  -0.195   2.989   5.089
 8747TIP3    H226119  -0.271   2.872   5.030
 8748TIP3   OH226120   1.117   4.343   5.433
 8748TIP3    H126121   1.075   4.390   5.358
 8748TIP3    H226122   1.211   4.363   5.414
 8749TIP3   OH226123   0.195   2.607   5.963
 8749TIP3    H126124   0.163   2.576   5.876
 8749TIP3    H226125   0.181   2.529   6.019
 8750TIP3   OH226126  -0.245   3.798   5.376
 8750TIP3    H126127  -0.331   3.842   5.367
 8750TIP3    H226128  -0.203   3.827   5.294
 8751TIP3   OH226129   0.369   4.346   6.453
 8751TIP3    H126130   0.461   4.320   6.466
 8751TIP3    H226131   0.343   4.283   6.383
 8752TIP3   OH226132   0.353   3.912   4.586
 8752TIP3    H126133   0.297   3.840   4.623
 8752TIP3    H226134   0.428   3.861   4.552
 8753TIP3   OH226135   1.008   4.243   6.191
 8753TIP3    H126136   1.001   4.172   6.259
 8753TIP3    H226137   1.088   4.292   6.220
 8754TIP3   OH226138   0.788   3.953   4.496
 8754TIP3    H126139   0.836   3.892   4.554
 8754TIP3    H226140   0.844   3.954   4.415
 8755TIP3   OH226141   0.038   3.760   6.620
 8755TIP3    H126142   0.072   3.668   6.616
 8755TIP3    H226143  -0.057   3.742   6.603
 8756TIP3   OH226144   0.001   3.427   4.806
 8756TIP3    H126145   0.057   3.395   4.878
 8756TIP3    H226146   0.067   3.433   4.734
 8757TIP3   OH226147   0.628   3.861   6.385
 8757TIP3    H126148   0.587   3.876   6.298
 8757TIP3    H226149   0.659   3.769   6.379
 8758TIP3   OH226150   0.503   3.625   4.612
 8758TIP3    H126151   0.508   3.639   4.708
 8758TIP3    H226152   0.503   3.527   4.608
 8759TIP3   OH226153   1.120   3.870   5.992
 8759TIP3    H126154   1.195   3.914   5.948
 8759TIP3    H226155   1.050   3.936   5.978
 8760TIP3   OH226156   0.128   3.493   6.610
 8760TIP3    H126157   0.209   3.453   6.574
 8760TIP3    H226158   0.160   3.529   6.695
 8761TIP3   OH226159   0.205   3.332   5.027
 8761TIP3    H126160   0.179   3.293   5.112
 8761TIP3    H226161   0.242   3.255   4.979
 8762TIP3   OH226162   0.478   3.398   6.258
 8762TIP3    H126163   0.399   3.456   6.257
 8762TIP3    H226164   0.526   3.430   6.178
 8763TIP3   OH226165   0.306   3.123   4.869
 8763TIP3    H126166   0.280   3.130   4.775
 8763TIP3    H226167   0.403   3.130   4.862
 8764TIP3   OH226168   0.991   3.799   6.391
 8764TIP3    H126169   1.071   3.775   6.342
 8764TIP3    H226170   0.989   3.730   6.460
 8765TIP3   OH226171   1.127   3.457   4.532
 8765TIP3    H126172   1.108   3.411   4.448
 8765TIP3    H226173   1.096   3.547   4.507
 8766TIP3   OH226174   0.595   3.185   6.386
 8766TIP3    H126175   0.597   3.104   6.330
 8766TIP3    H226176   0.553   3.250   6.326
 8767TIP3   OH226177   0.596   2.976   6.194
 8767TIP3    H126178   0.627   3.012   6.108
 8767TIP3    H226179   0.504   2.950   6.173
 8768TIP3   OH226180   0.629   3.507   6.062
 8768TIP3    H126181   0.712   3.514   6.012
 8768TIP3    H226182   0.572   3.573   6.018
 8769TIP3   OH226183   1.211   3.474   6.446
 8769TIP3    H126184   1.257   3.390   6.451
 8769TIP3    H226185   1.279   3.532   6.409
 8770TIP3   OH226186   1.251   3.726   6.180
 8770TIP3    H126187   1.193   3.780   6.120
 8770TIP3    H226188   1.338   3.746   6.140
 8771TIP3   OH226189   0.471   3.298   6.613
 8771TIP3    H126190   0.406   3.226   6.625
 8771TIP3    H226191   0.510   3.275   6.527
 8772TIP3   OH226192   0.736   2.734   6.230
 8772TIP3    H126193   0.685   2.818   6.232
 8772TIP3    H226194   0.667   2.668   6.251
 8773TIP3   OH226195   0.857   3.243   6.472
 8773TIP3    H126196   0.850   3.222   6.567
 8773TIP3    H226197   0.767   3.214   6.444
 8774TIP3   OH226198   1.098   3.191   6.328
 8774TIP3    H126199   1.022   3.188   6.389
 8774TIP3    H226200   1.171   3.157   6.385
 8775TIP3   OH226201   1.330   3.130   6.480
 8775TIP3    H126202   1.339   3.034   6.497
 8775TIP3    H226203   1.323   3.168   6.570
 8776TIP3   OH226204   0.313   3.076   6.668
 8776TIP3    H126205   0.327   2.986   6.632
 8776TIP3    H226206   0.354   3.065   6.756
 8777TIP3   OH226207   0.894   2.959   6.645
 8777TIP3    H126208   0.848   2.874   6.636
 8777TIP3    H226209   0.817   3.018   6.661
 8778TIP3   OH226210   0.112   4.190   4.773
 8778TIP3    H126211   0.208   4.183   4.755
 8778TIP3    H226212   0.084   4.237   4.692
 8779TIP3   OH226213  -0.396   3.589   4.927
 8779TIP3    H126214  -0.302   3.600   4.956
 8779TIP3    H226215  -0.401   3.491   4.920
 8780TIP3   OH226216   1.366   4.443   5.388
 8780TIP3    H126217   1.400   4.469   5.476
 8780TIP3    H226218   1.437   4.472   5.329
 8781TIP3   OH226219   1.399   4.455   5.672
 8781TIP3    H126220   1.358   4.366   5.669
 8781TIP3    H226221   1.479   4.434   5.723
 8782TIP3   OH226222   1.445   4.131   6.245
 8782TIP3    H126223   1.373   4.140   6.309
 8782TIP3    H226224   1.487   4.219   6.249
 8783TIP3   OH226225   1.262   3.645   4.865
 8783TIP3    H126226   1.331   3.708   4.836
 8783TIP3    H226227   1.305   3.605   4.944
 8784TIP3   OH226228   1.389   3.511   5.067
 8784TIP3    H126229   1.325   3.470   5.128
 8784TIP3    H226230   1.456   3.548   5.128
 8785TIP3   OH226231   1.440   3.901   5.497
 8785TIP3    H126232   1.497   3.838   5.448
 8785TIP3    H226233   1.437   3.977   5.436
 8786TIP3   OH226234   1.276   4.203   5.695
 8786TIP3    H126235   1.204   4.243   5.747
 8786TIP3    H226236   1.226   4.154   5.626
 8787TIP3   OH226237   1.327   3.419   4.716
 8787TIP3    H126238   1.255   3.422   4.648
 8787TIP3    H226239   1.301   3.495   4.771
 8788TIP3   OH226240   1.199   3.095   4.669
 8788TIP3    H126241   1.156   3.129   4.590
 8788TIP3    H226242   1.174   3.000   4.664
 8789TIP3   OH226243   1.203   3.367   5.215
 8789TIP3    H126244   1.213   3.271   5.211
 8789TIP3    H226245   1.190   3.382   5.312
 8790TIP3   OH226246  -0.168   3.482   5.938
 8790TIP3    H126247  -0.170   3.430   5.856
 8790TIP3    H226248  -0.078   3.462   5.970
 8791TIP3   OH226249   1.493   3.793   6.071
 8791TIP3    H126250   1.566   3.727   6.063
 8791TIP3    H226251   1.522   3.863   6.011
 8792TIP3   OH226252   1.676   3.597   6.091
 8792TIP3    H126253   1.603   3.546   6.131
 8792TIP3    H226254   1.751   3.535   6.104
 8793TIP3   OH226255   1.140   2.831   4.664
 8793TIP3    H126256   1.222   2.798   4.708
 8793TIP3    H226257   1.075   2.762   4.684
 8794TIP3   OH226258   1.199   3.082   5.110
 8794TIP3    H126259   1.239   2.994   5.126
 8794TIP3    H226260   1.259   3.115   5.041
 8795TIP3   OH226261   1.362   3.259   5.604
 8795TIP3    H126262   1.449   3.285   5.564
 8795TIP3    H226263   1.376   3.295   5.694
 8796TIP3   OH226264   1.430   3.401   5.838
 8796TIP3    H126265   1.352   3.436   5.885
 8796TIP3    H226266   1.463   3.481   5.791
 8797TIP3   OH226267   0.039   3.104   6.644
 8797TIP3    H126268   0.132   3.127   6.626
 8797TIP3    H226269   0.051   3.037   6.710
 8798TIP3   OH226270   1.885   2.993   6.394
 8798TIP3    H126271   1.942   2.927   6.350
 8798TIP3    H226272   1.854   3.047   6.319
 8799TIP3   OH226273   1.308   2.834   5.148
 8799TIP3    H126274   1.357   2.817   5.231
 8799TIP3    H226275   1.249   2.756   5.145
 8800TIP3   OH226276   0.006   2.810   5.948
 8800TIP3    H126277   0.073   2.742   5.967
 8800TIP3    H226278   0.057   2.891   5.961
 8801TIP3   OH226279  -0.155   3.103   6.062
 8801TIP3    H126280  -0.130   3.092   5.969
 8801TIP3    H226281  -0.188   3.193   6.064
 8802TIP3   OH226282   1.753   3.131   6.202
 8802TIP3    H126283   1.666   3.172   6.220
 8802TIP3    H226284   1.726   3.061   6.140
 8803TIP3   OH226285   1.390   2.769   4.777
 8803TIP3    H126286   1.430   2.695   4.726
 8803TIP3    H226287   1.460   2.838   4.771
 8804TIP3   OH226288  -0.213   2.579   5.519
 8804TIP3    H126289  -0.289   2.615   5.565
 8804TIP3    H226290  -0.200   2.647   5.449
 8805TIP3   OH226291   0.953   4.303   5.046
 8805TIP3    H126292   1.004   4.286   4.964
 8805TIP3    H226293   1.010   4.365   5.093
 8806TIP3   OH226294   0.012   2.686   6.372
 8806TIP3    H126295  -0.053   2.674   6.442
 8806TIP3    H226296  -0.042   2.722   6.300
 8807TIP3   OH226297   0.087   4.068   6.437
 8807TIP3    H126298   0.002   4.113   6.423
 8807TIP3    H226299   0.087   4.060   6.534
 8808TIP3   OH226300   0.241   4.132   5.983
 8808TIP3    H126301   0.184   4.202   5.945
 8808TIP3    H226302   0.324   4.152   5.936
 8809TIP3   OH226303   0.679   4.383   6.118
 8809TIP3    H126304   0.722   4.382   6.207
 8809TIP3    H226305   0.747   4.432   6.066
 8810TIP3   OH226306   0.858   4.533   5.975
 8810TIP3    H126307   0.929   4.481   5.934
 8810TIP3    H226308   0.910   4.590   6.036
 8811TIP3   OH226309   1.652   2.895   6.077
 8811TIP3    H126310   1.561   2.890   6.043
 8811TIP3    H226311   1.681   2.802   6.064
 8812TIP3   OH226312   0.143   4.375   5.869
 8812TIP3    H126313   0.055   4.377   5.909
 8812TIP3    H226314   0.125   4.407   5.778
 8813TIP3   OH226315   0.573   4.403   5.659
 8813TIP3    H126316   0.507   4.425   5.591
 8813TIP3    H226317   0.587   4.489   5.703
 8814TIP3   OH226318   0.841   4.341   5.711
 8814TIP3    H126319   0.748   4.358   5.689
 8814TIP3    H226320   0.886   4.416   5.668
 8815TIP3   OH226321   1.046   4.533   5.625
 8815TIP3    H126322   1.034   4.617   5.577
 8815TIP3    H226323   1.075   4.472   5.553
 8816TIP3   OH226324  -0.129   4.211   5.738
 8816TIP3    H126325  -0.107   4.170   5.826
 8816TIP3    H226326  -0.076   4.152   5.681
 8817TIP3   OH226327   0.022   4.041   5.592
 8817TIP3    H126328   0.035   3.961   5.649
 8817TIP3    H226329   0.113   4.077   5.591
 8818TIP3   OH226330   0.285   4.156   5.609
 8818TIP3    H126331   0.315   4.064   5.594
 8818TIP3    H226332   0.330   4.173   5.693
 8819TIP3   OH226333   0.852   2.807   5.686
 8819TIP3    H126334   0.813   2.740   5.744
 8819TIP3    H226335   0.930   2.761   5.649
 8820TIP3   OH226336   1.381   2.693   5.604
 8820TIP3    H126337   1.417   2.744   5.527
 8820TIP3    H226338   1.285   2.708   5.594
 8821TIP3   OH226339   1.475   2.791   5.365
 8821TIP3    H126340   1.548   2.739   5.325
 8821TIP3    H226341   1.509   2.883   5.350
 8822TIP3   OH226342   0.105   2.519   5.711
 8822TIP3    H126343   0.014   2.482   5.709
 8822TIP3    H226344   0.157   2.435   5.708
 8823TIP3   OH226345  -0.094   2.382   5.366
 8823TIP3    H126346  -0.081   2.441   5.290
 8823TIP3    H226347  -0.134   2.445   5.430
 8824TIP3   OH226348   0.545   2.554   5.594
 8824TIP3    H126349   0.606   2.599   5.533
 8824TIP3    H226350   0.573   2.589   5.680
 8825TIP3   OH226351   1.096   2.696   5.575
 8825TIP3    H126352   1.098   2.656   5.486
 8825TIP3    H226353   1.082   2.616   5.631
 8826TIP3   OH226354   1.126   2.621   5.134
 8826TIP3    H126355   1.038   2.660   5.145
 8826TIP3    H226356   1.113   2.537   5.184
 8827TIP3   OH226357   0.009   2.552   5.120
 8827TIP3    H126358   0.059   2.489   5.065
 8827TIP3    H226359   0.080   2.605   5.160
 8828TIP3   OH226360   0.525   2.720   5.223
 8828TIP3    H126361   0.587   2.679   5.286
 8828TIP3    H226362   0.542   2.814   5.246
 8829TIP3   OH226363   0.381   4.149   4.721
 8829TIP3    H126364   0.470   4.171   4.686
 8829TIP3    H226365   0.359   4.074   4.662
 8830TIP3   OH226366   1.098   4.266   4.815
 8830TIP3    H126367   1.090   4.168   4.802
 8830TIP3    H226368   1.056   4.298   4.733
 8831TIP3   OH226369   0.335   2.798   6.608
 8831TIP3    H126370   0.301   2.727   6.667
 8831TIP3    H226371   0.431   2.782   6.617
 8832TIP3   OH226372  -0.298   3.991   4.821
 8832TIP3    H126373  -0.276   4.084   4.837
 8832TIP3    H226374  -0.214   3.954   4.785
 8833TIP3   OH226375   1.388   2.859   6.510
 8833TIP3    H126376   1.407   2.828   6.601
 8833TIP3    H226377   1.477   2.853   6.468
 8834TIP3   OH226378   1.324   4.411   6.006
 8834TIP3    H126379   1.246   4.380   5.955
 8834TIP3    H226380   1.307   4.507   6.006
 8835TIP3   OH226381   2.594   3.782   4.767
 8835TIP3    H126382   2.567   3.874   4.750
 8835TIP3    H226383   2.515   3.734   4.735
 8836TIP3   OH226384   2.593   3.780   5.147
 8836TIP3    H126385   2.622   3.752   5.235
 8836TIP3    H226386   2.548   3.701   5.114
 8837TIP3   OH226387   1.891   3.680   5.515
 8837TIP3    H126388   1.924   3.612   5.578
 8837TIP3    H226389   1.966   3.740   5.511
 8838TIP3   OH226390   2.836   4.083   4.827
 8838TIP3    H126391   2.820   4.021   4.900
 8838TIP3    H226392   2.862   4.164   4.877
 8839TIP3   OH226393   1.854   4.085   5.234
 8839TIP3    H126394   1.852   3.987   5.239
 8839TIP3    H226395   1.947   4.102   5.256
 8840TIP3   OH226396   1.570   3.291   5.024
 8840TIP3    H126397   1.524   3.375   5.039
 8840TIP3    H226398   1.497   3.237   4.988
 8841TIP3   OH226399   1.627   3.577   5.194
 8841TIP3    H126400   1.677   3.501   5.232
 8841TIP3    H226401   1.692   3.613   5.131
 8842TIP3   OH226402   2.478   4.548   4.841
 8842TIP3    H126403   2.530   4.472   4.809
 8842TIP3    H226404   2.478   4.535   4.937
 8843TIP3   OH226405   2.390   4.006   5.195
 8843TIP3    H126406   2.431   3.931   5.149
 8843TIP3    H226407   2.471   4.055   5.219
 8844TIP3   OH226408   3.404   3.330   5.195
 8844TIP3    H126409   3.432   3.411   5.241
 8844TIP3    H226410   3.420   3.354   5.102
 8845TIP3   OH226411   2.804   3.512   5.231
 8845TIP3    H126412   2.844   3.425   5.251
 8845TIP3    H226413   2.771   3.496   5.140
 8846TIP3   OH226414   2.140   3.169   5.196
 8846TIP3    H126415   2.120   3.242   5.133
 8846TIP3    H226416   2.092   3.095   5.151
 8847TIP3   OH226417   2.834   3.260   4.820
 8847TIP3    H126418   2.907   3.243   4.884
 8847TIP3    H226419   2.884   3.296   4.745
 8848TIP3   OH226420   1.774   3.372   5.302
 8848TIP3    H126421   1.857   3.353   5.350
 8848TIP3    H226422   1.788   3.316   5.222
 8849TIP3   OH226423   2.216   3.570   5.093
 8849TIP3    H126424   2.309   3.544   5.108
 8849TIP3    H226425   2.176   3.485   5.062
 8850TIP3   OH226426   3.476   3.537   5.364
 8850TIP3    H126427   3.393   3.584   5.346
 8850TIP3    H226428   3.489   3.561   5.457
 8851TIP3   OH226429   2.137   3.153   5.630
 8851TIP3    H126430   2.077   3.190   5.562
 8851TIP3    H226431   2.085   3.172   5.711
 8852TIP3   OH226432   2.491   4.007   4.635
 8852TIP3    H126433   2.440   3.983   4.556
 8852TIP3    H226434   2.446   4.090   4.661
 8853TIP3   OH226435   2.243   3.928   5.427
 8853TIP3    H126436   2.178   3.993   5.463
 8853TIP3    H226437   2.283   3.982   5.355
 8854TIP3   OH226438   3.049   3.262   4.988
 8854TIP3    H126439   3.031   3.214   5.070
 8854TIP3    H226440   3.098   3.340   5.019
 8855TIP3   OH226441   2.007   3.267   5.414
 8855TIP3    H126442   2.069   3.341   5.438
 8855TIP3    H226443   2.057   3.227   5.339
 8856TIP3   OH226444   2.065   4.123   5.501
 8856TIP3    H126445   2.101   4.214   5.511
 8856TIP3    H226446   1.991   4.126   5.565
 8857TIP3   OH226447   1.467   3.812   4.759
 8857TIP3    H126448   1.427   3.840   4.675
 8857TIP3    H226449   1.498   3.896   4.797
 8858TIP3   OH226450   2.900   4.308   4.976
 8858TIP3    H126451   2.817   4.309   5.029
 8858TIP3    H226452   2.911   4.404   4.960
 8859TIP3   OH226453   3.196   3.230   5.361
 8859TIP3    H126454   3.108   3.258   5.332
 8859TIP3    H226455   3.254   3.261   5.289
 8860TIP3   OH226456   2.495   2.873   5.341
 8860TIP3    H126457   2.484   2.777   5.357
 8860TIP3    H226458   2.417   2.908   5.389
 8861TIP3   OH226459   2.610   4.371   4.670
 8861TIP3    H126460   2.663   4.291   4.650
 8861TIP3    H226461   2.669   4.440   4.632
 8862TIP3   OH226462   2.756   4.156   4.575
 8862TIP3    H126463   2.700   4.081   4.550
 8862TIP3    H226464   2.791   4.125   4.662
 8863TIP3   OH226465   2.423   3.634   4.599
 8863TIP3    H126466   2.342   3.685   4.577
 8863TIP3    H226467   2.467   3.627   4.512
 8864TIP3   OH226468   2.380   3.423   4.318
 8864TIP3    H126469   2.456   3.466   4.361
 8864TIP3    H226470   2.426   3.352   4.270
 8865TIP3   OH226471   3.331   3.876   5.186
 8865TIP3    H126472   3.246   3.925   5.192
 8865TIP3    H226473   3.359   3.902   5.096
 8866TIP3   OH226474   2.772   3.718   4.572
 8866TIP3    H126475   2.715   3.743   4.648
 8866TIP3    H226476   2.855   3.692   4.618
 8867TIP3   OH226477   3.007   3.756   5.482
 8867TIP3    H126478   3.003   3.838   5.535
 8867TIP3    H226479   2.920   3.761   5.437
 8868TIP3   OH226480   2.004   3.715   4.988
 8868TIP3    H126481   1.963   3.657   4.920
 8868TIP3    H226482   2.081   3.662   5.016
 8869TIP3   OH226483   2.136   4.134   5.131
 8869TIP3    H126484   2.114   4.081   5.053
 8869TIP3    H226485   2.224   4.099   5.156
 8870TIP3   OH226486   2.140   3.687   5.341
 8870TIP3    H126487   2.174   3.668   5.251
 8870TIP3    H226488   2.181   3.774   5.363
 8871TIP3   OH226489   2.673   4.317   5.119
 8871TIP3    H126490   2.657   4.409   5.150
 8871TIP3    H226491   2.641   4.262   5.191
 8872TIP3   OH226492   2.614   3.574   4.398
 8872TIP3    H126493   2.671   3.635   4.450
 8872TIP3    H226494   2.640   3.596   4.306
 8873TIP3   OH226495   2.031   3.796   5.768
 8873TIP3    H126496   2.037   3.885   5.809
 8873TIP3    H226497   1.935   3.781   5.775
 8874TIP3   OH226498   2.355   4.254   4.669
 8874TIP3    H126499   2.433   4.308   4.692
 8874TIP3    H226500   2.292   4.320   4.638
 8875TIP3   OH226501   3.126   2.814   4.445
 8875TIP3    H126502   3.045   2.832   4.497
 8875TIP3    H226503   3.138   2.899   4.398
 8876TIP3   OH226504   1.870   3.557   4.791
 8876TIP3    H126505   1.804   3.602   4.735
 8876TIP3    H226506   1.826   3.473   4.809
 8877TIP3   OH226507   2.924   4.183   3.991
 8877TIP3    H126508   2.931   4.280   3.979
 8877TIP3    H226509   3.018   4.156   3.981
 8878TIP3   OH226510   1.647   3.940   5.702
 8878TIP3    H126511   1.587   3.916   5.629
 8878TIP3    H226512   1.687   3.854   5.727
 8879TIP3   OH226513   1.507   4.134   5.334
 8879TIP3    H126514   1.602   4.123   5.320
 8879TIP3    H226515   1.506   4.212   5.392
 8880TIP3   OH226516   2.234   4.501   4.473
 8880TIP3    H126517   2.188   4.484   4.388
 8880TIP3    H226518   2.202   4.590   4.497
 8881TIP3   OH226519   1.672   4.350   4.858
 8881TIP3    H126520   1.723   4.342   4.942
 8881TIP3    H226521   1.616   4.271   4.865
 8882TIP3   OH226522   2.436   4.402   4.115
 8882TIP3    H126523   2.496   4.332   4.079
 8882TIP3    H226524   2.470   4.411   4.207
 8883TIP3   OH226525   2.486   4.448   4.386
 8883TIP3    H126526   2.398   4.458   4.429
 8883TIP3    H226527   2.538   4.412   4.460
 8884TIP3   OH226528   3.260   3.717   5.661
 8884TIP3    H126529   3.176   3.730   5.613
 8884TIP3    H226530   3.273   3.621   5.651
 8885TIP3   OH226531   1.854   4.124   5.684
 8885TIP3    H126532   1.907   4.116   5.765
 8885TIP3    H226533   1.783   4.058   5.698
 8886TIP3   OH226534   2.255   2.947   5.472
 8886TIP3    H126535   2.166   2.917   5.446
 8886TIP3    H226536   2.231   3.030   5.517
 8887TIP3   OH226537   2.788   3.064   5.666
 8887TIP3    H126538   2.855   3.036   5.731
 8887TIP3    H226539   2.703   3.043   5.712
 8888TIP3   OH226540   3.031   3.494   5.586
 8888TIP3    H126541   2.979   3.488   5.670
 8888TIP3    H226542   3.003   3.580   5.550
 8889TIP3   OH226543   2.694   3.618   4.142
 8889TIP3    H126544   2.655   3.596   4.055
 8889TIP3    H226545   2.760   3.685   4.117
 8890TIP3   OH226546   2.409   2.992   4.444
 8890TIP3    H126547   2.371   2.992   4.534
 8890TIP3    H226548   2.362   2.914   4.407
 8891TIP3   OH226549   2.185   3.463   5.489
 8891TIP3    H126550   2.138   3.486   5.572
 8891TIP3    H226551   2.170   3.545   5.436
 8892TIP3   OH226552   2.071   3.349   5.005
 8892TIP3    H126553   1.978   3.323   5.022
 8892TIP3    H226554   2.084   3.309   4.916
 8893TIP3   OH226555   2.561   3.436   4.733
 8893TIP3    H126556   2.508   3.507   4.691
 8893TIP3    H226557   2.614   3.404   4.656
 8894TIP3   OH226558   2.740   3.708   5.809
 8894TIP3    H126559   2.714   3.642   5.877
 8894TIP3    H226560   2.828   3.734   5.840
 8895TIP3   OH226561   2.718   3.465   4.972
 8895TIP3    H126562   2.658   3.495   4.901
 8895TIP3    H226563   2.750   3.382   4.930
 8896TIP3   OH226564   2.003   3.492   5.699
 8896TIP3    H126565   2.036   3.558   5.762
 8896TIP3    H226566   1.995   3.412   5.754
 8897TIP3   OH226567   2.040   2.940   4.413
 8897TIP3    H126568   2.038   2.957   4.510
 8897TIP3    H226569   2.016   3.025   4.376
 8898TIP3   OH226570   1.598   3.015   5.280
 8898TIP3    H126571   1.674   3.046   5.333
 8898TIP3    H226572   1.638   2.982   5.199
 8899TIP3   OH226573   1.571   2.995   4.794
 8899TIP3    H126574   1.631   3.029   4.725
 8899TIP3    H226575   1.515   3.073   4.813
 8900TIP3   OH226576   2.729   3.712   5.395
 8900TIP3    H126577   2.762   3.639   5.338
 8900TIP3    H226578   2.700   3.660   5.473
 8901TIP3   OH226579   2.398   3.174   5.067
 8901TIP3    H126580   2.315   3.170   5.118
 8901TIP3    H226581   2.465   3.171   5.137
 8902TIP3   OH226582   1.833   3.227   5.074
 8902TIP3    H126583   1.738   3.233   5.048
 8902TIP3    H226584   1.856   3.135   5.052
 8903TIP3   OH226585   2.104   3.226   4.764
 8903TIP3    H126586   2.199   3.238   4.744
 8903TIP3    H226587   2.060   3.247   4.678
 8904TIP3   OH226588   2.890   3.247   5.265
 8904TIP3    H126589   2.857   3.259   5.357
 8904TIP3    H226590   2.823   3.185   5.231
 8905TIP3   OH226591   1.947   3.254   4.543
 8905TIP3    H126592   1.860   3.226   4.510
 8905TIP3    H226593   1.989   3.296   4.465
 8906TIP3   OH226594   3.068   5.018   5.487
 8906TIP3    H126595   3.071   4.948   5.420
 8906TIP3    H226596   3.102   4.973   5.565
 8907TIP3   OH226597   2.013   4.040   5.909
 8907TIP3    H126598   2.093   4.075   5.953
 8907TIP3    H226599   1.948   4.051   5.982
 8908TIP3   OH226600   2.481   3.500   5.164
 8908TIP3    H126601   2.552   3.458   5.114
 8908TIP3    H226602   2.490   3.457   5.252
 8909TIP3   OH226603   2.004   2.988   5.040
 8909TIP3    H126604   1.971   2.908   5.087
 8909TIP3    H226605   2.057   2.950   4.969
 8910TIP3   OH226606   2.457   3.396   5.454
 8910TIP3    H126607   2.368   3.433   5.468
 8910TIP3    H226608   2.515   3.456   5.505
 8911TIP3   OH226609   2.194   3.788   4.547
 8911TIP3    H126610   2.120   3.724   4.537
 8911TIP3    H226611   2.177   3.822   4.639
 8912TIP3   OH226612   3.098   4.015   5.185
 8912TIP3    H126613   3.120   4.078   5.113
 8912TIP3    H226614   3.010   3.983   5.159
 8913TIP3   OH226615   2.657   3.096   4.411
 8913TIP3    H126616   2.561   3.076   4.419
 8913TIP3    H226617   2.661   3.193   4.427
 8914TIP3   OH226618   2.721   3.347   4.516
 8914TIP3    H126619   2.817   3.356   4.531
 8914TIP3    H226620   2.699   3.425   4.461
 8915TIP3   OH226621   1.881   3.802   5.225
 8915TIP3    H126622   1.923   3.779   5.140
 8915TIP3    H226623   1.929   3.746   5.287
 8916TIP3   OH226624   2.339   3.936   4.367
 8916TIP3    H126625   2.292   4.023   4.374
 8916TIP3    H226626   2.285   3.881   4.429
 8917TIP3   OH226627   1.765   3.730   5.839
 8917TIP3    H126628   1.790   3.718   5.932
 8917TIP3    H226629   1.698   3.661   5.826
 8918TIP3   OH226630   2.488   3.821   5.874
 8918TIP3    H126631   2.433   3.789   5.802
 8918TIP3    H226632   2.577   3.820   5.832
 8919TIP3   OH226633   3.167   3.431   4.345
 8919TIP3    H126634   3.105   3.387   4.283
 8919TIP3    H226635   3.159   3.523   4.312
 8920TIP3   OH226636   2.866   4.256   4.258
 8920TIP3    H126637   2.836   4.189   4.322
 8920TIP3    H226638   2.875   4.206   4.175
 8921TIP3   OH226639   2.855   3.885   5.100
 8921TIP3    H126640   2.762   3.857   5.110
 8921TIP3    H226641   2.893   3.809   5.053
 8922TIP3   OH226642   1.986   4.108   4.841
 8922TIP3    H126643   1.989   4.193   4.794
 8922TIP3    H226644   1.892   4.101   4.862
 8923TIP3   OH226645   1.551   3.417   4.557
 8923TIP3    H126646   1.596   3.502   4.575
 8923TIP3    H226647   1.473   3.425   4.617
 8924TIP3   OH226648   2.128   3.877   4.793
 8924TIP3    H126649   2.091   3.967   4.809
 8924TIP3    H226650   2.091   3.828   4.869
 8925TIP3   OH226651   1.906   4.354   4.700
 8925TIP3    H126652   1.821   4.361   4.747
 8925TIP3    H226653   1.938   4.446   4.706
 8926TIP3   OH226654   2.645   4.087   5.285
 8926TIP3    H126655   2.661   4.079   5.379
 8926TIP3    H226656   2.721   4.041   5.247
 8927TIP3   OH226657   2.618   3.979   4.158
 8927TIP3    H126658   2.670   3.956   4.238
 8927TIP3    H226659   2.528   3.959   4.190
 8928TIP3   OH226660   2.959   4.458   3.980
 8928TIP3    H126661   2.996   4.529   3.925
 8928TIP3    H226662   2.879   4.504   4.013
 8929TIP3   OH226663   1.979   3.235   5.847
 8929TIP3    H126664   1.883   3.240   5.860
 8929TIP3    H226665   2.006   3.174   5.918
 8930TIP3   OH226666   2.780   3.911   4.370
 8930TIP3    H126667   2.768   3.852   4.447
 8930TIP3    H226668   2.877   3.911   4.362
 8931TIP3   OH226669   1.695   4.319   5.483
 8931TIP3    H126670   1.748   4.244   5.514
 8931TIP3    H226671   1.737   4.391   5.532
 8932TIP3   OH226672   1.985   3.965   4.159
 8932TIP3    H126673   1.999   3.873   4.130
 8932TIP3    H226674   1.966   3.953   4.254
 8933TIP3   OH226675   1.931   3.969   4.432
 8933TIP3    H126676   2.002   3.942   4.492
 8933TIP3    H226677   1.935   4.067   4.439
 8934TIP3   OH226678   1.666   3.662   4.635
 8934TIP3    H126679   1.601   3.708   4.692
 8934TIP3    H226680   1.683   3.731   4.568
 8935TIP3   OH226681   2.818   3.297   5.524
 8935TIP3    H126682   2.894   3.337   5.569
 8935TIP3    H226683   2.800   3.218   5.579
 8936TIP3   OH226684   2.698   3.050   4.690
 8936TIP3    H126685   2.681   3.074   4.597
 8936TIP3    H226686   2.733   3.134   4.727
 8937TIP3   OH226687   2.195   4.165   4.378
 8937TIP3    H126688   2.110   4.194   4.416
 8937TIP3    H226689   2.214   4.240   4.320
 8938TIP3   OH226690   2.385   3.230   4.794
 8938TIP3    H126691   2.450   3.302   4.776
 8938TIP3    H226692   2.390   3.223   4.892
 8939TIP3   OH226693   2.653   3.549   5.600
 8939TIP3    H126694   2.672   3.607   5.677
 8939TIP3    H226695   2.708   3.472   5.619
 8940TIP3   OH226696   2.529   2.961   4.897
 8940TIP3    H126697   2.523   3.037   4.956
 8940TIP3    H226698   2.591   2.995   4.828
 8941TIP3   OH226699   1.938   4.242   4.447
 8941TIP3    H126700   1.909   4.312   4.385
 8941TIP3    H226701   1.923   4.285   4.534
 8942TIP3   OH226702   2.040   2.959   4.691
 8942TIP3    H126703   2.043   3.050   4.728
 8942TIP3    H226704   2.136   2.937   4.697
 8943TIP3   OH226705   3.296   3.448   5.581
 8943TIP3    H126706   3.198   3.448   5.591
 8943TIP3    H226707   3.303   3.407   5.494
 8944TIP3   OH226708   2.946   3.643   4.968
 8944TIP3    H126709   2.869   3.586   4.983
 8944TIP3    H226710   3.017   3.596   5.018
 8945TIP3   OH226711   1.657   3.874   4.440
 8945TIP3    H126712   1.723   3.945   4.451
 8945TIP3    H226713   1.704   3.819   4.373
 8946TIP3   OH226714   1.611   3.151   4.545
 8946TIP3    H126715   1.599   3.248   4.556
 8946TIP3    H226716   1.520   3.120   4.544
 8947TIP3   OH226717   2.931   4.587   4.929
 8947TIP3    H126718   2.875   4.639   4.868
 8947TIP3    H226719   3.020   4.618   4.901
 8948TIP3   OH226720   1.989   2.868   5.448
 8948TIP3    H126721   1.959   2.835   5.361
 8948TIP3    H226722   1.979   2.789   5.505
 8949TIP3   OH226723   1.530   4.085   4.829
 8949TIP3    H126724   1.456   4.118   4.882
 8949TIP3    H226725   1.509   4.125   4.742
 8950TIP3   OH226726   1.684   4.626   5.903
 8950TIP3    H126727   1.773   4.623   5.944
 8950TIP3    H226728   1.667   4.530   5.894
 8951TIP3   OH226729   2.172   4.600   5.923
 8951TIP3    H126730   2.253   4.552   5.950
 8951TIP3    H226731   2.175   4.577   5.828
 8952TIP3   OH226732   2.149   4.169   4.071
 8952TIP3    H126733   2.092   4.098   4.111
 8952TIP3    H226734   2.224   4.116   4.040
 8953TIP3   OH226735   2.584   4.209   3.983
 8953TIP3    H126736   2.632   4.148   4.041
 8953TIP3    H226737   2.640   4.211   3.903
 8954TIP3   OH226738   1.813   4.033   6.104
 8954TIP3    H126739   1.833   3.938   6.102
 8954TIP3    H226740   1.727   4.036   6.056
 8955TIP3   OH226741   1.794   3.685   4.294
 8955TIP3    H126742   1.850   3.654   4.367
 8955TIP3    H226743   1.860   3.686   4.221
 8956TIP3   OH226744   2.302   3.883   4.099
 8956TIP3    H126745   2.304   3.897   4.196
 8956TIP3    H226746   2.302   3.785   4.095
 8957TIP3   OH226747   2.918   4.127   5.475
 8957TIP3    H126748   2.975   4.162   5.406
 8957TIP3    H226749   2.856   4.199   5.489
 8958TIP3   OH226750   1.932   3.763   6.083
 8958TIP3    H126751   2.013   3.718   6.056
 8958TIP3    H226752   1.959   3.800   6.170
 8959TIP3   OH226753   1.998   3.592   4.513
 8959TIP3    H126754   1.978   3.549   4.597
 8959TIP3    H226755   2.036   3.519   4.460
 8960TIP3   OH226756   2.263   3.644   5.738
 8960TIP3    H126757   2.191   3.710   5.746
 8960TIP3    H226758   2.317   3.683   5.665
 8961TIP3   OH226759   2.102   3.383   4.356
 8961TIP3    H126760   2.092   3.328   4.274
 8961TIP3    H226761   2.199   3.396   4.353
 8962TIP3   OH226762   2.779   4.033   5.869
 8962TIP3    H126763   2.869   4.057   5.847
 8962TIP3    H226764   2.789   3.983   5.951
 8963TIP3   OH226765   2.936   3.709   4.007
 8963TIP3    H126766   2.897   3.670   3.926
 8963TIP3    H226767   2.903   3.802   3.995
 8964TIP3   OH226768   2.394   3.441   5.870
 8964TIP3    H126769   2.394   3.362   5.813
 8964TIP3    H226770   2.350   3.507   5.812
 8965TIP3   OH226771   2.396   3.226   5.676
 8965TIP3    H126772   2.423   3.269   5.592
 8965TIP3    H226773   2.302   3.204   5.657
 8966TIP3   OH226774   2.422   3.764   5.553
 8966TIP3    H126775   2.501   3.768   5.498
 8966TIP3    H226776   2.364   3.830   5.509
 8967TIP3   OH226777   3.007   3.731   5.936
 8967TIP3    H126778   3.058   3.649   5.937
 8967TIP3    H226779   3.071   3.794   5.899
 8968TIP3   OH226780   3.051   3.980   5.663
 8968TIP3    H126781   2.990   4.034   5.608
 8968TIP3    H226782   3.137   4.004   5.623
 8969TIP3   OH226783   2.272   3.553   6.102
 8969TIP3    H126784   2.203   3.484   6.112
 8969TIP3    H226785   2.306   3.533   6.013
 8970TIP3   OH226786   2.528   2.992   5.744
 8970TIP3    H126787   2.479   3.074   5.721
 8970TIP3    H226788   2.460   2.923   5.731
 8971TIP3   OH226789   2.656   3.495   5.959
 8971TIP3    H126790   2.642   3.486   6.055
 8971TIP3    H226791   2.566   3.473   5.927
 8972TIP3   OH226792   2.894   3.439   5.812
 8972TIP3    H126793   2.818   3.448   5.873
 8972TIP3    H226794   2.966   3.412   5.873
 8973TIP3   OH226795   3.126   3.386   5.967
 8973TIP3    H126796   3.136   3.290   5.985
 8973TIP3    H226797   3.120   3.425   6.057
 8974TIP3   OH226798   2.108   3.334   6.152
 8974TIP3    H126799   2.117   3.244   6.115
 8974TIP3    H226800   2.145   3.321   6.242
 8975TIP3   OH226801   2.622   2.999   6.002
 8975TIP3    H126802   2.690   2.929   5.994
 8975TIP3    H226803   2.582   2.995   5.912
 8976TIP3   OH226804   2.687   3.214   6.162
 8976TIP3    H126805   2.666   3.145   6.096
 8976TIP3    H226806   2.611   3.275   6.153
 8977TIP3   OH226807   1.908   4.445   4.259
 8977TIP3    H126808   2.004   4.440   4.241
 8977TIP3    H226809   1.880   4.494   4.180
 8978TIP3   OH226810   1.389   3.827   4.477
 8978TIP3    H126811   1.484   3.849   4.463
 8978TIP3    H226812   1.384   3.738   4.436
 8979TIP3   OH226813   1.301   4.439   4.891
 8979TIP3    H126814   1.236   4.375   4.855
 8979TIP3    H226815   1.347   4.382   4.957
 8980TIP3   OH226816   1.438   4.292   5.077
 8980TIP3    H126817   1.431   4.217   5.138
 8980TIP3    H226818   1.493   4.352   5.131
 8981TIP3   OH226819   3.182   4.694   4.888
 8981TIP3    H126820   3.205   4.765   4.950
 8981TIP3    H226821   3.215   4.732   4.805
 8982TIP3   OH226822   3.245   4.385   5.736
 8982TIP3    H126823   3.164   4.395   5.791
 8982TIP3    H226824   3.277   4.478   5.735
 8983TIP3   OH226825   3.066   3.886   4.341
 8983TIP3    H126826   3.128   3.958   4.319
 8983TIP3    H226827   3.104   3.854   4.426
 8984TIP3   OH226828   3.188   3.763   4.554
 8984TIP3    H126829   3.120   3.724   4.613
 8984TIP3    H226830   3.247   3.808   4.618
 8985TIP3   OH226831   3.239   4.154   4.989
 8985TIP3    H126832   3.292   4.093   4.934
 8985TIP3    H226833   3.217   4.225   4.926
 8986TIP3   OH226834   3.133   3.651   4.174
 8986TIP3    H126835   3.054   3.681   4.123
 8986TIP3    H226836   3.133   3.726   4.238
 8987TIP3   OH226837   3.016   3.355   4.124
 8987TIP3    H126838   2.930   3.387   4.094
 8987TIP3    H226839   2.992   3.259   4.137
 8988TIP3   OH226840   3.003   3.622   4.702
 8988TIP3    H126841   3.005   3.525   4.700
 8988TIP3    H226842   2.987   3.640   4.798
 8989TIP3   OH226843   1.627   3.698   5.448
 8989TIP3    H126844   1.626   3.669   5.355
 8989TIP3    H226845   1.724   3.700   5.465
 8990TIP3   OH226846   3.291   4.054   5.555
 8990TIP3    H126847   3.361   3.985   5.551
 8990TIP3    H226848   3.303   4.099   5.471
 8991TIP3   OH226849   3.473   3.855   5.574
 8991TIP3    H126850   3.400   3.805   5.615
 8991TIP3    H226851   3.547   3.792   5.589
 8992TIP3   OH226852   2.938   3.092   4.148
 8992TIP3    H126853   3.010   3.052   4.201
 8992TIP3    H226854   2.863   3.033   4.166
 8993TIP3   OH226855   2.996   3.338   4.599
 8993TIP3    H126856   3.035   3.249   4.615
 8993TIP3    H226857   3.058   3.371   4.532
 8994TIP3   OH226858   3.159   3.513   5.092
 8994TIP3    H126859   3.245   3.540   5.053
 8994TIP3    H226860   3.170   3.551   5.181
 8995TIP3   OH226861   3.226   3.658   5.323
 8995TIP3    H126862   3.148   3.691   5.372
 8995TIP3    H226863   3.258   3.739   5.279
 8996TIP3   OH226864   1.841   3.383   6.121
 8996TIP3    H126865   1.939   3.378   6.123
 8996TIP3    H226866   1.819   3.298   6.165
 8997TIP3   OH226867   3.678   3.248   5.880
 8997TIP3    H126868   3.737   3.183   5.837
 8997TIP3    H226869   3.650   3.304   5.804
 8998TIP3   OH226870   3.108   3.088   4.632
 8998TIP3    H126871   3.153   3.073   4.718
 8998TIP3    H226872   3.045   3.013   4.632
 8999TIP3   OH226873   1.805   3.076   5.455
 8999TIP3    H126874   1.867   3.002   5.464
 8999TIP3    H226875   1.867   3.151   5.448
 9000TIP3   OH226876   1.609   3.350   5.527
 9000TIP3    H126877   1.658   3.344   5.443
 9000TIP3    H226878   1.638   3.436   5.559
 9001TIP3   OH226879   3.551   3.390   5.686
 9001TIP3    H126880   3.464   3.430   5.708
 9001TIP3    H226881   3.521   3.318   5.627
 9002TIP3   OH226882   3.186   3.025   4.267
 9002TIP3    H126883   3.224   2.951   4.215
 9002TIP3    H226884   3.255   3.094   4.257
 9003TIP3   OH226885   1.591   2.859   5.028
 9003TIP3    H126886   1.498   2.852   5.052
 9003TIP3    H226887   1.587   2.913   4.947
 9004TIP3   OH226888   2.748   4.558   4.532
 9004TIP3    H126889   2.803   4.545   4.452
 9004TIP3    H226890   2.802   4.620   4.584
 9005TIP3   OH226891   1.811   2.934   5.843
 9005TIP3    H126892   1.760   2.929   5.925
 9005TIP3    H226893   1.745   2.972   5.782
 9006TIP3   OH226894   1.842   4.358   5.941
 9006TIP3    H126895   1.755   4.327   5.912
 9006TIP3    H226896   1.843   4.336   6.034
 9007TIP3   OH226897   3.449   3.152   5.563
 9007TIP3    H126898   3.357   3.147   5.530
 9007TIP3    H226899   3.478   3.059   5.551
 9008TIP3   OH226900   1.701   4.645   5.482
 9008TIP3    H126901   1.614   4.688   5.469
 9008TIP3    H226902   1.724   4.673   5.571
 9009TIP3   OH226903   1.946   4.646   5.340
 9009TIP3    H126904   1.863   4.637   5.389
 9009TIP3    H226905   1.917   4.673   5.251
 9010TIP3   OH226906   2.377   4.685   5.113
 9010TIP3    H126907   2.288   4.695   5.078
 9010TIP3    H226908   2.371   4.736   5.196
 9011TIP3   OH226909   2.631   4.586   5.151
 9011TIP3    H126910   2.537   4.599   5.173
 9011TIP3    H226911   2.658   4.677   5.135
 9012TIP3   OH226912   1.616   4.442   5.236
 9012TIP3    H126913   1.647   4.423   5.328
 9012TIP3    H226914   1.690   4.399   5.186
 9013TIP3   OH226915   1.810   4.315   5.090
 9013TIP3    H126916   1.826   4.231   5.138
 9013TIP3    H226917   1.901   4.352   5.086
 9014TIP3   OH226918   2.072   4.413   5.094
 9014TIP3    H126919   2.110   4.322   5.094
 9014TIP3    H226920   2.096   4.443   5.183
 9015TIP3   OH226921   2.654   3.066   5.182
 9015TIP3    H126922   2.609   2.998   5.235
 9015TIP3    H226923   2.724   3.015   5.138
 9016TIP3   OH226924   3.179   2.944   5.085
 9016TIP3    H126925   3.212   3.000   5.011
 9016TIP3    H226926   3.083   2.961   5.082
 9017TIP3   OH226927   3.273   3.050   4.850
 9017TIP3    H126928   3.347   2.999   4.811
 9017TIP3    H226929   3.305   3.142   4.836
 9018TIP3   OH226930   1.902   2.776   5.200
 9018TIP3    H126931   1.810   2.743   5.200
 9018TIP3    H226932   1.952   2.691   5.195
 9019TIP3   OH226933   1.687   2.643   4.845
 9019TIP3    H126934   1.725   2.698   4.773
 9019TIP3    H226935   1.662   2.710   4.910
 9020TIP3   OH226936   2.342   2.813   5.080
 9020TIP3    H126937   2.404   2.859   5.021
 9020TIP3    H226938   2.370   2.846   5.167
 9021TIP3   OH226939   2.898   2.954   5.063
 9021TIP3    H126940   2.888   2.914   4.976
 9021TIP3    H226941   2.885   2.875   5.121
 9022TIP3   OH226942   2.922   2.875   4.625
 9022TIP3    H126943   2.836   2.919   4.637
 9022TIP3    H226944   2.907   2.792   4.676
 9023TIP3   OH226945   1.405   4.215   4.627
 9023TIP3    H126946   1.320   4.182   4.592
 9023TIP3    H226947   1.395   4.310   4.610
 9024TIP3   OH226948   1.811   2.792   4.640
 9024TIP3    H126949   1.842   2.748   4.558
 9024TIP3    H226950   1.886   2.852   4.658
 9025TIP3   OH226951   2.318   2.980   4.709
 9025TIP3    H126952   2.376   2.932   4.770
 9025TIP3    H226953   2.340   3.072   4.734
 9026TIP3   OH226954   2.176   4.406   4.207
 9026TIP3    H126955   2.265   4.428   4.173
 9026TIP3    H226956   2.155   4.330   4.149
 9027TIP3   OH226957   2.897   4.523   4.301
 9027TIP3    H126958   2.889   4.426   4.289
 9027TIP3    H226959   2.852   4.556   4.221
 9028TIP3   OH226960   2.109   3.055   6.089
 9028TIP3    H126961   2.076   2.985   6.147
 9028TIP3    H226962   2.204   3.057   6.116
 9029TIP3   OH226963   2.358   3.054   6.209
 9029TIP3    H126964   2.443   3.031   6.167
 9029TIP3    H226965   2.348   2.981   6.274
 9030TIP3   OH226966   1.482   4.242   4.266
 9030TIP3    H126967   1.484   4.267   4.359
 9030TIP3    H226968   1.570   4.200   4.253
 9031TIP3   OH226969   3.184   3.114   5.997
 9031TIP3    H126970   3.203   3.083   6.088
 9031TIP3    H226971   3.272   3.110   5.954
 9032TIP3   OH226972   4.351   4.026   4.275
 9032TIP3    H126973   4.363   4.120   4.298
 9032TIP3    H226974   4.329   4.042   4.181
 9033TIP3   OH226975   4.391   4.028   4.636
 9033TIP3    H126976   4.435   4.021   4.724
 9033TIP3    H226977   4.321   3.962   4.645
 9034TIP3   OH226978   3.700   3.933   4.987
 9034TIP3    H126979   3.721   3.866   5.055
 9034TIP3    H226980   3.750   4.009   5.022
 9035TIP3   OH226981   4.624   4.331   4.323
 9035TIP3    H126982   4.634   4.276   4.401
 9035TIP3    H226983   4.652   4.418   4.359
 9036TIP3   OH226984   3.663   4.347   4.725
 9036TIP3    H126985   3.649   4.250   4.732
 9036TIP3    H226986   3.760   4.351   4.718
 9037TIP3   OH226987   3.371   3.550   4.508
 9037TIP3    H126988   3.323   3.633   4.527
 9037TIP3    H226989   3.297   3.492   4.488
 9038TIP3   OH226990   3.427   3.837   4.681
 9038TIP3    H126991   3.475   3.760   4.719
 9038TIP3    H226992   3.484   3.861   4.607
 9039TIP3   OH226993   4.272   4.805   4.330
 9039TIP3    H126994   4.323   4.731   4.290
 9039TIP3    H226995   4.274   4.783   4.424
 9040TIP3   OH226996   4.189   4.267   4.683
 9040TIP3    H126997   4.230   4.200   4.626
 9040TIP3    H226998   4.271   4.311   4.714
 9041TIP3   OH226999   5.197   3.586   4.680
 9041TIP3    H127000   5.227   3.668   4.727
 9041TIP3    H227001   5.223   3.607   4.589
 9042TIP3   OH227002   4.602   3.768   4.715
 9042TIP3    H127003   4.646   3.691   4.756
 9042TIP3    H227004   4.564   3.725   4.638
 9043TIP3   OH227005   3.936   3.427   4.679
 9043TIP3    H127006   3.912   3.498   4.616
 9043TIP3    H227007   3.889   3.351   4.639
 9044TIP3   OH227008   4.624   3.521   4.299
 9044TIP3    H127009   4.691   3.510   4.371
 9044TIP3    H227010   4.681   3.559   4.229
 9045TIP3   OH227011   3.571   3.630   4.787
 9045TIP3    H127012   3.652   3.609   4.838
 9045TIP3    H227013   3.584   3.571   4.710
 9046TIP3   OH227014   4.047   3.807   4.542
 9046TIP3    H127015   4.063   3.788   4.635
 9046TIP3    H227016   3.986   3.733   4.520
 9047TIP3   OH227017   5.271   3.790   4.854
 9047TIP3    H127018   5.189   3.840   4.836
 9047TIP3    H227019   5.293   3.823   4.943
 9048TIP3   OH227020   3.932   3.408   5.116
 9048TIP3    H127021   3.871   3.446   5.050
 9048TIP3    H227022   3.883   3.425   5.198
 9049TIP3   OH227023   4.275   4.243   4.125
 9049TIP3    H127024   4.242   4.242   4.034
 9049TIP3    H227025   4.246   4.332   4.153
 9050TIP3   OH227026   4.036   4.184   4.913
 9050TIP3    H127027   3.975   4.251   4.951
 9050TIP3    H227028   4.079   4.236   4.843
 9051TIP3   OH227029   4.835   3.524   4.475
 9051TIP3    H127030   4.832   3.471   4.556
 9051TIP3    H227031   4.897   3.594   4.499
 9052TIP3   OH227032   3.803   3.524   4.900
 9052TIP3    H127033   3.864   3.596   4.926
 9052TIP3    H227034   3.854   3.483   4.827
 9053TIP3   OH227035   3.871   4.391   4.987
 9053TIP3    H127036   3.816   4.455   4.940
 9053TIP3    H227037   3.805   4.365   5.056
 9054TIP3   OH227038   3.262   4.067   4.246
 9054TIP3    H127039   3.221   4.095   4.162
 9054TIP3    H227040   3.293   4.153   4.282
 9055TIP3   OH227041   4.689   4.564   4.463
 9055TIP3    H127042   4.608   4.572   4.517
 9055TIP3    H227043   4.706   4.659   4.443
 9056TIP3   OH227044   4.993   3.483   4.845
 9056TIP3    H127045   4.906   3.519   4.819
 9056TIP3    H227046   5.053   3.517   4.776
 9057TIP3   OH227047   4.290   3.128   4.830
 9057TIP3    H127048   4.278   3.033   4.851
 9057TIP3    H227049   4.213   3.166   4.877
 9058TIP3   OH227050   4.404   4.630   4.160
 9058TIP3    H127051   4.455   4.549   4.137
 9058TIP3    H227052   4.464   4.698   4.121
 9059TIP3   OH227053   4.542   4.412   4.068
 9059TIP3    H127054   4.524   4.333   4.016
 9059TIP3    H227055   4.578   4.375   4.151
 9060TIP3   OH227056   4.905   4.481   4.834
 9060TIP3    H127057   4.909   4.412   4.764
 9060TIP3    H227058   4.903   4.563   4.783
 9061TIP3   OH227059   4.209   3.876   4.098
 9061TIP3    H127060   4.137   3.931   4.059
 9061TIP3    H227061   4.263   3.857   4.018
 9062TIP3   OH227062   4.180   3.670   3.811
 9062TIP3    H127063   4.251   3.725   3.848
 9062TIP3    H227064   4.234   3.607   3.759
 9063TIP3   OH227065   5.123   4.126   4.671
 9063TIP3    H127066   5.041   4.180   4.675
 9063TIP3    H227067   5.157   4.152   4.583
 9064TIP3   OH227068   4.563   3.975   4.066
 9064TIP3    H127069   4.531   4.012   4.150
 9064TIP3    H227070   4.651   3.943   4.094
 9065TIP3   OH227071   4.802   4.014   4.970
 9065TIP3    H127072   4.804   4.094   5.026
 9065TIP3    H227073   4.717   4.027   4.923
 9066TIP3   OH227074   3.804   3.962   4.478
 9066TIP3    H127075   3.753   3.914   4.409
 9066TIP3    H227076   3.883   3.906   4.486
 9067TIP3   OH227077   3.931   4.384   4.623
 9067TIP3    H127078   3.908   4.346   4.537
 9067TIP3    H227079   4.021   4.347   4.639
 9068TIP3   OH227080   3.969   3.938   4.811
 9068TIP3    H127081   3.956   3.972   4.722
 9068TIP3    H227082   3.984   4.021   4.860
 9069TIP3   OH227083   4.462   4.582   4.614
 9069TIP3    H127084   4.439   4.657   4.671
 9069TIP3    H227085   4.445   4.505   4.670
 9070TIP3   OH227086   4.076   4.488   5.151
 9070TIP3    H127087   4.040   4.571   5.186
 9070TIP3    H227088   3.999   4.452   5.103
 9071TIP3   OH227089   4.403   3.831   3.890
 9071TIP3    H127090   4.465   3.890   3.937
 9071TIP3    H227091   4.428   3.851   3.796
 9072TIP3   OH227092   3.821   4.057   5.245
 9072TIP3    H127093   3.833   4.141   5.294
 9072TIP3    H227094   3.727   4.040   5.266
 9073TIP3   OH227095   4.151   4.509   4.165
 9073TIP3    H127096   4.230   4.566   4.178
 9073TIP3    H227097   4.090   4.570   4.121
 9074TIP3   OH227098   4.924   3.072   3.931
 9074TIP3    H127099   4.843   3.093   3.982
 9074TIP3    H227100   4.938   3.155   3.882
 9075TIP3   OH227101   3.670   3.815   4.282
 9075TIP3    H127102   3.607   3.865   4.224
 9075TIP3    H227103   3.619   3.735   4.300
 9076TIP3   OH227104   4.722   4.441   3.479
 9076TIP3    H127105   4.730   4.538   3.465
 9076TIP3    H227106   4.815   4.412   3.467
 9077TIP3   OH227107   3.473   4.182   5.150
 9077TIP3    H127108   3.387   4.166   5.107
 9077TIP3    H227109   3.487   4.102   5.204
 9078TIP3   OH227110   3.300   4.394   4.812
 9078TIP3    H127111   3.395   4.385   4.825
 9078TIP3    H227112   3.276   4.469   4.868
 9079TIP3   OH227113   4.031   4.756   3.962
 9079TIP3    H127114   3.987   4.739   3.877
 9079TIP3    H227115   4.000   4.845   3.985
 9080TIP3   OH227116   3.469   4.607   4.343
 9080TIP3    H127117   3.516   4.597   4.429
 9080TIP3    H227118   3.407   4.532   4.348
 9081TIP3   OH227119   4.233   4.658   3.601
 9081TIP3    H127120   4.293   4.589   3.565
 9081TIP3    H227121   4.268   4.668   3.692
 9082TIP3   OH227122   4.283   4.706   3.872
 9082TIP3    H127123   4.195   4.716   3.914
 9082TIP3    H227124   4.335   4.670   3.946
 9083TIP3   OH227125   5.056   3.971   5.152
 9083TIP3    H127126   4.975   3.985   5.102
 9083TIP3    H227127   5.070   3.875   5.141
 9084TIP3   OH227128   3.685   4.348   5.166
 9084TIP3    H127129   3.719   4.332   5.256
 9084TIP3    H227130   3.603   4.294   5.163
 9085TIP3   OH227131   4.051   3.206   4.957
 9085TIP3    H127132   3.961   3.175   4.933
 9085TIP3    H227133   4.027   3.287   5.006
 9086TIP3   OH227134   4.584   3.320   5.153
 9086TIP3    H127135   4.651   3.293   5.219
 9086TIP3    H227136   4.499   3.299   5.199
 9087TIP3   OH227137   4.822   3.749   5.069
 9087TIP3    H127138   4.775   3.744   5.156
 9087TIP3    H227139   4.800   3.839   5.038
 9088TIP3   OH227140   4.485   3.877   3.632
 9088TIP3    H127141   4.449   3.853   3.545
 9088TIP3    H227142   4.564   3.926   3.606
 9089TIP3   OH227143   4.195   3.253   3.931
 9089TIP3    H127144   4.162   3.248   4.022
 9089TIP3    H227145   4.158   3.170   3.895
 9090TIP3   OH227146   3.979   3.720   4.976
 9090TIP3    H127147   3.930   3.742   5.058
 9090TIP3    H227148   3.969   3.802   4.923
 9091TIP3   OH227149   3.865   3.611   4.488
 9091TIP3    H127150   3.773   3.584   4.510
 9091TIP3    H227151   3.875   3.566   4.401
 9092TIP3   OH227152   4.529   3.967   5.300
 9092TIP3    H127153   4.512   3.896   5.366
 9092TIP3    H227154   4.620   3.993   5.326
 9093TIP3   OH227155   3.800   3.749   5.186
 9093TIP3    H127156   3.825   3.813   5.254
 9093TIP3    H227157   3.789   3.667   5.239
 9094TIP3   OH227158   3.850   3.223   3.888
 9094TIP3    H127159   3.838   3.229   3.985
 9094TIP3    H227160   3.766   3.260   3.855
 9095TIP3   OH227161   3.395   3.276   4.761
 9095TIP3    H127162   3.470   3.302   4.818
 9095TIP3    H227163   3.438   3.233   4.685
 9096TIP3   OH227164   3.366   3.248   4.280
 9096TIP3    H127165   3.441   3.287   4.234
 9096TIP3    H227166   3.310   3.324   4.304
 9097TIP3   OH227167   4.514   3.969   4.875
 9097TIP3    H127168   4.553   3.896   4.822
 9097TIP3    H227169   4.492   3.919   4.957
 9098TIP3   OH227170   4.192   3.445   4.552
 9098TIP3    H127171   4.112   3.433   4.607
 9098TIP3    H227172   4.263   3.427   4.617
 9099TIP3   OH227173   3.632   3.485   4.559
 9099TIP3    H127174   3.536   3.492   4.534
 9099TIP3    H227175   3.652   3.391   4.542
 9100TIP3   OH227176   3.897   3.484   4.246
 9100TIP3    H127177   3.991   3.500   4.228
 9100TIP3    H227178   3.853   3.503   4.161
 9101TIP3   OH227179   4.684   3.505   4.753
 9101TIP3    H127180   4.653   3.513   4.846
 9101TIP3    H227181   4.622   3.440   4.718
 9102TIP3   OH227182   3.731   3.503   4.014
 9102TIP3    H127183   3.664   3.470   3.951
 9102TIP3    H227184   3.789   3.550   3.951
 9103TIP3   OH227185   3.820   4.296   5.401
 9103TIP3    H127186   3.898   4.330   5.449
 9103TIP3    H227187   3.752   4.300   5.471
 9104TIP3   OH227188   3.800   3.243   4.528
 9104TIP3    H127189   3.765   3.165   4.577
 9104TIP3    H227190   3.855   3.200   4.461
 9105TIP3   OH227191   4.250   3.643   4.955
 9105TIP3    H127192   4.163   3.687   4.960
 9105TIP3    H227193   4.311   3.711   4.990
 9106TIP3   OH227194   3.998   4.039   4.042
 9106TIP3    H127195   3.922   3.978   4.024
 9106TIP3    H227196   3.972   4.078   4.129
 9107TIP3   OH227197   4.893   4.273   4.659
 9107TIP3    H127198   4.919   4.325   4.579
 9107TIP3    H227199   4.805   4.238   4.634
 9108TIP3   OH227200   4.451   3.349   3.899
 9108TIP3    H127201   4.353   3.338   3.904
 9108TIP3    H227202   4.465   3.445   3.917
 9109TIP3   OH227203   4.398   4.371   5.040
 9109TIP3    H127204   4.431   4.325   5.120
 9109TIP3    H227205   4.330   4.429   5.078
 9110TIP3   OH227206   4.524   3.595   3.988
 9110TIP3    H127207   4.617   3.610   4.012
 9110TIP3    H227208   4.496   3.681   3.951
 9111TIP3   OH227209   3.691   4.069   4.715
 9111TIP3    H127210   3.721   4.029   4.632
 9111TIP3    H227211   3.706   4.000   4.782
 9112TIP3   OH227212   4.140   4.195   3.862
 9112TIP3    H127213   4.090   4.281   3.864
 9112TIP3    H227214   4.083   4.140   3.919
 9113TIP3   OH227215   3.560   3.986   5.328
 9113TIP3    H127216   3.579   3.970   5.422
 9113TIP3    H227217   3.491   3.919   5.311
 9114TIP3   OH227218   4.288   4.094   5.343
 9114TIP3    H127219   4.232   4.030   5.297
 9114TIP3    H227220   4.378   4.065   5.316
 9115TIP3   OH227221   4.959   3.693   3.839
 9115TIP3    H127222   4.898   3.648   3.776
 9115TIP3    H227223   4.958   3.781   3.795
 9116TIP3   OH227224   4.658   4.509   3.742
 9116TIP3    H127225   4.636   4.437   3.802
 9116TIP3    H227226   4.673   4.465   3.657
 9117TIP3   OH227227   4.654   4.144   4.578
 9117TIP3    H127228   4.564   4.113   4.596
 9117TIP3    H227229   4.694   4.064   4.539
 9118TIP3   OH227230   3.785   4.366   4.334
 9118TIP3    H127231   3.787   4.449   4.282
 9118TIP3    H227232   3.690   4.354   4.345
 9119TIP3   OH227233   3.930   4.132   4.290
 9119TIP3    H127234   3.896   4.224   4.297
 9119TIP3    H227235   3.879   4.088   4.360
 9120TIP3   OH227236   3.706   4.606   4.191
 9120TIP3    H127237   3.618   4.616   4.234
 9120TIP3    H227238   3.738   4.699   4.193
 9121TIP3   OH227239   4.442   4.346   4.768
 9121TIP3    H127240   4.435   4.345   4.867
 9121TIP3    H227241   4.529   4.306   4.755
 9122TIP3   OH227242   4.416   4.238   3.646
 9122TIP3    H127243   4.465   4.215   3.728
 9122TIP3    H227244   4.326   4.213   3.672
 9123TIP3   OH227245   4.756   4.716   3.467
 9123TIP3    H127246   4.794   4.789   3.416
 9123TIP3    H227247   4.675   4.761   3.499
 9124TIP3   OH227248   3.775   3.491   5.332
 9124TIP3    H127249   3.679   3.497   5.348
 9124TIP3    H227250   3.803   3.432   5.405
 9125TIP3   OH227251   4.575   4.179   3.870
 9125TIP3    H127252   4.568   4.106   3.934
 9125TIP3    H227253   4.672   4.175   3.851
 9126TIP3   OH227254   3.784   4.220   3.645
 9126TIP3    H127255   3.794   4.128   3.614
 9126TIP3    H227256   3.763   4.207   3.739
 9127TIP3   OH227257   3.728   4.226   3.918
 9127TIP3    H127258   3.797   4.205   3.982
 9127TIP3    H227259   3.728   4.324   3.920
 9128TIP3   OH227260   3.479   3.934   4.131
 9128TIP3    H127261   3.402   3.968   4.180
 9128TIP3    H227262   3.480   3.995   4.055
 9129TIP3   OH227263   4.614   3.553   5.010
 9129TIP3    H127264   4.688   3.595   5.056
 9129TIP3    H227265   4.597   3.474   5.067
 9130TIP3   OH227266   4.477   3.321   4.180
 9130TIP3    H127267   4.475   3.335   4.083
 9130TIP3    H227268   4.530   3.397   4.211
 9131TIP3   OH227269   3.993   4.422   3.868
 9131TIP3    H127270   3.906   4.451   3.902
 9131TIP3    H227271   4.010   4.492   3.804
 9132TIP3   OH227272   4.183   3.497   4.281
 9132TIP3    H127273   4.276   3.494   4.256
 9132TIP3    H227274   4.187   3.482   4.379
 9133TIP3   OH227275   4.455   3.808   5.086
 9133TIP3    H127276   4.472   3.863   5.166
 9133TIP3    H227277   4.505   3.728   5.107
 9134TIP3   OH227278   4.325   3.218   4.384
 9134TIP3    H127279   4.345   3.279   4.457
 9134TIP3    H227280   4.385   3.252   4.314
 9135TIP3   OH227281   3.735   4.498   3.934
 9135TIP3    H127282   3.706   4.567   3.870
 9135TIP3    H227283   3.719   4.543   4.020
 9136TIP3   OH227284   3.836   3.213   4.171
 9136TIP3    H127285   3.837   3.302   4.209
 9136TIP3    H227286   3.931   3.190   4.178
 9137TIP3   OH227287   5.090   3.705   5.071
 9137TIP3    H127288   4.992   3.701   5.075
 9137TIP3    H227289   5.105   3.672   4.982
 9138TIP3   OH227290   4.745   3.898   4.458
 9138TIP3    H127291   4.688   3.823   4.479
 9138TIP3    H227292   4.827   3.869   4.503
 9139TIP3   OH227293   3.452   4.129   3.927
 9139TIP3    H127294   3.512   4.205   3.935
 9139TIP3    H227295   3.500   4.077   3.859
 9140TIP3   OH227296   4.717   4.845   4.403
 9140TIP3    H127297   4.673   4.896   4.332
 9140TIP3    H227298   4.810   4.873   4.391
 9141TIP3   OH227299   3.787   3.124   4.934
 9141TIP3    H127300   3.755   3.089   4.848
 9141TIP3    H227301   3.778   3.046   4.993
 9142TIP3   OH227302   3.325   4.339   4.315
 9142TIP3    H127303   3.255   4.372   4.372
 9142TIP3    H227304   3.301   4.381   4.230
 9143TIP3   OH227305   3.946   4.425   3.560
 9143TIP3    H127306   3.890   4.353   3.596
 9143TIP3    H227307   4.020   4.374   3.523
 9144TIP3   OH227308   4.381   4.466   3.469
 9144TIP3    H127309   4.430   4.405   3.527
 9144TIP3    H227310   4.436   4.468   3.388
 9145TIP3   OH227311   3.611   4.284   5.583
 9145TIP3    H127312   3.636   4.190   5.587
 9145TIP3    H227313   3.516   4.279   5.600
 9146TIP3   OH227314   3.588   3.944   3.777
 9146TIP3    H127315   3.645   3.911   3.849
 9146TIP3    H227316   3.654   3.947   3.704
 9147TIP3   OH227317   4.218   4.364   5.360
 9147TIP3    H127318   4.173   4.387   5.277
 9147TIP3    H227319   4.248   4.272   5.347
 9148TIP3   OH227320   4.101   4.143   3.589
 9148TIP3    H127321   4.101   4.153   3.685
 9148TIP3    H227322   4.101   4.045   3.581
 9149TIP3   OH227323   4.703   4.360   4.965
 9149TIP3    H127324   4.778   4.409   4.922
 9149TIP3    H227325   4.639   4.431   4.978
 9150TIP3   OH227326   3.732   4.022   5.570
 9150TIP3    H127327   3.808   3.966   5.550
 9150TIP3    H227328   3.757   4.057   5.658
 9151TIP3   OH227329   3.807   3.846   4.007
 9151TIP3    H127330   3.765   3.802   4.082
 9151TIP3    H227331   3.835   3.771   3.951
 9152TIP3   OH227332   4.066   3.908   5.228
 9152TIP3    H127333   3.989   3.969   5.233
 9152TIP3    H227334   4.115   3.942   5.151
 9153TIP3   OH227335   3.897   3.638   3.847
 9153TIP3    H127336   3.867   3.640   3.754
 9153TIP3    H227337   3.994   3.642   3.835
 9154TIP3   OH227338   4.577   4.287   5.339
 9154TIP3    H127339   4.670   4.308   5.329
 9154TIP3    H227340   4.574   4.246   5.427
 9155TIP3   OH227341   4.721   3.969   3.505
 9155TIP3    H127342   4.699   3.923   3.422
 9155TIP3    H227343   4.689   4.060   3.482
 9156TIP3   OH227344   4.190   3.697   5.357
 9156TIP3    H127345   4.189   3.616   5.302
 9156TIP3    H227346   4.146   3.762   5.299
 9157TIP3   OH227347   4.190   3.480   5.167
 9157TIP3    H127348   4.219   3.525   5.085
 9157TIP3    H227349   4.097   3.459   5.147
 9158TIP3   OH227350   4.219   4.016   5.032
 9158TIP3    H127351   4.305   4.029   4.991
 9158TIP3    H227352   4.164   4.086   4.990
 9159TIP3   OH227353   4.801   3.987   5.419
 9159TIP3    H127354   4.852   3.906   5.432
 9159TIP3    H227355   4.868   4.047   5.384
 9160TIP3   OH227356   4.850   4.232   5.151
 9160TIP3    H127357   4.787   4.283   5.095
 9160TIP3    H227358   4.935   4.261   5.111
 9161TIP3   OH227359   4.065   3.811   5.585
 9161TIP3    H127360   3.998   3.742   5.600
 9161TIP3    H227361   4.102   3.784   5.499
 9162TIP3   OH227362   4.325   3.246   5.227
 9162TIP3    H127363   4.275   3.328   5.208
 9162TIP3    H227364   4.255   3.178   5.218
 9163TIP3   OH227365   4.452   3.751   5.447
 9163TIP3    H127366   4.442   3.741   5.543
 9163TIP3    H227367   4.361   3.727   5.419
 9164TIP3   OH227368   4.689   3.695   5.298
 9164TIP3    H127369   4.614   3.702   5.362
 9164TIP3    H227370   4.763   3.668   5.357
 9165TIP3   OH227371   4.918   3.640   5.451
 9165TIP3    H127372   4.930   3.545   5.472
 9165TIP3    H227373   4.913   3.682   5.540
 9166TIP3   OH227374   3.907   3.590   5.638
 9166TIP3    H127375   3.914   3.499   5.604
 9166TIP3    H227376   3.943   3.579   5.729
 9167TIP3   OH227377   4.415   3.259   5.487
 9167TIP3    H127378   4.485   3.190   5.483
 9167TIP3    H227379   4.377   3.251   5.397
 9168TIP3   OH227380   4.485   3.472   5.647
 9168TIP3    H127381   4.462   3.402   5.582
 9168TIP3    H227382   4.407   3.532   5.640
 9169TIP3   OH227383   3.705   4.698   3.746
 9169TIP3    H127384   3.800   4.698   3.727
 9169TIP3    H227385   3.673   4.748   3.669
 9170TIP3   OH227386   3.185   4.085   3.966
 9170TIP3    H127387   3.279   4.107   3.951
 9170TIP3    H227388   3.179   3.995   3.927
 9171TIP3   OH227389   3.100   4.695   4.376
 9171TIP3    H127390   3.032   4.634   4.340
 9171TIP3    H227391   3.143   4.637   4.442
 9172TIP3   OH227392   3.235   4.546   4.562
 9172TIP3    H127393   3.224   4.472   4.624
 9172TIP3    H227394   3.290   4.606   4.616
 9173TIP3   OH227395   4.976   4.949   4.382
 9173TIP3    H127396   4.987   5.033   4.430
 9173TIP3    H227397   5.011   4.975   4.295
 9174TIP3   OH227398   5.043   4.642   5.224
 9174TIP3    H127399   4.967   4.651   5.284
 9174TIP3    H227400   5.081   4.733   5.225
 9175TIP3   OH227401   4.853   4.158   3.839
 9175TIP3    H127402   4.921   4.222   3.808
 9175TIP3    H227403   4.899   4.119   3.916
 9176TIP3   OH227404   4.981   4.025   4.041
 9176TIP3    H127405   4.919   3.984   4.103
 9176TIP3    H227406   5.050   4.062   4.100
 9177TIP3   OH227407   5.030   4.410   4.470
 9177TIP3    H127408   5.089   4.350   4.421
 9177TIP3    H227409   5.028   4.489   4.411
 9178TIP3   OH227410   4.920   3.931   3.690
 9178TIP3    H127411   4.850   3.934   3.621
 9178TIP3    H227412   4.894   4.009   3.744
 9179TIP3   OH227413   4.791   3.605   3.645
 9179TIP3    H127414   4.751   3.647   3.568
 9179TIP3    H227415   4.765   3.511   3.632
 9180TIP3   OH227416   4.792   3.881   4.187
 9180TIP3    H127417   4.808   3.785   4.178
 9180TIP3    H227418   4.786   3.892   4.284
 9181TIP3   OH227419   3.426   3.946   4.935
 9181TIP3    H127420   3.422   3.920   4.841
 9181TIP3    H227421   3.523   3.953   4.949
 9182TIP3   OH227422   5.086   4.313   5.043
 9182TIP3    H127423   5.161   4.250   5.030
 9182TIP3    H227424   5.092   4.369   4.964
 9183TIP3   OH227425   5.268   4.112   5.064
 9183TIP3    H127426   5.195   4.060   5.105
 9183TIP3    H227427   5.343   4.050   5.076
 9184TIP3   OH227428   4.735   3.338   3.629
 9184TIP3    H127429   4.810   3.309   3.685
 9184TIP3    H227430   4.662   3.280   3.654
 9185TIP3   OH227431   4.797   3.600   4.085
 9185TIP3    H127432   4.835   3.511   4.101
 9185TIP3    H227433   4.853   3.630   4.011
 9186TIP3   OH227434   4.956   3.777   4.577
 9186TIP3    H127435   5.044   3.800   4.538
 9186TIP3    H227436   4.971   3.811   4.668
 9187TIP3   OH227437   5.021   3.913   4.812
 9187TIP3    H127438   4.945   3.950   4.861
 9187TIP3    H227439   5.056   3.993   4.766
 9188TIP3   OH227440   3.640   3.642   5.609
 9188TIP3    H127441   3.738   3.635   5.612
 9188TIP3    H227442   3.615   3.557   5.651
 9189TIP3   OH227443   5.474   3.505   5.367
 9189TIP3    H127444   5.533   3.439   5.324
 9189TIP3    H227445   5.447   3.560   5.290
 9190TIP3   OH227446   4.901   3.347   4.122
 9190TIP3    H127447   4.950   3.331   4.205
 9190TIP3    H227448   4.841   3.269   4.121
 9191TIP3   OH227449   3.602   3.331   4.934
 9191TIP3    H127450   3.664   3.257   4.949
 9191TIP3    H227451   3.663   3.406   4.934
 9192TIP3   OH227452   3.406   3.606   5.014
 9192TIP3    H127453   3.455   3.605   4.930
 9192TIP3    H227454   3.427   3.694   5.048
 9193TIP3   OH227455   5.347   3.646   5.173
 9193TIP3    H127456   5.261   3.686   5.198
 9193TIP3    H227457   5.316   3.575   5.114
 9194TIP3   OH227458   4.983   3.281   3.755
 9194TIP3    H127459   5.025   3.211   3.700
 9194TIP3    H227460   5.049   3.353   3.748
 9195TIP3   OH227461   3.386   3.111   4.515
 9195TIP3    H127462   3.294   3.104   4.546
 9195TIP3    H227463   3.377   3.165   4.434
 9196TIP3   OH227464   4.546   4.812   4.022
 9196TIP3    H127465   4.595   4.798   3.938
 9196TIP3    H227466   4.599   4.881   4.065
 9197TIP3   OH227467   3.607   3.189   5.328
 9197TIP3    H127468   3.558   3.184   5.412
 9197TIP3    H227469   3.540   3.229   5.269
 9198TIP3   OH227470   5.246   3.409   5.050
 9198TIP3    H127471   5.154   3.403   5.017
 9198TIP3    H227472   5.276   3.316   5.038
 9199TIP3   OH227473   4.155   4.909   4.626
 9199TIP3    H127474   4.094   4.947   4.561
 9199TIP3    H227475   4.199   4.988   4.662
 9200TIP3   OH227476   4.603   5.064   4.585
 9200TIP3    H127477   4.613   5.150   4.540
 9200TIP3    H227478   4.626   4.998   4.519
 9201TIP3   OH227479   3.413   4.703   4.715
 9201TIP3    H127480   3.447   4.702   4.806
 9201TIP3    H227481   3.486   4.656   4.667
 9202TIP3   OH227482   3.605   4.570   4.576
 9202TIP3    H127483   3.623   4.486   4.625
 9202TIP3    H227484   3.695   4.608   4.568
 9203TIP3   OH227485   3.866   4.663   4.572
 9203TIP3    H127486   3.904   4.574   4.564
 9203TIP3    H227487   3.913   4.697   4.649
 9204TIP3   OH227488   4.437   3.314   4.651
 9204TIP3    H127489   4.402   3.251   4.718
 9204TIP3    H227490   4.521   3.272   4.624
 9205TIP3   OH227491   4.973   3.201   4.573
 9205TIP3    H127492   5.010   3.254   4.499
 9205TIP3    H227493   4.878   3.223   4.569
 9206TIP3   OH227494   5.068   3.303   4.338
 9206TIP3    H127495   5.141   3.252   4.298
 9206TIP3    H227496   5.101   3.395   4.323
 9207TIP3   OH227497   3.699   3.032   4.684
 9207TIP3    H127498   3.607   2.998   4.687
 9207TIP3    H227499   3.749   2.948   4.682
 9208TIP3   OH227500   3.483   2.900   4.332
 9208TIP3    H127501   3.513   2.960   4.262
 9208TIP3    H227502   3.454   2.963   4.401
 9209TIP3   OH227503   4.139   3.067   4.566
 9209TIP3    H127504   4.200   3.117   4.509
 9209TIP3    H227505   4.163   3.100   4.654
 9210TIP3   OH227506   4.687   3.212   4.552
 9210TIP3    H127507   4.690   3.174   4.463
 9210TIP3    H227508   4.675   3.131   4.606
 9211TIP3   OH227509   4.719   3.131   4.112
 9211TIP3    H127510   4.630   3.168   4.115
 9211TIP3    H227511   4.706   3.047   4.160
 9212TIP3   OH227512   3.202   4.472   4.115
 9212TIP3    H127513   3.117   4.440   4.080
 9212TIP3    H227514   3.192   4.567   4.096
 9213TIP3   OH227515   3.608   3.061   4.103
 9213TIP3    H127516   3.652   2.996   4.044
 9213TIP3    H227517   3.685   3.113   4.135
 9214TIP3   OH227518   4.112   3.239   4.198
 9214TIP3    H127519   4.174   3.194   4.258
 9214TIP3    H227520   4.129   3.332   4.224
 9215TIP3   OH227521   3.974   4.662   3.696
 9215TIP3    H127522   4.062   4.685   3.659
 9215TIP3    H227523   3.952   4.587   3.636
 9216TIP3   OH227524   4.684   4.774   3.788
 9216TIP3    H127525   4.677   4.677   3.772
 9216TIP3    H227526   4.644   4.810   3.706
 9217TIP3   OH227527   3.906   3.313   5.575
 9217TIP3    H127528   3.871   3.243   5.633
 9217TIP3    H227529   4.000   3.314   5.603
 9218TIP3   OH227530   4.154   3.310   5.696
 9218TIP3    H127531   4.240   3.285   5.656
 9218TIP3    H227532   4.143   3.239   5.762
 9219TIP3   OH227533   3.276   4.494   3.752
 9219TIP3    H127534   3.277   4.529   3.842
 9219TIP3    H227535   3.366   4.456   3.742
 9220TIP3   OH227536   4.980   3.370   5.484
 9220TIP3    H127537   5.000   3.339   5.575
 9220TIP3    H227538   5.069   3.367   5.443
 9221TIP3   OH227539   6.186   4.297   3.744
 9221TIP3    H127540   6.157   4.388   3.725
 9221TIP3    H227541   6.113   4.246   3.705
 9222TIP3   OH227542   6.182   4.298   4.124
 9222TIP3    H127543   6.214   4.265   4.209
 9222TIP3    H227544   6.142   4.219   4.084
 9223TIP3   OH227545   5.483   4.184   4.480
 9223TIP3    H127546   5.515   4.120   4.546
 9223TIP3    H227547   5.549   4.254   4.490
 9224TIP3   OH227548   6.428   4.598   3.801
 9224TIP3    H127549   6.414   4.532   3.870
 9224TIP3    H227550   6.454   4.676   3.854
 9225TIP3   OH227551   5.459   4.602   4.215
 9225TIP3    H127552   5.445   4.505   4.219
 9225TIP3    H227553   5.556   4.605   4.204
 9226TIP3   OH227554   5.160   3.801   4.001
 9226TIP3    H127555   5.116   3.886   4.013
 9226TIP3    H227556   5.089   3.750   3.957
 9227TIP3   OH227557   5.222   4.089   4.163
 9227TIP3    H127558   5.271   4.014   4.203
 9227TIP3    H227559   5.283   4.119   4.095
 9228TIP3   OH227560   6.065   5.054   3.813
 9228TIP3    H127561   6.125   4.985   3.776
 9228TIP3    H227562   6.075   5.041   3.908
 9229TIP3   OH227563   5.983   4.524   4.171
 9229TIP3    H127564   6.019   4.445   4.125
 9229TIP3    H227565   6.068   4.568   4.192
 9230TIP3   OH227566   6.997   3.842   4.169
 9230TIP3    H127567   7.024   3.925   4.214
 9230TIP3    H227568   7.013   3.865   4.076
 9231TIP3   OH227569   6.395   4.024   4.204
 9231TIP3    H127570   6.436   3.938   4.224
 9231TIP3    H227571   6.364   4.009   4.113
 9232TIP3   OH227572   5.729   3.684   4.170
 9232TIP3    H127573   5.712   3.755   4.104
 9232TIP3    H227574   5.683   3.610   4.124
 9233TIP3   OH227575   6.427   3.771   3.795
 9233TIP3    H127576   6.502   3.757   3.857
 9233TIP3    H227577   6.475   3.809   3.719
 9234TIP3   OH227578   5.366   3.884   4.275
 9234TIP3    H127579   5.449   3.867   4.323
 9234TIP3    H227580   5.381   3.829   4.195
 9235TIP3   OH227581   5.808   4.082   4.067
 9235TIP3    H127582   5.902   4.058   4.081
 9235TIP3    H227583   5.771   3.998   4.034
 9236TIP3   OH227584   7.069   4.049   4.339
 9236TIP3    H127585   6.986   4.098   4.319
 9236TIP3    H227586   7.083   4.077   4.431
 9237TIP3   OH227587   5.729   3.665   4.603
 9237TIP3    H127588   5.670   3.704   4.536
 9237TIP3    H227589   5.678   3.684   4.684
 9238TIP3   OH227590   6.084   4.518   3.610
 9238TIP3    H127591   6.033   4.487   3.534
 9238TIP3    H227592   6.040   4.605   3.627
 9239TIP3   OH227593   5.835   4.443   4.401
 9239TIP3    H127594   5.773   4.507   4.443
 9239TIP3    H227595   5.875   4.497   4.330
 9240TIP3   OH227596   6.642   3.773   3.963
 9240TIP3    H127597   6.622   3.731   4.048
 9240TIP3    H227598   6.692   3.853   3.991
 9241TIP3   OH227599   5.599   3.781   4.389
 9241TIP3    H127600   5.660   3.855   4.412
 9241TIP3    H227601   5.647   3.742   4.313
 9242TIP3   OH227602   5.650   4.631   4.502
 9242TIP3    H127603   5.610   4.710   4.462
 9242TIP3    H227604   5.576   4.595   4.552
 9243TIP3   OH227605   5.057   4.323   3.732
 9243TIP3    H127606   5.018   4.352   3.647
 9243TIP3    H227607   5.086   4.409   3.770
 9244TIP3   OH227608   6.487   4.832   3.954
 9244TIP3    H127609   6.398   4.827   3.997
 9244TIP3    H227610   6.484   4.924   3.919
 9245TIP3   OH227611   6.789   3.740   4.334
 9245TIP3    H127612   6.701   3.771   4.306
 9245TIP3    H227613   6.847   3.773   4.263
 9246TIP3   OH227614   6.087   3.387   4.318
 9246TIP3    H127615   6.072   3.292   4.333
 9246TIP3    H227616   6.010   3.425   4.364
 9247TIP3   OH227617   6.212   4.887   3.656
 9247TIP3    H127618   6.258   4.805   3.628
 9247TIP3    H227619   6.259   4.952   3.599
 9248TIP3   OH227620   6.348   4.671   3.549
 9248TIP3    H127621   6.298   4.594   3.518
 9248TIP3    H227622   6.381   4.639   3.635
 9249TIP3   OH227623   6.733   4.740   4.328
 9249TIP3    H127624   6.720   4.675   4.256
 9249TIP3    H227625   6.723   4.825   4.279
 9250TIP3   OH227626   6.020   4.154   3.571
 9250TIP3    H127627   5.931   4.188   3.547
 9250TIP3    H227628   6.061   4.143   3.484
 9251TIP3   OH227629   5.982   3.957   3.272
 9251TIP3    H127630   6.050   3.984   3.335
 9251TIP3    H227631   6.002   3.863   3.260
 9252TIP3   OH227632   6.920   4.388   4.161
 9252TIP3    H127633   6.836   4.439   4.165
 9252TIP3    H227634   6.950   4.411   4.070
 9253TIP3   OH227635   6.366   4.238   3.547
 9253TIP3    H127636   6.310   4.259   3.625
 9253TIP3    H227637   6.448   4.209   3.592
 9254TIP3   OH227638   6.599   4.269   4.455
 9254TIP3    H127639   6.597   4.352   4.507
 9254TIP3    H227640   6.512   4.276   4.410
 9255TIP3   OH227641   5.597   4.231   3.962
 9255TIP3    H127642   5.550   4.174   3.898
 9255TIP3    H227643   5.673   4.175   3.989
 9256TIP3   OH227644   5.729   4.641   4.109
 9256TIP3    H127645   5.704   4.596   4.026
 9256TIP3    H227646   5.818   4.604   4.126
 9257TIP3   OH227647   5.739   4.197   4.315
 9257TIP3    H127648   5.768   4.179   4.223
 9257TIP3    H227649   5.777   4.285   4.334
 9258TIP3   OH227650   6.253   4.829   4.084
 9258TIP3    H127651   6.240   4.921   4.118
 9258TIP3    H227652   6.237   4.771   4.160
 9259TIP3   OH227653   5.872   4.728   4.644
 9259TIP3    H127654   5.853   4.822   4.660
 9259TIP3    H227655   5.791   4.699   4.598
 9260TIP3   OH227656   6.216   4.085   3.375
 9260TIP3    H127657   6.271   4.150   3.425
 9260TIP3    H227658   6.236   4.111   3.282
 9261TIP3   OH227659   5.618   4.304   4.726
 9261TIP3    H127660   5.634   4.385   4.779
 9261TIP3    H227661   5.521   4.296   4.740
 9262TIP3   OH227662   5.954   4.765   3.642
 9262TIP3    H127663   6.028   4.822   3.666
 9262TIP3    H227664   5.877   4.819   3.660
 9263TIP3   OH227665   6.719   3.329   3.418
 9263TIP3    H127666   6.638   3.349   3.470
 9263TIP3    H227667   6.733   3.413   3.370
 9264TIP3   OH227668   5.452   4.076   3.781
 9264TIP3    H127669   5.395   4.118   3.714
 9264TIP3    H227670   5.425   3.984   3.773
 9265TIP3   OH227671   6.518   4.697   2.966
 9265TIP3    H127672   6.527   4.794   2.953
 9265TIP3    H227673   6.611   4.667   2.954
 9266TIP3   OH227674   5.290   4.414   4.604
 9266TIP3    H127675   5.197   4.401   4.582
 9266TIP3    H227676   5.304   4.353   4.679
 9267TIP3   OH227677   5.092   4.645   4.313
 9267TIP3    H127678   5.189   4.641   4.304
 9267TIP3    H227679   5.076   4.734   4.346
 9268TIP3   OH227680   5.282   4.850   3.820
 9268TIP3    H127681   5.317   4.850   3.911
 9268TIP3    H227682   5.195   4.810   3.834
 9269TIP3   OH227683   6.041   4.904   3.103
 9269TIP3    H127684   6.088   4.844   3.041
 9269TIP3    H227685   6.090   4.885   3.184
 9270TIP3   OH227686   6.856   4.231   4.635
 9270TIP3    H127687   6.772   4.247   4.589
 9270TIP3    H227688   6.866   4.134   4.624
 9271TIP3   OH227689   5.848   3.461   4.445
 9271TIP3    H127690   5.758   3.431   4.420
 9271TIP3    H227691   5.824   3.544   4.490
 9272TIP3   OH227692   6.381   3.575   4.639
 9272TIP3    H127693   6.448   3.551   4.706
 9272TIP3    H227694   6.296   3.557   4.685
 9273TIP3   OH227695   6.623   4.007   4.560
 9273TIP3    H127696   6.572   4.002   4.643
 9273TIP3    H227697   6.597   4.094   4.524
 9274TIP3   OH227698   6.281   4.136   3.115
 9274TIP3    H127699   6.246   4.109   3.028
 9274TIP3    H227700   6.361   4.186   3.088
 9275TIP3   OH227701   5.997   3.508   3.413
 9275TIP3    H127702   5.953   3.525   3.499
 9275TIP3    H227703   5.954   3.424   3.388
 9276TIP3   OH227704   5.778   3.976   4.465
 9276TIP3    H127705   5.727   3.998   4.546
 9276TIP3    H227706   5.763   4.056   4.411
 9277TIP3   OH227707   5.670   3.860   3.968
 9277TIP3    H127708   5.576   3.834   3.981
 9277TIP3    H227709   5.681   3.850   3.872
 9278TIP3   OH227710   6.155   3.959   3.708
 9278TIP3    H127711   6.097   4.025   3.666
 9278TIP3    H227712   6.201   3.920   3.631
 9279TIP3   OH227713   6.325   4.222   4.786
 9279TIP3    H127714   6.307   4.152   4.853
 9279TIP3    H227715   6.414   4.251   4.812
 9280TIP3   OH227716   6.310   3.978   3.944
 9280TIP3    H127717   6.249   4.006   3.873
 9280TIP3    H227718   6.341   3.895   3.903
 9281TIP3   OH227719   5.597   4.004   4.674
 9281TIP3    H127720   5.620   4.073   4.739
 9281TIP3    H227721   5.589   3.924   4.729
 9282TIP3   OH227722   5.636   3.477   3.382
 9282TIP3    H127723   5.641   3.483   3.479
 9282TIP3    H227724   5.575   3.550   3.363
 9283TIP3   OH227725   5.190   3.527   4.256
 9283TIP3    H127726   5.266   3.561   4.308
 9283TIP3    H227727   5.231   3.500   4.172
 9284TIP3   OH227728   5.164   3.508   3.778
 9284TIP3    H127729   5.206   3.546   3.697
 9284TIP3    H227730   5.103   3.581   3.798
 9285TIP3   OH227731   6.319   4.224   4.368
 9285TIP3    H127732   6.353   4.152   4.310
 9285TIP3    H227733   6.292   4.172   4.446
 9286TIP3   OH227734   5.986   3.675   4.052
 9286TIP3    H127735   5.903   3.681   4.104
 9286TIP3    H227736   6.053   3.688   4.121
 9287TIP3   OH227737   5.425   3.741   4.047
 9287TIP3    H127738   5.330   3.748   4.020
 9287TIP3    H227739   5.447   3.649   4.023
 9288TIP3   OH227740   6.482   3.759   4.239
 9288TIP3    H127741   6.450   3.772   4.331
 9288TIP3    H227742   6.413   3.698   4.206
 9289TIP3   OH227743   5.640   4.519   4.894
 9289TIP3    H127744   5.710   4.563   4.946
 9289TIP3    H227745   5.574   4.499   4.962
 9290TIP3   OH227746   6.073   4.012   4.137
 9290TIP3    H127747   6.145   3.973   4.084
 9290TIP3    H227748   6.086   3.970   4.224
 9291TIP3   OH227749   5.599   3.501   4.014
 9291TIP3    H127750   5.565   3.420   4.057
 9291TIP3    H227751   5.643   3.466   3.935
 9292TIP3   OH227752   6.049   3.907   4.430
 9292TIP3    H127753   5.960   3.946   4.441
 9292TIP3    H227754   6.107   3.969   4.479
 9293TIP3   OH227755   5.779   4.304   3.518
 9293TIP3    H127756   5.712   4.233   3.508
 9293TIP3    H227757   5.764   4.332   3.612
 9294TIP3   OH227758   6.688   4.532   4.150
 9294TIP3    H127759   6.709   4.583   4.069
 9294TIP3    H227760   6.601   4.493   4.128
 9295TIP3   OH227761   6.245   3.615   3.374
 9295TIP3    H127762   6.149   3.596   3.388
 9295TIP3    H227763   6.255   3.707   3.408
 9296TIP3   OH227764   6.198   4.640   4.531
 9296TIP3    H127765   6.227   4.588   4.608
 9296TIP3    H227766   6.120   4.685   4.566
 9297TIP3   OH227767   6.315   3.856   3.487
 9297TIP3    H127768   6.411   3.866   3.505
 9297TIP3    H227769   6.293   3.939   3.440
 9298TIP3   OH227770   5.479   4.324   4.200
 9298TIP3    H127771   5.518   4.292   4.115
 9298TIP3    H227772   5.514   4.259   4.263
 9299TIP3   OH227773   5.928   4.452   3.342
 9299TIP3    H127774   5.886   4.539   3.357
 9299TIP3    H227775   5.875   4.395   3.401
 9300TIP3   OH227776   5.353   4.250   4.820
 9300TIP3    H127777   5.387   4.238   4.911
 9300TIP3    H227778   5.291   4.176   4.812
 9301TIP3   OH227779   6.084   4.354   4.832
 9301TIP3    H127780   6.027   4.295   4.780
 9301TIP3    H227781   6.173   4.325   4.802
 9302TIP3   OH227782   6.759   3.949   3.322
 9302TIP3    H127783   6.696   3.904   3.260
 9302TIP3    H227784   6.754   4.039   3.283
 9303TIP3   OH227785   6.449   4.769   3.230
 9303TIP3    H127786   6.431   4.700   3.295
 9303TIP3    H227787   6.467   4.719   3.148
 9304TIP3   OH227788   6.451   4.398   4.073
 9304TIP3    H127789   6.357   4.372   4.083
 9304TIP3    H227790   6.486   4.320   4.026
 9305TIP3   OH227791   5.577   4.628   3.824
 9305TIP3    H127792   5.574   4.709   3.769
 9305TIP3    H227793   5.483   4.609   3.833
 9306TIP3   OH227794   5.142   3.932   3.522
 9306TIP3    H127795   5.190   4.014   3.544
 9306TIP3    H227796   5.067   3.936   3.585
 9307TIP3   OH227797   5.719   4.394   3.768
 9307TIP3    H127798   5.682   4.482   3.788
 9307TIP3    H227799   5.684   4.342   3.842
 9308TIP3   OH227800   5.510   4.864   3.671
 9308TIP3    H127801   5.422   4.867   3.717
 9308TIP3    H227802   5.537   4.957   3.675
 9309TIP3   OH227803   6.240   4.609   4.259
 9309TIP3    H127804   6.234   4.602   4.357
 9309TIP3    H227805   6.315   4.553   4.238
 9310TIP3   OH227806   6.209   4.500   3.132
 9310TIP3    H127807   6.263   4.474   3.210
 9310TIP3    H227808   6.122   4.467   3.159
 9311TIP3   OH227809   6.553   4.972   2.952
 9311TIP3    H127810   6.592   5.045   2.901
 9311TIP3    H227811   6.472   5.018   2.984
 9312TIP3   OH227812   5.573   3.747   4.821
 9312TIP3    H127813   5.477   3.753   4.836
 9312TIP3    H227814   5.601   3.688   4.893
 9313TIP3   OH227815   6.371   4.430   3.345
 9313TIP3    H127816   6.360   4.368   3.420
 9313TIP3    H227817   6.469   4.428   3.337
 9314TIP3   OH227818   5.580   4.480   3.132
 9314TIP3    H127819   5.592   4.388   3.101
 9314TIP3    H227820   5.559   4.464   3.226
 9315TIP3   OH227821   5.524   4.482   3.403
 9315TIP3    H127822   5.594   4.449   3.462
 9315TIP3    H227823   5.530   4.579   3.417
 9316TIP3   OH227824   5.258   4.176   3.608
 9316TIP3    H127825   5.193   4.221   3.665
 9316TIP3    H227826   5.273   4.244   3.540
 9317TIP3   OH227827   6.410   3.810   4.498
 9317TIP3    H127828   6.486   3.851   4.543
 9317TIP3    H227829   6.393   3.731   4.553
 9318TIP3   OH227830   6.299   3.557   3.660
 9318TIP3    H127831   6.272   3.586   3.571
 9318TIP3    H227832   6.324   3.642   3.702
 9319TIP3   OH227833   5.794   4.688   3.357
 9319TIP3    H127834   5.705   4.712   3.390
 9319TIP3    H227835   5.788   4.711   3.263
 9320TIP3   OH227836   6.026   3.717   3.777
 9320TIP3    H127837   6.039   3.807   3.743
 9320TIP3    H227838   5.991   3.734   3.866
 9321TIP3   OH227839   6.246   4.062   4.574
 9321TIP3    H127840   6.264   4.119   4.652
 9321TIP3    H227841   6.301   3.984   4.592
 9322TIP3   OH227842   6.129   3.468   3.874
 9322TIP3    H127843   6.099   3.551   3.917
 9322TIP3    H227844   6.183   3.506   3.802
 9323TIP3   OH227845   5.535   4.756   3.419
 9323TIP3    H127846   5.499   4.825   3.358
 9323TIP3    H227847   5.516   4.796   3.507
 9324TIP3   OH227848   5.633   3.476   3.660
 9324TIP3    H127849   5.635   3.575   3.662
 9324TIP3    H227850   5.729   3.459   3.671
 9325TIP3   OH227851   6.888   3.960   4.555
 9325TIP3    H127852   6.790   3.960   4.565
 9325TIP3    H227853   6.897   3.925   4.466
 9326TIP3   OH227854   6.538   4.156   3.943
 9326TIP3    H127855   6.461   4.098   3.955
 9326TIP3    H227856   6.608   4.109   3.992
 9327TIP3   OH227857   5.249   4.386   3.412
 9327TIP3    H127858   5.315   4.457   3.422
 9327TIP3    H227859   5.297   4.329   3.348
 9328TIP3   OH227860   5.186   3.658   3.554
 9328TIP3    H127861   5.202   3.754   3.542
 9328TIP3    H227862   5.111   3.643   3.496
 9329TIP3   OH227863   6.510   5.100   3.883
 9329TIP3    H127864   6.466   5.152   3.813
 9329TIP3    H227865   6.604   5.122   3.865
 9330TIP3   OH227866   5.583   3.382   4.421
 9330TIP3    H127867   5.551   3.349   4.335
 9330TIP3    H227868   5.571   3.303   4.479
 9331TIP3   OH227869   5.115   4.585   3.803
 9331TIP3    H127870   5.048   4.628   3.858
 9331TIP3    H227871   5.103   4.633   3.719
 9332TIP3   OH227872   5.747   4.689   3.069
 9332TIP3    H127873   5.685   4.615   3.090
 9332TIP3    H227874   5.817   4.639   3.022
 9333TIP3   OH227875   6.177   4.725   2.954
 9333TIP3    H127876   6.219   4.660   3.013
 9333TIP3    H227877   6.235   4.723   2.875
 9334TIP3   OH227878   5.388   4.198   3.268
 9334TIP3    H127879   5.441   4.157   3.339
 9334TIP3    H227880   5.455   4.203   3.197
 9335TIP3   OH227881   6.017   4.628   4.852
 9335TIP3    H127882   5.968   4.647   4.769
 9335TIP3    H227883   6.048   4.536   4.839
 9336TIP3   OH227884   5.895   4.398   3.072
 9336TIP3    H127885   5.896   4.407   3.170
 9336TIP3    H227886   5.895   4.300   3.064
 9337TIP3   OH227887   6.513   4.624   4.454
 9337TIP3    H127888   6.585   4.675   4.410
 9337TIP3    H227889   6.438   4.684   4.447
 9338TIP3   OH227890   5.535   4.261   5.047
 9338TIP3    H127891   5.620   4.216   5.045
 9338TIP3    H227892   5.541   4.308   5.133
 9339TIP3   OH227893   5.602   4.090   3.487
 9339TIP3    H127894   5.585   4.053   3.575
 9339TIP3    H227895   5.648   4.013   3.449
 9340TIP3   OH227896   5.863   4.165   4.717
 9340TIP3    H127897   5.784   4.223   4.718
 9340TIP3    H227898   5.911   4.199   4.638
 9341TIP3   OH227899   6.371   4.539   4.826
 9341TIP3    H127900   6.462   4.568   4.816
 9341TIP3    H227901   6.371   4.503   4.916
 9342TIP3   OH227902   6.519   4.227   2.989
 9342TIP3    H127903   6.495   4.180   2.907
 9342TIP3    H227904   6.485   4.317   2.966
 9343TIP3   OH227905   5.986   3.954   4.844
 9343TIP3    H127906   5.985   3.874   4.787
 9343TIP3    H227907   5.943   4.021   4.786
 9344TIP3   OH227908   5.989   3.738   4.649
 9344TIP3    H127909   6.015   3.782   4.566
 9344TIP3    H227910   5.894   3.717   4.631
 9345TIP3   OH227911   6.016   4.278   4.523
 9345TIP3    H127912   6.097   4.282   4.470
 9345TIP3    H227913   5.958   4.343   4.479
 9346TIP3   OH227914   6.597   4.244   4.907
 9346TIP3    H127915   6.650   4.163   4.915
 9346TIP3    H227916   6.661   4.306   4.871
 9347TIP3   OH227917   6.648   4.488   4.641
 9347TIP3    H127918   6.585   4.539   4.584
 9347TIP3    H227919   6.733   4.516   4.600
 9348TIP3   OH227920   5.862   4.067   5.074
 9348TIP3    H127921   5.794   3.998   5.087
 9348TIP3    H227922   5.898   4.043   4.986
 9349TIP3   OH227923   6.120   3.503   4.716
 9349TIP3    H127924   6.072   3.586   4.694
 9349TIP3    H227925   6.050   3.437   4.705
 9350TIP3   OH227926   6.248   4.006   4.934
 9350TIP3    H127927   6.236   3.997   5.030
 9350TIP3    H227928   6.158   3.984   4.904
 9351TIP3   OH227929   6.485   3.952   4.786
 9351TIP3    H127930   6.410   3.960   4.848
 9351TIP3    H227931   6.558   3.926   4.845
 9352TIP3   OH227932   6.718   3.898   4.939
 9352TIP3    H127933   6.727   3.803   4.959
 9352TIP3    H227934   6.711   3.939   5.028
 9353TIP3   OH227935   5.702   3.847   5.126
 9353TIP3    H127936   5.710   3.757   5.091
 9353TIP3    H227937   5.738   3.835   5.216
 9354TIP3   OH227938   6.216   3.514   4.973
 9354TIP3    H127939   6.283   3.442   4.967
 9354TIP3    H227940   6.175   3.508   4.884
 9355TIP3   OH227941   6.281   3.728   5.134
 9355TIP3    H127942   6.258   3.658   5.069
 9355TIP3    H227943   6.203   3.789   5.127
 9356TIP3   OH227944   5.507   4.964   3.236
 9356TIP3    H127945   5.594   4.966   3.195
 9356TIP3    H227946   5.454   5.000   3.162
 9357TIP3   OH227947   4.981   4.339   3.450
 9357TIP3    H127948   5.076   4.361   3.437
 9357TIP3    H227949   4.976   4.250   3.409
 9358TIP3   OH227950   4.880   4.946   3.863
 9358TIP3    H127951   4.816   4.879   3.830
 9358TIP3    H227952   4.934   4.893   3.925
 9359TIP3   OH227953   5.032   4.800   4.041
 9359TIP3    H127954   5.020   4.729   4.106
 9359TIP3    H227955   5.085   4.864   4.093
 9360TIP3   OH227956   6.761   5.204   3.831
 9360TIP3    H127957   6.764   5.275   3.897
 9360TIP3    H227958   6.812   5.244   3.759
 9361TIP3   OH227959   6.845   4.900   4.713
 9361TIP3    H127960   6.757   4.919   4.746
 9361TIP3    H227961   6.882   4.990   4.705
 9362TIP3   OH227962   6.652   4.414   3.324
 9362TIP3    H127963   6.721   4.477   3.298
 9362TIP3    H227964   6.693   4.374   3.405
 9363TIP3   OH227965   6.778   4.280   3.528
 9363TIP3    H127966   6.712   4.238   3.587
 9363TIP3    H227967   6.841   4.320   3.591
 9364TIP3   OH227968   6.817   4.663   3.950
 9364TIP3    H127969   6.878   4.607   3.900
 9364TIP3    H227970   6.811   4.743   3.895
 9365TIP3   OH227971   6.655   4.936   4.151
 9365TIP3    H127972   6.604   5.009   4.189
 9365TIP3    H227973   6.596   4.902   4.081
 9366TIP3   OH227974   6.717   4.188   3.175
 9366TIP3    H127975   6.645   4.192   3.108
 9366TIP3    H227976   6.690   4.264   3.231
 9367TIP3   OH227977   6.593   3.859   3.127
 9367TIP3    H127978   6.542   3.901   3.056
 9367TIP3    H227979   6.565   3.766   3.117
 9368TIP3   OH227980   6.594   4.137   3.675
 9368TIP3    H127981   6.599   4.040   3.670
 9368TIP3    H227982   6.580   4.151   3.772
 9369TIP3   OH227983   5.213   4.199   4.419
 9369TIP3    H127984   5.217   4.174   4.325
 9369TIP3    H227985   5.309   4.212   4.439
 9370TIP3   OH227986   6.882   4.569   4.530
 9370TIP3    H127987   6.959   4.512   4.511
 9370TIP3    H227988   6.875   4.628   4.453
 9371TIP3   OH227989   7.071   4.371   4.547
 9371TIP3    H127990   6.994   4.325   4.587
 9371TIP3    H227991   7.141   4.304   4.562
 9372TIP3   OH227992   6.533   3.593   3.113
 9372TIP3    H127993   6.604   3.564   3.173
 9372TIP3    H227994   6.456   3.539   3.140
 9373TIP3   OH227995   6.590   3.854   3.572
 9373TIP3    H127996   6.630   3.765   3.587
 9373TIP3    H227997   6.648   3.887   3.501
 9374TIP3   OH227998   6.752   4.026   4.065
 9374TIP3    H127999   6.838   4.053   4.026
 9374TIP3    H228000   6.763   4.065   4.154
 9375TIP3   OH228001   6.819   4.170   4.297
 9375TIP3    H128002   6.741   4.204   4.346
 9375TIP3    H228003   6.851   4.251   4.253
 9376TIP3   OH228004   5.434   3.896   5.091
 9376TIP3    H128005   5.532   3.892   5.095
 9376TIP3    H228006   5.411   3.812   5.136
 9377TIP3   OH228007   7.273   3.763   4.854
 9377TIP3    H128008   7.330   3.697   4.809
 9377TIP3    H228009   7.242   3.817   4.778
 9378TIP3   OH228010   6.700   3.603   3.606
 9378TIP3    H128011   6.746   3.588   3.691
 9378TIP3    H228012   6.637   3.528   3.605
 9379TIP3   OH228013   5.397   3.589   4.429
 9379TIP3    H128014   5.461   3.516   4.438
 9379TIP3    H228015   5.458   3.665   4.422
 9380TIP3   OH228016   5.202   3.863   4.500
 9380TIP3    H128017   5.252   3.859   4.416
 9380TIP3    H228018   5.226   3.951   4.532
 9381TIP3   OH228019   7.143   3.902   4.661
 9381TIP3    H128020   7.058   3.944   4.685
 9381TIP3    H228021   7.111   3.833   4.601
 9382TIP3   OH228022   6.780   3.538   3.241
 9382TIP3    H128023   6.820   3.467   3.188
 9382TIP3    H228024   6.846   3.610   3.234
 9383TIP3   OH228025   5.184   3.364   4.003
 9383TIP3    H128026   5.090   3.364   4.028
 9383TIP3    H228027   5.184   3.424   3.925
 9384TIP3   OH228028   6.322   5.082   3.492
 9384TIP3    H128029   6.387   5.061   3.422
 9384TIP3    H228030   6.377   5.134   3.554
 9385TIP3   OH228031   5.403   3.444   4.814
 9385TIP3    H128032   5.355   3.442   4.898
 9385TIP3    H228033   5.336   3.485   4.755
 9386TIP3   OH228034   7.041   3.666   4.536
 9386TIP3    H128035   6.950   3.664   4.503
 9386TIP3    H228036   7.069   3.572   4.524
 9387TIP3   OH228037   5.965   5.197   4.095
 9387TIP3    H128038   5.885   5.207   4.040
 9387TIP3    H228039   5.970   5.283   4.140
 9388TIP3   OH228040   6.225   5.096   4.125
 9388TIP3    H128041   6.142   5.148   4.117
 9388TIP3    H228042   6.290   5.162   4.156
 9389TIP3   OH228043   6.448   5.317   4.074
 9389TIP3    H128044   6.435   5.401   4.027
 9389TIP3    H228045   6.453   5.249   4.005
 9390TIP3   OH228046   5.205   4.952   4.205
 9390TIP3    H128047   5.248   4.966   4.290
 9390TIP3    H228048   5.278   4.912   4.153
 9391TIP3   OH228049   5.401   4.829   4.067
 9391TIP3    H128050   5.421   4.744   4.112
 9391TIP3    H228051   5.492   4.864   4.053
 9392TIP3   OH228052   5.665   4.916   4.056
 9392TIP3    H128053   5.701   4.826   4.051
 9392TIP3    H228054   5.699   4.945   4.141
 9393TIP3   OH228055   6.254   3.584   4.168
 9393TIP3    H128056   6.202   3.515   4.212
 9393TIP3    H228057   6.310   3.534   4.108
 9394TIP3   OH228058   6.772   3.456   4.061
 9394TIP3    H128059   6.807   3.512   3.987
 9394TIP3    H228060   6.676   3.476   4.057
 9395TIP3   OH228061   6.865   3.560   3.824
 9395TIP3    H128062   6.939   3.511   3.783
 9395TIP3    H228063   6.895   3.652   3.811
 9396TIP3   OH228064   5.495   3.289   4.173
 9396TIP3    H128065   5.402   3.257   4.173
 9396TIP3    H228066   5.544   3.204   4.167
 9397TIP3   OH228067   5.284   3.157   3.819
 9397TIP3    H128068   5.313   3.216   3.746
 9397TIP3    H228069   5.253   3.222   3.884
 9398TIP3   OH228070   5.942   3.316   4.055
 9398TIP3    H128071   5.995   3.370   3.994
 9398TIP3    H228072   5.956   3.362   4.138
 9399TIP3   OH228073   6.494   3.466   4.036
 9399TIP3    H128074   6.473   3.437   3.946
 9399TIP3    H228075   6.472   3.386   4.089
 9400TIP3   OH228076   6.515   3.390   3.597
 9400TIP3    H128077   6.432   3.440   3.612
 9400TIP3    H228078   6.495   3.306   3.644
 9401TIP3   OH228079   5.000   4.730   3.602
 9401TIP3    H128080   4.915   4.697   3.568
 9401TIP3    H228081   4.987   4.825   3.586
 9402TIP3   OH228082   5.398   3.313   3.590
 9402TIP3    H128083   5.448   3.259   3.526
 9402TIP3    H228084   5.468   3.373   3.622
 9403TIP3   OH228085   5.906   3.489   3.684
 9403TIP3    H128086   5.974   3.457   3.745
 9403TIP3    H228087   5.919   3.586   3.697
 9404TIP3   OH228088   5.789   4.968   3.188
 9404TIP3    H128089   5.879   4.951   3.151
 9404TIP3    H228090   5.749   4.885   3.155
 9405TIP3   OH228091   6.488   5.035   3.274
 9405TIP3    H128092   6.479   4.937   3.261
 9405TIP3    H228093   6.448   5.068   3.191
 9406TIP3   OH228094   5.702   3.568   5.062
 9406TIP3    H128095   5.668   3.499   5.120
 9406TIP3    H228096   5.796   3.569   5.090
 9407TIP3   OH228097   5.950   3.567   5.182
 9407TIP3    H128098   6.036   3.541   5.145
 9407TIP3    H228099   5.937   3.497   5.250
 9408TIP3   OH228100   5.074   4.756   3.238
 9408TIP3    H128101   5.068   4.785   3.330
 9408TIP3    H228102   5.163   4.715   3.234
 9409TIP3   OH228103   6.775   3.626   4.970
 9409TIP3    H128104   6.795   3.596   5.062
 9409TIP3    H228105   6.864   3.623   4.929
 9410TIP3   OH228106   7.985   4.550   3.226
 9410TIP3    H128107   7.959   4.643   3.212
 9410TIP3    H228108   7.904   4.504   3.197
 9411TIP3   OH228109   7.971   4.547   3.611
 9411TIP3    H128110   8.007   4.525   3.699
 9411TIP3    H228111   7.932   4.463   3.583
 9412TIP3   OH228112   7.283   4.442   3.963
 9412TIP3    H128113   7.310   4.377   4.031
 9412TIP3    H228114   7.350   4.510   3.975
 9413TIP3   OH228115   8.224   4.848   3.296
 9413TIP3    H128116   8.211   4.784   3.368
 9413TIP3    H228117   8.252   4.927   3.345
 9414TIP3   OH228118   7.262   4.862   3.710
 9414TIP3    H128119   7.245   4.765   3.712
 9414TIP3    H228120   7.356   4.861   3.682
 9415TIP3   OH228121   6.959   4.062   3.485
 9415TIP3    H128122   6.910   4.145   3.501
 9415TIP3    H228123   6.888   4.007   3.449
 9416TIP3   OH228124   7.020   4.348   3.649
 9416TIP3    H128125   7.067   4.271   3.691
 9416TIP3    H228126   7.080   4.371   3.577
 9417TIP3   OH228127   7.872   5.316   3.307
 9417TIP3    H128128   7.919   5.245   3.258
 9417TIP3    H228129   7.869   5.280   3.396
 9418TIP3   OH228130   7.781   4.779   3.660
 9418TIP3    H128131   7.816   4.704   3.610
 9418TIP3    H228132   7.866   4.820   3.686
 9419TIP3   OH228133   8.762   4.127   3.632
 9419TIP3    H128134   8.816   4.182   3.693
 9419TIP3    H228135   8.824   4.116   3.557
 9420TIP3   OH228136   8.222   4.287   3.679
 9420TIP3    H128137   8.241   4.194   3.701
 9420TIP3    H228138   8.178   4.277   3.592
 9421TIP3   OH228139   7.531   3.939   3.655
 9421TIP3    H128140   7.507   4.012   3.594
 9421TIP3    H228141   7.482   3.866   3.612
 9422TIP3   OH228142   8.226   4.032   3.282
 9422TIP3    H128143   8.298   4.024   3.347
 9422TIP3    H228144   8.274   4.064   3.204
 9423TIP3   OH228145   7.162   4.142   3.761
 9423TIP3    H128146   7.244   4.123   3.810
 9423TIP3    H228147   7.175   4.084   3.683
 9424TIP3   OH228148   7.604   4.340   3.551
 9424TIP3    H128149   7.697   4.313   3.567
 9424TIP3    H228150   7.564   4.255   3.522
 9425TIP3   OH228151   8.861   4.304   3.822
 9425TIP3    H128152   8.783   4.360   3.809
 9425TIP3    H228153   8.881   4.323   3.915
 9426TIP3   OH228154   7.526   3.922   4.090
 9426TIP3    H128155   7.466   3.960   4.023
 9426TIP3    H228156   7.474   3.940   4.172
 9427TIP3   OH228157   7.876   4.774   3.097
 9427TIP3    H128158   7.829   4.753   3.015
 9427TIP3    H228159   7.832   4.858   3.123
 9428TIP3   OH228160   7.631   4.702   3.890
 9428TIP3    H128161   7.574   4.770   3.930
 9428TIP3    H228162   7.675   4.751   3.817
 9429TIP3   OH228163   8.452   4.052   3.462
 9429TIP3    H128164   8.415   3.987   3.524
 9429TIP3    H228165   8.540   4.015   3.442
 9430TIP3   OH228166   7.397   4.037   3.874
 9430TIP3    H128167   7.458   4.111   3.898
 9430TIP3    H228168   7.446   3.997   3.799
 9431TIP3   OH228169   7.452   4.896   3.988
 9431TIP3    H128170   7.407   4.943   3.916
 9431TIP3    H228171   7.377   4.855   4.035
 9432TIP3   OH228172   6.857   4.581   3.219
 9432TIP3    H128173   6.813   4.608   3.136
 9432TIP3    H228174   6.886   4.667   3.256
 9433TIP3   OH228175   8.293   5.094   3.453
 9433TIP3    H128176   8.205   5.085   3.496
 9433TIP3    H228177   8.287   5.184   3.417
 9434TIP3   OH228178   8.585   4.006   3.824
 9434TIP3    H128179   8.493   4.019   3.797
 9434TIP3    H228180   8.635   4.032   3.745
 9435TIP3   OH228181   7.884   3.643   3.804
 9435TIP3    H128182   7.869   3.548   3.820
 9435TIP3    H228183   7.805   3.681   3.850
 9436TIP3   OH228184   7.997   5.144   3.132
 9436TIP3    H128185   8.048   5.062   3.113
 9436TIP3    H228186   8.058   5.210   3.092
 9437TIP3   OH228187   8.142   4.927   3.042
 9437TIP3    H128188   8.097   4.851   3.004
 9437TIP3    H228189   8.176   4.891   3.127
 9438TIP3   OH228190   7.811   4.402   3.059
 9438TIP3    H128191   7.731   4.455   3.039
 9438TIP3    H228192   7.856   4.402   2.972
 9439TIP3   OH228193   7.771   4.188   2.776
 9439TIP3    H128194   7.838   4.239   2.824
 9439TIP3    H228195   7.828   4.124   2.729
 9440TIP3   OH228196   8.733   4.637   3.645
 9440TIP3    H128197   8.645   4.683   3.643
 9440TIP3    H228198   8.766   4.669   3.558
 9441TIP3   OH228199   8.159   4.486   3.027
 9441TIP3    H128200   8.103   4.512   3.105
 9441TIP3    H228201   8.243   4.465   3.072
 9442TIP3   OH228202   8.396   4.529   3.934
 9442TIP3    H128203   8.401   4.626   3.947
 9442TIP3    H228204   8.306   4.528   3.896
 9443TIP3   OH228205   7.391   4.485   3.447
 9443TIP3    H128206   7.349   4.427   3.380
 9443TIP3    H228207   7.468   4.431   3.475
 9444TIP3   OH228208   7.521   4.892   3.599
 9444TIP3    H128209   7.501   4.855   3.512
 9444TIP3    H228210   7.611   4.858   3.615
 9445TIP3   OH228211   7.541   4.453   3.803
 9445TIP3    H128212   7.565   4.439   3.710
 9445TIP3    H228213   7.574   4.543   3.822
 9446TIP3   OH228214   8.052   5.095   3.580
 9446TIP3    H128215   8.051   5.173   3.639
 9446TIP3    H228216   8.041   5.020   3.642
 9447TIP3   OH228217   8.001   4.342   2.856
 9447TIP3    H128218   8.058   4.403   2.907
 9447TIP3    H228219   8.026   4.366   2.763
 9448TIP3   OH228220   7.412   4.564   4.215
 9448TIP3    H128221   7.420   4.619   4.294
 9448TIP3    H228222   7.316   4.543   4.221
 9449TIP3   OH228223   7.742   5.024   3.134
 9449TIP3    H128224   7.821   5.079   3.151
 9449TIP3    H228225   7.681   5.088   3.094
 9450TIP3   OH228226   8.517   3.587   2.906
 9450TIP3    H128227   8.434   3.606   2.955
 9450TIP3    H228228   8.528   3.669   2.854
 9451TIP3   OH228229   7.258   4.327   3.252
 9451TIP3    H128230   7.192   4.372   3.195
 9451TIP3    H228231   7.215   4.242   3.267
 9452TIP3   OH228232   8.314   4.953   2.453
 9452TIP3    H128233   8.322   5.050   2.439
 9452TIP3    H228234   8.407   4.924   2.441
 9453TIP3   OH228235   7.064   4.668   4.086
 9453TIP3    H128236   6.968   4.662   4.069
 9453TIP3    H228237   7.078   4.607   4.160
 9454TIP3   OH228238   6.888   4.902   3.790
 9454TIP3    H128239   6.985   4.901   3.794
 9454TIP3    H228240   6.864   4.986   3.830
 9455TIP3   OH228241   8.760   5.357   3.851
 9455TIP3    H128242   8.753   5.260   3.856
 9455TIP3    H228243   8.674   5.382   3.893
 9456TIP3   OH228244   7.878   5.140   3.982
 9456TIP3    H128245   7.881   5.234   4.007
 9456TIP3    H228246   7.829   5.100   4.054
 9457TIP3   OH228247   7.625   5.271   2.934
 9457TIP3    H128248   7.577   5.253   2.851
 9457TIP3    H228249   7.592   5.359   2.960
 9458TIP3   OH228250   7.062   5.119   3.317
 9458TIP3    H128251   7.110   5.109   3.403
 9458TIP3    H228252   7.001   5.043   3.323
 9459TIP3   OH228253   7.826   5.172   2.575
 9459TIP3    H128254   7.885   5.102   2.539
 9459TIP3    H228255   7.859   5.181   2.666
 9460TIP3   OH228256   7.876   5.219   2.845
 9460TIP3    H128257   7.787   5.230   2.886
 9460TIP3    H228258   7.926   5.180   2.919
 9461TIP3   OH228259   8.649   4.489   4.121
 9461TIP3    H128260   8.562   4.507   4.083
 9461TIP3    H228261   8.657   4.392   4.108
 9462TIP3   OH228262   7.644   3.719   3.931
 9462TIP3    H128263   7.555   3.687   3.906
 9462TIP3    H228264   7.618   3.800   3.978
 9463TIP3   OH228265   8.176   3.834   4.127
 9463TIP3    H128266   8.243   3.805   4.192
 9463TIP3    H228267   8.092   3.813   4.172
 9464TIP3   OH228268   8.421   4.270   4.049
 9464TIP3    H128269   8.367   4.260   4.130
 9464TIP3    H228270   8.389   4.354   4.012
 9465TIP3   OH228271   8.076   4.392   2.601
 9465TIP3    H128272   8.043   4.366   2.513
 9465TIP3    H228273   8.156   4.442   2.576
 9466TIP3   OH228274   7.790   3.767   2.903
 9466TIP3    H128275   7.756   3.764   2.995
 9466TIP3    H228276   7.750   3.684   2.869
 9467TIP3   OH228277   7.577   4.231   3.953
 9467TIP3    H128278   7.523   4.253   4.032
 9467TIP3    H228279   7.562   4.312   3.899
 9468TIP3   OH228280   7.459   4.119   3.465
 9468TIP3    H128281   7.366   4.094   3.483
 9468TIP3    H228282   7.471   4.078   3.376
 9469TIP3   OH228283   7.950   4.205   3.191
 9469TIP3    H128284   7.896   4.277   3.151
 9469TIP3    H228285   8.003   4.175   3.114
 9470TIP3   OH228286   8.124   4.484   4.279
 9470TIP3    H128287   8.100   4.412   4.342
 9470TIP3    H228288   8.218   4.498   4.302
 9471TIP3   OH228289   8.098   4.229   3.437
 9471TIP3    H128290   8.044   4.268   3.366
 9471TIP3    H228291   8.133   4.151   3.389
 9472TIP3   OH228292   7.397   4.261   4.161
 9472TIP3    H128293   7.407   4.326   4.232
 9472TIP3    H228294   7.382   4.178   4.211
 9473TIP3   OH228295   7.444   3.739   2.870
 9473TIP3    H128296   7.436   3.737   2.967
 9473TIP3    H228297   7.365   3.792   2.845
 9474TIP3   OH228298   6.987   3.784   3.740
 9474TIP3    H128299   7.062   3.816   3.794
 9474TIP3    H228300   7.028   3.752   3.658
 9475TIP3   OH228301   6.962   3.766   3.259
 9475TIP3    H128302   7.007   3.806   3.181
 9475TIP3    H228303   6.900   3.838   3.281
 9476TIP3   OH228304   8.117   4.473   3.850
 9476TIP3    H128305   8.155   4.403   3.793
 9476TIP3    H228306   8.088   4.422   3.928
 9477TIP3   OH228307   7.787   3.940   3.527
 9477TIP3    H128308   7.702   3.939   3.576
 9477TIP3    H228309   7.850   3.943   3.601
 9478TIP3   OH228310   7.221   3.997   3.534
 9478TIP3    H128311   7.126   4.006   3.508
 9478TIP3    H228312   7.241   3.905   3.511
 9479TIP3   OH228313   7.491   3.994   3.222
 9479TIP3    H128314   7.585   4.010   3.199
 9479TIP3    H228315   7.443   4.016   3.140
 9480TIP3   OH228316   8.277   4.013   3.727
 9480TIP3    H128317   8.244   4.028   3.819
 9480TIP3    H228318   8.207   3.954   3.694
 9481TIP3   OH228319   7.332   4.026   3.003
 9481TIP3    H128320   7.258   3.983   2.956
 9481TIP3    H228321   7.382   4.062   2.927
 9482TIP3   OH228322   8.447   5.706   3.948
 9482TIP3    H128323   8.442   5.727   3.852
 9482TIP3    H228324   8.523   5.759   3.975
 9483TIP3   OH228325   7.869   4.269   3.626
 9483TIP3    H128326   7.941   4.227   3.575
 9483TIP3    H228327   7.876   4.225   3.713
 9484TIP3   OH228328   7.395   3.757   3.502
 9484TIP3    H128329   7.359   3.678   3.548
 9484TIP3    H228330   7.442   3.718   3.427
 9485TIP3   OH228331   7.847   4.167   3.912
 9485TIP3    H128332   7.756   4.201   3.925
 9485TIP3    H228333   7.901   4.229   3.964
 9486TIP3   OH228334   7.584   4.557   3.009
 9486TIP3    H128335   7.511   4.492   2.998
 9486TIP3    H228336   7.565   4.591   3.100
 9487TIP3   OH228337   8.496   4.753   3.618
 9487TIP3    H128338   8.507   4.831   3.560
 9487TIP3    H228339   8.425   4.784   3.679
 9488TIP3   OH228340   8.041   3.868   2.873
 9488TIP3    H128341   7.944   3.852   2.878
 9488TIP3    H228342   8.049   3.964   2.893
 9489TIP3   OH228343   7.943   4.868   4.038
 9489TIP3    H128344   8.020   4.845   4.091
 9489TIP3    H228345   7.962   4.958   4.009
 9490TIP3   OH228346   8.112   4.117   2.974
 9490TIP3    H128347   8.208   4.125   2.984
 9490TIP3    H228348   8.090   4.196   2.920
 9491TIP3   OH228349   7.280   4.585   3.687
 9491TIP3    H128350   7.315   4.549   3.603
 9491TIP3    H228351   7.303   4.516   3.751
 9492TIP3   OH228352   7.728   4.706   2.829
 9492TIP3    H128353   7.680   4.793   2.835
 9492TIP3    H228354   7.673   4.652   2.890
 9493TIP3   OH228355   7.155   4.499   4.297
 9493TIP3    H128356   7.177   4.489   4.391
 9493TIP3    H228357   7.083   4.434   4.287
 9494TIP3   OH228358   7.881   4.610   4.322
 9494TIP3    H128359   7.818   4.554   4.274
 9494TIP3    H228360   7.967   4.577   4.287
 9495TIP3   OH228361   8.133   5.192   3.874
 9495TIP3    H128362   8.046   5.153   3.893
 9495TIP3    H228363   8.170   5.201   3.964
 9496TIP3   OH228364   8.552   4.207   2.812
 9496TIP3    H128365   8.491   4.161   2.749
 9496TIP3    H228366   8.549   4.295   2.769
 9497TIP3   OH228367   8.753   5.060   3.887
 9497TIP3    H128368   8.656   5.064   3.882
 9497TIP3    H228369   8.777   5.032   3.796
 9498TIP3   OH228370   8.254   5.026   2.718
 9498TIP3    H128371   8.226   4.957   2.780
 9498TIP3    H228372   8.265   4.978   2.634
 9499TIP3   OH228373   8.211   4.661   3.519
 9499TIP3    H128374   8.122   4.637   3.552
 9499TIP3    H228375   8.266   4.591   3.556
 9500TIP3   OH228376   7.375   4.883   3.312
 9500TIP3    H128377   7.376   4.964   3.257
 9500TIP3    H228378   7.281   4.866   3.317
 9501TIP3   OH228379   6.939   4.187   3.012
 9501TIP3    H128380   6.984   4.271   3.033
 9501TIP3    H228381   6.862   4.192   3.073
 9502TIP3   OH228382   7.515   4.650   3.254
 9502TIP3    H128383   7.480   4.739   3.273
 9502TIP3    H228384   7.478   4.599   3.329
 9503TIP3   OH228385   7.659   5.242   3.816
 9503TIP3    H128386   7.682   5.305   3.745
 9503TIP3    H228387   7.741   5.189   3.820
 9504TIP3   OH228388   7.297   5.120   3.163
 9504TIP3    H128389   7.210   5.130   3.207
 9504TIP3    H228390   7.330   5.212   3.165
 9505TIP3   OH228391   8.037   4.863   3.741
 9505TIP3    H128392   8.037   4.850   3.837
 9505TIP3    H228393   8.131   4.841   3.725
 9506TIP3   OH228394   8.006   4.752   2.619
 9506TIP3    H128395   8.059   4.728   2.698
 9506TIP3    H228396   7.918   4.727   2.648
 9507TIP3   OH228397   8.284   5.407   3.801
 9507TIP3    H128398   8.216   5.335   3.804
 9507TIP3    H228399   8.260   5.454   3.719
 9508TIP3   OH228400   8.347   5.229   2.440
 9508TIP3    H128401   8.384   5.301   2.387
 9508TIP3    H228402   8.267   5.274   2.474
 9509TIP3   OH228403   7.367   4.003   4.306
 9509TIP3    H128404   7.271   4.010   4.321
 9509TIP3    H228405   7.394   3.945   4.379
 9510TIP3   OH228406   8.167   4.688   2.834
 9510TIP3    H128407   8.156   4.622   2.906
 9510TIP3    H228408   8.264   4.686   2.823
 9511TIP3   OH228409   7.375   4.734   2.618
 9511TIP3    H128410   7.388   4.641   2.590
 9511TIP3    H228411   7.356   4.722   2.714
 9512TIP3   OH228412   7.320   4.739   2.891
 9512TIP3    H128413   7.390   4.713   2.953
 9512TIP3    H228414   7.324   4.837   2.898
 9513TIP3   OH228415   7.056   4.433   3.095
 9513TIP3    H128416   6.990   4.477   3.152
 9513TIP3    H228417   7.069   4.503   3.028
 9514TIP3   OH228418   8.207   4.067   3.985
 9514TIP3    H128419   8.281   4.105   4.034
 9514TIP3    H228420   8.187   3.987   4.039
 9515TIP3   OH228421   8.083   3.821   3.151
 9515TIP3    H128422   8.067   3.842   3.057
 9515TIP3    H228423   8.119   3.905   3.185
 9516TIP3   OH228424   7.585   4.937   2.840
 9516TIP3    H128425   7.499   4.963   2.876
 9516TIP3    H228426   7.602   5.010   2.779
 9517TIP3   OH228427   7.777   3.998   3.254
 9517TIP3    H128428   7.840   4.072   3.237
 9517TIP3    H228429   7.779   3.994   3.352
 9518TIP3   OH228430   8.045   4.319   4.062
 9518TIP3    H128431   8.059   4.376   4.140
 9518TIP3    H228432   8.097   4.240   4.085
 9519TIP3   OH228433   7.919   3.730   3.360
 9519TIP3    H128434   7.905   3.810   3.414
 9519TIP3    H228435   7.978   3.765   3.289
 9520TIP3   OH228436   7.328   5.011   2.908
 9520TIP3    H128437   7.298   5.081   2.845
 9520TIP3    H228438   7.312   5.055   2.994
 9521TIP3   OH228439   7.429   3.725   3.146
 9521TIP3    H128440   7.426   3.815   3.182
 9521TIP3    H228441   7.525   3.707   3.154
 9522TIP3   OH228442   8.685   4.218   4.039
 9522TIP3    H128443   8.587   4.221   4.052
 9522TIP3    H228444   8.689   4.162   3.961
 9523TIP3   OH228445   7.046   4.643   2.901
 9523TIP3    H128446   7.109   4.716   2.910
 9523TIP3    H228447   7.093   4.589   2.834
 9524TIP3   OH228448   6.992   3.918   3.032
 9524TIP3    H128449   6.990   4.015   3.029
 9524TIP3    H228450   6.905   3.895   2.996
 9525TIP3   OH228451   8.301   5.369   3.381
 9525TIP3    H128452   8.259   5.417   3.305
 9525TIP3    H228453   8.395   5.385   3.360
 9526TIP3   OH228454   7.381   3.637   3.907
 9526TIP3    H128455   7.347   3.605   3.821
 9526TIP3    H228456   7.368   3.559   3.965
 9527TIP3   OH228457   6.919   4.855   3.289
 9527TIP3    H128458   6.847   4.887   3.345
 9527TIP3    H228459   6.894   4.895   3.203
 9528TIP3   OH228460   7.537   4.938   2.532
 9528TIP3    H128461   7.481   4.867   2.570
 9528TIP3    H228462   7.612   4.885   2.500
 9529TIP3   OH228463   8.190   5.268   4.143
 9529TIP3    H128464   8.184   5.195   4.210
 9529TIP3    H228465   8.270   5.315   4.169
 9530TIP3   OH228466   7.974   4.979   2.443
 9530TIP3    H128467   8.019   4.915   2.501
 9530TIP3    H228468   8.030   4.979   2.364
 9531TIP3   OH228469   7.181   4.456   2.752
 9531TIP3    H128470   7.235   4.422   2.825
 9531TIP3    H228471   7.250   4.460   2.681
 9532TIP3   OH228472   7.806   4.880   4.319
 9532TIP3    H128473   7.789   4.862   4.225
 9532TIP3    H228474   7.852   4.796   4.341
 9533TIP3   OH228475   7.691   4.654   2.560
 9533TIP3    H128476   7.693   4.666   2.656
 9533TIP3    H228477   7.690   4.556   2.555
 9534TIP3   OH228478   7.346   4.527   4.523
 9534TIP3    H128479   7.411   4.460   4.546
 9534TIP3    H228480   7.339   4.576   4.607
 9535TIP3   OH228481   7.392   4.358   2.977
 9535TIP3    H128482   7.362   4.317   3.059
 9535TIP3    H228483   7.426   4.281   2.926
 9536TIP3   OH228484   7.664   4.427   4.206
 9536TIP3    H128485   7.580   4.477   4.202
 9536TIP3    H228486   7.709   4.456   4.123
 9537TIP3   OH228487   7.489   4.150   2.816
 9537TIP3    H128488   7.463   4.154   2.722
 9537TIP3    H228489   7.587   4.157   2.808
 9538TIP3   OH228490   8.177   4.824   4.338
 9538TIP3    H128491   8.252   4.797   4.284
 9538TIP3    H228492   8.175   4.756   4.407
 9539TIP3   OH228493   8.315   4.483   2.478
 9539TIP3    H128494   8.292   4.437   2.395
 9539TIP3    H228495   8.282   4.573   2.455
 9540TIP3   OH228496   7.785   4.211   4.328
 9540TIP3    H128497   7.781   4.130   4.273
 9540TIP3    H228498   7.739   4.277   4.272
 9541TIP3   OH228499   7.785   3.996   4.135
 9541TIP3    H128500   7.810   4.038   4.050
 9541TIP3    H228501   7.691   3.974   4.119
 9542TIP3   OH228502   7.815   4.533   4.005
 9542TIP3    H128503   7.897   4.546   3.957
 9542TIP3    H228504   7.757   4.601   3.966
 9543TIP3   OH228505   8.394   4.500   4.392
 9543TIP3    H128506   8.444   4.418   4.403
 9543TIP3    H228507   8.459   4.560   4.353
 9544TIP3   OH228508   8.443   4.758   4.147
 9544TIP3    H128509   8.384   4.791   4.075
 9544TIP3    H228510   8.529   4.772   4.100
 9545TIP3   OH228511   7.661   4.323   4.559
 9545TIP3    H128512   7.591   4.256   4.574
 9545TIP3    H228513   7.694   4.297   4.471
 9546TIP3   OH228514   7.917   3.761   4.202
 9546TIP3    H128515   7.867   3.843   4.180
 9546TIP3    H228516   7.847   3.693   4.192
 9547TIP3   OH228517   8.044   4.265   4.419
 9547TIP3    H128518   8.030   4.253   4.515
 9547TIP3    H228519   7.954   4.241   4.388
 9548TIP3   OH228520   8.282   4.211   4.273
 9548TIP3    H128521   8.205   4.216   4.334
 9548TIP3    H228522   8.353   4.181   4.333
 9549TIP3   OH228523   8.523   4.157   4.425
 9549TIP3    H128524   8.527   4.060   4.444
 9549TIP3    H228525   8.509   4.195   4.514
 9550TIP3   OH228526   7.500   4.104   4.611
 9550TIP3    H128527   7.505   4.012   4.577
 9550TIP3    H228528   7.535   4.091   4.702
 9551TIP3   OH228529   8.013   3.772   4.459
 9551TIP3    H128530   8.079   3.700   4.455
 9551TIP3    H228531   7.972   3.764   4.371
 9552TIP3   OH228532   8.079   3.987   4.618
 9552TIP3    H128533   8.055   3.915   4.555
 9552TIP3    H228534   8.000   4.045   4.614
 9553TIP3   OH228535   7.297   5.212   2.719
 9553TIP3    H128536   7.393   5.211   2.700
 9553TIP3    H228537   7.266   5.263   2.642
 9554TIP3   OH228538   6.777   4.596   2.936
 9554TIP3    H128539   6.872   4.618   2.923
 9554TIP3    H228540   6.772   4.507   2.895
 9555TIP3   OH228541   6.693   5.206   3.348
 9555TIP3    H128542   6.624   5.145   3.314
 9555TIP3    H228543   6.736   5.149   3.415
 9556TIP3   OH228544   6.829   5.058   3.534
 9556TIP3    H128545   6.813   4.985   3.596
 9556TIP3    H228546   6.881   5.118   3.590
 9557TIP3   OH228547   8.556   5.457   3.336
 9557TIP3    H128548   8.579   5.491   3.424
 9557TIP3    H228549   8.614   5.508   3.277
 9558TIP3   OH228550   8.585   5.484   3.616
 9558TIP3    H128551   8.534   5.399   3.612
 9558TIP3    H228552   8.659   5.455   3.671
 9559TIP3   OH228553   8.636   5.161   4.194
 9559TIP3    H128554   8.558   5.164   4.253
 9559TIP3    H228555   8.673   5.251   4.205
 9560TIP3   OH228556   8.447   4.671   2.811
 9560TIP3    H128557   8.514   4.736   2.782
 9560TIP3    H228558   8.491   4.632   2.890
 9561TIP3   OH228559   8.577   4.538   3.013
 9561TIP3    H128560   8.512   4.495   3.073
 9561TIP3    H228561   8.640   4.579   3.076
 9562TIP3   OH228562   8.640   4.937   3.454
 9562TIP3    H128563   8.678   4.870   3.395
 9562TIP3    H228564   8.617   5.008   3.391
 9563TIP3   OH228565   8.468   5.237   3.641
 9563TIP3    H128566   8.396   5.249   3.704
 9563TIP3    H228567   8.429   5.171   3.580
 9564TIP3   OH228568   8.513   4.445   2.663
 9564TIP3    H128569   8.442   4.447   2.595
 9564TIP3    H228570   8.485   4.522   2.717
 9565TIP3   OH228571   8.384   4.120   2.619
 9565TIP3    H128572   8.343   4.157   2.540
 9565TIP3    H228573   8.358   4.025   2.610
 9566TIP3   OH228574   8.391   4.389   3.162
 9566TIP3    H128575   8.393   4.294   3.143
 9566TIP3    H228576   8.355   4.393   3.252
 9567TIP3   OH228577   7.009   4.447   3.906
 9567TIP3    H128578   7.012   4.427   3.811
 9567TIP3    H228579   7.104   4.466   3.925
 9568TIP3   OH228580   8.684   4.817   4.027
 9568TIP3    H128581   8.757   4.753   4.011
 9568TIP3    H228582   8.699   4.883   3.957
 9569TIP3   OH228583   8.868   4.621   4.032
 9569TIP3    H128584   8.792   4.575   4.074
 9569TIP3    H228585   8.939   4.556   4.049
 9570TIP3   OH228586   8.325   3.855   2.609
 9570TIP3    H128587   8.402   3.820   2.658
 9570TIP3    H228588   8.254   3.792   2.627
 9571TIP3   OH228589   8.389   4.114   3.060
 9571TIP3    H128590   8.426   4.024   3.073
 9571TIP3    H228591   8.445   4.143   2.986
 9572TIP3   OH228592   8.592   4.428   3.749
 9572TIP3    H128593   8.522   4.454   3.815
 9572TIP3    H228594   8.635   4.516   3.737
 9573TIP3   OH228595   7.233   4.153   4.581
 9573TIP3    H128596   7.330   4.147   4.585
 9573TIP3    H228597   7.208   4.069   4.624
 9574TIP3   OH228598   9.073   4.026   4.343
 9574TIP3    H128599   9.127   3.954   4.303
 9574TIP3    H228600   9.040   4.073   4.264
 9575TIP3   OH228601   8.490   3.861   3.098
 9575TIP3    H128602   8.542   3.838   3.177
 9575TIP3    H228603   8.430   3.784   3.092
 9576TIP3   OH228604   7.195   3.845   3.911
 9576TIP3    H128605   7.258   3.771   3.923
 9576TIP3    H228606   7.255   3.921   3.908
 9577TIP3   OH228607   6.999   4.119   3.989
 9577TIP3    H128608   7.047   4.116   3.904
 9577TIP3    H228609   7.017   4.210   4.017
 9578TIP3   OH228610   8.937   4.158   4.149
 9578TIP3    H128611   8.849   4.197   4.166
 9578TIP3    H228612   8.912   4.087   4.087
 9579TIP3   OH228613   8.577   3.794   2.729
 9579TIP3    H128614   8.613   3.722   2.673
 9579TIP3    H228615   8.644   3.864   2.716
 9580TIP3   OH228616   6.980   3.623   3.488
 9580TIP3    H128617   6.887   3.621   3.515
 9580TIP3    H228618   6.977   3.682   3.410
 9581TIP3   OH228619   8.140   5.326   2.994
 9581TIP3    H128620   8.191   5.312   2.911
 9581TIP3    H228621   8.192   5.394   3.039
 9582TIP3   OH228622   7.200   3.701   4.301
 9582TIP3    H128623   7.150   3.699   4.385
 9582TIP3    H228624   7.134   3.742   4.242
 9583TIP3   OH228625   7.849   5.399   4.074
 9583TIP3    H128626   7.899   5.407   4.158
 9583TIP3    H228627   7.907   5.453   4.015
 9584TIP3   OH228628   8.031   5.551   3.931
 9584TIP3    H128629   8.097   5.500   3.880
 9584TIP3    H228630   8.090   5.608   3.985
 9585TIP3   OH228631   8.836   3.919   4.023
 9585TIP3    H128632   8.744   3.907   3.994
 9585TIP3    H228633   8.870   3.827   4.014
 9586TIP3   OH228634   7.088   5.412   3.929
 9586TIP3    H128635   7.000   5.456   3.924
 9586TIP3    H228636   7.105   5.415   4.024
 9587TIP3   OH228637   7.345   5.416   3.807
 9587TIP3    H128638   7.260   5.405   3.855
 9587TIP3    H228639   7.313   5.446   3.719
 9588TIP3   OH228640   7.752   5.427   3.608
 9588TIP3    H128641   7.685   5.446   3.540
 9588TIP3    H228642   7.766   5.516   3.647
 9589TIP3   OH228643   8.022   5.375   3.654
 9589TIP3    H128644   7.928   5.389   3.631
 9589TIP3    H228645   8.067   5.448   3.609
 9590TIP3   OH228646   8.235   5.560   3.573
 9590TIP3    H128647   8.220   5.643   3.523
 9590TIP3    H228648   8.259   5.497   3.501
 9591TIP3   OH228649   7.007   5.216   3.690
 9591TIP3    H128650   7.049   5.240   3.775
 9591TIP3    H228651   7.081   5.169   3.644
 9592TIP3   OH228652   7.200   5.084   3.552
 9592TIP3    H128653   7.220   5.001   3.601
 9592TIP3    H228654   7.290   5.122   3.542
 9593TIP3   OH228655   7.463   5.181   3.553
 9593TIP3    H128656   7.502   5.092   3.544
 9593TIP3    H228657   7.488   5.204   3.644
 9594TIP3   OH228658   8.048   3.838   3.649
 9594TIP3    H128659   7.998   3.771   3.699
 9594TIP3    H228660   8.108   3.784   3.596
 9595TIP3   OH228661   8.568   3.727   3.556
 9595TIP3    H128662   8.603   3.767   3.473
 9595TIP3    H228663   8.471   3.729   3.541
 9596TIP3   OH228664   8.658   3.823   3.317
 9596TIP3    H128665   8.725   3.763   3.278
 9596TIP3    H228666   8.699   3.909   3.292
 9597TIP3   OH228667   7.291   3.546   3.659
 9597TIP3    H128668   7.199   3.513   3.660
 9597TIP3    H228669   7.340   3.460   3.655
 9598TIP3   OH228670   7.079   3.414   3.307
 9598TIP3    H128671   7.106   3.473   3.234
 9598TIP3    H228672   7.047   3.478   3.374
 9599TIP3   OH228673   7.735   3.576   3.539
 9599TIP3    H128674   7.794   3.628   3.482
 9599TIP3    H228675   7.751   3.616   3.625
 9600TIP3   OH228676   8.293   3.723   3.516
 9600TIP3    H128677   8.275   3.683   3.430
 9600TIP3    H228678   8.274   3.648   3.577
 9601TIP3   OH228679   8.311   3.647   3.086
 9601TIP3    H128680   8.222   3.687   3.095
 9601TIP3    H228681   8.296   3.561   3.132
 9602TIP3   OH228682   6.795   4.985   3.088
 9602TIP3    H128683   6.710   4.953   3.052
 9602TIP3    H228684   6.784   5.080   3.072
 9603TIP3   OH228685   7.193   3.574   3.070
 9603TIP3    H128686   7.243   3.512   3.013
 9603TIP3    H228687   7.265   3.629   3.107
 9604TIP3   OH228688   7.706   3.749   3.169
 9604TIP3    H128689   7.765   3.701   3.229
 9604TIP3    H228690   7.729   3.841   3.194
 9605TIP3   OH228691   7.566   5.175   2.669
 9605TIP3    H128692   7.654   5.197   2.633
 9605TIP3    H228693   7.544   5.100   2.609
 9606TIP3   OH228694   8.286   5.293   2.761
 9606TIP3    H128695   8.277   5.195   2.749
 9606TIP3    H228696   8.239   5.325   2.681
 9607TIP3   OH228697   7.499   3.827   4.549
 9607TIP3    H128698   7.463   3.757   4.607
 9607TIP3    H228699   7.593   3.827   4.578
 9608TIP3   OH228700   7.748   3.823   4.670
 9608TIP3    H128701   7.832   3.795   4.631
 9608TIP3    H228702   7.733   3.753   4.737
 9609TIP3   OH228703   6.869   5.011   2.726
 9609TIP3    H128704   6.868   5.040   2.818
 9609TIP3    H228705   6.959   4.971   2.717
 9610TIP3   OH228706   8.571   3.884   4.458
 9610TIP3    H128707   8.589   3.852   4.549
 9610TIP3    H228708   8.660   3.877   4.416
 9611TIP3   OH228709   8.511   5.437   3.954
 9611TIP3    H128710   8.434   5.407   3.901
 9611TIP3    H228711   8.493   5.534   3.953
 9612TIP3   OH228712   9.079   4.704   3.460
 9612TIP3    H128713   9.111   4.636   3.522
 9612TIP3    H228714   9.155   4.764   3.457
 9613TIP3   OH228715   9.041   5.115   3.195
 9613TIP3    H128716   9.037   5.016   3.196
 9613TIP3    H228717   9.136   5.127   3.175
 9614TIP3   OH228718   8.751   4.315   2.975
 9614TIP3    H128719   8.703   4.400   2.985
 9614TIP3    H228720   8.682   4.262   2.931
 9615TIP3   OH228721   8.815   4.605   3.143
 9615TIP3    H128722   8.862   4.527   3.179
 9615TIP3    H228723   8.871   4.629   3.068
 9616TIP3   OH228724   9.556   5.515   2.819
 9616TIP3    H128725   9.637   5.531   2.766
 9616TIP3    H228726   9.592   5.520   2.908
 9617TIP3   OH228727   9.525   5.048   3.141
 9617TIP3    H128728   9.533   4.988   3.064
 9617TIP3    H228729   9.619   5.051   3.166
 9618TIP3   OH228730   9.306   4.199   3.154
 9618TIP3    H128731   9.310   4.263   3.081
 9618TIP3    H228732   9.279   4.119   3.105
 9619TIP3   OH228733   8.949   4.393   3.256
 9619TIP3    H128734   9.033   4.377   3.303
 9619TIP3    H228735   8.965   4.342   3.174
 9620TIP3   OH228736   9.360   4.614   3.030
 9620TIP3    H128737   9.455   4.593   3.043
 9620TIP3    H228738   9.327   4.526   3.001
 9621TIP3   OH228739   9.317   4.179   3.582
 9621TIP3    H128740   9.259   4.214   3.512
 9621TIP3    H228741   9.265   4.200   3.662
 9622TIP3   OH228742   9.401   4.963   3.366
 9622TIP3    H128743   9.344   5.032   3.407
 9622TIP3    H228744   9.443   5.012   3.293
 9623TIP3   OH228745   9.183   4.295   3.370
 9623TIP3    H128746   9.249   4.365   3.389
 9623TIP3    H228747   9.227   4.253   3.292
 9624TIP3   OH228748   9.250   5.157   3.475
 9624TIP3    H128749   9.224   5.242   3.435
 9624TIP3    H228750   9.170   5.140   3.530
 9625TIP3   OH228751   8.652   4.838   2.706
 9625TIP3    H128752   8.610   4.865   2.622
 9625TIP3    H228753   8.681   4.924   2.742
 9626TIP3   OH228754   9.162   4.760   2.921
 9626TIP3    H128755   9.123   4.699   2.854
 9626TIP3    H228756   9.237   4.706   2.955
 9627TIP3   OH228757   9.287   5.167   3.073
 9627TIP3    H128758   9.271   5.126   2.987
 9627TIP3    H228759   9.373   5.129   3.100
 9628TIP3   OH228760   9.332   4.709   3.293
 9628TIP3    H128761   9.345   4.696   3.197
 9628TIP3    H228762   9.357   4.803   3.307
 9629TIP3   OH228763   9.459   5.274   3.615
 9629TIP3    H128764   9.396   5.334   3.660
 9629TIP3    H228765   9.395   5.219   3.564
 9630TIP3   OH228766   9.211   4.829   3.715
 9630TIP3    H128767   9.214   4.917   3.759
 9630TIP3    H228768   9.116   4.808   3.724
 9631TIP3   OH228769   9.511   5.308   2.643
 9631TIP3    H128770   9.517   5.378   2.711
 9631TIP3    H228771   9.449   5.347   2.579
 9632TIP3   OH228772   9.255   5.441   3.701
 9632TIP3    H128773   9.221   5.439   3.609
 9632TIP3    H228774   9.176   5.416   3.753
 9633TIP3   OH228775   9.050   4.582   2.737
 9633TIP3    H128776   8.984   4.627   2.680
 9633TIP3    H228777   9.011   4.495   2.747
 9634TIP3   OH228778   8.834   4.970   3.647
 9634TIP3    H128779   8.766   4.952   3.578
 9634TIP3    H228780   8.869   4.880   3.666
 9635TIP3   OH228781   8.689   5.164   3.274
 9635TIP3    H128782   8.786   5.161   3.270
 9635TIP3    H228783   8.673   5.241   3.330
 9636TIP3   OH228784   9.650   5.402   3.469
 9636TIP3    H128785   9.650   5.493   3.503
 9636TIP3    H228786   9.579   5.360   3.522
 9637TIP3   OH228787   9.405   5.523   2.434
 9637TIP3    H128788   9.376   5.509   2.343
 9637TIP3    H228789   9.390   5.618   2.449
 9638TIP3   OH228790   8.858   5.377   2.805
 9638TIP3    H128791   8.905   5.367   2.890
 9638TIP3    H228792   8.797   5.301   2.809
 9639TIP3   OH228793   9.036   5.153   3.640
 9639TIP3    H128794   9.087   5.132   3.721
 9639TIP3    H228795   8.963   5.088   3.645
 9640TIP3   OH228796   9.426   3.969   3.433
 9640TIP3    H128797   9.339   3.944   3.399
 9640TIP3    H228798   9.406   4.054   3.475
 9641TIP3   OH228799   9.373   4.481   3.432
 9641TIP3    H128800   9.325   4.504   3.514
 9641TIP3    H228801   9.363   4.564   3.381
 9642TIP3   OH228802   9.253   4.375   2.949
 9642TIP3    H128803   9.163   4.344   2.973
 9642TIP3    H228804   9.259   4.343   2.856
 9643TIP3   OH228805   9.189   4.515   3.646
 9643TIP3    H128806   9.220   4.577   3.713
 9643TIP3    H228807   9.181   4.432   3.698
 9644TIP3   OH228808   9.221   4.036   2.366
 9644TIP3    H128809   9.201   3.964   2.426
 9644TIP3    H228810   9.166   4.015   2.290
 9645TIP3   OH228811   8.782   4.045   3.235
 9645TIP3    H128812   8.863   4.074   3.279
 9645TIP3    H228813   8.812   4.014   3.147
 9646TIP3   OH228814   8.759   4.023   2.751
 9646TIP3    H128815   8.802   4.059   2.670
 9646TIP3    H228816   8.696   4.095   2.769
 9647TIP3   OH228817   9.014   4.255   3.025
 9647TIP3    H128818   8.921   4.259   2.995
 9647TIP3    H228819   9.042   4.164   3.002
 9648TIP3   OH228820   9.268   4.282   2.689
 9648TIP3    H128821   9.338   4.284   2.623
 9648TIP3    H228822   9.190   4.289   2.628
 9649TIP3   OH228823   9.097   4.292   2.483
 9649TIP3    H128824   9.035   4.240   2.430
 9649TIP3    H228825   9.166   4.309   2.416
 9650TIP3   OH228826   9.201   5.072   3.857
 9650TIP3    H128827   9.279   5.104   3.906
 9650TIP3    H228828   9.134   5.072   3.928
 9651TIP3   OH228829   9.187   4.017   2.982
 9651TIP3    H128830   9.154   3.939   3.031
 9651TIP3    H228831   9.238   3.976   2.911
 9652TIP3   OH228832   9.345   4.828   2.491
 9652TIP3    H128833   9.287   4.750   2.495
 9652TIP3    H228834   9.363   4.848   2.585
 9653TIP3   OH228835   9.727   5.132   3.509
 9653TIP3    H128836   9.762   5.110   3.597
 9653TIP3    H228837   9.706   5.227   3.515
 9654TIP3   OH228838   9.074   4.839   3.175
 9654TIP3    H128839   9.100   4.812   3.085
 9654TIP3    H228840   9.106   4.767   3.230
 9655TIP3   OH228841   8.953   4.756   3.785
 9655TIP3    H128842   8.969   4.739   3.880
 9655TIP3    H228843   8.883   4.691   3.765
 9656TIP3   OH228844   9.647   4.824   3.824
 9656TIP3    H128845   9.561   4.792   3.791
 9656TIP3    H228846   9.702   4.747   3.802
 9657TIP3   OH228847   9.171   5.138   2.796
 9657TIP3    H128848   9.173   5.219   2.741
 9657TIP3    H228849   9.076   5.122   2.800
 9658TIP3   OH228850   8.734   4.444   2.497
 9658TIP3    H128851   8.780   4.528   2.518
 9658TIP3    H228852   8.657   4.449   2.559
 9659TIP3   OH228853   9.342   4.920   2.771
 9659TIP3    H128854   9.290   5.002   2.764
 9659TIP3    H228855   9.280   4.863   2.821
 9660TIP3   OH228856   9.441   5.481   3.266
 9660TIP3    H128857   9.477   5.554   3.213
 9660TIP3    H228858   9.520   5.450   3.314
 9661TIP3   OH228859   9.093   5.377   2.650
 9661TIP3    H128860   9.007   5.387   2.695
 9661TIP3    H228861   9.125   5.470   2.651
 9662TIP3   OH228862   9.164   4.263   3.800
 9662TIP3    H128863   9.067   4.262   3.809
 9662TIP3    H228864   9.190   4.195   3.864
 9663TIP3   OH228865   8.881   5.347   3.423
 9663TIP3    H128866   8.930   5.269   3.455
 9663TIP3    H228867   8.908   5.414   3.487
 9664TIP3   OH228868   9.175   4.988   2.105
 9664TIP3    H128869   9.192   4.895   2.081
 9664TIP3    H228870   9.158   4.979   2.201
 9665TIP3   OH228871   9.120   4.992   2.378
 9665TIP3    H128872   9.204   4.962   2.418
 9665TIP3    H228873   9.124   5.089   2.391
 9666TIP3   OH228874   8.851   4.690   2.582
 9666TIP3    H128875   8.785   4.735   2.638
 9666TIP3    H228876   8.866   4.760   2.514
 9667TIP3   OH228877   9.374   5.219   2.335
 9667TIP3    H128878   9.284   5.234   2.369
 9667TIP3    H228879   9.386   5.297   2.279
 9668TIP3   OH228880   9.110   5.269   2.394
 9668TIP3    H128881   9.083   5.340   2.332
 9668TIP3    H228882   9.100   5.313   2.481
 9669TIP3   OH228883   9.230   3.983   2.649
 9669TIP3    H128884   9.190   4.066   2.676
 9669TIP3    H228885   9.312   4.017   2.607
 9670TIP3   OH228886   8.842   4.902   2.389
 9670TIP3    H128887   8.910   4.971   2.400
 9670TIP3    H228888   8.887   4.847   2.322
 9671TIP3   OH228889   8.785   4.174   2.528
 9671TIP3    H128890   8.786   4.271   2.517
 9671TIP3    H228891   8.711   4.149   2.471
 9672TIP3   OH228892   9.156   3.897   3.397
 9672TIP3    H128893   9.137   3.862   3.307
 9672TIP3    H228894   9.159   3.815   3.451
 9673TIP3   OH228895   8.715   5.111   2.776
 9673TIP3    H128896   8.642   5.144   2.831
 9673TIP3    H228897   8.691   5.151   2.690
 9674TIP3   OH228898   8.869   5.652   3.847
 9674TIP3    H128899   8.956   5.649   3.892
 9674TIP3    H228900   8.846   5.557   3.843
 9675TIP3   OH228901   9.354   5.620   3.890
 9675TIP3    H128902   9.447   5.595   3.898
 9675TIP3    H228903   9.325   5.562   3.817
 9676TIP3   OH228904   9.320   5.205   2.020
 9676TIP3    H128905   9.269   5.128   2.057
 9676TIP3    H228906   9.412   5.172   2.033
 9677TIP3   OH228907   8.995   5.060   4.043
 9677TIP3    H128908   9.013   4.964   4.047
 9677TIP3    H228909   8.906   5.061   4.001
 9678TIP3   OH228910   8.974   4.713   2.244
 9678TIP3    H128911   9.030   4.681   2.316
 9678TIP3    H228912   9.040   4.721   2.172
 9679TIP3   OH228913   9.594   5.140   3.821
 9679TIP3    H128914   9.561   5.165   3.732
 9679TIP3    H228915   9.614   5.046   3.811
 9680TIP3   OH228916   9.122   4.794   4.030
 9680TIP3    H128917   9.200   4.741   4.006
 9680TIP3    H228918   9.148   4.828   4.118
 9681TIP3   OH228919   9.182   4.607   2.468
 9681TIP3    H128920   9.151   4.568   2.551
 9681TIP3    H228921   9.215   4.528   2.420
 9682TIP3   OH228922   9.432   4.676   3.708
 9682TIP3    H128923   9.352   4.734   3.708
 9682TIP3    H228924   9.478   4.713   3.629
 9683TIP3   OH228925   9.285   4.402   2.314
 9683TIP3    H128926   9.244   4.399   2.224
 9683TIP3    H228927   9.378   4.415   2.293
 9684TIP3   OH228928   9.542   4.467   3.846
 9684TIP3    H128929   9.568   4.387   3.795
 9684TIP3    H228930   9.494   4.519   3.778
 9685TIP3   OH228931   9.564   4.281   3.640
 9685TIP3    H128932   9.611   4.262   3.557
 9685TIP3    H228933   9.481   4.231   3.626
 9686TIP3   OH228934   9.556   4.802   3.514
 9686TIP3    H128935   9.605   4.763   3.440
 9686TIP3    H228936   9.505   4.872   3.467
 9687TIP3   OH228937   9.417   4.604   4.044
 9687TIP3    H128938   9.366   4.522   4.063
 9687TIP3    H228939   9.468   4.574   3.966
 9688TIP3   OH228940   9.296   4.363   4.101
 9688TIP3    H128941   9.304   4.278   4.054
 9688TIP3    H228942   9.331   4.340   4.189
 9689TIP3   OH228943   9.091   5.472   2.205
 9689TIP3    H128944   9.187   5.471   2.190
 9689TIP3    H228945   9.062   5.521   2.126
 9690TIP3   OH228946   8.574   4.852   2.424
 9690TIP3    H128947   8.668   4.875   2.410
 9690TIP3    H228948   8.569   4.764   2.382
 9691TIP3   OH228949   8.489   5.465   2.836
 9691TIP3    H128950   8.421   5.404   2.800
 9691TIP3    H228951   8.532   5.407   2.903
 9692TIP3   OH228952   8.625   5.317   3.023
 9692TIP3    H128953   8.612   5.243   3.085
 9692TIP3    H228954   8.674   5.379   3.080
 9693TIP3   OH228955   8.815   4.715   3.397
 9693TIP3    H128956   8.811   4.692   3.302
 9693TIP3    H228957   8.912   4.722   3.410
 9694TIP3   OH228958   9.028   4.407   4.071
 9694TIP3    H128959   9.126   4.400   4.069
 9694TIP3    H228960   9.005   4.321   4.110
 9695TIP3   OH228961   8.982   4.108   3.423
 9695TIP3    H128962   9.042   4.029   3.419
 9695TIP3    H228963   9.048   4.178   3.403
 9696TIP3   OH228964   8.752   4.385   3.477
 9696TIP3    H128965   8.804   4.361   3.397
 9696TIP3    H228966   8.800   4.466   3.503
 9697TIP3   OH228967   8.774   3.894   2.986
 9697TIP3    H128968   8.679   3.879   2.997
 9697TIP3    H228969   8.777   3.943   2.901
 9698TIP3   OH228970   8.993   3.976   3.793
 9698TIP3    H128971   8.943   3.956   3.874
 9698TIP3    H228972   8.923   3.988   3.728
 9699TIP3   OH228973   9.038   5.386   3.868
 9699TIP3    H128974   8.946   5.360   3.848
 9699TIP3    H228975   9.042   5.369   3.963
 9700TIP3   OH228976   9.214   5.423   3.416
 9700TIP3    H128977   9.163   5.496   3.375
 9700TIP3    H228978   9.299   5.436   3.369
 9701TIP3   OH228979   9.674   5.670   3.549
 9701TIP3    H128980   9.698   5.666   3.644
 9701TIP3    H228981   9.751   5.712   3.510
 9702TIP3   OH228982   8.893   5.678   3.437
 9702TIP3    H128983   8.804   5.710   3.410
 9702TIP3    H228984   8.895   5.711   3.528
 9703TIP3   OH228985   9.129   5.657   3.295
 9703TIP3    H128986   9.043   5.669   3.340
 9703TIP3    H228987   9.108   5.689   3.205
 9704TIP3   OH228988   9.536   5.685   3.089
 9704TIP3    H128989   9.467   5.702   3.022
 9704TIP3    H228990   9.549   5.774   3.128
 9705TIP3   OH228991   9.801   5.649   3.137
 9705TIP3    H128992   9.705   5.642   3.120
 9705TIP3    H228993   9.823   5.733   3.096
 9706TIP3   OH228994   8.803   5.473   3.182
 9706TIP3    H128995   8.829   5.444   3.273
 9706TIP3    H228996   8.874   5.427   3.131
 9707TIP3   OH228997   8.994   5.342   3.038
 9707TIP3    H128998   9.011   5.258   3.088
 9707TIP3    H228999   9.084   5.379   3.032
 9708TIP3   OH229000   9.259   5.443   3.040
 9708TIP3    H129001   9.283   5.350   3.026
 9708TIP3    H229002   9.302   5.459   3.125
 9709TIP3   OH229003   9.079   3.810   3.143
 9709TIP3    H129004   8.986   3.782   3.141
 9709TIP3    H229005   9.123   3.722   3.146
 9710TIP3   OH229006   8.877   3.670   2.793
 9710TIP3    H129007   8.904   3.727   2.719
 9710TIP3    H229008   8.846   3.736   2.858
 9711TIP3   OH229009   8.591   5.241   2.574
 9711TIP3    H129010   8.505   5.209   2.540
 9711TIP3    H229011   8.579   5.336   2.557
 9712TIP3   OH229012   8.981   3.837   2.570
 9712TIP3    H129013   9.016   3.771   2.507
 9712TIP3    H229014   9.063   3.879   2.603
 9713TIP3   OH229015   9.365   5.440   2.157
 9713TIP3    H129016   9.461   5.450   2.147
 9713TIP3    H229017   9.344   5.367   2.095
 9714TIP3   OH229018   9.259   4.079   4.020
 9714TIP3    H129019   9.227   4.010   4.080
 9714TIP3    H229020   9.353   4.082   4.048
 9715TIP3   OH229021   9.495   4.091   4.154
 9715TIP3    H129022   9.591   4.092   4.137
 9715TIP3    H229023   9.493   4.017   4.219
 9716TIP3   OH229024   8.666   5.269   2.213
 9716TIP3    H129025   8.664   5.295   2.306
 9716TIP3    H229026   8.755   5.229   2.204
 9717TIP3   OH229027   0.432   5.340   4.920
 9717TIP3    H129028   0.405   5.432   4.899
 9717TIP3    H229029   0.356   5.291   4.884
 9718TIP3   OH229030   0.441   5.337   5.294
 9718TIP3    H129031   0.466   5.308   5.383
 9718TIP3    H229032   0.397   5.258   5.259
 9719TIP3   OH229033   0.675   5.644   4.980
 9719TIP3    H129034   0.662   5.572   5.044
 9719TIP3    H229035   0.705   5.717   5.037
 9720TIP3   OH229036   0.324   6.108   4.994
 9720TIP3    H129037   0.368   6.033   4.949
 9720TIP3    H229038   0.306   6.071   5.081
 9721TIP3   OH229039   0.220   5.513   5.329
 9721TIP3    H129040   0.298   5.465   5.295
 9721TIP3    H229041   0.264   5.593   5.363
 9722TIP3   OH229042   1.240   4.887   5.344
 9722TIP3    H129043   1.272   4.968   5.388
 9722TIP3    H229044   1.269   4.903   5.252
 9723TIP3   OH229045   0.640   5.069   5.383
 9723TIP3    H129046   0.686   4.985   5.402
 9723TIP3    H229047   0.613   5.054   5.290
 9724TIP3   OH229048   0.018   4.724   5.351
 9724TIP3    H129049  -0.022   4.802   5.307
 9724TIP3    H229050  -0.022   4.653   5.296
 9725TIP3   OH229051   0.674   4.819   4.968
 9725TIP3    H129052   0.747   4.803   5.034
 9725TIP3    H229053   0.727   4.853   4.894
 9726TIP3   OH229054   0.055   5.136   5.263
 9726TIP3    H129055   0.149   5.106   5.264
 9726TIP3    H229056   0.012   5.062   5.217
 9727TIP3   OH229057   1.317   5.092   5.515
 9727TIP3    H129058   1.233   5.140   5.498
 9727TIP3    H229059   1.334   5.118   5.607
 9728TIP3   OH229060   0.327   5.561   4.787
 9728TIP3    H129061   0.287   5.538   4.701
 9728TIP3    H229062   0.279   5.644   4.809
 9729TIP3   OH229063   0.884   4.821   5.140
 9729TIP3    H129064   0.885   4.768   5.220
 9729TIP3    H229065   0.942   4.896   5.164
 9730TIP3   OH229066   0.749   5.885   5.150
 9730TIP3    H129067   0.659   5.876   5.190
 9730TIP3    H229068   0.739   5.971   5.103
 9731TIP3   OH229069   1.037   4.787   5.511
 9731TIP3    H129070   0.950   4.817   5.479
 9731TIP3    H229071   1.098   4.819   5.441
 9732TIP3   OH229072   0.333   4.426   5.490
 9732TIP3    H129073   0.329   4.330   5.508
 9732TIP3    H229074   0.262   4.458   5.548
 9733TIP3   OH229075   0.449   5.931   4.824
 9733TIP3    H129076   0.498   5.849   4.803
 9733TIP3    H229077   0.510   5.997   4.783
 9734TIP3   OH229078   0.591   5.718   4.728
 9734TIP3    H129079   0.555   5.638   4.687
 9734TIP3    H229080   0.627   5.682   4.812
 9735TIP3   OH229081   0.972   5.799   5.492
 9735TIP3    H129082   0.962   5.721   5.434
 9735TIP3    H229083   0.957   5.873   5.430
 9736TIP3   OH229084   0.266   5.191   4.749
 9736TIP3    H129085   0.186   5.242   4.724
 9736TIP3    H229086   0.313   5.188   4.663
 9737TIP3   OH229087   0.224   4.975   4.469
 9737TIP3    H129088   0.292   5.027   4.515
 9737TIP3    H229089   0.282   4.912   4.420
 9738TIP3   OH229090   1.167   5.435   5.337
 9738TIP3    H129091   1.085   5.488   5.342
 9738TIP3    H229092   1.197   5.457   5.246
 9739TIP3   OH229093   0.611   5.275   4.721
 9739TIP3    H129094   0.557   5.299   4.800
 9739TIP3    H229095   0.695   5.249   4.765
 9740TIP3   OH229096   0.846   5.315   5.633
 9740TIP3    H129097   0.845   5.398   5.684
 9740TIP3    H229098   0.762   5.321   5.585
 9741TIP3   OH229099  -0.015   5.232   5.507
 9741TIP3    H129100   0.016   5.197   5.420
 9741TIP3    H229101   0.037   5.313   5.514
 9742TIP3   OH229102   0.508   5.883   5.271
 9742TIP3    H129103   0.490   5.958   5.329
 9742TIP3    H229104   0.492   5.805   5.329
 9743TIP3   OH229105   0.453   5.132   4.547
 9743TIP3    H129106   0.511   5.192   4.599
 9743TIP3    H229107   0.479   5.157   4.455
 9744TIP3   OH229108   0.191   5.817   4.830
 9744TIP3    H129109   0.276   5.861   4.846
 9744TIP3    H229110   0.145   5.883   4.775
 9745TIP3   OH229111   0.968   4.374   4.595
 9745TIP3    H129112   0.887   4.394   4.646
 9745TIP3    H229113   0.981   4.458   4.545
 9746TIP3   OH229114   0.767   5.742   4.141
 9746TIP3    H129115   0.778   5.839   4.131
 9746TIP3    H229116   0.859   5.710   4.134
 9747TIP3   OH229117   1.208   6.142   5.535
 9747TIP3    H129118   1.209   6.046   5.549
 9747TIP3    H229119   1.126   6.166   5.583
 9748TIP3   OH229120   0.336   5.909   5.686
 9748TIP3    H129121   0.337   6.004   5.713
 9748TIP3    H229122   0.243   5.896   5.660
 9749TIP3   OH229123   0.105   6.042   4.648
 9749TIP3    H129124   0.071   6.015   4.560
 9749TIP3    H229125   0.066   6.130   4.658
 9750TIP3   OH229126   0.282   5.958   4.265
 9750TIP3    H129127   0.341   5.889   4.227
 9750TIP3    H229128   0.321   5.968   4.355
 9751TIP3   OH229129   0.345   6.002   4.531
 9751TIP3    H129130   0.262   6.007   4.583
 9751TIP3    H229131   0.403   5.959   4.596
 9752TIP3   OH229132   1.099   5.275   5.813
 9752TIP3    H129133   1.020   5.285   5.758
 9752TIP3    H229134   1.117   5.179   5.803
 9753TIP3   OH229135   0.087   4.509   5.626
 9753TIP3    H129136   0.017   4.469   5.573
 9753TIP3    H229137   0.086   4.601   5.595
 9754TIP3   OH229138   0.631   4.622   5.816
 9754TIP3    H129139   0.701   4.593   5.879
 9754TIP3    H229140   0.549   4.599   5.864
 9755TIP3   OH229141   0.866   5.048   5.732
 9755TIP3    H129142   0.819   5.045   5.819
 9755TIP3    H229143   0.845   5.137   5.700
 9756TIP3   OH229144   0.529   5.183   4.293
 9756TIP3    H129145   0.495   5.154   4.206
 9756TIP3    H229146   0.611   5.228   4.267
 9757TIP3   OH229147   0.241   4.556   4.592
 9757TIP3    H129148   0.211   4.552   4.685
 9757TIP3    H229149   0.204   4.472   4.559
 9758TIP3   OH229150   0.018   5.005   5.652
 9758TIP3    H129151  -0.032   5.037   5.728
 9758TIP3    H229152   0.008   5.082   5.591
 9759TIP3   OH229153  -0.095   4.897   5.159
 9759TIP3    H129154  -0.190   4.910   5.144
 9759TIP3    H229155  -0.070   4.856   5.074
 9760TIP3   OH229156   0.402   4.992   4.882
 9760TIP3    H129157   0.350   5.064   4.839
 9760TIP3    H229158   0.458   4.962   4.807
 9761TIP3   OH229159   0.579   5.273   5.970
 9761TIP3    H129160   0.557   5.199   6.031
 9761TIP3    H229161   0.674   5.284   5.990
 9762TIP3   OH229162   0.558   5.022   5.122
 9762TIP3    H129163   0.500   5.051   5.049
 9762TIP3    H229164   0.593   4.940   5.080
 9763TIP3   OH229165  -0.099   4.530   4.563
 9763TIP3    H129166  -0.111   4.527   4.660
 9763TIP3    H229167  -0.190   4.540   4.532
 9764TIP3   OH229168   0.563   5.268   5.546
 9764TIP3    H129169   0.599   5.198   5.487
 9764TIP3    H229170   0.542   5.214   5.625
 9765TIP3   OH229171   0.255   4.735   5.210
 9765TIP3    H129172   0.174   4.734   5.266
 9765TIP3    H229173   0.325   4.726   5.277
 9766TIP3   OH229174  -0.052   4.787   4.909
 9766TIP3    H129175   0.045   4.799   4.896
 9766TIP3    H229176  -0.091   4.821   4.826
 9767TIP3   OH229177   0.730   4.808   5.421
 9767TIP3    H129178   0.692   4.817   5.511
 9767TIP3    H229179   0.668   4.744   5.382
 9768TIP3   OH229180  -0.232   4.842   4.688
 9768TIP3    H129181  -0.271   4.755   4.666
 9768TIP3    H229182  -0.172   4.858   4.611
 9769TIP3   OH229183   0.898   6.496   5.636
 9769TIP3    H129184   0.899   6.516   5.541
 9769TIP3    H229185   0.980   6.541   5.666
 9770TIP3   OH229186   0.323   5.056   5.311
 9770TIP3    H129187   0.395   5.020   5.256
 9770TIP3    H229188   0.339   5.013   5.397
 9771TIP3   OH229189  -0.118   4.548   5.194
 9771TIP3    H129190  -0.186   4.477   5.207
 9771TIP3    H229191  -0.075   4.515   5.113
 9772TIP3   OH229192   0.299   4.948   5.611
 9772TIP3    H129193   0.211   4.988   5.619
 9772TIP3    H229194   0.358   5.011   5.656
 9773TIP3   OH229195   0.042   5.337   4.687
 9773TIP3    H129196  -0.036   5.278   4.681
 9773TIP3    H229197   0.030   5.376   4.777
 9774TIP3   OH229198   0.935   5.582   5.329
 9774TIP3    H129199   0.960   5.631   5.247
 9774TIP3    H229200   0.851   5.539   5.303
 9775TIP3   OH229201   0.494   4.657   4.562
 9775TIP3    H129202   0.397   4.641   4.567
 9775TIP3    H229203   0.504   4.752   4.584
 9776TIP3   OH229204   0.430   5.651   5.701
 9776TIP3    H129205   0.463   5.644   5.791
 9776TIP3    H229206   0.397   5.743   5.699
 9777TIP3   OH229207   0.563   4.905   4.664
 9777TIP3    H129208   0.660   4.910   4.679
 9777TIP3    H229209   0.545   4.984   4.610
 9778TIP3   OH229210   0.198   5.495   4.530
 9778TIP3    H129211   0.147   5.579   4.533
 9778TIP3    H229212   0.135   5.435   4.576
 9779TIP3   OH229213   0.344   5.408   6.014
 9779TIP3    H129214   0.288   5.337   5.977
 9779TIP3    H229215   0.433   5.377   5.985
 9780TIP3   OH229216   0.601   5.927   5.591
 9780TIP3    H129217   0.505   5.915   5.607
 9780TIP3    H229218   0.625   5.978   5.671
 9781TIP3   OH229219   1.005   4.994   4.501
 9781TIP3    H129220   0.942   4.949   4.439
 9781TIP3    H229221   1.002   5.083   4.459
 9782TIP3   OH229222   1.223   5.854   5.580
 9782TIP3    H129223   1.125   5.847   5.572
 9782TIP3    H229224   1.249   5.822   5.491
 9783TIP3   OH229225   0.705   5.813   4.408
 9783TIP3    H129226   0.680   5.744   4.471
 9783TIP3    H229227   0.716   5.764   4.325
 9784TIP3   OH229228   0.702   5.442   5.249
 9784TIP3    H129229   0.609   5.416   5.259
 9784TIP3    H229230   0.737   5.364   5.202
 9785TIP3   OH229231   0.013   5.437   4.934
 9785TIP3    H129232  -0.001   5.531   4.950
 9785TIP3    H229233  -0.037   5.398   5.007
 9786TIP3   OH229234   0.491   5.652   5.429
 9786TIP3    H129235   0.477   5.643   5.525
 9786TIP3    H229236   0.567   5.594   5.414
 9787TIP3   OH229237   0.459   5.546   4.307
 9787TIP3    H129238   0.507   5.520   4.389
 9787TIP3    H229239   0.371   5.510   4.327
 9788TIP3   OH229240   0.735   6.185   5.481
 9788TIP3    H129241   0.658   6.125   5.475
 9788TIP3    H229242   0.718   6.247   5.407
 9789TIP3   OH229243   0.802   6.019   4.128
 9789TIP3    H129244   0.841   6.097   4.085
 9789TIP3    H229245   0.720   6.060   4.161
 9790TIP3   OH229246   0.620   5.478   4.527
 9790TIP3    H129247   0.608   5.411   4.597
 9790TIP3    H229248   0.717   5.473   4.515
 9791TIP3   OH229249  -0.093   5.492   4.351
 9791TIP3    H129250  -0.096   5.411   4.297
 9791TIP3    H229251  -0.174   5.481   4.401
 9792TIP3   OH229252   0.650   4.862   5.681
 9792TIP3    H129253   0.735   4.897   5.712
 9792TIP3    H229254   0.641   4.779   5.733
 9793TIP3   OH229255   0.532   4.611   4.842
 9793TIP3    H129256   0.522   4.632   4.747
 9793TIP3    H229257   0.574   4.693   4.877
 9794TIP3   OH229258   0.052   5.722   4.538
 9794TIP3    H129259  -0.044   5.723   4.554
 9794TIP3    H229260   0.059   5.763   4.451
 9795TIP3   OH229261   0.223   4.790   4.943
 9795TIP3    H129262   0.290   4.860   4.923
 9795TIP3    H229263   0.236   4.781   5.040
 9796TIP3   OH229264   0.491   5.108   5.754
 9796TIP3    H129265   0.517   5.158   5.835
 9796TIP3    H229266   0.547   5.029   5.761
 9797TIP3   OH229267   0.372   4.516   5.048
 9797TIP3    H129268   0.367   4.594   5.107
 9797TIP3    H229269   0.432   4.551   4.978
 9798TIP3   OH229270  -0.110   4.528   4.846
 9798TIP3    H129271  -0.090   4.617   4.884
 9798TIP3    H229272  -0.020   4.490   4.846
 9799TIP3   OH229273   1.135   5.010   5.733
 9799TIP3    H129274   1.037   5.005   5.737
 9799TIP3    H229275   1.150   4.965   5.648
 9800TIP3   OH229276   0.786   5.203   5.121
 9800TIP3    H129277   0.711   5.141   5.132
 9800TIP3    H229278   0.859   5.156   5.167
 9801TIP3   OH229279   0.754   6.158   5.071
 9801TIP3    H129280   0.712   6.205   4.996
 9801TIP3    H229281   0.849   6.175   5.050
 9802TIP3   OH229282   0.015   5.717   4.236
 9802TIP3    H129283  -0.026   5.636   4.274
 9802TIP3    H229284   0.081   5.677   4.176
 9803TIP3   OH229285   0.649   6.060   5.830
 9803TIP3    H129286   0.643   5.985   5.894
 9803TIP3    H229287   0.731   6.105   5.859
 9804TIP3   OH229288   0.432   5.767   4.130
 9804TIP3    H129289   0.464   5.701   4.194
 9804TIP3    H229290   0.501   5.765   4.062
 9805TIP3   OH229291   0.279   5.683   6.014
 9805TIP3    H129292   0.220   5.664   5.940
 9805TIP3    H229293   0.314   5.593   6.032
 9806TIP3   OH229294   0.174   5.435   4.244
 9806TIP3    H129295   0.137   5.453   4.333
 9806TIP3    H229296   0.162   5.337   4.240
 9807TIP3   OH229297   0.757   5.685   5.630
 9807TIP3    H129298   0.833   5.728   5.585
 9807TIP3    H229299   0.687   5.751   5.613
 9808TIP3   OH229300  -0.150   5.142   4.674
 9808TIP3    H129301  -0.180   5.079   4.740
 9808TIP3    H229302  -0.118   5.081   4.604
 9809TIP3   OH229303   0.185   5.218   5.887
 9809TIP3    H129304   0.098   5.261   5.885
 9809TIP3    H229305   0.219   5.243   5.798
 9810TIP3   OH229306  -0.054   4.938   4.506
 9810TIP3    H129307  -0.079   4.950   4.411
 9810TIP3    H229308   0.043   4.945   4.499
 9811TIP3   OH229309   0.629   5.608   6.029
 9811TIP3    H129310   0.708   5.586   5.978
 9811TIP3    H229311   0.630   5.540   6.099
 9812TIP3   OH229312   0.766   5.272   4.168
 9812TIP3    H129313   0.744   5.224   4.086
 9812TIP3    H229314   0.732   5.362   4.144
 9813TIP3   OH229315   0.246   4.982   6.032
 9813TIP3    H129316   0.235   4.907   5.971
 9813TIP3    H229317   0.216   5.058   5.978
 9814TIP3   OH229318   0.228   4.778   5.822
 9814TIP3    H129319   0.268   4.824   5.745
 9814TIP3    H229320   0.134   4.782   5.801
 9815TIP3   OH229321   0.263   5.339   5.653
 9815TIP3    H129322   0.354   5.319   5.627
 9815TIP3    H229323   0.260   5.434   5.635
 9816TIP3   OH229324   0.848   5.288   6.082
 9816TIP3    H129325   0.894   5.203   6.093
 9816TIP3    H229326   0.919   5.344   6.046
 9817TIP3   OH229327   0.887   5.542   5.818
 9817TIP3    H129328   0.831   5.595   5.758
 9817TIP3    H229329   0.975   5.560   5.779
 9818TIP3   OH229330   0.370   4.548   5.893
 9818TIP3    H129331   0.318   4.629   5.870
 9818TIP3    H229332   0.302   4.479   5.887
 9819TIP3   OH229333   0.497   5.057   6.113
 9819TIP3    H129334   0.487   5.045   6.209
 9819TIP3    H229335   0.408   5.026   6.085
 9820TIP3   OH229336   0.735   5.006   5.966
 9820TIP3    H129337   0.660   5.003   6.028
 9820TIP3    H229338   0.809   4.973   6.021
 9821TIP3   OH229339   0.959   4.942   6.116
 9821TIP3    H129340   0.975   4.847   6.133
 9821TIP3    H229341   0.960   4.981   6.206
 9822TIP3   OH229342   0.464   4.560   6.151
 9822TIP3    H129343   0.533   4.490   6.147
 9822TIP3    H229344   0.426   4.551   6.061
 9823TIP3   OH229345   0.529   4.774   6.310
 9823TIP3    H129346   0.508   4.702   6.246
 9823TIP3    H229347   0.454   4.834   6.299
 9824TIP3   OH229348   1.006   6.251   5.026
 9824TIP3    H129349   1.035   6.280   5.114
 9824TIP3    H229350   1.070   6.293   4.967
 9825TIP3   OH229351   1.038   6.268   5.308
 9825TIP3    H129352   0.993   6.181   5.303
 9825TIP3    H229353   1.113   6.243   5.366
 9826TIP3   OH229354   1.082   5.947   5.880
 9826TIP3    H129355   1.010   5.954   5.946
 9826TIP3    H229356   1.125   6.034   5.886
 9827TIP3   OH229357   0.899   5.459   4.502
 9827TIP3    H129358   0.969   5.521   4.474
 9827TIP3    H229359   0.941   5.419   4.581
 9828TIP3   OH229360   1.026   5.328   4.706
 9828TIP3    H129361   0.961   5.284   4.765
 9828TIP3    H229362   1.092   5.363   4.768
 9829TIP3   OH229363   1.080   5.717   5.137
 9829TIP3    H129364   1.135   5.651   5.089
 9829TIP3    H229365   1.071   5.788   5.072
 9830TIP3   OH229366   0.913   6.019   5.332
 9830TIP3    H129367   0.840   6.057   5.385
 9830TIP3    H229368   0.864   5.970   5.263
 9831TIP3   OH229369   0.965   5.234   4.353
 9831TIP3    H129370   0.894   5.236   4.285
 9831TIP3    H229371   0.938   5.310   4.408
 9832TIP3   OH229372   0.835   4.908   4.307
 9832TIP3    H129373   0.795   4.943   4.227
 9832TIP3    H229374   0.810   4.813   4.300
 9833TIP3   OH229375   0.841   5.182   4.852
 9833TIP3    H129376   0.850   5.085   4.846
 9833TIP3    H229377   0.828   5.195   4.948
 9834TIP3   OH229378   1.130   5.607   5.709
 9834TIP3    H129379   1.202   5.540   5.701
 9834TIP3    H229380   1.159   5.674   5.645
 9835TIP3   OH229381   1.315   5.413   5.730
 9835TIP3    H129382   1.241   5.361   5.767
 9835TIP3    H229383   1.389   5.349   5.742
 9836TIP3   OH229384   0.779   4.643   4.296
 9836TIP3    H129385   0.856   4.610   4.347
 9836TIP3    H229386   0.708   4.580   4.319
 9837TIP3   OH229387   0.837   4.898   4.747
 9837TIP3    H129388   0.877   4.809   4.763
 9837TIP3    H229389   0.896   4.930   4.677
 9838TIP3   OH229390   0.998   5.076   5.241
 9838TIP3    H129391   1.085   5.100   5.201
 9838TIP3    H229392   1.014   5.109   5.332
 9839TIP3   OH229393   1.068   5.216   5.475
 9839TIP3    H129394   0.989   5.251   5.522
 9839TIP3    H229395   1.101   5.296   5.429
 9840TIP3   OH229396   1.516   4.804   6.030
 9840TIP3    H129397   1.578   4.739   5.991
 9840TIP3    H229398   1.494   4.860   5.953
 9841TIP3   OH229399   0.945   4.648   4.785
 9841TIP3    H129400   0.995   4.632   4.868
 9841TIP3    H229401   0.886   4.570   4.784
 9842TIP3   OH229402   1.391   4.949   5.834
 9842TIP3    H129403   1.302   4.985   5.853
 9842TIP3    H229404   1.368   4.874   5.777
 9843TIP3   OH229405   1.027   4.583   4.416
 9843TIP3    H129406   1.068   4.510   4.365
 9843TIP3    H229407   1.096   4.653   4.410
 9844TIP3   OH229408   0.592   6.115   4.685
 9844TIP3    H129409   0.642   6.100   4.602
 9844TIP3    H229410   0.648   6.181   4.730
 9845TIP3   OH229411   0.348   6.171   5.764
 9845TIP3    H129412   0.371   6.202   5.852
 9845TIP3    H229413   0.394   6.236   5.707
 9846TIP3   OH229414   0.493   6.353   5.612
 9846TIP3    H129415   0.557   6.295   5.568
 9846TIP3    H229416   0.551   6.403   5.674
 9847TIP3   OH229417   1.289   4.708   5.715
 9847TIP3    H129418   1.198   4.698   5.681
 9847TIP3    H229419   1.323   4.616   5.704
 9848TIP3   OH229420   0.219   6.238   5.264
 9848TIP3    H129421   0.123   6.248   5.251
 9848TIP3    H229422   0.240   6.319   5.313
 9849TIP3   OH229423   0.477   6.164   5.351
 9849TIP3    H129424   0.388   6.174   5.312
 9849TIP3    H229425   0.527   6.232   5.303
 9850TIP3   OH229426   0.686   6.347   5.264
 9850TIP3    H129427   0.675   6.432   5.216
 9850TIP3    H229428   0.713   6.286   5.191
 9851TIP3   OH229429   0.492   4.624   5.331
 9851TIP3    H129430   0.452   4.551   5.382
 9851TIP3    H229431   0.567   4.579   5.286
 9852TIP3   OH229432   1.017   4.506   5.239
 9852TIP3    H129433   1.055   4.556   5.164
 9852TIP3    H229434   0.922   4.524   5.229
 9853TIP3   OH229435   1.112   4.606   5.002
 9853TIP3    H129436   1.185   4.554   4.963
 9853TIP3    H229437   1.147   4.697   4.987
 9854TIP3   OH229438   0.191   4.373   5.229
 9854TIP3    H129439   0.250   4.420   5.167
 9854TIP3    H229440   0.226   4.400   5.315
 9855TIP3   OH229441   0.730   4.512   5.214
 9855TIP3    H129442   0.735   4.474   5.125
 9855TIP3    H229443   0.719   4.431   5.269
 9856TIP3   OH229444   0.763   4.434   4.775
 9856TIP3    H129445   0.675   4.474   4.785
 9856TIP3    H229446   0.750   4.349   4.823
 9857TIP3   OH229447  -0.320   4.284   4.800
 9857TIP3    H129448  -0.320   4.270   4.704
 9857TIP3    H229449  -0.297   4.377   4.807
 9858TIP3   OH229450   0.166   4.537   4.859
 9858TIP3    H129451   0.226   4.490   4.920
 9858TIP3    H229452   0.188   4.630   4.883
 9859TIP3   OH229453   0.031   5.976   4.390
 9859TIP3    H129454   0.117   5.971   4.342
 9859TIP3    H229455  -0.029   5.947   4.317
 9860TIP3   OH229456   0.737   6.080   4.451
 9860TIP3    H129457   0.729   5.982   4.439
 9860TIP3    H229458   0.691   6.112   4.371
 9861TIP3   OH229459   0.197   4.589   6.347
 9861TIP3    H129460   0.282   4.576   6.302
 9861TIP3    H229461   0.209   4.530   6.423
 9862TIP3   OH229462   1.025   4.673   6.147
 9862TIP3    H129463   1.044   4.640   6.237
 9862TIP3    H229464   1.113   4.668   6.104
 9863TIP3   OH229465   0.963   6.226   5.641
 9863TIP3    H129466   0.885   6.193   5.591
 9863TIP3    H229467   0.943   6.322   5.642
 9864TIP3   OH229468   2.231   5.598   4.406
 9864TIP3    H129469   2.201   5.689   4.386
 9864TIP3    H229470   2.155   5.547   4.373
 9865TIP3   OH229471   2.224   5.598   4.789
 9865TIP3    H129472   2.259   5.567   4.874
 9865TIP3    H229473   2.188   5.516   4.752
 9866TIP3   OH229474   1.527   5.494   5.154
 9866TIP3    H129475   1.557   5.425   5.216
 9866TIP3    H229476   1.609   5.543   5.141
 9867TIP3   OH229477   2.469   5.903   4.467
 9867TIP3    H129478   2.459   5.828   4.527
 9867TIP3    H229479   2.502   5.972   4.526
 9868TIP3   OH229480   1.498   5.902   4.877
 9868TIP3    H129481   1.489   5.804   4.879
 9868TIP3    H229482   1.595   5.910   4.874
 9869TIP3   OH229483   1.205   5.107   4.662
 9869TIP3    H129484   1.156   5.189   4.675
 9869TIP3    H229485   1.136   5.050   4.625
 9870TIP3   OH229486   1.266   5.392   4.833
 9870TIP3    H129487   1.314   5.315   4.870
 9870TIP3    H229488   1.325   5.418   4.761
 9871TIP3   OH229489   2.119   6.360   4.485
 9871TIP3    H129490   2.165   6.290   4.434
 9871TIP3    H229491   2.118   6.322   4.574
 9872TIP3   OH229492   2.028   5.824   4.834
 9872TIP3    H129493   2.064   5.744   4.792
 9872TIP3    H229494   2.112   5.868   4.857
 9873TIP3   OH229495   3.041   5.146   4.827
 9873TIP3    H129496   3.068   5.228   4.872
 9873TIP3    H229497   3.065   5.166   4.735
 9874TIP3   OH229498   2.441   5.327   4.867
 9874TIP3    H129499   2.482   5.242   4.890
 9874TIP3    H229500   2.409   5.309   4.776
 9875TIP3   OH229501   1.774   4.985   4.833
 9875TIP3    H129502   1.757   5.056   4.768
 9875TIP3    H229503   1.728   4.910   4.788
 9876TIP3   OH229504   2.471   5.075   4.454
 9876TIP3    H129505   2.543   5.058   4.520
 9876TIP3    H229506   2.525   5.110   4.381
 9877TIP3   OH229507   1.411   5.186   4.939
 9877TIP3    H129508   1.494   5.166   4.986
 9877TIP3    H229509   1.424   5.130   4.859
 9878TIP3   OH229510   1.852   5.384   4.734
 9878TIP3    H129511   1.946   5.359   4.746
 9878TIP3    H229512   1.814   5.300   4.701
 9879TIP3   OH229513   3.117   5.354   4.999
 9879TIP3    H129514   3.031   5.397   4.981
 9879TIP3    H229515   3.116   5.355   5.096
 9880TIP3   OH229516   1.774   4.966   5.265
 9880TIP3    H129517   1.712   5.002   5.198
 9880TIP3    H229518   1.724   4.982   5.347
 9881TIP3   OH229519   2.122   5.819   4.277
 9881TIP3    H129520   2.080   5.793   4.194
 9881TIP3    H229521   2.076   5.903   4.297
 9882TIP3   OH229522   1.881   5.742   5.062
 9882TIP3    H129523   1.818   5.807   5.100
 9882TIP3    H229524   1.924   5.794   4.991
 9883TIP3   OH229525   2.682   5.077   4.626
 9883TIP3    H129526   2.672   5.027   4.708
 9883TIP3    H229527   2.736   5.152   4.654
 9884TIP3   OH229528   1.643   5.083   5.051
 9884TIP3    H129529   1.708   5.153   5.075
 9884TIP3    H229530   1.692   5.041   4.977
 9885TIP3   OH229531   1.707   5.936   5.160
 9885TIP3    H129532   1.681   6.022   5.122
 9885TIP3    H229533   1.629   5.919   5.217
 9886TIP3   OH229534   1.104   5.625   4.397
 9886TIP3    H129535   1.065   5.648   4.311
 9886TIP3    H229536   1.134   5.711   4.431
 9887TIP3   OH229537   2.542   6.143   4.638
 9887TIP3    H129538   2.452   6.132   4.676
 9887TIP3    H229539   2.534   6.228   4.592
 9888TIP3   OH229540   2.851   5.061   5.020
 9888TIP3    H129541   2.759   5.061   4.989
 9888TIP3    H229542   2.900   5.075   4.936
 9889TIP3   OH229543   2.123   4.688   4.973
 9889TIP3    H129544   2.120   4.594   4.999
 9889TIP3    H229545   2.047   4.723   5.025
 9890TIP3   OH229546   2.244   6.191   4.309
 9890TIP3    H129547   2.293   6.107   4.291
 9890TIP3    H229548   2.306   6.254   4.266
 9891TIP3   OH229549   2.387   5.977   4.214
 9891TIP3    H129550   2.356   5.896   4.172
 9891TIP3    H229551   2.422   5.942   4.299
 9892TIP3   OH229552   2.769   6.057   4.979
 9892TIP3    H129553   2.758   5.977   4.921
 9892TIP3    H229554   2.754   6.129   4.915
 9893TIP3   OH229555   2.061   5.451   4.235
 9893TIP3    H129556   1.980   5.499   4.209
 9893TIP3    H229557   2.109   5.444   4.151
 9894TIP3   OH229558   2.019   5.233   3.953
 9894TIP3    H129559   2.088   5.283   4.000
 9894TIP3    H229560   2.075   5.169   3.905
 9895TIP3   OH229561   2.965   5.694   4.824
 9895TIP3    H129562   2.881   5.745   4.829
 9895TIP3    H229563   2.993   5.715   4.733
 9896TIP3   OH229564   2.408   5.533   4.207
 9896TIP3    H129565   2.354   5.555   4.287
 9896TIP3    H229566   2.491   5.504   4.250
 9897TIP3   OH229567   2.644   5.572   5.118
 9897TIP3    H129568   2.639   5.655   5.170
 9897TIP3    H229569   2.557   5.574   5.073
 9898TIP3   OH229570   1.642   5.531   4.624
 9898TIP3    H129571   1.599   5.472   4.558
 9898TIP3    H229572   1.717   5.476   4.655
 9899TIP3   OH229573   1.772   5.944   4.772
 9899TIP3    H129574   1.749   5.896   4.691
 9899TIP3    H229575   1.861   5.909   4.791
 9900TIP3   OH229576   1.773   5.502   4.979
 9900TIP3    H129577   1.809   5.476   4.892
 9900TIP3    H229578   1.820   5.585   4.998
 9901TIP3   OH229579   2.299   6.139   4.755
 9901TIP3    H129580   2.290   6.216   4.814
 9901TIP3    H229581   2.288   6.063   4.816
 9902TIP3   OH229582   1.914   6.060   5.301
 9902TIP3    H129583   1.854   6.120   5.350
 9902TIP3    H229584   1.849   6.004   5.254
 9903TIP3   OH229585   2.247   5.392   4.033
 9903TIP3    H129586   2.308   5.449   4.085
 9903TIP3    H229587   2.274   5.415   3.941
 9904TIP3   OH229588   1.668   5.618   5.402
 9904TIP3    H129589   1.671   5.703   5.450
 9904TIP3    H229590   1.574   5.595   5.410
 9905TIP3   OH229591   1.990   6.070   4.308
 9905TIP3    H129592   2.070   6.122   4.328
 9905TIP3    H229593   1.930   6.136   4.271
 9906TIP3   OH229594   1.707   6.228   5.390
 9906TIP3    H129595   1.673   6.223   5.299
 9906TIP3    H229596   1.628   6.206   5.443
 9907TIP3   OH229597   2.765   4.630   4.082
 9907TIP3    H129598   2.683   4.650   4.133
 9907TIP3    H229599   2.778   4.714   4.032
 9908TIP3   OH229600   1.505   5.374   4.432
 9908TIP3    H129601   1.439   5.414   4.373
 9908TIP3    H229602   1.471   5.284   4.443
 9909TIP3   OH229603   2.567   6.001   3.635
 9909TIP3    H129604   2.571   6.088   3.592
 9909TIP3    H229605   2.657   5.965   3.619
 9910TIP3   OH229606   1.288   5.757   5.336
 9910TIP3    H129607   1.224   5.732   5.267
 9910TIP3    H229608   1.325   5.670   5.363
 9911TIP3   OH229609   1.141   5.950   4.967
 9911TIP3    H129610   1.237   5.938   4.959
 9911TIP3    H229611   1.135   6.027   5.025
 9912TIP3   OH229612   3.005   6.399   5.022
 9912TIP3    H129613   3.006   6.302   5.037
 9912TIP3    H229614   2.923   6.423   5.070
 9913TIP3   OH229615   2.110   6.189   5.158
 9913TIP3    H129616   2.110   6.280   5.192
 9913TIP3    H229617   2.040   6.147   5.213
 9914TIP3   OH229618   1.871   6.318   4.111
 9914TIP3    H129619   1.825   6.295   4.028
 9914TIP3    H229620   1.841   6.408   4.129
 9915TIP3   OH229621   1.311   6.164   4.495
 9915TIP3    H129622   1.358   6.154   4.581
 9915TIP3    H229623   1.256   6.084   4.496
 9916TIP3   OH229624   2.083   6.221   3.750
 9916TIP3    H129625   2.139   6.145   3.721
 9916TIP3    H229626   2.107   6.227   3.845
 9917TIP3   OH229627   2.123   6.264   4.020
 9917TIP3    H129628   2.035   6.274   4.064
 9917TIP3    H229629   2.173   6.220   4.091
 9918TIP3   OH229630   2.896   5.533   5.298
 9918TIP3    H129631   2.815   5.540   5.246
 9918TIP3    H229632   2.916   5.437   5.288
 9919TIP3   OH229633   1.491   5.941   5.328
 9919TIP3    H129634   1.543   5.921   5.408
 9919TIP3    H229635   1.419   5.875   5.333
 9920TIP3   OH229636   1.885   4.768   5.096
 9920TIP3    H129637   1.794   4.737   5.077
 9920TIP3    H229638   1.865   4.845   5.152
 9921TIP3   OH229639   2.429   4.881   5.323
 9921TIP3    H129640   2.468   4.805   5.372
 9921TIP3    H229641   2.334   4.864   5.341
 9922TIP3   OH229642   2.663   5.306   5.223
 9922TIP3    H129643   2.618   5.303   5.311
 9922TIP3    H229644   2.639   5.393   5.189
 9923TIP3   OH229645   2.322   5.444   3.778
 9923TIP3    H129646   2.291   5.412   3.692
 9923TIP3    H229647   2.409   5.482   3.752
 9924TIP3   OH229648   2.036   4.813   4.080
 9924TIP3    H129649   2.005   4.810   4.173
 9924TIP3    H229650   2.000   4.729   4.047
 9925TIP3   OH229651   1.822   5.278   5.128
 9925TIP3    H129652   1.774   5.300   5.210
 9925TIP3    H229653   1.806   5.358   5.074
 9926TIP3   OH229654   1.706   5.166   4.641
 9926TIP3    H129655   1.614   5.137   4.659
 9926TIP3    H229656   1.721   5.124   4.553
 9927TIP3   OH229657   2.199   5.250   4.369
 9927TIP3    H129658   2.146   5.321   4.326
 9927TIP3    H229659   2.254   5.219   4.294
 9928TIP3   OH229660   2.373   5.531   5.460
 9928TIP3    H129661   2.351   5.456   5.519
 9928TIP3    H229662   2.469   5.541   5.478
 9929TIP3   OH229663   2.357   5.279   4.607
 9929TIP3    H129664   2.296   5.306   4.536
 9929TIP3    H229665   2.391   5.196   4.567
 9930TIP3   OH229666   1.639   5.308   5.338
 9930TIP3    H129667   1.679   5.365   5.405
 9930TIP3    H229668   1.632   5.223   5.387
 9931TIP3   OH229669   1.692   4.784   4.045
 9931TIP3    H129670   1.687   4.781   4.143
 9931TIP3    H229671   1.612   4.834   4.024
 9932TIP3   OH229672   1.236   4.830   4.917
 9932TIP3    H129673   1.312   4.861   4.971
 9932TIP3    H229674   1.277   4.795   4.837
 9933TIP3   OH229675   1.209   4.809   4.437
 9933TIP3    H129676   1.256   4.847   4.359
 9933TIP3    H229677   1.149   4.883   4.457
 9934TIP3   OH229678   2.366   5.526   5.032
 9934TIP3    H129679   2.399   5.454   4.973
 9934TIP3    H229680   2.338   5.473   5.109
 9935TIP3   OH229681   2.032   4.994   4.704
 9935TIP3    H129682   1.954   4.985   4.761
 9935TIP3    H229683   2.105   4.978   4.767
 9936TIP3   OH229684   1.469   5.041   4.711
 9936TIP3    H129685   1.375   5.046   4.684
 9936TIP3    H229686   1.495   4.950   4.689
 9937TIP3   OH229687   1.738   5.039   4.400
 9937TIP3    H129688   1.834   5.052   4.382
 9937TIP3    H229689   1.695   5.062   4.315
 9938TIP3   OH229690   2.524   5.064   4.907
 9938TIP3    H129691   2.489   5.072   4.998
 9938TIP3    H229692   2.463   4.997   4.871
 9939TIP3   OH229693   1.577   5.075   4.178
 9939TIP3    H129694   1.506   5.028   4.130
 9939TIP3    H229695   1.630   5.109   4.103
 9940TIP3   OH229696   2.695   6.752   5.124
 9940TIP3    H129697   2.695   6.774   5.029
 9940TIP3    H229698   2.775   6.798   5.155
 9941TIP3   OH229699   1.653   5.864   5.546
 9941TIP3    H129700   1.734   5.891   5.594
 9941TIP3    H229701   1.590   5.859   5.620
 9942TIP3   OH229702   2.118   5.317   4.802
 9942TIP3    H129703   2.187   5.271   4.753
 9942TIP3    H229704   2.123   5.273   4.890
 9943TIP3   OH229705   1.639   4.803   4.677
 9943TIP3    H129706   1.608   4.723   4.725
 9943TIP3    H229707   1.699   4.764   4.611
 9944TIP3   OH229708   2.096   5.217   5.078
 9944TIP3    H129709   2.006   5.244   5.103
 9944TIP3    H229710   2.153   5.268   5.138
 9945TIP3   OH229711   1.828   5.605   4.182
 9945TIP3    H129712   1.758   5.536   4.174
 9945TIP3    H229713   1.812   5.636   4.275
 9946TIP3   OH229714   2.731   5.840   4.815
 9946TIP3    H129715   2.755   5.887   4.733
 9946TIP3    H229716   2.647   5.795   4.791
 9947TIP3   OH229717   2.289   4.915   4.046
 9947TIP3    H129718   2.193   4.898   4.055
 9947TIP3    H229719   2.299   5.009   4.071
 9948TIP3   OH229720   2.233   5.922   5.181
 9948TIP3    H129721   2.255   5.892   5.270
 9948TIP3    H229722   2.192   6.008   5.195
 9949TIP3   OH229723   2.359   5.162   4.150
 9949TIP3    H129724   2.456   5.165   4.166
 9949TIP3    H229725   2.344   5.240   4.094
 9950TIP3   OH229726   1.523   5.625   4.861
 9950TIP3    H129727   1.561   5.595   4.775
 9950TIP3    H229728   1.565   5.563   4.923
 9951TIP3   OH229729   1.975   5.751   4.004
 9951TIP3    H129730   1.928   5.837   4.013
 9951TIP3    H229731   1.922   5.695   4.064
 9952TIP3   OH229732   1.401   5.548   5.476
 9952TIP3    H129733   1.426   5.532   5.569
 9952TIP3    H229734   1.338   5.477   5.460
 9953TIP3   OH229735   2.130   5.659   5.493
 9953TIP3    H129736   2.072   5.599   5.443
 9953TIP3    H229737   2.218   5.624   5.468
 9954TIP3   OH229738   2.391   6.188   5.073
 9954TIP3    H129739   2.295   6.178   5.089
 9954TIP3    H229740   2.418   6.234   5.155
 9955TIP3   OH229741   2.800   5.251   3.988
 9955TIP3    H129742   2.736   5.207   3.928
 9955TIP3    H229743   2.801   5.338   3.944
 9956TIP3   OH229744   3.020   6.111   5.067
 9956TIP3    H129745   2.922   6.103   5.060
 9956TIP3    H229746   3.045   6.079   4.977
 9957TIP3   OH229747   2.492   6.074   3.894
 9957TIP3    H129748   2.476   6.002   3.957
 9957TIP3    H229749   2.512   6.026   3.812
 9958TIP3   OH229750   2.497   5.700   4.733
 9958TIP3    H129751   2.404   5.673   4.747
 9958TIP3    H229752   2.533   5.620   4.690
 9959TIP3   OH229753   1.623   5.928   4.488
 9959TIP3    H129754   1.623   6.007   4.432
 9959TIP3    H229755   1.529   5.908   4.494
 9960TIP3   OH229756   1.186   5.232   4.187
 9960TIP3    H129757   1.233   5.314   4.209
 9960TIP3    H229758   1.110   5.236   4.250
 9961TIP3   OH229759   1.764   5.694   4.430
 9961TIP3    H129760   1.728   5.783   4.451
 9961TIP3    H229761   1.730   5.641   4.504
 9962TIP3   OH229762   1.893   6.272   4.956
 9962TIP3    H129763   1.937   6.343   4.905
 9962TIP3    H229764   1.968   6.234   5.005
 9963TIP3   OH229765   1.541   6.168   4.337
 9963TIP3    H129766   1.456   6.172   4.385
 9963TIP3    H229767   1.570   6.262   4.342
 9964TIP3   OH229768   2.285   5.907   4.912
 9964TIP3    H129769   2.274   5.903   5.010
 9964TIP3    H229770   2.361   5.849   4.899
 9965TIP3   OH229771   2.254   5.805   3.799
 9965TIP3    H129772   2.310   5.779   3.875
 9965TIP3    H229773   2.169   5.768   3.827
 9966TIP3   OH229774   2.530   6.441   4.968
 9966TIP3    H129775   2.454   6.381   4.962
 9966TIP3    H229776   2.512   6.503   4.893
 9967TIP3   OH229777   2.553   6.318   3.601
 9967TIP3    H129778   2.629   6.353   3.552
 9967TIP3    H229779   2.578   6.343   3.692
 9968TIP3   OH229780   1.617   5.052   5.483
 9968TIP3    H129781   1.521   5.050   5.496
 9968TIP3    H229782   1.648   4.990   5.551
 9969TIP3   OH229783   2.415   5.737   4.015
 9969TIP3    H129784   2.404   5.668   4.083
 9969TIP3    H229785   2.512   5.731   4.001
 9970TIP3   OH229786   1.332   6.135   5.116
 9970TIP3    H129787   1.383   6.056   5.141
 9970TIP3    H229788   1.363   6.198   5.182
 9971TIP3   OH229789   1.621   5.780   3.796
 9971TIP3    H129790   1.639   5.689   3.766
 9971TIP3    H229791   1.602   5.765   3.891
 9972TIP3   OH229792   1.567   5.784   4.070
 9972TIP3    H129793   1.640   5.751   4.124
 9972TIP3    H229794   1.575   5.881   4.079
 9973TIP3   OH229795   1.303   5.476   4.271
 9973TIP3    H129796   1.238   5.520   4.329
 9973TIP3    H229797   1.318   5.547   4.205
 9974TIP3   OH229798   2.449   5.112   5.170
 9974TIP3    H129799   2.532   5.148   5.204
 9974TIP3    H229800   2.436   5.032   5.225
 9975TIP3   OH229801   2.332   4.867   4.327
 9975TIP3    H129802   2.320   4.890   4.234
 9975TIP3    H229803   2.372   4.948   4.365
 9976TIP3   OH229804   1.833   5.982   4.019
 9976TIP3    H129805   1.746   6.009   4.055
 9976TIP3    H229806   1.848   6.050   3.952
 9977TIP3   OH229807   2.020   5.046   4.431
 9977TIP3    H129808   2.087   5.116   4.414
 9977TIP3    H229809   2.026   5.036   4.529
 9978TIP3   OH229810   2.293   5.364   5.239
 9978TIP3    H129811   2.315   5.413   5.321
 9978TIP3    H229812   2.345   5.283   5.248
 9979TIP3   OH229813   2.167   4.772   4.532
 9979TIP3    H129814   2.174   4.841   4.600
 9979TIP3    H229815   2.226   4.809   4.463
 9980TIP3   OH229816   1.576   6.058   4.084
 9980TIP3    H129817   1.546   6.128   4.022
 9980TIP3    H229818   1.559   6.100   4.171
 9981TIP3   OH229819   1.678   4.770   4.321
 9981TIP3    H129820   1.676   4.859   4.361
 9981TIP3    H229821   1.773   4.749   4.331
 9982TIP3   OH229822   2.931   5.270   5.207
 9982TIP3    H129823   2.834   5.267   5.225
 9982TIP3    H229824   2.932   5.210   5.131
 9983TIP3   OH229825   2.582   5.460   4.608
 9983TIP3    H129826   2.507   5.399   4.620
 9983TIP3    H229827   2.655   5.413   4.655
 9984TIP3   OH229828   1.296   5.690   4.076
 9984TIP3    H129829   1.367   5.756   4.087
 9984TIP3    H229830   1.339   5.631   4.011
 9985TIP3   OH229831   1.240   4.962   4.211
 9985TIP3    H129832   1.237   5.060   4.206
 9985TIP3    H229833   1.158   4.937   4.167
 9986TIP3   OH229834   2.550   6.415   4.557
 9986TIP3    H129835   2.509   6.461   4.481
 9986TIP3    H229836   2.644   6.433   4.538
 9987TIP3   OH229837   1.620   4.683   5.087
 9987TIP3    H129838   1.594   4.646   5.000
 9987TIP3    H229839   1.616   4.604   5.145
 9988TIP3   OH229840   1.171   5.908   4.467
 9988TIP3    H129841   1.094   5.933   4.521
 9988TIP3    H229842   1.143   5.943   4.379
 9989TIP3   OH229843   1.321   6.441   5.537
 9989TIP3    H129844   1.409   6.439   5.582
 9989TIP3    H229845   1.301   6.346   5.534
 9990TIP3   OH229846   1.805   6.410   5.578
 9990TIP3    H129847   1.899   6.386   5.589
 9990TIP3    H229848   1.780   6.350   5.505
 9991TIP3   OH229849   1.789   5.983   3.712
 9991TIP3    H129850   1.731   5.912   3.749
 9991TIP3    H229851   1.862   5.929   3.677
 9992TIP3   OH229852   2.441   6.314   5.315
 9992TIP3    H129853   2.433   6.243   5.383
 9992TIP3    H229854   2.521   6.362   5.345
 9993TIP3   OH229855   2.231   6.029   3.623
 9993TIP3    H129856   2.265   5.958   3.680
 9993TIP3    H229857   2.281   6.015   3.540
 9994TIP3   OH229858   1.453   5.849   5.737
 9994TIP3    H129859   1.471   5.753   5.743
 9994TIP3    H229860   1.365   5.849   5.692
 9995TIP3   OH229861   1.430   5.501   3.930
 9995TIP3    H129862   1.483   5.464   4.002
 9995TIP3    H229863   1.498   5.503   3.859
 9996TIP3   OH229864   2.060   5.932   5.510
 9996TIP3    H129865   2.021   5.945   5.422
 9996TIP3    H229866   2.093   5.840   5.505
 9997TIP3   OH229867   1.934   5.697   3.735
 9997TIP3    H129868   1.941   5.709   3.832
 9997TIP3    H229869   1.939   5.599   3.730
 9998TIP3   OH229870   2.554   5.941   5.116
 9998TIP3    H129871   2.628   5.986   5.072
 9998TIP3    H229872   2.482   6.004   5.101
 9999TIP3   OH229873   1.573   5.583   5.716
 9999TIP3    H129874   1.647   5.524   5.696
 9999TIP3    H229875   1.598   5.614   5.805
10000TIP3   OH229876   1.639   5.403   4.152
10000TIP3    H129877   1.614   5.360   4.235
10000TIP3    H229878   1.675   5.328   4.101
10001TIP3   OH229879   1.903   5.466   5.379
10001TIP3    H129880   1.829   5.529   5.381
10001TIP3    H229881   1.956   5.500   5.303
10002TIP3   OH229882   1.739   5.197   3.993
10002TIP3    H129883   1.714   5.198   3.898
10002TIP3    H229884   1.837   5.201   3.986
10003TIP3   OH229885   2.426   5.871   5.514
10003TIP3    H129886   2.505   5.844   5.465
10003TIP3    H229887   2.421   5.802   5.583
10004TIP3   OH229888   2.555   5.531   3.657
10004TIP3    H129889   2.549   5.477   3.575
10004TIP3    H229890   2.529   5.618   3.621
10005TIP3   OH229891   2.028   5.257   5.511
10005TIP3    H129892   2.030   5.176   5.454
10005TIP3    H229893   1.986   5.321   5.450
10006TIP3   OH229894   2.024   5.059   5.319
10006TIP3    H129895   2.061   5.076   5.231
10006TIP3    H229896   1.935   5.022   5.297
10007TIP3   OH229897   2.061   5.579   5.190
10007TIP3    H129898   2.143   5.578   5.140
10007TIP3    H229899   2.007   5.645   5.141
10008TIP3   OH229900   2.643   5.547   5.568
10008TIP3    H129901   2.684   5.461   5.586
10008TIP3    H229902   2.717   5.596   5.532
10009TIP3   OH229903   2.684   5.799   5.306
10009TIP3    H129904   2.627   5.852   5.245
10009TIP3    H229905   2.772   5.816   5.266
10010TIP3   OH229906   1.903   5.371   5.735
10010TIP3    H129907   1.838   5.299   5.750
10010TIP3    H229908   1.942   5.343   5.650
10011TIP3   OH229909   2.170   4.817   5.344
10011TIP3    H129910   2.105   4.887   5.358
10011TIP3    H229911   2.119   4.737   5.370
10012TIP3   OH229912   2.290   5.312   5.596
10012TIP3    H129913   2.285   5.299   5.692
10012TIP3    H229914   2.200   5.285   5.570
10013TIP3   OH229915   2.540   5.265   5.460
10013TIP3    H129916   2.461   5.257   5.516
10013TIP3    H229917   2.609   5.220   5.514
10014TIP3   OH229918   2.756   5.172   5.624
10014TIP3    H129919   2.765   5.088   5.675
10014TIP3    H229920   2.757   5.236   5.698
10015TIP3   OH229921   1.748   5.149   5.790
10015TIP3    H129922   1.753   5.059   5.754
10015TIP3    H229923   1.785   5.135   5.880
10016TIP3   OH229924   2.309   5.011   5.795
10016TIP3    H129925   2.303   4.966   5.710
10016TIP3    H229926   2.242   5.083   5.787
10017TIP3   OH229927   1.547   6.261   3.897
10017TIP3    H129928   1.642   6.255   3.877
10017TIP3    H229929   1.516   6.308   3.817
10018TIP3   OH229930   1.026   5.639   4.123
10018TIP3    H129931   1.118   5.666   4.100
10018TIP3    H229932   1.020   5.554   4.075
10019TIP3   OH229933   0.941   6.253   4.525
10019TIP3    H129934   0.873   6.191   4.491
10019TIP3    H229935   0.985   6.197   4.593
10020TIP3   OH229936   1.075   6.107   4.715
10020TIP3    H129937   1.066   6.031   4.774
10020TIP3    H229938   1.126   6.167   4.773
10021TIP3   OH229939   2.800   6.512   4.512
10021TIP3    H129940   2.831   6.538   4.601
10021TIP3    H229941   2.869   6.548   4.455
10022TIP3   OH229942   2.834   6.525   4.795
10022TIP3    H129943   2.790   6.438   4.791
10022TIP3    H229944   2.909   6.502   4.853
10023TIP3   OH229945   2.878   6.203   5.366
10023TIP3    H129946   2.806   6.210   5.432
10023TIP3    H229947   2.920   6.291   5.374
10024TIP3   OH229948   2.693   5.719   3.990
10024TIP3    H129949   2.765   5.777   3.959
10024TIP3    H229950   2.736   5.676   4.068
10025TIP3   OH229951   2.821   5.586   4.192
10025TIP3    H129952   2.757   5.540   4.251
10025TIP3    H229953   2.888   5.620   4.256
10026TIP3   OH229954   2.876   5.974   4.623
10026TIP3    H129955   2.931   5.908   4.576
10026TIP3    H229956   2.868   6.045   4.556
10027TIP3   OH229957   2.710   6.277   4.817
10027TIP3    H129958   2.638   6.313   4.872
10027TIP3    H229959   2.660   6.226   4.750
10028TIP3   OH229960   2.758   5.491   3.841
10028TIP3    H129961   2.688   5.491   3.772
10028TIP3    H229962   2.729   5.567   3.894
10029TIP3   OH229963   2.623   5.166   3.800
10029TIP3    H129964   2.609   5.202   3.712
10029TIP3    H229965   2.601   5.071   3.786
10030TIP3   OH229966   2.636   5.438   4.338
10030TIP3    H129967   2.646   5.342   4.332
10030TIP3    H229968   2.624   5.451   4.435
10031TIP3   OH229969   1.263   5.515   5.084
10031TIP3    H129970   1.263   5.482   4.992
10031TIP3    H229971   1.360   5.515   5.103
10032TIP3   OH229972   2.927   5.864   5.195
10032TIP3    H129973   2.998   5.796   5.188
10032TIP3    H229974   2.956   5.931   5.132
10033TIP3   OH229975   3.112   5.671   5.215
10033TIP3    H129976   3.037   5.619   5.251
10033TIP3    H229977   3.185   5.606   5.229
10034TIP3   OH229978   2.576   4.898   3.781
10034TIP3    H129979   2.653   4.867   3.834
10034TIP3    H229980   2.505   4.837   3.806
10035TIP3   OH229981   2.634   5.155   4.233
10035TIP3    H129982   2.674   5.066   4.249
10035TIP3    H229983   2.692   5.187   4.162
10036TIP3   OH229984   2.795   5.331   4.726
10036TIP3    H129985   2.882   5.357   4.688
10036TIP3    H229986   2.809   5.363   4.818
10037TIP3   OH229987   2.864   5.472   4.959
10037TIP3    H129988   2.787   5.505   5.009
10037TIP3    H229989   2.897   5.554   4.916
10038TIP3   OH229990   1.481   5.201   5.762
10038TIP3    H129991   1.579   5.193   5.762
10038TIP3    H229992   1.457   5.115   5.801
10039TIP3   OH229993   3.354   5.080   5.509
10039TIP3    H129994   3.351   4.988   5.482
10039TIP3    H229995   3.291   5.121   5.446
10040TIP3   OH229996   2.741   4.904   4.272
10040TIP3    H129997   2.790   4.889   4.355
10040TIP3    H229998   2.681   4.827   4.271
10041TIP3   OH229999   1.440   4.893   5.094
10041TIP3    H130000   1.500   4.816   5.103
10041TIP3    H230001   1.505   4.965   5.085
10042TIP3   OH230002   1.244   5.167   5.162
10042TIP3    H130003   1.294   5.155   5.079
10042TIP3    H230004   1.281   5.249   5.195
10043TIP3   OH230005   3.195   5.211   5.316
10043TIP3    H130006   3.113   5.230   5.366
10043TIP3    H230007   3.163   5.132   5.268
10044TIP3   OH230008   2.825   4.840   3.904
10044TIP3    H130009   2.865   4.768   3.851
10044TIP3    H230010   2.891   4.911   3.896
10045TIP3   OH230011   1.228   4.670   4.666
10045TIP3    H130012   1.134   4.666   4.690
10045TIP3    H230013   1.227   4.727   4.587
10046TIP3   OH230014   2.388   6.373   4.166
10046TIP3    H130015   2.455   6.352   4.098
10046TIP3    H230016   2.435   6.437   4.222
10047TIP3   OH230017   1.448   4.757   5.483
10047TIP3    H130018   1.396   4.744   5.564
10047TIP3    H230019   1.380   4.786   5.421
10048TIP3   OH230020   1.487   6.181   5.558
10048TIP3    H130021   1.398   6.146   5.539
10048TIP3    H230022   1.501   6.153   5.649
10049TIP3   OH230023   1.665   6.208   5.104
10049TIP3    H130024   1.618   6.283   5.064
10049TIP3    H230025   1.752   6.220   5.061
10050TIP3   OH230026   2.112   6.455   5.243
10050TIP3    H130027   2.155   6.453   5.331
10050TIP3    H230028   2.180   6.503   5.191
10051TIP3   OH230029   2.291   6.605   5.098
10051TIP3    H130030   2.362   6.551   5.058
10051TIP3    H230031   2.343   6.661   5.160
10052TIP3   OH230032   3.089   4.984   5.183
10052TIP3    H130033   2.998   4.999   5.151
10052TIP3    H230034   3.092   4.888   5.195
10053TIP3   OH230035   1.344   6.470   5.123
10053TIP3    H130036   1.254   6.503   5.103
10053TIP3    H230037   1.352   6.494   5.216
10054TIP3   OH230038   1.579   6.448   4.982
10054TIP3    H130039   1.494   6.459   5.031
10054TIP3    H230040   1.553   6.470   4.892
10055TIP3   OH230041   2.006   6.474   4.782
10055TIP3    H130042   1.937   6.495   4.717
10055TIP3    H230043   2.019   6.560   4.827
10056TIP3   OH230044   2.274   6.414   4.834
10056TIP3    H130045   2.180   6.429   4.813
10056TIP3    H230046   2.318   6.490   4.792
10057TIP3   OH230047   2.481   6.605   4.750
10057TIP3    H130048   2.469   6.689   4.701
10057TIP3    H230049   2.508   6.543   4.678
10058TIP3   OH230050   1.256   6.260   4.874
10058TIP3    H130051   1.282   6.232   4.965
10058TIP3    H230052   1.326   6.214   4.823
10059TIP3   OH230053   1.448   6.130   4.730
10059TIP3    H130054   1.463   6.044   4.777
10059TIP3    H230055   1.540   6.164   4.725
10060TIP3   OH230056   1.717   6.227   4.732
10060TIP3    H130057   1.746   6.135   4.717
10060TIP3    H230058   1.762   6.244   4.817
10061TIP3   OH230059   2.280   4.876   4.806
10061TIP3    H130060   2.245   4.812   4.871
10061TIP3    H230061   2.361   4.830   4.776
10062TIP3   OH230062   2.819   4.756   4.726
10062TIP3    H130063   2.851   4.810   4.650
10062TIP3    H230064   2.723   4.774   4.724
10063TIP3   OH230065   2.909   4.863   4.488
10063TIP3    H130066   2.982   4.812   4.447
10063TIP3    H230067   2.942   4.955   4.473
10064TIP3   OH230068   1.539   4.590   4.835
10064TIP3    H130069   1.448   4.556   4.837
10064TIP3    H230070   1.590   4.505   4.833
10065TIP3   OH230071   1.322   4.459   4.482
10065TIP3    H130072   1.356   4.516   4.411
10065TIP3    H230073   1.297   4.524   4.550
10066TIP3   OH230074   1.979   4.627   4.719
10066TIP3    H130075   2.041   4.674   4.660
10066TIP3    H230076   2.010   4.656   4.806
10067TIP3   OH230077   2.533   4.770   4.702
10067TIP3    H130078   2.529   4.730   4.614
10067TIP3    H230079   2.516   4.690   4.758
10068TIP3   OH230080   2.559   4.690   4.262
10068TIP3    H130081   2.472   4.732   4.274
10068TIP3    H230082   2.546   4.606   4.310
10069TIP3   OH230083   1.044   6.028   4.263
10069TIP3    H130084   0.959   5.995   4.228
10069TIP3    H230085   1.030   6.123   4.250
10070TIP3   OH230086   1.442   4.620   4.247
10070TIP3    H130087   1.491   4.556   4.191
10070TIP3    H230088   1.516   4.673   4.283
10071TIP3   OH230089   1.955   4.795   4.346
10071TIP3    H130090   2.015   4.747   4.407
10071TIP3    H230091   1.977   4.887   4.372
10072TIP3   OH230092   1.816   6.221   3.843
10072TIP3    H130093   1.904   6.246   3.807
10072TIP3    H230094   1.796   6.144   3.786
10073TIP3   OH230095   2.535   6.338   3.918
10073TIP3    H130096   2.527   6.240   3.919
10073TIP3    H230097   2.445   6.363   3.894
10074TIP3   OH230098   1.745   4.874   5.729
10074TIP3    H130099   1.714   4.799   5.782
10074TIP3    H230100   1.841   4.872   5.752
10075TIP3   OH230101   1.994   4.869   5.849
10075TIP3    H130102   2.076   4.836   5.810
10075TIP3    H230103   1.978   4.798   5.916
10076TIP3   OH230104   1.116   6.051   3.901
10076TIP3    H130105   1.114   6.080   3.994
10076TIP3    H230106   1.207   6.014   3.894
10077TIP3   OH230107   2.760   6.483   5.126
10077TIP3    H130108   2.681   6.450   5.079
10077TIP3    H230109   2.739   6.578   5.130
10078TIP3   OH230110   4.026   5.854   3.893
10078TIP3    H130111   3.997   5.945   3.872
10078TIP3    H230112   3.951   5.803   3.858
10079TIP3   OH230113   4.024   5.855   4.274
10079TIP3    H130114   4.055   5.822   4.360
10079TIP3    H230115   3.983   5.776   4.235
10080TIP3   OH230116   3.323   5.751   4.640
10080TIP3    H130117   3.354   5.682   4.702
10080TIP3    H230118   3.405   5.801   4.627
10081TIP3   OH230119   4.267   6.157   3.954
10081TIP3    H130120   4.254   6.084   4.016
10081TIP3    H230121   4.297   6.228   4.012
10082TIP3   OH230122   3.295   6.159   4.364
10082TIP3    H130123   3.286   6.061   4.366
10082TIP3    H230124   3.391   6.167   4.359
10083TIP3   OH230125   3.001   5.363   4.151
10083TIP3    H130126   2.951   5.446   4.160
10083TIP3    H230127   2.933   5.307   4.110
10084TIP3   OH230128   3.063   5.650   4.320
10084TIP3    H130129   3.110   5.572   4.357
10084TIP3    H230130   3.119   5.672   4.244
10085TIP3   OH230131   3.918   6.619   3.973
10085TIP3    H130132   3.963   6.549   3.921
10085TIP3    H230133   3.912   6.577   4.059
10086TIP3   OH230134   3.823   6.081   4.321
10086TIP3    H130135   3.859   6.002   4.276
10086TIP3    H230136   3.908   6.124   4.344
10087TIP3   OH230137   4.840   5.403   4.312
10087TIP3    H130138   4.867   5.487   4.353
10087TIP3    H230139   4.869   5.417   4.220
10088TIP3   OH230140   4.237   5.583   4.354
10088TIP3    H130141   4.278   5.497   4.374
10088TIP3    H230142   4.205   5.567   4.263
10089TIP3   OH230143   3.573   5.241   4.319
10089TIP3    H130144   3.552   5.314   4.256
10089TIP3    H230145   3.526   5.167   4.275
10090TIP3   OH230146   4.267   5.332   3.942
10090TIP3    H130147   4.340   5.315   4.006
10090TIP3    H230148   4.319   5.367   3.867
10091TIP3   OH230149   3.208   5.443   4.426
10091TIP3    H130150   3.291   5.422   4.473
10091TIP3    H230151   3.219   5.387   4.346
10092TIP3   OH230152   3.648   5.641   4.221
10092TIP3    H130153   3.741   5.615   4.233
10092TIP3    H230154   3.609   5.557   4.188
10093TIP3   OH230155   4.913   5.608   4.489
10093TIP3    H130156   4.828   5.652   4.467
10093TIP3    H230157   4.920   5.631   4.582
10094TIP3   OH230158   3.577   5.221   4.751
10094TIP3    H130159   3.516   5.257   4.684
10094TIP3    H230160   3.529   5.243   4.833
10095TIP3   OH230161   3.919   6.075   3.763
10095TIP3    H130162   3.876   6.050   3.680
10095TIP3    H230163   3.872   6.158   3.785
10096TIP3   OH230164   3.678   5.999   4.549
10096TIP3    H130165   3.615   6.063   4.587
10096TIP3    H230166   3.719   6.050   4.477
10097TIP3   OH230167   4.478   5.333   4.113
10097TIP3    H130168   4.469   5.284   4.195
10097TIP3    H230169   4.534   5.408   4.139
10098TIP3   OH230170   3.441   5.339   4.538
10098TIP3    H130171   3.505   5.410   4.562
10098TIP3    H230172   3.490   5.297   4.463
10099TIP3   OH230173   3.504   6.192   4.647
10099TIP3    H130174   3.477   6.277   4.608
10099TIP3    H230175   3.426   6.175   4.704
10100TIP3   OH230176   2.897   5.881   3.882
10100TIP3    H130177   2.863   5.904   3.794
10100TIP3    H230178   2.932   5.966   3.915
10101TIP3   OH230179   4.340   6.399   4.125
10101TIP3    H130180   4.249   6.389   4.163
10101TIP3    H230181   4.330   6.484   4.078
10102TIP3   OH230182   4.629   5.324   4.481
10102TIP3    H130183   4.539   5.338   4.447
10102TIP3    H230184   4.686   5.345   4.404
10103TIP3   OH230185   3.925   4.952   4.458
10103TIP3    H130186   3.916   4.857   4.475
10103TIP3    H230187   3.847   4.987   4.508
10104TIP3   OH230188   4.040   6.447   3.797
10104TIP3    H130189   4.089   6.364   3.778
10104TIP3    H230190   4.102   6.511   3.754
10105TIP3   OH230191   4.182   6.233   3.703
10105TIP3    H130192   4.149   6.153   3.660
10105TIP3    H230193   4.218   6.196   3.787
10106TIP3   OH230194   4.566   6.313   4.465
10106TIP3    H130195   4.554   6.234   4.407
10106TIP3    H230196   4.550   6.386   4.402
10107TIP3   OH230197   3.858   5.707   3.723
10107TIP3    H130198   3.776   5.756   3.700
10107TIP3    H230199   3.902   5.701   3.637
10108TIP3   OH230200   3.816   5.489   3.441
10108TIP3    H130201   3.886   5.540   3.487
10108TIP3    H230202   3.871   5.425   3.393
10109TIP3   OH230203   4.761   5.950   4.312
10109TIP3    H130204   4.677   6.001   4.316
10109TIP3    H230205   4.789   5.971   4.221
10110TIP3   OH230206   4.204   5.789   3.695
10110TIP3    H130207   4.150   5.813   3.773
10110TIP3    H230208   4.287   5.762   3.738
10111TIP3   OH230209   4.440   5.829   4.605
10111TIP3    H130210   4.434   5.912   4.654
10111TIP3    H230211   4.353   5.829   4.560
10112TIP3   OH230212   3.436   5.787   4.111
10112TIP3    H130213   3.392   5.729   4.046
10112TIP3    H230214   3.512   5.732   4.140
10113TIP3   OH230215   3.567   6.200   4.259
10113TIP3    H130216   3.544   6.155   4.177
10113TIP3    H230217   3.656   6.164   4.278
10114TIP3   OH230218   3.571   5.757   4.467
10114TIP3    H130219   3.604   5.733   4.378
10114TIP3    H230220   3.616   5.842   4.485
10115TIP3   OH230221   4.096   6.396   4.243
10115TIP3    H130222   4.086   6.473   4.301
10115TIP3    H230223   4.084   6.320   4.303
10116TIP3   OH230224   3.710   6.316   4.788
10116TIP3    H130225   3.650   6.376   4.836
10116TIP3    H230226   3.645   6.260   4.741
10117TIP3   OH230227   4.045   5.646   3.521
10117TIP3    H130228   4.104   5.705   3.573
10117TIP3    H230229   4.071   5.670   3.428
10118TIP3   OH230230   3.465   5.873   4.890
10118TIP3    H130231   3.467   5.958   4.937
10118TIP3    H230232   3.370   5.851   4.898
10119TIP3   OH230233   3.786   6.327   3.800
10119TIP3    H130234   3.866   6.380   3.814
10119TIP3    H230235   3.727   6.389   3.754
10120TIP3   OH230236   3.504   6.484   4.877
10120TIP3    H130237   3.469   6.480   4.785
10120TIP3    H230238   3.425   6.462   4.930
10121TIP3   OH230239   4.560   4.887   3.568
10121TIP3    H130240   4.479   4.908   3.619
10121TIP3    H230241   4.574   4.970   3.519
10122TIP3   OH230242   3.298   5.628   3.924
10122TIP3    H130243   3.237   5.673   3.862
10122TIP3    H230244   3.262   5.539   3.925
10123TIP3   OH230245   4.359   6.255   3.118
10123TIP3    H130246   4.368   6.351   3.102
10123TIP3    H230247   4.451   6.224   3.105
10124TIP3   OH230248   3.084   6.012   4.823
10124TIP3    H130249   3.020   5.987   4.754
10124TIP3    H230250   3.122   5.926   4.850
10125TIP3   OH230251   2.938   6.208   4.451
10125TIP3    H130252   3.033   6.193   4.445
10125TIP3    H230253   2.934   6.283   4.513
10126TIP3   OH230254   4.802   6.656   4.510
10126TIP3    H130255   4.802   6.559   4.523
10126TIP3    H230256   4.719   6.680   4.557
10127TIP3   OH230257   3.907   6.444   4.645
10127TIP3    H130258   3.907   6.536   4.679
10127TIP3    H230259   3.836   6.404   4.700
10128TIP3   OH230260   3.667   6.572   3.598
10128TIP3    H130261   3.623   6.548   3.514
10128TIP3    H230262   3.634   6.662   3.615
10129TIP3   OH230263   3.106   6.422   3.984
10129TIP3    H130264   3.155   6.412   4.068
10129TIP3    H230265   3.055   6.339   3.984
10130TIP3   OH230266   3.870   6.473   3.239
10130TIP3    H130267   3.929   6.403   3.202
10130TIP3    H230268   3.905   6.480   3.331
10131TIP3   OH230269   3.920   6.522   3.510
10131TIP3    H130270   3.831   6.529   3.552
10131TIP3    H230271   3.970   6.475   3.579
10132TIP3   OH230272   4.695   5.783   4.786
10132TIP3    H130273   4.613   5.802   4.739
10132TIP3    H230274   4.707   5.688   4.765
10133TIP3   OH230275   3.287   6.197   4.814
10133TIP3    H130276   3.339   6.178   4.895
10133TIP3    H230277   3.215   6.132   4.820
10134TIP3   OH230278   3.694   5.021   4.590
10134TIP3    H130279   3.604   4.987   4.572
10134TIP3    H230280   3.670   5.096   4.649
10135TIP3   OH230281   4.214   5.137   4.796
10135TIP3    H130282   4.283   5.096   4.850
10135TIP3    H230283   4.136   5.128   4.851
10136TIP3   OH230284   4.465   5.565   4.715
10136TIP3    H130285   4.414   5.560   4.798
10136TIP3    H230286   4.436   5.650   4.676
10137TIP3   OH230287   4.123   5.696   3.267
10137TIP3    H130288   4.087   5.669   3.180
10137TIP3    H230289   4.205   5.742   3.239
10138TIP3   OH230290   3.836   5.067   3.568
10138TIP3    H130291   3.800   5.065   3.659
10138TIP3    H230292   3.795   4.986   3.532
10139TIP3   OH230293   3.621   5.534   4.615
10139TIP3    H130294   3.570   5.554   4.696
10139TIP3    H230295   3.604   5.615   4.561
10140TIP3   OH230296   3.503   5.422   4.128
10140TIP3    H130297   3.410   5.396   4.145
10140TIP3    H230298   3.517   5.381   4.040
10141TIP3   OH230299   3.995   5.507   3.856
10141TIP3    H130300   3.941   5.578   3.814
10141TIP3    H230301   4.049   5.476   3.781
10142TIP3   OH230302   4.170   5.786   4.945
10142TIP3    H130303   4.147   5.713   5.006
10142TIP3    H230304   4.265   5.798   4.966
10143TIP3   OH230305   4.153   5.536   4.095
10143TIP3    H130306   4.092   5.564   4.023
10143TIP3    H230307   4.186   5.454   4.053
10144TIP3   OH230308   3.438   5.565   4.822
10144TIP3    H130309   3.467   5.625   4.893
10144TIP3    H230310   3.426   5.481   4.871
10145TIP3   OH230311   3.495   5.039   3.535
10145TIP3    H130312   3.480   5.038   3.632
10145TIP3    H230313   3.416   5.090   3.505
10146TIP3   OH230314   3.032   5.087   4.403
10146TIP3    H130315   3.109   5.118   4.457
10146TIP3    H230316   3.072   5.054   4.322
10147TIP3   OH230317   3.006   5.068   3.925
10147TIP3    H130318   3.048   5.106   3.845
10147TIP3    H230319   2.943   5.140   3.945
10148TIP3   OH230320   4.165   5.782   4.519
10148TIP3    H130321   4.196   5.710   4.460
10148TIP3    H230322   4.134   5.729   4.596
10149TIP3   OH230323   3.830   5.243   4.191
10149TIP3    H130324   3.748   5.241   4.243
10149TIP3    H230325   3.898   5.241   4.261
10150TIP3   OH230326   3.265   5.298   4.199
10150TIP3    H130327   3.170   5.305   4.171
10150TIP3    H230328   3.289   5.207   4.175
10151TIP3   OH230329   3.536   5.296   3.887
10151TIP3    H130330   3.630   5.311   3.863
10151TIP3    H230331   3.488   5.318   3.804
10152TIP3   OH230332   4.322   5.321   4.392
10152TIP3    H130333   4.287   5.330   4.483
10152TIP3    H230334   4.259   5.257   4.355
10153TIP3   OH230335   3.378   5.331   3.670
10153TIP3    H130336   3.306   5.284   3.624
10153TIP3    H230337   3.428   5.365   3.592
10154TIP3   OH230338   4.492   7.008   4.610
10154TIP3    H130339   4.491   7.029   4.515
10154TIP3    H230340   4.571   7.055   4.641
10155TIP3   OH230341   3.450   6.120   5.032
10155TIP3    H130342   3.530   6.148   5.081
10155TIP3    H230343   3.385   6.115   5.106
10156TIP3   OH230344   3.914   5.572   4.288
10156TIP3    H130345   3.986   5.529   4.240
10156TIP3    H230346   3.919   5.530   4.376
10157TIP3   OH230347   3.438   5.060   4.165
10157TIP3    H130348   3.405   4.980   4.210
10157TIP3    H230349   3.485   5.022   4.089
10158TIP3   OH230350   3.893   5.474   4.562
10158TIP3    H130351   3.802   5.499   4.587
10158TIP3    H230352   3.948   5.525   4.625
10159TIP3   OH230353   3.626   5.862   3.671
10159TIP3    H130354   3.557   5.792   3.662
10159TIP3    H230355   3.608   5.893   3.764
10160TIP3   OH230356   4.528   6.095   4.302
10160TIP3    H130357   4.551   6.143   4.220
10160TIP3    H230358   4.443   6.052   4.277
10161TIP3   OH230359   4.087   5.170   3.535
10161TIP3    H130360   3.990   5.153   3.542
10161TIP3    H230361   4.095   5.265   3.557
10162TIP3   OH230362   4.032   6.180   4.668
10162TIP3    H130363   4.048   6.150   4.758
10162TIP3    H230364   3.987   6.265   4.679
10163TIP3   OH230365   4.156   5.418   3.638
10163TIP3    H130366   4.252   5.424   3.653
10163TIP3    H230367   4.137   5.497   3.584
10164TIP3   OH230368   3.321   5.883   4.348
10164TIP3    H130369   3.357   5.853   4.262
10164TIP3    H230370   3.358   5.818   4.409
10165TIP3   OH230371   3.773   6.009   3.494
10165TIP3    H130372   3.726   6.095   3.502
10165TIP3    H230373   3.719   5.952   3.553
10166TIP3   OH230374   3.198   5.803   4.962
10166TIP3    H130375   3.219   5.787   5.056
10166TIP3    H230376   3.132   5.734   4.945
10167TIP3   OH230377   3.926   5.915   4.981
10167TIP3    H130378   3.866   5.856   4.931
10167TIP3    H230379   4.013   5.880   4.952
10168TIP3   OH230380   4.188   6.444   4.561
10168TIP3    H130381   4.092   6.434   4.575
10168TIP3    H230382   4.214   6.491   4.643
10169TIP3   OH230383   4.600   5.508   3.474
10169TIP3    H130384   4.536   5.463   3.413
10169TIP3    H230385   4.595   5.597   3.435
10170TIP3   OH230386   4.816   6.367   4.554
10170TIP3    H130387   4.718   6.360   4.546
10170TIP3    H230388   4.842   6.335   4.464
10171TIP3   OH230389   4.298   6.327   3.383
10171TIP3    H130390   4.273   6.255   3.442
10171TIP3    H230391   4.310   6.281   3.297
10172TIP3   OH230392   4.293   5.956   4.222
10172TIP3    H130393   4.200   5.930   4.234
10172TIP3    H230394   4.328   5.877   4.177
10173TIP3   OH230395   3.420   6.185   3.977
10173TIP3    H130396   3.421   6.264   3.919
10173TIP3    H230397   3.327   6.162   3.978
10174TIP3   OH230398   2.993   5.486   3.685
10174TIP3    H130399   3.032   5.574   3.696
10174TIP3    H230400   2.909   5.494   3.735
10175TIP3   OH230401   3.562   5.951   3.920
10175TIP3    H130402   3.526   6.040   3.940
10175TIP3    H230403   3.524   5.898   3.992
10176TIP3   OH230404   3.689   6.528   4.443
10176TIP3    H130405   3.733   6.599   4.392
10176TIP3    H230406   3.765   6.491   4.491
10177TIP3   OH230407   3.338   6.425   3.825
10177TIP3    H130408   3.253   6.431   3.873
10177TIP3    H230409   3.369   6.518   3.828
10178TIP3   OH230410   4.081   6.163   4.399
10178TIP3    H130411   4.071   6.160   4.497
10178TIP3    H230412   4.157   6.105   4.385
10179TIP3   OH230413   4.052   6.057   3.283
10179TIP3    H130414   4.104   6.031   3.363
10179TIP3    H230415   3.964   6.025   3.309
10180TIP3   OH230416   4.327   6.698   4.454
10180TIP3    H130417   4.250   6.637   4.449
10180TIP3    H230418   4.309   6.759   4.380
10181TIP3   OH230419   4.392   6.530   3.103
10181TIP3    H130420   4.430   6.601   3.049
10181TIP3    H230421   4.312   6.575   3.136
10182TIP3   OH230422   3.404   5.316   4.961
10182TIP3    H130423   3.307   5.326   4.975
10182TIP3    H230424   3.423   5.240   5.016
10183TIP3   OH230425   4.212   5.993   3.502
10183TIP3    H130426   4.201   5.924   3.571
10183TIP3    H230427   4.309   5.987   3.488
10184TIP3   OH230428   3.127   6.391   4.602
10184TIP3    H130429   3.178   6.313   4.628
10184TIP3    H230430   3.158   6.456   4.667
10185TIP3   OH230431   3.418   6.034   3.285
10185TIP3    H130432   3.430   5.943   3.252
10185TIP3    H230433   3.393   6.016   3.378
10186TIP3   OH230434   3.358   6.045   3.562
10186TIP3    H130435   3.435   6.010   3.610
10186TIP3    H230436   3.372   6.142   3.567
10187TIP3   OH230437   3.106   5.739   3.759
10187TIP3    H130438   3.037   5.782   3.814
10187TIP3    H230439   3.119   5.805   3.689
10188TIP3   OH230440   4.246   5.373   4.654
10188TIP3    H130441   4.332   5.403   4.688
10188TIP3    H230442   4.231   5.291   4.704
10189TIP3   OH230443   4.129   5.122   3.815
10189TIP3    H130444   4.114   5.145   3.721
10189TIP3    H230445   4.167   5.205   3.850
10190TIP3   OH230446   3.632   6.240   3.508
10190TIP3    H130447   3.544   6.268   3.540
10190TIP3    H230448   3.644   6.300   3.434
10191TIP3   OH230449   3.820   5.300   3.917
10191TIP3    H130450   3.884   5.372   3.900
10191TIP3    H230451   3.824   5.294   4.015
10192TIP3   OH230452   4.088   5.621   4.725
10192TIP3    H130453   4.109   5.671   4.806
10192TIP3    H230454   4.141   5.540   4.734
10193TIP3   OH230455   3.964   5.029   4.021
10193TIP3    H130456   3.956   5.106   4.080
10193TIP3    H230457   4.023   5.065   3.951
10194TIP3   OH230458   3.376   6.318   3.571
10194TIP3    H130459   3.344   6.387   3.508
10194TIP3    H230460   3.358   6.360   3.657
10195TIP3   OH230461   3.473   5.026   3.812
10195TIP3    H130462   3.470   5.117   3.845
10195TIP3    H230463   3.569   5.009   3.818
10196TIP3   OH230464   4.731   5.514   4.701
10196TIP3    H130465   4.633   5.516   4.717
10196TIP3    H230466   4.729   5.467   4.616
10197TIP3   OH230467   4.379   5.716   4.095
10197TIP3    H130468   4.303   5.655   4.106
10197TIP3    H230469   4.450   5.668   4.142
10198TIP3   OH230470   3.090   5.952   3.564
10198TIP3    H130471   3.167   6.012   3.572
10198TIP3    H230472   3.131   5.888   3.501
10199TIP3   OH230473   3.036   5.218   3.698
10199TIP3    H130474   3.038   5.316   3.690
10199TIP3    H230475   2.965   5.197   3.636
10200TIP3   OH230476   4.346   6.672   4.045
10200TIP3    H130477   4.304   6.720   3.970
10200TIP3    H230478   4.440   6.690   4.024
10201TIP3   OH230479   3.424   4.941   4.570
10201TIP3    H130480   3.394   4.909   4.483
10201TIP3    H230481   3.412   4.863   4.626
10202TIP3   OH230482   2.971   6.166   3.957
10202TIP3    H130483   2.892   6.190   4.006
10202TIP3    H230484   2.948   6.199   3.868
10203TIP3   OH230485   3.118   6.698   5.023
10203TIP3    H130486   3.204   6.696   5.069
10203TIP3    H230487   3.097   6.602   5.021
10204TIP3   OH230488   3.602   6.666   5.065
10204TIP3    H130489   3.695   6.642   5.075
10204TIP3    H230490   3.575   6.606   4.993
10205TIP3   OH230491   3.583   6.238   3.201
10205TIP3    H130492   3.526   6.165   3.236
10205TIP3    H230493   3.657   6.186   3.165
10206TIP3   OH230494   4.238   6.570   4.801
10206TIP3    H130495   4.229   6.500   4.869
10206TIP3    H230496   4.317   6.619   4.832
10207TIP3   OH230497   4.019   6.282   3.108
10207TIP3    H130498   4.061   6.215   3.166
10207TIP3    H230499   4.075   6.279   3.028
10208TIP3   OH230500   3.249   6.106   5.223
10208TIP3    H130501   3.267   6.010   5.229
10208TIP3    H230502   3.162   6.106   5.179
10209TIP3   OH230503   3.235   5.776   3.426
10209TIP3    H130504   3.279   5.713   3.485
10209TIP3    H230505   3.289   5.766   3.345
10210TIP3   OH230506   3.857   6.189   4.997
10210TIP3    H130507   3.815   6.203   4.910
10210TIP3    H230508   3.888   6.096   4.991
10211TIP3   OH230509   3.736   5.956   3.224
10211TIP3    H130510   3.738   5.966   3.321
10211TIP3    H230511   3.737   5.858   3.216
10212TIP3   OH230512   4.351   6.197   4.605
10212TIP3    H130513   4.424   6.244   4.559
10212TIP3    H230514   4.277   6.258   4.589
10213TIP3   OH230515   3.369   5.843   5.203
10213TIP3    H130516   3.437   5.778   5.185
10213TIP3    H230517   3.394   5.872   5.294
10214TIP3   OH230518   3.446   5.656   3.647
10214TIP3    H130519   3.409   5.609   3.723
10214TIP3    H230520   3.476   5.583   3.590
10215TIP3   OH230521   3.704   5.725   4.870
10215TIP3    H130522   3.626   5.784   4.870
10215TIP3    H230523   3.753   5.757   4.791
10216TIP3   OH230524   3.534   5.454   3.480
10216TIP3    H130525   3.506   5.455   3.386
10216TIP3    H230526   3.632   5.458   3.470
10217TIP3   OH230527   4.222   6.127   5.002
10217TIP3    H130528   4.300   6.100   4.952
10217TIP3    H230529   4.217   6.059   5.071
10218TIP3   OH230530   4.358   5.786   3.141
10218TIP3    H130531   4.336   5.738   3.059
10218TIP3    H230532   4.325   5.875   3.116
10219TIP3   OH230533   3.826   5.510   4.996
10219TIP3    H130534   3.828   5.431   4.937
10219TIP3    H230535   3.783   5.576   4.938
10220TIP3   OH230536   3.835   5.315   4.804
10220TIP3    H130537   3.857   5.331   4.711
10220TIP3    H230538   3.750   5.268   4.797
10221TIP3   OH230539   3.858   5.837   4.677
10221TIP3    H130540   3.939   5.837   4.623
10221TIP3    H230541   3.802   5.902   4.630
10222TIP3   OH230542   4.437   5.800   5.056
10222TIP3    H130543   4.484   5.722   5.092
10222TIP3    H230544   4.510   5.852   5.020
10223TIP3   OH230545   4.481   6.055   4.793
10223TIP3    H130546   4.423   6.107   4.733
10223TIP3    H230547   4.568   6.075   4.751
10224TIP3   OH230548   3.707   5.625   5.224
10224TIP3    H130549   3.635   5.561   5.240
10224TIP3    H230550   3.738   5.598   5.135
10225TIP3   OH230551   4.089   5.564   5.081
10225TIP3    H130552   4.079   5.558   5.177
10225TIP3    H230553   3.997   5.541   5.053
10226TIP3   OH230554   4.331   5.513   4.947
10226TIP3    H130555   4.250   5.521   5.000
10226TIP3    H230556   4.394   5.476   5.011
10227TIP3   OH230557   3.548   5.406   5.275
10227TIP3    H130558   3.587   5.329   5.230
10227TIP3    H230559   3.575   5.391   5.368
10228TIP3   OH230560   4.108   5.274   5.277
10228TIP3    H130561   4.099   5.239   5.188
10228TIP3    H230562   4.040   5.346   5.279
10229TIP3   OH230563   3.342   6.522   3.386
10229TIP3    H130564   3.438   6.513   3.365
10229TIP3    H230565   3.312   6.565   3.304
10230TIP3   OH230566   2.823   5.902   3.607
10230TIP3    H130567   2.917   5.921   3.585
10230TIP3    H230568   2.813   5.814   3.562
10231TIP3   OH230569   2.737   6.511   4.015
10231TIP3    H130570   2.675   6.446   3.975
10231TIP3    H230571   2.783   6.455   4.082
10232TIP3   OH230572   2.869   6.365   4.204
10232TIP3    H130573   2.864   6.287   4.262
10232TIP3    H230574   2.923   6.424   4.260
10233TIP3   OH230575   4.597   6.767   3.999
10233TIP3    H130576   4.629   6.795   4.087
10233TIP3    H230577   4.665   6.803   3.940
10234TIP3   OH230578   4.631   6.783   4.282
10234TIP3    H130579   4.585   6.696   4.277
10234TIP3    H230580   4.705   6.758   4.339
10235TIP3   OH230581   4.675   6.459   4.855
10235TIP3    H130582   4.602   6.466   4.919
10235TIP3    H230583   4.716   6.548   4.860
10236TIP3   OH230584   4.490   5.974   3.474
10236TIP3    H130585   4.561   6.035   3.446
10236TIP3    H230586   4.531   5.935   3.555
10237TIP3   OH230587   4.614   5.848   3.681
10237TIP3    H130588   4.551   5.800   3.740
10237TIP3    H230589   4.682   5.879   3.744
10238TIP3   OH230590   4.673   6.231   4.111
10238TIP3    H130591   4.726   6.164   4.063
10238TIP3    H230592   4.664   6.302   4.045
10239TIP3   OH230593   4.506   6.533   4.305
10239TIP3    H130594   4.434   6.571   4.359
10239TIP3    H230595   4.457   6.483   4.237
10240TIP3   OH230596   4.557   5.748   3.327
10240TIP3    H130597   4.486   5.749   3.259
10240TIP3    H230598   4.529   5.824   3.381
10241TIP3   OH230599   4.429   5.421   3.280
10241TIP3    H130600   4.386   5.458   3.202
10241TIP3    H230601   4.404   5.326   3.272
10242TIP3   OH230602   4.433   5.695   3.826
10242TIP3    H130603   4.442   5.598   3.818
10242TIP3    H230604   4.420   5.707   3.922
10243TIP3   OH230605   3.059   5.773   4.570
10243TIP3    H130606   3.059   5.739   4.478
10243TIP3    H230607   3.156   5.772   4.589
10244TIP3   OH230608   4.724   6.120   4.682
10244TIP3    H130609   4.796   6.054   4.673
10244TIP3    H230610   4.750   6.188   4.618
10245TIP3   OH230611   4.909   5.926   4.703
10245TIP3    H130612   4.834   5.874   4.739
10245TIP3    H230613   4.981   5.862   4.715
10246TIP3   OH230614   4.372   5.155   3.266
10246TIP3    H130615   4.448   5.124   3.320
10246TIP3    H230616   4.300   5.095   3.291
10247TIP3   OH230617   4.430   5.413   3.721
10247TIP3    H130618   4.470   5.323   3.736
10247TIP3    H230619   4.490   5.444   3.651
10248TIP3   OH230620   4.592   5.587   4.215
10248TIP3    H130621   4.678   5.613   4.175
10248TIP3    H230622   4.606   5.621   4.306
10249TIP3   OH230623   4.662   5.729   4.449
10249TIP3    H130624   4.583   5.762   4.496
10249TIP3    H230625   4.693   5.810   4.403
10250TIP3   OH230626   3.281   5.463   5.255
10250TIP3    H130627   3.378   5.447   5.253
10250TIP3    H230628   3.250   5.375   5.285
10251TIP3   OH230629   5.155   5.327   4.998
10251TIP3    H130630   5.126   5.235   4.991
10251TIP3    H230631   5.089   5.374   4.943
10252TIP3   OH230632   4.537   5.162   3.760
10252TIP3    H130633   4.587   5.146   3.842
10252TIP3    H230634   4.477   5.084   3.759
10253TIP3   OH230635   3.239   5.149   4.577
10253TIP3    H130636   3.301   5.074   4.589
10253TIP3    H230637   3.302   5.223   4.571
10254TIP3   OH230638   3.041   5.422   4.650
10254TIP3    H130639   3.091   5.413   4.566
10254TIP3    H230640   3.077   5.505   4.683
10255TIP3   OH230641   4.984   5.465   4.826
10255TIP3    H130642   4.890   5.484   4.843
10255TIP3    H230643   4.977   5.407   4.750
10256TIP3   OH230644   4.619   5.097   3.390
10256TIP3    H130645   4.663   5.026   3.339
10256TIP3    H230646   4.685   5.168   3.389
10257TIP3   OH230647   3.025   4.926   4.153
10257TIP3    H130648   2.931   4.923   4.177
10257TIP3    H230649   3.024   4.984   4.074
10258TIP3   OH230650   4.184   6.631   3.658
10258TIP3    H130651   4.231   6.611   3.574
10258TIP3    H230652   4.246   6.692   3.701
10259TIP3   OH230653   3.240   4.999   4.955
10259TIP3    H130654   3.200   5.005   5.044
10259TIP3    H230655   3.173   5.045   4.901
10260TIP3   OH230656   3.284   6.437   5.044
10260TIP3    H130657   3.194   6.403   5.025
10260TIP3    H230658   3.296   6.409   5.136
10261TIP3   OH230659   3.461   6.464   4.591
10261TIP3    H130660   3.415   6.540   4.551
10261TIP3    H230661   3.548   6.476   4.548
10262TIP3   OH230662   3.908   6.711   4.729
10262TIP3    H130663   3.951   6.710   4.818
10262TIP3    H230664   3.975   6.760   4.677
10263TIP3   OH230665   4.087   6.862   4.585
10263TIP3    H130666   4.157   6.808   4.545
10263TIP3    H230667   4.139   6.917   4.647
10264TIP3   OH230668   3.140   6.725   4.611
10264TIP3    H130669   3.050   6.759   4.590
10264TIP3    H230670   3.148   6.751   4.703
10265TIP3   OH230671   3.377   6.703   4.472
10265TIP3    H130672   3.290   6.714   4.517
10265TIP3    H230673   3.356   6.732   4.381
10266TIP3   OH230674   3.802   6.730   4.270
10266TIP3    H130675   3.732   6.749   4.205
10266TIP3    H230676   3.814   6.817   4.313
10267TIP3   OH230677   4.070   6.671   4.322
10267TIP3    H130678   3.976   6.685   4.300
10267TIP3    H230679   4.113   6.745   4.277
10268TIP3   OH230680   4.280   6.863   4.237
10268TIP3    H130681   4.265   6.946   4.187
10268TIP3    H230682   4.305   6.800   4.165
10269TIP3   OH230683   3.051   6.515   4.361
10269TIP3    H130684   3.078   6.489   4.451
10269TIP3    H230685   3.122   6.471   4.309
10270TIP3   OH230686   3.244   6.387   4.216
10270TIP3    H130687   3.259   6.302   4.263
10270TIP3    H230688   3.336   6.422   4.211
10271TIP3   OH230689   3.512   6.483   4.217
10271TIP3    H130690   3.541   6.391   4.203
10271TIP3    H230691   3.556   6.500   4.303
10272TIP3   OH230692   4.087   5.139   4.305
10272TIP3    H130693   4.040   5.071   4.356
10272TIP3    H230694   4.158   5.089   4.262
10273TIP3   OH230695   4.615   5.017   4.213
10273TIP3    H130696   4.648   5.070   4.137
10273TIP3    H230697   4.519   5.034   4.209
10274TIP3   OH230698   4.704   5.121   3.976
10274TIP3    H130699   4.774   5.066   3.934
10274TIP3    H230700   4.741   5.211   3.959
10275TIP3   OH230701   3.335   4.847   4.323
10275TIP3    H130702   3.243   4.814   4.323
10275TIP3    H230703   3.384   4.762   4.318
10276TIP3   OH230704   3.124   4.715   3.969
10276TIP3    H130705   3.153   4.773   3.896
10276TIP3    H230706   3.093   4.781   4.035
10277TIP3   OH230707   3.780   4.876   4.204
10277TIP3    H130708   3.837   4.928   4.144
10277TIP3    H230709   3.797   4.919   4.289
10278TIP3   OH230710   4.330   5.026   4.187
10278TIP3    H130711   4.323   4.991   4.098
10278TIP3    H230712   4.312   4.945   4.241
10279TIP3   OH230713   4.356   4.947   3.749
10279TIP3    H130714   4.269   4.990   3.759
10279TIP3    H230715   4.340   4.862   3.795
10280TIP3   OH230716   2.838   6.287   3.755
10280TIP3    H130717   2.771   6.236   3.709
10280TIP3    H230718   2.817   6.379   3.730
10281TIP3   OH230719   3.238   4.872   3.738
10281TIP3    H130720   3.287   4.813   3.677
10281TIP3    H230721   3.310   4.929   3.772
10282TIP3   OH230722   3.751   5.050   3.833
10282TIP3    H130723   3.812   5.004   3.893
10282TIP3    H230724   3.772   5.143   3.857
10283TIP3   OH230725   3.610   6.479   3.331
10283TIP3    H130726   3.699   6.498   3.296
10283TIP3    H230727   3.588   6.402   3.273
10284TIP3   OH230728   4.328   6.593   3.426
10284TIP3    H130729   4.322   6.495   3.413
10284TIP3    H230730   4.285   6.624   3.344
10285TIP3   OH230731   3.794   5.152   5.346
10285TIP3    H130732   3.888   5.131   5.339
10285TIP3    H230733   3.766   5.084   5.412
10286TIP3   OH230734   2.921   6.316   3.396
10286TIP3    H130735   2.939   6.336   3.488
10286TIP3    H230736   3.003   6.268   3.370
10287TIP3   OH230737   4.557   6.739   4.613
10287TIP3    H130738   4.478   6.706   4.565
10287TIP3    H230739   4.535   6.834   4.617
10288TIP3   OH230740   5.823   6.111   3.380
10288TIP3    H130741   5.794   6.202   3.359
10288TIP3    H230742   5.746   6.061   3.348
10289TIP3   OH230743   5.820   6.110   3.761
10289TIP3    H130744   5.851   6.078   3.847
10289TIP3    H230745   5.778   6.030   3.724
10290TIP3   OH230746   5.120   6.009   4.128
10290TIP3    H130747   5.152   5.939   4.188
10290TIP3    H230748   5.203   6.056   4.109
10291TIP3   OH230749   6.061   6.414   3.441
10291TIP3    H130750   6.052   6.340   3.502
10291TIP3    H230751   6.094   6.485   3.499
10292TIP3   OH230752   5.092   6.416   3.852
10292TIP3    H130753   5.083   6.318   3.853
10292TIP3    H230754   5.188   6.424   3.845
10293TIP3   OH230755   4.799   5.638   3.654
10293TIP3    H130756   4.736   5.712   3.648
10293TIP3    H230757   4.748   5.566   3.612
10294TIP3   OH230758   4.859   5.910   3.807
10294TIP3    H130759   4.903   5.829   3.842
10294TIP3    H230760   4.911   5.926   3.727
10295TIP3   OH230761   5.715   6.876   3.459
10295TIP3    H130762   5.760   6.805   3.408
10295TIP3    H230763   5.707   6.834   3.546
10296TIP3   OH230764   5.620   6.337   3.808
10296TIP3    H130765   5.655   6.259   3.763
10296TIP3    H230766   5.705   6.380   3.831
10297TIP3   OH230767   6.642   5.659   3.802
10297TIP3    H130768   6.666   5.744   3.845
10297TIP3    H230769   6.662   5.679   3.709
10298TIP3   OH230770   6.035   5.842   3.840
10298TIP3    H130771   6.073   5.754   3.861
10298TIP3    H230772   6.001   5.825   3.750
10299TIP3   OH230773   6.062   5.571   3.427
10299TIP3    H130774   6.135   5.564   3.493
10299TIP3    H230775   6.109   5.617   3.355
10300TIP3   OH230776   4.995   5.694   3.909
10300TIP3    H130777   5.084   5.669   3.941
10300TIP3    H230778   4.983   5.634   3.834
10301TIP3   OH230779   5.440   5.896   3.708
10301TIP3    H130780   5.534   5.867   3.718
10301TIP3    H230781   5.398   5.814   3.673
10302TIP3   OH230782   6.713   5.869   3.971
10302TIP3    H130783   6.629   5.914   3.945
10302TIP3    H230784   6.697   5.864   4.067
10303TIP3   OH230785   5.366   5.474   4.242
10303TIP3    H130786   5.310   5.511   4.172
10303TIP3    H230787   5.316   5.500   4.322
10304TIP3   OH230788   5.715   6.332   3.249
10304TIP3    H130789   5.670   6.308   3.167
10304TIP3    H230790   5.670   6.416   3.272
10305TIP3   OH230791   5.475   6.256   4.037
10305TIP3    H130792   5.411   6.320   4.074
10305TIP3    H230793   5.515   6.306   3.963
10306TIP3   OH230794   6.275   5.587   3.601
10306TIP3    H130795   6.255   5.552   3.689
10306TIP3    H230796   6.329   5.665   3.623
10307TIP3   OH230797   5.238   5.589   4.012
10307TIP3    H130798   5.305   5.657   4.034
10307TIP3    H230799   5.280   5.543   3.937
10308TIP3   OH230800   5.301   6.449   4.135
10308TIP3    H130801   5.274   6.534   4.094
10308TIP3    H230802   5.222   6.432   4.190
10309TIP3   OH230803   4.696   6.139   3.369
10309TIP3    H130804   4.655   6.165   3.284
10309TIP3    H230805   4.727   6.224   3.405
10310TIP3   OH230806   6.136   6.656   3.613
10310TIP3    H130807   6.046   6.646   3.650
10310TIP3    H230808   6.126   6.741   3.565
10311TIP3   OH230809   6.423   5.570   3.960
10311TIP3    H130810   6.334   5.597   3.933
10311TIP3    H230811   6.480   5.602   3.888
10312TIP3   OH230812   5.726   5.207   3.959
10312TIP3    H130813   5.706   5.112   3.964
10312TIP3    H230814   5.645   5.245   3.999
10313TIP3   OH230815   5.837   6.704   3.284
10313TIP3    H130816   5.886   6.620   3.265
10313TIP3    H230817   5.899   6.768   3.242
10314TIP3   OH230818   5.979   6.489   3.189
10314TIP3    H130819   5.942   6.409   3.149
10314TIP3    H230820   6.015   6.453   3.273
10315TIP3   OH230821   6.362   6.570   3.952
10315TIP3    H130822   6.351   6.491   3.894
10315TIP3    H230823   6.347   6.643   3.888
10316TIP3   OH230824   5.652   5.962   3.209
10316TIP3    H130825   5.571   6.013   3.188
10316TIP3    H230826   5.699   5.961   3.124
10317TIP3   OH230827   5.612   5.747   2.925
10317TIP3    H130828   5.679   5.797   2.975
10317TIP3    H230829   5.671   5.683   2.879
10318TIP3   OH230830   6.557   6.208   3.801
10318TIP3    H130831   6.473   6.259   3.802
10318TIP3    H230832   6.588   6.228   3.710
10319TIP3   OH230833   5.999   6.044   3.181
10319TIP3    H130834   5.946   6.069   3.261
10319TIP3    H230835   6.084   6.019   3.224
10320TIP3   OH230836   6.237   6.083   4.094
10320TIP3    H130837   6.232   6.167   4.142
10320TIP3    H230838   6.151   6.084   4.048
10321TIP3   OH230839   5.233   6.045   3.597
10321TIP3    H130840   5.189   5.986   3.531
10321TIP3    H230841   5.307   5.988   3.628
10322TIP3   OH230842   5.363   6.456   3.746
10322TIP3    H130843   5.340   6.410   3.664
10322TIP3    H230844   5.452   6.420   3.764
10323TIP3   OH230845   5.368   6.012   3.956
10323TIP3    H130846   5.399   5.987   3.866
10323TIP3    H230847   5.413   6.098   3.971
10324TIP3   OH230848   5.892   6.653   3.729
10324TIP3    H130849   5.881   6.729   3.788
10324TIP3    H230850   5.880   6.576   3.790
10325TIP3   OH230851   5.506   6.572   4.276
10325TIP3    H130852   5.445   6.633   4.323
10325TIP3    H230853   5.442   6.517   4.227
10326TIP3   OH230854   5.842   5.901   3.008
10326TIP3    H130855   5.900   5.961   3.061
10326TIP3    H230856   5.869   5.926   2.916
10327TIP3   OH230857   5.263   6.127   4.380
10327TIP3    H130858   5.264   6.214   4.424
10327TIP3    H230859   5.167   6.107   4.382
10328TIP3   OH230860   5.583   6.583   3.284
10328TIP3    H130861   5.662   6.637   3.301
10328TIP3    H230862   5.522   6.646   3.242
10329TIP3   OH230863   5.300   6.741   4.364
10329TIP3    H130864   5.266   6.737   4.272
10329TIP3    H230865   5.221   6.718   4.417
10330TIP3   OH230866   6.361   5.144   3.051
10330TIP3    H130867   6.280   5.167   3.101
10330TIP3    H230868   6.377   5.227   3.001
10331TIP3   OH230869   5.099   5.892   3.403
10331TIP3    H130870   5.026   5.923   3.346
10331TIP3    H230871   5.075   5.800   3.421
10332TIP3   OH230872   6.155   6.511   2.604
10332TIP3    H130873   6.164   6.608   2.590
10332TIP3    H230874   6.247   6.481   2.590
10333TIP3   OH230875   4.880   6.270   4.310
10333TIP3    H130876   4.815   6.246   4.240
10333TIP3    H230877   4.917   6.182   4.335
10334TIP3   OH230878   4.734   6.463   3.941
10334TIP3    H130879   4.829   6.451   3.931
10334TIP3    H230880   4.730   6.540   3.999
10335TIP3   OH230881   6.597   6.913   3.995
10335TIP3    H130882   6.598   6.816   4.008
10335TIP3    H230883   6.514   6.936   4.043
10336TIP3   OH230884   5.704   6.700   4.133
10336TIP3    H130885   5.703   6.792   4.166
10336TIP3    H230886   5.632   6.660   4.187
10337TIP3   OH230887   5.464   6.829   3.085
10337TIP3    H130888   5.419   6.808   3.001
10337TIP3    H230889   5.432   6.918   3.106
10338TIP3   OH230890   4.903   6.679   3.469
10338TIP3    H130891   4.950   6.668   3.555
10338TIP3    H230892   4.849   6.597   3.468
10339TIP3   OH230893   5.667   6.730   2.726
10339TIP3    H130894   5.726   6.660   2.689
10339TIP3    H230895   5.701   6.738   2.817
10340TIP3   OH230896   5.717   6.778   2.996
10340TIP3    H130897   5.628   6.787   3.038
10340TIP3    H230898   5.766   6.732   3.067
10341TIP3   OH230899   6.490   6.043   4.277
10341TIP3    H130900   6.411   6.057   4.224
10341TIP3    H230901   6.511   5.950   4.254
10342TIP3   OH230902   5.084   6.454   4.301
10342TIP3    H130903   5.135   6.434   4.382
10342TIP3    H230904   5.011   6.388   4.306
10343TIP3   OH230905   5.491   5.283   4.075
10343TIP3    H130906   5.399   5.253   4.060
10343TIP3    H230907   5.474   5.353   4.141
10344TIP3   OH230908   6.006   5.394   4.289
10344TIP3    H130909   6.075   5.358   4.346
10344TIP3    H230910   5.925   5.382   4.340
10345TIP3   OH230911   6.251   5.815   4.196
10345TIP3    H130912   6.206   5.816   4.283
10345TIP3    H230913   6.235   5.904   4.161
10346TIP3   OH230914   5.917   5.949   2.751
10346TIP3    H130915   5.884   5.924   2.663
10346TIP3    H230916   5.997   5.999   2.728
10347TIP3   OH230917   5.637   5.315   3.055
10347TIP3    H130918   5.597   5.322   3.143
10347TIP3    H230919   5.584   5.243   3.016
10348TIP3   OH230920   5.414   5.785   4.101
10348TIP3    H130921   5.361   5.806   4.180
10348TIP3    H230922   5.402   5.866   4.047
10349TIP3   OH230923   5.293   5.684   3.608
10349TIP3    H130924   5.263   5.598   3.645
10349TIP3    H230925   5.317   5.650   3.519
10350TIP3   OH230926   5.793   5.766   3.343
10350TIP3    H130927   5.738   5.837   3.303
10350TIP3    H230928   5.845   5.736   3.267
10351TIP3   OH230929   5.967   6.042   4.432
10351TIP3    H130930   5.945   5.969   4.493
10351TIP3    H230931   6.061   6.055   4.451
10352TIP3   OH230932   5.954   5.791   3.580
10352TIP3    H130933   5.891   5.821   3.511
10352TIP3    H230934   5.978   5.705   3.541
10353TIP3   OH230935   5.234   5.821   4.310
10353TIP3    H130936   5.260   5.883   4.380
10353TIP3    H230937   5.223   5.737   4.360
10354TIP3   OH230938   5.290   5.301   3.021
10354TIP3    H130939   5.278   5.302   3.118
10354TIP3    H230940   5.209   5.349   2.993
10355TIP3   OH230941   4.834   5.342   3.890
10355TIP3    H130942   4.907   5.372   3.947
10355TIP3    H230943   4.879   5.318   3.807
10356TIP3   OH230944   4.798   5.319   3.406
10356TIP3    H130945   4.852   5.358   3.334
10356TIP3    H230946   4.742   5.395   3.429
10357TIP3   OH230947   5.960   6.038   4.008
10357TIP3    H130948   5.992   5.966   3.948
10357TIP3    H230949   5.928   5.984   4.083
10358TIP3   OH230950   5.618   5.493   3.665
10358TIP3    H130951   5.526   5.486   3.697
10358TIP3    H230952   5.671   5.497   3.745
10359TIP3   OH230953   5.346   5.579   3.361
10359TIP3    H130954   5.437   5.582   3.330
10359TIP3    H230955   5.291   5.580   3.280
10360TIP3   OH230956   6.114   5.577   3.876
10360TIP3    H130957   6.083   5.588   3.968
10360TIP3    H230958   6.046   5.515   3.842
10361TIP3   OH230959   5.167   5.592   3.151
10361TIP3    H130960   5.094   5.544   3.108
10361TIP3    H230961   5.218   5.623   3.073
10362TIP3   OH230962   6.287   7.266   4.096
10362TIP3    H130963   6.286   7.284   4.001
10362TIP3    H230964   6.369   7.310   4.125
10363TIP3   OH230965   5.246   6.376   4.519
10363TIP3    H130966   5.326   6.404   4.568
10363TIP3    H230967   5.181   6.372   4.593
10364TIP3   OH230968   5.710   5.831   3.773
10364TIP3    H130969   5.780   5.779   3.731
10364TIP3    H230970   5.710   5.794   3.864
10365TIP3   OH230971   5.693   5.744   4.034
10365TIP3    H130972   5.602   5.744   4.072
10365TIP3    H230973   5.747   5.778   4.108
10366TIP3   OH230974   5.423   6.116   3.158
10366TIP3    H130975   5.352   6.048   3.149
10366TIP3    H230976   5.405   6.148   3.250
10367TIP3   OH230977   6.324   6.353   3.789
10367TIP3    H130978   6.349   6.400   3.706
10367TIP3    H230979   6.240   6.309   3.763
10368TIP3   OH230980   5.885   5.424   3.024
10368TIP3    H130981   5.787   5.413   3.026
10368TIP3    H230982   5.898   5.518   3.046
10369TIP3   OH230983   5.829   6.437   4.154
10369TIP3    H130984   5.843   6.407   4.245
10369TIP3    H230985   5.783   6.522   4.166
10370TIP3   OH230986   5.953   5.672   3.120
10370TIP3    H130987   6.048   5.680   3.141
10370TIP3    H230988   5.934   5.755   3.071
10371TIP3   OH230989   5.119   6.141   3.834
10371TIP3    H130990   5.153   6.110   3.748
10371TIP3    H230991   5.153   6.072   3.894
10372TIP3   OH230992   5.568   6.264   2.979
10372TIP3    H130993   5.521   6.351   2.987
10372TIP3    H230994   5.514   6.209   3.040
10373TIP3   OH230995   4.995   6.059   4.449
10373TIP3    H130996   5.015   6.043   4.543
10373TIP3    H230997   4.927   5.991   4.430
10374TIP3   OH230998   5.722   6.171   4.469
10374TIP3    H130999   5.663   6.116   4.414
10374TIP3    H231000   5.810   6.137   4.439
10375TIP3   OH231001   5.984   6.702   4.047
10375TIP3    H131002   5.889   6.690   4.062
10375TIP3    H231003   6.010   6.748   4.130
10376TIP3   OH231004   6.386   5.764   2.960
10376TIP3    H131005   6.326   5.719   2.897
10376TIP3    H231006   6.386   5.853   2.919
10377TIP3   OH231007   6.612   6.625   4.039
10377TIP3    H131008   6.515   6.617   4.032
10377TIP3    H231009   6.638   6.592   3.950
10378TIP3   OH231010   6.093   6.584   2.868
10378TIP3    H131011   6.071   6.513   2.931
10378TIP3    H231012   6.106   6.536   2.784
10379TIP3   OH231013   6.089   6.213   3.709
10379TIP3    H131014   5.996   6.186   3.721
10379TIP3    H231015   6.125   6.134   3.664
10380TIP3   OH231016   5.216   6.441   3.462
10380TIP3    H131017   5.216   6.521   3.406
10380TIP3    H231018   5.122   6.421   3.467
10381TIP3   OH231019   4.778   5.744   3.162
10381TIP3    H131020   4.826   5.827   3.184
10381TIP3    H231021   4.702   5.750   3.224
10382TIP3   OH231022   5.357   6.208   3.404
10382TIP3    H131023   5.321   6.296   3.426
10382TIP3    H231024   5.321   6.154   3.477
10383TIP3   OH231025   5.485   6.785   3.930
10383TIP3    H131026   5.528   6.856   3.878
10383TIP3    H231027   5.562   6.748   3.977
10384TIP3   OH231028   5.136   6.680   3.312
10384TIP3    H131029   5.050   6.687   3.358
10384TIP3    H231030   5.166   6.773   3.314
10385TIP3   OH231031   5.877   6.420   3.886
10385TIP3    H131032   5.868   6.416   3.984
10385TIP3    H231033   5.953   6.362   3.871
10386TIP3   OH231034   5.848   6.311   2.770
10386TIP3    H131035   5.902   6.286   2.849
10386TIP3    H231036   5.760   6.284   2.800
10387TIP3   OH231037   6.122   6.956   3.942
10387TIP3    H131038   6.046   6.894   3.936
10387TIP3    H231039   6.105   7.016   3.867
10388TIP3   OH231040   6.188   6.786   2.590
10388TIP3    H131041   6.225   6.858   2.536
10388TIP3    H231042   6.108   6.832   2.623
10389TIP3   OH231043   5.208   5.568   4.458
10389TIP3    H131044   5.111   5.570   4.469
10389TIP3    H231045   5.236   5.503   4.524
10390TIP3   OH231046   6.009   6.246   2.987
10390TIP3    H131047   5.999   6.180   3.058
10390TIP3    H231048   6.107   6.243   2.975
10391TIP3   OH231049   4.923   6.648   4.090
10391TIP3    H131050   4.974   6.570   4.114
10391TIP3    H231051   4.956   6.712   4.154
10392TIP3   OH231052   5.215   6.292   2.770
10392TIP3    H131053   5.228   6.200   2.740
10392TIP3    H231054   5.196   6.279   2.865
10393TIP3   OH231055   5.160   6.297   3.042
10393TIP3    H131056   5.231   6.267   3.101
10393TIP3    H231057   5.167   6.395   3.050
10394TIP3   OH231058   4.893   5.989   3.242
10394TIP3    H131059   4.829   6.033   3.301
10394TIP3    H231060   4.910   6.060   3.178
10395TIP3   OH231061   6.043   5.628   4.139
10395TIP3    H131062   6.128   5.665   4.169
10395TIP3    H231063   6.033   5.547   4.193
10396TIP3   OH231064   5.925   5.335   3.292
10396TIP3    H131065   5.912   5.381   3.206
10396TIP3    H231066   5.951   5.411   3.348
10397TIP3   OH231067   5.427   6.495   2.992
10397TIP3    H131068   5.340   6.522   3.027
10397TIP3    H231069   5.441   6.563   2.925
10398TIP3   OH231070   5.631   5.546   3.395
10398TIP3    H131071   5.687   5.626   3.388
10398TIP3    H231072   5.623   5.538   3.493
10399TIP3   OH231073   5.884   5.876   4.215
10399TIP3    H131074   5.908   5.930   4.293
10399TIP3    H231075   5.943   5.800   4.222
10400TIP3   OH231076   5.170   6.571   3.058
10400TIP3    H131077   5.139   6.640   2.995
10400TIP3    H231078   5.153   6.613   3.144
10401TIP3   OH231079   5.265   5.285   3.295
10401TIP3    H131080   5.244   5.348   3.367
10401TIP3    H231081   5.351   5.255   3.324
10402TIP3   OH231082   6.525   5.791   4.166
10402TIP3    H131083   6.434   5.780   4.199
10402TIP3    H231084   6.527   5.716   4.105
10403TIP3   OH231085   6.176   5.973   3.584
10403TIP3    H131086   6.101   5.912   3.593
10403TIP3    H231087   6.248   5.925   3.629
10404TIP3   OH231088   4.887   6.202   3.050
10404TIP3    H131089   4.955   6.271   3.059
10404TIP3    H231090   4.932   6.145   2.984
10405TIP3   OH231091   4.836   5.475   3.178
10405TIP3    H131092   4.832   5.573   3.177
10405TIP3    H231093   4.747   5.452   3.151
10406TIP3   OH231094   6.142   6.930   3.532
10406TIP3    H131095   6.099   6.977   3.457
10406TIP3    H231096   6.236   6.947   3.511
10407TIP3   OH231097   5.222   5.204   4.073
10407TIP3    H131098   5.192   5.174   3.983
10407TIP3    H231099   5.207   5.122   4.124
10408TIP3   OH231100   4.763   6.422   3.441
10408TIP3    H131101   4.686   6.446   3.493
10408TIP3    H231102   4.737   6.456   3.353
10409TIP3   OH231103   4.914   6.954   4.510
10409TIP3    H131104   5.000   6.952   4.556
10409TIP3    H231105   4.892   6.859   4.508
10410TIP3   OH231106   5.399   6.922   4.553
10410TIP3    H131107   5.492   6.897   4.560
10410TIP3    H231108   5.371   6.863   4.479
10411TIP3   OH231109   5.379   6.496   2.685
10411TIP3    H131110   5.322   6.424   2.721
10411TIP3    H231111   5.453   6.443   2.651
10412TIP3   OH231112   6.034   6.828   4.289
10412TIP3    H131113   6.025   6.756   4.356
10412TIP3    H231114   6.114   6.875   4.319
10413TIP3   OH231115   5.815   6.538   2.594
10413TIP3    H131116   5.859   6.473   2.652
10413TIP3    H231117   5.871   6.536   2.514
10414TIP3   OH231118   5.045   6.362   4.710
10414TIP3    H131119   5.063   6.266   4.715
10414TIP3    H231120   4.958   6.363   4.666
10415TIP3   OH231121   5.022   6.014   2.903
10415TIP3    H131122   5.075   5.977   2.976
10415TIP3    H231123   5.091   6.018   2.832
10416TIP3   OH231124   5.653   6.446   4.484
10416TIP3    H131125   5.611   6.460   4.396
10416TIP3    H231126   5.684   6.353   4.477
10417TIP3   OH231127   5.532   6.211   2.710
10417TIP3    H131128   5.534   6.224   2.807
10417TIP3    H231129   5.530   6.113   2.704
10418TIP3   OH231130   6.148   6.454   4.092
10418TIP3    H131131   6.220   6.500   4.045
10418TIP3    H231132   6.073   6.515   4.075
10419TIP3   OH231133   5.164   6.097   4.692
10419TIP3    H131134   5.236   6.036   4.671
10419TIP3    H231135   5.190   6.129   4.781
10420TIP3   OH231136   5.233   5.915   3.127
10420TIP3    H131137   5.205   5.875   3.211
10420TIP3    H231138   5.267   5.837   3.078
10421TIP3   OH231139   5.501   5.981   4.358
10421TIP3    H131140   5.422   6.039   4.358
10421TIP3    H231141   5.549   6.013   4.278
10422TIP3   OH231142   5.332   5.708   2.964
10422TIP3    H131143   5.305   5.713   2.870
10422TIP3    H231144   5.429   5.717   2.957
10423TIP3   OH231145   6.018   6.384   4.489
10423TIP3    H131146   6.096   6.357   4.438
10423TIP3    H231147   6.015   6.315   4.558
10424TIP3   OH231148   6.153   6.042   2.627
10424TIP3    H131149   6.131   5.995   2.545
10424TIP3    H231150   6.121   6.132   2.604
10425TIP3   OH231151   5.623   5.770   4.478
10425TIP3    H131152   5.598   5.694   4.424
10425TIP3    H231153   5.583   5.844   4.426
10426TIP3   OH231154   5.656   6.098   4.168
10426TIP3    H131155   5.733   6.090   4.110
10426TIP3    H231156   5.598   6.160   4.118
10427TIP3   OH231157   6.233   6.059   4.542
10427TIP3    H131158   6.282   5.981   4.575
10427TIP3    H231159   6.304   6.111   4.502
10428TIP3   OH231160   6.277   6.312   4.281
10428TIP3    H131161   6.219   6.364   4.220
10428TIP3    H231162   6.364   6.330   4.239
10429TIP3   OH231163   5.504   5.882   4.712
10429TIP3    H131164   5.433   5.815   4.727
10429TIP3    H231165   5.533   5.859   4.622
10430TIP3   OH231166   5.886   5.819   4.570
10430TIP3    H131167   5.875   5.817   4.667
10430TIP3    H231168   5.794   5.801   4.541
10431TIP3   OH231169   6.123   5.772   4.432
10431TIP3    H131170   6.043   5.781   4.488
10431TIP3    H231171   6.186   5.731   4.493
10432TIP3   OH231172   5.340   5.668   4.762
10432TIP3    H131173   5.340   5.576   4.728
10432TIP3    H231174   5.374   5.653   4.852
10433TIP3   OH231175   5.884   5.517   4.767
10433TIP3    H131176   5.906   5.507   4.674
10433TIP3    H231177   5.830   5.599   4.769
10434TIP3   OH231178   5.139   6.775   2.872
10434TIP3    H131179   5.234   6.769   2.851
10434TIP3    H231180   5.108   6.821   2.791
10435TIP3   OH231181   4.619   6.154   3.087
10435TIP3    H131182   4.713   6.175   3.073
10435TIP3    H231183   4.613   6.065   3.046
10436TIP3   OH231184   4.530   6.768   3.501
10436TIP3    H131185   4.465   6.704   3.465
10436TIP3    H231186   4.576   6.711   3.567
10437TIP3   OH231187   4.666   6.622   3.689
10437TIP3    H131188   4.658   6.544   3.746
10437TIP3    H231189   4.719   6.680   3.746
10438TIP3   OH231190   6.392   7.027   3.486
10438TIP3    H131191   6.427   7.051   3.574
10438TIP3    H231192   6.462   7.057   3.426
10439TIP3   OH231193   6.428   7.039   3.770
10439TIP3    H131194   6.381   6.954   3.763
10439TIP3    H231195   6.502   7.012   3.826
10440TIP3   OH231196   6.471   6.716   4.341
10440TIP3    H131197   6.398   6.723   4.406
10440TIP3    H231198   6.512   6.804   4.347
10441TIP3   OH231199   6.288   6.229   2.961
10441TIP3    H131200   6.359   6.290   2.934
10441TIP3    H231201   6.329   6.189   3.042
10442TIP3   OH231202   6.412   6.100   3.161
10442TIP3    H131203   6.360   6.055   3.231
10442TIP3    H231204   6.495   6.123   3.209
10443TIP3   OH231205   6.469   6.488   3.597
10443TIP3    H131206   6.522   6.419   3.552
10443TIP3    H231207   6.460   6.556   3.528
10444TIP3   OH231208   6.302   6.791   3.792
10444TIP3    H131209   6.229   6.826   3.845
10444TIP3    H231210   6.254   6.740   3.723
10445TIP3   OH231211   6.354   6.002   2.812
10445TIP3    H131212   6.281   6.009   2.746
10445TIP3    H231213   6.330   6.076   2.871
10446TIP3   OH231214   6.224   5.675   2.762
10446TIP3    H131215   6.178   5.716   2.688
10446TIP3    H231216   6.198   5.581   2.751
10447TIP3   OH231217   6.226   5.951   3.314
10447TIP3    H131218   6.240   5.855   3.310
10447TIP3    H231219   6.216   5.967   3.410
10448TIP3   OH231220   4.855   6.027   4.059
10448TIP3    H131221   4.855   5.995   3.966
10448TIP3    H231222   4.953   6.028   4.076
10449TIP3   OH231223   6.520   6.376   4.170
10449TIP3    H131224   6.592   6.309   4.161
10449TIP3    H231225   6.546   6.442   4.103
10450TIP3   OH231226   6.705   6.183   4.190
10450TIP3    H131227   6.630   6.131   4.227
10450TIP3    H231228   6.776   6.116   4.200
10451TIP3   OH231229   6.170   5.408   2.748
10451TIP3    H131230   6.244   5.381   2.806
10451TIP3    H231231   6.096   5.351   2.778
10452TIP3   OH231232   6.224   5.668   3.206
10452TIP3    H131233   6.268   5.581   3.222
10452TIP3    H231234   6.284   5.704   3.138
10453TIP3   OH231235   6.393   5.842   3.698
10453TIP3    H131236   6.478   5.870   3.658
10453TIP3    H231237   6.405   5.880   3.787
10454TIP3   OH231238   6.456   5.986   3.927
10454TIP3    H131239   6.380   6.018   3.979
10454TIP3    H231240   6.489   6.069   3.886
10455TIP3   OH231241   5.072   5.714   4.738
10455TIP3    H131242   5.170   5.706   4.736
10455TIP3    H231243   5.049   5.630   4.784
10456TIP3   OH231244   6.340   5.421   3.244
10456TIP3    H131245   6.388   5.406   3.328
10456TIP3    H231246   6.282   5.343   3.240
10457TIP3   OH231247   5.033   5.407   4.075
10457TIP3    H131248   5.094   5.330   4.079
10457TIP3    H231249   5.098   5.478   4.059
10458TIP3   OH231250   4.838   5.680   4.139
10458TIP3    H131251   4.886   5.668   4.055
10458TIP3    H231252   4.872   5.766   4.166
10459TIP3   OH231253   6.415   5.354   2.876
10459TIP3    H131254   6.460   5.284   2.824
10459TIP3    H231255   6.481   5.426   2.875
10460TIP3   OH231256   4.818   5.170   3.632
10460TIP3    H131257   4.726   5.178   3.661
10460TIP3    H231258   4.822   5.236   3.559
10461TIP3   OH231259   5.981   6.887   3.145
10461TIP3    H131260   6.028   6.868   3.061
10461TIP3    H231261   6.041   6.950   3.187
10462TIP3   OH231262   5.006   5.232   4.458
10462TIP3    H131263   4.956   5.254   4.536
10462TIP3    H231264   4.964   5.291   4.392
10463TIP3   OH231265   5.080   6.693   4.532
10463TIP3    H131266   4.990   6.660   4.512
10463TIP3    H231267   5.090   6.666   4.624
10464TIP3   OH231268   5.258   6.721   4.079
10464TIP3    H131269   5.211   6.796   4.038
10464TIP3    H231270   5.344   6.734   4.035
10465TIP3   OH231271   5.705   6.967   4.217
10465TIP3    H131272   5.748   6.966   4.305
10465TIP3    H231273   5.771   7.016   4.164
10466TIP3   OH231274   5.883   7.118   4.073
10466TIP3    H131275   5.952   7.064   4.031
10466TIP3    H231276   5.936   7.173   4.134
10467TIP3   OH231277   4.936   6.982   4.098
10467TIP3    H131278   4.847   7.016   4.076
10467TIP3    H231279   4.942   7.007   4.191
10468TIP3   OH231280   5.173   6.959   3.959
10468TIP3    H131281   5.087   6.971   4.003
10468TIP3    H231282   5.153   6.988   3.868
10469TIP3   OH231283   5.598   6.986   3.756
10469TIP3    H131284   5.529   7.005   3.690
10469TIP3    H231285   5.610   7.074   3.798
10470TIP3   OH231286   5.866   6.928   3.810
10470TIP3    H131287   5.772   6.941   3.788
10470TIP3    H231288   5.907   7.002   3.763
10471TIP3   OH231289   6.079   7.121   3.723
10471TIP3    H131290   6.061   7.203   3.672
10471TIP3    H231291   6.102   7.057   3.652
10472TIP3   OH231292   4.847   6.772   3.848
10472TIP3    H131293   4.875   6.746   3.938
10472TIP3    H231294   4.918   6.728   3.796
10473TIP3   OH231295   5.040   6.644   3.704
10473TIP3    H131296   5.056   6.559   3.751
10473TIP3    H231297   5.131   6.679   3.697
10474TIP3   OH231298   5.308   6.739   3.704
10474TIP3    H131299   5.338   6.647   3.690
10474TIP3    H231300   5.351   6.757   3.789
10475TIP3   OH231301   5.895   5.398   3.805
10475TIP3    H131302   5.840   5.329   3.846
10475TIP3    H231303   5.961   5.347   3.756
10476TIP3   OH231304   6.407   5.265   3.693
10476TIP3    H131305   6.443   5.321   3.621
10476TIP3    H231306   6.317   5.299   3.703
10477TIP3   OH231307   6.502   5.372   3.461
10477TIP3    H131308   6.575   5.322   3.420
10477TIP3    H231309   6.536   5.464   3.448
10478TIP3   OH231310   5.123   5.090   3.854
10478TIP3    H131311   5.035   5.077   3.815
10478TIP3    H231312   5.182   5.048   3.790
10479TIP3   OH231313   4.917   4.971   3.456
10479TIP3    H131314   4.947   5.033   3.386
10479TIP3    H231315   4.886   5.034   3.524
10480TIP3   OH231316   5.597   5.145   3.676
10480TIP3    H131317   5.602   5.239   3.655
10480TIP3    H231318   5.560   5.151   3.764
10481TIP3   OH231319   6.123   5.280   3.678
10481TIP3    H131320   6.145   5.242   3.592
10481TIP3    H231321   6.104   5.200   3.731
10482TIP3   OH231322   6.159   5.206   3.224
10482TIP3    H131323   6.078   5.257   3.244
10482TIP3    H231324   6.158   5.138   3.293
10483TIP3   OH231325   4.635   6.543   3.237
10483TIP3    H131326   4.550   6.508   3.203
10483TIP3    H231327   4.623   6.637   3.217
10484TIP3   OH231328   5.032   5.133   3.219
10484TIP3    H131329   5.084   5.073   3.164
10484TIP3    H231330   5.101   5.191   3.258
10485TIP3   OH231331   5.595   5.280   3.338
10485TIP3    H131332   5.539   5.266   3.417
10485TIP3    H231333   5.601   5.380   3.344
10486TIP3   OH231334   5.407   6.734   2.818
10486TIP3    H131335   5.496   6.755   2.783
10486TIP3    H231336   5.385   6.658   2.759
10487TIP3   OH231337   6.125   6.850   2.912
10487TIP3    H131338   6.117   6.752   2.900
10487TIP3    H231339   6.081   6.882   2.831
10488TIP3   OH231340   5.341   5.403   4.699
10488TIP3    H131341   5.296   5.328   4.739
10488TIP3    H231342   5.433   5.387   4.729
10489TIP3   OH231343   5.598   5.369   4.812
10489TIP3    H131344   5.692   5.389   4.825
10489TIP3    H231345   5.577   5.319   4.894
10490TIP3   OH231346   4.713   6.572   2.876
10490TIP3    H131347   4.712   6.593   2.971
10490TIP3    H231348   4.800   6.528   2.865
10491TIP3   OH231349   6.352   6.996   4.101
10491TIP3    H131350   6.274   6.961   4.052
10491TIP3    H231351   6.330   7.091   4.104
10492TIP3   OH231352   7.620   6.368   2.865
10492TIP3    H131353   7.591   6.459   2.846
10492TIP3    H231354   7.541   6.318   2.836
10493TIP3   OH231355   7.622   6.366   3.244
10493TIP3    H131356   7.647   6.335   3.332
10493TIP3    H231357   7.573   6.289   3.210
10494TIP3   OH231358   6.916   6.274   3.625
10494TIP3    H131359   6.954   6.200   3.676
10494TIP3    H231360   6.994   6.308   3.578
10495TIP3   OH231361   7.861   6.668   2.927
10495TIP3    H131362   7.845   6.599   2.993
10495TIP3    H231363   7.888   6.743   2.983
10496TIP3   OH231364   6.889   6.674   3.341
10496TIP3    H131365   6.883   6.576   3.344
10496TIP3    H231366   6.986   6.683   3.333
10497TIP3   OH231367   6.601   5.848   3.124
10497TIP3    H131368   6.596   5.941   3.156
10497TIP3    H231369   6.514   5.834   3.085
10498TIP3   OH231370   7.509   7.131   2.944
10498TIP3    H131371   7.557   7.060   2.896
10498TIP3    H231372   7.502   7.094   3.033
10499TIP3   OH231373   7.415   6.595   3.295
10499TIP3    H131374   7.448   6.518   3.246
10499TIP3    H231375   7.501   6.636   3.318
10500TIP3   OH231376   8.431   5.912   3.292
10500TIP3    H131377   8.458   5.996   3.335
10500TIP3    H231378   8.449   5.932   3.199
10501TIP3   OH231379   7.832   6.095   3.328
10501TIP3    H131380   7.871   6.008   3.347
10501TIP3    H231381   7.798   6.081   3.238
10502TIP3   OH231382   7.167   5.755   3.289
10502TIP3    H131383   7.140   5.829   3.231
10502TIP3    H231384   7.116   5.682   3.246
10503TIP3   OH231385   7.860   5.843   2.916
10503TIP3    H131386   7.932   5.828   2.980
10503TIP3    H231387   7.911   5.880   2.841
10504TIP3   OH231388   7.239   6.157   3.191
10504TIP3    H131389   7.330   6.128   3.208
10504TIP3    H231390   7.197   6.074   3.159
10505TIP3   OH231391   8.503   6.121   3.462
10505TIP3    H131392   8.420   6.168   3.441
10505TIP3    H231393   8.515   6.147   3.555
10506TIP3   OH231394   7.168   5.735   3.733
10506TIP3    H131395   7.112   5.771   3.661
10506TIP3    H231396   7.111   5.755   3.810
10507TIP3   OH231397   7.515   6.591   2.734
10507TIP3    H131398   7.465   6.564   2.655
10507TIP3    H231399   7.469   6.674   2.758
10508TIP3   OH231400   7.273   6.515   3.527
10508TIP3    H131401   7.206   6.578   3.563
10508TIP3    H231402   7.310   6.565   3.451
10509TIP3   OH231403   8.073   5.845   3.086
10509TIP3    H131404   8.059   5.798   3.169
10509TIP3    H231405   8.124   5.923   3.115
10510TIP3   OH231406   7.038   5.838   3.519
10510TIP3    H131407   7.082   5.924   3.530
10510TIP3    H231408   7.077   5.808   3.435
10511TIP3   OH231409   7.097   6.706   3.622
10511TIP3    H131410   7.069   6.790   3.581
10511TIP3    H231411   7.017   6.689   3.677
10512TIP3   OH231412   6.492   6.395   2.854
10512TIP3    H131413   6.450   6.426   2.772
10512TIP3    H231414   6.524   6.478   2.894
10513TIP3   OH231415   7.933   6.911   3.097
10513TIP3    H131416   7.843   6.902   3.136
10513TIP3    H231417   7.924   6.997   3.051
10514TIP3   OH231418   8.222   5.815   3.459
10514TIP3    H131419   8.133   5.841   3.428
10514TIP3    H231420   8.280   5.845   3.386
10515TIP3   OH231421   7.522   5.459   3.443
10515TIP3    H131422   7.505   5.364   3.455
10515TIP3    H231423   7.443   5.497   3.486
10516TIP3   OH231424   7.636   6.959   2.772
10516TIP3    H131425   7.685   6.876   2.751
10516TIP3    H231426   7.696   7.024   2.729
10517TIP3   OH231427   7.778   6.744   2.675
10517TIP3    H131428   7.732   6.666   2.640
10517TIP3    H231429   7.813   6.708   2.760
10518TIP3   OH231430   8.159   6.825   3.439
10518TIP3    H131431   8.146   6.748   3.381
10518TIP3    H231432   8.140   6.900   3.378
10519TIP3   OH231433   7.449   6.218   2.696
10519TIP3    H131434   7.367   6.268   2.677
10519TIP3    H231435   7.493   6.217   2.610
10520TIP3   OH231436   7.408   6.004   2.412
10520TIP3    H131437   7.475   6.053   2.462
10520TIP3    H231438   7.465   5.940   2.365
10521TIP3   OH231439   8.353   6.462   3.284
10521TIP3    H131440   8.270   6.513   3.289
10521TIP3    H231441   8.382   6.486   3.194
10522TIP3   OH231442   7.797   6.301   2.668
10522TIP3    H131443   7.741   6.326   2.746
10522TIP3    H231444   7.880   6.276   2.713
10523TIP3   OH231445   8.032   6.341   3.579
10523TIP3    H131446   8.028   6.426   3.626
10523TIP3    H231447   7.945   6.342   3.534
10524TIP3   OH231448   7.034   6.306   3.074
10524TIP3    H131449   6.984   6.243   3.020
10524TIP3    H231450   7.103   6.250   3.113
10525TIP3   OH231451   7.160   6.715   3.232
10525TIP3    H131452   7.134   6.664   3.154
10525TIP3    H231453   7.249   6.679   3.251
10526TIP3   OH231454   7.182   6.264   3.451
10526TIP3    H131455   7.188   6.250   3.355
10526TIP3    H231456   7.209   6.357   3.462
10527TIP3   OH231457   7.691   6.908   3.216
10527TIP3    H131458   7.677   6.987   3.270
10527TIP3    H231459   7.676   6.834   3.279
10528TIP3   OH231460   7.303   6.828   3.764
10528TIP3    H131461   7.242   6.889   3.810
10528TIP3    H231462   7.238   6.773   3.714
10529TIP3   OH231463   7.639   6.157   2.494
10529TIP3    H131464   7.696   6.218   2.546
10529TIP3    H231465   7.665   6.182   2.402
10530TIP3   OH231466   7.063   6.381   3.873
10530TIP3    H131467   7.060   6.469   3.916
10530TIP3    H231468   6.968   6.364   3.862
10531TIP3   OH231469   7.381   6.838   2.768
10531TIP3    H131470   7.458   6.894   2.789
10531TIP3    H231471   7.318   6.901   2.731
10532TIP3   OH231472   7.097   6.997   3.850
10532TIP3    H131473   7.063   6.994   3.758
10532TIP3    H231474   7.017   6.975   3.903
10533TIP3   OH231475   8.153   5.400   2.542
10533TIP3    H131476   8.071   5.420   2.593
10533TIP3    H231477   8.165   5.484   2.494
10534TIP3   OH231478   6.902   6.136   2.876
10534TIP3    H131479   6.827   6.176   2.828
10534TIP3    H231480   6.857   6.073   2.934
10535TIP3   OH231481   7.951   6.768   2.090
10535TIP3    H131482   7.959   6.864   2.076
10535TIP3    H231483   8.044   6.738   2.078
10536TIP3   OH231484   6.677   6.526   3.796
10536TIP3    H131485   6.614   6.502   3.725
10536TIP3    H231486   6.714   6.439   3.821
10537TIP3   OH231487   6.529   6.722   3.426
10537TIP3    H131488   6.623   6.703   3.417
10537TIP3    H231489   6.529   6.797   3.487
10538TIP3   OH231490   8.395   7.169   3.485
10538TIP3    H131491   8.393   7.073   3.498
10538TIP3    H231492   8.311   7.194   3.531
10539TIP3   OH231493   7.501   6.956   3.620
10539TIP3    H131494   7.500   7.048   3.652
10539TIP3    H231495   7.429   6.917   3.674
10540TIP3   OH231496   7.261   7.086   2.571
10540TIP3    H131497   7.214   7.066   2.488
10540TIP3    H231498   7.228   7.175   2.594
10541TIP3   OH231499   6.699   6.935   2.956
10541TIP3    H131500   6.746   6.924   3.041
10541TIP3    H231501   6.646   6.853   2.955
10542TIP3   OH231502   7.463   6.986   2.212
10542TIP3    H131503   7.522   6.916   2.176
10542TIP3    H231504   7.496   6.995   2.304
10543TIP3   OH231505   7.513   7.034   2.483
10543TIP3    H131506   7.424   7.043   2.524
10543TIP3    H231507   7.562   6.991   2.554
10544TIP3   OH231508   8.285   6.301   3.760
10544TIP3    H131509   8.204   6.316   3.709
10544TIP3    H231510   8.298   6.205   3.747
10545TIP3   OH231511   6.879   6.711   3.789
10545TIP3    H131512   6.931   6.690   3.869
10545TIP3    H231513   6.807   6.645   3.793
10546TIP3   OH231514   7.280   5.534   3.564
10546TIP3    H131515   7.190   5.504   3.539
10546TIP3    H231516   7.257   5.617   3.609
10547TIP3   OH231517   7.811   5.648   3.767
10547TIP3    H131518   7.879   5.616   3.828
10547TIP3    H231519   7.727   5.625   3.813
10548TIP3   OH231520   8.058   6.078   3.685
10548TIP3    H131521   8.004   6.074   3.767
10548TIP3    H231522   8.029   6.163   3.646
10549TIP3   OH231523   7.713   6.206   2.237
10549TIP3    H131524   7.680   6.180   2.149
10549TIP3    H231525   7.793   6.256   2.214
10550TIP3   OH231526   7.427   5.581   2.540
10550TIP3    H131527   7.394   5.580   2.632
10550TIP3    H231528   7.387   5.498   2.507
10551TIP3   OH231529   7.221   6.042   3.595
10551TIP3    H131530   7.161   6.062   3.671
10551TIP3    H231531   7.207   6.123   3.540
10552TIP3   OH231532   7.102   5.938   3.098
10552TIP3    H131533   7.009   5.914   3.122
10552TIP3    H231534   7.108   5.892   3.012
10553TIP3   OH231535   7.588   6.021   2.830
10553TIP3    H131536   7.533   6.092   2.789
10553TIP3    H231537   7.640   5.990   2.754
10554TIP3   OH231538   7.761   6.298   3.917
10554TIP3    H131539   7.739   6.225   3.979
10554TIP3    H231540   7.855   6.312   3.939
10555TIP3   OH231541   7.746   6.049   3.069
10555TIP3    H131542   7.685   6.080   3.000
10555TIP3    H231543   7.777   5.967   3.026
10556TIP3   OH231544   7.035   6.077   3.796
10556TIP3    H131545   7.051   6.141   3.867
10556TIP3    H231546   7.018   5.995   3.844
10557TIP3   OH231547   7.080   5.553   2.507
10557TIP3    H131548   7.074   5.552   2.604
10557TIP3    H231549   7.002   5.608   2.485
10558TIP3   OH231550   6.626   5.594   3.381
10558TIP3    H131551   6.698   5.633   3.435
10558TIP3    H231552   6.666   5.586   3.294
10559TIP3   OH231553   6.595   5.580   2.893
10559TIP3    H131554   6.645   5.621   2.820
10559TIP3    H231555   6.542   5.656   2.923
10560TIP3   OH231556   7.760   6.295   3.493
10560TIP3    H131557   7.790   6.222   3.434
10560TIP3    H231558   7.726   6.243   3.569
10561TIP3   OH231559   7.422   5.752   3.163
10561TIP3    H131560   7.335   5.754   3.208
10561TIP3    H231561   7.483   5.759   3.239
10562TIP3   OH231562   6.871   5.813   3.155
10562TIP3    H131563   6.775   5.835   3.156
10562TIP3    H231564   6.871   5.717   3.144
10563TIP3   OH231565   7.130   5.802   2.859
10563TIP3    H131566   7.221   5.827   2.836
10563TIP3    H231567   7.078   5.829   2.779
10564TIP3   OH231568   7.915   5.830   3.364
10564TIP3    H131569   7.881   5.843   3.456
10564TIP3    H231570   7.848   5.769   3.329
10565TIP3   OH231571   6.970   5.835   2.638
10565TIP3    H131572   6.893   5.798   2.592
10565TIP3    H231573   7.019   5.874   2.563
10566TIP3   OH231574   8.084   7.520   3.584
10566TIP3    H131575   8.080   7.543   3.489
10566TIP3    H231576   8.161   7.572   3.614
10567TIP3   OH231577   7.041   6.634   4.006
10567TIP3    H131578   7.121   6.662   4.055
10567TIP3    H231579   6.977   6.628   4.080
10568TIP3   OH231580   7.508   6.084   3.263
10568TIP3    H131581   7.579   6.041   3.213
10568TIP3    H231582   7.514   6.041   3.351
10569TIP3   OH231583   7.040   5.564   3.141
10569TIP3    H131584   7.001   5.485   3.184
10569TIP3    H231585   7.080   5.528   3.061
10570TIP3   OH231586   7.486   5.978   3.550
10570TIP3    H131587   7.393   6.010   3.563
10570TIP3    H231588   7.538   6.042   3.602
10571TIP3   OH231589   7.221   6.371   2.645
10571TIP3    H131590   7.149   6.305   2.636
10571TIP3    H231591   7.203   6.406   2.736
10572TIP3   OH231592   8.121   6.607   3.276
10572TIP3    H131593   8.144   6.657   3.194
10572TIP3    H231594   8.035   6.566   3.252
10573TIP3   OH231595   7.678   5.685   2.504
10573TIP3    H131596   7.581   5.668   2.514
10573TIP3    H231597   7.687   5.779   2.531
10574TIP3   OH231598   7.627   6.694   3.641
10574TIP3    H131599   7.635   6.664   3.732
10574TIP3    H231600   7.580   6.779   3.650
10575TIP3   OH231601   7.748   5.930   2.610
10575TIP3    H131602   7.844   5.937   2.627
10575TIP3    H231603   7.729   6.011   2.559
10576TIP3   OH231604   6.927   6.399   3.325
10576TIP3    H131605   6.948   6.371   3.234
10576TIP3    H231606   6.883   6.319   3.358
10577TIP3   OH231607   7.364   6.520   2.465
10577TIP3    H131608   7.317   6.607   2.473
10577TIP3    H231609   7.310   6.465   2.526
10578TIP3   OH231610   6.789   6.317   3.937
10578TIP3    H131611   6.809   6.298   4.030
10578TIP3    H231612   6.722   6.248   3.916
10579TIP3   OH231613   7.516   6.427   3.956
10579TIP3    H131614   7.454   6.371   3.907
10579TIP3    H231615   7.602   6.393   3.923
10580TIP3   OH231616   7.781   6.952   3.537
10580TIP3    H131617   7.685   6.946   3.550
10580TIP3    H231618   7.807   7.003   3.617
10581TIP3   OH231619   8.191   6.020   2.447
10581TIP3    H131620   8.128   5.976   2.385
10581TIP3    H231621   8.187   6.110   2.406
10582TIP3   OH231622   8.409   6.878   3.528
10582TIP3    H131623   8.311   6.873   3.520
10582TIP3    H231624   8.434   6.848   3.438
10583TIP3   OH231625   7.891   6.840   2.355
10583TIP3    H131626   7.864   6.771   2.417
10583TIP3    H231627   7.902   6.792   2.271
10584TIP3   OH231628   7.886   6.469   3.196
10584TIP3    H131629   7.793   6.443   3.209
10584TIP3    H231630   7.920   6.390   3.149
10585TIP3   OH231631   7.012   6.698   2.946
10585TIP3    H131632   7.009   6.779   2.892
10585TIP3    H231633   6.918   6.677   2.956
10586TIP3   OH231634   6.574   6.002   2.648
10586TIP3    H131635   6.623   6.083   2.671
10586TIP3    H231636   6.499   6.006   2.711
10587TIP3   OH231637   7.158   6.468   2.888
10587TIP3    H131638   7.119   6.555   2.911
10587TIP3    H231639   7.120   6.411   2.959
10588TIP3   OH231640   7.281   7.042   3.417
10588TIP3    H131641   7.323   7.113   3.365
10588TIP3    H231642   7.358   7.006   3.464
10589TIP3   OH231643   6.931   6.937   2.798
10589TIP3    H131644   6.846   6.944   2.845
10589TIP3    H231645   6.962   7.030   2.801
10590TIP3   OH231646   7.672   6.675   3.373
10590TIP3    H131647   7.664   6.674   3.471
10590TIP3    H231648   7.750   6.619   3.360
10591TIP3   OH231649   7.644   6.567   2.257
10591TIP3    H131650   7.697   6.542   2.336
10591TIP3    H231651   7.555   6.542   2.286
10592TIP3   OH231652   7.920   7.210   3.425
10592TIP3    H131653   7.841   7.152   3.419
10592TIP3    H231654   7.903   7.273   3.353
10593TIP3   OH231655   7.985   7.043   2.077
10593TIP3    H131656   8.023   7.115   2.025
10593TIP3    H231657   7.905   7.088   2.110
10594TIP3   OH231658   7.003   5.819   3.944
10594TIP3    H131659   6.906   5.831   3.958
10594TIP3    H231660   7.028   5.761   4.017
10595TIP3   OH231661   7.804   6.500   2.472
10595TIP3    H131662   7.794   6.436   2.544
10595TIP3    H231663   7.902   6.499   2.461
10596TIP3   OH231664   6.719   6.906   3.577
10596TIP3    H131665   6.768   6.825   3.598
10596TIP3    H231666   6.756   6.966   3.642
10597TIP3   OH231667   7.012   6.549   2.256
10597TIP3    H131668   7.025   6.456   2.228
10597TIP3    H231669   6.993   6.537   2.351
10598TIP3   OH231670   6.957   6.553   2.528
10598TIP3    H131671   7.024   6.524   2.590
10598TIP3    H231672   6.962   6.651   2.536
10599TIP3   OH231673   6.691   6.246   2.731
10599TIP3    H131674   6.626   6.287   2.791
10599TIP3    H231675   6.705   6.318   2.668
10600TIP3   OH231676   7.842   5.883   3.624
10600TIP3    H131677   7.922   5.919   3.666
10600TIP3    H231678   7.824   5.803   3.678
10601TIP3   OH231679   7.724   5.634   2.787
10601TIP3    H131680   7.707   5.659   2.695
10601TIP3    H231681   7.760   5.717   2.825
10602TIP3   OH231682   7.223   6.751   2.477
10602TIP3    H131683   7.136   6.778   2.514
10602TIP3    H231684   7.238   6.823   2.414
10603TIP3   OH231685   7.416   5.812   2.890
10603TIP3    H131686   7.478   5.886   2.875
10603TIP3    H231687   7.414   5.807   2.988
10604TIP3   OH231688   7.680   6.135   3.698
10604TIP3    H131689   7.697   6.189   3.777
10604TIP3    H231690   7.734   6.056   3.713
10605TIP3   OH231691   7.556   5.544   2.996
10605TIP3    H131692   7.540   5.623   3.051
10605TIP3    H231693   7.616   5.580   2.927
10606TIP3   OH231694   6.966   6.827   2.544
10606TIP3    H131695   6.935   6.896   2.482
10606TIP3    H231696   6.949   6.869   2.631
10607TIP3   OH231697   7.067   5.538   2.783
10607TIP3    H131698   7.063   5.629   2.818
10607TIP3    H231699   7.163   5.522   2.792
10608TIP3   OH231700   8.323   6.032   3.679
10608TIP3    H131701   8.225   6.032   3.688
10608TIP3    H231702   8.331   5.992   3.592
10609TIP3   OH231703   7.972   6.228   3.067
10609TIP3    H131704   7.895   6.169   3.080
10609TIP3    H231705   8.042   6.180   3.116
10610TIP3   OH231706   6.683   6.459   2.537
10610TIP3    H131707   6.749   6.529   2.547
10610TIP3    H231708   6.729   6.403   2.471
10611TIP3   OH231709   6.631   5.732   2.664
10611TIP3    H131710   6.630   5.830   2.665
10611TIP3    H231711   6.539   5.712   2.641
10612TIP3   OH231712   7.939   7.183   3.018
10612TIP3    H131713   7.896   7.230   2.942
10612TIP3    H231714   8.033   7.202   2.996
10613TIP3   OH231715   7.016   5.454   3.542
10613TIP3    H131716   6.983   5.425   3.454
10613TIP3    H231717   7.003   5.374   3.597
10614TIP3   OH231718   6.561   6.682   2.928
10614TIP3    H131719   6.483   6.703   2.981
10614TIP3    H231720   6.532   6.715   2.839
10615TIP3   OH231721   6.709   7.210   3.999
10615TIP3    H131722   6.797   7.206   4.042
10615TIP3    H231723   6.686   7.116   3.995
10616TIP3   OH231724   7.193   7.178   4.041
10616TIP3    H131725   7.287   7.157   4.048
10616TIP3    H231726   7.167   7.120   3.967
10617TIP3   OH231727   7.175   6.753   2.170
10617TIP3    H131728   7.118   6.682   2.208
10617TIP3    H231729   7.249   6.699   2.138
10618TIP3   OH231730   7.831   7.084   3.775
10618TIP3    H131731   7.822   7.013   3.843
10618TIP3    H231732   7.909   7.134   3.806
10619TIP3   OH231733   7.611   6.794   2.081
10619TIP3    H131734   7.655   6.730   2.139
10619TIP3    H231735   7.667   6.793   2.001
10620TIP3   OH231736   6.841   6.618   4.197
10620TIP3    H131737   6.859   6.522   4.201
10620TIP3    H231738   6.754   6.620   4.152
10621TIP3   OH231739   6.819   6.271   2.389
10621TIP3    H131740   6.871   6.236   2.464
10621TIP3    H231741   6.888   6.275   2.320
10622TIP3   OH231742   7.449   6.702   3.970
10622TIP3    H131743   7.406   6.718   3.884
10622TIP3    H231744   7.479   6.609   3.963
10623TIP3   OH231745   7.328   6.467   2.196
10623TIP3    H131746   7.330   6.480   2.293
10623TIP3    H231747   7.326   6.369   2.191
10624TIP3   OH231748   7.944   6.709   3.578
10624TIP3    H131749   8.015   6.758   3.533
10624TIP3    H231750   7.869   6.770   3.566
10625TIP3   OH231751   6.959   6.356   4.180
10625TIP3    H131752   7.029   6.294   4.158
10625TIP3    H231753   6.986   6.385   4.269
10626TIP3   OH231754   7.028   6.174   2.615
10626TIP3    H131755   6.995   6.140   2.700
10626TIP3    H231756   7.060   6.093   2.571
10627TIP3   OH231757   7.301   6.241   3.848
10627TIP3    H131758   7.219   6.294   3.849
10627TIP3    H231759   7.342   6.270   3.764
10628TIP3   OH231760   7.126   5.963   2.453
10628TIP3    H131761   7.100   5.969   2.359
10628TIP3    H231762   7.224   5.972   2.446
10629TIP3   OH231763   7.814   6.641   3.977
10629TIP3    H131764   7.891   6.615   3.925
10629TIP3    H231765   7.810   6.571   4.045
10630TIP3   OH231766   7.951   6.298   2.115
10630TIP3    H131767   7.929   6.251   2.031
10630TIP3    H231768   7.918   6.388   2.092
10631TIP3   OH231769   7.424   6.025   3.964
10631TIP3    H131770   7.417   5.946   3.906
10631TIP3    H231771   7.378   6.093   3.910
10632TIP3   OH231772   7.426   5.809   3.775
10632TIP3    H131773   7.449   5.851   3.690
10632TIP3    H231774   7.332   5.785   3.760
10633TIP3   OH231775   7.455   6.353   3.651
10633TIP3    H131776   7.530   6.356   3.591
10633TIP3    H231777   7.392   6.415   3.607
10634TIP3   OH231778   8.033   6.314   4.030
10634TIP3    H131779   8.083   6.232   4.034
10634TIP3    H231780   8.098   6.376   3.993
10635TIP3   OH231781   8.073   6.567   3.767
10635TIP3    H131782   8.014   6.620   3.707
10635TIP3    H231783   8.160   6.587   3.725
10636TIP3   OH231784   7.303   6.135   4.199
10636TIP3    H131785   7.230   6.072   4.213
10636TIP3    H231786   7.330   6.113   4.107
10637TIP3   OH231787   7.558   5.577   3.858
10637TIP3    H131788   7.514   5.660   3.833
10637TIP3    H231789   7.488   5.513   3.833
10638TIP3   OH231790   7.682   6.076   4.057
10638TIP3    H131791   7.662   6.072   4.152
10638TIP3    H231792   7.592   6.056   4.022
10639TIP3   OH231793   7.919   6.028   3.911
10639TIP3    H131794   7.843   6.033   3.972
10639TIP3    H231795   7.992   5.999   3.970
10640TIP3   OH231796   8.152   5.970   4.063
10640TIP3    H131797   8.162   5.875   4.082
10640TIP3    H231798   8.146   6.010   4.153
10641TIP3   OH231799   7.135   5.921   4.248
10641TIP3    H131800   7.141   5.830   4.212
10641TIP3    H231801   7.172   5.907   4.337
10642TIP3   OH231802   7.692   5.786   4.247
10642TIP3    H131803   7.684   5.766   4.153
10642TIP3    H231804   7.630   5.861   4.257
10643TIP3   OH231805   6.935   7.031   2.358
10643TIP3    H131806   7.030   7.026   2.338
10643TIP3    H231807   6.904   7.077   2.278
10644TIP3   OH231808   6.414   6.413   2.570
10644TIP3    H131809   6.509   6.434   2.559
10644TIP3    H231810   6.409   6.323   2.532
10645TIP3   OH231811   6.327   7.024   2.987
10645TIP3    H131812   6.261   6.960   2.951
10645TIP3    H231813   6.373   6.967   3.054
10646TIP3   OH231814   6.462   6.878   3.176
10646TIP3    H131815   6.454   6.800   3.233
10646TIP3    H231816   6.515   6.936   3.233
10647TIP3   OH231817   8.192   7.275   2.973
10647TIP3    H131818   8.219   7.308   3.061
10647TIP3    H231819   8.254   7.320   2.914
10648TIP3   OH231820   8.222   7.295   3.255
10648TIP3    H131821   8.178   7.208   3.251
10648TIP3    H231822   8.297   7.272   3.312
10649TIP3   OH231823   8.269   6.971   3.829
10649TIP3    H131824   8.195   6.979   3.893
10649TIP3    H231825   8.309   7.060   3.833
10650TIP3   OH231826   8.085   6.484   2.449
10650TIP3    H131827   8.153   6.548   2.421
10650TIP3    H231828   8.127   6.445   2.528
10651TIP3   OH231829   8.212   6.352   2.652
10651TIP3    H131830   8.146   6.310   2.711
10651TIP3    H231831   8.276   6.390   2.715
10652TIP3   OH231832   8.267   6.744   3.086
10652TIP3    H131833   8.318   6.679   3.034
10652TIP3    H231834   8.257   6.818   3.023
10653TIP3   OH231835   8.098   7.045   3.280
10653TIP3    H131836   8.026   7.087   3.331
10653TIP3    H231837   8.048   6.997   3.211
10654TIP3   OH231838   8.150   6.259   2.299
10654TIP3    H131839   8.079   6.262   2.232
10654TIP3    H231840   8.123   6.335   2.355
10655TIP3   OH231841   8.023   5.932   2.253
10655TIP3    H131842   7.978   5.972   2.178
10655TIP3    H231843   7.996   5.838   2.243
10656TIP3   OH231844   8.027   6.208   2.799
10656TIP3    H131845   8.033   6.111   2.794
10656TIP3    H231846   8.012   6.223   2.896
10657TIP3   OH231847   6.653   6.287   3.555
10657TIP3    H131848   6.655   6.244   3.466
10657TIP3    H231849   6.750   6.289   3.574
10658TIP3   OH231850   8.315   6.633   3.657
10658TIP3    H131851   8.388   6.568   3.647
10658TIP3    H231852   8.340   6.702   3.593
10659TIP3   OH231853   8.500   6.439   3.674
10659TIP3    H131854   8.425   6.389   3.713
10659TIP3    H231855   8.573   6.374   3.688
10660TIP3   OH231856   7.965   5.666   2.239
10660TIP3    H131857   8.039   5.636   2.296
10660TIP3    H231858   7.891   5.608   2.265
10661TIP3   OH231859   8.022   5.924   2.695
10661TIP3    H131860   8.062   5.835   2.710
10661TIP3    H231861   8.081   5.957   2.625
10662TIP3   OH231862   8.185   6.098   3.190
10662TIP3    H131863   8.271   6.125   3.150
10662TIP3    H231864   8.197   6.135   3.279
10663TIP3   OH231865   8.253   6.242   3.422
10663TIP3    H131866   8.174   6.276   3.469
10663TIP3    H231867   8.285   6.323   3.376
10664TIP3   OH231868   6.867   5.970   4.230
10664TIP3    H131869   6.964   5.956   4.227
10664TIP3    H231870   6.837   5.892   4.279
10665TIP3   OH231871   8.710   5.835   3.979
10665TIP3    H131872   8.765   5.768   3.932
10665TIP3    H231873   8.676   5.888   3.904
10666TIP3   OH231874   8.132   5.674   2.731
10666TIP3    H131875   8.179   5.658   2.815
10666TIP3    H231876   8.070   5.598   2.730
10667TIP3   OH231877   6.829   5.663   3.554
10667TIP3    H131878   6.895   5.592   3.561
10667TIP3    H231879   6.889   5.740   3.543
10668TIP3   OH231880   6.640   5.935   3.612
10668TIP3    H131881   6.674   5.922   3.522
10668TIP3    H231882   6.671   6.024   3.630
10669TIP3   OH231883   8.575   5.971   3.787
10669TIP3    H131884   8.489   6.013   3.803
10669TIP3    H231885   8.547   5.901   3.724
10670TIP3   OH231886   8.213   5.610   2.364
10670TIP3    H131887   8.253   5.538   2.312
10670TIP3    H231888   8.280   5.680   2.357
10671TIP3   OH231889   6.616   5.429   3.117
10671TIP3    H131890   6.526   5.437   3.152
10671TIP3    H231891   6.615   5.495   3.044
10672TIP3   OH231892   7.776   7.141   2.630
10672TIP3    H131893   7.828   7.127   2.548
10672TIP3    H231894   7.829   7.208   2.676
10673TIP3   OH231895   6.819   5.499   3.944
10673TIP3    H131896   6.774   5.527   4.024
10673TIP3    H231897   6.766   5.548   3.877
10674TIP3   OH231898   6.876   6.952   4.020
10674TIP3    H131899   6.787   6.917   3.998
10674TIP3    H231900   6.887   6.921   4.111
10675TIP3   OH231901   7.054   6.978   3.566
10675TIP3    H131902   7.007   7.054   3.525
10675TIP3    H231903   7.141   6.990   3.521
10676TIP3   OH231904   7.501   7.222   3.703
10676TIP3    H131905   7.544   7.224   3.791
10676TIP3    H231906   7.566   7.272   3.650
10677TIP3   OH231907   7.679   7.372   3.561
10677TIP3    H131908   7.751   7.322   3.519
10677TIP3    H231909   7.731   7.431   3.621
10678TIP3   OH231910   8.473   5.736   3.662
10678TIP3    H131911   8.382   5.730   3.627
10678TIP3    H231912   8.503   5.643   3.649
10679TIP3   OH231913   6.732   7.239   3.584
10679TIP3    H131914   6.644   7.275   3.562
10679TIP3    H231915   6.736   7.258   3.678
10680TIP3   OH231916   6.969   7.214   3.445
10680TIP3    H131917   6.882   7.228   3.489
10680TIP3    H231918   6.950   7.245   3.354
10681TIP3   OH231919   7.395   7.241   3.242
10681TIP3    H131920   7.325   7.263   3.177
10681TIP3    H231921   7.407   7.328   3.286
10682TIP3   OH231922   7.663   7.182   3.294
10682TIP3    H131923   7.568   7.198   3.275
10682TIP3    H231924   7.704   7.259   3.253
10683TIP3   OH231925   7.873   7.375   3.211
10683TIP3    H131926   7.857   7.459   3.163
10683TIP3    H231927   7.896   7.314   3.137
10684TIP3   OH231928   6.643   7.029   3.336
10684TIP3    H131929   6.672   7.002   3.425
10684TIP3    H231930   6.713   6.985   3.283
10685TIP3   OH231931   6.836   6.901   3.190
10685TIP3    H131932   6.851   6.816   3.238
10685TIP3    H231933   6.927   6.936   3.184
10686TIP3   OH231934   7.104   6.995   3.191
10686TIP3    H131935   7.133   6.903   3.178
10686TIP3    H231936   7.147   7.014   3.276
10687TIP3   OH231937   7.686   5.653   3.286
10687TIP3    H131938   7.636   5.585   3.334
10687TIP3    H231939   7.750   5.600   3.235
10688TIP3   OH231940   8.204   5.532   3.185
10688TIP3    H131941   8.239   5.584   3.109
10688TIP3    H231942   8.108   5.548   3.179
10689TIP3   OH231943   8.298   5.632   2.948
10689TIP3    H131944   8.371   5.581   2.907
10689TIP3    H231945   8.330   5.723   2.934
10690TIP3   OH231946   6.927   5.358   3.297
10690TIP3    H131947   6.834   5.327   3.297
10690TIP3    H231948   6.975   5.272   3.293
10691TIP3   OH231949   6.713   5.228   2.943
10691TIP3    H131950   6.743   5.288   2.872
10691TIP3    H231951   6.683   5.293   3.010
10692TIP3   OH231952   7.375   5.387   3.176
10692TIP3    H131953   7.430   5.442   3.119
10692TIP3    H231954   7.380   5.434   3.260
10693TIP3   OH231955   7.924   5.537   3.160
10693TIP3    H131956   7.913   5.502   3.071
10693TIP3    H231957   7.907   5.457   3.215
10694TIP3   OH231958   7.948   5.461   2.722
10694TIP3    H131959   7.862   5.505   2.735
10694TIP3    H231960   7.932   5.376   2.769
10695TIP3   OH231961   6.431   6.798   2.722
10695TIP3    H131962   6.346   6.765   2.688
10695TIP3    H231963   6.419   6.893   2.705
10696TIP3   OH231964   6.830   5.389   2.707
10696TIP3    H131965   6.881   5.328   2.651
10696TIP3    H231966   6.901   5.445   2.745
10697TIP3   OH231967   7.345   5.562   2.805
10697TIP3    H131968   7.404   5.518   2.868
10697TIP3    H231969   7.363   5.656   2.830
10698TIP3   OH231970   7.203   6.990   2.305
10698TIP3    H131971   7.292   7.011   2.269
10698TIP3    H231972   7.181   6.915   2.246
10699TIP3   OH231973   7.922   7.107   2.398
10699TIP3    H131974   7.914   7.009   2.386
10699TIP3    H231975   7.877   7.139   2.318
10700TIP3   OH231976   7.132   5.651   4.183
10700TIP3    H131977   7.088   5.588   4.242
10700TIP3    H231978   7.225   5.640   4.210
10701TIP3   OH231979   7.382   5.631   4.302
10701TIP3    H131980   7.478   5.640   4.302
10701TIP3    H231981   7.368   5.573   4.381
10702TIP3   OH231982   6.508   6.828   2.363
10702TIP3    H131983   6.506   6.850   2.457
10702TIP3    H231984   6.596   6.785   2.353
10703TIP3   OH231985   8.209   5.698   4.095
10703TIP3    H131986   8.234   5.670   4.185
10703TIP3    H231987   8.295   5.694   4.048
10704TIP3   OH231988   8.148   7.251   3.587
10704TIP3    H131989   8.070   7.219   3.538
10704TIP3    H231990   8.129   7.347   3.589
10705TIP3   OH231991   9.419   6.614   2.344
10705TIP3    H131992   9.400   6.709   2.329
10705TIP3    H231993   9.337   6.574   2.315
10706TIP3   OH231994   9.365   6.625   2.746
10706TIP3    H131995   9.432   6.608   2.814
10706TIP3    H231996   9.369   6.545   2.692
10707TIP3   OH231997   8.714   6.521   3.099
10707TIP3    H131998   8.746   6.453   3.162
10707TIP3    H231999   8.793   6.575   3.088
10708TIP3   OH232000   8.684   6.928   2.824
10708TIP3    H132001   8.676   6.830   2.827
10708TIP3    H232002   8.781   6.937   2.818
10709TIP3   OH232003   8.392   6.132   2.609
10709TIP3    H132004   8.343   6.216   2.624
10709TIP3    H232005   8.321   6.078   2.572
10710TIP3   OH232006   8.451   6.419   2.780
10710TIP3    H132007   8.499   6.342   2.817
10710TIP3    H232008   8.510   6.449   2.710
10711TIP3   OH232009   9.298   7.376   2.443
10711TIP3    H132010   9.339   7.295   2.411
10711TIP3    H232011   9.287   7.355   2.538
10712TIP3   OH232012   9.208   6.851   2.784
10712TIP3    H132013   9.250   6.767   2.754
10712TIP3    H232014   9.290   6.901   2.801
10713TIP3   OH232015   9.628   6.372   2.815
10713TIP3    H132016   9.630   6.276   2.834
10713TIP3    H232017   9.609   6.369   2.720
10714TIP3   OH232018   8.961   6.010   2.781
10714TIP3    H132019   8.941   6.083   2.718
10714TIP3    H232020   8.913   5.937   2.736
10715TIP3   OH232021   9.645   6.097   2.423
10715TIP3    H132022   9.720   6.064   2.473
10715TIP3    H232023   9.689   6.156   2.360
10716TIP3   OH232024   8.596   6.212   2.886
10716TIP3    H132025   8.679   6.193   2.934
10716TIP3    H232026   8.608   6.156   2.807
10717TIP3   OH232027   9.037   6.409   2.679
10717TIP3    H132028   9.131   6.384   2.692
10717TIP3    H232029   8.999   6.325   2.647
10718TIP3   OH232030   8.959   5.994   3.215
10718TIP3    H132031   8.900   6.031   3.146
10718TIP3    H232032   8.906   6.013   3.295
10719TIP3   OH232033   9.312   6.852   2.220
10719TIP3    H132034   9.263   6.824   2.142
10719TIP3    H232035   9.265   6.934   2.244
10720TIP3   OH232036   9.066   6.767   3.012
10720TIP3    H132037   9.004   6.835   3.047
10720TIP3    H232038   9.110   6.817   2.939
10721TIP3   OH232039   8.830   6.108   2.999
10721TIP3    H132040   8.892   6.182   3.021
10721TIP3    H232041   8.878   6.068   2.923
10722TIP3   OH232042   8.892   6.962   3.107
10722TIP3    H132043   8.868   7.048   3.067
10722TIP3    H232044   8.813   6.948   3.163
10723TIP3   OH232045   8.290   6.652   2.343
10723TIP3    H132046   8.247   6.679   2.260
10723TIP3    H232047   8.319   6.738   2.380
10724TIP3   OH232048   9.310   5.713   2.926
10724TIP3    H132049   9.299   5.617   2.937
10724TIP3    H232050   9.231   5.746   2.974
10725TIP3   OH232051   9.430   7.216   2.247
10725TIP3    H132052   9.501   7.154   2.270
10725TIP3    H232053   9.476   7.302   2.243
10726TIP3   OH232054   9.238   6.470   2.177
10726TIP3    H132055   9.157   6.524   2.167
10726TIP3    H232056   9.277   6.480   2.089
10727TIP3   OH232057   9.202   6.259   1.897
10727TIP3    H132058   9.263   6.300   1.961
10727TIP3    H232059   9.261   6.195   1.853
10728TIP3   OH232060   8.825   6.556   2.572
10728TIP3    H132061   8.785   6.498   2.504
10728TIP3    H232062   8.903   6.503   2.601
10729TIP3   OH232063   8.955   6.966   2.721
10729TIP3    H132064   8.937   6.921   2.638
10729TIP3    H232065   9.045   6.935   2.741
10730TIP3   OH232066   8.962   6.527   2.926
10730TIP3    H132067   8.996   6.506   2.837
10730TIP3    H232068   9.006   6.612   2.946
10731TIP3   OH232069   9.447   7.169   2.692
10731TIP3    H132070   9.478   7.248   2.741
10731TIP3    H232071   9.465   7.097   2.755
10732TIP3   OH232072   9.097   7.081   3.254
10732TIP3    H132073   9.037   7.145   3.298
10732TIP3    H232074   9.033   7.029   3.202
10733TIP3   OH232075   9.447   6.422   1.987
10733TIP3    H132076   9.486   6.485   2.049
10733TIP3    H232077   9.470   6.460   1.901
10734TIP3   OH232078   8.854   6.638   3.353
10734TIP3    H132079   8.858   6.726   3.396
10734TIP3    H232080   8.758   6.620   3.359
10735TIP3   OH232081   9.171   7.094   2.254
10735TIP3    H132082   9.245   7.151   2.279
10735TIP3    H232083   9.107   7.156   2.218
10736TIP3   OH232084   8.893   7.253   3.337
10736TIP3    H132085   8.859   7.252   3.245
10736TIP3    H232086   8.813   7.231   3.389
10737TIP3   OH232087   8.692   6.398   2.374
10737TIP3    H132088   8.626   6.443   2.319
10737TIP3    H232089   8.649   6.313   2.390
10738TIP3   OH232090   8.472   6.782   3.284
10738TIP3    H132091   8.406   6.761   3.215
10738TIP3    H232092   8.509   6.694   3.307
10739TIP3   OH232093   8.326   6.975   2.917
10739TIP3    H132094   8.422   6.969   2.907
10739TIP3    H232095   8.316   7.055   2.971
10740TIP3   OH232096   9.295   7.210   3.108
10740TIP3    H132097   9.295   7.304   3.139
10740TIP3    H232098   9.225   7.172   3.164
10741TIP3   OH232099   9.055   7.350   2.055
10741TIP3    H132100   9.006   7.325   1.974
10741TIP3    H232101   9.017   7.436   2.079
10742TIP3   OH232102   8.495   7.191   2.442
10742TIP3    H132103   8.543   7.181   2.527
10742TIP3    H232104   8.437   7.113   2.446
10743TIP3   OH232105   9.267   7.246   1.714
10743TIP3    H132106   9.333   7.181   1.689
10743TIP3    H232107   9.292   7.263   1.808
10744TIP3   OH232108   9.305   7.286   1.981
10744TIP3    H132109   9.214   7.303   2.015
10744TIP3    H232110   9.343   7.239   2.057
10745TIP3   OH232111   8.677   6.966   3.274
10745TIP3    H132112   8.727   6.948   3.356
10745TIP3    H232113   8.603   6.902   3.281
10746TIP3   OH232114   9.077   5.788   3.057
10746TIP3    H132115   8.988   5.757   3.030
10746TIP3    H232116   9.052   5.872   3.100
10747TIP3   OH232117   9.599   5.905   3.255
10747TIP3    H132118   9.646   5.888   3.338
10747TIP3    H232119   9.506   5.885   3.282
10748TIP3   OH232120   9.230   5.839   2.029
10748TIP3    H132121   9.197   5.838   2.121
10748TIP3    H232122   9.186   5.758   1.995
10749TIP3   OH232123   9.009   6.304   3.074
10749TIP3    H132124   8.957   6.326   3.154
10749TIP3    H232125   8.994   6.385   3.020
10750TIP3   OH232126   8.892   6.189   2.589
10750TIP3    H132127   8.799   6.164   2.606
10750TIP3    H232128   8.905   6.148   2.501
10751TIP3   OH232129   9.376   6.269   2.308
10751TIP3    H132130   9.326   6.345   2.273
10751TIP3    H232131   9.439   6.250   2.237
10752TIP3   OH232132   9.560   6.552   3.401
10752TIP3    H132133   9.534   6.484   3.465
10752TIP3    H232134   9.652   6.569   3.426
10753TIP3   OH232135   9.517   6.302   2.572
10753TIP3    H132136   9.491   6.354   2.494
10753TIP3    H232137   9.557   6.225   2.528
10754TIP3   OH232138   8.829   6.334   3.283
10754TIP3    H132139   8.850   6.400   3.351
10754TIP3    H232140   8.816   6.253   3.336
10755TIP3   OH232141   8.880   5.811   1.993
10755TIP3    H132142   8.871   5.808   2.090
10755TIP3    H232143   8.800   5.862   1.969
10756TIP3   OH232144   8.421   5.856   2.864
10756TIP3    H132145   8.497   5.887   2.917
10756TIP3    H232146   8.461   5.823   2.783
10757TIP3   OH232147   8.395   5.837   2.383
10757TIP3    H132148   8.440   5.876   2.305
10757TIP3    H232149   8.333   5.909   2.405
10758TIP3   OH232150   9.525   6.560   2.978
10758TIP3    H132151   9.579   6.501   2.920
10758TIP3    H232152   9.512   6.502   3.054
10759TIP3   OH232153   9.218   6.003   2.651
10759TIP3    H132154   9.134   6.007   2.700
10759TIP3    H232155   9.280   6.033   2.718
10760TIP3   OH232156   8.653   6.068   2.659
10760TIP3    H132157   8.559   6.075   2.632
10760TIP3    H232158   8.676   5.976   2.635
10761TIP3   OH232159   8.922   6.063   2.348
10761TIP3    H132160   9.017   6.078   2.330
10761TIP3    H232161   8.877   6.088   2.264
10762TIP3   OH232162   9.624   6.100   2.852
10762TIP3    H132163   9.616   6.105   2.949
10762TIP3    H232164   9.568   6.022   2.829
10763TIP3   OH232165   8.764   6.098   2.126
10763TIP3    H132166   8.690   6.054   2.080
10763TIP3    H232167   8.815   6.133   2.050
10764TIP3   OH232168   8.839   6.886   3.493
10764TIP3    H132169   8.919   6.917   3.540
10764TIP3    H232170   8.774   6.887   3.566
10765TIP3   OH232171   9.296   6.319   2.741
10765TIP3    H132172   9.377   6.306   2.687
10765TIP3    H232173   9.325   6.296   2.830
10766TIP3   OH232174   8.827   5.829   2.626
10766TIP3    H132175   8.793   5.749   2.671
10766TIP3    H232176   8.879   5.791   2.554
10767TIP3   OH232177   9.281   6.230   3.051
10767TIP3    H132178   9.191   6.270   3.049
10767TIP3    H232179   9.335   6.300   3.093
10768TIP3   OH232180   9.015   6.626   2.135
10768TIP3    H132181   8.942   6.562   2.123
10768TIP3    H232182   8.995   6.661   2.225
10769TIP3   OH232183   9.471   5.958   1.975
10769TIP3    H132184   9.382   5.931   2.008
10769TIP3    H232185   9.488   6.041   2.025
10770TIP3   OH232186   9.413   6.943   3.135
10770TIP3    H132187   9.430   6.932   3.229
10770TIP3    H232188   9.382   7.035   3.128
10771TIP3   OH232189   9.564   6.194   2.085
10771TIP3    H132190   9.653   6.223   2.108
10771TIP3    H232191   9.530   6.270   2.035
10772TIP3   OH232192   8.708   6.649   2.809
10772TIP3    H132193   8.746   6.622   2.723
10772TIP3    H232194   8.750   6.587   2.870
10773TIP3   OH232195   9.157   6.775   1.956
10773TIP3    H132196   9.112   6.863   1.961
10773TIP3    H232197   9.101   6.722   2.016
10774TIP3   OH232198   8.588   6.569   3.421
10774TIP3    H132199   8.607   6.556   3.516
10774TIP3    H232200   8.518   6.504   3.405
10775TIP3   OH232201   9.313   6.681   3.443
10775TIP3    H132202   9.252   6.627   3.390
10775TIP3    H232203   9.400   6.651   3.409
10776TIP3   OH232204   9.579   7.203   3.029
10776TIP3    H132205   9.482   7.206   3.025
10776TIP3    H232206   9.597   7.259   3.106
10777TIP3   OH232207   8.808   6.953   2.431
10777TIP3    H132208   8.808   7.036   2.379
10777TIP3    H232209   8.713   6.938   2.444
10778TIP3   OH232210   8.373   6.258   2.137
10778TIP3    H132211   8.418   6.342   2.157
10778TIP3    H232212   8.295   6.263   2.197
10779TIP3   OH232213   8.947   6.720   2.377
10779TIP3    H132214   8.912   6.809   2.396
10779TIP3    H232215   8.914   6.670   2.453
10780TIP3   OH232216   9.078   7.297   2.903
10780TIP3    H132217   9.121   7.369   2.851
10780TIP3    H232218   9.155   7.260   2.948
10781TIP3   OH232219   8.729   7.192   2.286
10781TIP3    H132220   8.643   7.200   2.332
10781TIP3    H232221   8.760   7.286   2.289
10782TIP3   OH232222   9.464   6.935   2.861
10782TIP3    H132223   9.458   6.935   2.959
10782TIP3    H232224   9.539   6.877   2.846
10783TIP3   OH232225   8.800   6.076   3.431
10783TIP3    H132226   8.703   6.081   3.442
10783TIP3    H232227   8.824   6.013   3.501
10784TIP3   OH232228   8.516   7.161   3.062
10784TIP3    H132229   8.569   7.085   3.092
10784TIP3    H232230   8.547   7.229   3.123
10785TIP3   OH232231   8.808   6.804   1.743
10785TIP3    H132232   8.820   6.712   1.714
10785TIP3    H232233   8.790   6.792   1.838
10786TIP3   OH232234   8.754   6.810   2.015
10786TIP3    H132235   8.822   6.784   2.079
10786TIP3    H232236   8.757   6.908   2.022
10787TIP3   OH232237   8.489   6.504   2.219
10787TIP3    H132238   8.423   6.548   2.276
10787TIP3    H232239   8.502   6.574   2.152
10788TIP3   OH232240   9.669   6.141   3.136
10788TIP3    H132241   9.697   6.189   3.217
10788TIP3    H232242   9.629   6.061   3.175
10789TIP3   OH232243   9.483   5.914   2.278
10789TIP3    H132244   9.514   5.911   2.187
10789TIP3    H232245   9.546   5.975   2.320
10790TIP3   OH232246   9.020   7.009   1.964
10790TIP3    H132247   8.933   7.035   2.001
10790TIP3    H232248   9.031   7.078   1.897
10791TIP3   OH232249   9.200   6.070   2.379
10791TIP3    H132250   9.269   6.138   2.359
10791TIP3    H232251   9.209   6.064   2.476
10792TIP3   OH232252   9.475   6.387   3.187
10792TIP3    H132253   9.491   6.449   3.261
10792TIP3    H232254   9.541   6.318   3.205
10793TIP3   OH232255   9.350   5.800   2.487
10793TIP3    H132256   9.330   5.881   2.537
10793TIP3    H232257   9.404   5.837   2.414
10794TIP3   OH232258   8.762   7.082   2.032
10794TIP3    H132259   8.732   7.151   1.969
10794TIP3    H232260   8.745   7.126   2.118
10795TIP3   OH232261   8.863   5.796   2.269
10795TIP3    H132262   8.860   5.886   2.306
10795TIP3    H232263   8.959   5.778   2.279
10796TIP3   OH232264   8.479   6.714   2.025
10796TIP3    H132265   8.542   6.787   2.033
10796TIP3    H232266   8.526   6.660   1.957
10797TIP3   OH232267   8.425   5.988   2.157
10797TIP3    H132268   8.424   6.086   2.153
10797TIP3    H232269   8.340   5.966   2.118
10798TIP3   OH232270   8.813   5.709   3.032
10798TIP3    H132271   8.781   5.677   2.945
10798TIP3    H232272   8.801   5.631   3.089
10799TIP3   OH232273   8.352   6.928   2.414
10799TIP3    H132274   8.279   6.958   2.468
10799TIP3    H232275   8.328   6.967   2.327
10800TIP3   OH232276   8.506   7.467   3.486
10800TIP3    H132277   8.593   7.465   3.530
10800TIP3    H232278   8.485   7.372   3.482
10801TIP3   OH232279   8.989   7.434   3.528
10801TIP3    H132280   9.084   7.414   3.535
10801TIP3    H232281   8.965   7.377   3.453
10802TIP3   OH232282   8.971   7.009   1.660
10802TIP3    H132283   8.913   6.938   1.697
10802TIP3    H232284   9.042   6.955   1.623
10803TIP3   OH232285   9.632   7.339   3.264
10803TIP3    H132286   9.606   7.265   3.325
10803TIP3    H232287   9.710   7.373   3.308
10804TIP3   OH232288   8.638   6.875   3.684
10804TIP3    H132289   8.654   6.778   3.687
10804TIP3    H232290   8.550   6.878   3.640
10805TIP3   OH232291   8.615   6.527   1.875
10805TIP3    H132292   8.669   6.494   1.949
10805TIP3    H232293   8.683   6.532   1.805
10806TIP3   OH232294   9.246   6.959   3.457
10806TIP3    H132295   9.204   6.978   3.371
10806TIP3    H232296   9.275   6.866   3.447
10807TIP3   OH232297   9.122   6.725   1.684
10807TIP3    H132298   9.133   6.741   1.780
10807TIP3    H232299   9.117   6.627   1.683
10808TIP3   OH232300   8.755   6.608   3.667
10808TIP3    H132301   8.831   6.554   3.644
10808TIP3    H232302   8.782   6.642   3.755
10809TIP3   OH232303   8.824   6.428   2.101
10809TIP3    H132304   8.795   6.389   2.184
10809TIP3    H232305   8.857   6.350   2.051
10810TIP3   OH232306   9.095   6.495   3.328
10810TIP3    H132307   9.015   6.553   3.330
10810TIP3    H232308   9.142   6.527   3.248
10811TIP3   OH232309   8.921   6.221   1.939
10811TIP3    H132310   8.893   6.225   1.845
10811TIP3    H232311   9.018   6.231   1.930
10812TIP3   OH232312   9.600   6.895   3.468
10812TIP3    H132313   9.675   6.872   3.412
10812TIP3    H232314   9.601   6.826   3.536
10813TIP3   OH232315   9.219   6.283   3.452
10813TIP3    H132316   9.214   6.203   3.396
10813TIP3    H232317   9.174   6.350   3.396
10814TIP3   OH232318   9.217   6.064   3.264
10814TIP3    H132319   9.243   6.112   3.182
10814TIP3    H232320   9.123   6.043   3.245
10815TIP3   OH232321   9.251   6.604   3.133
10815TIP3    H132322   9.331   6.612   3.078
10815TIP3    H232323   9.193   6.671   3.090
10816TIP3   OH232324   9.836   6.575   3.514
10816TIP3    H132325   9.872   6.488   3.534
10816TIP3    H232326   9.917   6.627   3.504
10817TIP3   OH232327   9.096   6.392   3.685
10817TIP3    H132328   9.025   6.326   3.697
10817TIP3    H232329   9.127   6.371   3.595
10818TIP3   OH232330   9.348   5.831   3.324
10818TIP3    H132331   9.297   5.913   3.304
10818TIP3    H232332   9.279   5.763   3.313
10819TIP3   OH232333   9.479   6.334   3.541
10819TIP3    H132334   9.463   6.326   3.637
10819TIP3    H232335   9.389   6.313   3.508
10820TIP3   OH232336   9.707   6.253   3.389
10820TIP3    H132337   9.630   6.279   3.444
10820TIP3    H232338   9.776   6.242   3.458
10821TIP3   OH232339   9.918   6.208   3.571
10821TIP3    H132340   9.977   6.142   3.610
10821TIP3    H232341   9.917   6.275   3.644
10822TIP3   OH232342   8.932   6.175   3.735
10822TIP3    H132343   8.937   6.084   3.700
10822TIP3    H232344   8.966   6.161   3.826
10823TIP3   OH232345   9.449   5.843   3.580
10823TIP3    H132346   9.510   5.768   3.573
10823TIP3    H232347   9.403   5.837   3.494
10824TIP3   OH232348   9.512   6.057   3.744
10824TIP3    H132349   9.487   5.988   3.679
10824TIP3    H232350   9.435   6.118   3.740
10825TIP3   OH232351   8.731   7.284   1.846
10825TIP3    H132352   8.826   7.282   1.824
10825TIP3    H232353   8.698   7.331   1.767
10826TIP3   OH232354   8.210   6.667   2.061
10826TIP3    H132355   8.305   6.689   2.047
10826TIP3    H232356   8.205   6.578   2.020
10827TIP3   OH232357   8.125   7.280   2.473
10827TIP3    H132358   8.058   7.218   2.438
10827TIP3    H232359   8.169   7.223   2.540
10828TIP3   OH232360   8.261   7.132   2.660
10828TIP3    H132361   8.249   7.058   2.721
10828TIP3    H232362   8.312   7.193   2.717
10829TIP3   OH232363   8.449   6.537   3.033
10829TIP3    H132364   8.447   6.508   2.939
10829TIP3    H232365   8.546   6.540   3.049
10830TIP3   OH232366   8.665   6.225   3.709
10830TIP3    H132367   8.762   6.218   3.708
10830TIP3    H232368   8.641   6.139   3.750
10831TIP3   OH232369   8.628   5.917   3.038
10831TIP3    H132370   8.690   5.842   3.047
10831TIP3    H232371   8.689   5.992   3.032
10832TIP3   OH232372   8.432   6.191   3.113
10832TIP3    H132373   8.480   6.184   3.028
10832TIP3    H232374   8.458   6.279   3.142
10833TIP3   OH232375   8.413   5.695   2.613
10833TIP3    H132376   8.320   5.692   2.638
10833TIP3    H232377   8.411   5.753   2.534
10834TIP3   OH232378   8.635   5.776   3.428
10834TIP3    H132379   8.582   5.768   3.509
10834TIP3    H232380   8.569   5.814   3.367
10835TIP3   OH232381   8.673   7.202   3.504
10835TIP3    H132382   8.581   7.173   3.486
10835TIP3    H232383   8.682   7.183   3.598
10836TIP3   OH232384   8.851   7.233   3.051
10836TIP3    H132385   8.804   7.309   3.011
10836TIP3    H232386   8.938   7.247   3.008
10837TIP3   OH232387   9.293   7.476   3.192
10837TIP3    H132388   9.339   7.484   3.278
10837TIP3    H232389   9.355   7.525   3.133
10838TIP3   OH232390   9.459   7.623   3.036
10838TIP3    H132391   9.537   7.587   2.990
10838TIP3    H232392   9.502   7.675   3.108
10839TIP3   OH232393   8.527   7.492   3.073
10839TIP3    H132394   8.438   7.526   3.050
10839TIP3    H232395   8.535   7.524   3.164
10840TIP3   OH232396   8.763   7.468   2.932
10840TIP3    H132397   8.677   7.482   2.976
10840TIP3    H232398   8.744   7.502   2.842
10841TIP3   OH232399   9.191   7.495   2.722
10841TIP3    H132400   9.116   7.518   2.665
10841TIP3    H232401   9.204   7.580   2.772
10842TIP3   OH232402   9.462   7.438   2.777
10842TIP3    H132403   9.367   7.453   2.762
10842TIP3    H232404   9.501   7.520   2.746
10843TIP3   OH232405   8.440   7.285   2.820
10843TIP3    H132406   8.466   7.260   2.910
10843TIP3    H232407   8.512   7.241   2.769
10844TIP3   OH232408   8.633   7.156   2.676
10844TIP3    H132409   8.649   7.072   2.725
10844TIP3    H232410   8.724   7.193   2.672
10845TIP3   OH232411   8.899   7.250   2.680
10845TIP3    H132412   8.931   7.159   2.668
10845TIP3    H232413   8.944   7.272   2.764
10846TIP3   OH232414   9.482   5.874   2.768
10846TIP3    H132415   9.420   5.816   2.816
10846TIP3    H232416   9.499   5.822   2.688
10847TIP3   OH232417   8.724   5.617   2.784
10847TIP3    H132418   8.632   5.584   2.785
10847TIP3    H232419   8.773   5.532   2.780
10848TIP3   OH232420   8.511   5.485   2.430
10848TIP3    H132421   8.540   5.544   2.358
10848TIP3    H232422   8.481   5.550   2.498
10849TIP3   OH232423   9.163   5.649   2.662
10849TIP3    H132424   9.222   5.694   2.600
10849TIP3    H232425   9.186   5.690   2.746
10850TIP3   OH232426   8.228   7.056   2.211
10850TIP3    H132427   8.143   7.022   2.177
10850TIP3    H232428   8.216   7.150   2.194
10851TIP3   OH232429   8.626   5.646   2.194
10851TIP3    H132430   8.676   5.583   2.138
10851TIP3    H232431   8.699   5.700   2.231
10852TIP3   OH232432   9.141   5.820   2.292
10852TIP3    H132433   9.202   5.773   2.352
10852TIP3    H232434   9.162   5.912   2.318
10853TIP3   OH232435   8.999   7.248   1.791
10853TIP3    H132436   9.085   7.273   1.752
10853TIP3    H232437   8.976   7.174   1.731
10854TIP3   OH232438   8.931   5.898   3.676
10854TIP3    H132439   8.896   5.827   3.732
10854TIP3    H232440   9.025   5.898   3.702
10855TIP3   OH232441   9.181   5.895   3.795
10855TIP3    H132442   9.265   5.868   3.755
10855TIP3    H232443   9.166   5.823   3.860
10856TIP3   OH232444   8.303   7.082   1.850
10856TIP3    H132445   8.303   7.108   1.943
10856TIP3    H232446   8.392   7.041   1.839
10857TIP3   OH232447   0.373   7.452   4.604
10857TIP3    H132448   0.425   7.398   4.666
10857TIP3    H232449   0.398   7.542   4.629
10858TIP3   OH232450   0.881   6.703   4.982
10858TIP3    H132451   0.913   6.786   5.023
10858TIP3    H232452   0.900   6.720   4.888
10859TIP3   OH232453   0.358   6.880   5.010
10859TIP3    H132454   0.387   6.789   5.029
10859TIP3    H232455   0.328   6.868   4.918
10860TIP3   OH232456   0.308   6.633   4.611
10860TIP3    H132457   0.385   6.616   4.670
10860TIP3    H232458   0.355   6.664   4.531
10861TIP3   OH232459   0.962   6.910   5.149
10861TIP3    H132460   0.877   6.955   5.127
10861TIP3    H232461   0.965   6.926   5.245
10862TIP3   OH232462   0.526   6.633   4.774
10862TIP3    H132463   0.505   6.592   4.859
10862TIP3    H232464   0.581   6.709   4.801
10863TIP3   OH232465   0.684   6.602   5.155
10863TIP3    H132466   0.595   6.635   5.134
10863TIP3    H232467   0.736   6.632   5.077
10864TIP3   OH232468   0.245   7.530   4.348
10864TIP3    H132469   0.183   7.461   4.319
10864TIP3    H232470   0.291   7.487   4.421
10865TIP3   OH232471   0.626   7.619   5.137
10865TIP3    H132472   0.589   7.538   5.097
10865TIP3    H232473   0.598   7.686   5.071
10866TIP3   OH232474   0.825   7.239   4.972
10866TIP3    H132475   0.739   7.287   4.981
10866TIP3    H232476   0.849   7.267   4.881
10867TIP3   OH232477   0.261   7.096   4.347
10867TIP3    H132478   0.197   7.118   4.418
10867TIP3    H232479   0.337   7.062   4.398
10868TIP3   OH232480   0.508   7.153   5.246
10868TIP3    H132481   0.487   7.218   5.316
10868TIP3    H232482   0.420   7.137   5.210
10869TIP3   OH232483   0.158   6.907   4.167
10869TIP3    H132484   0.162   6.977   4.235
10869TIP3    H232485   0.123   6.958   4.092
10870TIP3   OH232486   0.605   6.188   4.231
10870TIP3    H132487   0.525   6.207   4.283
10870TIP3    H232488   0.618   6.273   4.184
10871TIP3   OH232489   0.405   7.557   3.779
10871TIP3    H132490   0.417   7.653   3.770
10871TIP3    H232491   0.498   7.525   3.767
10872TIP3   OH232492   0.863   7.949   5.173
10872TIP3    H132493   0.861   7.853   5.190
10872TIP3    H232494   0.770   7.973   5.191
10873TIP3   OH232495   0.737   7.091   5.447
10873TIP3    H132496   0.658   7.099   5.391
10873TIP3    H232497   0.753   6.995   5.442
10874TIP3   OH232498   0.281   6.431   5.455
10874TIP3    H132499   0.353   6.393   5.510
10874TIP3    H232500   0.203   6.400   5.503
10875TIP3   OH232501   0.536   6.879   5.352
10875TIP3    H132502   0.499   6.872   5.443
10875TIP3    H232503   0.474   6.943   5.314
10876TIP3   OH232504   0.151   7.019   3.905
10876TIP3    H132505   0.139   6.962   3.827
10876TIP3    H232506   0.246   7.042   3.899
10877TIP3   OH232507   0.210   6.842   4.766
10877TIP3    H132508   0.129   6.863   4.716
10877TIP3    H232509   0.235   6.759   4.720
10878TIP3   OH232510   0.381   6.607   5.029
10878TIP3    H132511   0.380   6.608   5.127
10878TIP3    H232512   0.306   6.546   5.012
10879TIP3   OH232513   0.599   7.383   4.969
10879TIP3    H132514   0.618   7.438   4.890
10879TIP3    H232515   0.502   7.379   4.967
10880TIP3   OH232516   0.087   6.480   4.186
10880TIP3    H132517   0.008   6.532   4.209
10880TIP3    H232518   0.156   6.547   4.209
10881TIP3   OH232519   0.237   6.677   4.281
10881TIP3    H132520   0.320   6.714   4.317
10881TIP3    H232521   0.195   6.760   4.246
10882TIP3   OH232522   0.644   6.808   4.137
10882TIP3    H132523   0.582   6.763   4.075
10882TIP3    H232524   0.639   6.897   4.097
10883TIP3   OH232525   0.873   7.669   5.219
10883TIP3    H132526   0.774   7.661   5.212
10883TIP3    H232527   0.897   7.636   5.129
10884TIP3   OH232528   0.343   7.631   4.048
10884TIP3    H132529   0.316   7.567   4.115
10884TIP3    H232530   0.359   7.577   3.969
10885TIP3   OH232531   0.342   7.261   4.866
10885TIP3    H132532   0.263   7.221   4.904
10885TIP3    H232533   0.383   7.183   4.824
10886TIP3   OH232534   0.433   7.837   3.768
10886TIP3    H132535   0.487   7.905   3.724
10886TIP3    H232536   0.345   7.873   3.749
10887TIP3   OH232537   0.253   7.291   4.148
10887TIP3    H132538   0.239   7.223   4.217
10887TIP3    H232539   0.351   7.289   4.143
10888TIP3   OH232540   0.386   6.631   5.293
10888TIP3    H132541   0.416   6.712   5.338
10888TIP3    H232542   0.360   6.573   5.367
10889TIP3   OH232543   0.190   6.416   4.463
10889TIP3    H132544   0.158   6.460   4.383
10889TIP3    H232545   0.209   6.492   4.521
10890TIP3   OH232546   0.793   6.815   5.365
10890TIP3    H132547   0.696   6.828   5.365
10890TIP3    H232548   0.801   6.767   5.281
10891TIP3   OH232549   0.428   7.021   4.754
10891TIP3    H132550   0.353   6.959   4.754
10891TIP3    H232551   0.497   6.972   4.802
10892TIP3   OH232552   0.461   7.917   4.694
10892TIP3    H132553   0.367   7.940   4.678
10892TIP3    H232554   0.500   8.005   4.699
10893TIP3   OH232555   0.403   7.089   3.803
10893TIP3    H132556   0.386   7.039   3.721
10893TIP3    H232557   0.377   7.178   3.773
10894TIP3   OH232558   0.503   7.110   5.714
10894TIP3    H132559   0.542   7.022   5.722
10894TIP3    H232560   0.579   7.165   5.695
10895TIP3   OH232561   0.529   7.362   5.444
10895TIP3    H132562   0.472   7.408   5.382
10895TIP3    H232563   0.618   7.376   5.403
10896TIP3   OH232564   0.419   6.847   5.588
10896TIP3    H132565   0.338   6.810   5.628
10896TIP3    H232566   0.488   6.811   5.648
10897TIP3   OH232567   0.597   6.751   5.764
10897TIP3    H132568   0.617   6.656   5.782
10897TIP3    H232569   0.593   6.791   5.852
10898TIP3   OH232570   0.670   8.166   4.667
10898TIP3    H132571   0.685   8.117   4.749
10898TIP3    H232572   0.686   8.104   4.596
10899TIP3   OH232573   0.667   8.067   4.925
10899TIP3    H132574   0.640   7.977   4.951
10899TIP3    H232575   0.741   8.081   4.986
10900TIP3   OH232576   0.720   7.766   5.508
10900TIP3    H132577   0.659   7.769   5.582
10900TIP3    H232578   0.766   7.852   5.514
10901TIP3   OH232579   0.537   7.275   4.137
10901TIP3    H132580   0.608   7.336   4.111
10901TIP3    H232581   0.576   7.233   4.217
10902TIP3   OH232582   0.664   7.142   4.341
10902TIP3    H132583   0.598   7.095   4.398
10902TIP3    H232584   0.727   7.178   4.406
10903TIP3   OH232585   0.704   7.531   4.763
10903TIP3    H132586   0.766   7.466   4.724
10903TIP3    H232587   0.718   7.610   4.707
10904TIP3   OH232588   0.525   7.815   4.962
10904TIP3    H132589   0.465   7.880   5.002
10904TIP3    H232590   0.506   7.827   4.866
10905TIP3   OH232591   0.603   7.048   3.989
10905TIP3    H132592   0.531   7.051   3.923
10905TIP3    H232593   0.575   7.123   4.046
10906TIP3   OH232594   0.481   6.718   3.938
10906TIP3    H132595   0.431   6.758   3.867
10906TIP3    H232596   0.451   6.625   3.931
10907TIP3   OH232597   0.486   6.993   4.488
10907TIP3    H132598   0.490   6.896   4.479
10907TIP3    H232599   0.473   7.004   4.585
10908TIP3   OH232600   0.773   7.424   5.345
10908TIP3    H132601   0.843   7.355   5.337
10908TIP3    H232602   0.798   7.487   5.276
10909TIP3   OH232603   0.955   7.228   5.367
10909TIP3    H132604   0.879   7.176   5.401
10909TIP3    H232605   1.027   7.163   5.380
10910TIP3   OH232606   0.419   6.453   3.929
10910TIP3    H132607   0.496   6.426   3.983
10910TIP3    H232608   0.348   6.393   3.960
10911TIP3   OH232609   0.489   6.719   4.396
10911TIP3    H132610   0.525   6.629   4.409
10911TIP3    H232611   0.539   6.747   4.318
10912TIP3   OH232612   0.638   6.886   4.874
10912TIP3    H132613   0.725   6.912   4.838
10912TIP3    H232614   0.647   6.921   4.965
10913TIP3   OH232615   0.713   7.025   5.107
10913TIP3    H132616   0.636   7.063   5.156
10913TIP3    H232617   0.747   7.105   5.061
10914TIP3   OH232618   1.156   6.618   5.670
10914TIP3    H132619   1.216   6.553   5.627
10914TIP3    H232620   1.130   6.674   5.594
10915TIP3   OH232621   0.586   6.462   4.420
10915TIP3    H132622   0.632   6.445   4.505
10915TIP3    H232623   0.523   6.387   4.418
10916TIP3   OH232624   1.036   6.761   5.474
10916TIP3    H132625   0.946   6.799   5.482
10916TIP3    H232626   1.014   6.687   5.415
10917TIP3   OH232627   0.665   6.400   4.052
10917TIP3    H132628   0.708   6.327   4.004
10917TIP3    H232629   0.732   6.470   4.048
10918TIP3   OH232630   0.928   6.522   5.351
10918TIP3    H132631   0.837   6.517   5.316
10918TIP3    H232632   0.958   6.428   5.339
10919TIP3   OH232633   0.179   6.412   4.992
10919TIP3    H132634   0.160   6.329   5.038
10919TIP3    H232635   0.252   6.382   4.933
10920TIP3   OH232636   0.659   6.322   4.877
10920TIP3    H132637   0.694   6.373   4.801
10920TIP3    H232638   0.563   6.337   4.867
10921TIP3   OH232639   0.750   6.420   4.638
10921TIP3    H132640   0.824   6.369   4.598
10921TIP3    H232641   0.782   6.512   4.623
10922TIP3   OH232642   0.384   6.318   4.839
10922TIP3    H132643   0.384   6.281   4.750
10922TIP3    H232644   0.369   6.237   4.894
10923TIP3   OH232645   0.403   6.249   4.410
10923TIP3    H132646   0.320   6.298   4.426
10923TIP3    H232647   0.386   6.165   4.456
10924TIP3   OH232648   0.375   7.900   4.072
10924TIP3    H132649   0.369   7.803   4.087
10924TIP3    H232650   0.339   7.904   3.982
10925TIP3   OH232651   0.664   6.486   5.787
10925TIP3    H132652   0.685   6.452   5.876
10925TIP3    H232653   0.751   6.480   5.742
10926TIP3   OH232654   0.608   8.030   5.215
10926TIP3    H132655   0.524   7.993   5.248
10926TIP3    H232656   0.610   8.112   5.266
10927TIP3   OH232657   1.870   7.415   4.045
10927TIP3    H132658   1.834   7.502   4.019
10927TIP3    H232659   1.799   7.356   4.013
10928TIP3   OH232660   1.856   7.408   4.418
10928TIP3    H132661   1.890   7.366   4.499
10928TIP3    H232662   1.837   7.332   4.361
10929TIP3   OH232663   1.164   7.308   4.790
10929TIP3    H132664   1.197   7.240   4.852
10929TIP3    H232665   1.242   7.363   4.779
10930TIP3   OH232666   2.111   7.714   4.103
10930TIP3    H132667   2.092   7.643   4.165
10930TIP3    H232668   2.139   7.787   4.161
10931TIP3   OH232669   1.137   7.714   4.516
10931TIP3    H132670   1.130   7.616   4.518
10931TIP3    H232671   1.234   7.724   4.509
10932TIP3   OH232672   0.846   6.922   4.300
10932TIP3    H132673   0.795   7.004   4.312
10932TIP3    H232674   0.776   6.864   4.265
10933TIP3   OH232675   0.902   7.212   4.471
10933TIP3    H132676   0.949   7.133   4.507
10933TIP3    H232677   0.958   7.236   4.397
10934TIP3   OH232678   1.759   8.177   4.121
10934TIP3    H132679   1.804   8.106   4.071
10934TIP3    H232680   1.751   8.137   4.209
10935TIP3   OH232681   1.664   7.635   4.473
10935TIP3    H132682   1.702   7.557   4.429
10935TIP3    H232683   1.748   7.681   4.494
10936TIP3   OH232684   2.675   6.958   4.469
10936TIP3    H132685   2.706   7.040   4.514
10936TIP3    H232686   2.699   6.978   4.377
10937TIP3   OH232687   2.066   7.140   4.484
10937TIP3    H132688   2.118   7.060   4.509
10937TIP3    H232689   1.991   7.100   4.437
10938TIP3   OH232690   2.113   6.860   4.086
10938TIP3    H132691   2.181   6.862   4.156
10938TIP3    H232692   2.145   6.931   4.028
10939TIP3   OH232693   1.042   7.004   4.577
10939TIP3    H132694   1.122   6.981   4.627
10939TIP3    H232695   1.055   6.947   4.497
10940TIP3   OH232696   1.488   7.197   4.364
10940TIP3    H132697   1.582   7.176   4.341
10940TIP3    H232698   1.446   7.113   4.337
10941TIP3   OH232699   2.751   7.164   4.639
10941TIP3    H132700   2.667   7.212   4.621
10941TIP3    H232701   2.766   7.190   4.731
10942TIP3   OH232702   1.409   6.782   4.905
10942TIP3    H132703   1.345   6.818   4.841
10942TIP3    H232704   1.361   6.797   4.989
10943TIP3   OH232705   1.758   7.633   3.914
10943TIP3    H132706   1.716   7.609   3.830
10943TIP3    H232707   1.713   7.717   3.934
10944TIP3   OH232708   1.518   7.557   4.700
10944TIP3    H132709   1.456   7.624   4.737
10944TIP3    H232710   1.560   7.607   4.627
10945TIP3   OH232711   2.320   6.893   4.265
10945TIP3    H132712   2.309   6.848   4.349
10945TIP3    H232713   2.373   6.971   4.291
10946TIP3   OH232714   1.273   6.893   4.687
10946TIP3    H132715   1.336   6.965   4.707
10946TIP3    H232716   1.300   6.865   4.598
10947TIP3   OH232717   1.345   7.751   4.797
10947TIP3    H132718   1.320   7.836   4.757
10947TIP3    H232719   1.266   7.736   4.853
10948TIP3   OH232720   0.743   7.441   4.033
10948TIP3    H132721   0.702   7.467   3.949
10948TIP3    H232722   0.772   7.526   4.070
10949TIP3   OH232723   2.181   7.956   4.275
10949TIP3    H132724   2.090   7.947   4.313
10949TIP3    H232725   2.172   8.041   4.228
10950TIP3   OH232726   2.469   6.858   4.634
10950TIP3    H132727   2.382   6.888   4.604
10950TIP3    H232728   2.529   6.890   4.564
10951TIP3   OH232729   1.764   6.496   4.615
10951TIP3    H132730   1.757   6.402   4.640
10951TIP3    H232731   1.687   6.533   4.663
10952TIP3   OH232732   1.882   8.004   3.948
10952TIP3    H132733   1.931   7.921   3.927
10952TIP3    H232734   1.943   8.068   3.906
10953TIP3   OH232735   2.023   7.789   3.853
10953TIP3    H132736   1.989   7.710   3.811
10953TIP3    H232737   2.060   7.753   3.937
10954TIP3   OH232738   2.404   7.871   4.615
10954TIP3    H132739   2.395   7.793   4.557
10954TIP3    H232740   2.390   7.945   4.553
10955TIP3   OH232741   1.699   7.271   3.878
10955TIP3    H132742   1.621   7.319   3.844
10955TIP3    H232743   1.749   7.251   3.797
10956TIP3   OH232744   1.657   7.046   3.593
10956TIP3    H132745   1.724   7.097   3.642
10956TIP3    H232746   1.715   6.985   3.543
10957TIP3   OH232747   2.601   7.505   4.460
10957TIP3    H132748   2.518   7.558   4.466
10957TIP3    H232749   2.630   7.530   4.370
10958TIP3   OH232750   2.045   7.346   3.845
10958TIP3    H132751   1.989   7.371   3.923
10958TIP3    H232752   2.128   7.320   3.890
10959TIP3   OH232753   2.281   7.385   4.756
10959TIP3    H132754   2.278   7.469   4.806
10959TIP3    H232755   2.194   7.390   4.711
10960TIP3   OH232756   1.276   7.344   4.264
10960TIP3    H132757   1.234   7.287   4.196
10960TIP3    H232758   1.354   7.291   4.290
10961TIP3   OH232759   1.405   7.753   4.412
10961TIP3    H132760   1.386   7.713   4.325
10961TIP3    H232761   1.496   7.719   4.429
10962TIP3   OH232762   1.415   7.315   4.616
10962TIP3    H132763   1.449   7.295   4.526
10962TIP3    H232764   1.457   7.401   4.636
10963TIP3   OH232765   1.938   7.953   4.393
10963TIP3    H132766   1.925   8.032   4.449
10963TIP3    H232767   1.924   7.879   4.456
10964TIP3   OH232768   1.552   7.872   4.940
10964TIP3    H132769   1.491   7.934   4.986
10964TIP3    H232770   1.486   7.818   4.891
10965TIP3   OH232771   1.885   7.200   3.674
10965TIP3    H132772   1.943   7.260   3.727
10965TIP3    H232773   1.912   7.224   3.582
10966TIP3   OH232774   1.306   7.428   5.041
10966TIP3    H132775   1.310   7.515   5.086
10966TIP3    H232776   1.210   7.409   5.050
10967TIP3   OH232777   1.626   7.886   3.949
10967TIP3    H132778   1.707   7.938   3.964
10967TIP3    H232779   1.567   7.949   3.905
10968TIP3   OH232780   1.347   8.041   5.025
10968TIP3    H132781   1.311   8.040   4.934
10968TIP3    H232782   1.268   8.019   5.079
10969TIP3   OH232783   1.143   7.186   4.070
10969TIP3    H132784   1.079   7.231   4.010
10969TIP3    H232785   1.102   7.099   4.079
10970TIP3   OH232786   2.199   7.812   3.272
10970TIP3    H132787   2.207   7.907   3.251
10970TIP3    H232788   2.291   7.781   3.255
10971TIP3   OH232789   0.926   7.570   4.973
10971TIP3    H132790   0.863   7.544   4.904
10971TIP3    H232791   0.963   7.483   5.002
10972TIP3   OH232792   0.789   7.762   4.617
10972TIP3    H132793   0.878   7.742   4.585
10972TIP3    H232794   0.807   7.838   4.674
10973TIP3   OH232795   2.640   8.214   4.656
10973TIP3    H132796   2.644   8.118   4.676
10973TIP3    H232797   2.559   8.238   4.707
10974TIP3   OH232798   1.750   8.000   4.797
10974TIP3    H132799   1.749   8.093   4.829
10974TIP3    H232800   1.678   7.961   4.851
10975TIP3   OH232801   1.509   8.129   3.749
10975TIP3    H132802   1.465   8.109   3.664
10975TIP3    H232803   1.477   8.218   3.770
10976TIP3   OH232804   0.947   7.980   4.132
10976TIP3    H132805   1.000   7.967   4.214
10976TIP3    H232806   0.891   7.900   4.135
10977TIP3   OH232807   1.712   8.031   3.390
10977TIP3    H132808   1.770   7.961   3.351
10977TIP3    H232809   1.747   8.038   3.481
10978TIP3   OH232810   1.762   8.080   3.661
10978TIP3    H132811   1.673   8.088   3.702
10978TIP3    H232812   1.811   8.035   3.731
10979TIP3   OH232813   2.533   7.345   4.937
10979TIP3    H132814   2.453   7.358   4.884
10979TIP3    H232815   2.549   7.249   4.926
10980TIP3   OH232816   1.130   7.753   4.963
10980TIP3    H132817   1.180   7.736   5.046
10980TIP3    H232818   1.056   7.689   4.970
10981TIP3   OH232819   1.526   6.595   4.735
10981TIP3    H132820   1.438   6.557   4.710
10981TIP3    H232821   1.496   6.662   4.800
10982TIP3   OH232822   2.064   6.692   4.940
10982TIP3    H132823   2.134   6.664   5.003
10982TIP3    H232824   1.981   6.670   4.988
10983TIP3   OH232825   2.299   7.119   4.856
10983TIP3    H132826   2.253   7.117   4.943
10983TIP3    H232827   2.279   7.209   4.824
10984TIP3   OH232828   1.962   7.249   3.416
10984TIP3    H132829   1.928   7.225   3.328
10984TIP3    H232830   2.041   7.301   3.392
10985TIP3   OH232831   1.672   6.624   3.717
10985TIP3    H132832   1.641   6.624   3.810
10985TIP3    H232833   1.631   6.541   3.685
10986TIP3   OH232834   1.452   7.088   4.756
10986TIP3    H132835   1.408   7.110   4.841
10986TIP3    H232836   1.439   7.172   4.706
10987TIP3   OH232837   1.363   6.963   4.294
10987TIP3    H132838   1.273   6.933   4.316
10987TIP3    H232839   1.372   6.926   4.204
10988TIP3   OH232840   2.009   7.344   5.093
10988TIP3    H132841   1.988   7.270   5.155
10988TIP3    H232842   2.104   7.357   5.114
10989TIP3   OH232843   1.280   7.120   4.973
10989TIP3    H132844   1.311   7.183   5.039
10989TIP3    H232845   1.268   7.039   5.026
10990TIP3   OH232846   1.329   6.597   3.683
10990TIP3    H132847   1.321   6.596   3.781
10990TIP3    H232848   1.251   6.651   3.659
10991TIP3   OH232849   0.872   6.644   4.552
10991TIP3    H132850   0.948   6.672   4.606
10991TIP3    H232851   0.912   6.610   4.471
10992TIP3   OH232852   0.847   6.624   4.073
10992TIP3    H132853   0.892   6.663   3.996
10992TIP3    H232854   0.785   6.697   4.095
10993TIP3   OH232855   2.008   7.336   4.666
10993TIP3    H132856   2.038   7.265   4.606
10993TIP3    H232857   1.977   7.283   4.743
10994TIP3   OH232858   1.111   6.855   4.358
10994TIP3    H132859   1.019   6.860   4.323
10994TIP3    H232860   1.141   6.767   4.330
10995TIP3   OH232861   1.380   6.855   4.038
10995TIP3    H132862   1.472   6.875   4.014
10995TIP3    H232863   1.330   6.877   3.955
10996TIP3   OH232864   2.166   6.883   4.542
10996TIP3    H132865   2.130   6.890   4.633
10996TIP3    H232866   2.103   6.822   4.500
10997TIP3   OH232867   1.218   6.885   3.816
10997TIP3    H132868   1.145   6.841   3.768
10997TIP3    H232869   1.269   6.922   3.742
10998TIP3   OH232870   2.329   8.566   4.760
10998TIP3    H132871   2.331   8.584   4.664
10998TIP3    H232872   2.414   8.606   4.789
10999TIP3   OH232873   1.290   7.675   5.184
10999TIP3    H132874   1.371   7.705   5.229
10999TIP3    H232875   1.228   7.675   5.259
11000TIP3   OH232876   1.275   6.624   4.313
11000TIP3    H132877   1.251   6.546   4.366
11000TIP3    H232878   1.335   6.587   4.248
11001TIP3   OH232879   1.718   7.001   4.727
11001TIP3    H132880   1.639   7.057   4.743
11001TIP3    H232881   1.790   7.059   4.760
11002TIP3   OH232882   1.463   7.421   3.819
11002TIP3    H132883   1.393   7.353   3.810
11002TIP3    H232884   1.449   7.450   3.912
11003TIP3   OH232885   2.369   7.652   4.452
11003TIP3    H132886   2.393   7.701   4.371
11003TIP3    H232887   2.284   7.610   4.428
11004TIP3   OH232888   1.925   6.724   3.677
11004TIP3    H132889   1.828   6.715   3.691
11004TIP3    H232890   1.942   6.818   3.700
11005TIP3   OH232891   1.867   7.733   4.820
11005TIP3    H132892   1.893   7.713   4.910
11005TIP3    H232893   1.829   7.823   4.827
11006TIP3   OH232894   2.007   6.965   3.768
11006TIP3    H132895   2.097   6.986   3.799
11006TIP3    H232896   1.973   7.052   3.741
11007TIP3   OH232897   1.160   7.438   4.500
11007TIP3    H132898   1.197   7.411   4.413
11007TIP3    H232899   1.201   7.374   4.559
11008TIP3   OH232900   1.614   7.566   3.642
11008TIP3    H132901   1.567   7.653   3.649
11008TIP3    H232902   1.559   7.511   3.702
11009TIP3   OH232903   1.040   7.362   5.114
11009TIP3    H132904   1.060   7.343   5.208
11009TIP3    H232905   0.976   7.292   5.092
11010TIP3   OH232906   1.767   7.472   5.131
11010TIP3    H132907   1.710   7.414   5.079
11010TIP3    H232908   1.856   7.439   5.105
11011TIP3   OH232909   2.029   7.996   4.715
11011TIP3    H132910   1.932   7.993   4.728
11011TIP3    H232911   2.056   8.047   4.794
11012TIP3   OH232912   2.437   7.067   3.625
11012TIP3    H132913   2.375   7.024   3.561
11012TIP3    H232914   2.436   7.156   3.585
11013TIP3   OH232915   2.655   7.921   4.705
11013TIP3    H132916   2.557   7.918   4.696
11013TIP3    H232917   2.681   7.893   4.615
11014TIP3   OH232918   2.141   7.885   3.534
11014TIP3    H132919   2.113   7.812   3.592
11014TIP3    H232920   2.152   7.841   3.448
11015TIP3   OH232921   2.135   7.513   4.374
11015TIP3    H132922   2.041   7.489   4.385
11015TIP3    H232923   2.169   7.435   4.326
11016TIP3   OH232924   1.262   7.742   4.126
11016TIP3    H132925   1.265   7.823   4.070
11016TIP3    H232926   1.167   7.727   4.131
11017TIP3   OH232927   0.826   7.046   3.826
11017TIP3    H132928   0.872   7.130   3.847
11017TIP3    H232929   0.749   7.051   3.887
11018TIP3   OH232930   1.400   7.507   4.068
11018TIP3    H132931   1.366   7.598   4.086
11018TIP3    H232932   1.363   7.458   4.144
11019TIP3   OH232933   1.530   8.085   4.594
11019TIP3    H132934   1.570   8.158   4.542
11019TIP3    H232935   1.607   8.051   4.641
11020TIP3   OH232936   1.182   7.981   3.976
11020TIP3    H132937   1.095   7.990   4.021
11020TIP3    H232938   1.214   8.073   3.978
11021TIP3   OH232939   1.920   7.720   4.551
11021TIP3    H132940   1.911   7.717   4.648
11021TIP3    H232941   2.000   7.667   4.537
11022TIP3   OH232942   1.892   7.610   3.434
11022TIP3    H132943   1.945   7.587   3.514
11022TIP3    H232944   1.803   7.586   3.465
11023TIP3   OH232945   2.166   8.256   4.603
11023TIP3    H132946   2.089   8.197   4.595
11023TIP3    H232947   2.151   8.319   4.529
11024TIP3   OH232948   2.233   8.087   3.254
11024TIP3    H132949   2.267   8.155   3.194
11024TIP3    H232950   2.153   8.133   3.287
11025TIP3   OH232951   1.254   6.864   5.121
11025TIP3    H132952   1.157   6.868   5.133
11025TIP3    H232953   1.280   6.802   5.192
11026TIP3   OH232954   2.053   7.549   3.653
11026TIP3    H132955   2.042   7.481   3.722
11026TIP3    H232956   2.150   7.544   3.638
11027TIP3   OH232957   0.961   7.942   4.757
11027TIP3    H132958   1.023   7.874   4.787
11027TIP3    H232959   0.993   8.020   4.805
11028TIP3   OH232960   1.259   7.594   3.434
11028TIP3    H132961   1.275   7.503   3.403
11028TIP3    H232962   1.240   7.579   3.529
11029TIP3   OH232963   1.204   7.597   3.709
11029TIP3    H132964   1.281   7.570   3.761
11029TIP3    H232965   1.210   7.695   3.714
11030TIP3   OH232966   0.942   7.291   3.909
11030TIP3    H132967   0.876   7.337   3.965
11030TIP3    H232968   0.958   7.360   3.841
11031TIP3   OH232969   2.085   6.929   4.801
11031TIP3    H132970   2.167   6.968   4.836
11031TIP3    H232971   2.075   6.849   4.857
11032TIP3   OH232972   1.969   6.670   3.958
11032TIP3    H132973   1.956   6.703   3.868
11032TIP3    H232974   2.016   6.745   4.001
11033TIP3   OH232975   1.471   7.796   3.656
11033TIP3    H132976   1.384   7.825   3.690
11033TIP3    H232977   1.487   7.862   3.588
11034TIP3   OH232978   1.673   6.871   4.069
11034TIP3    H132979   1.733   6.921   4.013
11034TIP3    H232980   1.693   6.913   4.155
11035TIP3   OH232981   1.929   7.176   4.873
11035TIP3    H132982   1.947   7.230   4.953
11035TIP3    H232983   1.985   7.097   4.889
11036TIP3   OH232984   1.811   6.593   4.174
11036TIP3    H132985   1.843   6.654   4.242
11036TIP3    H232986   1.862   6.625   4.096
11037TIP3   OH232987   1.213   7.871   3.721
11037TIP3    H132988   1.184   7.940   3.658
11037TIP3    H232989   1.198   7.915   3.807
11038TIP3   OH232990   1.315   6.585   3.959
11038TIP3    H132991   1.312   6.675   3.997
11038TIP3    H232992   1.411   6.567   3.969
11039TIP3   OH232993   2.568   7.079   4.855
11039TIP3    H132994   2.470   7.076   4.862
11039TIP3    H232995   2.581   7.036   4.770
11040TIP3   OH232996   2.219   7.270   4.244
11040TIP3    H132997   2.146   7.215   4.275
11040TIP3    H232998   2.295   7.227   4.290
11041TIP3   OH232999   0.931   7.503   3.715
11041TIP3    H133000   0.998   7.573   3.724
11041TIP3    H233001   0.976   7.447   3.647
11042TIP3   OH233002   0.877   6.776   3.847
11042TIP3    H133003   0.877   6.874   3.843
11042TIP3    H233004   0.791   6.755   3.809
11043TIP3   OH233005   2.187   8.230   4.195
11043TIP3    H133006   2.144   8.276   4.120
11043TIP3    H233007   2.281   8.248   4.174
11044TIP3   OH233008   1.267   6.498   4.722
11044TIP3    H133009   1.235   6.463   4.636
11044TIP3    H233010   1.257   6.419   4.780
11045TIP3   OH233011   0.805   7.719   4.107
11045TIP3    H133012   0.726   7.749   4.153
11045TIP3    H233013   0.788   7.754   4.018
11046TIP3   OH233014   0.957   8.250   5.179
11046TIP3    H133015   1.046   8.255   5.222
11046TIP3    H233016   0.946   8.154   5.170
11047TIP3   OH233017   1.441   8.222   5.219
11047TIP3    H133018   1.536   8.204   5.226
11047TIP3    H233019   1.417   8.164   5.144
11048TIP3   OH233020   1.425   7.798   3.349
11048TIP3    H133021   1.369   7.724   3.384
11048TIP3    H233022   1.498   7.748   3.309
11049TIP3   OH233023   2.080   8.128   4.952
11049TIP3    H133024   2.072   8.058   5.020
11049TIP3    H233025   2.159   8.177   4.982
11050TIP3   OH233026   1.859   7.840   3.257
11050TIP3    H133027   1.908   7.776   3.311
11050TIP3    H233028   1.909   7.840   3.173
11051TIP3   OH233029   1.093   7.661   5.380
11051TIP3    H133030   1.112   7.565   5.378
11051TIP3    H233031   1.009   7.664   5.329
11052TIP3   OH233032   1.066   7.315   3.567
11052TIP3    H133033   1.123   7.281   3.639
11052TIP3    H233034   1.132   7.319   3.495
11053TIP3   OH233035   1.697   7.747   5.148
11053TIP3    H133036   1.657   7.764   5.060
11053TIP3    H233037   1.729   7.655   5.140
11054TIP3   OH233038   1.574   7.510   3.374
11054TIP3    H133039   1.579   7.524   3.471
11054TIP3    H233040   1.574   7.412   3.370
11055TIP3   OH233041   2.190   7.755   4.753
11055TIP3    H133042   2.266   7.800   4.709
11055TIP3    H233043   2.120   7.822   4.739
11056TIP3   OH233044   1.209   7.397   5.356
11056TIP3    H133045   1.284   7.341   5.333
11056TIP3    H233046   1.236   7.429   5.444
11057TIP3   OH233047   1.275   7.216   3.789
11057TIP3    H133048   1.251   7.173   3.872
11057TIP3    H233049   1.312   7.142   3.737
11058TIP3   OH233050   1.543   7.278   5.013
11058TIP3    H133051   1.467   7.341   5.018
11058TIP3    H233052   1.594   7.315   4.937
11059TIP3   OH233053   1.376   7.010   3.631
11059TIP3    H133054   1.350   7.014   3.536
11059TIP3    H233055   1.473   7.016   3.623
11060TIP3   OH233056   2.061   7.684   5.151
11060TIP3    H133057   2.142   7.662   5.103
11060TIP3    H233058   2.060   7.616   5.221
11061TIP3   OH233059   2.200   7.340   3.292
11061TIP3    H133060   2.178   7.295   3.208
11061TIP3    H233061   2.168   7.431   3.269
11062TIP3   OH233062   1.667   7.071   5.147
11062TIP3    H133063   1.667   6.989   5.093
11062TIP3    H233064   1.624   7.135   5.086
11063TIP3   OH233065   1.667   6.854   4.961
11063TIP3    H133066   1.695   6.896   4.878
11063TIP3    H233067   1.574   6.830   4.941
11064TIP3   OH233068   1.698   7.391   4.823
11064TIP3    H133069   1.781   7.399   4.775
11064TIP3    H233070   1.643   7.459   4.779
11065TIP3   OH233071   2.281   7.359   5.206
11065TIP3    H133072   2.328   7.275   5.215
11065TIP3    H233073   2.350   7.418   5.171
11066TIP3   OH233074   2.321   7.612   4.941
11066TIP3    H133075   2.263   7.665   4.882
11066TIP3    H233076   2.409   7.632   4.902
11067TIP3   OH233077   1.542   7.184   5.374
11067TIP3    H133078   1.476   7.114   5.387
11067TIP3    H233079   1.580   7.159   5.287
11068TIP3   OH233080   1.804   6.618   5.016
11068TIP3    H133081   1.753   6.700   4.999
11068TIP3    H233082   1.734   6.550   5.006
11069TIP3   OH233083   1.928   7.126   5.234
11069TIP3    H133084   1.920   7.113   5.330
11069TIP3    H233085   1.838   7.100   5.206
11070TIP3   OH233086   2.168   7.075   5.089
11070TIP3    H133087   2.093   7.075   5.151
11070TIP3    H233088   2.242   7.044   5.145
11071TIP3   OH233089   2.395   7.014   5.240
11071TIP3    H133090   2.409   6.918   5.258
11071TIP3    H233091   2.393   7.052   5.330
11072TIP3   OH233092   1.386   6.963   5.426
11072TIP3    H133093   1.391   6.872   5.391
11072TIP3    H233094   1.422   6.949   5.516
11073TIP3   OH233095   1.897   6.631   5.274
11073TIP3    H133096   1.966   6.561   5.271
11073TIP3    H233097   1.859   6.621   5.185
11074TIP3   OH233098   1.963   6.845   5.434
11074TIP3    H133099   1.941   6.773   5.370
11074TIP3    H233100   1.885   6.903   5.426
11075TIP3   OH233101   1.183   8.073   3.534
11075TIP3    H133102   1.279   8.069   3.515
11075TIP3    H233103   1.153   8.121   3.455
11076TIP3   OH233104   0.663   7.455   3.752
11076TIP3    H133105   0.757   7.478   3.737
11076TIP3    H233106   0.659   7.366   3.711
11077TIP3   OH233107   0.584   8.064   4.156
11077TIP3    H133108   0.513   8.005   4.122
11077TIP3    H233109   0.622   8.009   4.228
11078TIP3   OH233110   0.706   7.921   4.353
11078TIP3    H133111   0.703   7.846   4.414
11078TIP3    H233112   0.772   7.978   4.397
11079TIP3   OH233113   2.439   8.323   4.150
11079TIP3    H133114   2.471   8.351   4.238
11079TIP3    H233115   2.505   8.361   4.090
11080TIP3   OH233116   2.473   8.341   4.434
11080TIP3    H133117   2.427   8.254   4.428
11080TIP3    H233118   2.546   8.315   4.493
11081TIP3   OH233119   2.515   8.017   5.004
11081TIP3    H133120   2.444   8.027   5.070
11081TIP3    H233121   2.560   8.104   5.011
11082TIP3   OH233122   2.332   7.529   3.626
11082TIP3    H133123   2.400   7.592   3.597
11082TIP3    H233124   2.376   7.490   3.705
11083TIP3   OH233125   2.462   7.397   3.829
11083TIP3    H133126   2.394   7.354   3.886
11083TIP3    H233127   2.523   7.436   3.894
11084TIP3   OH233128   2.514   7.788   4.262
11084TIP3    H133129   2.567   7.723   4.211
11084TIP3    H233130   2.505   7.862   4.198
11085TIP3   OH233131   2.347   8.091   4.455
11085TIP3    H133132   2.275   8.129   4.509
11085TIP3    H233133   2.297   8.042   4.387
11086TIP3   OH233134   2.399   7.304   3.476
11086TIP3    H133135   2.328   7.307   3.408
11086TIP3    H233136   2.370   7.380   3.531
11087TIP3   OH233137   2.275   6.978   3.427
11087TIP3    H133138   2.232   7.028   3.357
11087TIP3    H233139   2.241   6.887   3.410
11088TIP3   OH233140   2.276   7.254   3.975
11088TIP3    H133141   2.282   7.157   3.966
11088TIP3    H233142   2.261   7.265   4.072
11089TIP3   OH233143   0.900   7.335   4.721
11089TIP3    H133144   0.897   7.301   4.629
11089TIP3    H233145   0.997   7.333   4.738
11090TIP3   OH233146   2.563   7.678   4.832
11090TIP3    H133147   2.636   7.612   4.824
11090TIP3    H233148   2.592   7.749   4.773
11091TIP3   OH233149   2.748   7.483   4.849
11091TIP3    H133150   2.674   7.432   4.890
11091TIP3    H233151   2.822   7.421   4.864
11092TIP3   OH233152   2.206   6.719   3.414
11092TIP3    H133153   2.279   6.686   3.469
11092TIP3    H233154   2.128   6.665   3.440
11093TIP3   OH233155   2.276   6.978   3.871
11093TIP3    H133156   2.310   6.887   3.889
11093TIP3    H233157   2.333   7.004   3.797
11094TIP3   OH233158   2.433   7.144   4.366
11094TIP3    H133159   2.519   7.170   4.326
11094TIP3    H233160   2.447   7.180   4.456
11095TIP3   OH233161   2.500   7.287   4.598
11095TIP3    H133162   2.423   7.322   4.646
11095TIP3    H233163   2.534   7.367   4.553
11096TIP3   OH233164   1.120   7.016   5.403
11096TIP3    H133165   1.217   7.008   5.400
11096TIP3    H233166   1.096   6.929   5.440
11097TIP3   OH233167   2.952   6.877   5.154
11097TIP3    H133168   3.011   6.811   5.112
11097TIP3    H233169   2.926   6.932   5.078
11098TIP3   OH233170   2.384   6.717   3.900
11098TIP3    H133171   2.427   6.704   3.988
11098TIP3    H233172   2.323   6.640   3.898
11099TIP3   OH233173   1.076   6.700   4.732
11099TIP3    H133174   1.139   6.626   4.739
11099TIP3    H233175   1.136   6.776   4.728
11100TIP3   OH233176   0.885   6.977   4.804
11100TIP3    H133177   0.929   6.974   4.716
11100TIP3    H233178   0.914   7.063   4.837
11101TIP3   OH233179   2.825   7.019   4.959
11101TIP3    H133180   2.737   7.057   4.980
11101TIP3    H233181   2.797   6.945   4.901
11102TIP3   OH233182   2.448   6.610   3.524
11102TIP3    H133183   2.526   6.587   3.471
11102TIP3    H233184   2.480   6.698   3.553
11103TIP3   OH233185   0.865   6.483   4.303
11103TIP3    H133186   0.772   6.480   4.329
11103TIP3    H233187   0.863   6.541   4.224
11104TIP3   OH233188   2.026   8.186   3.809
11104TIP3    H133189   2.074   8.168   3.725
11104TIP3    H233190   2.083   8.252   3.850
11105TIP3   OH233191   1.086   6.566   5.118
11105TIP3    H133192   1.034   6.555   5.199
11105TIP3    H233193   1.019   6.601   5.057
11106TIP3   OH233194   1.133   7.990   5.194
11106TIP3    H133195   1.041   7.961   5.175
11106TIP3    H233196   1.140   7.973   5.289
11107TIP3   OH233197   1.302   8.021   4.740
11107TIP3    H133198   1.256   8.099   4.701
11107TIP3    H233199   1.389   8.034   4.697
11108TIP3   OH233200   1.750   8.267   4.879
11108TIP3    H133201   1.792   8.268   4.968
11108TIP3    H233202   1.816   8.317   4.827
11109TIP3   OH233203   1.928   8.418   4.737
11109TIP3    H133204   1.999   8.366   4.695
11109TIP3    H233205   1.981   8.474   4.798
11110TIP3   OH233206   2.723   6.780   4.837
11110TIP3    H133207   2.631   6.772   4.805
11110TIP3    H233208   2.755   6.687   4.827
11111TIP3   OH233209   0.977   8.271   4.765
11111TIP3    H133210   0.892   8.305   4.731
11111TIP3    H233211   0.982   8.321   4.847
11112TIP3   OH233212   1.217   8.257   4.622
11112TIP3    H133213   1.130   8.270   4.667
11112TIP3    H233214   1.198   8.291   4.532
11113TIP3   OH233215   1.642   8.287   4.420
11113TIP3    H133216   1.574   8.306   4.353
11113TIP3    H233217   1.654   8.375   4.461
11114TIP3   OH233218   1.911   8.228   4.472
11114TIP3    H133219   1.816   8.242   4.452
11114TIP3    H233220   1.952   8.303   4.427
11115TIP3   OH233221   2.124   8.422   4.387
11115TIP3    H133222   2.106   8.504   4.336
11115TIP3    H233223   2.146   8.359   4.315
11116TIP3   OH233224   0.896   8.061   4.494
11116TIP3    H133225   0.921   8.055   4.588
11116TIP3    H233226   0.974   8.018   4.452
11117TIP3   OH233227   1.095   7.935   4.357
11117TIP3    H133228   1.112   7.853   4.407
11117TIP3    H233229   1.185   7.975   4.353
11118TIP3   OH233230   1.355   8.040   4.368
11118TIP3    H133231   1.388   7.950   4.354
11118TIP3    H233232   1.397   8.061   4.453
11119TIP3   OH233233   1.911   6.680   4.441
11119TIP3    H133234   1.882   6.610   4.502
11119TIP3    H233235   1.998   6.647   4.412
11120TIP3   OH233236   2.449   6.571   4.357
11120TIP3    H133237   2.487   6.626   4.285
11120TIP3    H233238   2.355   6.597   4.356
11121TIP3   OH233239   2.544   6.678   4.124
11121TIP3    H133240   2.619   6.626   4.087
11121TIP3    H233241   2.578   6.769   4.109
11122TIP3   OH233242   1.177   6.405   4.477
11122TIP3    H133243   1.085   6.373   4.476
11122TIP3    H233244   1.225   6.320   4.471
11123TIP3   OH233245   0.957   6.274   4.117
11123TIP3    H133246   0.991   6.332   4.047
11123TIP3    H233247   0.932   6.338   4.187
11124TIP3   OH233248   1.622   6.450   4.356
11124TIP3    H133249   1.684   6.493   4.295
11124TIP3    H233250   1.663   6.467   4.442
11125TIP3   OH233251   2.163   6.586   4.344
11125TIP3    H133252   2.164   6.552   4.253
11125TIP3    H233253   2.151   6.502   4.395
11126TIP3   OH233254   2.203   6.498   3.883
11126TIP3    H133255   2.119   6.546   3.897
11126TIP3    H233256   2.185   6.417   3.934
11127TIP3   OH233257   0.680   7.842   3.903
11127TIP3    H133258   0.594   7.812   3.870
11127TIP3    H233259   0.671   7.938   3.886
11128TIP3   OH233260   1.079   6.433   3.884
11128TIP3    H133261   1.129   6.372   3.827
11128TIP3    H233262   1.151   6.488   3.921
11129TIP3   OH233263   1.595   6.616   3.986
11129TIP3    H133264   1.653   6.566   4.045
11129TIP3    H233265   1.617   6.707   4.015
11130TIP3   OH233266   1.452   8.035   3.483
11130TIP3    H133267   1.540   8.057   3.446
11130TIP3    H233268   1.430   7.960   3.424
11131TIP3   OH233269   2.170   8.152   3.576
11131TIP3    H133270   2.163   8.054   3.564
11131TIP3    H233271   2.126   8.183   3.495
11132TIP3   OH233272   1.384   6.687   5.365
11132TIP3    H133273   1.350   6.615   5.421
11132TIP3    H233274   1.479   6.686   5.391
11133TIP3   OH233275   1.633   6.683   5.483
11133TIP3    H133276   1.718   6.657   5.444
11133TIP3    H233277   1.621   6.613   5.551
11134TIP3   OH233278   0.755   7.868   3.540
11134TIP3    H133279   0.762   7.898   3.632
11134TIP3    H233280   0.843   7.827   3.526
11135TIP3   OH233281   2.458   6.744   5.271
11135TIP3    H133282   2.477   6.711   5.362
11135TIP3    H233283   2.546   6.738   5.229
11136TIP3   OH233284   2.396   8.298   4.763
11136TIP3    H133285   2.318   8.264   4.715
11136TIP3    H233286   2.374   8.393   4.768
11137TIP3   OH233287   3.664   7.671   3.542
11137TIP3    H133288   3.633   7.759   3.510
11137TIP3    H233289   3.595   7.615   3.500
11138TIP3   OH233290   2.963   7.563   4.272
11138TIP3    H133291   2.993   7.495   4.336
11138TIP3    H233292   3.037   7.625   4.277
11139TIP3   OH233293   3.912   7.972   3.585
11139TIP3    H133294   3.870   7.915   3.650
11139TIP3    H233295   3.937   8.051   3.637
11140TIP3   OH233296   2.930   7.974   4.002
11140TIP3    H133297   2.923   7.876   4.004
11140TIP3    H233298   3.027   7.984   3.997
11141TIP3   OH233299   2.640   7.178   3.787
11141TIP3    H133300   2.591   7.261   3.800
11141TIP3    H233301   2.569   7.122   3.750
11142TIP3   OH233302   2.701   7.466   3.958
11142TIP3    H133303   2.749   7.387   3.994
11142TIP3    H233304   2.755   7.487   3.881
11143TIP3   OH233305   3.554   8.434   3.607
11143TIP3    H133306   3.601   8.362   3.559
11143TIP3    H233307   3.545   8.397   3.696
11144TIP3   OH233308   3.455   7.898   3.959
11144TIP3    H133309   3.478   7.837   3.888
11144TIP3    H233310   3.544   7.932   3.985
11145TIP3   OH233311   4.469   7.216   3.953
11145TIP3    H133312   4.501   7.298   3.997
11145TIP3    H233313   4.499   7.231   3.862
11146TIP3   OH233314   3.211   7.055   3.955
11146TIP3    H133315   3.188   7.126   3.892
11146TIP3    H233316   3.164   6.979   3.914
11147TIP3   OH233317   3.900   7.146   3.577
11147TIP3    H133318   3.970   7.133   3.645
11147TIP3    H233319   3.953   7.184   3.505
11148TIP3   OH233320   2.845   7.257   4.063
11148TIP3    H133321   2.927   7.236   4.111
11148TIP3    H233322   2.857   7.201   3.984
11149TIP3   OH233323   3.279   7.454   3.851
11149TIP3    H133324   3.369   7.421   3.856
11149TIP3    H233325   3.231   7.374   3.821
11150TIP3   OH233326   4.548   7.422   4.124
11150TIP3    H133327   4.463   7.467   4.107
11150TIP3    H233328   4.560   7.442   4.218
11151TIP3   OH233329   3.209   7.039   4.390
11151TIP3    H133330   3.146   7.074   4.324
11151TIP3    H233331   3.157   7.054   4.472
11152TIP3   OH233332   3.554   7.885   3.405
11152TIP3    H133333   3.516   7.865   3.318
11152TIP3    H233334   3.512   7.971   3.424
11153TIP3   OH233335   3.313   7.814   4.188
11153TIP3    H133336   3.249   7.877   4.228
11153TIP3    H233337   3.353   7.868   4.118
11154TIP3   OH233338   4.111   7.152   3.749
11154TIP3    H133339   4.113   7.092   3.824
11154TIP3    H233340   4.173   7.222   3.775
11155TIP3   OH233341   3.077   7.153   4.175
11155TIP3    H133342   3.140   7.224   4.199
11155TIP3    H233343   3.127   7.111   4.100
11156TIP3   OH233344   3.140   8.005   4.282
11156TIP3    H133345   3.114   8.092   4.245
11156TIP3    H233346   3.062   7.990   4.341
11157TIP3   OH233347   2.537   7.696   3.519
11157TIP3    H133348   2.495   7.719   3.434
11157TIP3    H233349   2.566   7.782   3.554
11158TIP3   OH233350   3.974   8.208   3.759
11158TIP3    H133351   3.884   8.205   3.799
11158TIP3    H233352   3.971   8.294   3.712
11159TIP3   OH233353   4.265   7.118   4.123
11159TIP3    H133354   4.177   7.143   4.089
11159TIP3    H233355   4.325   7.147   4.051
11160TIP3   OH233356   3.563   6.757   4.102
11160TIP3    H133357   3.554   6.662   4.122
11160TIP3    H233358   3.485   6.793   4.151
11161TIP3   OH233359   3.681   8.260   3.438
11161TIP3    H133360   3.728   8.178   3.412
11161TIP3    H233361   3.741   8.326   3.395
11162TIP3   OH233362   3.816   8.046   3.337
11162TIP3    H133363   3.793   7.966   3.287
11162TIP3    H233364   3.857   8.008   3.417
11163TIP3   OH233365   4.201   8.130   4.106
11163TIP3    H133366   4.201   8.052   4.045
11163TIP3    H233367   4.187   8.204   4.044
11164TIP3   OH233368   3.501   7.529   3.362
11164TIP3    H133369   3.418   7.575   3.339
11164TIP3    H233370   3.542   7.517   3.274
11165TIP3   OH233371   3.453   7.302   3.080
11165TIP3    H133372   3.523   7.354   3.123
11165TIP3    H233373   3.507   7.238   3.031
11166TIP3   OH233374   4.400   7.759   3.947
11166TIP3    H133375   4.318   7.813   3.952
11166TIP3    H233376   4.431   7.783   3.857
11167TIP3   OH233377   3.839   7.604   3.333
11167TIP3    H133378   3.786   7.629   3.411
11167TIP3    H233379   3.922   7.573   3.375
11168TIP3   OH233380   4.082   7.645   4.248
11168TIP3    H133381   4.080   7.726   4.302
11168TIP3    H233382   3.995   7.649   4.204
11169TIP3   OH233383   3.070   7.602   3.747
11169TIP3    H133384   3.026   7.545   3.680
11169TIP3    H233385   3.146   7.548   3.773
11170TIP3   OH233386   3.200   8.015   3.896
11170TIP3    H133387   3.179   7.971   3.812
11170TIP3    H233388   3.289   7.980   3.916
11171TIP3   OH233389   3.219   7.568   4.105
11171TIP3    H133390   3.239   7.556   4.010
11171TIP3    H233391   3.252   7.658   4.124
11172TIP3   OH233392   3.735   8.206   3.884
11172TIP3    H133393   3.720   8.291   3.930
11172TIP3    H233394   3.717   8.139   3.952
11173TIP3   OH233395   3.347   8.128   4.424
11173TIP3    H133396   3.291   8.190   4.475
11173TIP3    H233397   3.279   8.076   4.378
11174TIP3   OH233398   3.681   7.460   3.156
11174TIP3    H133399   3.740   7.520   3.207
11174TIP3    H233400   3.707   7.483   3.064
11175TIP3   OH233401   3.100   7.687   4.524
11175TIP3    H133402   3.106   7.773   4.572
11175TIP3    H233403   3.006   7.666   4.539
11176TIP3   OH233404   3.426   8.140   3.438
11176TIP3    H133405   3.502   8.198   3.452
11176TIP3    H233406   3.363   8.198   3.392
11177TIP3   OH233407   3.141   8.295   4.514
11177TIP3    H133408   3.103   8.292   4.425
11177TIP3    H233409   3.064   8.275   4.572
11178TIP3   OH233410   4.199   6.702   3.206
11178TIP3    H133411   4.117   6.721   3.256
11178TIP3    H233412   4.210   6.785   3.155
11179TIP3   OH233413   2.937   7.444   3.558
11179TIP3    H133414   2.874   7.489   3.498
11179TIP3    H233415   2.898   7.356   3.564
11180TIP3   OH233416   3.996   8.069   2.756
11180TIP3    H133417   4.005   8.166   2.739
11180TIP3    H233418   4.089   8.039   2.742
11181TIP3   OH233419   2.721   7.827   4.460
11181TIP3    H133420   2.656   7.803   4.391
11181TIP3    H233421   2.758   7.740   4.486
11182TIP3   OH233422   2.575   8.020   4.093
11182TIP3    H133423   2.671   8.012   4.083
11182TIP3    H233424   2.567   8.098   4.149
11183TIP3   OH233425   4.439   8.470   4.147
11183TIP3    H133426   4.439   8.374   4.163
11183TIP3    H233427   4.356   8.496   4.194
11184TIP3   OH233428   3.545   8.258   4.282
11184TIP3    H133429   3.545   8.350   4.316
11184TIP3    H233430   3.474   8.218   4.337
11185TIP3   OH233431   3.306   8.386   3.235
11185TIP3    H133432   3.260   8.365   3.152
11185TIP3    H233433   3.273   8.475   3.257
11186TIP3   OH233434   2.743   8.237   3.619
11186TIP3    H133435   2.790   8.226   3.704
11186TIP3    H233436   2.688   8.157   3.619
11187TIP3   OH233437   3.508   8.288   2.876
11187TIP3    H133438   3.566   8.218   2.838
11187TIP3    H233439   3.542   8.295   2.967
11188TIP3   OH233440   3.558   8.336   3.146
11188TIP3    H133441   3.469   8.345   3.187
11188TIP3    H233442   3.607   8.291   3.217
11189TIP3   OH233443   4.331   7.602   4.424
11189TIP3    H133444   4.250   7.613   4.372
11189TIP3    H233445   4.348   7.506   4.414
11190TIP3   OH233446   2.926   8.010   4.450
11190TIP3    H133447   2.976   7.995   4.533
11190TIP3    H233448   2.852   7.946   4.459
11191TIP3   OH233449   3.325   6.836   4.231
11191TIP3    H133450   3.236   6.802   4.205
11191TIP3    H233451   3.297   6.915   4.281
11192TIP3   OH233452   3.858   6.952   4.426
11192TIP3    H133453   3.928   6.922   4.488
11192TIP3    H233454   3.776   6.929   4.473
11193TIP3   OH233455   4.096   7.378   4.345
11193TIP3    H133456   4.050   7.371   4.432
11193TIP3    H233457   4.077   7.470   4.318
11194TIP3   OH233458   3.760   7.511   2.904
11194TIP3    H133459   3.724   7.483   2.817
11194TIP3    H233460   3.842   7.556   2.875
11195TIP3   OH233461   3.471   6.883   3.204
11195TIP3    H133462   3.437   6.879   3.295
11195TIP3    H233463   3.433   6.800   3.169
11196TIP3   OH233464   3.259   7.345   4.254
11196TIP3    H133465   3.207   7.366   4.335
11196TIP3    H233466   3.243   7.427   4.201
11197TIP3   OH233467   3.140   7.237   3.766
11197TIP3    H133468   3.047   7.209   3.783
11197TIP3    H233469   3.153   7.196   3.677
11198TIP3   OH233470   3.624   7.317   3.491
11198TIP3    H133471   3.577   7.391   3.446
11198TIP3    H233472   3.685   7.287   3.422
11199TIP3   OH233473   3.806   7.599   4.577
11199TIP3    H133474   3.783   7.527   4.640
11199TIP3    H233475   3.899   7.615   4.603
11200TIP3   OH233476   3.076   7.377   4.460
11200TIP3    H133477   3.101   7.441   4.529
11200TIP3    H233478   3.064   7.295   4.512
11201TIP3   OH233479   3.127   6.856   3.170
11201TIP3    H133480   3.118   6.852   3.267
11201TIP3    H233481   3.047   6.906   3.146
11202TIP3   OH233482   2.672   6.899   4.038
11202TIP3    H133483   2.744   6.932   4.096
11202TIP3    H233484   2.719   6.867   3.960
11203TIP3   OH233485   2.637   6.881   3.564
11203TIP3    H133486   2.684   6.915   3.484
11203TIP3    H233487   2.579   6.957   3.581
11204TIP3   OH233488   3.821   7.577   4.148
11204TIP3    H133489   3.824   7.481   4.154
11204TIP3    H233490   3.778   7.594   4.234
11205TIP3   OH233491   3.475   7.094   3.843
11205TIP3    H133492   3.390   7.066   3.883
11205TIP3    H233493   3.540   7.043   3.896
11206TIP3   OH233494   2.903   7.113   3.835
11206TIP3    H133495   2.809   7.120   3.808
11206TIP3    H233496   2.927   7.022   3.811
11207TIP3   OH233497   3.171   7.113   3.524
11207TIP3    H133498   3.266   7.122   3.501
11207TIP3    H233499   3.125   7.133   3.439
11208TIP3   OH233500   3.960   7.141   4.025
11208TIP3    H133501   3.925   7.153   4.116
11208TIP3    H233502   3.904   7.070   3.992
11209TIP3   OH233503   3.012   7.143   3.303
11209TIP3    H133504   2.941   7.098   3.254
11209TIP3    H233505   3.065   7.179   3.228
11210TIP3   OH233506   4.129   8.822   4.247
11210TIP3    H133507   4.129   8.842   4.152
11210TIP3    H233508   4.210   8.867   4.277
11211TIP3   OH233509   3.086   7.930   4.668
11211TIP3    H133510   3.168   7.956   4.716
11211TIP3    H233511   3.022   7.932   4.743
11212TIP3   OH233512   3.639   7.358   3.925
11212TIP3    H133513   3.583   7.288   3.883
11212TIP3    H233514   3.603   7.349   4.019
11213TIP3   OH233515   3.076   6.873   3.802
11213TIP3    H133516   3.043   6.793   3.848
11213TIP3    H233517   3.127   6.835   3.730
11214TIP3   OH233518   3.531   7.305   4.191
11214TIP3    H133519   3.439   7.320   4.221
11214TIP3    H233520   3.584   7.344   4.264
11215TIP3   OH233521   3.264   7.674   3.311
11215TIP3    H133522   3.193   7.607   3.299
11215TIP3    H233523   3.246   7.706   3.403
11216TIP3   OH233524   4.173   7.915   3.937
11216TIP3    H133525   4.208   7.963   3.858
11216TIP3    H233526   4.079   7.909   3.918
11217TIP3   OH233527   3.723   6.984   3.175
11217TIP3    H133528   3.627   6.967   3.179
11217TIP3    H233529   3.730   7.080   3.195
11218TIP3   OH233530   3.664   7.993   4.306
11218TIP3    H133531   3.683   7.967   4.397
11218TIP3    H233532   3.623   8.081   4.318
11219TIP3   OH233533   3.793   7.234   3.277
11219TIP3    H133534   3.890   7.238   3.288
11219TIP3    H233535   3.775   7.311   3.219
11220TIP3   OH233536   2.961   7.699   3.988
11220TIP3    H133537   2.994   7.666   3.902
11220TIP3    H233538   2.988   7.629   4.049
11221TIP3   OH233539   3.412   7.823   3.134
11221TIP3    H133540   3.364   7.909   3.139
11221TIP3    H233541   3.356   7.768   3.192
11222TIP3   OH233542   2.838   7.615   4.598
11222TIP3    H133543   2.860   7.602   4.692
11222TIP3    H233544   2.768   7.548   4.585
11223TIP3   OH233545   3.562   7.729   4.618
11223TIP3    H133546   3.503   7.667   4.573
11223TIP3    H233547   3.650   7.695   4.590
11224TIP3   OH233548   3.823   8.246   4.202
11224TIP3    H133549   3.727   8.249   4.217
11224TIP3    H233550   3.854   8.298   4.279
11225TIP3   OH233551   4.234   7.322   3.112
11225TIP3    H133552   4.172   7.277   3.050
11225TIP3    H233553   4.232   7.410   3.068
11226TIP3   OH233554   4.453   8.179   4.193
11226TIP3    H133555   4.355   8.175   4.186
11226TIP3    H233556   4.478   8.150   4.103
11227TIP3   OH233557   3.935   8.140   3.019
11227TIP3    H133558   3.909   8.067   3.076
11227TIP3    H233559   3.948   8.098   2.933
11228TIP3   OH233560   3.057   7.997   3.610
11228TIP3    H133561   3.058   8.079   3.556
11228TIP3    H233562   2.963   7.980   3.618
11229TIP3   OH233563   2.622   7.302   3.313
11229TIP3    H133564   2.667   7.387   3.333
11229TIP3    H233565   2.544   7.308   3.373
11230TIP3   OH233566   3.202   7.765   3.560
11230TIP3    H133567   3.164   7.855   3.574
11230TIP3    H233568   3.157   7.715   3.631
11231TIP3   OH233569   3.326   8.342   4.079
11231TIP3    H133570   3.368   8.415   4.030
11231TIP3    H233571   3.402   8.309   4.132
11232TIP3   OH233572   2.978   8.237   3.464
11232TIP3    H133573   2.891   8.245   3.509
11232TIP3    H233574   3.009   8.330   3.465
11233TIP3   OH233575   3.716   7.963   4.043
11233TIP3    H133576   3.693   7.976   4.138
11233TIP3    H233577   3.809   7.940   4.053
11234TIP3   OH233578   3.689   7.870   2.921
11234TIP3    H133579   3.740   7.846   3.001
11234TIP3    H233580   3.600   7.841   2.946
11235TIP3   OH233581   3.963   8.510   4.087
11235TIP3    H133582   3.884   8.455   4.079
11235TIP3    H233583   3.948   8.575   4.015
11236TIP3   OH233584   4.030   8.344   2.741
11236TIP3    H133585   4.068   8.415   2.686
11236TIP3    H233586   3.949   8.391   2.773
11237TIP3   OH233587   3.050   7.120   4.606
11237TIP3    H133588   2.954   7.124   4.621
11237TIP3    H233589   3.078   7.061   4.678
11238TIP3   OH233590   3.849   7.811   3.143
11238TIP3    H133591   3.839   7.738   3.208
11238TIP3    H233592   3.946   7.804   3.125
11239TIP3   OH233593   2.766   8.206   4.240
11239TIP3    H133594   2.816   8.128   4.267
11239TIP3    H233595   2.796   8.270   4.306
11240TIP3   OH233596   3.057   7.850   2.920
11240TIP3    H133597   3.068   7.759   2.888
11240TIP3    H233598   3.036   7.836   3.015
11241TIP3   OH233599   3.001   7.855   3.194
11241TIP3    H133600   3.074   7.828   3.251
11241TIP3    H233601   3.006   7.953   3.199
11242TIP3   OH233602   2.739   7.549   3.396
11242TIP3    H133603   2.671   7.593   3.452
11242TIP3    H233604   2.751   7.618   3.327
11243TIP3   OH233605   3.881   7.189   4.287
11243TIP3    H133606   3.964   7.223   4.324
11243TIP3    H233607   3.867   7.107   4.339
11244TIP3   OH233608   3.760   6.938   3.453
11244TIP3    H133609   3.750   6.959   3.358
11244TIP3    H233610   3.802   7.020   3.488
11245TIP3   OH233611   3.269   8.053   3.145
11245TIP3    H133612   3.181   8.081   3.177
11245TIP3    H233613   3.282   8.117   3.073
11246TIP3   OH233614   3.454   7.114   3.558
11246TIP3    H133615   3.519   7.183   3.533
11246TIP3    H233616   3.463   7.113   3.655
11247TIP3   OH233617   3.727   7.435   4.363
11247TIP3    H133618   3.744   7.488   4.443
11247TIP3    H233619   3.780   7.355   4.380
11248TIP3   OH233620   3.600   6.846   3.658
11248TIP3    H133621   3.612   6.920   3.720
11248TIP3    H233622   3.658   6.877   3.584
11249TIP3   OH233623   3.011   8.128   3.208
11249TIP3    H133624   2.980   8.196   3.145
11249TIP3    H233625   2.994   8.172   3.294
11250TIP3   OH233626   3.109   6.840   3.447
11250TIP3    H133627   3.109   6.931   3.483
11250TIP3    H233628   3.204   6.820   3.454
11251TIP3   OH233629   4.364   7.336   4.340
11251TIP3    H133630   4.267   7.334   4.348
11251TIP3    H233631   4.375   7.286   4.258
11252TIP3   OH233632   2.728   7.758   3.202
11252TIP3    H133633   2.794   7.830   3.209
11252TIP3    H233634   2.773   7.703   3.134
11253TIP3   OH233635   2.672   7.032   3.339
11253TIP3    H133636   2.673   7.130   3.332
11253TIP3    H233637   2.593   7.010   3.287
11254TIP3   OH233638   3.985   8.481   3.681
11254TIP3    H133639   3.941   8.529   3.607
11254TIP3    H233640   4.078   8.503   3.661
11255TIP3   OH233641   3.060   6.754   4.209
11255TIP3    H133642   3.030   6.719   4.123
11255TIP3    H233643   3.051   6.676   4.267
11256TIP3   OH233644   2.603   7.977   3.591
11256TIP3    H133645   2.527   8.003   3.644
11256TIP3    H233646   2.578   8.013   3.503
11257TIP3   OH233647   2.757   8.514   4.663
11257TIP3    H133648   2.842   8.511   4.711
11257TIP3    H233649   2.736   8.419   4.661
11258TIP3   OH233650   3.239   8.490   4.690
11258TIP3    H133651   3.326   8.459   4.717
11258TIP3    H233652   3.215   8.423   4.623
11259TIP3   OH233653   3.221   8.054   2.836
11259TIP3    H133654   3.164   7.981   2.871
11259TIP3    H233655   3.295   8.002   2.798
11260TIP3   OH233656   3.883   8.380   4.433
11260TIP3    H133657   3.869   8.313   4.505
11260TIP3    H233658   3.956   8.434   4.468
11261TIP3   OH233659   3.656   8.096   2.745
11261TIP3    H133660   3.701   8.031   2.801
11261TIP3    H233661   3.710   8.095   2.663
11262TIP3   OH233662   2.888   7.908   4.858
11262TIP3    H133663   2.902   7.812   4.859
11262TIP3    H233664   2.799   7.915   4.818
11263TIP3   OH233665   2.863   7.572   3.053
11263TIP3    H133666   2.919   7.537   3.124
11263TIP3    H233667   2.929   7.576   2.980
11264TIP3   OH233668   3.507   8.008   4.627
11264TIP3    H133669   3.453   8.019   4.546
11264TIP3    H233670   3.530   7.913   4.625
11265TIP3   OH233671   3.374   7.770   2.862
11265TIP3    H133672   3.375   7.781   2.959
11265TIP3    H233673   3.374   7.672   2.855
11266TIP3   OH233674   3.982   8.005   4.224
11266TIP3    H133675   4.059   8.056   4.193
11266TIP3    H233676   3.915   8.076   4.229
11267TIP3   OH233677   3.006   7.646   4.841
11267TIP3    H133678   3.085   7.594   4.824
11267TIP3    H233679   3.028   7.685   4.928
11268TIP3   OH233680   3.076   7.473   3.279
11268TIP3    H133681   3.045   7.427   3.358
11268TIP3    H233682   3.110   7.399   3.224
11269TIP3   OH233683   3.340   7.538   4.504
11269TIP3    H133684   3.263   7.598   4.510
11269TIP3    H233685   3.388   7.573   4.426
11270TIP3   OH233686   3.171   7.268   3.117
11270TIP3    H133687   3.145   7.269   3.023
11270TIP3    H233688   3.269   7.272   3.109
11271TIP3   OH233689   3.857   7.938   4.635
11271TIP3    H133690   3.945   7.920   4.600
11271TIP3    H233691   3.852   7.874   4.709
11272TIP3   OH233692   3.995   7.599   2.780
11272TIP3    H133693   3.975   7.552   2.696
11272TIP3    H233694   3.963   7.689   2.754
11273TIP3   OH233695   3.464   7.326   4.631
11273TIP3    H133696   3.463   7.246   4.575
11273TIP3    H233697   3.419   7.392   4.574
11274TIP3   OH233698   3.466   7.116   4.434
11274TIP3    H133699   3.491   7.145   4.345
11274TIP3    H233700   3.372   7.091   4.420
11275TIP3   OH233701   3.494   7.650   4.309
11275TIP3    H133702   3.567   7.655   4.247
11275TIP3    H233703   3.432   7.717   4.271
11276TIP3   OH233704   4.076   7.615   4.691
11276TIP3    H133705   4.123   7.531   4.707
11276TIP3    H233706   4.148   7.672   4.662
11277TIP3   OH233707   4.117   7.868   4.420
11277TIP3    H133708   4.058   7.922   4.362
11277TIP3    H233709   4.205   7.890   4.382
11278TIP3   OH233710   3.339   7.440   4.859
11278TIP3    H133711   3.272   7.371   4.874
11278TIP3    H233712   3.376   7.412   4.773
11279TIP3   OH233713   3.599   6.878   4.502
11279TIP3    H133714   3.547   6.959   4.482
11279TIP3    H233715   3.530   6.808   4.493
11280TIP3   OH233716   3.724   7.383   4.720
11280TIP3    H133717   3.716   7.370   4.816
11280TIP3    H233718   3.634   7.357   4.693
11281TIP3   OH233719   3.964   7.329   4.575
11281TIP3    H133720   3.889   7.331   4.638
11281TIP3    H233721   4.038   7.298   4.632
11282TIP3   OH233722   4.193   7.270   4.725
11282TIP3    H133723   4.206   7.175   4.744
11282TIP3    H233724   4.189   7.309   4.815
11283TIP3   OH233725   3.181   7.219   4.913
11283TIP3    H133726   3.187   7.128   4.879
11283TIP3    H233727   3.217   7.208   5.003
11284TIP3   OH233728   3.694   6.888   4.760
11284TIP3    H133729   3.761   6.817   4.757
11284TIP3    H233730   3.654   6.879   4.671
11285TIP3   OH233731   3.760   7.102   4.920
11285TIP3    H133732   3.738   7.030   4.856
11285TIP3    H233733   3.681   7.160   4.914
11286TIP3   OH233734   2.980   8.333   3.023
11286TIP3    H133735   3.075   8.328   3.002
11286TIP3    H233736   2.947   8.377   2.943
11287TIP3   OH233737   2.460   7.709   3.242
11287TIP3    H133738   2.555   7.732   3.224
11287TIP3    H233739   2.453   7.623   3.197
11288TIP3   OH233740   2.372   8.326   3.651
11288TIP3    H133741   2.306   8.263   3.614
11288TIP3    H233742   2.417   8.269   3.716
11289TIP3   OH233743   2.508   8.179   3.838
11289TIP3    H133744   2.498   8.102   3.896
11289TIP3    H233745   2.561   8.238   3.896
11290TIP3   OH233746   4.235   8.578   3.638
11290TIP3    H133747   4.267   8.611   3.723
11290TIP3    H233748   4.298   8.617   3.576
11291TIP3   OH233749   4.267   8.598   3.921
11291TIP3    H133750   4.224   8.510   3.914
11291TIP3    H233751   4.343   8.575   3.976
11292TIP3   OH233752   4.311   8.273   4.491
11292TIP3    H133753   4.239   8.281   4.557
11292TIP3    H233754   4.353   8.361   4.496
11293TIP3   OH233755   4.127   7.788   3.113
11293TIP3    H133756   4.195   7.851   3.082
11293TIP3    H233757   4.172   7.748   3.190
11294TIP3   OH233758   4.255   7.654   3.315
11294TIP3    H133759   4.191   7.612   3.375
11294TIP3    H233760   4.323   7.690   3.377
11295TIP3   OH233761   4.307   8.043   3.743
11295TIP3    H133762   4.364   7.980   3.695
11295TIP3    H233763   4.306   8.121   3.683
11296TIP3   OH233764   4.142   8.346   3.944
11296TIP3    H133765   4.072   8.390   3.995
11296TIP3    H233766   4.091   8.300   3.874
11297TIP3   OH233767   4.195   7.562   2.964
11297TIP3    H133768   4.124   7.562   2.895
11297TIP3    H233769   4.166   7.639   3.017
11298TIP3   OH233770   4.064   7.236   2.920
11298TIP3    H133771   4.026   7.271   2.838
11298TIP3    H233772   4.039   7.141   2.912
11299TIP3   OH233773   4.067   7.501   3.468
11299TIP3    H133774   4.074   7.408   3.439
11299TIP3    H233775   4.100   7.496   3.559
11300TIP3   OH233776   2.697   7.583   4.209
11300TIP3    H133777   2.695   7.553   4.116
11300TIP3    H233778   2.795   7.584   4.226
11301TIP3   OH233779   4.360   7.935   4.317
11301TIP3    H133780   4.432   7.868   4.310
11301TIP3    H233781   4.393   8.006   4.259
11302TIP3   OH233782   4.545   7.741   4.338
11302TIP3    H133783   4.471   7.689   4.377
11302TIP3    H233784   4.619   7.678   4.352
11303TIP3   OH233785   4.008   6.971   2.909
11303TIP3    H133786   4.084   6.936   2.959
11303TIP3    H233787   3.936   6.908   2.927
11304TIP3   OH233788   4.072   7.231   3.357
11304TIP3    H133789   4.107   7.141   3.377
11304TIP3    H233790   4.129   7.254   3.282
11305TIP3   OH233791   4.218   7.416   3.846
11305TIP3    H133792   4.305   7.437   3.805
11305TIP3    H233793   4.237   7.444   3.937
11306TIP3   OH233794   4.297   7.543   4.085
11306TIP3    H133795   4.223   7.581   4.137
11306TIP3    H233796   4.333   7.622   4.040
11307TIP3   OH233797   2.914   7.271   4.883
11307TIP3    H133798   3.012   7.264   4.886
11307TIP3    H233799   2.890   7.185   4.925
11308TIP3   OH233800   4.749   7.134   4.641
11308TIP3    H133801   4.808   7.068   4.599
11308TIP3    H233802   4.723   7.189   4.564
11309TIP3   OH233803   4.173   6.977   3.397
11309TIP3    H133804   4.223   6.959   3.479
11309TIP3    H233805   4.114   6.899   3.394
11310TIP3   OH233806   2.875   6.962   4.215
11310TIP3    H133807   2.936   6.886   4.225
11310TIP3    H233808   2.938   7.036   4.209
11311TIP3   OH233809   2.679   7.236   4.288
11311TIP3    H133810   2.728   7.230   4.203
11311TIP3    H233811   2.708   7.322   4.320
11312TIP3   OH233812   4.621   7.276   4.445
11312TIP3    H133813   4.534   7.313   4.468
11312TIP3    H233814   4.593   7.202   4.388
11313TIP3   OH233815   4.258   6.910   3.028
11313TIP3    H133816   4.296   6.837   2.974
11313TIP3    H233817   4.326   6.980   3.018
11314TIP3   OH233818   2.659   6.730   3.783
11314TIP3    H133819   2.570   6.738   3.820
11314TIP3    H233820   2.658   6.795   3.709
11315TIP3   OH233821   3.822   8.442   3.296
11315TIP3    H133822   3.869   8.425   3.212
11315TIP3    H233823   3.878   8.510   3.336
11316TIP3   OH233824   2.883   6.823   4.604
11316TIP3    H133825   2.832   6.813   4.687
11316TIP3    H233826   2.814   6.857   4.544
11317TIP3   OH233827   2.921   8.249   4.688
11317TIP3    H133828   2.831   8.217   4.672
11317TIP3    H233829   2.932   8.228   4.783
11318TIP3   OH233830   3.098   8.275   4.226
11318TIP3    H133831   3.051   8.352   4.188
11318TIP3    H233832   3.185   8.290   4.183
11319TIP3   OH233833   3.546   8.523   4.365
11319TIP3    H133834   3.586   8.523   4.455
11319TIP3    H233835   3.613   8.575   4.315
11320TIP3   OH233836   3.726   8.675   4.223
11320TIP3    H133837   3.798   8.623   4.185
11320TIP3    H233838   3.776   8.732   4.285
11321TIP3   OH233839   4.518   7.036   4.325
11321TIP3    H133840   4.427   7.025   4.293
11321TIP3    H233841   4.552   6.944   4.314
11322TIP3   OH233842   2.777   8.539   4.248
11322TIP3    H133843   2.688   8.576   4.227
11322TIP3    H233844   2.784   8.561   4.341
11323TIP3   OH233845   3.014   8.515   4.108
11323TIP3    H133846   2.928   8.528   4.153
11323TIP3    H233847   2.994   8.547   4.018
11324TIP3   OH233848   3.440   8.544   3.906
11324TIP3    H133849   3.370   8.563   3.841
11324TIP3    H233850   3.451   8.632   3.949
11325TIP3   OH233851   3.707   8.480   3.954
11325TIP3    H133852   3.613   8.498   3.938
11325TIP3    H233853   3.750   8.558   3.915
11326TIP3   OH233854   3.917   8.677   3.873
11326TIP3    H133855   3.901   8.761   3.825
11326TIP3    H233856   3.942   8.616   3.800
11327TIP3   OH233857   2.688   8.330   3.999
11327TIP3    H133858   2.716   8.304   4.089
11327TIP3    H233859   2.759   8.286   3.946
11328TIP3   OH233860   2.880   8.202   3.853
11328TIP3    H133861   2.896   8.117   3.901
11328TIP3    H233862   2.971   8.238   3.848
11329TIP3   OH233863   3.148   8.298   3.855
11329TIP3    H133864   3.177   8.205   3.842
11329TIP3    H233865   3.191   8.317   3.940
11330TIP3   OH233866   3.710   6.948   3.934
11330TIP3    H133867   3.678   6.879   3.995
11330TIP3    H233868   3.790   6.906   3.896
11331TIP3   OH233869   4.247   6.840   3.853
11331TIP3    H133870   4.284   6.885   3.774
11331TIP3    H233871   4.151   6.849   3.840
11332TIP3   OH233872   4.341   6.935   3.614
11332TIP3    H133873   4.413   6.881   3.574
11332TIP3    H233874   4.376   7.025   3.597
11333TIP3   OH233875   2.972   6.661   3.960
11333TIP3    H133876   2.881   6.626   3.963
11333TIP3    H233877   3.023   6.577   3.958
11334TIP3   OH233878   2.745   6.528   3.606
11334TIP3    H133879   2.789   6.580   3.536
11334TIP3    H233880   2.727   6.598   3.673
11335TIP3   OH233881   3.411   6.700   3.841
11335TIP3    H133882   3.476   6.741   3.780
11335TIP3    H233883   3.445   6.728   3.927
11336TIP3   OH233884   3.961   6.841   3.825
11336TIP3    H133885   3.963   6.802   3.736
11336TIP3    H233886   3.949   6.760   3.880
11337TIP3   OH233887   3.993   6.762   3.387
11337TIP3    H133888   3.904   6.800   3.394
11337TIP3    H233889   3.980   6.676   3.433
11338TIP3   OH233890   2.476   8.100   3.388
11338TIP3    H133891   2.392   8.065   3.354
11338TIP3    H233892   2.464   8.194   3.365
11339TIP3   OH233893   2.875   6.684   3.377
11339TIP3    H133894   2.922   6.624   3.316
11339TIP3    H233895   2.949   6.740   3.409
11340TIP3   OH233896   3.386   6.865   3.469
11340TIP3    H133897   3.445   6.815   3.526
11340TIP3    H233898   3.411   6.957   3.496
11341TIP3   OH233899   3.248   8.292   2.969
11341TIP3    H133900   3.337   8.313   2.933
11341TIP3    H233901   3.225   8.217   2.910
11342TIP3   OH233902   3.965   8.407   3.063
11342TIP3    H133903   3.958   8.310   3.049
11342TIP3    H233904   3.922   8.440   2.981
11343TIP3   OH233905   3.180   6.943   4.852
11343TIP3    H133906   3.146   6.872   4.908
11343TIP3    H233907   3.275   6.943   4.878
11344TIP3   OH233908   3.430   6.939   4.969
11344TIP3    H133909   3.514   6.912   4.931
11344TIP3    H233910   3.416   6.870   5.037
11345TIP3   OH233911   2.557   8.132   3.029
11345TIP3    H133912   2.555   8.149   3.124
11345TIP3    H233913   2.644   8.087   3.016
11346TIP3   OH233914   4.254   7.000   4.758
11346TIP3    H133915   4.273   6.968   4.849
11346TIP3    H233916   4.342   6.994   4.716
11347TIP3   OH233917   4.194   8.553   4.249
11347TIP3    H133918   4.114   8.520   4.202
11347TIP3    H233919   4.173   8.649   4.254
11348TIP3   OH233920   5.461   7.929   3.015
11348TIP3    H133921   5.427   8.018   2.995
11348TIP3    H233922   5.386   7.875   2.983
11349TIP3   OH233923   5.459   7.922   3.393
11349TIP3    H133924   5.488   7.897   3.482
11349TIP3    H233925   5.416   7.840   3.362
11350TIP3   OH233926   4.756   7.822   3.765
11350TIP3    H133927   4.789   7.753   3.827
11350TIP3    H233928   4.837   7.874   3.751
11351TIP3   OH233929   5.709   8.282   3.100
11351TIP3    H133930   5.688   8.188   3.091
11351TIP3    H233931   5.705   8.291   3.197
11352TIP3   OH233932   4.728   8.229   3.489
11352TIP3    H133933   4.720   8.131   3.490
11352TIP3    H233934   4.825   8.238   3.484
11353TIP3   OH233935   4.434   7.433   3.274
11353TIP3    H133936   4.385   7.517   3.282
11353TIP3    H233937   4.366   7.376   3.234
11354TIP3   OH233938   4.494   7.719   3.444
11354TIP3    H133939   4.543   7.642   3.481
11354TIP3    H233940   4.552   7.748   3.373
11355TIP3   OH233941   5.353   8.664   3.088
11355TIP3    H133942   5.416   8.595   3.109
11355TIP3    H233943   5.325   8.693   3.176
11356TIP3   OH233944   5.254   8.149   3.442
11356TIP3    H133945   5.294   8.073   3.397
11356TIP3    H233946   5.338   8.193   3.470
11357TIP3   OH233947   6.271   7.476   3.443
11357TIP3    H133948   6.302   7.561   3.476
11357TIP3    H233949   6.293   7.483   3.349
11358TIP3   OH233950   5.671   7.652   3.478
11358TIP3    H133951   5.712   7.565   3.497
11358TIP3    H233952   5.639   7.638   3.387
11359TIP3   OH233953   5.006   7.312   3.443
11359TIP3    H133954   4.986   7.383   3.380
11359TIP3    H233955   4.960   7.237   3.399
11360TIP3   OH233956   5.700   7.404   3.066
11360TIP3    H133957   5.772   7.387   3.130
11360TIP3    H233958   5.752   7.438   2.990
11361TIP3   OH233959   4.641   7.514   3.550
11361TIP3    H133960   4.724   7.493   3.597
11361TIP3    H233961   4.653   7.458   3.470
11362TIP3   OH233962   5.081   7.711   3.344
11362TIP3    H133963   5.175   7.686   3.356
11362TIP3    H233964   5.042   7.627   3.311
11363TIP3   OH233965   6.348   7.692   3.624
11363TIP3    H133966   6.265   7.732   3.591
11363TIP3    H233967   6.314   7.654   3.708
11364TIP3   OH233968   5.005   7.296   3.877
11364TIP3    H133969   4.943   7.331   3.810
11364TIP3    H233970   4.953   7.312   3.959
11365TIP3   OH233971   5.349   8.151   2.894
11365TIP3    H133972   5.320   8.125   2.805
11365TIP3    H233973   5.313   8.241   2.901
11366TIP3   OH233974   5.111   8.070   3.674
11366TIP3    H133975   5.048   8.136   3.711
11366TIP3    H233976   5.154   8.122   3.603
11367TIP3   OH233977   5.911   7.405   3.236
11367TIP3    H133978   5.907   7.349   3.314
11367TIP3    H233979   5.966   7.479   3.265
11368TIP3   OH233980   4.874   7.410   3.662
11368TIP3    H133981   4.938   7.481   3.685
11368TIP3    H233982   4.922   7.368   3.586
11369TIP3   OH233983   4.937   8.264   3.770
11369TIP3    H133984   4.912   8.350   3.731
11369TIP3    H233985   4.858   8.249   3.827
11370TIP3   OH233986   4.332   7.953   3.006
11370TIP3    H133987   4.292   7.978   2.920
11370TIP3    H233988   4.362   8.039   3.041
11371TIP3   OH233989   6.063   7.382   3.614
11371TIP3    H133990   5.973   7.398   3.578
11371TIP3    H233991   6.120   7.405   3.538
11372TIP3   OH233992   5.361   7.014   3.591
11372TIP3    H133993   5.349   6.919   3.608
11372TIP3    H233994   5.283   7.051   3.637
11373TIP3   OH233995   5.991   8.395   3.577
11373TIP3    H133996   5.988   8.311   3.528
11373TIP3    H233997   5.938   8.452   3.520
11374TIP3   OH233998   5.292   7.778   2.847
11374TIP3    H133999   5.210   7.827   2.823
11374TIP3    H234000   5.337   7.771   2.761
11375TIP3   OH234001   5.249   7.559   2.566
11375TIP3    H134002   5.319   7.611   2.611
11375TIP3    H234003   5.304   7.495   2.517
11376TIP3   OH234004   6.196   8.022   3.438
11376TIP3    H134005   6.112   8.073   3.442
11376TIP3    H234006   6.223   8.042   3.345
11377TIP3   OH234007   5.638   7.861   2.818
11377TIP3    H134008   5.583   7.884   2.896
11377TIP3    H234009   5.721   7.832   2.862
11378TIP3   OH234010   5.873   7.901   3.727
11378TIP3    H134011   5.865   7.986   3.774
11378TIP3    H234012   5.785   7.898   3.683
11379TIP3   OH234013   4.870   7.858   3.235
11379TIP3    H134014   4.827   7.800   3.169
11379TIP3    H234015   4.946   7.804   3.264
11380TIP3   OH234016   5.000   8.269   3.384
11380TIP3    H134017   4.979   8.222   3.302
11380TIP3    H234018   5.090   8.235   3.404
11381TIP3   OH234019   5.003   7.829   3.590
11381TIP3    H134020   5.037   7.806   3.501
11381TIP3    H234021   5.049   7.914   3.609
11382TIP3   OH234022   5.142   8.384   3.918
11382TIP3    H134023   5.081   8.447   3.962
11382TIP3    H234024   5.078   8.330   3.866
11383TIP3   OH234025   5.478   7.718   2.644
11383TIP3    H134026   5.538   7.777   2.695
11383TIP3    H234027   5.504   7.741   2.552
11384TIP3   OH234028   4.899   7.942   4.015
11384TIP3    H134029   4.902   8.029   4.060
11384TIP3    H234030   4.804   7.922   4.022
11385TIP3   OH234031   5.248   8.425   2.908
11385TIP3    H134032   5.243   8.490   2.979
11385TIP3    H234033   5.169   8.446   2.856
11386TIP3   OH234034   4.937   8.555   4.000
11386TIP3    H134035   4.903   8.553   3.909
11386TIP3    H234036   4.858   8.533   4.053
11387TIP3   OH234037   5.994   6.958   2.693
11387TIP3    H134038   5.912   6.978   2.743
11387TIP3    H234039   6.006   7.041   2.643
11388TIP3   OH234040   4.734   7.701   3.045
11388TIP3    H134041   4.669   7.744   2.985
11388TIP3    H234042   4.697   7.612   3.050
11389TIP3   OH234043   5.793   8.329   2.248
11389TIP3    H134044   5.801   8.424   2.226
11389TIP3    H234045   5.884   8.296   2.232
11390TIP3   OH234046   4.516   8.083   3.949
11390TIP3    H134047   4.459   8.057   3.874
11390TIP3    H234048   4.556   7.997   3.976
11391TIP3   OH234049   4.372   8.273   3.587
11391TIP3    H134050   4.466   8.267   3.570
11391TIP3    H234051   4.366   8.356   3.637
11392TIP3   OH234052   6.238   8.723   3.634
11392TIP3    H134053   6.234   8.627   3.652
11392TIP3    H234054   6.156   8.753   3.680
11393TIP3   OH234055   5.333   8.516   3.767
11393TIP3    H134056   5.334   8.607   3.803
11393TIP3    H234057   5.266   8.473   3.825
11394TIP3   OH234058   5.101   8.645   2.720
11394TIP3    H134059   5.055   8.625   2.636
11394TIP3    H234060   5.069   8.734   2.742
11395TIP3   OH234061   4.540   8.492   3.105
11395TIP3    H134062   4.588   8.482   3.191
11395TIP3    H234063   4.483   8.413   3.108
11396TIP3   OH234064   5.305   8.544   2.365
11396TIP3    H134065   5.363   8.475   2.325
11396TIP3    H234066   5.343   8.552   2.454
11397TIP3   OH234067   5.355   8.594   2.642
11397TIP3    H134068   5.264   8.613   2.675
11397TIP3    H234069   5.378   8.520   2.701
11398TIP3   OH234070   6.126   7.858   3.901
11398TIP3    H134071   6.040   7.874   3.858
11398TIP3    H234072   6.133   7.761   3.889
11399TIP3   OH234073   4.721   8.267   3.938
11399TIP3    H134074   4.773   8.249   4.019
11399TIP3    H234075   4.648   8.203   3.946
11400TIP3   OH234076   5.121   7.090   3.718
11400TIP3    H134077   5.032   7.059   3.692
11400TIP3    H234078   5.095   7.172   3.765
11401TIP3   OH234079   5.654   7.207   3.915
11401TIP3    H134080   5.723   7.176   3.977
11401TIP3    H234081   5.571   7.184   3.960
11402TIP3   OH234082   5.905   7.641   3.841
11402TIP3    H134083   5.847   7.632   3.921
11402TIP3    H234084   5.868   7.720   3.798
11403TIP3   OH234085   5.556   7.767   2.390
11403TIP3    H134086   5.520   7.740   2.304
11403TIP3    H234087   5.637   7.813   2.363
11404TIP3   OH234088   5.268   7.139   2.691
11404TIP3    H134089   5.234   7.136   2.782
11404TIP3    H234090   5.229   7.056   2.656
11405TIP3   OH234091   5.053   7.606   3.738
11405TIP3    H134092   5.003   7.627   3.820
11405TIP3    H234093   5.037   7.686   3.685
11406TIP3   OH234094   4.936   7.492   3.253
11406TIP3    H134095   4.844   7.465   3.269
11406TIP3    H234096   4.951   7.452   3.164
11407TIP3   OH234097   5.429   7.579   2.981
11407TIP3    H134098   5.375   7.649   2.938
11407TIP3    H234099   5.482   7.547   2.906
11408TIP3   OH234100   5.602   7.857   4.068
11408TIP3    H134101   5.578   7.784   4.129
11408TIP3    H234102   5.696   7.868   4.090
11409TIP3   OH234103   5.586   7.607   3.219
11409TIP3    H134104   5.525   7.635   3.147
11409TIP3    H234105   5.619   7.525   3.177
11410TIP3   OH234106   4.871   7.635   3.948
11410TIP3    H134107   4.902   7.696   4.016
11410TIP3    H234108   4.861   7.552   3.998
11411TIP3   OH234109   4.923   7.113   2.657
11411TIP3    H134110   4.914   7.109   2.754
11411TIP3    H234111   4.843   7.162   2.632
11412TIP3   OH234112   4.464   7.160   3.529
11412TIP3    H134113   4.543   7.187   3.580
11412TIP3    H234114   4.500   7.124   3.447
11413TIP3   OH234115   4.440   7.138   3.049
11413TIP3    H134116   4.485   7.175   2.970
11413TIP3    H234117   4.378   7.211   3.068
11414TIP3   OH234118   5.603   7.852   3.644
11414TIP3    H134119   5.630   7.779   3.584
11414TIP3    H234120   5.568   7.799   3.719
11415TIP3   OH234121   5.265   7.318   3.315
11415TIP3    H134122   5.182   7.312   3.367
11415TIP3    H234123   5.332   7.311   3.385
11416TIP3   OH234124   4.698   7.368   3.323
11416TIP3    H134125   4.604   7.374   3.296
11416TIP3    H234126   4.723   7.277   3.299
11417TIP3   OH234127   4.968   7.369   3.010
11417TIP3    H134128   5.063   7.380   2.988
11417TIP3    H234129   4.922   7.389   2.926
11418TIP3   OH234130   5.758   7.389   3.519
11418TIP3    H134131   5.719   7.401   3.608
11418TIP3    H234132   5.695   7.327   3.479
11419TIP3   OH234133   4.808   7.401   2.790
11419TIP3    H134134   4.737   7.355   2.742
11419TIP3    H234135   4.860   7.436   2.714
11420TIP3   OH234136   5.925   9.073   3.732
11420TIP3    H134137   5.921   9.099   3.638
11420TIP3    H234138   6.003   9.124   3.763
11421TIP3   OH234139   4.883   8.189   4.156
11421TIP3    H134140   4.963   8.219   4.203
11421TIP3    H234141   4.819   8.187   4.230
11422TIP3   OH234142   5.348   7.643   3.412
11422TIP3    H134143   5.417   7.600   3.360
11422TIP3    H234144   5.356   7.599   3.498
11423TIP3   OH234145   4.872   7.130   3.289
11423TIP3    H134146   4.838   7.050   3.335
11423TIP3    H234147   4.922   7.091   3.216
11424TIP3   OH234148   5.324   7.538   3.701
11424TIP3    H134149   5.234   7.573   3.714
11424TIP3    H234150   5.381   7.599   3.752
11425TIP3   OH234151   5.059   7.931   2.796
11425TIP3    H134152   4.988   7.864   2.785
11425TIP3    H234153   5.042   7.963   2.888
11426TIP3   OH234154   5.963   8.167   3.428
11426TIP3    H134155   5.986   8.213   3.344
11426TIP3    H234156   5.879   8.121   3.405
11427TIP3   OH234157   5.520   7.241   2.660
11427TIP3    H134158   5.423   7.224   2.666
11427TIP3    H234159   5.527   7.336   2.681
11428TIP3   OH234160   5.454   8.243   3.795
11428TIP3    H134161   5.479   8.228   3.887
11428TIP3    H234162   5.430   8.337   3.794
11429TIP3   OH234163   5.588   7.490   2.763
11429TIP3    H134164   5.685   7.495   2.776
11429TIP3    H234165   5.570   7.568   2.707
11430TIP3   OH234166   4.752   7.950   3.472
11430TIP3    H134167   4.790   7.923   3.386
11430TIP3    H234168   4.796   7.888   3.532
11431TIP3   OH234169   5.206   8.081   2.619
11431TIP3    H134170   5.159   8.167   2.626
11431TIP3    H234171   5.152   8.025   2.678
11432TIP3   OH234172   4.632   7.875   4.087
11432TIP3    H134173   4.657   7.860   4.180
11432TIP3    H234174   4.568   7.804   4.072
11433TIP3   OH234175   5.358   7.985   4.105
11433TIP3    H134176   5.299   7.927   4.055
11433TIP3    H234177   5.446   7.951   4.076
11434TIP3   OH234178   5.630   8.479   3.713
11434TIP3    H134179   5.541   8.498   3.678
11434TIP3    H234180   5.639   8.547   3.782
11435TIP3   OH234181   6.032   7.578   2.598
11435TIP3    H134182   5.969   7.533   2.536
11435TIP3    H234183   6.028   7.667   2.555
11436TIP3   OH234184   6.244   8.431   3.678
11436TIP3    H134185   6.147   8.433   3.663
11436TIP3    H234186   6.274   8.405   3.588
11437TIP3   OH234187   5.728   8.385   2.513
11437TIP3    H134188   5.704   8.300   2.551
11437TIP3    H234189   5.745   8.361   2.419
11438TIP3   OH234190   5.731   8.028   3.347
11438TIP3    H134191   5.637   8.007   3.360
11438TIP3    H234192   5.760   7.947   3.299
11439TIP3   OH234193   4.853   8.256   3.095
11439TIP3    H134194   4.849   8.338   3.042
11439TIP3    H234195   4.759   8.236   3.105
11440TIP3   OH234196   4.417   7.559   2.800
11440TIP3    H134197   4.463   7.643   2.820
11440TIP3    H234198   4.340   7.565   2.860
11441TIP3   OH234199   4.994   8.023   3.043
11441TIP3    H134200   4.956   8.111   3.061
11441TIP3    H234201   4.958   7.970   3.117
11442TIP3   OH234202   5.123   8.598   3.565
11442TIP3    H134203   5.165   8.668   3.511
11442TIP3    H234204   5.200   8.564   3.614
11443TIP3   OH234205   4.776   8.494   2.952
11443TIP3    H134206   4.689   8.503   2.995
11443TIP3    H234207   4.807   8.587   2.953
11444TIP3   OH234208   5.504   8.221   3.523
11444TIP3    H134209   5.498   8.225   3.621
11444TIP3    H234210   5.595   8.193   3.510
11445TIP3   OH234211   5.484   8.128   2.406
11445TIP3    H134212   5.538   8.101   2.483
11445TIP3    H234213   5.396   8.097   2.433
11446TIP3   OH234214   5.825   8.601   2.227
11446TIP3    H134215   5.859   8.670   2.167
11446TIP3    H234216   5.747   8.648   2.262
11447TIP3   OH234217   4.846   7.379   4.094
11447TIP3    H134218   4.749   7.380   4.107
11447TIP3    H234219   4.874   7.316   4.163
11448TIP3   OH234220   5.649   8.062   2.617
11448TIP3    H134221   5.634   8.002   2.692
11448TIP3    H234222   5.747   8.053   2.607
11449TIP3   OH234223   4.560   8.463   3.727
11449TIP3    H134224   4.613   8.386   3.754
11449TIP3    H234225   4.594   8.530   3.787
11450TIP3   OH234226   4.853   8.106   2.407
11450TIP3    H134227   4.865   8.015   2.375
11450TIP3    H234228   4.832   8.091   2.501
11451TIP3   OH234229   4.797   8.111   2.681
11451TIP3    H134230   4.869   8.083   2.738
11451TIP3    H234231   4.802   8.209   2.687
11452TIP3   OH234232   4.534   7.805   2.882
11452TIP3    H134233   4.467   7.850   2.939
11452TIP3    H234234   4.548   7.874   2.814
11453TIP3   OH234235   5.681   7.444   3.778
11453TIP3    H134236   5.764   7.474   3.818
11453TIP3    H234237   5.663   7.362   3.828
11454TIP3   OH234238   5.559   7.194   2.939
11454TIP3    H134239   5.546   7.215   2.845
11454TIP3    H234240   5.599   7.277   2.974
11455TIP3   OH234241   5.067   8.314   2.637
11455TIP3    H134242   4.976   8.339   2.665
11455TIP3    H234243   5.078   8.371   2.559
11456TIP3   OH234244   5.252   7.373   3.042
11456TIP3    H134245   5.317   7.444   3.024
11456TIP3    H234246   5.257   7.366   3.140
11457TIP3   OH234247   5.520   7.692   3.849
11457TIP3    H134248   5.540   7.743   3.929
11457TIP3    H234249   5.574   7.611   3.862
11458TIP3   OH234250   5.396   7.101   3.145
11458TIP3    H134251   5.390   7.179   3.203
11458TIP3    H234252   5.456   7.136   3.075
11459TIP3   OH234253   4.808   8.384   2.695
11459TIP3    H134254   4.777   8.452   2.631
11459TIP3    H234255   4.790   8.429   2.780
11460TIP3   OH234256   4.906   7.097   2.934
11460TIP3    H134257   4.905   7.188   2.970
11460TIP3    H234258   5.002   7.077   2.941
11461TIP3   OH234259   6.166   7.587   3.813
11461TIP3    H134260   6.071   7.595   3.835
11461TIP3    H234261   6.157   7.521   3.741
11462TIP3   OH234262   5.812   7.786   3.218
11462TIP3    H134263   5.735   7.726   3.229
11462TIP3    H234264   5.883   7.737   3.265
11463TIP3   OH234265   4.524   8.015   2.688
11463TIP3    H134266   4.589   8.087   2.695
11463TIP3    H234267   4.569   7.959   2.621
11464TIP3   OH234268   4.468   7.290   2.824
11464TIP3    H134269   4.466   7.387   2.817
11464TIP3    H234270   4.391   7.264   2.773
11465TIP3   OH234271   4.855   7.011   3.696
11465TIP3    H134272   4.825   6.976   3.609
11465TIP3    H234273   4.846   6.932   3.753
11466TIP3   OH234274   4.398   8.231   3.078
11466TIP3    H134275   4.321   8.261   3.128
11466TIP3    H234276   4.377   8.268   2.990
11467TIP3   OH234277   4.551   8.770   4.148
11467TIP3    H134278   4.638   8.769   4.195
11467TIP3    H234279   4.531   8.675   4.146
11468TIP3   OH234280   5.034   8.736   4.191
11468TIP3    H134281   5.128   8.717   4.199
11468TIP3    H234282   5.009   8.677   4.117
11469TIP3   OH234283   5.019   8.310   2.326
11469TIP3    H134284   4.961   8.236   2.357
11469TIP3    H234285   5.091   8.259   2.284
11470TIP3   OH234286   5.672   8.648   3.928
11470TIP3    H134287   5.663   8.575   3.994
11470TIP3    H234288   5.749   8.697   3.961
11471TIP3   OH234289   5.452   8.354   2.232
11471TIP3    H134290   5.496   8.286   2.287
11471TIP3    H234291   5.505   8.352   2.149
11472TIP3   OH234292   4.683   8.176   4.348
11472TIP3    H134293   4.700   8.080   4.353
11472TIP3    H234294   4.595   8.178   4.304
11473TIP3   OH234295   4.659   7.829   2.540
11473TIP3    H134296   4.714   7.792   2.611
11473TIP3    H234297   4.725   7.833   2.468
11474TIP3   OH234298   5.291   8.261   4.121
11474TIP3    H134299   5.250   8.278   4.034
11474TIP3    H234300   5.321   8.167   4.113
11475TIP3   OH234301   5.170   8.025   2.348
11475TIP3    H134302   5.172   8.037   2.445
11475TIP3    H234303   5.171   7.927   2.342
11476TIP3   OH234304   5.790   8.261   3.726
11476TIP3    H134305   5.857   8.312   3.679
11476TIP3    H234306   5.716   8.326   3.725
11477TIP3   OH234307   4.801   7.910   4.328
11477TIP3    H134308   4.876   7.852   4.308
11477TIP3    H234309   4.826   7.942   4.417
11478TIP3   OH234310   4.871   7.730   2.765
11478TIP3    H134311   4.843   7.684   2.845
11478TIP3    H234312   4.906   7.656   2.711
11479TIP3   OH234313   5.136   7.794   3.991
11479TIP3    H134314   5.059   7.855   3.993
11479TIP3    H234315   5.185   7.827   3.912
11480TIP3   OH234316   4.968   7.525   2.604
11480TIP3    H134317   4.942   7.526   2.509
11480TIP3    H234318   5.065   7.529   2.596
11481TIP3   OH234319   5.654   8.198   4.127
11481TIP3    H134320   5.730   8.169   4.074
11481TIP3    H234321   5.650   8.129   4.196
11482TIP3   OH234322   5.792   7.856   2.266
11482TIP3    H134323   5.771   7.809   2.183
11482TIP3    H234324   5.759   7.946   2.241
11483TIP3   OH234325   5.261   7.583   4.118
11483TIP3    H134326   5.260   7.502   4.062
11483TIP3    H234327   5.216   7.648   4.059
11484TIP3   OH234328   5.262   7.371   3.925
11484TIP3    H134329   5.290   7.410   3.840
11484TIP3    H234330   5.169   7.346   3.906
11485TIP3   OH234331   5.291   7.905   3.797
11485TIP3    H134332   5.374   7.915   3.750
11485TIP3    H234333   5.235   7.973   3.754
11486TIP3   OH234334   5.871   7.872   4.179
11486TIP3    H134335   5.917   7.788   4.189
11486TIP3    H234336   5.939   7.929   4.141
11487TIP3   OH234337   5.916   8.127   3.919
11487TIP3    H134338   5.856   8.176   3.858
11487TIP3    H234339   6.002   8.144   3.875
11488TIP3   OH234340   5.137   7.697   4.347
11488TIP3    H134341   5.069   7.627   4.361
11488TIP3    H234342   5.172   7.670   4.259
11489TIP3   OH234343   5.395   7.134   3.990
11489TIP3    H134344   5.345   7.215   3.968
11489TIP3    H234345   5.327   7.065   3.979
11490TIP3   OH234346   5.520   7.639   4.207
11490TIP3    H134347   5.508   7.625   4.303
11490TIP3    H234348   5.431   7.613   4.176
11491TIP3   OH234349   5.761   7.589   4.064
11491TIP3    H134350   5.684   7.588   4.123
11491TIP3    H234351   5.832   7.553   4.121
11492TIP3   OH234352   6.000   7.529   4.212
11492TIP3    H134353   6.007   7.432   4.230
11492TIP3    H234354   5.989   7.566   4.302
11493TIP3   OH234355   4.978   7.477   4.399
11493TIP3    H134356   4.982   7.385   4.365
11493TIP3    H234357   5.014   7.463   4.490
11494TIP3   OH234358   5.490   7.144   4.248
11494TIP3    H134359   5.557   7.073   4.243
11494TIP3    H234360   5.450   7.137   4.159
11495TIP3   OH234361   5.557   7.359   4.406
11495TIP3    H134362   5.534   7.287   4.343
11495TIP3    H234363   5.478   7.417   4.400
11496TIP3   OH234364   4.775   8.586   2.509
11496TIP3    H134365   4.871   8.584   2.487
11496TIP3    H234366   4.743   8.633   2.430
11497TIP3   OH234367   4.256   7.967   2.727
11497TIP3    H134368   4.350   7.989   2.710
11497TIP3    H234369   4.249   7.879   2.684
11498TIP3   OH234370   4.167   8.581   3.138
11498TIP3    H134371   4.102   8.518   3.101
11498TIP3    H234372   4.213   8.524   3.203
11499TIP3   OH234373   4.304   8.435   3.324
11499TIP3    H134374   4.295   8.358   3.383
11499TIP3    H234375   4.358   8.494   3.380
11500TIP3   OH234376   6.057   8.810   3.120
11500TIP3    H134377   6.036   8.855   3.203
11500TIP3    H234378   6.083   8.884   3.064
11501TIP3   OH234379   6.060   8.861   3.410
11501TIP3    H134380   6.001   8.788   3.389
11501TIP3    H234381   6.132   8.818   3.459
11502TIP3   OH234382   6.111   8.528   3.980
11502TIP3    H134383   6.036   8.537   4.043
11502TIP3    H234384   6.151   8.617   3.984
11503TIP3   OH234385   5.926   8.044   2.601
11503TIP3    H134386   5.996   8.106   2.570
11503TIP3    H234387   5.970   8.003   2.679
11504TIP3   OH234388   6.053   7.912   2.804
11504TIP3    H134389   5.987   7.866   2.861
11504TIP3    H234390   6.116   7.947   2.869
11505TIP3   OH234391   6.103   8.301   3.232
11505TIP3    H134392   6.158   8.235   3.185
11505TIP3    H234393   6.106   8.378   3.171
11506TIP3   OH234394   5.991   7.819   2.450
11506TIP3    H134395   5.920   7.819   2.382
11506TIP3    H234396   5.961   7.895   2.504
11507TIP3   OH234397   5.862   7.492   2.405
11507TIP3    H134398   5.821   7.529   2.326
11507TIP3    H234399   5.836   7.397   2.397
11508TIP3   OH234400   5.868   7.766   2.949
11508TIP3    H134401   5.874   7.669   2.940
11508TIP3    H234402   5.854   7.777   3.046
11509TIP3   OH234403   4.493   7.843   3.696
11509TIP3    H134404   4.492   7.810   3.603
11509TIP3    H234405   4.590   7.843   3.714
11510TIP3   OH234406   6.162   8.186   3.806
11510TIP3    H134407   6.238   8.126   3.798
11510TIP3    H234408   6.185   8.258   3.745
11511TIP3   OH234409   6.361   7.979   3.859
11511TIP3    H134410   6.271   7.940   3.875
11511TIP3    H234411   6.394   7.923   3.788
11512TIP3   OH234412   5.805   7.227   2.394
11512TIP3    H134413   5.880   7.192   2.447
11512TIP3    H234414   5.732   7.166   2.414
11513TIP3   OH234415   5.864   7.483   2.845
11513TIP3    H134416   5.903   7.394   2.861
11513TIP3    H234417   5.922   7.513   2.773
11514TIP3   OH234418   6.025   7.658   3.340
11514TIP3    H134419   6.112   7.684   3.300
11514TIP3    H234420   6.039   7.692   3.430
11515TIP3   OH234421   6.096   7.802   3.573
11515TIP3    H134422   6.015   7.833   3.619
11515TIP3    H234423   6.124   7.882   3.525
11516TIP3   OH234424   4.711   7.529   4.373
11516TIP3    H134425   4.809   7.521   4.373
11516TIP3    H234426   4.686   7.443   4.412
11517TIP3   OH234427   6.543   7.390   4.128
11517TIP3    H134428   6.604   7.324   4.088
11517TIP3    H234429   6.520   7.445   4.050
11518TIP3   OH234430   5.971   7.232   2.883
11518TIP3    H134431   6.020   7.215   2.966
11518TIP3    H234432   5.911   7.155   2.881
11519TIP3   OH234433   4.671   7.220   3.706
11519TIP3    H134434   4.732   7.143   3.713
11519TIP3    H234435   4.735   7.292   3.696
11520TIP3   OH234436   4.470   7.495   3.771
11520TIP3    H134437   4.522   7.482   3.689
11520TIP3    H234438   4.510   7.575   3.806
11521TIP3   OH234439   6.416   7.535   3.935
11521TIP3    H134440   6.327   7.571   3.942
11521TIP3    H234441   6.400   7.462   3.873
11522TIP3   OH234442   6.055   7.167   2.515
11522TIP3    H134443   6.092   7.094   2.461
11522TIP3    H234444   6.122   7.237   2.505
11523TIP3   OH234445   4.458   7.004   3.282
11523TIP3    H134446   4.363   6.994   3.300
11523TIP3    H234447   4.457   7.057   3.199
11524TIP3   OH234448   4.679   7.081   4.092
11524TIP3    H134449   4.627   7.070   4.173
11524TIP3    H234450   4.610   7.113   4.030
11525TIP3   OH234451   4.717   8.505   4.168
11525TIP3    H134452   4.626   8.475   4.150
11525TIP3    H234453   4.728   8.483   4.261
11526TIP3   OH234454   4.896   8.535   3.714
11526TIP3    H134455   4.850   8.611   3.674
11526TIP3    H234456   4.983   8.548   3.671
11527TIP3   OH234457   5.340   8.781   3.856
11527TIP3    H134458   5.384   8.782   3.944
11527TIP3    H234459   5.405   8.830   3.802
11528TIP3   OH234460   5.515   8.928   3.706
11528TIP3    H134461   5.581   8.891   3.646
11528TIP3    H234462   5.572   8.982   3.766
11529TIP3   OH234463   6.314   7.291   3.811
11529TIP3    H134464   6.223   7.278   3.780
11529TIP3    H234465   6.349   7.199   3.801
11530TIP3   OH234466   4.572   8.792   3.737
11530TIP3    H134467   4.484   8.829   3.714
11530TIP3    H234468   4.581   8.824   3.827
11531TIP3   OH234469   4.809   8.770   3.595
11531TIP3    H134470   4.722   8.784   3.639
11531TIP3    H234471   4.791   8.804   3.505
11532TIP3   OH234472   5.227   8.794   3.387
11532TIP3    H134473   5.156   8.832   3.331
11532TIP3    H234474   5.263   8.874   3.429
11533TIP3   OH234475   5.746   8.951   3.366
11533TIP3    H134476   5.703   9.014   3.306
11533TIP3    H234477   5.727   8.865   3.325
11534TIP3   OH234478   4.483   8.585   3.484
11534TIP3    H134479   4.512   8.561   3.575
11534TIP3    H234480   4.555   8.543   3.433
11535TIP3   OH234481   4.677   8.458   3.340
11535TIP3    H134482   4.694   8.374   3.388
11535TIP3    H234483   4.768   8.495   3.334
11536TIP3   OH234484   4.944   8.551   3.343
11536TIP3    H134485   4.974   8.459   3.335
11536TIP3    H234486   4.990   8.576   3.425
11537TIP3   OH234487   5.520   7.209   3.431
11537TIP3    H134488   5.476   7.139   3.483
11537TIP3    H234489   5.590   7.160   3.384
11538TIP3   OH234490   6.043   7.097   3.340
11538TIP3    H134491   6.079   7.143   3.261
11538TIP3    H234492   5.947   7.105   3.327
11539TIP3   OH234493   6.138   7.191   3.100
11539TIP3    H134494   6.210   7.138   3.060
11539TIP3    H234495   6.172   7.282   3.084
11540TIP3   OH234496   4.768   6.918   3.448
11540TIP3    H134497   4.676   6.885   3.448
11540TIP3    H234498   4.817   6.833   3.444
11541TIP3   OH234499   4.556   6.786   3.094
11541TIP3    H134500   4.586   6.843   3.021
11541TIP3    H234501   4.527   6.852   3.160
11542TIP3   OH234502   5.210   6.952   3.327
11542TIP3    H134503   5.271   7.000   3.267
11542TIP3    H234504   5.236   6.987   3.413
11543TIP3   OH234505   5.762   7.096   3.310
11543TIP3    H134506   5.757   7.057   3.221
11543TIP3    H234507   5.747   7.016   3.366
11544TIP3   OH234508   5.789   7.018   2.873
11544TIP3    H134509   5.701   7.058   2.882
11544TIP3    H234510   5.775   6.933   2.920
11545TIP3   OH234511   4.271   8.358   2.877
11545TIP3    H134512   4.187   8.324   2.841
11545TIP3    H234513   4.260   8.452   2.855
11546TIP3   OH234514   4.671   6.947   2.858
11546TIP3    H134515   4.719   6.883   2.802
11546TIP3    H234516   4.745   7.000   2.894
11547TIP3   OH234517   5.183   7.122   2.957
11547TIP3    H134518   5.242   7.073   3.015
11547TIP3    H234519   5.208   7.214   2.982
11548TIP3   OH234520   5.044   8.550   2.454
11548TIP3    H134521   5.132   8.571   2.418
11548TIP3    H234522   5.022   8.474   2.396
11549TIP3   OH234523   5.772   8.660   2.546
11549TIP3    H134524   5.753   8.564   2.541
11549TIP3    H234525   5.717   8.695   2.473
11550TIP3   OH234526   4.976   7.201   4.340
11550TIP3    H134527   4.942   7.128   4.395
11550TIP3    H234528   5.071   7.200   4.365
11551TIP3   OH234529   5.226   7.197   4.457
11551TIP3    H134530   5.310   7.168   4.417
11551TIP3    H234531   5.213   7.127   4.524
11552TIP3   OH234532   4.349   8.383   2.513
11552TIP3    H134533   4.351   8.410   2.606
11552TIP3    H234534   4.437   8.341   2.501
11553TIP3   OH234535   6.050   7.257   4.245
11553TIP3    H134536   6.068   7.224   4.336
11553TIP3    H234537   6.138   7.250   4.203
11554TIP3   OH234538   5.995   8.807   3.736
11554TIP3    H134539   5.915   8.765   3.702
11554TIP3    H234540   5.970   8.902   3.734
11555TIP3   OH234541   7.255   8.177   2.506
11555TIP3    H134542   7.224   8.268   2.489
11555TIP3    H234543   7.180   8.127   2.469
11556TIP3   OH234544   7.249   8.176   2.891
11556TIP3    H134545   7.288   8.124   2.963
11556TIP3    H234546   7.211   8.105   2.837
11557TIP3   OH234547   6.553   8.081   3.253
11557TIP3    H134548   6.583   8.010   3.313
11557TIP3    H234549   6.637   8.125   3.234
11558TIP3   OH234550   7.495   8.482   2.566
11558TIP3    H134551   7.489   8.412   2.633
11558TIP3    H234552   7.527   8.557   2.620
11559TIP3   OH234553   6.525   8.485   2.971
11559TIP3    H134554   6.510   8.387   2.969
11559TIP3    H234555   6.616   8.487   3.005
11560TIP3   OH234556   6.231   7.693   2.761
11560TIP3    H134557   6.179   7.774   2.771
11560TIP3    H234558   6.164   7.634   2.723
11561TIP3   OH234559   6.293   7.978   2.933
11561TIP3    H134560   6.340   7.899   2.968
11561TIP3    H234561   6.345   7.997   2.853
11562TIP3   OH234562   7.115   8.922   2.581
11562TIP3    H134563   7.167   8.860   2.523
11562TIP3    H234564   7.161   8.911   2.665
11563TIP3   OH234565   7.056   8.411   2.929
11563TIP3    H134566   7.093   8.328   2.894
11563TIP3    H234567   7.140   8.454   2.954
11564TIP3   OH234568   8.067   7.728   2.930
11564TIP3    H134569   8.095   7.811   2.973
11564TIP3    H234570   8.087   7.748   2.836
11565TIP3   OH234571   7.461   7.916   2.956
11565TIP3    H134572   7.504   7.836   2.990
11565TIP3    H234573   7.433   7.887   2.867
11566TIP3   OH234574   6.801   7.568   2.930
11566TIP3    H134575   6.782   7.640   2.867
11566TIP3    H234576   6.755   7.494   2.885
11567TIP3   OH234577   7.498   7.658   2.552
11567TIP3    H134578   7.569   7.641   2.618
11567TIP3    H234579   7.551   7.694   2.479
11568TIP3   OH234580   6.437   7.770   3.037
11568TIP3    H134581   6.520   7.748   3.083
11568TIP3    H234582   6.448   7.714   2.957
11569TIP3   OH234583   6.877   7.968   2.831
11569TIP3    H134584   6.971   7.942   2.844
11569TIP3    H234585   6.839   7.884   2.799
11570TIP3   OH234586   8.139   7.937   3.099
11570TIP3    H134587   8.055   7.983   3.079
11570TIP3    H234588   8.146   7.956   3.194
11571TIP3   OH234589   6.800   7.553   3.364
11571TIP3    H134590   6.739   7.588   3.297
11571TIP3    H234591   6.749   7.570   3.446
11572TIP3   OH234592   7.136   8.390   2.375
11572TIP3    H134593   7.108   8.368   2.285
11572TIP3    H234594   7.151   8.486   2.370
11573TIP3   OH234595   6.905   8.327   3.156
11573TIP3    H134596   6.843   8.392   3.197
11573TIP3    H234597   6.955   8.382   3.094
11574TIP3   OH234598   7.709   7.660   2.724
11574TIP3    H134599   7.692   7.615   2.808
11574TIP3    H234600   7.761   7.737   2.751
11575TIP3   OH234601   6.669   7.666   3.148
11575TIP3    H134602   6.733   7.737   3.172
11575TIP3    H234603   6.718   7.624   3.073
11576TIP3   OH234604   6.729   8.521   3.251
11576TIP3    H134605   6.708   8.613   3.223
11576TIP3    H234606   6.653   8.504   3.310
11577TIP3   OH234607   6.130   8.210   2.493
11577TIP3    H134608   6.088   8.233   2.408
11577TIP3    H234609   6.158   8.296   2.527
11578TIP3   OH234610   7.564   8.722   2.735
11578TIP3    H134611   7.474   8.713   2.773
11578TIP3    H234612   7.554   8.808   2.690
11579TIP3   OH234613   7.860   7.629   3.097
11579TIP3    H134614   7.771   7.656   3.068
11579TIP3    H234615   7.917   7.659   3.024
11580TIP3   OH234616   7.157   7.270   3.077
11580TIP3    H134617   7.145   7.175   3.095
11580TIP3    H234618   7.079   7.307   3.124
11581TIP3   OH234619   7.267   8.775   2.404
11581TIP3    H134620   7.315   8.692   2.385
11581TIP3    H234621   7.330   8.840   2.364
11582TIP3   OH234622   7.397   8.549   2.317
11582TIP3    H134623   7.401   8.470   2.262
11582TIP3    H234624   7.440   8.519   2.400
11583TIP3   OH234625   7.798   8.642   3.076
11583TIP3    H134626   7.784   8.562   3.021
11583TIP3    H234627   7.780   8.714   3.013
11584TIP3   OH234628   7.085   8.034   2.332
11584TIP3    H134629   7.005   8.083   2.306
11584TIP3    H234630   7.133   8.027   2.248
11585TIP3   OH234631   7.045   7.817   2.052
11585TIP3    H134632   7.114   7.867   2.099
11585TIP3    H234633   7.099   7.751   2.005
11586TIP3   OH234634   7.992   8.278   2.922
11586TIP3    H134635   7.908   8.329   2.928
11586TIP3    H234636   8.018   8.300   2.830
11587TIP3   OH234637   7.434   8.116   2.306
11587TIP3    H134638   7.380   8.139   2.386
11587TIP3    H234639   7.518   8.089   2.350
11588TIP3   OH234640   6.670   8.117   2.720
11588TIP3    H134641   6.624   8.058   2.656
11588TIP3    H234642   6.743   8.059   2.751
11589TIP3   OH234643   6.815   8.531   2.845
11589TIP3    H134644   6.781   8.444   2.820
11589TIP3    H234645   6.904   8.505   2.877
11590TIP3   OH234646   6.798   8.085   3.077
11590TIP3    H134647   6.835   8.060   2.990
11590TIP3    H234648   6.846   8.168   3.097
11591TIP3   OH234649   7.320   8.722   2.852
11591TIP3    H134650   7.315   8.801   2.908
11591TIP3    H234651   7.312   8.648   2.916
11592TIP3   OH234652   6.939   8.644   3.399
11592TIP3    H134653   6.879   8.705   3.447
11592TIP3    H234654   6.875   8.588   3.352
11593TIP3   OH234655   7.273   7.973   2.136
11593TIP3    H134656   7.333   8.032   2.188
11593TIP3    H234657   7.300   7.997   2.043
11594TIP3   OH234658   6.695   8.202   3.504
11594TIP3    H134659   6.696   8.290   3.547
11594TIP3    H234660   6.599   8.183   3.503
11595TIP3   OH234661   6.733   8.810   3.487
11595TIP3    H134662   6.697   8.809   3.396
11595TIP3    H234663   6.654   8.788   3.541
11596TIP3   OH234664   7.790   7.215   2.179
11596TIP3    H134665   7.709   7.234   2.230
11596TIP3    H234666   7.802   7.299   2.130
11597TIP3   OH234667   6.529   7.959   2.534
11597TIP3    H134668   6.464   8.001   2.473
11597TIP3    H234669   6.495   7.869   2.539
11598TIP3   OH234670   7.588   8.578   1.725
11598TIP3    H134671   7.587   8.674   1.706
11598TIP3    H234672   7.682   8.556   1.711
11599TIP3   OH234673   6.312   8.342   3.432
11599TIP3    H134674   6.248   8.318   3.363
11599TIP3    H234675   6.349   8.256   3.459
11600TIP3   OH234676   6.160   8.532   3.071
11600TIP3    H134677   6.257   8.539   3.067
11600TIP3    H234678   6.136   8.619   3.109
11601TIP3   OH234679   8.027   8.982   3.118
11601TIP3    H134680   8.028   8.885   3.132
11601TIP3    H234681   7.944   9.006   3.165
11602TIP3   OH234682   7.135   8.775   3.254
11602TIP3    H134683   7.135   8.867   3.290
11602TIP3    H234684   7.067   8.732   3.310
11603TIP3   OH234685   6.888   8.899   2.215
11603TIP3    H134686   6.854   8.879   2.125
11603TIP3    H234687   6.865   8.992   2.227
11604TIP3   OH234688   6.330   8.751   2.595
11604TIP3    H134689   6.384   8.735   2.675
11604TIP3    H234690   6.278   8.669   2.592
11605TIP3   OH234691   7.101   8.800   1.850
11605TIP3    H134692   7.159   8.731   1.813
11605TIP3    H234693   7.135   8.808   1.942
11606TIP3   OH234694   7.145   8.848   2.125
11606TIP3    H134695   7.058   8.853   2.169
11606TIP3    H234696   7.201   8.816   2.197
11607TIP3   OH234697   7.925   8.120   3.395
11607TIP3    H134698   7.830   8.135   3.377
11607TIP3    H234699   7.931   8.023   3.385
11608TIP3   OH234700   6.519   8.523   3.423
11608TIP3    H134701   6.568   8.507   3.506
11608TIP3    H234702   6.445   8.459   3.430
11609TIP3   OH234703   6.917   7.346   3.205
11609TIP3    H134704   6.827   7.315   3.180
11609TIP3    H234705   6.893   7.429   3.251
11610TIP3   OH234706   7.450   7.460   3.400
11610TIP3    H134707   7.519   7.436   3.466
11610TIP3    H234708   7.367   7.442   3.447
11611TIP3   OH234709   7.693   7.915   3.327
11611TIP3    H134710   7.651   7.881   3.409
11611TIP3    H234711   7.631   7.990   3.312
11612TIP3   OH234712   7.353   8.025   1.885
11612TIP3    H134713   7.315   8.003   1.797
11612TIP3    H234714   7.433   8.073   1.859
11613TIP3   OH234715   7.065   7.396   2.178
11613TIP3    H134716   7.031   7.393   2.270
11613TIP3    H234717   7.025   7.314   2.143
11614TIP3   OH234718   6.845   7.861   3.225
11614TIP3    H134719   6.800   7.886   3.307
11614TIP3    H234720   6.833   7.943   3.171
11615TIP3   OH234721   6.731   7.750   2.739
11615TIP3    H134722   6.639   7.721   2.757
11615TIP3    H234723   6.746   7.709   2.651
11616TIP3   OH234724   7.224   7.835   2.465
11616TIP3    H134725   7.170   7.905   2.423
11616TIP3    H234726   7.278   7.803   2.390
11617TIP3   OH234727   7.378   7.861   2.701
11617TIP3    H134728   7.318   7.888   2.629
11617TIP3    H234729   7.414   7.779   2.661
11618TIP3   OH234730   6.663   7.894   3.437
11618TIP3    H134731   6.714   7.951   3.497
11618TIP3    H234732   6.658   7.810   3.486
11619TIP3   OH234733   6.721   7.370   2.143
11619TIP3    H134734   6.711   7.366   2.240
11619TIP3    H234735   6.639   7.418   2.118
11620TIP3   OH234736   6.261   7.416   3.016
11620TIP3    H134737   6.340   7.443   3.066
11620TIP3    H234738   6.296   7.379   2.933
11621TIP3   OH234739   6.237   7.395   2.535
11621TIP3    H134740   6.281   7.432   2.456
11621TIP3    H234741   6.174   7.467   2.555
11622TIP3   OH234742   7.059   7.573   2.801
11622TIP3    H134743   6.978   7.569   2.855
11622TIP3    H234744   7.129   7.570   2.868
11623TIP3   OH234745   6.494   7.625   2.810
11623TIP3    H134746   6.400   7.631   2.782
11623TIP3    H234747   6.518   7.533   2.786
11624TIP3   OH234748   6.764   7.625   2.498
11624TIP3    H134749   6.859   7.637   2.476
11624TIP3    H234750   6.719   7.646   2.413
11625TIP3   OH234751   7.556   7.645   2.998
11625TIP3    H134752   7.525   7.659   3.091
11625TIP3    H234753   7.486   7.585   2.965
11626TIP3   OH234754   6.604   7.659   2.277
11626TIP3    H134755   6.533   7.612   2.231
11626TIP3    H234756   6.655   7.692   2.200
11627TIP3   OH234757   7.716   9.332   3.221
11627TIP3    H134758   7.717   9.353   3.125
11627TIP3    H234759   7.792   9.384   3.253
11628TIP3   OH234760   6.678   8.444   3.645
11628TIP3    H134761   6.759   8.475   3.690
11628TIP3    H234762   6.614   8.450   3.718
11629TIP3   OH234763   7.140   7.895   2.897
11629TIP3    H134764   7.217   7.860   2.849
11629TIP3    H234765   7.154   7.858   2.986
11630TIP3   OH234766   6.667   7.386   2.776
11630TIP3    H134767   6.633   7.307   2.822
11630TIP3    H234768   6.720   7.347   2.704
11631TIP3   OH234769   7.116   7.789   3.186
11631TIP3    H134770   7.029   7.829   3.202
11631TIP3    H234771   7.175   7.842   3.245
11632TIP3   OH234772   6.853   8.189   2.281
11632TIP3    H134773   6.784   8.120   2.272
11632TIP3    H234774   6.838   8.219   2.374
11633TIP3   OH234775   7.760   8.423   2.912
11633TIP3    H134776   7.782   8.472   2.830
11633TIP3    H234777   7.673   8.383   2.891
11634TIP3   OH234778   7.314   7.501   2.140
11634TIP3    H134779   7.219   7.481   2.153
11634TIP3    H234780   7.323   7.594   2.170
11635TIP3   OH234781   7.239   8.499   3.278
11635TIP3    H134782   7.295   8.471   3.352
11635TIP3    H234783   7.221   8.592   3.296
11636TIP3   OH234784   7.385   7.744   2.248
11636TIP3    H134785   7.481   7.749   2.266
11636TIP3    H234786   7.368   7.825   2.196
11637TIP3   OH234787   6.553   8.211   2.958
11637TIP3    H134788   6.587   8.177   2.872
11637TIP3    H234789   6.590   8.146   3.020
11638TIP3   OH234790   7.005   8.338   2.109
11638TIP3    H134791   6.956   8.423   2.114
11638TIP3    H234792   6.948   8.281   2.165
11639TIP3   OH234793   6.424   8.137   3.577
11639TIP3    H134794   6.458   8.112   3.665
11639TIP3    H234795   6.363   8.065   3.553
11640TIP3   OH234796   7.166   8.233   3.591
11640TIP3    H134797   7.106   8.177   3.539
11640TIP3    H234798   7.251   8.210   3.550
11641TIP3   OH234799   7.414   8.767   3.174
11641TIP3    H134800   7.317   8.766   3.187
11641TIP3    H234801   7.442   8.818   3.253
11642TIP3   OH234802   7.827   7.834   2.086
11642TIP3    H134803   7.764   7.790   2.025
11642TIP3    H234804   7.825   7.923   2.045
11643TIP3   OH234805   8.048   8.694   3.165
11643TIP3    H134806   7.950   8.688   3.160
11643TIP3    H234807   8.070   8.663   3.074
11644TIP3   OH234808   7.520   8.651   1.987
11644TIP3    H134809   7.505   8.580   2.051
11644TIP3    H234810   7.537   8.604   1.904
11645TIP3   OH234811   7.523   8.288   2.823
11645TIP3    H134812   7.433   8.260   2.846
11645TIP3    H234813   7.558   8.205   2.785
11646TIP3   OH234814   6.215   7.815   2.288
11646TIP3    H134815   6.259   7.900   2.308
11646TIP3    H234816   6.136   7.821   2.347
11647TIP3   OH234817   6.789   8.281   2.530
11647TIP3    H134818   6.741   8.361   2.554
11647TIP3    H234819   6.760   8.220   2.601
11648TIP3   OH234820   6.920   8.854   3.048
11648TIP3    H134821   6.963   8.930   3.005
11648TIP3    H234822   6.994   8.819   3.101
11649TIP3   OH234823   7.310   8.490   3.011
11649TIP3    H134824   7.295   8.486   3.108
11649TIP3    H234825   7.394   8.443   3.003
11650TIP3   OH234826   7.288   8.375   1.890
11650TIP3    H134827   7.334   8.355   1.974
11650TIP3    H234828   7.197   8.352   1.914
11651TIP3   OH234829   7.556   9.024   3.062
11651TIP3    H134830   7.477   8.967   3.054
11651TIP3    H234831   7.541   9.090   2.990
11652TIP3   OH234832   7.601   8.852   1.701
11652TIP3    H134833   7.646   8.919   1.648
11652TIP3    H234834   7.528   8.905   1.739
11653TIP3   OH234835   6.641   7.638   3.585
11653TIP3    H134836   6.544   7.636   3.594
11653TIP3    H234837   6.668   7.570   3.649
11654TIP3   OH234838   7.443   8.323   2.120
11654TIP3    H134839   7.432   8.250   2.185
11654TIP3    H234840   7.539   8.316   2.102
11655TIP3   OH234841   6.365   8.715   3.208
11655TIP3    H134842   6.414   8.643   3.252
11655TIP3    H234843   6.381   8.789   3.268
11656TIP3   OH234844   6.651   8.363   1.894
11656TIP3    H134845   6.659   8.272   1.859
11656TIP3    H234846   6.626   8.346   1.987
11657TIP3   OH234847   6.593   8.370   2.168
11657TIP3    H134848   6.669   8.337   2.217
11657TIP3    H234849   6.602   8.467   2.176
11658TIP3   OH234850   6.331   8.063   2.369
11658TIP3    H134851   6.264   8.106   2.425
11658TIP3    H234852   6.343   8.132   2.300
11659TIP3   OH234853   7.482   7.694   3.257
11659TIP3    H134854   7.543   7.743   3.313
11659TIP3    H234855   7.463   7.615   3.312
11660TIP3   OH234856   7.357   7.451   2.425
11660TIP3    H134857   7.345   7.475   2.332
11660TIP3    H234858   7.397   7.532   2.462
11661TIP3   OH234859   6.861   8.567   2.126
11661TIP3    H134860   6.774   8.601   2.154
11661TIP3    H234861   6.880   8.627   2.052
11662TIP3   OH234862   7.048   7.629   2.528
11662TIP3    H134863   7.113   7.701   2.512
11662TIP3    H234864   7.052   7.621   2.626
11663TIP3   OH234865   7.285   7.920   3.356
11663TIP3    H134866   7.338   8.001   3.371
11663TIP3    H234867   7.357   7.856   3.344
11664TIP3   OH234868   7.192   7.357   2.631
11664TIP3    H134869   7.190   7.432   2.694
11664TIP3    H234870   7.252   7.393   2.562
11665TIP3   OH234871   6.601   8.648   2.183
11665TIP3    H134872   6.580   8.701   2.102
11665TIP3    H234873   6.554   8.701   2.249
11666TIP3   OH234874   6.703   7.354   2.420
11666TIP3    H134875   6.701   7.444   2.458
11666TIP3    H234876   6.799   7.334   2.428
11667TIP3   OH234877   7.956   7.846   3.314
11667TIP3    H134878   7.858   7.856   3.324
11667TIP3    H234879   7.959   7.801   3.229
11668TIP3   OH234880   7.609   8.042   2.703
11668TIP3    H134881   7.532   7.985   2.722
11668TIP3    H234882   7.680   7.995   2.753
11669TIP3   OH234883   6.319   8.271   2.175
11669TIP3    H134884   6.384   8.343   2.180
11669TIP3    H234885   6.364   8.215   2.108
11670TIP3   OH234886   6.266   7.546   2.310
11670TIP3    H134887   6.262   7.644   2.304
11670TIP3    H234888   6.186   7.520   2.261
11671TIP3   OH234889   7.548   8.987   2.653
11671TIP3    H134890   7.510   9.038   2.578
11671TIP3    H234891   7.643   9.007   2.636
11672TIP3   OH234892   6.650   7.267   3.183
11672TIP3    H134893   6.621   7.233   3.096
11672TIP3    H234894   6.642   7.188   3.240
11673TIP3   OH234895   6.192   8.487   2.566
11673TIP3    H134896   6.114   8.521   2.612
11673TIP3    H234897   6.175   8.523   2.476
11674TIP3   OH234898   6.348   9.027   3.635
11674TIP3    H134899   6.435   9.026   3.682
11674TIP3    H234900   6.329   8.932   3.630
11675TIP3   OH234901   6.830   8.991   3.680
11675TIP3    H134902   6.925   8.974   3.686
11675TIP3    H234903   6.806   8.933   3.605
11676TIP3   OH234904   6.816   8.567   1.814
11676TIP3    H134905   6.758   8.494   1.844
11676TIP3    H234906   6.887   8.517   1.770
11677TIP3   OH234907   7.466   8.897   3.413
11677TIP3    H134908   7.460   8.826   3.480
11677TIP3    H234909   7.545   8.947   3.442
11678TIP3   OH234910   7.249   8.609   1.719
11678TIP3    H134911   7.299   8.548   1.776
11678TIP3    H234912   7.300   8.610   1.636
11679TIP3   OH234913   6.477   8.434   3.834
11679TIP3    H134914   6.490   8.339   3.847
11679TIP3    H234915   6.389   8.436   3.790
11680TIP3   OH234916   6.455   8.087   2.026
11680TIP3    H134917   6.509   8.047   2.096
11680TIP3    H234918   6.522   8.090   1.954
11681TIP3   OH234919   7.083   8.512   3.609
11681TIP3    H134920   7.052   8.530   3.518
11681TIP3    H234921   7.123   8.423   3.601
11682TIP3   OH234922   6.972   8.283   1.836
11682TIP3    H134923   6.969   8.293   1.933
11682TIP3    H234924   6.966   8.185   1.828
11683TIP3   OH234925   7.571   8.526   3.201
11683TIP3    H134926   7.655   8.567   3.173
11683TIP3    H234927   7.510   8.601   3.192
11684TIP3   OH234928   6.607   8.140   3.821
11684TIP3    H134929   6.696   8.126   3.784
11684TIP3    H234930   6.629   8.188   3.904
11685TIP3   OH234931   6.671   7.985   2.254
11685TIP3    H134932   6.638   7.939   2.332
11685TIP3    H234933   6.704   7.911   2.199
11686TIP3   OH234934   6.923   8.046   3.477
11686TIP3    H134935   6.853   8.115   3.478
11686TIP3    H234936   6.981   8.079   3.404
11687TIP3   OH234937   6.763   7.782   2.090
11687TIP3    H134938   6.737   7.782   1.995
11687TIP3    H234939   6.861   7.786   2.081
11688TIP3   OH234940   7.456   8.454   3.610
11688TIP3    H134941   7.515   8.417   3.543
11688TIP3    H234942   7.455   8.383   3.676
11689TIP3   OH234943   7.590   8.108   1.752
11689TIP3    H134944   7.590   8.057   1.671
11689TIP3    H234945   7.549   8.194   1.725
11690TIP3   OH234946   7.047   7.838   3.613
11690TIP3    H134947   7.062   7.760   3.556
11690TIP3    H234948   7.016   7.904   3.547
11691TIP3   OH234949   7.059   7.625   3.412
11691TIP3    H134950   7.089   7.667   3.329
11691TIP3    H234951   6.966   7.604   3.392
11692TIP3   OH234952   7.082   8.158   3.293
11692TIP3    H134953   7.174   8.158   3.262
11692TIP3    H234954   7.041   8.227   3.238
11693TIP3   OH234955   7.706   8.137   3.703
11693TIP3    H134956   7.702   8.051   3.659
11693TIP3    H234957   7.720   8.196   3.628
11694TIP3   OH234958   7.717   8.405   3.423
11694TIP3    H134959   7.645   8.395   3.357
11694TIP3    H234960   7.794   8.418   3.364
11695TIP3   OH234961   6.923   7.956   3.836
11695TIP3    H134962   6.859   7.883   3.846
11695TIP3    H234963   6.964   7.934   3.750
11696TIP3   OH234964   7.191   7.390   3.478
11696TIP3    H134965   7.142   7.472   3.456
11696TIP3    H234966   7.121   7.322   3.466
11697TIP3   OH234967   7.330   7.895   3.691
11697TIP3    H134968   7.309   7.890   3.786
11697TIP3    H234969   7.242   7.879   3.652
11698TIP3   OH234970   7.560   7.821   3.542
11698TIP3    H134971   7.482   7.856   3.590
11698TIP3    H234972   7.624   7.804   3.614
11699TIP3   OH234973   7.800   7.787   3.707
11699TIP3    H134974   7.802   7.691   3.722
11699TIP3    H234975   7.789   7.824   3.797
11700TIP3   OH234976   6.751   7.749   3.916
11700TIP3    H134977   6.745   7.671   3.858
11700TIP3    H234978   6.808   7.713   3.987
11701TIP3   OH234979   7.285   7.399   3.735
11701TIP3    H134980   7.353   7.328   3.729
11701TIP3    H234981   7.246   7.393   3.646
11702TIP3   OH234982   7.350   7.611   3.897
11702TIP3    H134983   7.330   7.542   3.830
11702TIP3    H234984   7.276   7.675   3.884
11703TIP3   OH234985   6.572   8.839   1.992
11703TIP3    H134986   6.668   8.843   1.971
11703TIP3    H234987   6.537   8.886   1.915
11704TIP3   OH234988   6.051   8.223   2.214
11704TIP3    H134989   6.145   8.245   2.197
11704TIP3    H234990   6.044   8.135   2.171
11705TIP3   OH234991   5.964   8.840   2.624
11705TIP3    H134992   5.896   8.777   2.590
11705TIP3    H234993   6.008   8.782   2.691
11706TIP3   OH234994   6.098   8.692   2.815
11706TIP3    H134995   6.102   8.615   2.873
11706TIP3    H234996   6.144   8.758   2.870
11707TIP3   OH234997   7.788   9.091   2.607
11707TIP3    H134998   7.831   9.112   2.692
11707TIP3    H234999   7.848   9.141   2.548
11708TIP3   OH235000   7.862   9.105   2.886
11708TIP3    H135001   7.819   9.018   2.886
11708TIP3    H235002   7.942   9.084   2.937
11709TIP3   OH235003   7.908   8.786   3.466
11709TIP3    H135004   7.832   8.792   3.527
11709TIP3    H235005   7.946   8.876   3.472
11710TIP3   OH235006   7.720   8.300   2.087
11710TIP3    H135007   7.791   8.362   2.058
11710TIP3    H235008   7.762   8.260   2.167
11711TIP3   OH235009   7.847   8.167   2.289
11711TIP3    H135010   7.783   8.124   2.349
11711TIP3    H235011   7.913   8.205   2.351
11712TIP3   OH235012   7.902   8.558   2.719
11712TIP3    H135013   7.955   8.494   2.668
11712TIP3    H235014   7.897   8.634   2.657
11713TIP3   OH235015   7.734   8.858   2.914
11713TIP3    H135016   7.664   8.900   2.968
11713TIP3    H235017   7.682   8.809   2.847
11714TIP3   OH235018   7.789   8.074   1.941
11714TIP3    H135019   7.716   8.078   1.876
11714TIP3    H235020   7.764   8.150   1.997
11715TIP3   OH235021   7.656   7.749   1.893
11715TIP3    H135022   7.617   7.780   1.811
11715TIP3    H235023   7.633   7.653   1.890
11716TIP3   OH235024   7.663   8.022   2.436
11716TIP3    H135025   7.671   7.925   2.431
11716TIP3    H235026   7.649   8.036   2.532
11717TIP3   OH235027   6.289   8.098   3.184
11717TIP3    H135028   6.288   8.067   3.091
11717TIP3    H235029   6.386   8.101   3.200
11718TIP3   OH235030   7.957   8.448   3.289
11718TIP3    H135031   8.028   8.381   3.282
11718TIP3    H235032   7.985   8.517   3.227
11719TIP3   OH235033   8.142   8.254   3.309
11719TIP3    H135034   8.065   8.207   3.347
11719TIP3    H235035   8.212   8.187   3.326
11720TIP3   OH235036   7.600   7.485   1.878
11720TIP3    H135037   7.677   7.451   1.930
11720TIP3    H235038   7.528   7.423   1.901
11721TIP3   OH235039   7.659   7.738   2.330
11721TIP3    H135040   7.699   7.649   2.347
11721TIP3    H235041   7.719   7.770   2.261
11722TIP3   OH235042   7.822   7.913   2.824
11722TIP3    H135043   7.908   7.939   2.786
11722TIP3    H235044   7.834   7.948   2.915
11723TIP3   OH235045   7.890   8.055   3.055
11723TIP3    H135046   7.810   8.082   3.103
11723TIP3    H235047   7.920   8.139   3.016
11724TIP3   OH235048   8.344   7.651   3.615
11724TIP3    H135049   8.401   7.583   3.572
11724TIP3    H235050   8.313   7.703   3.538
11725TIP3   OH235051   7.768   7.489   2.369
11725TIP3    H135052   7.816   7.473   2.453
11725TIP3    H235053   7.707   7.411   2.368
11726TIP3   OH235054   6.468   7.476   3.194
11726TIP3    H135055   6.528   7.399   3.200
11726TIP3    H235056   6.532   7.548   3.182
11727TIP3   OH235057   6.273   7.751   3.264
11727TIP3    H135058   6.318   7.736   3.179
11727TIP3    H235059   6.308   7.837   3.288
11728TIP3   OH235060   8.212   7.788   3.421
11728TIP3    H135061   8.125   7.828   3.441
11728TIP3    H235062   8.183   7.717   3.361
11729TIP3   OH235063   7.849   7.425   1.999
11729TIP3    H135064   7.889   7.351   1.949
11729TIP3    H235065   7.918   7.494   1.994
11730TIP3   OH235066   6.254   7.260   2.768
11730TIP3    H135067   6.159   7.250   2.788
11730TIP3    H235068   6.252   7.313   2.686
11731TIP3   OH235069   7.411   8.957   2.268
11731TIP3    H135070   7.462   8.941   2.186
11731TIP3    H235071   7.469   9.019   2.315
11732TIP3   OH235072   6.476   7.343   3.582
11732TIP3    H135073   6.422   7.325   3.661
11732TIP3    H235074   6.408   7.372   3.519
11733TIP3   OH235075   6.515   8.756   3.653
11733TIP3    H135076   6.422   8.730   3.636
11733TIP3    H235077   6.522   8.745   3.748
11734TIP3   OH235078   6.694   8.790   3.199
11734TIP3    H135079   6.643   8.865   3.162
11734TIP3    H235080   6.780   8.807   3.155
11735TIP3   OH235081   7.138   9.039   3.340
11735TIP3    H135082   7.181   9.039   3.429
11735TIP3    H235083   7.205   9.088   3.288
11736TIP3   OH235084   7.317   9.187   3.197
11736TIP3    H135085   7.390   9.138   3.156
11736TIP3    H235086   7.368   9.245   3.258
11737TIP3   OH235087   8.111   7.551   3.298
11737TIP3    H135088   8.020   7.547   3.264
11737TIP3    H235089   8.140   7.457   3.286
11738TIP3   OH235090   6.371   9.048   3.226
11738TIP3    H135091   6.283   9.081   3.200
11738TIP3    H235092   6.378   9.086   3.314
11739TIP3   OH235093   6.602   9.022   3.076
11739TIP3    H135094   6.519   9.035   3.127
11739TIP3    H235095   6.580   9.066   2.992
11740TIP3   OH235096   7.030   9.059   2.880
11740TIP3    H135097   6.969   9.090   2.811
11740TIP3    H235098   7.047   9.143   2.928
11741TIP3   OH235099   7.299   8.995   2.930
11741TIP3    H135100   7.206   9.016   2.911
11741TIP3    H235101   7.346   9.072   2.891
11742TIP3   OH235102   7.499   9.187   2.845
11742TIP3    H135103   7.496   9.274   2.801
11742TIP3    H235104   7.526   9.127   2.772
11743TIP3   OH235105   6.290   8.850   2.962
11743TIP3    H135106   6.305   8.820   3.055
11743TIP3    H235107   6.358   8.797   2.916
11744TIP3   OH235108   6.477   8.708   2.825
11744TIP3    H135109   6.485   8.622   2.873
11744TIP3    H235110   6.568   8.740   2.828
11745TIP3   OH235111   6.772   8.796   2.779
11745TIP3    H135112   6.787   8.700   2.803
11745TIP3    H235113   6.789   8.832   2.868
11746TIP3   OH235114   7.312   7.464   2.911
11746TIP3    H135115   7.271   7.396   2.968
11746TIP3    H235116   7.388   7.416   2.872
11747TIP3   OH235117   7.840   7.345   2.822
11747TIP3    H135118   7.876   7.398   2.747
11747TIP3    H235119   7.745   7.364   2.816
11748TIP3   OH235120   7.935   7.447   2.585
11748TIP3    H135121   8.008   7.395   2.545
11748TIP3    H235122   7.968   7.538   2.571
11749TIP3   OH235123   6.565   7.174   2.934
11749TIP3    H135124   6.473   7.141   2.935
11749TIP3    H235125   6.614   7.089   2.931
11750TIP3   OH235126   6.352   7.043   2.581
11750TIP3    H135127   6.381   7.100   2.508
11750TIP3    H235128   6.323   7.108   2.647
11751TIP3   OH235129   7.006   7.209   2.814
11751TIP3    H135130   7.066   7.258   2.755
11751TIP3    H235131   7.032   7.243   2.900
11752TIP3   OH235132   7.556   7.352   2.798
11752TIP3    H135133   7.553   7.315   2.709
11752TIP3    H235134   7.542   7.272   2.853
11753TIP3   OH235135   7.585   7.275   2.359
11753TIP3    H135136   7.497   7.316   2.371
11753TIP3    H235137   7.571   7.190   2.407
11754TIP3   OH235138   6.069   8.614   2.361
11754TIP3    H135139   5.984   8.580   2.328
11754TIP3    H235140   6.058   8.708   2.341
11755TIP3   OH235141   6.467   7.203   2.345
11755TIP3    H135142   6.515   7.140   2.288
11755TIP3    H235143   6.541   7.256   2.381
11756TIP3   OH235144   6.980   7.379   2.443
11756TIP3    H135145   7.039   7.330   2.503
11756TIP3    H235146   7.004   7.471   2.469
11757TIP3   OH235147   6.842   8.807   1.945
11757TIP3    H135148   6.930   8.828   1.908
11757TIP3    H235149   6.820   8.731   1.887
11758TIP3   OH235150   7.549   8.916   2.035
11758TIP3    H135151   7.541   8.819   2.020
11758TIP3    H235152   7.511   8.951   1.953
11759TIP3   OH235153   6.767   7.461   3.829
11759TIP3    H135154   6.739   7.385   3.882
11759TIP3    H235155   6.862   7.464   3.852
11760TIP3   OH235156   7.019   7.459   3.948
11760TIP3    H135157   7.103   7.435   3.904
11760TIP3    H235158   7.010   7.386   4.013
11761TIP3   OH235159   6.147   8.642   1.999
11761TIP3    H135160   6.145   8.667   2.092
11761TIP3    H235161   6.234   8.597   1.990
11762TIP3   OH235162   7.845   7.513   3.732
11762TIP3    H135163   7.865   7.481   3.822
11762TIP3    H235164   7.934   7.508   3.689
11763TIP3   OH235165   7.784   9.065   3.226
11763TIP3    H135166   7.706   9.034   3.175
11763TIP3    H235167   7.767   9.161   3.225
11764TIP3   OH235168   8.352   8.326   2.731
11764TIP3    H135169   8.381   8.263   2.800
11764TIP3    H235170   8.416   8.398   2.744
11765TIP3   OH235171   8.304   8.713   2.451
11765TIP3    H135172   8.321   8.617   2.457
11765TIP3    H235173   8.385   8.752   2.485
11766TIP3   OH235174   8.029   7.948   2.247
11766TIP3    H135175   7.979   8.030   2.260
11766TIP3    H235176   7.958   7.891   2.211
11767TIP3   OH235177   8.088   8.234   2.416
11767TIP3    H135178   8.136   8.156   2.452
11767TIP3    H235179   8.147   8.261   2.344
11768TIP3   OH235180   8.594   7.826   2.419
11768TIP3    H135181   8.578   7.897   2.354
11768TIP3    H235182   8.549   7.751   2.372
11769TIP3   OH235183   8.234   8.029   2.523
11769TIP3    H135184   8.316   8.005   2.571
11769TIP3    H235185   8.246   7.972   2.443
11770TIP3   OH235186   8.670   8.236   2.318
11770TIP3    H135187   8.765   8.215   2.307
11770TIP3    H235188   8.629   8.152   2.287
11771TIP3   OH235189   8.594   7.807   2.851
11771TIP3    H135190   8.533   7.843   2.783
11771TIP3    H235191   8.543   7.825   2.932
11772TIP3   OH235192   8.466   7.924   2.636
11772TIP3    H135193   8.531   7.994   2.658
11772TIP3    H235194   8.512   7.881   2.560
11773TIP3   OH235195   7.925   8.461   1.978
11773TIP3    H135196   7.876   8.499   1.904
11773TIP3    H235197   7.948   8.542   2.029
11774TIP3   OH235198   8.947   7.515   2.571
11774TIP3    H135199   8.934   7.420   2.592
11774TIP3    H235200   8.870   7.554   2.617
11775TIP3   OH235201   8.433   8.346   2.223
11775TIP3    H135202   8.403   8.309   2.137
11775TIP3    H235203   8.526   8.316   2.224
11776TIP3   OH235204   8.610   8.354   2.560
11776TIP3    H135205   8.608   8.315   2.470
11776TIP3    H235206   8.592   8.448   2.541
11777TIP3   OH235207   8.488   8.451   2.980
11777TIP3    H135208   8.492   8.535   3.030
11777TIP3    H235209   8.393   8.429   2.995
11778TIP3   OH235210   8.331   8.212   2.001
11778TIP3    H135211   8.261   8.254   1.947
11778TIP3    H235212   8.289   8.128   2.024
11779TIP3   OH235213   8.103   8.589   2.920
11779TIP3    H135214   8.035   8.568   2.852
11779TIP3    H235215   8.137   8.501   2.944
11780TIP3   OH235216   7.967   8.789   2.555
11780TIP3    H135217   8.061   8.778   2.532
11780TIP3    H235218   7.969   8.863   2.616
11781TIP3   OH235219   8.301   8.772   2.915
11781TIP3    H135220   8.352   8.742   2.993
11781TIP3    H235221   8.235   8.700   2.908
11782TIP3   OH235222   8.712   7.601   2.693
11782TIP3    H135223   8.622   7.572   2.669
11782TIP3    H235224   8.691   7.685   2.737
11783TIP3   OH235225   9.247   7.709   2.876
11783TIP3    H135226   9.318   7.696   2.942
11783TIP3    H235227   9.166   7.703   2.930
11784TIP3   OH235228   8.852   7.637   1.669
11784TIP3    H135229   8.813   7.643   1.758
11784TIP3    H235230   8.803   7.559   1.634
11785TIP3   OH235231   8.640   8.126   2.711
11785TIP3    H135232   8.585   8.137   2.792
11785TIP3    H235233   8.620   8.207   2.661
11786TIP3   OH235234   8.530   8.009   2.228
11786TIP3    H135235   8.438   7.981   2.242
11786TIP3    H235236   8.547   7.970   2.139
11787TIP3   OH235237   8.466   8.147   2.923
11787TIP3    H135238   8.483   8.208   2.995
11787TIP3    H235239   8.453   8.063   2.971
11788TIP3   OH235240   8.508   7.621   1.636
11788TIP3    H135241   8.501   7.619   1.733
11788TIP3    H235242   8.428   7.671   1.611
11789TIP3   OH235243   8.057   7.672   2.500
11789TIP3    H135244   8.134   7.701   2.554
11789TIP3    H235245   8.098   7.636   2.420
11790TIP3   OH235246   8.031   7.650   2.021
11790TIP3    H135247   8.078   7.688   1.944
11790TIP3    H235248   7.971   7.723   2.043
11791TIP3   OH235249   8.843   7.834   2.287
11791TIP3    H135250   8.766   7.828   2.347
11791TIP3    H235251   8.917   7.813   2.348
11792TIP3   OH235252   8.292   7.883   2.296
11792TIP3    H135253   8.197   7.889   2.268
11792TIP3    H235254   8.316   7.791   2.273
11793TIP3   OH235255   8.560   7.878   1.986
11793TIP3    H135256   8.653   7.901   1.968
11793TIP3    H235257   8.515   7.900   1.902
11794TIP3   OH235258   8.397   7.903   1.765
11794TIP3    H135259   8.319   7.857   1.729
11794TIP3    H235260   8.428   7.947   1.685
11795TIP3   OH235261   8.467   8.685   3.124
11795TIP3    H135262   8.535   8.750   3.145
11795TIP3    H235263   8.409   8.690   3.203
11796TIP3   OH235264   8.463   7.644   2.262
11796TIP3    H135265   8.431   7.563   2.308
11796TIP3    H235266   8.512   7.607   2.187
11797TIP3   OH235267   8.913   8.030   2.695
11797TIP3    H135268   8.829   8.079   2.681
11797TIP3    H235269   8.979   8.101   2.696
11798TIP3   OH235270   8.354   8.447   2.458
11798TIP3    H135271   8.374   8.411   2.368
11798TIP3    H235272   8.367   8.370   2.515
11799TIP3   OH235273   8.228   8.379   3.057
11799TIP3    H135274   8.243   8.368   3.153
11799TIP3    H235275   8.155   8.317   3.041
11800TIP3   OH235276   8.012   8.074   1.776
11800TIP3    H135277   8.058   8.159   1.794
11800TIP3    H235278   7.937   8.079   1.840
11801TIP3   OH235279   8.436   7.893   3.067
11801TIP3    H135280   8.339   7.895   3.081
11801TIP3    H235281   8.464   7.830   3.136
11802TIP3   OH235282   8.147   8.963   2.771
11802TIP3    H135283   8.172   8.880   2.817
11802TIP3    H235284   8.208   9.023   2.816
11803TIP3   OH235285   8.130   8.320   1.848
11803TIP3    H135286   8.069   8.375   1.902
11803TIP3    H235287   8.195   8.386   1.818
11804TIP3   OH235288   8.844   7.877   2.017
11804TIP3    H135289   8.924   7.929   2.001
11804TIP3    H235290   8.842   7.876   2.116
11805TIP3   OH235291   8.982   7.622   2.127
11805TIP3    H135292   8.956   7.689   2.194
11805TIP3    H235293   9.048   7.675   2.079
11806TIP3   OH235294   8.497   7.610   1.912
11806TIP3    H135295   8.499   7.702   1.945
11806TIP3    H235296   8.593   7.589   1.919
11807TIP3   OH235297   8.065   7.804   1.798
11807TIP3    H135298   8.061   7.902   1.792
11807TIP3    H235299   7.988   7.777   1.748
11808TIP3   OH235300   8.447   7.524   2.669
11808TIP3    H135301   8.417   7.490   2.582
11808TIP3    H235302   8.438   7.445   2.727
11809TIP3   OH235303   7.958   8.715   2.068
11809TIP3    H135304   7.895   8.779   2.104
11809TIP3    H235305   7.974   8.752   1.980
11810TIP3   OH235306   8.118   9.256   3.176
11810TIP3    H135307   8.211   9.259   3.148
11810TIP3    H235308   8.092   9.169   3.141
11811TIP3   OH235309   8.274   8.689   3.324
11811TIP3    H135310   8.290   8.592   3.327
11811TIP3    H235311   8.187   8.692   3.279
11812TIP3   OH235312   8.396   8.426   3.302
11812TIP3    H135313   8.466   8.362   3.284
11812TIP3    H235314   8.420   8.456   3.392
11813TIP3   OH235315   8.440   8.203   1.710
11813TIP3    H135316   8.416   8.181   1.801
11813TIP3    H235317   8.516   8.145   1.692
11814TIP3   OH235318   8.725   8.308   2.961
11814TIP3    H135319   8.648   8.366   2.975
11814TIP3    H235320   8.735   8.308   2.865
11815TIP3   OH235321   8.842   8.093   3.095
11815TIP3    H135322   8.847   8.012   3.040
11815TIP3    H235323   8.808   8.159   3.032
11816TIP3   OH235324   8.850   7.877   2.910
11816TIP3    H135325   8.881   7.921   2.828
11816TIP3    H235326   8.758   7.854   2.885
11817TIP3   OH235327   8.728   8.210   3.321
11817TIP3    H135328   8.661   8.140   3.334
11817TIP3    H235329   8.764   8.184   3.234
11818TIP3   OH235330   8.986   7.645   2.967
11818TIP3    H135331   8.937   7.727   2.946
11818TIP3    H235332   8.916   7.577   2.954
11819TIP3   OH235333   9.084   8.194   3.208
11819TIP3    H135334   9.069   8.148   3.293
11819TIP3    H235335   9.007   8.161   3.157
11820TIP3   OH235336   8.572   7.990   3.374
11820TIP3    H135337   8.577   7.900   3.336
11820TIP3    H235338   8.607   7.972   3.464
11821TIP3   OH235339   9.079   7.653   3.223
11821TIP3    H135340   9.149   7.585   3.217
11821TIP3    H235341   9.042   7.649   3.132
11822TIP3   OH235342   9.138   7.864   3.386
11822TIP3    H135343   9.123   7.795   3.317
11822TIP3    H235344   9.060   7.922   3.373
11823TIP3   OH235345   7.848   8.485   1.686
11823TIP3    H135346   7.942   8.510   1.691
11823TIP3    H235347   7.853   8.393   1.653
11824TIP3   OH235348   7.743   9.091   2.115
11824TIP3    H135349   7.684   9.021   2.081
11824TIP3    H235350   7.804   9.039   2.172
11825TIP3   OH235351   7.890   8.939   2.291
11825TIP3    H135352   7.893   8.871   2.361
11825TIP3    H235353   7.933   9.013   2.335
11826TIP3   OH235354   8.085   8.352   2.669
11826TIP3    H135355   8.082   8.323   2.575
11826TIP3    H235356   8.182   8.352   2.684
11827TIP3   OH235357   8.305   8.041   3.348
11827TIP3    H135358   8.403   8.030   3.347
11827TIP3    H235359   8.278   7.955   3.386
11828TIP3   OH235360   8.264   7.732   2.675
11828TIP3    H135361   8.325   7.656   2.685
11828TIP3    H235362   8.327   7.806   2.669
11829TIP3   OH235363   8.069   8.006   2.749
11829TIP3    H135364   8.117   7.999   2.664
11829TIP3    H235365   8.097   8.093   2.780
11830TIP3   OH235366   8.051   7.510   2.251
11830TIP3    H135367   7.957   7.506   2.276
11830TIP3    H235368   8.048   7.568   2.171
11831TIP3   OH235369   8.271   7.591   3.065
11831TIP3    H135370   8.219   7.584   3.147
11831TIP3    H235371   8.203   7.628   3.004
11832TIP3   OH235372   8.301   9.015   3.190
11832TIP3    H135373   8.230   8.995   3.128
11832TIP3    H235374   8.272   8.969   3.269
11833TIP3   OH235375   9.051   7.719   2.408
11833TIP3    H135376   9.035   7.645   2.469
11833TIP3    H235377   9.139   7.701   2.372
11834TIP3   OH235378   8.361   7.431   2.421
11834TIP3    H135379   8.269   7.397   2.422
11834TIP3    H235380   8.410   7.346   2.417
11835TIP3   OH235381   8.146   7.300   2.067
11835TIP3    H135382   8.178   7.358   1.995
11835TIP3    H235383   8.119   7.365   2.134
11836TIP3   OH235384   8.803   7.462   2.302
11836TIP3    H135385   8.862   7.513   2.245
11836TIP3    H235386   8.824   7.497   2.390
11837TIP3   OH235387   9.426   7.500   2.233
11837TIP3    H135388   9.373   7.575   2.205
11837TIP3    H235389   9.371   7.464   2.306
11838TIP3   OH235390   7.831   8.862   1.856
11838TIP3    H135391   7.754   8.813   1.822
11838TIP3    H235392   7.811   8.950   1.818
11839TIP3   OH235393   8.263   7.460   1.831
11839TIP3    H135394   8.312   7.397   1.775
11839TIP3    H235395   8.337   7.513   1.869
11840TIP3   OH235396   8.771   7.630   1.935
11840TIP3    H135397   8.834   7.587   1.995
11840TIP3    H235398   8.791   7.724   1.957
11841TIP3   OH235399   8.569   7.714   3.312
11841TIP3    H135400   8.535   7.642   3.368
11841TIP3    H235401   8.663   7.713   3.338
11842TIP3   OH235402   8.818   7.710   3.431
11842TIP3    H135403   8.902   7.686   3.389
11842TIP3    H235404   8.808   7.638   3.497
11843TIP3   OH235405   9.587   7.748   3.241
11843TIP3    H135406   9.640   7.751   3.323
11843TIP3    H235407   9.652   7.771   3.173
11844TIP3   OH235408   0.541   8.533   4.621
11844TIP3    H135409   0.498   8.618   4.637
11844TIP3    H235410   0.546   8.534   4.524
11845TIP3   OH235411   0.799   8.437   5.313
11845TIP3    H135412   0.853   8.371   5.265
11845TIP3    H235413   0.761   8.488   5.239
11846TIP3   OH235414   0.664   8.573   5.112
11846TIP3    H135415   0.574   8.605   5.121
11846TIP3    H235416   0.652   8.498   5.051
11847TIP3   OH235417   0.298   8.221   3.692
11847TIP3    H135418   0.336   8.144   3.647
11847TIP3    H235419   0.369   8.287   3.684
11848TIP3   OH235420   0.567   8.337   4.983
11848TIP3    H135421   0.476   8.340   4.951
11848TIP3    H235422   0.588   8.242   4.970
11849TIP3   OH235423   0.378   8.224   4.250
11849TIP3    H135424   0.464   8.185   4.225
11849TIP3    H235425   0.402   8.318   4.259
11850TIP3   OH235426   0.463   8.734   3.930
11850TIP3    H135427   0.450   8.823   3.967
11850TIP3    H235428   0.411   8.680   3.991
11851TIP3   OH235429   2.314   8.772   4.105
11851TIP3    H135430   2.346   8.856   4.142
11851TIP3    H235431   2.334   8.785   4.010
11852TIP3   OH235432   1.716   8.955   4.134
11852TIP3    H135433   1.756   8.869   4.156
11852TIP3    H235434   1.678   8.935   4.046
11853TIP3   OH235435   1.052   8.612   4.107
11853TIP3    H135436   1.034   8.685   4.044
11853TIP3    H235437   1.004   8.539   4.062
11854TIP3   OH235438   1.744   8.700   3.734
11854TIP3    H135439   1.820   8.686   3.794
11854TIP3    H235440   1.789   8.736   3.656
11855TIP3   OH235441   0.673   8.797   4.216
11855TIP3    H135442   0.757   8.792   4.265
11855TIP3    H235443   0.699   8.758   4.131
11856TIP3   OH235444   1.137   9.016   3.997
11856TIP3    H135445   1.224   8.979   4.023
11856TIP3    H235446   1.089   8.938   3.964
11857TIP3   OH235447   2.401   8.978   4.281
11857TIP3    H135448   2.327   9.025   4.238
11857TIP3    H235449   2.369   8.977   4.373
11858TIP3   OH235450   1.049   8.597   4.542
11858TIP3    H135451   0.987   8.629   4.473
11858TIP3    H235452   0.997   8.615   4.623
11859TIP3   OH235453   1.959   8.706   3.898
11859TIP3    H135454   1.952   8.654   3.979
11859TIP3    H235455   2.008   8.785   3.928
11860TIP3   OH235456   0.919   8.707   4.327
11860TIP3    H135457   0.979   8.782   4.341
11860TIP3    H235458   0.965   8.664   4.250
11861TIP3   OH235459   2.107   8.681   4.276
11861TIP3    H135460   2.018   8.699   4.241
11861TIP3    H235461   2.165   8.706   4.201
11862TIP3   OH235462   1.407   8.316   4.255
11862TIP3    H135463   1.392   8.221   4.271
11862TIP3    H235464   1.329   8.354   4.301
11863TIP3   OH235465   1.287   8.842   3.250
11863TIP3    H135466   1.352   8.914   3.264
11863TIP3    H235467   1.337   8.791   3.185
11864TIP3   OH235468   1.947   9.199   4.378
11864TIP3    H135469   1.953   9.285   4.334
11864TIP3    H235470   1.856   9.171   4.350
11865TIP3   OH235471   2.040   8.260   3.358
11865TIP3    H135472   1.957   8.278   3.407
11865TIP3    H235473   2.049   8.342   3.305
11866TIP3   OH235474   2.164   9.154   4.569
11866TIP3    H135475   2.083   9.162   4.516
11866TIP3    H235476   2.185   9.060   4.556
11867TIP3   OH235477   1.168   8.391   4.383
11867TIP3    H135478   1.079   8.359   4.358
11867TIP3    H235479   1.143   8.475   4.427
11868TIP3   OH235480   1.699   8.509   4.577
11868TIP3    H135481   1.767   8.478   4.641
11868TIP3    H235482   1.615   8.487   4.622
11869TIP3   OH235483   1.947   8.929   4.505
11869TIP3    H135484   1.894   8.919   4.588
11869TIP3    H235485   1.906   9.006   4.463
11870TIP3   OH235486   1.313   8.439   3.354
11870TIP3    H135487   1.279   8.438   3.445
11870TIP3    H235488   1.276   8.355   3.321
11871TIP3   OH235489   1.092   8.916   4.389
11871TIP3    H135490   1.035   8.925   4.468
11871TIP3    H235491   1.069   8.994   4.337
11872TIP3   OH235492   0.983   8.792   3.917
11872TIP3    H135493   0.890   8.766   3.930
11872TIP3    H235494   0.998   8.755   3.827
11873TIP3   OH235495   1.483   8.881   3.645
11873TIP3    H135496   1.402   8.929   3.617
11873TIP3    H235497   1.526   8.861   3.560
11874TIP3   OH235498   1.657   9.133   4.720
11874TIP3    H135499   1.650   9.057   4.781
11874TIP3    H235500   1.738   9.177   4.753
11875TIP3   OH235501   1.620   8.897   3.883
11875TIP3    H135502   1.561   8.914   3.807
11875TIP3    H235503   1.664   8.817   3.846
11876TIP3   OH235504   0.931   8.938   4.636
11876TIP3    H135505   0.884   8.980   4.709
11876TIP3    H235506   0.906   8.845   4.653
11877TIP3   OH235507   0.968   8.410   3.322
11877TIP3    H135508   0.962   8.412   3.419
11877TIP3    H235509   0.892   8.466   3.297
11878TIP3   OH235510   0.514   8.463   4.169
11878TIP3    H135511   0.575   8.495   4.240
11878TIP3    H235512   0.572   8.411   4.114
11879TIP3   OH235513   0.483   8.453   3.719
11879TIP3    H135514   0.523   8.473   3.632
11879TIP3    H235515   0.453   8.542   3.742
11880TIP3   OH235516   1.691   9.140   4.330
11880TIP3    H135517   1.692   9.075   4.256
11880TIP3    H235518   1.619   9.099   4.384
11881TIP3   OH235519   1.309   8.609   3.977
11881TIP3    H135520   1.225   8.611   4.027
11881TIP3    H235521   1.374   8.624   4.049
11882TIP3   OH235522   0.741   8.673   3.976
11882TIP3    H135523   0.648   8.668   3.948
11882TIP3    H235524   0.773   8.582   3.962
11883TIP3   OH235525   1.017   8.668   3.674
11883TIP3    H135526   1.109   8.687   3.650
11883TIP3    H235527   0.967   8.691   3.593
11884TIP3   OH235528   1.800   8.691   4.182
11884TIP3    H135529   1.762   8.702   4.272
11884TIP3    H235530   1.737   8.628   4.143
11885TIP3   OH235531   0.843   8.681   3.454
11885TIP3    H135532   0.781   8.649   3.386
11885TIP3    H235533   0.887   8.753   3.406
11886TIP3   OH235534   1.386   8.922   4.068
11886TIP3    H135535   1.469   8.902   4.022
11886TIP3    H235536   1.408   8.907   4.161
11887TIP3   OH235537   0.913   8.434   3.953
11887TIP3    H135538   0.882   8.352   3.997
11887TIP3    H235539   0.963   8.399   3.878
11888TIP3   OH235540   1.366   8.830   4.372
11888TIP3    H135541   1.279   8.873   4.365
11888TIP3    H235542   1.421   8.899   4.415
11889TIP3   OH235543   1.562   8.553   3.324
11889TIP3    H135544   1.466   8.533   3.328
11889TIP3    H235545   1.566   8.649   3.343
11890TIP3   OH235546   1.627   8.808   3.421
11890TIP3    H135547   1.723   8.809   3.434
11890TIP3    H235548   1.614   8.875   3.350
11891TIP3   OH235549   1.403   9.162   4.839
11891TIP3    H135550   1.346   9.196   4.768
11891TIP3    H235551   1.491   9.159   4.796
11892TIP3   OH235552   2.088   8.905   3.215
11892TIP3    H135553   2.030   8.843   3.164
11892TIP3    H235554   2.020   8.956   3.262
11893TIP3   OH235555   0.896   8.678   4.762
11893TIP3    H135556   0.800   8.667   4.773
11893TIP3    H235557   0.926   8.608   4.823
11894TIP3   OH235558   1.723   8.748   4.443
11894TIP3    H135559   1.808   8.774   4.481
11894TIP3    H235560   1.704   8.665   4.491
11895TIP3   OH235561   1.605   8.494   3.601
11895TIP3    H135562   1.590   8.518   3.507
11895TIP3    H235563   1.643   8.577   3.637
11896TIP3   OH235564   1.303   8.672   3.705
11896TIP3    H135565   1.370   8.741   3.688
11896TIP3    H235566   1.304   8.667   3.803
11897TIP3   OH235567   1.553   8.987   4.508
11897TIP3    H135568   1.584   9.037   4.587
11897TIP3    H235569   1.606   8.906   4.513
11898TIP3   OH235570   1.442   8.402   3.809
11898TIP3    H135571   1.427   8.481   3.864
11898TIP3    H235572   1.501   8.438   3.740
11899TIP3   OH235573   0.951   8.398   3.599
11899TIP3    H135574   0.949   8.491   3.628
11899TIP3    H235575   1.048   8.381   3.607
11900TIP3   OH235576   2.211   8.893   4.485
11900TIP3    H135577   2.114   8.891   4.502
11900TIP3    H235578   2.211   8.838   4.405
11901TIP3   OH235579   1.849   9.069   3.858
11901TIP3    H135580   1.777   9.012   3.889
11901TIP3    H235581   1.922   9.044   3.918
11902TIP3   OH235582   0.503   8.593   3.489
11902TIP3    H135583   0.527   8.684   3.467
11902TIP3    H235584   0.435   8.569   3.423
11903TIP3   OH235585   0.905   8.308   4.359
11903TIP3    H135586   0.871   8.280   4.272
11903TIP3    H235587   0.890   8.229   4.414
11904TIP3   OH235588   0.875   9.200   4.963
11904TIP3    H135589   0.902   9.113   4.995
11904TIP3    H235590   0.872   9.255   5.044
11905TIP3   OH235591   1.193   9.042   4.619
11905TIP3    H135592   1.098   9.026   4.636
11905TIP3    H235593   1.198   9.041   4.522
11906TIP3   OH235594   1.009   8.839   3.303
11906TIP3    H135595   0.983   8.784   3.226
11906TIP3    H235596   1.106   8.832   3.302
11907TIP3   OH235597   1.312   8.860   4.792
11907TIP3    H135598   1.313   8.779   4.737
11907TIP3    H235599   1.274   8.925   4.729
11908TIP3   OH235600   1.308   8.664   4.589
11908TIP3    H135601   1.335   8.711   4.507
11908TIP3    H235602   1.214   8.644   4.571
11909TIP3   OH235603   1.920   9.185   4.831
11909TIP3    H135604   1.936   9.096   4.866
11909TIP3    H235605   2.007   9.210   4.800
11910TIP3   OH235606   1.171   9.003   5.008
11910TIP3    H135607   1.114   8.924   5.014
11910TIP3    H235608   1.219   8.986   4.925
11911TIP3   OH235609   1.441   8.432   4.654
11911TIP3    H135610   1.392   8.514   4.631
11911TIP3    H235611   1.372   8.365   4.642
11912TIP3   OH235612   1.577   8.919   4.868
11912TIP3    H135613   1.561   8.917   4.964
11912TIP3    H235614   1.484   8.903   4.839
11913TIP3   OH235615   1.813   8.879   4.732
11913TIP3    H135616   1.731   8.876   4.785
11913TIP3    H235617   1.879   8.843   4.793
11914TIP3   OH235618   2.055   8.832   4.879
11914TIP3    H135619   2.059   8.736   4.896
11914TIP3    H235620   2.036   8.869   4.969
11915TIP3   OH235621   1.028   8.776   5.062
11915TIP3    H135622   1.030   8.686   5.024
11915TIP3    H235623   1.062   8.760   5.152
11916TIP3   OH235624   1.534   8.444   4.912
11916TIP3    H135625   1.602   8.373   4.906
11916TIP3    H235626   1.494   8.438   4.823
11917TIP3   OH235627   1.601   8.658   5.071
11917TIP3    H135628   1.578   8.588   5.007
11917TIP3    H235629   1.524   8.718   5.066
11918TIP3   OH235630   1.914   8.794   3.053
11918TIP3    H135631   1.851   8.826   2.987
11918TIP3    H235632   1.887   8.699   3.058
11919TIP3   OH235633   1.965   9.029   3.614
11919TIP3    H135634   1.939   8.937   3.628
11919TIP3    H235635   1.936   9.068   3.700
11920TIP3   OH235636   2.370   9.327   4.509
11920TIP3    H135637   2.301   9.260   4.530
11920TIP3    H235638   2.450   9.273   4.511
11921TIP3   OH235639   1.847   8.534   3.065
11921TIP3    H135640   1.921   8.491   3.111
11921TIP3    H235641   1.773   8.472   3.077
11922TIP3   OH235642   1.898   8.770   3.514
11922TIP3    H135643   1.937   8.680   3.527
11922TIP3    H235644   1.963   8.808   3.455
11923TIP3   OH235645   2.068   8.954   3.994
11923TIP3    H135646   2.152   8.983   3.951
11923TIP3    H235647   2.085   8.990   4.083
11924TIP3   OH235648   2.148   9.083   4.224
11924TIP3    H135649   2.072   9.113   4.276
11924TIP3    H235650   2.196   9.168   4.209
11925TIP3   OH235651   0.765   8.842   5.055
11925TIP3    H135652   0.860   8.823   5.044
11925TIP3    H235653   0.730   8.754   5.074
11926TIP3   OH235654   2.576   8.682   4.788
11926TIP3    H135655   2.645   8.618   4.761
11926TIP3    H235656   2.574   8.743   4.713
11927TIP3   OH235657   2.020   8.530   3.544
11927TIP3    H135658   2.065   8.514   3.630
11927TIP3    H235659   1.958   8.454   3.542
11928TIP3   OH235660   0.712   8.511   4.353
11928TIP3    H135661   0.779   8.442   4.373
11928TIP3    H235662   0.767   8.591   4.355
11929TIP3   OH235663   0.546   8.796   4.464
11929TIP3    H135664   0.577   8.787   4.372
11929TIP3    H235665   0.518   8.889   4.465
11930TIP3   OH235666   2.453   8.839   4.591
11930TIP3    H135667   2.356   8.854   4.586
11930TIP3    H235668   2.456   8.754   4.542
11931TIP3   OH235669   2.100   8.466   3.178
11931TIP3    H135670   2.131   8.391   3.122
11931TIP3    H235671   2.170   8.533   3.164
11932TIP3   OH235672   0.509   8.286   3.926
11932TIP3    H135673   0.430   8.312   3.975
11932TIP3    H235674   0.509   8.350   3.852
11933TIP3   OH235675   0.743   8.437   4.785
11933TIP3    H135676   0.682   8.390   4.844
11933TIP3    H235677   0.681   8.454   4.710
11934TIP3   OH235678   2.360   8.592   4.476
11934TIP3    H135679   2.269   8.580   4.443
11934TIP3    H235680   2.394   8.500   4.466
11935TIP3   OH235681   1.573   8.513   4.101
11935TIP3    H135682   1.522   8.444   4.147
11935TIP3    H235683   1.635   8.460   4.048
11936TIP3   OH235684   2.090   8.396   4.003
11936TIP3    H135685   2.125   8.445   3.925
11936TIP3    H235686   1.993   8.406   3.991
11937TIP3   OH235687   2.184   8.494   3.764
11937TIP3    H135688   2.257   8.441   3.723
11937TIP3    H235689   2.217   8.586   3.747
11938TIP3   OH235690   0.813   8.219   4.110
11938TIP3    H135691   0.722   8.182   4.110
11938TIP3    H235692   0.865   8.136   4.107
11939TIP3   OH235693   0.600   8.083   3.757
11939TIP3    H135694   0.631   8.140   3.684
11939TIP3    H235695   0.572   8.150   3.823
11940TIP3   OH235696   1.256   8.251   3.991
11940TIP3    H135697   1.314   8.300   3.931
11940TIP3    H235698   1.277   8.291   4.076
11941TIP3   OH235699   1.810   8.396   3.972
11941TIP3    H135700   1.800   8.360   3.884
11941TIP3    H235701   1.793   8.317   4.029
11942TIP3   OH235702   1.834   8.321   3.538
11942TIP3    H135703   1.746   8.362   3.546
11942TIP3    H235704   1.819   8.235   3.583
11943TIP3   OH235705   0.717   8.247   3.525
11943TIP3    H135706   0.766   8.185   3.467
11943TIP3    H235707   0.790   8.303   3.559
11944TIP3   OH235708   1.228   8.423   3.620
11944TIP3    H135709   1.290   8.376   3.679
11944TIP3    H235710   1.250   8.516   3.645
11945TIP3   OH235711   1.023   8.500   5.000
11945TIP3    H135712   0.987   8.432   5.059
11945TIP3    H235713   1.117   8.501   5.030
11946TIP3   OH235714   1.270   8.497   5.122
11946TIP3    H135715   1.355   8.474   5.080
11946TIP3    H235716   1.261   8.424   5.187
11947TIP3   OH235717   2.094   8.560   4.909
11947TIP3    H135718   2.112   8.526   4.999
11947TIP3    H235719   2.182   8.553   4.866
11948TIP3   OH235720   2.272   9.018   3.417
11948TIP3    H135721   2.239   9.084   3.480
11948TIP3    H235722   2.212   8.944   3.434
11949TIP3   OH235723   4.110   9.028   3.592
11949TIP3    H135724   4.143   9.112   3.629
11949TIP3    H235725   4.134   9.039   3.498
11950TIP3   OH235726   3.509   9.213   3.623
11950TIP3    H135727   3.552   9.127   3.645
11950TIP3    H235728   3.474   9.193   3.535
11951TIP3   OH235729   2.848   8.868   3.594
11951TIP3    H135730   2.830   8.941   3.531
11951TIP3    H235731   2.801   8.795   3.548
11952TIP3   OH235732   3.542   8.958   3.217
11952TIP3    H135733   3.615   8.942   3.281
11952TIP3    H235734   3.593   8.994   3.141
11953TIP3   OH235735   2.471   9.053   3.708
11953TIP3    H135736   2.558   9.045   3.751
11953TIP3    H235737   2.492   9.017   3.620
11954TIP3   OH235738   2.932   9.272   3.485
11954TIP3    H135739   3.020   9.235   3.510
11954TIP3    H235740   2.885   9.193   3.451
11955TIP3   OH235741   4.198   9.232   3.767
11955TIP3    H135742   4.121   9.279   3.729
11955TIP3    H235743   4.174   9.232   3.860
11956TIP3   OH235744   2.845   8.855   4.029
11956TIP3    H135745   2.783   8.885   3.960
11956TIP3    H235746   2.792   8.871   4.109
11957TIP3   OH235747   3.752   8.963   3.386
11957TIP3    H135748   3.752   8.910   3.466
11957TIP3    H235749   3.805   9.041   3.412
11958TIP3   OH235750   2.715   8.962   3.812
11958TIP3    H135751   2.775   9.038   3.829
11958TIP3    H235752   2.762   8.920   3.737
11959TIP3   OH235753   3.904   8.934   3.762
11959TIP3    H135754   3.816   8.957   3.728
11959TIP3    H235755   3.963   8.962   3.689
11960TIP3   OH235756   3.203   8.572   3.742
11960TIP3    H135757   3.189   8.477   3.759
11960TIP3    H235758   3.125   8.610   3.788
11961TIP3   OH235759   3.080   9.092   2.738
11961TIP3    H135760   3.133   9.162   2.778
11961TIP3    H235761   3.143   9.055   2.673
11962TIP3   OH235762   3.744   9.457   3.864
11962TIP3    H135763   3.746   9.542   3.816
11962TIP3    H235764   3.653   9.426   3.838
11963TIP3   OH235765   3.836   8.517   2.843
11963TIP3    H135766   3.754   8.536   2.893
11963TIP3    H235767   3.847   8.600   2.792
11964TIP3   OH235768   3.988   9.438   4.043
11964TIP3    H135769   3.906   9.432   3.992
11964TIP3    H235770   4.011   9.344   4.049
11965TIP3   OH235771   2.963   8.648   3.869
11965TIP3    H135772   2.873   8.617   3.844
11965TIP3    H235773   2.939   8.731   3.914
11966TIP3   OH235774   3.496   8.766   4.064
11966TIP3    H135775   3.563   8.736   4.128
11966TIP3    H235776   3.412   8.743   4.109
11967TIP3   OH235777   3.743   9.184   3.990
11967TIP3    H135778   3.691   9.176   4.073
11967TIP3    H235779   3.708   9.265   3.951
11968TIP3   OH235780   3.111   8.696   2.841
11968TIP3    H135781   3.075   8.694   2.932
11968TIP3    H235782   3.072   8.613   2.807
11969TIP3   OH235783   2.887   9.170   3.872
11969TIP3    H135784   2.838   9.181   3.955
11969TIP3    H235785   2.869   9.252   3.824
11970TIP3   OH235786   2.780   9.047   3.403
11970TIP3    H135787   2.686   9.021   3.417
11970TIP3    H235788   2.794   9.011   3.313
11971TIP3   OH235789   3.279   9.137   3.132
11971TIP3    H135790   3.199   9.187   3.106
11971TIP3    H235791   3.323   9.120   3.047
11972TIP3   OH235792   3.453   9.399   4.216
11972TIP3    H135793   3.450   9.318   4.272
11972TIP3    H235794   3.541   9.432   4.238
11973TIP3   OH235795   3.417   9.153   3.371
11973TIP3    H135796   3.358   9.170   3.294
11973TIP3    H235797   3.462   9.074   3.334
11974TIP3   OH235798   2.720   9.194   4.122
11974TIP3    H135799   2.685   9.235   4.201
11974TIP3    H235800   2.695   9.101   4.139
11975TIP3   OH235801   2.770   8.669   2.808
11975TIP3    H135802   2.759   8.671   2.905
11975TIP3    H235803   2.685   8.706   2.778
11976TIP3   OH235804   2.305   8.723   3.671
11976TIP3    H135805   2.381   8.747   3.729
11976TIP3    H235806   2.345   8.673   3.599
11977TIP3   OH235807   2.281   8.692   3.196
11977TIP3    H135808   2.352   8.725   3.139
11977TIP3    H235809   2.225   8.771   3.208
11978TIP3   OH235810   3.487   9.397   3.820
11978TIP3    H135811   3.487   9.334   3.744
11978TIP3    H235812   3.413   9.359   3.872
11979TIP3   OH235813   3.105   8.867   3.464
11979TIP3    H135814   3.022   8.869   3.515
11979TIP3    H235815   3.171   8.878   3.534
11980TIP3   OH235816   2.539   8.929   3.467
11980TIP3    H135817   2.445   8.928   3.440
11980TIP3    H235818   2.569   8.838   3.452
11981TIP3   OH235819   2.813   8.925   3.158
11981TIP3    H135820   2.908   8.941   3.143
11981TIP3    H235821   2.771   8.961   3.078
11982TIP3   OH235822   3.595   8.950   3.670
11982TIP3    H135823   3.556   8.959   3.759
11982TIP3    H235824   3.534   8.886   3.630
11983TIP3   OH235825   2.610   8.947   2.937
11983TIP3    H135826   2.583   8.903   2.854
11983TIP3    H235827   2.666   9.018   2.901
11984TIP3   OH235828   3.183   9.180   3.555
11984TIP3    H135829   3.265   9.159   3.509
11984TIP3    H235830   3.205   9.163   3.648
11985TIP3   OH235831   2.709   8.689   3.439
11985TIP3    H135832   2.678   8.608   3.485
11985TIP3    H235833   2.762   8.652   3.367
11986TIP3   OH235834   3.164   9.087   3.860
11986TIP3    H135835   3.076   9.129   3.851
11986TIP3    H235836   3.218   9.156   3.902
11987TIP3   OH235837   3.359   8.807   2.812
11987TIP3    H135838   3.263   8.786   2.818
11987TIP3    H235839   3.362   8.904   2.829
11988TIP3   OH235840   3.428   9.069   2.898
11988TIP3    H135841   3.520   9.053   2.928
11988TIP3    H235842   3.439   9.151   2.847
11989TIP3   OH235843   3.196   9.416   4.327
11989TIP3    H135844   3.145   9.457   4.255
11989TIP3    H235845   3.275   9.381   4.281
11990TIP3   OH235846   3.866   9.128   2.756
11990TIP3    H135847   3.804   9.088   2.691
11990TIP3    H235848   3.878   9.215   2.716
11991TIP3   OH235849   2.681   8.932   4.243
11991TIP3    H135850   2.584   8.930   4.254
11991TIP3    H235851   2.710   8.870   4.311
11992TIP3   OH235852   3.517   9.006   3.932
11992TIP3    H135853   3.604   9.032   3.965
11992TIP3    H235854   3.501   8.922   3.980
11993TIP3   OH235855   3.400   8.752   3.089
11993TIP3    H135856   3.388   8.774   2.995
11993TIP3    H235857   3.441   8.833   3.125
11994TIP3   OH235858   3.095   8.930   3.194
11994TIP3    H135859   3.165   8.997   3.177
11994TIP3    H235860   3.098   8.922   3.291
11995TIP3   OH235861   3.351   9.245   4.000
11995TIP3    H135862   3.385   9.294   4.077
11995TIP3    H235863   3.404   9.163   4.001
11996TIP3   OH235864   3.237   8.658   3.296
11996TIP3    H135865   3.227   8.737   3.354
11996TIP3    H235866   3.297   8.694   3.227
11997TIP3   OH235867   2.748   8.656   3.086
11997TIP3    H135868   2.751   8.749   3.117
11997TIP3    H235869   2.843   8.634   3.093
11998TIP3   OH235870   4.010   9.160   3.975
11998TIP3    H135871   3.913   9.157   3.992
11998TIP3    H235872   4.011   9.103   3.896
11999TIP3   OH235873   3.642   9.329   3.353
11999TIP3    H135874   3.574   9.266   3.380
11999TIP3    H235875   3.719   9.302   3.407
12000TIP3   OH235876   2.274   8.900   2.975
12000TIP3    H135877   2.362   8.909   2.931
12000TIP3    H235878   2.243   8.819   2.932
12001TIP3   OH235879   2.698   8.568   3.846
12001TIP3    H135880   2.667   8.533   3.759
12001TIP3    H235881   2.688   8.489   3.903
12002TIP3   OH235882   2.676   9.437   4.458
12002TIP3    H135883   2.752   9.383   4.485
12002TIP3    H235884   2.669   9.506   4.529
12003TIP3   OH235885   2.989   9.296   4.104
12003TIP3    H135886   2.893   9.297   4.120
12003TIP3    H235887   2.997   9.303   4.008
12004TIP3   OH235888   2.804   9.089   2.800
12004TIP3    H135889   2.776   9.038   2.721
12004TIP3    H235890   2.901   9.087   2.791
12005TIP3   OH235891   3.105   9.117   4.280
12005TIP3    H135892   3.110   9.036   4.227
12005TIP3    H235893   3.066   9.179   4.216
12006TIP3   OH235894   3.105   8.922   4.077
12006TIP3    H135895   3.132   8.968   3.995
12006TIP3    H235896   3.011   8.901   4.058
12007TIP3   OH235897   3.719   9.435   4.327
12007TIP3    H135898   3.734   9.344   4.355
12007TIP3    H235899   3.808   9.463   4.306
12008TIP3   OH235900   2.952   9.265   4.487
12008TIP3    H135901   2.905   9.180   4.499
12008TIP3    H235902   3.011   9.246   4.412
12009TIP3   OH235903   3.237   8.688   4.138
12009TIP3    H135904   3.188   8.770   4.118
12009TIP3    H235905   3.167   8.620   4.129
12010TIP3   OH235906   3.370   9.179   4.355
12010TIP3    H135907   3.361   9.172   4.452
12010TIP3    H235908   3.278   9.157   4.331
12011TIP3   OH235909   3.609   9.143   4.219
12011TIP3    H135910   3.529   9.131   4.275
12011TIP3    H235911   3.680   9.106   4.275
12012TIP3   OH235912   3.842   9.087   4.364
12012TIP3    H135913   3.849   8.990   4.383
12012TIP3    H235914   3.831   9.125   4.454
12013TIP3   OH235915   2.814   9.036   4.551
12013TIP3    H135916   2.824   8.947   4.512
12013TIP3    H235917   2.859   9.021   4.638
12014TIP3   OH235918   3.334   8.704   4.395
12014TIP3    H135919   3.397   8.630   4.394
12014TIP3    H235920   3.292   8.694   4.307
12015TIP3   OH235921   3.400   8.918   4.554
12015TIP3    H135922   3.377   8.845   4.491
12015TIP3    H235923   3.320   8.974   4.551
12016TIP3   OH235924   3.697   9.056   2.552
12016TIP3    H135925   3.680   9.073   2.459
12016TIP3    H235926   3.675   8.960   2.556
12017TIP3   OH235927   3.735   9.304   3.099
12017TIP3    H135928   3.738   9.208   3.108
12017TIP3    H235929   3.713   9.330   3.192
12018TIP3   OH235930   3.644   8.791   2.549
12018TIP3    H135931   3.722   8.753   2.594
12018TIP3    H235932   3.574   8.726   2.565
12019TIP3   OH235933   3.695   9.030   2.993
12019TIP3    H135934   3.739   8.943   3.007
12019TIP3    H235935   3.755   9.068   2.927
12020TIP3   OH235936   3.864   9.212   3.480
12020TIP3    H135937   3.947   9.241   3.438
12020TIP3    H235938   3.882   9.245   3.570
12021TIP3   OH235939   3.944   9.338   3.711
12021TIP3    H135940   3.869   9.372   3.763
12021TIP3    H235941   3.990   9.422   3.688
12022TIP3   OH235942   2.547   9.090   4.596
12022TIP3    H135943   2.642   9.094   4.569
12022TIP3    H235944   2.527   9.000   4.562
12023TIP3   OH235945   4.380   8.947   4.274
12023TIP3    H135946   4.443   8.881   4.237
12023TIP3    H235947   4.364   9.006   4.198
12024TIP3   OH235948   3.813   8.788   3.033
12024TIP3    H135949   3.862   8.772   3.117
12024TIP3    H235950   3.753   8.711   3.032
12025TIP3   OH235951   2.509   8.771   3.855
12025TIP3    H135952   2.575   8.699   3.863
12025TIP3    H235953   2.568   8.848   3.844
12026TIP3   OH235954   2.317   9.058   3.935
12026TIP3    H135955   2.363   9.045   3.849
12026TIP3    H235956   2.335   9.151   3.951
12027TIP3   OH235957   4.260   9.101   4.077
12027TIP3    H135958   4.167   9.125   4.092
12027TIP3    H235959   4.247   9.021   4.022
12028TIP3   OH235960   3.894   8.726   2.662
12028TIP3    H135961   3.934   8.652   2.611
12028TIP3    H235962   3.964   8.794   2.657
12029TIP3   OH235963   2.298   8.562   3.433
12029TIP3    H135964   2.205   8.545   3.455
12029TIP3    H235965   2.292   8.608   3.348
12030TIP3   OH235966   2.521   8.643   4.245
12030TIP3    H135967   2.466   8.626   4.323
12030TIP3    H235968   2.454   8.674   4.181
12031TIP3   OH235969   4.156   8.852   3.963
12031TIP3    H135970   4.065   8.841   3.929
12031TIP3    H235971   4.189   8.760   3.952
12032TIP3   OH235972   3.365   8.768   3.584
12032TIP3    H135973   3.317   8.699   3.633
12032TIP3    H235974   3.432   8.717   3.535
12033TIP3   OH235975   3.885   8.651   3.491
12033TIP3    H135976   3.922   8.699   3.414
12033TIP3    H235977   3.789   8.663   3.479
12034TIP3   OH235978   3.979   8.747   3.252
12034TIP3    H135979   4.051   8.695   3.210
12034TIP3    H235980   4.012   8.838   3.235
12035TIP3   OH235981   2.609   8.476   3.598
12035TIP3    H135982   2.517   8.441   3.598
12035TIP3    H235983   2.659   8.391   3.594
12036TIP3   OH235984   2.401   8.343   3.249
12036TIP3    H135985   2.427   8.399   3.174
12036TIP3    H235986   2.369   8.408   3.313
12037TIP3   OH235987   3.051   8.509   3.477
12037TIP3    H135988   3.111   8.558   3.418
12037TIP3    H235989   3.075   8.546   3.563
12038TIP3   OH235990   3.604   8.654   3.460
12038TIP3    H135991   3.598   8.617   3.371
12038TIP3    H235992   3.588   8.574   3.515
12039TIP3   OH235993   3.630   8.576   3.024
12039TIP3    H135994   3.541   8.616   3.032
12039TIP3    H235995   3.616   8.490   3.070
12040TIP3   OH235996   2.515   8.512   3.008
12040TIP3    H135997   2.558   8.442   2.953
12040TIP3    H235998   2.594   8.558   3.043
12041TIP3   OH235999   3.025   8.680   3.107
12041TIP3    H136000   3.085   8.632   3.166
12041TIP3    H236001   3.048   8.772   3.132
12042TIP3   OH236002   2.813   8.756   4.496
12042TIP3    H136003   2.786   8.679   4.549
12042TIP3    H236004   2.909   8.758   4.518
12043TIP3   OH236005   3.065   8.752   4.608
12043TIP3    H136006   3.150   8.724   4.571
12043TIP3    H236007   3.054   8.686   4.680
12044TIP3   OH236008   3.891   8.815   4.395
12044TIP3    H136009   3.908   8.783   4.486
12044TIP3    H236010   3.980   8.809   4.354
12045TIP3   OH236011   4.073   9.258   2.910
12045TIP3    H136012   4.030   9.334   2.952
12045TIP3    H236013   3.997   9.201   2.889
12046TIP3   OH236014   5.911   9.280   3.075
12046TIP3    H136015   5.939   9.360   3.125
12046TIP3    H236016   5.954   9.294   2.989
12047TIP3   OH236017   5.322   9.470   3.125
12047TIP3    H136018   5.356   9.382   3.147
12047TIP3    H236019   5.278   9.449   3.040
12048TIP3   OH236020   4.644   9.125   3.080
12048TIP3    H136021   4.626   9.199   3.018
12048TIP3    H236022   4.596   9.053   3.033
12049TIP3   OH236023   5.342   9.190   2.714
12049TIP3    H136024   5.426   9.198   2.764
12049TIP3    H236025   5.345   9.267   2.655
12050TIP3   OH236026   4.267   9.308   3.199
12050TIP3    H136027   4.356   9.300   3.236
12050TIP3    H236028   4.281   9.277   3.108
12051TIP3   OH236029   4.719   9.523   3.000
12051TIP3    H136030   4.811   9.490   3.007
12051TIP3    H236031   4.676   9.454   2.947
12052TIP3   OH236032   5.987   9.484   3.246
12052TIP3    H136033   5.906   9.534   3.222
12052TIP3    H236034   5.996   9.510   3.339
12053TIP3   OH236035   4.641   9.110   3.516
12053TIP3    H136036   4.581   9.142   3.446
12053TIP3    H236037   4.587   9.129   3.596
12054TIP3   OH236038   5.560   9.222   2.872
12054TIP3    H136039   5.540   9.167   2.949
12054TIP3    H236040   5.605   9.299   2.910
12055TIP3   OH236041   4.511   9.217   3.299
12055TIP3    H136042   4.571   9.293   3.314
12055TIP3    H236043   4.558   9.176   3.222
12056TIP3   OH236044   5.691   9.210   3.248
12056TIP3    H136045   5.602   9.219   3.210
12056TIP3    H236046   5.750   9.225   3.171
12057TIP3   OH236047   4.994   8.831   3.223
12057TIP3    H136048   4.984   8.736   3.244
12057TIP3    H236049   4.916   8.868   3.270
12058TIP3   OH236050   4.879   9.360   2.205
12058TIP3    H136051   4.918   9.414   2.275
12058TIP3    H236052   4.959   9.314   2.171
12059TIP3   OH236053   5.535   9.711   3.357
12059TIP3    H136054   5.548   9.797   3.313
12059TIP3    H236055   5.444   9.688   3.326
12060TIP3   OH236056   5.632   8.773   2.332
12060TIP3    H136057   5.549   8.793   2.382
12060TIP3    H236058   5.643   8.855   2.280
12061TIP3   OH236059   5.758   9.675   3.541
12061TIP3    H136060   5.677   9.669   3.487
12061TIP3    H236061   5.786   9.581   3.543
12062TIP3   OH236062   4.759   8.903   3.356
12062TIP3    H136063   4.669   8.874   3.331
12062TIP3    H236064   4.736   8.988   3.399
12063TIP3   OH236065   5.292   9.019   3.547
12063TIP3    H136066   5.358   8.990   3.612
12063TIP3    H236067   5.207   8.996   3.590
12064TIP3   OH236068   5.535   9.440   3.474
12064TIP3    H136069   5.485   9.434   3.559
12064TIP3    H236070   5.503   9.523   3.437
12065TIP3   OH236071   4.901   8.953   2.327
12065TIP3    H136072   4.870   8.952   2.419
12065TIP3    H236073   4.864   8.869   2.295
12066TIP3   OH236074   4.685   9.423   3.353
12066TIP3    H136075   4.642   9.442   3.438
12066TIP3    H236076   4.671   9.504   3.302
12067TIP3   OH236077   4.576   9.305   2.889
12067TIP3    H136078   4.483   9.278   2.904
12067TIP3    H236079   4.591   9.268   2.799
12068TIP3   OH236080   5.255   9.660   3.701
12068TIP3    H136081   5.253   9.580   3.757
12068TIP3    H236082   5.345   9.693   3.720
12069TIP3   OH236083   5.218   9.394   2.894
12069TIP3    H136084   5.189   9.438   2.810
12069TIP3    H236085   5.248   9.312   2.851
12070TIP3   OH236086   4.499   9.453   3.610
12070TIP3    H136087   4.522   9.471   3.701
12070TIP3    H236088   4.471   9.360   3.618
12071TIP3   OH236089   4.563   8.925   2.296
12071TIP3    H136090   4.558   8.929   2.393
12071TIP3    H236091   4.481   8.969   2.270
12072TIP3   OH236092   4.101   8.971   3.166
12072TIP3    H136093   4.176   9.005   3.218
12072TIP3    H236094   4.142   8.938   3.085
12073TIP3   OH236095   4.078   8.948   2.686
12073TIP3    H136096   4.122   8.986   2.608
12073TIP3    H236097   4.018   9.022   2.709
12074TIP3   OH236098   5.277   9.658   3.307
12074TIP3    H136099   5.285   9.591   3.235
12074TIP3    H236100   5.205   9.617   3.359
12075TIP3   OH236101   4.902   9.119   2.950
12075TIP3    H136102   4.818   9.122   2.999
12075TIP3    H236103   4.965   9.143   3.020
12076TIP3   OH236104   4.335   9.187   2.956
12076TIP3    H136105   4.241   9.192   2.929
12076TIP3    H236106   4.360   9.096   2.934
12077TIP3   OH236107   4.611   9.181   2.648
12077TIP3    H136108   4.703   9.205   2.622
12077TIP3    H236109   4.558   9.205   2.569
12078TIP3   OH236110   5.394   9.204   3.156
12078TIP3    H136111   5.357   9.213   3.246
12078TIP3    H236112   5.327   9.143   3.117
12079TIP3   OH236113   4.428   9.188   2.437
12079TIP3    H136114   4.368   9.158   2.368
12079TIP3    H236115   4.479   9.257   2.389
12080TIP3   OH236116   4.980   9.436   3.039
12080TIP3    H136117   5.063   9.417   2.991
12080TIP3    H236118   5.004   9.417   3.131
12081TIP3   OH236119   4.507   8.946   2.926
12081TIP3    H136120   4.477   8.864   2.969
12081TIP3    H236121   4.554   8.913   2.848
12082TIP3   OH236122   4.961   9.342   3.349
12082TIP3    H136123   4.875   9.385   3.335
12082TIP3    H236124   5.015   9.412   3.390
12083TIP3   OH236125   5.158   9.055   2.301
12083TIP3    H136126   5.061   9.047   2.305
12083TIP3    H236127   5.174   9.152   2.297
12084TIP3   OH236128   5.255   9.314   2.342
12084TIP3    H136129   5.318   9.311   2.416
12084TIP3    H236130   5.201   9.388   2.375
12085TIP3   OH236131   4.990   9.667   3.811
12085TIP3    H136132   4.949   9.725   3.744
12085TIP3    H236133   5.066   9.630   3.762
12086TIP3   OH236134   5.674   9.395   2.238
12086TIP3    H136135   5.613   9.343   2.180
12086TIP3    H236136   5.668   9.479   2.191
12087TIP3   OH236137   4.478   9.190   3.731
12087TIP3    H136138   4.381   9.189   3.742
12087TIP3    H236139   4.507   9.128   3.800
12088TIP3   OH236140   5.314   9.263   3.416
12088TIP3    H136141   5.401   9.290   3.449
12088TIP3    H236142   5.299   9.178   3.464
12089TIP3   OH236143   5.198   9.003   2.574
12089TIP3    H136144   5.183   9.030   2.481
12089TIP3    H236145   5.239   9.083   2.612
12090TIP3   OH236146   4.899   9.188   2.675
12090TIP3    H136147   4.959   9.261   2.653
12090TIP3    H236148   4.901   9.186   2.772
12091TIP3   OH236149   5.148   9.501   3.489
12091TIP3    H136150   5.187   9.553   3.562
12091TIP3    H236151   5.202   9.420   3.488
12092TIP3   OH236152   5.036   8.917   2.784
12092TIP3    H136153   5.015   8.997   2.836
12092TIP3    H236154   5.094   8.954   2.714
12093TIP3   OH236155   4.544   8.911   2.573
12093TIP3    H136156   4.541   9.005   2.601
12093TIP3    H236157   4.641   8.895   2.581
12094TIP3   OH236158   5.802   9.407   3.465
12094TIP3    H136159   5.705   9.404   3.476
12094TIP3    H236160   5.809   9.352   3.385
12095TIP3   OH236161   5.439   9.583   2.837
12095TIP3    H136162   5.367   9.523   2.860
12095TIP3    H236163   5.510   9.556   2.897
12096TIP3   OH236164   4.098   9.107   2.464
12096TIP3    H136165   4.117   9.200   2.447
12096TIP3    H236166   4.021   9.088   2.409
12097TIP3   OH236167   4.493   8.825   3.333
12097TIP3    H136168   4.463   8.792   3.246
12097TIP3    H236169   4.483   8.745   3.389
12098TIP3   OH236170   4.387   9.654   4.016
12098TIP3    H136171   4.472   9.626   3.979
12098TIP3    H236172   4.412   9.745   4.047
12099TIP3   OH236173   4.777   9.548   3.589
12099TIP3    H136174   4.688   9.584   3.597
12099TIP3    H236175   4.798   9.558   3.495
12100TIP3   OH236176   4.592   9.333   2.280
12100TIP3    H136177   4.570   9.322   2.191
12100TIP3    H236178   4.691   9.346   2.276
12101TIP3   OH236179   4.899   9.375   3.767
12101TIP3    H136180   4.906   9.293   3.713
12101TIP3    H236181   4.860   9.436   3.702
12102TIP3   OH236182   4.900   9.178   3.566
12102TIP3    H136183   4.928   9.225   3.484
12102TIP3    H236184   4.806   9.158   3.545
12103TIP3   OH236185   5.522   9.696   3.814
12103TIP3    H136186   5.542   9.604   3.836
12103TIP3    H236187   5.610   9.728   3.789
12104TIP3   OH236188   4.742   9.528   3.964
12104TIP3    H136189   4.698   9.443   3.985
12104TIP3    H236190   4.805   9.501   3.894
12105TIP3   OH236191   5.034   8.946   3.629
12105TIP3    H136192   4.984   9.028   3.606
12105TIP3    H236193   4.965   8.878   3.616
12106TIP3   OH236194   5.168   9.440   3.842
12106TIP3    H136195   5.160   9.438   3.939
12106TIP3    H236196   5.075   9.419   3.818
12107TIP3   OH236197   5.404   9.400   3.705
12107TIP3    H136198   5.326   9.388   3.762
12107TIP3    H236199   5.477   9.365   3.761
12108TIP3   OH236200   5.632   9.342   3.854
12108TIP3    H136201   5.641   9.246   3.872
12108TIP3    H236202   5.626   9.381   3.944
12109TIP3   OH236203   4.607   9.293   4.035
12109TIP3    H136204   4.617   9.203   3.998
12109TIP3    H236205   4.648   9.281   4.123
12110TIP3   OH236206   5.125   8.957   3.887
12110TIP3    H136207   5.193   8.887   3.881
12110TIP3    H236208   5.087   8.951   3.796
12111TIP3   OH236209   5.195   9.171   4.044
12111TIP3    H136210   5.171   9.100   3.980
12111TIP3    H236211   5.117   9.231   4.038
12112TIP3   OH236212   5.511   9.308   2.039
12112TIP3    H136213   5.474   9.334   1.953
12112TIP3    H236214   5.479   9.215   2.043
12113TIP3   OH236215   5.589   9.524   2.618
12113TIP3    H136216   5.522   9.460   2.584
12113TIP3    H236217   5.533   9.572   2.685
12114TIP3   OH236218   5.970   9.834   3.477
12114TIP3    H136219   5.895   9.775   3.498
12114TIP3    H236220   6.043   9.770   3.474
12115TIP3   OH236221   5.442   9.046   2.033
12115TIP3    H136222   5.514   9.006   2.085
12115TIP3    H236223   5.366   8.987   2.051
12116TIP3   OH236224   5.513   9.299   2.489
12116TIP3    H136225   5.534   9.203   2.501
12116TIP3    H236226   5.544   9.314   2.399
12117TIP3   OH236227   5.675   9.472   2.958
12117TIP3    H136228   5.746   9.533   2.938
12117TIP3    H236229   5.670   9.489   3.055
12118TIP3   OH236230   5.734   9.598   3.193
12118TIP3    H136231   5.660   9.626   3.250
12118TIP3    H236232   5.785   9.683   3.186
12119TIP3   OH236233   4.342   9.364   4.043
12119TIP3    H136234   4.438   9.348   4.025
12119TIP3    H236235   4.316   9.269   4.058
12120TIP3   OH236236   6.180   9.203   3.764
12120TIP3    H136237   6.241   9.139   3.721
12120TIP3    H236238   6.154   9.260   3.690
12121TIP3   OH236239   5.610   9.044   2.517
12121TIP3    H136240   5.655   9.027   2.602
12121TIP3    H236241   5.545   8.970   2.515
12122TIP3   OH236242   4.305   9.029   3.349
12122TIP3    H136243   4.371   8.957   3.351
12122TIP3    H236244   4.363   9.106   3.332
12123TIP3   OH236245   4.111   9.316   3.422
12123TIP3    H136246   4.158   9.301   3.337
12123TIP3    H236247   4.135   9.408   3.439
12124TIP3   OH236248   6.055   9.347   3.570
12124TIP3    H136249   5.966   9.385   3.586
12124TIP3    H236250   6.029   9.272   3.512
12125TIP3   OH236251   5.696   8.979   2.155
12125TIP3    H136252   5.728   8.907   2.096
12125TIP3    H236253   5.761   9.050   2.138
12126TIP3   OH236254   4.095   8.811   2.916
12126TIP3    H136255   4.001   8.807   2.939
12126TIP3    H236256   4.095   8.867   2.836
12127TIP3   OH236257   4.316   8.895   3.730
12127TIP3    H136258   4.262   8.885   3.810
12127TIP3    H236259   4.251   8.929   3.666
12128TIP3   OH236260   5.955   9.112   3.450
12128TIP3    H136261   5.864   9.091   3.419
12128TIP3    H236262   5.994   9.022   3.441
12129TIP3   OH236263   5.166   9.028   3.079
12129TIP3    H136264   5.110   8.960   3.120
12129TIP3    H236265   5.224   8.976   3.021
12130TIP3   OH236266   5.682   8.897   2.970
12130TIP3    H136267   5.716   8.940   2.889
12130TIP3    H236268   5.587   8.912   2.964
12131TIP3   OH236269   5.779   9.014   2.733
12131TIP3    H136270   5.849   8.957   2.694
12131TIP3    H236271   5.818   9.102   2.729
12132TIP3   OH236272   4.405   8.731   3.086
12132TIP3    H136273   4.313   8.699   3.085
12132TIP3    H236274   4.454   8.646   3.081
12133TIP3   OH236275   4.193   8.601   2.731
12133TIP3    H136276   4.224   8.658   2.658
12133TIP3    H236277   4.165   8.667   2.798
12134TIP3   OH236278   4.851   8.763   2.965
12134TIP3    H136279   4.906   8.816   2.905
12134TIP3    H236280   4.871   8.803   3.051
12135TIP3   OH236281   5.396   8.903   2.949
12135TIP3    H136282   5.376   8.885   2.856
12135TIP3    H236283   5.384   8.816   2.991
12136TIP3   OH236284   5.425   8.835   2.510
12136TIP3    H136285   5.338   8.880   2.519
12136TIP3    H236286   5.407   8.750   2.557
12137TIP3   OH236287   4.309   8.762   2.496
12137TIP3    H136288   4.357   8.698   2.439
12137TIP3    H236289   4.382   8.815   2.531
12138TIP3   OH236290   4.821   8.937   2.595
12138TIP3    H136291   4.883   8.890   2.654
12138TIP3    H236292   4.843   9.029   2.618
12139TIP3   OH236293   4.611   9.013   3.977
12139TIP3    H136294   4.581   8.940   4.033
12139TIP3    H236295   4.707   9.015   4.001
12140TIP3   OH236296   4.862   9.011   4.093
12140TIP3    H136297   4.946   8.987   4.052
12140TIP3    H236298   4.852   8.940   4.160
12141TIP3   OH236299   5.686   9.068   3.879
12141TIP3    H136300   5.705   9.039   3.971
12141TIP3    H236301   5.776   9.066   3.839
12142TIP3   OH236302   5.823   9.513   2.445
12142TIP3    H136303   5.821   9.606   2.417
12142TIP3    H236304   5.785   9.467   2.367
12143TIP3   OH236305   7.099   9.733   2.601
12143TIP3    H136306   7.141   9.648   2.621
12143TIP3    H236307   7.076   9.721   2.507
12144TIP3   OH236308   6.441   9.381   2.567
12144TIP3    H136309   6.422   9.458   2.508
12144TIP3    H236310   6.391   9.311   2.520
12145TIP3   OH236311   7.134   9.466   2.200
12145TIP3    H136312   7.207   9.451   2.264
12145TIP3    H236313   7.185   9.504   2.128
12146TIP3   OH236314   6.528   9.783   2.456
12146TIP3    H136315   6.613   9.743   2.483
12146TIP3    H236316   6.476   9.706   2.426
12147TIP3   OH236317   6.439   9.362   3.003
12147TIP3    H136318   6.381   9.399   2.933
12147TIP3    H236319   6.385   9.383   3.082
12148TIP3   OH236320   7.353   9.472   2.365
12148TIP3    H136321   7.332   9.427   2.448
12148TIP3    H236322   7.434   9.521   2.387
12149TIP3   OH236323   6.303   9.464   2.791
12149TIP3    H136324   6.346   9.551   2.804
12149TIP3    H236325   6.351   9.434   2.711
12150TIP3   OH236326   7.495   9.443   2.724
12150TIP3    H136327   7.402   9.469   2.713
12150TIP3    H236328   7.535   9.473   2.641
12151TIP3   OH236329   6.797   9.089   2.722
12151TIP3    H136330   6.782   9.007   2.770
12151TIP3    H236331   6.721   9.141   2.755
12152TIP3   OH236332   6.704   9.585   1.748
12152TIP3    H136333   6.739   9.674   1.758
12152TIP3    H236334   6.728   9.563   1.657
12153TIP3   OH236335   7.420   9.027   1.811
12153TIP3    H136336   7.342   9.040   1.869
12153TIP3    H236337   7.434   9.116   1.778
12154TIP3   OH236338   6.554   9.159   2.840
12154TIP3    H136339   6.461   9.133   2.818
12154TIP3    H236340   6.535   9.244   2.883
12155TIP3   OH236341   7.090   9.275   3.037
12155TIP3    H136342   7.159   9.250   3.102
12155TIP3    H236343   7.006   9.257   3.085
12156TIP3   OH236344   7.333   9.702   2.955
12156TIP3    H136345   7.288   9.693   3.043
12156TIP3    H236346   7.293   9.783   2.921
12157TIP3   OH236347   6.705   9.204   1.815
12157TIP3    H136348   6.667   9.208   1.905
12157TIP3    H236349   6.663   9.123   1.781
12158TIP3   OH236350   6.471   9.677   2.832
12158TIP3    H136351   6.457   9.694   2.927
12158TIP3    H236352   6.473   9.767   2.796
12159TIP3   OH236353   6.373   9.561   2.377
12159TIP3    H136354   6.279   9.536   2.391
12159TIP3    H236355   6.387   9.524   2.287
12160TIP3   OH236356   6.873   9.649   2.105
12160TIP3    H136357   6.790   9.698   2.083
12160TIP3    H236358   6.912   9.629   2.018
12161TIP3   OH236359   7.061   9.921   3.179
12161TIP3    H136360   7.051   9.844   3.239
12161TIP3    H236361   7.150   9.951   3.203
12162TIP3   OH236362   7.003   9.670   2.348
12162TIP3    H136363   6.948   9.683   2.268
12162TIP3    H236364   7.053   9.593   2.316
12163TIP3   OH236365   6.286   9.704   3.096
12163TIP3    H136366   6.277   9.746   3.182
12163TIP3    H236367   6.280   9.610   3.118
12164TIP3   OH236368   6.360   9.183   1.782
12164TIP3    H136369   6.350   9.184   1.879
12164TIP3    H236370   6.280   9.232   1.755
12165TIP3   OH236371   5.891   9.294   2.638
12165TIP3    H136372   5.969   9.284   2.698
12165TIP3    H236373   5.909   9.224   2.571
12166TIP3   OH236374   5.878   9.203   2.176
12166TIP3    H136375   5.922   9.240   2.096
12166TIP3    H236376   5.814   9.275   2.192
12167TIP3   OH236377   7.042   9.926   2.791
12167TIP3    H136378   7.070   9.862   2.723
12167TIP3    H236379   6.992   9.866   2.850
12168TIP3   OH236380   6.695   9.368   2.441
12168TIP3    H136381   6.611   9.382   2.489
12168TIP3    H236382   6.759   9.408   2.502
12169TIP3   OH236383   6.134   9.438   2.422
12169TIP3    H136384   6.039   9.422   2.433
12169TIP3    H236385   6.171   9.348   2.419
12170TIP3   OH236386   6.407   9.436   2.134
12170TIP3    H136387   6.497   9.460   2.108
12170TIP3    H236388   6.353   9.461   2.056
12171TIP3   OH236389   7.189   9.460   2.641
12171TIP3    H136390   7.153   9.475   2.731
12171TIP3    H236391   7.119   9.403   2.604
12172TIP3   OH236392   6.226   9.446   1.923
12172TIP3    H136393   6.167   9.412   1.852
12172TIP3    H236394   6.273   9.516   1.873
12173TIP3   OH236395   6.775   9.677   2.526
12173TIP3    H136396   6.861   9.681   2.479
12173TIP3    H236397   6.802   9.684   2.618
12174TIP3   OH236398   6.305   9.202   2.414
12174TIP3    H136399   6.270   9.120   2.455
12174TIP3    H236400   6.340   9.170   2.329
12175TIP3   OH236401   6.755   9.598   2.841
12175TIP3    H136402   6.671   9.643   2.824
12175TIP3    H236403   6.811   9.668   2.880
12176TIP3   OH236404   6.948   9.321   1.792
12176TIP3    H136405   6.854   9.292   1.793
12176TIP3    H236406   6.940   9.418   1.803
12177TIP3   OH236407   7.028   9.586   1.871
12177TIP3    H136408   7.116   9.548   1.876
12177TIP3    H236409   7.032   9.638   1.790
12178TIP3   OH236410   6.771   9.936   3.241
12178TIP3    H136411   6.801   9.974   3.156
12178TIP3    H236412   6.841   9.870   3.258
12179TIP3   OH236413   6.277   9.443   3.217
12179TIP3    H136414   6.181   9.448   3.233
12179TIP3    H236415   6.307   9.386   3.290
12180TIP3   OH236416   7.113   9.516   2.901
12180TIP3    H136417   7.195   9.551   2.939
12180TIP3    H236418   7.100   9.434   2.952
12181TIP3   OH236419   6.996   9.259   2.064
12181TIP3    H136420   6.980   9.284   1.971
12181TIP3    H236421   7.036   9.340   2.102
12182TIP3   OH236422   6.694   9.440   2.168
12182TIP3    H136423   6.760   9.511   2.154
12182TIP3    H236424   6.691   9.435   2.265
12183TIP3   OH236425   6.945   9.756   2.980
12183TIP3    H136426   6.987   9.812   3.048
12183TIP3    H236427   7.002   9.677   2.981
12184TIP3   OH236428   6.829   9.170   2.270
12184TIP3    H136429   6.815   9.248   2.327
12184TIP3    H236430   6.889   9.208   2.202
12185TIP3   OH236431   6.340   9.167   2.062
12185TIP3    H136432   6.336   9.261   2.087
12185TIP3    H236433   6.437   9.153   2.067
12186TIP3   OH236434   7.612   9.666   2.933
12186TIP3    H136435   7.518   9.678   2.956
12186TIP3    H236436   7.604   9.620   2.850
12187TIP3   OH236437   5.889   9.365   1.956
12187TIP3    H136438   5.914   9.455   1.929
12187TIP3    H236439   5.819   9.341   1.895
12188TIP3   OH236440   6.287   9.085   2.818
12188TIP3    H136441   6.256   9.050   2.732
12188TIP3    H236442   6.281   9.005   2.875
12189TIP3   OH236443   6.272   9.962   3.425
12189TIP3    H136444   6.318   9.886   3.463
12189TIP3    H236445   6.260  10.022   3.502
12190TIP3   OH236446   6.564   9.777   3.070
12190TIP3    H136447   6.489   9.830   3.102
12190TIP3    H236448   6.602   9.837   3.004
12191TIP3   OH236449   6.388   9.595   1.766
12191TIP3    H136450   6.360   9.558   1.680
12191TIP3    H236451   6.484   9.596   1.760
12192TIP3   OH236452   6.702   9.631   3.251
12192TIP3    H136453   6.704   9.548   3.200
12192TIP3    H236454   6.654   9.688   3.187
12193TIP3   OH236455   6.698   9.429   3.051
12193TIP3    H136456   6.724   9.483   2.973
12193TIP3    H236457   6.602   9.414   3.033
12194TIP3   OH236458   7.327   9.954   3.306
12194TIP3    H136459   7.346   9.861   3.328
12194TIP3    H236460   7.412   9.980   3.269
12195TIP3   OH236461   6.551   9.777   3.453
12195TIP3    H136462   6.496   9.699   3.473
12195TIP3    H236463   6.602   9.745   3.377
12196TIP3   OH236464   6.829   9.200   3.114
12196TIP3    H136465   6.782   9.284   3.092
12196TIP3    H236466   6.757   9.135   3.104
12197TIP3   OH236467   6.956   9.717   3.327
12197TIP3    H136468   6.956   9.702   3.424
12197TIP3    H236469   6.869   9.676   3.305
12198TIP3   OH236470   7.198   9.651   3.185
12198TIP3    H136471   7.122   9.646   3.247
12198TIP3    H236472   7.272   9.621   3.243
12199TIP3   OH236473   7.413   9.595   3.343
12199TIP3    H136474   7.432   9.500   3.360
12199TIP3    H236475   7.419   9.635   3.432
12200TIP3   OH236476   6.408   9.549   3.521
12200TIP3    H136477   6.418   9.458   3.488
12200TIP3    H236478   6.444   9.539   3.612
12201TIP3   OH236479   6.921   9.213   3.372
12201TIP3    H136480   6.991   9.144   3.367
12201TIP3    H236481   6.883   9.206   3.283
12202TIP3   OH236482   6.988   9.428   3.532
12202TIP3    H136483   6.965   9.358   3.468
12202TIP3    H236484   6.911   9.488   3.527
12203TIP3   OH236485   7.223   9.329   1.535
12203TIP3    H136486   7.311   9.296   1.560
12203TIP3    H236487   7.167   9.251   1.535
12204TIP3   OH236488   6.138   9.606   3.496
12204TIP3    H136489   6.236   9.600   3.497
12204TIP3    H236490   6.116   9.520   3.536
12205TIP3   OH236491   7.959   9.472   3.236
12205TIP3    H136492   8.016   9.393   3.216
12205TIP3    H236493   7.924   9.493   3.148
12206TIP3   OH236494   7.369   9.316   2.028
12206TIP3    H136495   7.437   9.298   2.095
12206TIP3    H236496   7.325   9.229   2.020
12207TIP3   OH236497   6.095   9.289   2.831
12207TIP3    H136498   6.160   9.217   2.839
12207TIP3    H236499   6.157   9.364   2.819
12208TIP3   OH236500   5.881   9.105   2.429
12208TIP3    H136501   5.792   9.067   2.430
12208TIP3    H236502   5.889   9.135   2.336
12209TIP3   OH236503   6.111   9.144   3.214
12209TIP3    H136504   6.062   9.138   3.298
12209TIP3    H236505   6.042   9.182   3.157
12210TIP3   OH236506   7.754   9.362   2.948
12210TIP3    H136507   7.671   9.375   2.899
12210TIP3    H236508   7.783   9.274   2.915
12211TIP3   OH236509   6.966   9.284   2.559
12211TIP3    H136510   6.911   9.216   2.601
12211TIP3    H236511   7.031   9.233   2.508
12212TIP3   OH236512   7.474   9.162   2.456
12212TIP3    H136513   7.514   9.214   2.383
12212TIP3    H236514   7.379   9.182   2.447
12213TIP3   OH236515   7.575   9.275   2.220
12213TIP3    H136516   7.639   9.210   2.181
12213TIP3    H236517   7.628   9.355   2.214
12214TIP3   OH236518   6.201   8.989   2.570
12214TIP3    H136519   6.109   8.954   2.572
12214TIP3    H236520   6.250   8.904   2.568
12215TIP3   OH236521   5.998   8.856   2.216
12215TIP3    H136522   6.023   8.912   2.141
12215TIP3    H236523   5.960   8.920   2.277
12216TIP3   OH236524   6.698   8.997   2.479
12216TIP3    H136525   6.718   9.049   2.398
12216TIP3    H236526   6.649   9.067   2.528
12217TIP3   OH236527   7.189   9.157   2.437
12217TIP3    H136528   7.192   9.129   2.345
12217TIP3    H236529   7.172   9.073   2.484
12218TIP3   OH236530   7.219   9.081   1.994
12218TIP3    H136531   7.134   9.127   2.005
12218TIP3    H236532   7.202   8.998   2.043
12219TIP3   OH236533   6.105   9.016   1.985
12219TIP3    H136534   6.152   8.954   1.926
12219TIP3    H236535   6.178   9.071   2.018
12220TIP3   OH236536   6.617   9.193   2.082
12220TIP3    H136537   6.683   9.150   2.139
12220TIP3    H236538   6.636   9.287   2.104
12221TIP3   OH236539   6.409   9.269   3.460
12221TIP3    H136540   6.375   9.199   3.519
12221TIP3    H236541   6.503   9.270   3.488
12222TIP3   OH236542   6.657   9.265   3.579
12222TIP3    H136543   6.744   9.244   3.540
12222TIP3    H236544   6.648   9.194   3.646
12223TIP3   OH236545   7.482   9.327   3.369
12223TIP3    H136546   7.504   9.296   3.459
12223TIP3    H236547   7.569   9.323   3.324
12224TIP3   OH236548   2.206   0.688   7.842
12224TIP3    H136549   2.271   0.614   7.847
12224TIP3    H236550   2.248   0.756   7.899
12225TIP3   OH236551   1.845   1.093   7.864
12225TIP3    H136552   1.885   1.023   7.807
12225TIP3    H236553   1.876   1.065   7.951
12226TIP3   OH236554   2.268   0.893   8.023
12226TIP3    H136555   2.181   0.890   8.064
12226TIP3    H236556   2.268   0.981   7.980
12227TIP3   OH236557   1.978   0.934   7.683
12227TIP3    H136558   2.023   0.849   7.665
12227TIP3    H236559   2.044   0.998   7.647
12228TIP3   OH236560   2.087   0.694   7.591
12228TIP3    H136561   2.128   0.633   7.526
12228TIP3    H236562   2.149   0.689   7.667
12229TIP3   OH236563   2.518   0.806   8.358
12229TIP3    H136564   2.486   0.723   8.319
12229TIP3    H236565   2.492   0.873   8.292
12230TIP3   OH236566   2.722   0.454   8.205
12230TIP3    H136567   2.627   0.467   8.221
12230TIP3    H236568   2.728   0.465   8.109
12231TIP3   OH236569   2.302   0.745   7.013
12231TIP3    H136570   2.310   0.841   6.993
12231TIP3    H236571   2.394   0.714   6.999
12232TIP3   OH236572   2.743   1.146   8.398
12232TIP3    H136573   2.744   1.050   8.413
12232TIP3    H236574   2.661   1.170   8.447
12233TIP3   OH236575   1.602   1.065   7.488
12233TIP3    H136576   1.570   1.051   7.398
12233TIP3    H236577   1.578   1.158   7.506
12234TIP3   OH236578   1.816   0.962   7.135
12234TIP3    H136579   1.877   0.896   7.094
12234TIP3    H236580   1.852   0.968   7.225
12235TIP3   OH236581   1.863   1.018   7.408
12235TIP3    H136582   1.776   1.017   7.452
12235TIP3    H236583   1.924   1.007   7.482
12236TIP3   OH236584   2.429   1.497   8.500
12236TIP3    H136585   2.431   1.518   8.405
12236TIP3    H236586   2.509   1.542   8.532
12237TIP3   OH236587   2.462   0.578   8.190
12237TIP3    H136588   2.511   0.628   8.121
12237TIP3    H236589   2.372   0.582   8.156
12238TIP3   OH236590   2.762   0.856   8.449
12238TIP3    H136591   2.664   0.847   8.437
12238TIP3    H236592   2.789   0.823   8.361
12239TIP3   OH236593   2.241   0.810   7.276
12239TIP3    H136594   2.213   0.728   7.318
12239TIP3    H236595   2.250   0.781   7.182
12240TIP3   OH236596   2.020   0.557   7.172
12240TIP3    H136597   2.047   0.516   7.256
12240TIP3    H236598   1.922   0.546   7.176
12241TIP3   OH236599   2.270   1.179   8.339
12241TIP3    H136600   2.184   1.135   8.327
12241TIP3    H236601   2.261   1.253   8.276
12242TIP3   OH236602   2.333   1.019   6.996
12242TIP3    H136603   2.369   1.088   6.938
12242TIP3    H236604   2.253   1.064   7.028
12243TIP3   OH236605   2.163   0.481   7.426
12243TIP3    H136606   2.151   0.389   7.456
12243TIP3    H236607   2.256   0.476   7.394
12244TIP3   OH236608   2.286   1.154   7.934
12244TIP3    H136609   2.245   1.204   7.860
12244TIP3    H236610   2.380   1.175   7.917
12245TIP3   OH236611   1.976   0.784   7.007
12245TIP3    H136612   2.010   0.707   7.057
12245TIP3    H236613   2.021   0.774   6.921
12246TIP3   OH236614   2.337   0.282   7.018
12246TIP3    H136615   2.307   0.232   6.939
12246TIP3    H236616   2.290   0.367   7.002
12247TIP3   OH236617   2.535   1.253   7.894
12247TIP3    H136618   2.569   1.282   7.980
12247TIP3    H236619   2.601   1.290   7.833
12248TIP3   OH236620   2.574   1.270   8.175
12248TIP3    H136621   2.529   1.183   8.169
12248TIP3    H236622   2.645   1.246   8.236
12249TIP3   OH236623   2.432   0.462   7.374
12249TIP3    H136624   2.502   0.521   7.341
12249TIP3    H236625   2.477   0.420   7.451
12250TIP3   OH236626   2.560   0.333   7.584
12250TIP3    H136627   2.501   0.323   7.661
12250TIP3    H236628   2.640   0.371   7.627
12251TIP3   OH236629   2.609   0.716   8.003
12251TIP3    H136630   2.666   0.649   7.959
12251TIP3    H236631   2.611   0.790   7.940
12252TIP3   OH236632   2.449   1.023   8.195
12252TIP3    H136633   2.380   1.063   8.252
12252TIP3    H236634   2.395   0.972   8.131
12253TIP3   OH236635   2.504   0.240   7.220
12253TIP3    H136636   2.440   0.249   7.145
12253TIP3    H236637   2.471   0.310   7.278
12254TIP3   OH236638   2.647   0.605   8.572
12254TIP3    H136639   2.724   0.545   8.581
12254TIP3    H236640   2.686   0.683   8.531
12255TIP3   OH236641   2.841   0.408   8.599
12255TIP3    H136642   2.770   0.345   8.617
12255TIP3    H236643   2.921   0.355   8.613
12256TIP3   OH236644   2.125   1.114   7.550
12256TIP3    H136645   2.174   1.101   7.465
12256TIP3    H236646   2.179   1.183   7.591
12257TIP3   OH236647   2.024   1.372   8.455
12257TIP3    H136648   2.074   1.289   8.450
12257TIP3    H236649   2.067   1.414   8.532
12258TIP3   OH236650   1.778   1.227   8.153
12258TIP3    H136651   1.700   1.234   8.097
12258TIP3    H236652   1.774   1.310   8.205
12259TIP3   OH236653   2.028   1.152   8.207
12259TIP3    H136654   1.936   1.178   8.185
12259TIP3    H236655   2.077   1.230   8.175
12260TIP3   OH236656   2.220   1.350   8.127
12260TIP3    H136657   2.206   1.435   8.081
12260TIP3    H236658   2.247   1.291   8.054
12261TIP3   OH236659   1.556   0.940   7.209
12261TIP3    H136660   1.649   0.965   7.189
12261TIP3    H236661   1.549   0.862   7.152
12262TIP3   OH236662   2.267   1.079   7.319
12262TIP3    H136663   2.261   0.982   7.303
12262TIP3    H236664   2.226   1.113   7.236
12263TIP3   OH236665   2.499   1.229   8.498
12263TIP3    H136666   2.418   1.193   8.456
12263TIP3    H236667   2.474   1.323   8.507
12264TIP3   OH236668   3.764   0.599   7.272
12264TIP3    H136669   3.736   0.690   7.253
12264TIP3    H236670   3.686   0.550   7.240
12265TIP3   OH236671   3.762   0.598   7.651
12265TIP3    H136672   3.796   0.566   7.736
12265TIP3    H236673   3.718   0.519   7.617
12266TIP3   OH236674   3.059   0.498   8.012
12266TIP3    H136675   3.092   0.431   8.075
12266TIP3    H236676   3.136   0.556   8.006
12267TIP3   OH236677   4.005   0.899   7.334
12267TIP3    H136678   3.991   0.831   7.400
12267TIP3    H236679   4.034   0.975   7.388
12268TIP3   OH236680   3.032   0.903   7.745
12268TIP3    H136681   3.024   0.805   7.746
12268TIP3    H236682   3.128   0.912   7.738
12269TIP3   OH236683   2.734   0.101   7.532
12269TIP3    H136684   2.695   0.188   7.548
12269TIP3    H236685   2.657   0.053   7.500
12270TIP3   OH236686   2.804   0.393   7.691
12270TIP3    H136687   2.850   0.317   7.734
12270TIP3    H236688   2.870   0.421   7.626
12271TIP3   OH236689   3.653   1.362   7.350
12271TIP3    H136690   3.700   1.292   7.300
12271TIP3    H236691   3.649   1.323   7.438
12272TIP3   OH236692   3.560   0.823   7.703
12272TIP3    H136693   3.596   0.748   7.653
12272TIP3    H236694   3.645   0.868   7.724
12273TIP3   OH236695   3.975   0.333   7.735
12273TIP3    H136696   4.006   0.246   7.762
12273TIP3    H236697   3.944   0.317   7.644
12274TIP3   OH236698   2.947   0.189   7.802
12274TIP3    H136699   3.020   0.161   7.861
12274TIP3    H236700   2.967   0.131   7.725
12275TIP3   OH236701   3.386   0.386   7.603
12275TIP3    H136702   3.477   0.353   7.616
12275TIP3    H236703   3.340   0.305   7.571
12276TIP3   OH236704   4.619   0.325   7.890
12276TIP3    H136705   4.559   0.397   7.864
12276TIP3    H236706   4.670   0.364   7.963
12277TIP3   OH236707   3.657   0.821   7.141
12277TIP3    H136708   3.610   0.798   7.060
12277TIP3    H236709   3.612   0.904   7.166
12278TIP3   OH236710   3.420   0.740   7.936
12278TIP3    H136711   3.355   0.804   7.972
12278TIP3    H236712   3.458   0.790   7.861
12279TIP3   OH236713   3.189   0.088   7.907
12279TIP3    H136714   3.252   0.160   7.926
12279TIP3    H236715   3.221   0.053   7.823
12280TIP3   OH236716   3.242   0.935   8.027
12280TIP3    H136717   3.216   1.019   7.986
12280TIP3    H236718   3.164   0.919   8.083
12281TIP3   OH236719   2.635   0.626   7.262
12281TIP3    H136720   2.595   0.650   7.177
12281TIP3    H236721   2.666   0.712   7.296
12282TIP3   OH236722   4.076   1.142   7.503
12282TIP3    H136723   3.986   1.135   7.541
12282TIP3    H236724   4.069   1.228   7.456
12283TIP3   OH236725   3.779   1.190   7.177
12283TIP3    H136726   3.829   1.108   7.155
12283TIP3    H236727   3.840   1.256   7.135
12284TIP3   OH236728   3.921   0.974   7.082
12284TIP3    H136729   3.879   0.896   7.045
12284TIP3    H236730   3.957   0.939   7.166
12285TIP3   OH236731   4.301   1.056   7.846
12285TIP3    H136732   4.291   0.979   7.786
12285TIP3    H236733   4.285   1.131   7.786
12286TIP3   OH236734   3.594   0.450   7.103
12286TIP3    H136735   3.512   0.499   7.083
12286TIP3    H236736   3.637   0.446   7.016
12287TIP3   OH236737   3.547   0.246   6.824
12287TIP3    H136738   3.627   0.281   6.867
12287TIP3    H236739   3.584   0.165   6.782
12288TIP3   OH236740   4.495   0.688   7.691
12288TIP3    H136741   4.413   0.742   7.695
12288TIP3    H236742   4.526   0.712   7.601
12289TIP3   OH236743   3.942   0.532   7.075
12289TIP3    H136744   3.886   0.557   7.153
12289TIP3    H236745   4.024   0.505   7.119
12290TIP3   OH236746   4.172   0.577   7.982
12290TIP3    H136747   4.170   0.662   8.029
12290TIP3    H236748   4.088   0.583   7.932
12291TIP3   OH236749   3.175   0.531   7.491
12291TIP3    H136750   3.131   0.474   7.424
12291TIP3    H236751   3.249   0.474   7.519
12292TIP3   OH236752   3.302   0.942   7.640
12292TIP3    H136753   3.281   0.899   7.556
12292TIP3    H236754   3.392   0.908   7.658
12293TIP3   OH236755   3.316   0.496   7.850
12293TIP3    H136756   3.342   0.475   7.758
12293TIP3    H236757   3.357   0.584   7.865
12294TIP3   OH236758   3.834   1.140   7.622
12294TIP3    H136759   3.821   1.219   7.677
12294TIP3    H236760   3.820   1.066   7.685
12295TIP3   OH236761   3.446   1.060   8.168
12295TIP3    H136762   3.386   1.121   8.216
12295TIP3    H236763   3.381   1.005   8.120
12296TIP3   OH236764   3.788   0.379   6.903
12296TIP3    H136765   3.845   0.440   6.957
12296TIP3    H236766   3.813   0.406   6.812
12297TIP3   OH236767   3.185   0.624   8.267
12297TIP3    H136768   3.191   0.707   8.317
12297TIP3    H236769   3.092   0.598   8.286
12298TIP3   OH236770   3.524   1.071   7.177
12298TIP3    H136771   3.603   1.125   7.194
12298TIP3    H236772   3.463   1.133   7.135
12299TIP3   OH236773   3.240   1.229   8.257
12299TIP3    H136774   3.205   1.224   8.166
12299TIP3    H236775   3.162   1.205   8.311
12300TIP3   OH236776   3.038   0.380   7.297
12300TIP3    H136777   2.968   0.416   7.238
12300TIP3    H236778   3.012   0.288   7.306
12301TIP3   OH236779   4.095   0.999   6.496
12301TIP3    H136780   4.103   1.096   6.482
12301TIP3    H236781   4.189   0.971   6.485
12302TIP3   OH236782   2.824   0.756   8.202
12302TIP3    H136783   2.756   0.733   8.137
12302TIP3    H236784   2.856   0.668   8.230
12303TIP3   OH236785   2.674   0.948   7.838
12303TIP3    H136786   2.769   0.937   7.824
12303TIP3    H236787   2.671   1.028   7.893
12304TIP3   OH236788   4.539   1.400   7.893
12304TIP3    H136789   4.537   1.303   7.904
12304TIP3    H236790   4.455   1.425   7.937
12305TIP3   OH236791   3.645   1.188   8.027
12305TIP3    H136792   3.644   1.280   8.059
12305TIP3    H236793   3.573   1.148   8.080
12306TIP3   OH236794   3.405   1.316   6.978
12306TIP3    H136795   3.360   1.297   6.894
12306TIP3    H236796   3.374   1.405   7.000
12307TIP3   OH236797   2.843   1.166   7.361
12307TIP3    H136798   2.891   1.155   7.447
12307TIP3    H236799   2.787   1.086   7.362
12308TIP3   OH236800   3.607   1.217   6.618
12308TIP3    H136801   3.666   1.148   6.582
12308TIP3    H236802   3.642   1.227   6.709
12309TIP3   OH236803   3.657   1.265   6.889
12309TIP3    H136804   3.568   1.274   6.931
12309TIP3    H236805   3.708   1.225   6.961
12310TIP3   OH236806   4.430   0.525   8.181
12310TIP3    H136807   4.359   0.561   8.125
12310TIP3    H236808   4.451   0.442   8.137
12311TIP3   OH236809   3.026   0.942   8.193
12311TIP3    H136810   3.076   0.923   8.275
12311TIP3    H236811   2.953   0.876   8.199
12312TIP3   OH236812   4.104   0.395   8.184
12312TIP3    H136813   4.146   0.311   8.161
12312TIP3    H236814   4.119   0.449   8.104
12313TIP3   OH236815   3.857   0.434   6.644
12313TIP3    H136816   3.825   0.409   6.555
12313TIP3    H236817   3.932   0.492   6.622
12314TIP3   OH236818   3.368   0.277   8.001
12314TIP3    H136819   3.306   0.296   8.075
12314TIP3    H236820   3.351   0.354   7.943
12315TIP3   OH236821   3.228   0.188   7.502
12315TIP3    H136822   3.151   0.136   7.533
12315TIP3    H236823   3.251   0.141   7.419
12316TIP3   OH236824   3.737   0.256   7.234
12316TIP3    H136825   3.682   0.327   7.194
12316TIP3    H236826   3.782   0.220   7.155
12317TIP3   OH236827   3.913   0.587   8.278
12317TIP3    H136828   3.888   0.540   8.362
12317TIP3    H236829   4.006   0.561   8.274
12318TIP3   OH236830   3.894   0.282   7.473
12318TIP3    H136831   3.834   0.313   7.403
12318TIP3    H236832   3.922   0.197   7.435
12319TIP3   OH236833   3.184   0.320   8.197
12319TIP3    H136834   3.186   0.378   8.275
12319TIP3    H236835   3.130   0.246   8.226
12320TIP3   OH236836   3.905   0.533   7.900
12320TIP3    H136837   3.931   0.457   7.843
12320TIP3    H236838   3.867   0.488   7.977
12321TIP3   OH236839   2.999   0.040   7.576
12321TIP3    H136840   2.906   0.060   7.550
12321TIP3    H236841   3.006  -0.054   7.554
12322TIP3   OH236842   3.287   0.060   7.264
12322TIP3    H136843   3.371   0.034   7.226
12322TIP3    H236844   3.225   0.052   7.189
12323TIP3   OH236845   3.100   0.077   7.046
12323TIP3    H136846   3.044   0.022   6.987
12323TIP3    H236847   3.163   0.110   6.980
12324TIP3   OH236848   4.229   1.752   7.990
12324TIP3    H136849   4.227   1.775   7.895
12324TIP3    H236850   4.309   1.799   8.019
12325TIP3   OH236851   3.186   0.864   8.414
12325TIP3    H136852   3.267   0.893   8.461
12325TIP3    H236853   3.123   0.862   8.488
12326TIP3   OH236854   3.656   0.319   7.675
12326TIP3    H136855   3.711   0.263   7.620
12326TIP3    H236856   3.650   0.267   7.758
12327TIP3   OH236857   3.635   0.204   7.969
12327TIP3    H136858   3.544   0.240   7.976
12327TIP3    H236859   3.686   0.264   8.028
12328TIP3   OH236860   3.365   0.602   7.052
12328TIP3    H136861   3.293   0.536   7.042
12328TIP3    H236862   3.346   0.636   7.143
12329TIP3   OH236863   4.266   0.838   7.682
12329TIP3    H136864   4.291   0.888   7.601
12329TIP3    H236865   4.180   0.797   7.656
12330TIP3   OH236866   3.770   0.926   8.047
12330TIP3    H136867   3.780   0.896   8.138
12330TIP3    H236868   3.725   1.011   8.056
12331TIP3   OH236869   3.884   0.134   7.009
12331TIP3    H136870   3.981   0.146   7.018
12331TIP3    H236871   3.859   0.212   6.956
12332TIP3   OH236872   3.059   0.627   7.727
12332TIP3    H136873   3.097   0.596   7.642
12332TIP3    H236874   3.090   0.559   7.788
12333TIP3   OH236875   3.507   0.751   6.871
12333TIP3    H136876   3.462   0.838   6.878
12333TIP3    H236877   3.454   0.697   6.933
12334TIP3   OH236878   2.936   0.544   8.347
12334TIP3    H136879   2.937   0.522   8.442
12334TIP3    H236880   2.859   0.492   8.315
12335TIP3   OH236881   3.660   0.673   8.360
12335TIP3    H136882   3.586   0.622   8.321
12335TIP3    H236883   3.735   0.646   8.302
12336TIP3   OH236884   3.926   1.182   7.944
12336TIP3    H136885   3.829   1.177   7.956
12336TIP3    H236886   3.952   1.234   8.023
12337TIP3   OH236887   4.338   0.247   6.848
12337TIP3    H136888   4.277   0.200   6.788
12337TIP3    H236889   4.334   0.337   6.807
12338TIP3   OH236890   4.552   1.107   7.935
12338TIP3    H136891   4.454   1.104   7.925
12338TIP3    H236892   4.579   1.080   7.845
12339TIP3   OH236893   4.033   1.071   6.760
12339TIP3    H136894   4.010   1.001   6.822
12339TIP3    H236895   4.047   1.024   6.676
12340TIP3   OH236896   4.031   0.700   7.603
12340TIP3    H136897   3.937   0.675   7.613
12340TIP3    H236898   4.065   0.622   7.556
12341TIP3   OH236899   3.157   0.929   7.354
12341TIP3    H136900   3.158   1.010   7.299
12341TIP3    H236901   3.063   0.910   7.359
12342TIP3   OH236902   2.722   0.229   7.055
12342TIP3    H136903   2.768   0.313   7.074
12342TIP3    H236904   2.647   0.235   7.118
12343TIP3   OH236905   3.298   0.695   7.297
12343TIP3    H136906   3.262   0.784   7.317
12343TIP3    H236907   3.262   0.642   7.371
12344TIP3   OH236908   3.426   1.273   7.822
12344TIP3    H136909   3.468   1.344   7.770
12344TIP3    H236910   3.503   1.237   7.869
12345TIP3   OH236911   3.078   1.167   7.206
12345TIP3    H136912   2.991   1.176   7.251
12345TIP3    H236913   3.109   1.260   7.207
12346TIP3   OH236914   3.816   0.906   7.779
12346TIP3    H136915   3.809   0.906   7.877
12346TIP3    H236916   3.895   0.852   7.765
12347TIP3   OH236917   3.789   0.794   6.662
12347TIP3    H136918   3.840   0.772   6.743
12347TIP3    H236919   3.699   0.774   6.693
12348TIP3   OH236920   4.063   1.442   7.832
12348TIP3    H136921   3.985   1.385   7.823
12348TIP3    H236922   4.049   1.506   7.758
12349TIP3   OH236923   4.129   1.274   6.483
12349TIP3    H136924   4.167   1.346   6.429
12349TIP3    H236925   4.049   1.320   6.516
12350TIP3   OH236926   3.949   0.731   6.879
12350TIP3    H136927   3.939   0.666   6.951
12350TIP3    H236928   4.047   0.730   6.868
12351TIP3   OH236929   2.865   1.136   7.983
12351TIP3    H136930   2.915   1.056   8.005
12351TIP3    H236931   2.897   1.197   8.051
12352TIP3   OH236932   3.161   0.778   6.662
12352TIP3    H136933   3.166   0.686   6.632
12352TIP3    H236934   3.138   0.767   6.757
12353TIP3   OH236935   3.102   0.785   6.934
12353TIP3    H136936   3.171   0.757   6.996
12353TIP3    H236937   3.106   0.883   6.941
12354TIP3   OH236938   2.835   0.478   7.136
12354TIP3    H136939   2.769   0.522   7.194
12354TIP3    H236940   2.849   0.548   7.070
12355TIP3   OH236941   3.368   0.983   6.884
12355TIP3    H136942   3.281   1.010   6.919
12355TIP3    H236943   3.383   1.054   6.820
12356TIP3   OH236944   3.582   0.037   7.300
12356TIP3    H136945   3.621   0.125   7.280
12356TIP3    H236946   3.532   0.055   7.381
12357TIP3   OH236947   3.817   0.353   8.131
12357TIP3    H136948   3.830   0.434   8.184
12357TIP3    H236949   3.906   0.315   8.133
12358TIP3   OH236950   3.110   1.057   6.951
12358TIP3    H136951   3.080   1.126   6.887
12358TIP3    H236952   3.094   1.102   7.037
12359TIP3   OH236953   4.115   0.464   7.473
12359TIP3    H136954   4.044   0.400   7.486
12359TIP3    H236955   4.191   0.421   7.520
12360TIP3   OH236956   2.828   0.689   6.944
12360TIP3    H136957   2.893   0.762   6.951
12360TIP3    H236958   2.873   0.634   6.877
12361TIP3   OH236959   2.750  -0.058   7.063
12361TIP3    H136960   2.797   0.028   7.064
12361TIP3    H236961   2.664  -0.030   7.095
12362TIP3   OH236962   4.084   1.414   7.424
12362TIP3    H136963   4.041   1.461   7.349
12362TIP3    H236964   4.178   1.434   7.403
12363TIP3   OH236965   2.703   0.907   7.334
12363TIP3    H136966   2.625   0.935   7.383
12363TIP3    H236967   2.681   0.942   7.245
12364TIP3   OH236968   2.856   1.442   8.399
12364TIP3    H136969   2.941   1.434   8.446
12364TIP3    H236970   2.829   1.348   8.397
12365TIP3   OH236971   3.339   1.416   8.438
12365TIP3    H136972   3.431   1.388   8.453
12365TIP3    H236973   3.312   1.351   8.370
12366TIP3   OH236974   3.320   0.985   6.576
12366TIP3    H136975   3.265   0.913   6.613
12366TIP3    H236976   3.394   0.934   6.538
12367TIP3   OH236977   3.974   1.317   8.182
12367TIP3    H136978   3.967   1.246   8.250
12367TIP3    H236979   4.053   1.366   8.210
12368TIP3   OH236980   3.755   1.025   6.486
12368TIP3    H136981   3.804   0.964   6.544
12368TIP3    H236982   3.810   1.027   6.405
12369TIP3   OH236983   2.989   0.838   8.603
12369TIP3    H136984   3.004   0.742   8.597
12369TIP3    H236985   2.900   0.847   8.562
12370TIP3   OH236986   2.964   0.503   6.795
12370TIP3    H136987   3.016   0.466   6.868
12370TIP3    H236988   3.032   0.507   6.725
12371TIP3   OH236989   3.596   0.939   8.376
12371TIP3    H136990   3.550   0.947   8.291
12371TIP3    H236991   3.625   0.844   8.375
12372TIP3   OH236992   3.481   0.689   6.602
12372TIP3    H136993   3.477   0.707   6.698
12372TIP3    H236994   3.453   0.596   6.599
12373TIP3   OH236995   4.089   0.940   7.986
12373TIP3    H136996   4.160   0.988   7.939
12373TIP3    H236997   4.015   1.002   7.972
12374TIP3   OH236998   3.103   0.575   8.596
12374TIP3    H136999   3.181   0.526   8.565
12374TIP3    H237000   3.123   0.587   8.689
12375TIP3   OH237001   3.175   0.403   7.020
12375TIP3    H137002   3.146   0.363   7.104
12375TIP3    H237003   3.208   0.325   6.971
12376TIP3   OH237004   3.445   0.545   8.244
12376TIP3    H137005   3.352   0.577   8.248
12376TIP3    H237006   3.459   0.534   8.149
12377TIP3   OH237007   3.272   0.193   6.863
12377TIP3    H137008   3.244   0.202   6.769
12377TIP3    H237009   3.369   0.204   6.855
12378TIP3   OH237010   3.965   0.878   8.391
12378TIP3    H137011   4.024   0.838   8.325
12378TIP3    H237012   3.951   0.803   8.452
12379TIP3   OH237013   4.097   0.527   6.520
12379TIP3    H137014   4.072   0.485   6.435
12379TIP3    H237015   4.066   0.619   6.501
12380TIP3   OH237016   3.527   0.314   8.369
12380TIP3    H137017   3.543   0.238   8.309
12380TIP3    H237018   3.524   0.391   8.308
12381TIP3   OH237019   3.630   0.584   8.026
12381TIP3    H137020   3.695   0.605   7.959
12381TIP3    H237021   3.559   0.648   8.006
12382TIP3   OH237022   4.189   0.554   8.450
12382TIP3    H137023   4.215   0.465   8.425
12382TIP3    H237024   4.244   0.609   8.395
12383TIP3   OH237025   4.221   0.796   8.170
12383TIP3    H137026   4.160   0.850   8.114
12383TIP3    H237027   4.307   0.821   8.130
12384TIP3   OH237028   3.414   0.387   8.606
12384TIP3    H137029   3.347   0.317   8.614
12384TIP3    H237030   3.458   0.362   8.522
12385TIP3   OH237031   3.860   0.427   8.483
12385TIP3    H137032   3.811   0.405   8.564
12385TIP3    H237033   3.879   0.339   8.447
12386TIP3   OH237034   3.079   1.259   6.764
12386TIP3    H137035   3.174   1.257   6.744
12386TIP3    H237036   3.047   1.308   6.685
12387TIP3   OH237037   2.560   0.641   6.983
12387TIP3    H137038   2.655   0.663   6.966
12387TIP3    H237039   2.553   0.553   6.940
12388TIP3   OH237040   2.470   1.254   7.394
12388TIP3    H137041   2.406   1.191   7.356
12388TIP3    H237042   2.516   1.197   7.459
12389TIP3   OH237043   2.607   1.108   7.582
12389TIP3    H137044   2.602   1.031   7.640
12389TIP3    H237045   2.660   1.169   7.637
12390TIP3   OH237046   4.335   1.507   7.380
12390TIP3    H137047   4.365   1.543   7.465
12390TIP3    H237048   4.398   1.549   7.318
12391TIP3   OH237049   4.364   1.528   7.664
12391TIP3    H137050   4.324   1.438   7.657
12391TIP3    H237051   4.444   1.506   7.715
12392TIP3   OH237052   4.415   1.202   8.237
12392TIP3    H137053   4.340   1.213   8.298
12392TIP3    H237054   4.455   1.291   8.239
12393TIP3   OH237055   4.230   0.713   6.853
12393TIP3    H137056   4.297   0.780   6.825
12393TIP3    H237057   4.273   0.677   6.933
12394TIP3   OH237058   4.357   0.581   7.057
12394TIP3    H137059   4.292   0.541   7.119
12394TIP3    H237060   4.423   0.620   7.118
12395TIP3   OH237061   4.410   0.974   7.491
12395TIP3    H137062   4.463   0.910   7.439
12395TIP3    H237063   4.403   1.050   7.430
12396TIP3   OH237064   4.242   1.274   7.687
12396TIP3    H137065   4.170   1.318   7.737
12396TIP3    H237066   4.193   1.227   7.616
12397TIP3   OH237067   4.291   0.484   6.706
12397TIP3    H137068   4.222   0.498   6.636
12397TIP3    H237069   4.270   0.561   6.763
12398TIP3   OH237070   4.168   0.147   6.645
12398TIP3    H137071   4.142   0.237   6.622
12398TIP3    H237072   4.109   0.095   6.588
12399TIP3   OH237073   4.172   0.439   7.208
12399TIP3    H137074   4.182   0.343   7.215
12399TIP3    H237075   4.156   0.463   7.303
12400TIP3   OH237076   2.795   0.523   7.940
12400TIP3    H137077   2.796   0.488   7.849
12400TIP3    H237078   2.891   0.520   7.963
12401TIP3   OH237079   4.465   0.860   8.063
12401TIP3    H137080   4.537   0.796   8.047
12401TIP3    H237081   4.487   0.931   8.000
12402TIP3   OH237082   4.648   0.656   8.076
12402TIP3    H137083   4.582   0.606   8.129
12402TIP3    H237084   4.731   0.617   8.108
12403TIP3   OH237085   4.155   0.147   7.047
12403TIP3    H137086   4.199   0.116   7.129
12403TIP3    H237087   4.228   0.193   7.001
12404TIP3   OH237088   4.333   0.362   7.600
12404TIP3    H137089   4.422   0.372   7.559
12404TIP3    H237090   4.354   0.382   7.692
12405TIP3   OH237091   4.395   0.483   7.847
12405TIP3    H137092   4.312   0.525   7.877
12405TIP3    H237093   4.432   0.553   7.788
12406TIP3   OH237094   2.827   0.160   8.052
12406TIP3    H137095   2.841   0.156   7.956
12406TIP3    H237096   2.799   0.251   8.066
12407TIP3   OH237097   3.921   1.372   7.038
12407TIP3    H137098   3.971   1.357   6.954
12407TIP3    H237099   3.976   1.440   7.080
12408TIP3   OH237100   3.022   1.182   8.430
12408TIP3    H137101   2.932   1.149   8.411
12408TIP3    H237102   3.031   1.155   8.523
12409TIP3   OH237103   3.199   1.208   7.971
12409TIP3    H137104   3.152   1.284   7.931
12409TIP3    H237105   3.286   1.221   7.927
12410TIP3   OH237106   3.644   1.456   8.110
12410TIP3    H137107   3.688   1.455   8.198
12410TIP3    H237108   3.711   1.504   8.056
12411TIP3   OH237109   3.824   1.604   7.967
12411TIP3    H137110   3.893   1.554   7.922
12411TIP3    H237111   3.877   1.662   8.026
12412TIP3   OH237112   2.878   1.473   7.992
12412TIP3    H137113   2.790   1.510   7.967
12412TIP3    H237114   2.870   1.476   8.088
12413TIP3   OH237115   3.114   1.446   7.852
12413TIP3    H137116   3.028   1.461   7.896
12413TIP3    H237117   3.094   1.477   7.761
12414TIP3   OH237118   3.539   1.474   7.650
12414TIP3    H137119   3.471   1.493   7.583
12414TIP3    H237120   3.552   1.562   7.690
12415TIP3   OH237121   3.807   1.414   7.702
12415TIP3    H137122   3.713   1.430   7.680
12415TIP3    H237123   3.851   1.487   7.657
12416TIP3   OH237124   4.014   1.605   7.616
12416TIP3    H137125   4.000   1.690   7.568
12416TIP3    H237126   4.041   1.545   7.543
12417TIP3   OH237127   2.786   1.258   7.741
12417TIP3    H137128   2.816   1.232   7.831
12417TIP3    H237129   2.858   1.216   7.689
12418TIP3   OH237130   2.980   1.132   7.596
12418TIP3    H137131   2.997   1.047   7.644
12418TIP3    H237132   3.071   1.168   7.590
12419TIP3   OH237133   3.247   1.227   7.598
12419TIP3    H137134   3.278   1.135   7.583
12419TIP3    H237135   3.292   1.246   7.682
12420TIP3   OH237136   2.574   1.033   7.133
12420TIP3    H137137   2.491   0.998   7.096
12420TIP3    H237138   2.564   1.126   7.108
12421TIP3   OH237139   3.348   1.222   6.713
12421TIP3    H137140   3.436   1.244   6.676
12421TIP3    H237141   3.325   1.147   6.653
12422TIP3   OH237142   4.065   1.338   6.805
12422TIP3    H137143   4.057   1.241   6.791
12422TIP3    H237144   4.021   1.371   6.724
12423TIP3   OH237145   2.652   1.057   6.769
12423TIP3    H137146   2.653   1.086   6.861
12423TIP3    H237147   2.741   1.015   6.758
12424TIP3   OH237148   4.291   1.483   7.996
12424TIP3    H137149   4.214   1.452   7.944
12424TIP3    H237150   4.275   1.579   7.995
12425TIP3   OH237151   5.560   0.854   6.758
12425TIP3    H137152   5.534   0.947   6.741
12425TIP3    H237153   5.480   0.808   6.728
12426TIP3   OH237154   5.558   0.852   7.137
12426TIP3    H137155   5.591   0.828   7.225
12426TIP3    H237156   5.513   0.770   7.110
12427TIP3   OH237157   4.856   0.755   7.505
12427TIP3    H137158   4.895   0.690   7.567
12427TIP3    H237159   4.934   0.810   7.487
12428TIP3   OH237160   5.801   1.156   6.821
12428TIP3    H137161   5.788   1.089   6.889
12428TIP3    H237162   5.830   1.233   6.873
12429TIP3   OH237163   4.828   1.158   7.231
12429TIP3    H137164   4.821   1.060   7.233
12429TIP3    H237165   4.924   1.169   7.225
12430TIP3   OH237166   4.528   0.349   7.024
12430TIP3    H137167   4.486   0.436   7.038
12430TIP3    H237168   4.464   0.307   6.963
12431TIP3   OH237169   4.596   0.647   7.184
12431TIP3    H137170   4.646   0.572   7.223
12431TIP3    H237171   4.659   0.682   7.120
12432TIP3   OH237172   5.448   1.617   6.835
12432TIP3    H137173   5.496   1.546   6.789
12432TIP3    H237174   5.446   1.585   6.926
12433TIP3   OH237175   5.357   1.079   7.189
12433TIP3    H137176   5.395   1.003   7.141
12433TIP3    H237177   5.440   1.125   7.212
12434TIP3   OH237178   5.772   0.591   7.222
12434TIP3    H137179   5.802   0.506   7.255
12434TIP3    H237180   5.741   0.570   7.131
12435TIP3   OH237181   4.741   0.440   7.293
12435TIP3    H137182   4.822   0.417   7.344
12435TIP3    H237183   4.759   0.387   7.212
12436TIP3   OH237184   5.182   0.643   7.091
12436TIP3    H137185   5.274   0.611   7.103
12436TIP3    H237186   5.137   0.561   7.059
12437TIP3   OH237187   6.416   0.582   7.375
12437TIP3    H137188   6.355   0.655   7.351
12437TIP3    H237189   6.465   0.620   7.451
12438TIP3   OH237190   5.455   1.078   6.626
12438TIP3    H137191   5.406   1.056   6.545
12438TIP3    H237192   5.410   1.161   6.652
12439TIP3   OH237193   5.213   0.997   7.422
12439TIP3    H137194   5.150   1.063   7.457
12439TIP3    H237195   5.255   1.046   7.349
12440TIP3   OH237196   4.979   0.350   7.389
12440TIP3    H137197   5.046   0.416   7.416
12440TIP3    H237198   5.023   0.305   7.316
12441TIP3   OH237199   5.037   1.192   7.511
12441TIP3    H137200   5.013   1.278   7.472
12441TIP3    H237201   4.958   1.179   7.569
12442TIP3   OH237202   4.432   0.884   6.750
12442TIP3    H137203   4.393   0.912   6.665
12442TIP3    H237204   4.463   0.969   6.787
12443TIP3   OH237205   5.871   1.397   6.986
12443TIP3    H137206   5.781   1.391   7.027
12443TIP3    H237207   5.865   1.485   6.943
12444TIP3   OH237208   5.576   1.445   6.663
12444TIP3    H137209   5.627   1.364   6.641
12444TIP3    H237210   5.636   1.512   6.622
12445TIP3   OH237211   5.719   1.229   6.568
12445TIP3    H137212   5.669   1.153   6.537
12445TIP3    H237213   5.755   1.196   6.653
12446TIP3   OH237214   6.096   1.312   7.333
12446TIP3    H137215   6.087   1.236   7.271
12446TIP3    H237216   6.081   1.389   7.273
12447TIP3   OH237217   5.389   0.705   6.588
12447TIP3    H137218   5.307   0.756   6.570
12447TIP3    H237219   5.432   0.705   6.501
12448TIP3   OH237220   5.342   0.495   6.312
12448TIP3    H137221   5.418   0.539   6.355
12448TIP3    H237222   5.390   0.426   6.261
12449TIP3   OH237223   6.291   0.943   7.176
12449TIP3    H137224   6.210   0.998   7.182
12449TIP3    H237225   6.323   0.970   7.087
12450TIP3   OH237226   5.738   0.788   6.562
12450TIP3    H137227   5.683   0.814   6.639
12450TIP3    H237228   5.821   0.761   6.607
12451TIP3   OH237229   5.970   0.834   7.468
12451TIP3    H137230   5.970   0.917   7.519
12451TIP3    H237231   5.886   0.845   7.418
12452TIP3   OH237232   4.971   0.788   6.978
12452TIP3    H137233   4.928   0.730   6.912
12452TIP3    H237234   5.046   0.732   7.008
12453TIP3   OH237235   5.098   1.196   7.128
12453TIP3    H137236   5.080   1.154   7.043
12453TIP3    H237237   5.188   1.165   7.147
12454TIP3   OH237238   5.105   0.755   7.336
12454TIP3    H137239   5.137   0.732   7.246
12454TIP3    H237240   5.152   0.840   7.353
12455TIP3   OH237241   5.630   1.395   7.108
12455TIP3    H137242   5.618   1.476   7.160
12455TIP3    H237243   5.616   1.324   7.174
12456TIP3   OH237244   5.244   1.314   7.655
12456TIP3    H137245   5.187   1.377   7.703
12456TIP3    H237246   5.177   1.261   7.607
12457TIP3   OH237247   5.587   0.633   6.391
12457TIP3    H137248   5.641   0.696   6.444
12457TIP3    H237249   5.610   0.661   6.299
12458TIP3   OH237250   4.982   0.876   7.759
12458TIP3    H137251   4.989   0.961   7.807
12458TIP3    H237252   4.887   0.858   7.768
12459TIP3   OH237253   5.320   1.327   6.662
12459TIP3    H137254   5.399   1.381   6.681
12459TIP3    H237255   5.259   1.392   6.624
12460TIP3   OH237256   5.038   1.482   7.741
12460TIP3    H137257   5.003   1.481   7.650
12460TIP3    H237258   4.958   1.462   7.794
12461TIP3   OH237259   4.835   0.637   6.783
12461TIP3    H137260   4.765   0.672   6.724
12461TIP3    H237261   4.809   0.545   6.794
12462TIP3   OH237262   5.891   1.255   5.981
12462TIP3    H137263   5.899   1.352   5.969
12462TIP3    H237264   5.985   1.228   5.971
12463TIP3   OH237265   4.614   1.016   7.689
12463TIP3    H137266   4.551   0.994   7.618
12463TIP3    H237267   4.650   0.928   7.714
12464TIP3   OH237268   4.471   1.205   7.326
12464TIP3    H137269   4.567   1.199   7.312
12464TIP3    H237270   4.464   1.286   7.378
12465TIP3   OH237271   6.335   1.657   7.374
12465TIP3    H137272   6.337   1.562   7.397
12465TIP3    H237273   6.254   1.685   7.422
12466TIP3   OH237274   5.441   1.445   7.511
12466TIP3    H137275   5.442   1.537   7.545
12466TIP3    H237276   5.372   1.405   7.568
12467TIP3   OH237277   5.201   1.572   6.465
12467TIP3    H137278   5.156   1.556   6.380
12467TIP3    H237279   5.170   1.662   6.488
12468TIP3   OH237280   4.639   1.422   6.848
12468TIP3    H137281   4.689   1.413   6.933
12468TIP3    H237282   4.580   1.346   6.854
12469TIP3   OH237283   5.403   1.473   6.105
12469TIP3    H137284   5.463   1.404   6.069
12469TIP3    H237285   5.437   1.484   6.196
12470TIP3   OH237286   5.453   1.521   6.375
12470TIP3    H137287   5.365   1.531   6.418
12470TIP3    H237288   5.505   1.484   6.448
12471TIP3   OH237289   6.226   0.779   7.672
12471TIP3    H137290   6.159   0.822   7.617
12471TIP3    H237291   6.251   0.702   7.620
12472TIP3   OH237292   4.822   1.197   7.679
12472TIP3    H137293   4.872   1.180   7.762
12472TIP3    H237294   4.748   1.133   7.687
12473TIP3   OH237295   5.884   0.648   7.657
12473TIP3    H137296   5.947   0.574   7.653
12473TIP3    H237297   5.916   0.708   7.587
12474TIP3   OH237298   5.660   0.680   6.131
12474TIP3    H137299   5.621   0.666   6.042
12474TIP3    H237300   5.727   0.748   6.111
12475TIP3   OH237301   5.160   0.533   7.487
12475TIP3    H137302   5.100   0.556   7.561
12475TIP3    H237303   5.145   0.611   7.428
12476TIP3   OH237304   5.023   0.445   6.988
12476TIP3    H137305   4.948   0.393   7.020
12476TIP3    H237306   5.046   0.396   6.906
12477TIP3   OH237307   5.532   0.512   6.720
12477TIP3    H137308   5.477   0.584   6.683
12477TIP3    H237309   5.577   0.480   6.639
12478TIP3   OH237310   5.713   0.847   7.776
12478TIP3    H137311   5.692   0.780   7.841
12478TIP3    H237312   5.808   0.832   7.766
12479TIP3   OH237313   5.689   0.537   6.962
12479TIP3    H137314   5.630   0.570   6.891
12479TIP3    H237315   5.718   0.454   6.922
12480TIP3   OH237316   4.976   0.577   7.685
12480TIP3    H137317   4.992   0.634   7.761
12480TIP3    H237318   4.941   0.496   7.725
12481TIP3   OH237319   5.694   0.790   7.386
12481TIP3    H137320   5.725   0.716   7.329
12481TIP3    H237321   5.671   0.743   7.468
12482TIP3   OH237322   4.794   0.297   7.064
12482TIP3    H137323   4.699   0.313   7.041
12482TIP3    H237324   4.802   0.203   7.046
12483TIP3   OH237325   5.081   0.314   6.752
12483TIP3    H137326   5.169   0.293   6.715
12483TIP3    H237327   5.023   0.308   6.674
12484TIP3   OH237328   4.894   0.332   6.530
12484TIP3    H137329   4.842   0.279   6.467
12484TIP3    H237330   4.959   0.371   6.467
12485TIP3   OH237331   6.024   2.009   7.477
12485TIP3    H137332   6.025   2.033   7.383
12485TIP3    H237333   6.105   2.054   7.509
12486TIP3   OH237334   4.982   1.117   7.901
12486TIP3    H137335   5.065   1.145   7.945
12486TIP3    H237336   4.920   1.123   7.977
12487TIP3   OH237337   5.450   0.575   7.158
12487TIP3    H137338   5.511   0.522   7.106
12487TIP3    H237339   5.448   0.526   7.242
12488TIP3   OH237340   5.427   0.455   7.466
12488TIP3    H137341   5.340   0.500   7.464
12488TIP3    H237342   5.483   0.519   7.515
12489TIP3   OH237343   5.161   0.859   6.539
12489TIP3    H137344   5.088   0.794   6.528
12489TIP3    H237345   5.142   0.893   6.630
12490TIP3   OH237346   6.063   1.094   7.168
12490TIP3    H137347   6.087   1.144   7.087
12490TIP3    H237348   5.976   1.055   7.143
12491TIP3   OH237349   5.557   1.176   7.536
12491TIP3    H137350   5.589   1.159   7.626
12491TIP3    H237351   5.523   1.267   7.543
12492TIP3   OH237352   5.683   0.386   6.486
12492TIP3    H137353   5.779   0.402   6.501
12492TIP3    H237354   5.656   0.469   6.443
12493TIP3   OH237355   4.851   0.877   7.214
12493TIP3    H137356   4.890   0.853   7.127
12493TIP3    H237357   4.897   0.815   7.273
12494TIP3   OH237358   5.306   1.009   6.359
12494TIP3    H137359   5.258   1.095   6.365
12494TIP3    H237360   5.251   0.954   6.419
12495TIP3   OH237361   4.722   0.805   7.833
12495TIP3    H137362   4.750   0.787   7.925
12495TIP3    H237363   4.656   0.736   7.817
12496TIP3   OH237364   5.458   0.920   7.854
12496TIP3    H137365   5.389   0.870   7.806
12496TIP3    H237366   5.539   0.899   7.804
12497TIP3   OH237367   5.720   1.432   7.433
12497TIP3    H137368   5.623   1.437   7.445
12497TIP3    H237369   5.751   1.485   7.509
12498TIP3   OH237370   6.138   0.503   6.330
12498TIP3    H137371   6.080   0.455   6.269
12498TIP3    H237372   6.130   0.594   6.293
12499TIP3   OH237373   6.347   1.359   7.424
12499TIP3    H137374   6.249   1.361   7.414
12499TIP3    H237375   6.373   1.335   7.332
12500TIP3   OH237376   5.828   1.329   6.246
12500TIP3    H137377   5.806   1.260   6.311
12500TIP3    H237378   5.843   1.279   6.164
12501TIP3   OH237379   5.826   0.957   7.088
12501TIP3    H137380   5.733   0.932   7.100
12501TIP3    H237381   5.860   0.878   7.042
12502TIP3   OH237382   4.953   1.184   6.838
12502TIP3    H137383   4.955   1.266   6.786
12502TIP3    H237384   4.858   1.170   6.848
12503TIP3   OH237385   4.516   0.486   6.542
12503TIP3    H137386   4.566   0.569   6.560
12503TIP3    H237387   4.441   0.496   6.604
12504TIP3   OH237388   5.094   0.951   6.783
12504TIP3    H137389   5.057   1.040   6.802
12504TIP3    H237390   5.058   0.899   6.858
12505TIP3   OH237391   5.222   1.528   7.309
12505TIP3    H137392   5.264   1.601   7.259
12505TIP3    H237393   5.299   1.495   7.359
12506TIP3   OH237394   4.874   1.424   6.692
12506TIP3    H137395   4.788   1.433   6.737
12506TIP3    H237396   4.906   1.517   6.695
12507TIP3   OH237397   5.611   1.161   7.267
12507TIP3    H137398   5.601   1.162   7.365
12507TIP3    H237399   5.694   1.114   7.256
12508TIP3   OH237400   5.584   1.048   6.149
12508TIP3    H137401   5.637   1.027   6.230
12508TIP3    H237402   5.494   1.031   6.181
12509TIP3   OH237403   5.859   1.696   7.316
12509TIP3    H137404   5.779   1.641   7.308
12509TIP3    H237405   5.845   1.762   7.245
12510TIP3   OH237406   5.925   1.530   5.970
12510TIP3    H137407   5.963   1.603   5.917
12510TIP3    H237408   5.845   1.577   6.003
12511TIP3   OH237409   5.746   0.983   6.363
12511TIP3    H137410   5.736   0.922   6.438
12511TIP3    H237411   5.843   0.986   6.354
12512TIP3   OH237412   4.659   1.392   7.470
12512TIP3    H137413   4.715   1.318   7.498
12512TIP3    H237414   4.693   1.463   7.526
12513TIP3   OH237415   4.952   1.036   6.149
12513TIP3    H137416   4.966   0.944   6.121
12513TIP3    H237417   4.934   1.025   6.244
12514TIP3   OH237418   4.897   1.041   6.421
12514TIP3    H137419   4.968   1.015   6.482
12514TIP3    H237420   4.901   1.139   6.428
12515TIP3   OH237421   4.629   0.733   6.622
12515TIP3    H137422   4.566   0.780   6.681
12515TIP3    H237423   4.647   0.803   6.557
12516TIP3   OH237424   5.162   1.238   6.369
12516TIP3    H137425   5.076   1.266   6.406
12516TIP3    H237426   5.181   1.313   6.310
12517TIP3   OH237427   5.377   0.294   6.784
12517TIP3    H137428   5.416   0.382   6.766
12517TIP3    H237429   5.332   0.308   6.868
12518TIP3   OH237430   5.610   0.610   7.617
12518TIP3    H137431   5.615   0.685   7.678
12518TIP3    H237432   5.700   0.576   7.628
12519TIP3   OH237433   4.905   1.313   6.438
12519TIP3    H137434   4.876   1.383   6.374
12519TIP3    H237435   4.890   1.358   6.524
12520TIP3   OH237436   5.912   0.720   6.959
12520TIP3    H137437   5.840   0.657   6.977
12520TIP3    H237438   5.987   0.678   7.007
12521TIP3   OH237439   4.623   0.946   6.430
12521TIP3    H137440   4.687   1.019   6.440
12521TIP3    H237441   4.671   0.892   6.364
12522TIP3   OH237442   4.545   0.195   6.544
12522TIP3    H137443   4.594   0.280   6.546
12522TIP3    H237444   4.464   0.222   6.589
12523TIP3   OH237445   5.880   1.669   6.910
12523TIP3    H137446   5.838   1.716   6.835
12523TIP3    H237447   5.975   1.689   6.890
12524TIP3   OH237448   4.495   1.156   6.820
12524TIP3    H137449   4.422   1.190   6.873
12524TIP3    H237450   4.475   1.197   6.733
12525TIP3   OH237451   4.652   1.699   7.893
12525TIP3    H137452   4.739   1.700   7.938
12525TIP3    H237453   4.635   1.604   7.888
12526TIP3   OH237454   5.130   1.668   7.933
12526TIP3    H137455   5.224   1.653   7.949
12526TIP3    H237456   5.113   1.607   7.858
12527TIP3   OH237457   5.115   1.241   6.061
12527TIP3    H137458   5.058   1.170   6.100
12527TIP3    H237459   5.190   1.188   6.030
12528TIP3   OH237460   5.777   1.568   7.664
12528TIP3    H137461   5.765   1.502   7.735
12528TIP3    H237462   5.853   1.620   7.697
12529TIP3   OH237463   5.551   1.281   5.972
12529TIP3    H137464   5.601   1.222   6.031
12529TIP3    H237465   5.607   1.284   5.892
12530TIP3   OH237466   4.780   1.105   8.093
12530TIP3    H137467   4.800   1.010   8.094
12530TIP3    H237468   4.694   1.108   8.045
12531TIP3   OH237469   4.759   0.757   6.283
12531TIP3    H137470   4.814   0.724   6.356
12531TIP3    H237471   4.827   0.762   6.212
12532TIP3   OH237472   5.388   1.190   7.865
12532TIP3    H137473   5.351   1.205   7.776
12532TIP3    H237474   5.423   1.099   7.860
12533TIP3   OH237475   5.267   0.958   6.090
12533TIP3    H137476   5.270   0.971   6.187
12533TIP3    H237477   5.267   0.860   6.086
12534TIP3   OH237478   5.882   1.197   7.467
12534TIP3    H137479   5.957   1.244   7.425
12534TIP3    H237480   5.812   1.266   7.458
12535TIP3   OH237481   4.897   0.831   8.075
12535TIP3    H137482   4.979   0.786   8.048
12535TIP3    H237483   4.924   0.866   8.162
12536TIP3   OH237484   4.967   0.662   6.506
12536TIP3    H137485   4.943   0.620   6.591
12536TIP3    H237486   5.003   0.586   6.455
12537TIP3   OH237487   5.242   0.791   7.727
12537TIP3    H137488   5.151   0.830   7.731
12537TIP3    H237489   5.265   0.799   7.633
12538TIP3   OH237490   5.066   0.456   6.352
12538TIP3    H137491   5.043   0.455   6.256
12538TIP3    H237492   5.164   0.461   6.345
12539TIP3   OH237493   5.753   1.134   7.873
12539TIP3    H137494   5.832   1.109   7.825
12539TIP3    H237495   5.747   1.063   7.939
12540TIP3   OH237496   5.897   0.784   6.004
12540TIP3    H137497   5.867   0.744   5.920
12540TIP3    H237498   5.864   0.876   5.987
12541TIP3   OH237499   5.316   0.561   7.849
12541TIP3    H137500   5.358   0.498   7.788
12541TIP3    H237501   5.311   0.644   7.793
12542TIP3   OH237502   5.416   0.832   7.506
12542TIP3    H137503   5.496   0.857   7.457
12542TIP3    H237504   5.355   0.905   7.484
12543TIP3   OH237505   5.972   0.812   7.926
12543TIP3    H137506   6.025   0.731   7.927
12543TIP3    H237507   6.037   0.879   7.897
12544TIP3   OH237508   6.016   1.049   7.648
12544TIP3    H137509   5.955   1.106   7.595
12544TIP3    H237510   6.103   1.078   7.611
12545TIP3   OH237511   5.214   0.642   8.089
12545TIP3    H137512   5.147   0.573   8.090
12545TIP3    H237513   5.260   0.621   8.004
12546TIP3   OH237514   5.623   0.657   7.950
12546TIP3    H137515   5.578   0.680   8.003
12546TIP3    H237516   5.707   0.640   8.001
12547TIP3   OH237517   4.874   1.514   6.249
12547TIP3    H137518   4.970   1.512   6.232
12547TIP3    H237519   4.845   1.565   6.171
12548TIP3   OH237520   4.355   0.898   6.468
12548TIP3    H137521   4.450   0.921   6.454
12548TIP3    H237522   4.351   0.810   6.426
12549TIP3   OH237523   4.269   1.510   6.880
12549TIP3    H137524   4.202   1.448   6.844
12549TIP3    H237525   4.313   1.453   6.946
12550TIP3   OH237526   4.406   1.363   7.066
12550TIP3    H137527   4.395   1.289   7.128
12550TIP3    H237528   4.458   1.424   7.121
12551TIP3   OH237529   6.132   1.762   6.866
12551TIP3    H137530   6.158   1.795   6.955
12551TIP3    H237531   6.194   1.810   6.808
12552TIP3   OH237532   6.163   1.782   7.147
12552TIP3    H137533   6.121   1.693   7.145
12552TIP3    H237534   6.237   1.764   7.207
12553TIP3   OH237535   6.207   1.458   7.722
12553TIP3    H137536   6.135   1.470   7.786
12553TIP3    H237537   6.252   1.545   7.726
12554TIP3   OH237538   6.028   0.968   6.339
12554TIP3    H137539   6.093   1.036   6.312
12554TIP3    H237540   6.069   0.933   6.420
12555TIP3   OH237541   6.153   0.836   6.544
12555TIP3    H137542   6.088   0.798   6.607
12555TIP3    H237543   6.220   0.876   6.603
12556TIP3   OH237544   6.205   1.230   6.977
12556TIP3    H137545   6.259   1.168   6.925
12556TIP3    H237546   6.198   1.307   6.916
12557TIP3   OH237547   6.038   1.531   7.173
12557TIP3    H137548   5.969   1.576   7.225
12557TIP3    H237549   5.986   1.485   7.104
12558TIP3   OH237550   6.086   0.738   6.193
12558TIP3    H137551   6.018   0.755   6.123
12558TIP3    H237552   6.067   0.816   6.250
12559TIP3   OH237553   5.976   0.400   6.126
12559TIP3    H137554   5.959   0.488   6.089
12559TIP3    H237555   5.887   0.362   6.125
12560TIP3   OH237556   5.968   0.693   6.695
12560TIP3    H137557   5.982   0.598   6.708
12560TIP3    H237558   5.951   0.720   6.789
12561TIP3   OH237559   4.593   0.765   7.440
12561TIP3    H137560   4.592   0.738   7.346
12561TIP3    H237561   4.690   0.771   7.456
12562TIP3   OH237562   6.260   1.116   7.548
12562TIP3    H137563   6.334   1.054   7.532
12562TIP3    H237564   6.285   1.192   7.492
12563TIP3   OH237565   6.442   0.909   7.555
12563TIP3    H137566   6.380   0.865   7.616
12563TIP3    H237567   6.528   0.883   7.594
12564TIP3   OH237568   5.952   0.400   6.530
12564TIP3    H137569   5.992   0.371   6.615
12564TIP3    H237570   6.024   0.454   6.491
12565TIP3   OH237571   6.129   0.617   7.086
12565TIP3    H137572   6.219   0.628   7.047
12565TIP3    H237573   6.148   0.640   7.179
12566TIP3   OH237574   6.191   0.738   7.332
12566TIP3    H137575   6.109   0.781   7.364
12566TIP3    H237576   6.228   0.810   7.275
12567TIP3   OH237577   4.586   0.427   7.520
12567TIP3    H137578   4.632   0.414   7.435
12567TIP3    H237579   4.609   0.519   7.540
12568TIP3   OH237580   5.716   1.628   6.523
12568TIP3    H137581   5.769   1.616   6.442
12568TIP3    H237582   5.767   1.696   6.570
12569TIP3   OH237583   4.817   1.433   7.907
12569TIP3    H137584   4.725   1.404   7.895
12569TIP3    H237585   4.831   1.418   8.002
12570TIP3   OH237586   4.994   1.463   7.455
12570TIP3    H137587   4.949   1.541   7.416
12570TIP3    H237588   5.082   1.476   7.413
12571TIP3   OH237589   5.440   1.711   7.592
12571TIP3    H137590   5.481   1.709   7.682
12571TIP3    H237591   5.508   1.762   7.543
12572TIP3   OH237592   5.622   1.861   7.452
12572TIP3    H137593   5.695   1.811   7.414
12572TIP3    H237594   5.671   1.919   7.515
12573TIP3   OH237595   4.671   1.720   7.481
12573TIP3    H137596   4.583   1.756   7.457
12573TIP3    H237597   4.684   1.761   7.568
12574TIP3   OH237598   4.908   1.699   7.338
12574TIP3    H137599   4.822   1.713   7.382
12574TIP3    H237600   4.890   1.734   7.248
12575TIP3   OH237601   5.335   1.730   7.136
12575TIP3    H137602   5.266   1.753   7.070
12575TIP3    H237603   5.348   1.817   7.179
12576TIP3   OH237604   5.603   1.667   7.185
12576TIP3    H137605   5.509   1.687   7.167
12576TIP3    H237606   5.647   1.746   7.147
12577TIP3   OH237607   5.809   1.861   7.103
12577TIP3    H137608   5.797   1.947   7.056
12577TIP3    H237609   5.837   1.802   7.029
12578TIP3   OH237610   4.583   1.515   7.226
12578TIP3    H137611   4.611   1.492   7.317
12578TIP3    H237612   4.656   1.473   7.175
12579TIP3   OH237613   4.777   1.387   7.082
12579TIP3    H137614   4.794   1.303   7.130
12579TIP3    H237615   4.867   1.425   7.077
12580TIP3   OH237616   5.042   1.482   7.086
12580TIP3    H137617   5.075   1.392   7.073
12580TIP3    H237618   5.087   1.505   7.169
12581TIP3   OH237619   4.371   1.288   6.619
12581TIP3    H137620   4.286   1.256   6.583
12581TIP3    H237621   4.362   1.382   6.599
12582TIP3   OH237622   5.144   1.477   6.199
12582TIP3    H137623   5.232   1.500   6.163
12582TIP3    H237624   5.122   1.403   6.139
12583TIP3   OH237625   5.862   1.595   6.291
12583TIP3    H137626   5.853   1.498   6.278
12583TIP3    H237627   5.817   1.629   6.211
12584TIP3   OH237628   4.446   1.311   6.256
12584TIP3    H137629   4.448   1.343   6.347
12584TIP3    H237630   4.536   1.272   6.245
12585TIP3   OH237631   6.091   1.741   7.475
12585TIP3    H137632   6.010   1.709   7.431
12585TIP3    H237633   6.071   1.837   7.482
12586TIP3   OH237634   7.356   1.111   6.246
12586TIP3    H137635   7.329   1.203   6.227
12586TIP3    H237636   7.277   1.064   6.214
12587TIP3   OH237637   7.355   1.110   6.624
12587TIP3    H137638   7.388   1.082   6.711
12587TIP3    H237639   7.310   1.029   6.593
12588TIP3   OH237640   6.653   1.009   6.989
12588TIP3    H137641   6.690   0.946   7.053
12588TIP3    H237642   6.727   1.072   6.981
12589TIP3   OH237643   7.597   1.413   6.307
12589TIP3    H137644   7.583   1.345   6.374
12589TIP3    H237645   7.625   1.489   6.361
12590TIP3   OH237646   6.623   1.414   6.715
12590TIP3    H137647   6.616   1.317   6.718
12590TIP3    H237648   6.720   1.425   6.714
12591TIP3   OH237649   6.325   0.605   6.510
12591TIP3    H137650   6.284   0.692   6.526
12591TIP3    H237651   6.260   0.566   6.449
12592TIP3   OH237652   6.392   0.903   6.669
12592TIP3    H137653   6.443   0.829   6.709
12592TIP3    H237654   6.458   0.941   6.609
12593TIP3   OH237655   7.245   1.875   6.322
12593TIP3    H137656   7.293   1.804   6.276
12593TIP3    H237657   7.240   1.841   6.413
12594TIP3   OH237658   7.153   1.336   6.675
12594TIP3    H137659   7.191   1.260   6.627
12594TIP3    H237660   7.236   1.382   6.698
12595TIP3   OH237661   7.565   0.846   6.709
12595TIP3    H137662   7.600   0.761   6.737
12595TIP3    H237663   7.537   0.828   6.618
12596TIP3   OH237664   6.538   0.697   6.779
12596TIP3    H137665   6.618   0.674   6.831
12596TIP3    H237666   6.556   0.645   6.699
12597TIP3   OH237667   6.979   0.899   6.576
12597TIP3    H137668   7.070   0.868   6.589
12597TIP3    H237669   6.934   0.817   6.544
12598TIP3   OH237670   8.213   0.838   6.863
12598TIP3    H137671   8.152   0.910   6.837
12598TIP3    H237672   8.261   0.877   6.938
12599TIP3   OH237673   7.250   1.334   6.114
12599TIP3    H137674   7.203   1.312   6.033
12599TIP3    H237675   7.206   1.418   6.139
12600TIP3   OH237676   7.010   1.252   6.909
12600TIP3    H137677   6.946   1.318   6.945
12600TIP3    H237678   7.051   1.303   6.837
12601TIP3   OH237679   6.776   0.604   6.876
12601TIP3    H137680   6.840   0.672   6.905
12601TIP3    H237681   6.822   0.564   6.800
12602TIP3   OH237682   6.834   1.447   6.997
12602TIP3    H137683   6.810   1.535   6.960
12602TIP3    H237684   6.756   1.433   7.055
12603TIP3   OH237685   6.229   1.141   6.236
12603TIP3    H137686   6.189   1.170   6.152
12603TIP3    H237687   6.260   1.226   6.274
12604TIP3   OH237688   7.669   1.655   6.475
12604TIP3    H137689   7.579   1.647   6.515
12604TIP3    H237690   7.661   1.742   6.431
12605TIP3   OH237691   7.372   1.702   6.151
12605TIP3    H137692   7.422   1.620   6.129
12605TIP3    H237693   7.432   1.769   6.109
12606TIP3   OH237694   7.515   1.487   6.055
12606TIP3    H137695   7.471   1.409   6.019
12606TIP3    H237696   7.550   1.453   6.140
12607TIP3   OH237697   7.895   1.569   6.820
12607TIP3    H137698   7.883   1.493   6.759
12607TIP3    H237699   7.877   1.645   6.759
12608TIP3   OH237700   7.186   0.962   6.076
12608TIP3    H137701   7.105   1.013   6.055
12608TIP3    H237702   7.231   0.960   5.990
12609TIP3   OH237703   7.141   0.748   5.798
12609TIP3    H137704   7.213   0.796   5.841
12609TIP3    H237705   7.192   0.683   5.746
12610TIP3   OH237706   8.088   1.202   6.665
12610TIP3    H137707   8.006   1.255   6.669
12610TIP3    H237708   8.119   1.226   6.575
12611TIP3   OH237709   7.533   1.045   6.048
12611TIP3    H137710   7.479   1.070   6.126
12611TIP3    H237711   7.617   1.018   6.092
12612TIP3   OH237712   7.766   1.091   6.955
12612TIP3    H137713   7.765   1.175   7.004
12612TIP3    H237714   7.682   1.099   6.905
12613TIP3   OH237715   6.768   1.044   6.465
12613TIP3    H137716   6.725   0.986   6.398
12613TIP3    H237717   6.843   0.988   6.494
12614TIP3   OH237718   6.896   1.455   6.613
12614TIP3    H137719   6.876   1.410   6.530
12614TIP3    H237720   6.986   1.422   6.633
12615TIP3   OH237721   6.905   1.010   6.822
12615TIP3    H137722   6.936   0.989   6.731
12615TIP3    H237723   6.948   1.096   6.840
12616TIP3   OH237724   7.428   1.652   6.595
12616TIP3    H137725   7.414   1.732   6.648
12616TIP3    H237726   7.412   1.580   6.660
12617TIP3   OH237727   7.039   1.571   7.141
12617TIP3    H137728   6.981   1.633   7.190
12617TIP3    H237729   6.972   1.518   7.094
12618TIP3   OH237730   7.379   0.894   5.876
12618TIP3    H137731   7.436   0.954   5.929
12618TIP3    H237732   7.404   0.920   5.785
12619TIP3   OH237733   6.777   1.134   7.242
12619TIP3    H137734   6.784   1.219   7.291
12619TIP3    H237735   6.682   1.114   7.257
12620TIP3   OH237736   7.117   1.583   6.148
12620TIP3    H137737   7.195   1.638   6.168
12620TIP3    H237738   7.055   1.648   6.112
12621TIP3   OH237739   6.834   1.737   7.230
12621TIP3    H137740   6.795   1.737   7.141
12621TIP3    H237741   6.756   1.717   7.287
12622TIP3   OH237742   6.632   0.894   6.268
12622TIP3    H137743   6.562   0.929   6.210
12622TIP3    H237744   6.604   0.803   6.283
12623TIP3   OH237745   7.688   1.512   5.469
12623TIP3    H137746   7.696   1.609   5.456
12623TIP3    H237747   7.781   1.483   5.457
12624TIP3   OH237748   6.411   1.271   7.176
12624TIP3    H137749   6.347   1.249   7.106
12624TIP3    H237750   6.447   1.184   7.202
12625TIP3   OH237751   6.268   1.462   6.811
12625TIP3    H137752   6.364   1.459   6.802
12625TIP3    H237753   6.256   1.542   6.865
12626TIP3   OH237754   8.133   1.914   6.865
12626TIP3    H137755   8.130   1.818   6.879
12626TIP3    H237756   8.049   1.940   6.910
12627TIP3   OH237757   7.238   1.700   6.999
12627TIP3    H137758   7.238   1.793   7.032
12627TIP3    H237759   7.167   1.661   7.055
12628TIP3   OH237760   6.997   1.830   5.951
12628TIP3    H137761   6.951   1.813   5.867
12628TIP3    H237762   6.966   1.919   5.975
12629TIP3   OH237763   6.436   1.679   6.335
12629TIP3    H137764   6.485   1.670   6.420
12629TIP3    H237765   6.374   1.605   6.344
12630TIP3   OH237766   7.199   1.730   5.592
12630TIP3    H137767   7.259   1.661   5.556
12630TIP3    H237768   7.233   1.740   5.683
12631TIP3   OH237769   7.249   1.778   5.862
12631TIP3    H137770   7.161   1.788   5.904
12631TIP3    H237771   7.301   1.739   5.934
12632TIP3   OH237772   8.023   1.039   7.156
12632TIP3    H137773   7.952   1.078   7.102
12632TIP3    H237774   8.044   0.957   7.109
12633TIP3   OH237775   6.619   1.452   7.164
12633TIP3    H137776   6.667   1.440   7.249
12633TIP3    H237777   6.544   1.390   7.175
12634TIP3   OH237778   7.683   0.903   7.145
12634TIP3    H137779   7.741   0.827   7.136
12634TIP3    H237780   7.713   0.963   7.073
12635TIP3   OH237781   7.453   0.944   5.618
12635TIP3    H137782   7.416   0.924   5.530
12635TIP3    H237783   7.527   1.002   5.596
12636TIP3   OH237784   6.956   0.788   6.974
12636TIP3    H137785   6.897   0.812   7.049
12636TIP3    H237786   6.940   0.866   6.915
12637TIP3   OH237787   6.819   0.701   6.475
12637TIP3    H137788   6.743   0.649   6.507
12637TIP3    H237789   6.843   0.652   6.393
12638TIP3   OH237790   7.329   0.767   6.206
12638TIP3    H137791   7.275   0.839   6.167
12638TIP3    H237792   7.376   0.734   6.128
12639TIP3   OH237793   7.506   1.097   7.256
12639TIP3    H137794   7.491   1.048   7.341
12639TIP3    H237795   7.602   1.089   7.252
12640TIP3   OH237796   7.485   0.793   6.448
12640TIP3    H137797   7.426   0.827   6.378
12640TIP3    H237798   7.517   0.712   6.406
12641TIP3   OH237799   6.772   0.834   7.172
12641TIP3    H137800   6.788   0.893   7.247
12641TIP3    H237801   6.735   0.755   7.214
12642TIP3   OH237802   7.495   1.047   6.873
12642TIP3    H137803   7.523   0.971   6.816
12642TIP3    H237804   7.463   1.002   6.953
12643TIP3   OH237805   6.590   0.553   6.550
12643TIP3    H137806   6.496   0.570   6.528
12643TIP3    H237807   6.597   0.458   6.534
12644TIP3   OH237808   6.877   0.568   6.240
12644TIP3    H137809   6.966   0.550   6.206
12644TIP3    H237810   6.822   0.563   6.159
12645TIP3   OH237811   6.688   0.589   6.014
12645TIP3    H137812   6.637   0.540   5.949
12645TIP3    H237813   6.755   0.629   5.955
12646TIP3   OH237814   7.822   2.264   6.963
12646TIP3    H137815   7.820   2.289   6.869
12646TIP3    H237816   7.898   2.315   6.996
12647TIP3   OH237817   6.779   1.373   7.386
12647TIP3    H137818   6.859   1.405   7.433
12647TIP3    H237819   6.715   1.377   7.460
12648TIP3   OH237820   7.246   0.832   6.646
12648TIP3    H137821   7.308   0.780   6.593
12648TIP3    H237822   7.243   0.782   6.729
12649TIP3   OH237823   7.224   0.715   6.949
12649TIP3    H137824   7.136   0.756   6.950
12649TIP3    H237825   7.278   0.777   7.002
12650TIP3   OH237826   6.957   1.115   6.025
12650TIP3    H137827   6.884   1.051   6.014
12650TIP3    H237828   6.939   1.150   6.116
12651TIP3   OH237829   7.859   1.351   6.655
12651TIP3    H137830   7.883   1.401   6.574
12651TIP3    H237831   7.773   1.310   6.630
12652TIP3   OH237832   7.359   1.435   7.022
12652TIP3    H137833   7.378   1.413   7.114
12652TIP3    H237834   7.317   1.523   7.030
12653TIP3   OH237835   7.475   0.649   5.982
12653TIP3    H137836   7.572   0.660   5.993
12653TIP3    H237837   7.452   0.728   5.930
12654TIP3   OH237838   6.647   1.132   6.701
12654TIP3    H137839   6.687   1.108   6.615
12654TIP3    H237840   6.691   1.072   6.762
12655TIP3   OH237841   7.102   1.265   5.845
12655TIP3    H137842   7.054   1.352   5.852
12655TIP3    H237843   7.048   1.210   5.906
12656TIP3   OH237844   6.521   1.059   7.318
12656TIP3    H137845   6.547   1.044   7.411
12656TIP3    H237846   6.451   0.992   7.306
12657TIP3   OH237847   7.255   1.181   7.340
12657TIP3    H137848   7.182   1.134   7.294
12657TIP3    H237849   7.334   1.153   7.289
12658TIP3   OH237850   7.517   1.692   6.917
12658TIP3    H137851   7.421   1.692   6.930
12658TIP3    H237852   7.546   1.744   6.995
12659TIP3   OH237853   7.929   0.762   5.825
12659TIP3    H137854   7.870   0.714   5.763
12659TIP3    H237855   7.926   0.851   5.783
12660TIP3   OH237856   8.145   1.620   6.909
12660TIP3    H137857   8.047   1.617   6.899
12660TIP3    H237858   8.171   1.593   6.818
12661TIP3   OH237859   7.625   1.585   5.734
12661TIP3    H137860   7.602   1.516   5.797
12661TIP3    H237861   7.639   1.536   5.651
12662TIP3   OH237862   7.623   1.213   6.576
12662TIP3    H137863   7.529   1.189   6.587
12662TIP3    H237864   7.657   1.134   6.529
12663TIP3   OH237865   6.749   1.440   6.323
12663TIP3    H137866   6.750   1.523   6.272
12663TIP3    H237867   6.654   1.428   6.337
12664TIP3   OH237868   6.309   0.745   6.025
12664TIP3    H137869   6.361   0.826   6.044
12664TIP3    H237870   6.236   0.755   6.089
12665TIP3   OH237871   6.890   1.207   6.270
12665TIP3    H137872   6.853   1.296   6.288
12665TIP3    H237873   6.854   1.156   6.345
12666TIP3   OH237874   7.018   1.785   6.795
12666TIP3    H137875   7.060   1.859   6.746
12666TIP3    H237876   7.094   1.752   6.846
12667TIP3   OH237877   6.670   1.680   6.178
12667TIP3    H137878   6.584   1.689   6.224
12667TIP3    H237879   6.701   1.773   6.181
12668TIP3   OH237880   7.407   1.418   6.753
12668TIP3    H137881   7.399   1.420   6.852
12668TIP3    H237882   7.489   1.368   6.742
12669TIP3   OH237883   7.381   1.309   5.636
12669TIP3    H137884   7.434   1.286   5.716
12669TIP3    H237885   7.292   1.286   5.668
12670TIP3   OH237886   7.657   1.953   6.804
12670TIP3    H137887   7.577   1.897   6.797
12670TIP3    H237888   7.640   2.018   6.732
12671TIP3   OH237889   7.721   1.788   5.457
12671TIP3    H137890   7.761   1.861   5.407
12671TIP3    H237891   7.641   1.833   5.489
12672TIP3   OH237892   7.542   1.244   5.851
12672TIP3    H137893   7.531   1.179   5.924
12672TIP3    H237894   7.639   1.243   5.841
12673TIP3   OH237895   6.458   1.648   6.955
12673TIP3    H137896   6.512   1.575   6.989
12673TIP3    H237897   6.482   1.718   7.016
12674TIP3   OH237898   6.747   1.293   5.636
12674TIP3    H137899   6.763   1.201   5.608
12674TIP3    H237900   6.730   1.282   5.731
12675TIP3   OH237901   6.694   1.297   5.908
12675TIP3    H137902   6.764   1.271   5.969
12675TIP3    H237903   6.697   1.395   5.915
12676TIP3   OH237904   6.424   0.988   6.109
12676TIP3    H137905   6.362   1.036   6.168
12676TIP3    H237906   6.444   1.059   6.044
12677TIP3   OH237907   6.958   1.495   5.856
12677TIP3    H137908   6.872   1.522   5.893
12677TIP3    H237909   6.976   1.570   5.797
12678TIP3   OH237910   7.171   0.551   6.270
12678TIP3    H137911   7.213   0.637   6.251
12678TIP3    H237912   7.130   0.567   6.356
12679TIP3   OH237913   7.406   0.863   7.118
12679TIP3    H137914   7.417   0.949   7.162
12679TIP3    H237915   7.499   0.835   7.116
12680TIP3   OH237916   6.701   1.570   5.924
12680TIP3    H137917   6.671   1.640   5.862
12680TIP3    H237918   6.686   1.614   6.011
12681TIP3   OH237919   7.708   0.976   6.446
12681TIP3    H137920   7.636   0.913   6.462
12681TIP3    H237921   7.784   0.933   6.494
12682TIP3   OH237922   6.419   1.202   5.917
12682TIP3    H137923   6.483   1.275   5.928
12682TIP3    H237924   6.467   1.149   5.850
12683TIP3   OH237925   6.336   0.454   6.030
12683TIP3    H137926   6.395   0.531   6.018
12683TIP3    H237927   6.269   0.494   6.087
12684TIP3   OH237928   7.677   1.927   6.397
12684TIP3    H137929   7.634   1.974   6.322
12684TIP3    H237930   7.771   1.946   6.376
12685TIP3   OH237931   6.290   1.410   6.306
12685TIP3    H137932   6.220   1.446   6.362
12685TIP3    H237933   6.269   1.453   6.220
12686TIP3   OH237934   6.449   1.957   7.376
12686TIP3    H137935   6.534   1.958   7.425
12686TIP3    H237936   6.428   1.862   7.378
12687TIP3   OH237937   6.930   1.924   7.417
12687TIP3    H137938   7.024   1.905   7.429
12687TIP3    H237939   6.907   1.862   7.346
12688TIP3   OH237940   6.911   1.497   5.548
12688TIP3    H137941   6.854   1.427   5.587
12688TIP3    H237942   6.986   1.444   5.518
12689TIP3   OH237943   7.573   1.824   7.150
12689TIP3    H137944   7.561   1.758   7.222
12689TIP3    H237945   7.647   1.879   7.185
12690TIP3   OH237946   7.347   1.538   5.460
12690TIP3    H137947   7.394   1.476   5.519
12690TIP3    H237948   7.405   1.539   5.381
12691TIP3   OH237949   6.580   1.352   7.574
12691TIP3    H137950   6.592   1.256   7.579
12691TIP3    H237951   6.490   1.360   7.534
12692TIP3   OH237952   6.555   1.012   5.770
12692TIP3    H137953   6.611   0.982   5.843
12692TIP3    H237954   6.623   1.018   5.699
12693TIP3   OH237955   7.191   1.450   7.349
12693TIP3    H137956   7.145   1.460   7.263
12693TIP3    H237957   7.220   1.356   7.347
12694TIP3   OH237958   7.062   1.215   5.576
12694TIP3    H137959   7.066   1.227   5.673
12694TIP3    H237960   7.064   1.116   5.572
12695TIP3   OH237961   7.680   1.453   6.956
12695TIP3    H137962   7.752   1.502   6.912
12695TIP3    H237963   7.607   1.517   6.946
12696TIP3   OH237964   6.691   1.082   7.564
12696TIP3    H137965   6.774   1.039   7.542
12696TIP3    H237966   6.717   1.124   7.649
12697TIP3   OH237967   6.761   0.919   5.992
12697TIP3    H137968   6.740   0.878   6.077
12697TIP3    H237969   6.799   0.843   5.942
12698TIP3   OH237970   7.039   1.061   7.217
12698TIP3    H137971   6.946   1.093   7.222
12698TIP3    H237972   7.054   1.052   7.121
12699TIP3   OH237973   6.863   0.711   5.839
12699TIP3    H137974   6.840   0.711   5.744
12699TIP3    H237975   6.961   0.715   5.832
12700TIP3   OH237976   7.551   1.390   7.360
12700TIP3    H137977   7.626   1.358   7.309
12700TIP3    H237978   7.542   1.320   7.427
12701TIP3   OH237979   7.688   1.041   5.493
12701TIP3    H137980   7.665   0.998   5.409
12701TIP3    H237981   7.657   1.132   5.473
12702TIP3   OH237982   7.087   0.817   7.331
12702TIP3    H137983   7.137   0.746   7.289
12702TIP3    H237984   7.109   0.897   7.279
12703TIP3   OH237985   7.218   1.088   6.992
12703TIP3    H137986   7.291   1.120   6.937
12703TIP3    H237987   7.151   1.158   6.977
12704TIP3   OH237988   7.770   1.071   7.412
12704TIP3    H137989   7.814   0.985   7.411
12704TIP3    H237990   7.839   1.131   7.380
12705TIP3   OH237991   7.813   1.307   7.139
12705TIP3    H137992   7.752   1.362   7.085
12705TIP3    H237993   7.899   1.335   7.100
12706TIP3   OH237994   7.012   0.898   7.577
12706TIP3    H137995   6.942   0.831   7.581
12706TIP3    H237996   7.051   0.875   7.490
12707TIP3   OH237997   7.456   0.940   7.463
12707TIP3    H137998   7.409   0.929   7.548
12707TIP3    H237999   7.452   0.851   7.427
12708TIP3   OH238000   6.671   1.772   5.736
12708TIP3    H138001   6.767   1.769   5.718
12708TIP3    H238002   6.641   1.822   5.658
12709TIP3   OH238003   6.152   1.155   5.954
12709TIP3    H138004   6.246   1.179   5.941
12709TIP3    H238005   6.148   1.067   5.912
12710TIP3   OH238006   6.067   1.767   6.366
12710TIP3    H138007   5.999   1.705   6.331
12710TIP3    H238008   6.110   1.710   6.433
12711TIP3   OH238009   6.204   1.618   6.552
12711TIP3    H138010   6.191   1.546   6.616
12711TIP3    H238011   6.254   1.681   6.608
12712TIP3   OH238012   7.928   2.020   6.353
12712TIP3    H138013   7.955   2.053   6.440
12712TIP3    H238014   7.990   2.065   6.294
12713TIP3   OH238015   7.958   2.040   6.634
12713TIP3    H138016   7.915   1.951   6.631
12713TIP3    H238017   8.034   2.019   6.692
12714TIP3   OH238018   8.006   1.714   7.209
12714TIP3    H138019   7.932   1.724   7.273
12714TIP3    H238020   8.046   1.803   7.212
12715TIP3   OH238021   7.822   1.228   5.827
12715TIP3    H138022   7.890   1.293   5.800
12715TIP3    H238023   7.864   1.190   5.907
12716TIP3   OH238024   7.949   1.095   6.031
12716TIP3    H138025   7.884   1.055   6.092
12716TIP3    H238026   8.015   1.134   6.092
12717TIP3   OH238027   8.003   1.487   6.465
12717TIP3    H138028   8.055   1.424   6.413
12717TIP3    H238029   7.995   1.563   6.403
12718TIP3   OH238030   7.835   1.788   6.661
12718TIP3    H138031   7.764   1.832   6.711
12718TIP3    H238032   7.784   1.741   6.591
12719TIP3   OH238033   7.884   1.000   5.679
12719TIP3    H138034   7.815   1.011   5.611
12719TIP3    H238035   7.862   1.076   5.737
12720TIP3   OH238036   7.766   0.669   5.624
12720TIP3    H138037   7.722   0.744   5.582
12720TIP3    H238038   7.720   0.594   5.585
12721TIP3   OH238039   7.764   0.953   6.181
12721TIP3    H138040   7.775   0.857   6.184
12721TIP3    H238041   7.748   0.974   6.276
12722TIP3   OH238042   6.389   1.022   6.926
12722TIP3    H138043   6.389   0.996   6.831
12722TIP3    H238044   6.486   1.027   6.942
12723TIP3   OH238045   8.057   1.372   7.034
12723TIP3    H138046   8.131   1.309   7.019
12723TIP3    H238047   8.079   1.445   6.974
12724TIP3   OH238048   8.241   1.167   7.046
12724TIP3    H138049   8.175   1.122   7.102
12724TIP3    H238050   8.324   1.133   7.083
12725TIP3   OH238051   7.745   0.666   6.023
12725TIP3    H138052   7.791   0.633   6.103
12725TIP3    H238053   7.818   0.705   5.972
12726TIP3   OH238054   7.926   0.873   6.574
12726TIP3    H138055   8.015   0.884   6.533
12726TIP3    H238056   7.946   0.897   6.666
12727TIP3   OH238057   7.988   0.995   6.819
12727TIP3    H138058   7.905   1.038   6.851
12727TIP3    H238059   8.025   1.067   6.762
12728TIP3   OH238060   6.382   0.682   7.006
12728TIP3    H138061   6.429   0.674   6.921
12728TIP3    H238062   6.402   0.773   7.030
12729TIP3   OH238063   7.512   1.885   6.010
12729TIP3    H138064   7.565   1.872   5.928
12729TIP3    H238065   7.565   1.952   6.057
12730TIP3   OH238066   6.615   1.685   7.403
12730TIP3    H138067   6.522   1.662   7.386
12730TIP3    H238068   6.621   1.669   7.499
12731TIP3   OH238069   6.791   1.718   6.942
12731TIP3    H138070   6.743   1.795   6.905
12731TIP3    H238071   6.878   1.734   6.899
12732TIP3   OH238072   7.238   1.966   7.080
12732TIP3    H138073   7.278   1.967   7.169
12732TIP3    H238074   7.304   2.018   7.030
12733TIP3   OH238075   7.417   2.118   6.939
12733TIP3    H138076   7.490   2.067   6.901
12733TIP3    H238077   7.467   2.176   7.001
12734TIP3   OH238078   6.469   1.978   6.967
12734TIP3    H138079   6.379   2.013   6.945
12734TIP3    H238080   6.480   2.015   7.055
12735TIP3   OH238081   6.705   1.957   6.825
12735TIP3    H138082   6.619   1.970   6.870
12735TIP3    H238083   6.685   1.991   6.735
12736TIP3   OH238084   7.132   1.988   6.621
12736TIP3    H138085   7.061   2.009   6.557
12736TIP3    H238086   7.144   2.074   6.666
12737TIP3   OH238087   7.400   1.925   6.672
12737TIP3    H138088   7.305   1.943   6.654
12737TIP3    H238089   7.442   2.004   6.634
12738TIP3   OH238090   7.608   2.119   6.590
12738TIP3    H138091   7.594   2.203   6.542
12738TIP3    H238092   7.633   2.058   6.517
12739TIP3   OH238093   6.380   1.773   6.712
12739TIP3    H138094   6.406   1.748   6.803
12739TIP3    H238095   6.453   1.729   6.662
12740TIP3   OH238096   6.574   1.644   6.568
12740TIP3    H138097   6.590   1.560   6.617
12740TIP3    H238098   6.664   1.681   6.564
12741TIP3   OH238099   6.839   1.739   6.571
12741TIP3    H138100   6.871   1.647   6.561
12741TIP3    H238101   6.882   1.762   6.656
12742TIP3   OH238102   6.168   1.544   6.104
12742TIP3    H138103   6.083   1.513   6.069
12742TIP3    H238104   6.158   1.639   6.088
12743TIP3   OH238105   6.940   1.734   5.685
12743TIP3    H138106   7.029   1.756   5.650
12743TIP3    H238107   6.918   1.659   5.626
12744TIP3   OH238108   7.659   1.852   5.778
12744TIP3    H138109   7.650   1.754   5.765
12744TIP3    H238110   7.614   1.884   5.697
12745TIP3   OH238111   6.243   1.568   5.742
12745TIP3    H138112   6.242   1.599   5.834
12745TIP3    H238113   6.333   1.530   5.733
12746TIP3   OH238114   7.887   1.996   6.965
12746TIP3    H138115   7.807   1.964   6.918
12746TIP3    H238116   7.867   2.092   6.969
12747TIP3   OH238117   9.153   1.370   5.727
12747TIP3    H138118   9.128   1.463   5.715
12747TIP3    H238119   9.071   1.325   5.699
12748TIP3   OH238120   9.138   1.362   6.112
12748TIP3    H138121   9.179   1.339   6.198
12748TIP3    H238122   9.099   1.276   6.086
12749TIP3   OH238123   8.449   1.267   6.476
12749TIP3    H138124   8.486   1.203   6.540
12749TIP3    H238125   8.526   1.323   6.461
12750TIP3   OH238126   9.392   1.670   5.793
12750TIP3    H138127   9.388   1.602   5.862
12750TIP3    H238128   9.422   1.746   5.847
12751TIP3   OH238129   8.421   1.672   6.204
12751TIP3    H138130   8.413   1.574   6.206
12751TIP3    H238131   8.518   1.681   6.198
12752TIP3   OH238132   8.120   0.863   5.998
12752TIP3    H138133   8.077   0.949   6.011
12752TIP3    H238134   8.057   0.820   5.938
12753TIP3   OH238135   8.189   1.160   6.158
12753TIP3    H138136   8.239   1.084   6.196
12753TIP3    H238137   8.251   1.191   6.091
12754TIP3   OH238138   9.042   2.129   5.810
12754TIP3    H138139   9.087   2.054   5.764
12754TIP3    H238140   9.037   2.097   5.901
12755TIP3   OH238141   8.949   1.592   6.163
12755TIP3    H138142   8.987   1.514   6.118
12755TIP3    H238143   9.033   1.639   6.183
12756TIP3   OH238144   9.367   1.110   6.188
12756TIP3    H138145   9.390   1.023   6.224
12756TIP3    H238146   9.339   1.089   6.097
12757TIP3   OH238147   8.335   0.953   6.267
12757TIP3    H138148   8.415   0.927   6.318
12757TIP3    H238149   8.352   0.900   6.186
12758TIP3   OH238150   8.775   1.157   6.066
12758TIP3    H138151   8.867   1.125   6.077
12758TIP3    H238152   8.729   1.075   6.034
12759TIP3   OH238153   9.059   1.603   5.590
12759TIP3    H138154   9.001   1.567   5.521
12759TIP3    H238155   9.005   1.679   5.621
12760TIP3   OH238156   8.809   1.509   6.396
12760TIP3    H138157   8.745   1.574   6.431
12760TIP3    H238158   8.848   1.558   6.321
12761TIP3   OH238159   8.577   0.858   6.364
12761TIP3    H138160   8.641   0.928   6.387
12761TIP3    H238161   8.616   0.818   6.286
12762TIP3   OH238162   8.631   1.705   6.486
12762TIP3    H138163   8.606   1.790   6.446
12762TIP3    H238164   8.552   1.690   6.543
12763TIP3   OH238165   8.025   1.397   5.723
12763TIP3    H138166   7.985   1.426   5.639
12763TIP3    H238167   8.056   1.482   5.760
12764TIP3   OH238168   9.455   1.897   5.953
12764TIP3    H138169   9.364   1.898   5.992
12764TIP3    H238170   9.459   1.985   5.913
12765TIP3   OH238171   9.165   1.946   5.640
12765TIP3    H138172   9.225   1.872   5.620
12765TIP3    H238173   9.219   2.022   5.608
12766TIP3   OH238174   9.317   1.724   5.534
12766TIP3    H138175   9.236   1.671   5.534
12766TIP3    H238176   9.353   1.703   5.623
12767TIP3   OH238177   8.977   1.224   5.564
12767TIP3    H138178   8.895   1.271   5.539
12767TIP3    H238179   9.022   1.215   5.478
12768TIP3   OH238180   8.938   1.009   5.281
12768TIP3    H138181   9.012   1.055   5.325
12768TIP3    H238182   8.986   0.937   5.236
12769TIP3   OH238183   9.340   1.297   5.545
12769TIP3    H138184   9.271   1.325   5.610
12769TIP3    H238185   9.418   1.296   5.603
12770TIP3   OH238186   9.571   1.348   6.430
12770TIP3    H138187   9.561   1.423   6.491
12770TIP3    H238188   9.487   1.350   6.382
12771TIP3   OH238189   8.564   1.302   5.952
12771TIP3    H138190   8.519   1.244   5.886
12771TIP3    H238191   8.638   1.245   5.981
12772TIP3   OH238192   8.691   1.710   6.101
12772TIP3    H138193   8.671   1.667   6.017
12772TIP3    H238194   8.782   1.677   6.120
12773TIP3   OH238195   8.698   1.269   6.309
12773TIP3    H138196   8.729   1.245   6.219
12773TIP3    H238197   8.744   1.354   6.326
12774TIP3   OH238198   9.217   1.912   6.081
12774TIP3    H138199   9.207   1.991   6.137
12774TIP3    H238200   9.207   1.837   6.143
12775TIP3   OH238201   8.835   1.828   6.630
12775TIP3    H138202   8.774   1.890   6.676
12775TIP3    H238203   8.770   1.774   6.581
12776TIP3   OH238204   9.168   1.153   5.369
12776TIP3    H138205   9.235   1.203   5.421
12776TIP3    H238206   9.199   1.171   5.277
12777TIP3   OH238207   8.572   1.390   6.730
12777TIP3    H138208   8.579   1.474   6.780
12777TIP3    H238209   8.477   1.369   6.743
12778TIP3   OH238210   8.910   1.838   5.637
12778TIP3    H138211   8.991   1.889   5.653
12778TIP3    H238212   8.850   1.904   5.599
12779TIP3   OH238213   8.630   1.998   6.717
12779TIP3    H138214   8.595   1.997   6.626
12779TIP3    H238215   8.551   1.975   6.770
12780TIP3   OH238216   8.425   1.151   5.760
12780TIP3    H138217   8.356   1.184   5.699
12780TIP3    H238218   8.405   1.057   5.767
12781TIP3   OH238219   8.208   1.529   6.662
12781TIP3    H138220   8.143   1.507   6.593
12781TIP3    H238221   8.243   1.441   6.687
12782TIP3   OH238222   8.063   1.719   6.297
12782TIP3    H138223   8.159   1.714   6.287
12782TIP3    H238224   8.054   1.799   6.351
12783TIP3   OH238225   9.034   1.955   6.487
12783TIP3    H138226   9.033   2.048   6.519
12783TIP3    H238227   8.962   1.917   6.541
12784TIP3   OH238228   8.793   2.086   5.438
12784TIP3    H138229   8.747   2.069   5.354
12784TIP3    H238230   8.762   2.175   5.462
12785TIP3   OH238231   8.232   1.936   5.822
12785TIP3    H138232   8.281   1.927   5.907
12785TIP3    H238233   8.173   1.858   5.828
12786TIP3   OH238234   8.996   1.988   5.080
12786TIP3    H138235   9.058   1.919   5.046
12786TIP3    H238236   9.029   1.999   5.172
12787TIP3   OH238237   9.045   2.035   5.350
12787TIP3    H138238   8.956   2.045   5.392
12787TIP3    H238239   9.096   1.999   5.424
12788TIP3   OH238240   8.415   1.710   6.652
12788TIP3    H138241   8.464   1.693   6.735
12788TIP3    H238242   8.340   1.647   6.659
12789TIP3   OH238243   9.249   1.199   5.108
12789TIP3    H138244   9.220   1.179   5.017
12789TIP3    H238245   9.293   1.284   5.096
12790TIP3   OH238246   8.752   1.048   6.461
12790TIP3    H138247   8.691   1.069   6.535
12790TIP3    H238248   8.735   1.126   6.402
12791TIP3   OH238249   8.617   0.959   5.965
12791TIP3    H138250   8.541   0.906   5.994
12791TIP3    H238251   8.639   0.917   5.879
12792TIP3   OH238252   9.121   1.032   5.691
12792TIP3    H138253   9.058   1.102   5.664
12792TIP3    H238254   9.170   1.022   5.609
12793TIP3   OH238255   9.307   1.326   6.732
12793TIP3    H138256   9.288   1.302   6.826
12793TIP3    H238257   9.395   1.365   6.740
12794TIP3   OH238258   9.266   1.040   5.941
12794TIP3    H138259   9.220   1.082   5.866
12794TIP3    H238260   9.297   0.959   5.899
12795TIP3   OH238261   8.567   1.091   6.658
12795TIP3    H138262   8.584   1.147   6.735
12795TIP3    H238263   8.531   1.010   6.698
12796TIP3   OH238264   9.279   1.305   6.351
12796TIP3    H138265   9.317   1.231   6.297
12796TIP3    H238266   9.269   1.263   6.437
12797TIP3   OH238267   8.388   0.811   6.038
12797TIP3    H138268   8.293   0.823   6.014
12797TIP3    H238269   8.399   0.715   6.026
12798TIP3   OH238270   8.677   0.841   5.722
12798TIP3    H138271   8.761   0.804   5.693
12798TIP3    H238272   8.619   0.827   5.645
12799TIP3   OH238273   8.481   0.849   5.502
12799TIP3    H138274   8.430   0.795   5.439
12799TIP3    H238275   8.550   0.883   5.441
12800TIP3   OH238276   9.609   2.528   6.447
12800TIP3    H138277   9.610   2.543   6.350
12800TIP3    H238278   9.681   2.586   6.475
12801TIP3   OH238279   8.574   1.631   6.873
12801TIP3    H138280   8.655   1.661   6.920
12801TIP3    H238281   8.510   1.633   6.947
12802TIP3   OH238282   9.042   1.084   6.129
12802TIP3    H138283   9.112   1.043   6.076
12802TIP3    H238284   9.044   1.030   6.210
12803TIP3   OH238285   9.015   0.964   6.445
12803TIP3    H138286   8.928   1.007   6.440
12803TIP3    H238287   9.068   1.028   6.496
12804TIP3   OH238288   8.750   1.374   5.511
12804TIP3    H138289   8.679   1.307   5.501
12804TIP3    H238290   8.732   1.406   5.603
12805TIP3   OH238291   9.163   1.693   6.509
12805TIP3    H138292   9.174   1.670   6.602
12805TIP3    H238293   9.117   1.779   6.513
12806TIP3   OH238294   8.445   1.392   6.187
12806TIP3    H138295   8.483   1.367   6.101
12806TIP3    H238296   8.487   1.328   6.247
12807TIP3   OH238297   8.897   1.521   5.332
12807TIP3    H138298   8.850   1.608   5.338
12807TIP3    H238299   8.842   1.466   5.392
12808TIP3   OH238300   8.315   1.317   6.805
12808TIP3    H138301   8.341   1.300   6.898
12808TIP3    H238302   8.247   1.249   6.790
12809TIP3   OH238303   9.056   1.433   6.824
12809TIP3    H138304   8.976   1.392   6.784
12809TIP3    H238305   9.124   1.410   6.758
12810TIP3   OH238306   9.312   1.950   6.406
12810TIP3    H138307   9.215   1.948   6.417
12810TIP3    H238308   9.338   2.006   6.482
12811TIP3   OH238309   9.436   1.814   5.200
12811TIP3    H138310   9.412   1.793   5.292
12811TIP3    H238311   9.363   1.773   5.151
12812TIP3   OH238312   9.389   1.480   6.061
12812TIP3    H138313   9.303   1.433   6.066
12812TIP3    H238314   9.452   1.409   6.045
12813TIP3   OH238315   8.545   1.697   5.812
12813TIP3    H138316   8.547   1.779   5.759
12813TIP3    H238317   8.451   1.683   5.822
12814TIP3   OH238318   8.108   1.000   5.515
12814TIP3    H138319   8.158   1.082   5.534
12814TIP3    H238320   8.034   1.009   5.577
12815TIP3   OH238321   8.688   1.465   5.758
12815TIP3    H138322   8.650   1.553   5.777
12815TIP3    H238323   8.652   1.412   5.831
12816TIP3   OH238324   8.814   2.043   6.282
12816TIP3    H138325   8.855   2.115   6.230
12816TIP3    H238326   8.892   2.008   6.329
12817TIP3   OH238327   8.466   1.937   5.665
12817TIP3    H138328   8.380   1.946   5.711
12817TIP3    H238329   8.498   2.030   5.668
12818TIP3   OH238330   9.205   1.677   6.236
12818TIP3    H138331   9.204   1.671   6.334
12818TIP3    H238332   9.281   1.622   6.212
12819TIP3   OH238333   9.169   1.574   5.128
12819TIP3    H138334   9.225   1.539   5.200
12819TIP3    H238335   9.081   1.548   5.160
12820TIP3   OH238336   9.441   2.210   6.293
12820TIP3    H138337   9.361   2.157   6.277
12820TIP3    H238338   9.435   2.274   6.219
12821TIP3   OH238339   9.340   1.482   5.327
12821TIP3    H138340   9.328   1.424   5.405
12821TIP3    H238341   9.416   1.536   5.356
12822TIP3   OH238342   8.253   1.905   6.441
12822TIP3    H138343   8.307   1.830   6.472
12822TIP3    H238344   8.282   1.975   6.502
12823TIP3   OH238345   8.544   1.549   5.123
12823TIP3    H138346   8.558   1.457   5.094
12823TIP3    H238347   8.525   1.537   5.218
12824TIP3   OH238348   8.489   1.554   5.395
12824TIP3    H138349   8.560   1.526   5.455
12824TIP3    H238350   8.494   1.652   5.403
12825TIP3   OH238351   8.221   1.246   5.595
12825TIP3    H138352   8.158   1.292   5.655
12825TIP3    H238353   8.240   1.316   5.531
12826TIP3   OH238354   8.755   1.752   5.343
12826TIP3    H138355   8.669   1.779   5.380
12826TIP3    H238356   8.773   1.825   5.283
12827TIP3   OH238357   8.970   0.802   5.746
12827TIP3    H138358   9.010   0.891   5.738
12827TIP3    H238359   8.928   0.805   5.832
12828TIP3   OH238360   9.196   1.105   6.611
12828TIP3    H138361   9.230   1.190   6.646
12828TIP3    H238362   9.273   1.066   6.567
12829TIP3   OH238363   8.498   1.827   5.411
12829TIP3    H138364   8.468   1.897   5.348
12829TIP3    H238365   8.482   1.871   5.498
12830TIP3   OH238366   8.216   1.460   5.403
12830TIP3    H138367   8.282   1.531   5.413
12830TIP3    H238368   8.263   1.405   5.337
12831TIP3   OH238369   8.137   0.710   5.520
12831TIP3    H138370   8.184   0.795   5.521
12831TIP3    H238371   8.056   0.734   5.567
12832TIP3   OH238372   9.489   2.187   5.894
12832TIP3    H138373   9.452   2.238   5.819
12832TIP3    H238374   9.567   2.142   5.853
12833TIP3   OH238375   8.089   1.671   5.793
12833TIP3    H138376   8.015   1.703   5.847
12833TIP3    H238377   8.066   1.711   5.706
12834TIP3   OH238378   8.243   2.212   6.863
12834TIP3    H138379   8.330   2.211   6.909
12834TIP3    H238380   8.222   2.117   6.861
12835TIP3   OH238381   8.730   2.178   6.908
12835TIP3    H138382   8.823   2.154   6.913
12835TIP3    H238383   8.700   2.122   6.834
12836TIP3   OH238384   8.707   1.754   5.036
12836TIP3    H138385   8.651   1.683   5.074
12836TIP3    H238386   8.782   1.701   5.003
12837TIP3   OH238387   9.360   2.088   6.643
12837TIP3    H138388   9.352   2.014   6.709
12837TIP3    H238389   9.439   2.135   6.674
12838TIP3   OH238390   9.148   1.794   4.959
12838TIP3    H138391   9.177   1.709   5.000
12838TIP3    H238392   9.186   1.790   4.869
12839TIP3   OH238393   8.375   1.620   7.064
12839TIP3    H138394   8.391   1.524   7.071
12839TIP3    H238395   8.287   1.622   7.020
12840TIP3   OH238396   8.351   1.270   5.256
12840TIP3    H138397   8.405   1.235   5.329
12840TIP3    H238398   8.419   1.275   5.186
12841TIP3   OH238399   8.982   1.704   6.838
12841TIP3    H138400   8.939   1.717   6.751
12841TIP3    H238401   9.015   1.612   6.833
12842TIP3   OH238402   8.860   1.470   5.064
12842TIP3    H138403   8.862   1.482   5.160
12842TIP3    H238404   8.859   1.372   5.059
12843TIP3   OH238405   9.482   1.718   6.440
12843TIP3    H138406   9.528   1.758   6.364
12843TIP3    H238407   9.400   1.770   6.440
12844TIP3   OH238408   8.489   1.345   7.047
12844TIP3    H138409   8.568   1.294   7.026
12844TIP3    H238410   8.514   1.380   7.136
12845TIP3   OH238411   8.560   1.175   5.481
12845TIP3    H138412   8.537   1.131   5.565
12845TIP3    H238413   8.595   1.099   5.428
12846TIP3   OH238414   8.836   1.329   6.705
12846TIP3    H138415   8.740   1.352   6.708
12846TIP3    H238416   8.850   1.309   6.611
12847TIP3   OH238417   8.659   0.971   5.324
12847TIP3    H138418   8.636   0.970   5.229
12847TIP3    H238419   8.757   0.972   5.318
12848TIP3   OH238420   9.342   1.640   6.839
12848TIP3    H138421   9.430   1.630   6.802
12848TIP3    H238422   9.347   1.580   6.916
12849TIP3   OH238423   8.883   1.083   6.819
12849TIP3    H138424   8.917   1.000   6.777
12849TIP3    H238425   8.914   1.153   6.758
12850TIP3   OH238426   9.018   1.349   6.486
12850TIP3    H138427   9.088   1.369   6.422
12850TIP3    H238428   8.951   1.416   6.464
12851TIP3   OH238429   9.619   1.574   6.621
12851TIP3    H138430   9.556   1.628   6.568
12851TIP3    H238431   9.699   1.585   6.568
12852TIP3   OH238432   8.811   1.150   7.066
12852TIP3    H138433   8.741   1.084   7.069
12852TIP3    H238434   8.847   1.132   6.976
12853TIP3   OH238435   9.274   1.193   6.968
12853TIP3    H138436   9.187   1.187   7.012
12853TIP3    H238437   9.270   1.115   6.910
12854TIP3   OH238438   8.467   2.029   5.223
12854TIP3    H138439   8.563   2.025   5.205
12854TIP3    H238440   8.438   2.079   5.144
12855TIP3   OH238441   7.948   1.412   5.440
12855TIP3    H138442   8.043   1.435   5.427
12855TIP3    H238443   7.944   1.323   5.399
12856TIP3   OH238444   7.862   2.024   5.853
12856TIP3    H138445   7.795   1.962   5.818
12856TIP3    H238446   7.906   1.967   5.920
12857TIP3   OH238447   7.998   1.877   6.040
12857TIP3    H138448   7.987   1.802   6.101
12857TIP3    H238449   8.049   1.938   6.096
12858TIP3   OH238450   9.607   1.995   6.175
12858TIP3    H138451   9.540   2.059   6.202
12858TIP3    H238452   9.565   1.953   6.098
12859TIP3   OH238453   8.185   1.279   6.413
12859TIP3    H138454   8.184   1.251   6.319
12859TIP3    H238455   8.282   1.284   6.429
12860TIP3   OH238456   8.179   0.939   6.494
12860TIP3    H138457   8.225   0.927   6.408
12860TIP3    H238458   8.201   1.031   6.513
12861TIP3   OH238459   9.286   2.156   5.526
12861TIP3    H138460   9.327   2.129   5.440
12861TIP3    H238461   9.354   2.214   5.563
12862TIP3   OH238462   8.411   1.945   6.884
12862TIP3    H138463   8.319   1.918   6.866
12862TIP3    H238464   8.418   1.927   6.979
12863TIP3   OH238465   8.588   1.978   6.431
12863TIP3    H138466   8.540   2.053   6.392
12863TIP3    H238467   8.674   1.992   6.387
12864TIP3   OH238468   9.035   2.221   6.571
12864TIP3    H138469   9.078   2.226   6.659
12864TIP3    H238470   9.100   2.271   6.517
12865TIP3   OH238471   9.213   2.372   6.429
12865TIP3    H138472   9.282   2.324   6.381
12865TIP3    H238473   9.267   2.431   6.486
12866TIP3   OH238474   8.265   2.235   6.454
12866TIP3    H138475   8.176   2.270   6.430
12866TIP3    H238476   8.273   2.271   6.543
12867TIP3   OH238477   8.501   2.213   6.311
12867TIP3    H138478   8.414   2.227   6.356
12867TIP3    H238479   8.482   2.247   6.222
12868TIP3   OH238480   8.926   2.244   6.109
12868TIP3    H138481   8.858   2.265   6.043
12868TIP3    H238482   8.940   2.331   6.152
12869TIP3   OH238483   9.193   2.183   6.162
12869TIP3    H138484   9.100   2.202   6.140
12869TIP3    H238485   9.239   2.257   6.120
12870TIP3   OH238486   9.396   2.369   6.080
12870TIP3    H138487   9.382   2.456   6.037
12870TIP3    H238488   9.431   2.315   6.006
12871TIP3   OH238489   8.176   2.029   6.199
12871TIP3    H138490   8.203   2.004   6.290
12871TIP3    H238491   8.248   1.986   6.149
12872TIP3   OH238492   8.370   1.900   6.055
12872TIP3    H138493   8.386   1.816   6.104
12872TIP3    H238494   8.460   1.938   6.051
12873TIP3   OH238495   8.635   1.995   6.058
12873TIP3    H138496   8.668   1.904   6.046
12873TIP3    H238497   8.679   2.018   6.142
12874TIP3   OH238498   7.965   1.800   5.591
12874TIP3    H138499   7.879   1.768   5.556
12874TIP3    H238500   7.953   1.895   5.576
12875TIP3   OH238501   8.736   1.991   5.172
12875TIP3    H138502   8.824   2.013   5.136
12875TIP3    H238503   8.714   1.916   5.113
12876TIP3   OH238504   9.384   2.075   5.292
12876TIP3    H138505   9.427   1.996   5.255
12876TIP3    H238506   9.364   2.126   5.211
12877TIP3   OH238507   8.040   1.827   5.229
12877TIP3    H138508   8.041   1.853   5.323
12877TIP3    H238509   8.129   1.786   5.218
12878TIP3   OH238510   9.650   2.258   6.468
12878TIP3    H138511   9.587   2.217   6.405
12878TIP3    H238512   9.627   2.353   6.454
12879TIP3   OH238513   1.601   2.155   7.425
12879TIP3    H138514   1.575   2.247   7.403
12879TIP3    H238515   1.527   2.107   7.386
12880TIP3   OH238516   1.608   2.158   7.799
12880TIP3    H138517   1.632   2.125   7.888
12880TIP3    H238518   1.562   2.082   7.760
12881TIP3   OH238519   1.006   2.062   8.125
12881TIP3    H138520   0.973   2.030   8.211
12881TIP3    H238521   1.024   2.155   8.149
12882TIP3   OH238522   1.847   2.455   7.484
12882TIP3    H138523   1.831   2.390   7.553
12882TIP3    H238524   1.874   2.533   7.535
12883TIP3   OH238525   0.876   2.458   7.900
12883TIP3    H138526   0.868   2.361   7.897
12883TIP3    H238527   0.971   2.469   7.882
12884TIP3   OH238528   1.494   2.920   7.500
12884TIP3    H138529   1.540   2.850   7.450
12884TIP3    H238530   1.489   2.881   7.588
12885TIP3   OH238531   1.399   2.380   7.857
12885TIP3    H138532   1.434   2.308   7.802
12885TIP3    H238533   1.483   2.425   7.879
12886TIP3   OH238534   2.414   1.702   7.848
12886TIP3    H138535   2.443   1.786   7.889
12886TIP3    H238536   2.437   1.718   7.755
12887TIP3   OH238537   1.805   1.880   7.888
12887TIP3    H138538   1.857   1.798   7.903
12887TIP3    H238539   1.782   1.870   7.793
12888TIP3   OH238540   1.845   1.636   7.474
12888TIP3    H138541   1.920   1.620   7.536
12888TIP3    H238542   1.894   1.670   7.397
12889TIP3   OH238543   1.223   1.934   7.783
12889TIP3    H138544   1.320   1.923   7.776
12889TIP3    H238545   1.192   1.854   7.735
12890TIP3   OH238546   2.489   1.910   8.019
12890TIP3    H138547   2.408   1.959   7.994
12890TIP3    H238548   2.488   1.924   8.115
12891TIP3   OH238549   1.493   2.374   7.293
12891TIP3    H138550   1.455   2.359   7.205
12891TIP3    H238551   1.452   2.459   7.317
12892TIP3   OH238552   1.254   2.299   8.090
12892TIP3    H138553   1.192   2.370   8.119
12892TIP3    H238554   1.291   2.337   8.008
12893TIP3   OH238555   2.057   1.635   7.645
12893TIP3    H138556   2.057   1.587   7.728
12893TIP3    H238557   2.112   1.712   7.666
12894TIP3   OH238558   1.079   2.495   8.181
12894TIP3    H138559   1.055   2.579   8.136
12894TIP3    H238560   0.996   2.478   8.232
12895TIP3   OH238561   0.518   2.192   7.407
12895TIP3    H138562   0.454   2.210   7.336
12895TIP3    H238563   0.511   2.272   7.462
12896TIP3   OH238564   1.918   2.700   7.653
12896TIP3    H138565   1.828   2.693   7.691
12896TIP3    H238566   1.911   2.785   7.606
12897TIP3   OH238567   2.207   1.603   8.014
12897TIP3    H138568   2.120   1.634   7.983
12897TIP3    H238569   2.268   1.635   7.943
12898TIP3   OH238570   1.620   2.748   7.329
12898TIP3    H138571   1.669   2.665   7.305
12898TIP3    H238572   1.681   2.813   7.287
12899TIP3   OH238573   1.759   2.532   7.233
12899TIP3    H138574   1.728   2.453   7.187
12899TIP3    H238575   1.795   2.494   7.316
12900TIP3   OH238576   2.143   2.613   7.997
12900TIP3    H138577   2.133   2.537   7.936
12900TIP3    H238578   2.125   2.689   7.938
12901TIP3   OH238579   1.435   2.008   7.253
12901TIP3    H138580   1.355   2.061   7.233
12901TIP3    H238581   1.480   2.007   7.166
12902TIP3   OH238582   1.394   1.788   6.973
12902TIP3    H138583   1.461   1.842   7.019
12902TIP3    H238584   1.453   1.727   6.924
12903TIP3   OH238585   2.339   2.251   7.842
12903TIP3    H138586   2.255   2.303   7.845
12903TIP3    H238587   2.369   2.274   7.751
12904TIP3   OH238588   1.780   2.089   7.226
12904TIP3    H138589   1.726   2.115   7.304
12904TIP3    H238590   1.865   2.065   7.269
12905TIP3   OH238591   2.018   2.130   8.137
12905TIP3    H138592   2.015   2.214   8.185
12905TIP3    H238593   1.932   2.136   8.089
12906TIP3   OH238594   1.024   2.102   7.659
12906TIP3    H138595   0.983   2.050   7.587
12906TIP3    H238596   1.097   2.044   7.688
12907TIP3   OH238597   1.137   2.490   7.795
12907TIP3    H138598   1.120   2.460   7.704
12907TIP3    H238599   1.229   2.460   7.810
12908TIP3   OH238600   1.676   2.697   7.773
12908TIP3    H138601   1.660   2.779   7.824
12908TIP3    H238602   1.660   2.626   7.837
12909TIP3   OH238603   1.287   2.616   8.324
12909TIP3    H138604   1.224   2.679   8.364
12909TIP3    H238605   1.226   2.562   8.270
12910TIP3   OH238606   1.623   1.946   7.050
12910TIP3    H138607   1.681   2.007   7.102
12910TIP3    H238608   1.649   1.970   6.958
12911TIP3   OH238609   1.025   2.182   8.405
12911TIP3    H138610   1.038   2.263   8.458
12911TIP3    H238611   0.931   2.164   8.423
12912TIP3   OH238612   1.364   2.629   7.334
12912TIP3    H138613   1.443   2.686   7.344
12912TIP3    H238614   1.305   2.685   7.282
12913TIP3   OH238615   1.084   2.786   8.405
12913TIP3    H138616   1.051   2.791   8.313
12913TIP3    H238617   1.004   2.758   8.455
12914TIP3   OH238618   2.141   1.191   7.100
12914TIP3    H138619   2.058   1.212   7.148
12914TIP3    H238620   2.154   1.273   7.047
12915TIP3   OH238621   0.919   1.960   7.450
12915TIP3    H138622   0.852   2.010   7.399
12915TIP3    H238623   0.872   1.875   7.458
12916TIP3   OH238624   1.936   2.557   6.648
12916TIP3    H138625   1.944   2.654   6.632
12916TIP3    H238626   2.029   2.528   6.635
12917TIP3   OH238627   0.504   2.505   8.003
12917TIP3    H138628   0.594   2.484   7.975
12917TIP3    H238629   0.520   2.590   8.046
12918TIP3   OH238630   2.382   2.959   8.045
12918TIP3    H138631   2.378   2.862   8.055
12918TIP3    H238632   2.298   2.985   8.088
12919TIP3   OH238633   1.490   2.742   8.179
12919TIP3    H138634   1.487   2.836   8.207
12919TIP3    H238635   1.415   2.705   8.230
12920TIP3   OH238636   1.247   2.872   7.128
12920TIP3    H138637   1.200   2.851   7.045
12920TIP3    H238638   1.214   2.962   7.149
12921TIP3   OH238639   0.684   2.724   7.511
12921TIP3    H138640   0.732   2.715   7.596
12921TIP3    H238641   0.621   2.650   7.518
12922TIP3   OH238642   1.450   2.777   6.768
12922TIP3    H138643   1.508   2.707   6.732
12922TIP3    H238644   1.483   2.785   6.860
12923TIP3   OH238645   1.499   2.823   7.039
12923TIP3    H138646   1.409   2.833   7.078
12923TIP3    H238647   1.547   2.782   7.112
12924TIP3   OH238648   2.271   2.091   8.316
12924TIP3    H138649   2.190   2.104   8.264
12924TIP3    H238650   2.285   1.995   8.306
12925TIP3   OH238651   0.859   2.473   8.350
12925TIP3    H138652   0.918   2.476   8.428
12925TIP3    H238653   0.778   2.437   8.389
12926TIP3   OH238654   1.788   1.432   8.335
12926TIP3    H138655   1.878   1.411   8.372
12926TIP3    H238656   1.739   1.441   8.418
12927TIP3   OH238657   2.036   1.863   8.234
12927TIP3    H138658   1.990   1.861   8.321
12927TIP3    H238659   2.017   1.954   8.202
12928TIP3   OH238660   1.699   1.994   6.795
12928TIP3    H138661   1.665   1.970   6.707
12928TIP3    H238662   1.778   2.045   6.771
12929TIP3   OH238663   1.400   1.376   7.107
12929TIP3    H138664   1.362   1.382   7.197
12929TIP3    H238665   1.393   1.280   7.093
12930TIP3   OH238666   1.122   1.706   7.676
12930TIP3    H138667   1.027   1.686   7.683
12930TIP3    H238668   1.133   1.686   7.580
12931TIP3   OH238669   1.579   1.815   7.385
12931TIP3    H138670   1.523   1.885   7.343
12931TIP3    H238671   1.630   1.783   7.309
12932TIP3   OH238672   1.746   2.088   8.473
12932TIP3    H138673   1.732   2.015   8.537
12932TIP3    H238674   1.841   2.106   8.489
12933TIP3   OH238675   1.727   1.838   7.626
12933TIP3    H138676   1.671   1.871   7.553
12933TIP3    H238677   1.761   1.757   7.582
12934TIP3   OH238678   1.738   2.084   8.049
12934TIP3    H138679   1.771   2.012   7.990
12934TIP3    H238680   1.713   2.031   8.128
12935TIP3   OH238681   1.425   1.553   7.710
12935TIP3    H138682   1.333   1.554   7.741
12935TIP3    H238683   1.476   1.555   7.791
12936TIP3   OH238684   1.115   1.632   7.414
12936TIP3    H138685   1.208   1.620   7.390
12936TIP3    H238686   1.068   1.616   7.330
12937TIP3   OH238687   1.904   1.622   7.924
12937TIP3    H138688   1.869   1.633   8.015
12937TIP3    H238689   1.842   1.556   7.889
12938TIP3   OH238690   0.960   1.598   7.183
12938TIP3    H138691   0.875   1.601   7.136
12938TIP3    H238692   1.016   1.649   7.120
12939TIP3   OH238693   2.070   3.309   8.140
12939TIP3    H138694   2.067   3.334   8.046
12939TIP3    H238695   2.147   3.360   8.170
12940TIP3   OH238696   1.023   2.410   8.573
12940TIP3    H138697   1.107   2.447   8.610
12940TIP3    H238698   0.963   2.432   8.645
12941TIP3   OH238699   1.495   1.868   7.814
12941TIP3    H138700   1.569   1.839   7.757
12941TIP3    H238701   1.522   1.838   7.902
12942TIP3   OH238702   1.464   1.778   8.117
12942TIP3    H138703   1.429   1.786   8.207
12942TIP3    H238704   1.553   1.815   8.135
12943TIP3   OH238705   1.206   2.159   7.204
12943TIP3    H138706   1.130   2.098   7.190
12943TIP3    H238707   1.186   2.193   7.295
12944TIP3   OH238708   2.107   2.396   7.832
12944TIP3    H138709   2.131   2.446   7.751
12944TIP3    H238710   2.021   2.355   7.807
12945TIP3   OH238711   1.660   1.471   7.069
12945TIP3    H138712   1.562   1.462   7.071
12945TIP3    H238713   1.675   1.566   7.085
12946TIP3   OH238714   1.601   2.475   8.202
12946TIP3    H138715   1.629   2.462   8.293
12946TIP3    H238716   1.569   2.566   8.201
12947TIP3   OH238717   1.734   1.720   7.167
12947TIP3    H138718   1.831   1.728   7.180
12947TIP3    H238719   1.713   1.799   7.113
12948TIP3   OH238720   0.887   2.177   7.887
12948TIP3    H138721   0.922   2.157   7.798
12948TIP3    H238722   0.952   2.133   7.944
12949TIP3   OH238723   1.354   2.313   7.031
12949TIP3    H138724   1.306   2.399   7.033
12949TIP3    H238725   1.296   2.257   7.087
12950TIP3   OH238726   1.505   2.218   8.507
12950TIP3    H138727   1.454   2.158   8.451
12950TIP3    H238728   1.596   2.187   8.487
12951TIP3   OH238729   1.767   2.730   8.102
12951TIP3    H138730   1.670   2.736   8.108
12951TIP3    H238731   1.793   2.791   8.175
12952TIP3   OH238732   2.176   1.811   7.004
12952TIP3    H138733   2.114   1.766   6.942
12952TIP3    H238734   2.173   1.900   6.963
12953TIP3   OH238735   2.393   2.666   8.086
12953TIP3    H138736   2.295   2.662   8.076
12953TIP3    H238737   2.420   2.637   7.995
12954TIP3   OH238738   1.879   2.628   6.912
12954TIP3    H138739   1.848   2.557   6.970
12954TIP3    H238740   1.888   2.585   6.826
12955TIP3   OH238741   1.872   2.258   7.755
12955TIP3    H138742   1.777   2.234   7.765
12955TIP3    H238743   1.905   2.180   7.706
12956TIP3   OH238744   1.000   2.488   7.509
12956TIP3    H138745   1.004   2.568   7.453
12956TIP3    H238746   0.905   2.469   7.505
12957TIP3   OH238747   1.138   2.253   7.450
12957TIP3    H138748   1.105   2.344   7.465
12957TIP3    H238749   1.102   2.207   7.527
12958TIP3   OH238750   1.267   2.830   7.973
12958TIP3    H138751   1.303   2.904   7.920
12958TIP3    H238752   1.347   2.797   8.016
12959TIP3   OH238753   0.922   2.724   7.361
12959TIP3    H138754   0.834   2.735   7.401
12959TIP3    H238755   0.954   2.817   7.358
12960TIP3   OH238756   1.656   2.464   7.931
12960TIP3    H138757   1.649   2.459   8.029
12960TIP3    H238758   1.737   2.413   7.915
12961TIP3   OH238759   1.630   2.355   6.812
12961TIP3    H138760   1.678   2.332   6.895
12961TIP3    H238761   1.540   2.330   6.835
12962TIP3   OH238762   1.904   2.999   7.980
12962TIP3    H138763   1.822   2.947   7.966
12962TIP3    H238764   1.894   3.066   7.908
12963TIP3   OH238765   1.970   2.832   6.634
12963TIP3    H138766   2.006   2.902   6.577
12963TIP3    H238767   1.890   2.878   6.667
12964TIP3   OH238768   1.789   2.294   7.034
12964TIP3    H138769   1.781   2.224   7.103
12964TIP3    H238770   1.886   2.290   7.018
12965TIP3   OH238771   0.698   2.687   8.136
12965TIP3    H138772   0.769   2.626   8.160
12965TIP3    H238773   0.724   2.768   8.184
12966TIP3   OH238774   1.024   2.325   6.818
12966TIP3    H138775   1.015   2.233   6.787
12966TIP3    H238776   0.981   2.322   6.905
12967TIP3   OH238777   0.938   2.341   7.087
12967TIP3    H138778   1.016   2.323   7.141
12967TIP3    H238779   0.939   2.440   7.085
12968TIP3   OH238780   0.697   2.024   7.296
12968TIP3    H138781   0.633   2.077   7.349
12968TIP3    H238782   0.707   2.085   7.220
12969TIP3   OH238783   1.823   1.666   8.181
12969TIP3    H138784   1.903   1.711   8.215
12969TIP3    H238785   1.814   1.590   8.243
12970TIP3   OH238786   1.708   1.427   7.342
12970TIP3    H138787   1.691   1.448   7.248
12970TIP3    H238788   1.745   1.511   7.376
12971TIP3   OH238789   1.209   2.541   7.039
12971TIP3    H138790   1.121   2.570   7.069
12971TIP3    H238791   1.220   2.596   6.961
12972TIP3   OH238792   1.404   1.616   7.448
12972TIP3    H138793   1.467   1.688   7.427
12972TIP3    H238794   1.411   1.612   7.545
12973TIP3   OH238795   1.673   1.918   8.254
12973TIP3    H138796   1.680   1.976   8.332
12973TIP3    H238797   1.732   1.844   8.279
12974TIP3   OH238798   1.553   1.335   7.550
12974TIP3    H138799   1.521   1.414   7.596
12974TIP3    H238800   1.610   1.374   7.479
12975TIP3   OH238801   0.950   2.613   7.102
12975TIP3    H138802   0.925   2.683   7.037
12975TIP3    H238803   0.936   2.660   7.186
12976TIP3   OH238804   2.305   1.824   8.231
12976TIP3    H138805   2.207   1.821   8.241
12976TIP3    H238806   2.313   1.779   8.146
12977TIP3   OH238807   1.956   2.017   7.626
12977TIP3    H138808   1.881   1.956   7.634
12977TIP3    H238809   2.029   1.969   7.672
12978TIP3   OH238810   0.661   2.245   7.095
12978TIP3    H138811   0.722   2.321   7.104
12978TIP3    H238812   0.710   2.195   7.026
12979TIP3   OH238813   1.926   2.971   7.574
12979TIP3    H138814   1.882   3.018   7.500
12979TIP3    H238815   2.019   2.990   7.553
12980TIP3   OH238816   0.541   2.469   7.502
12980TIP3    H138817   0.452   2.504   7.516
12980TIP3    H238818   0.550   2.487   7.408
12981TIP3   OH238819   0.723   3.004   8.526
12981TIP3    H138820   0.790   3.009   8.596
12981TIP3    H238821   0.664   2.934   8.555
12982TIP3   OH238822   1.179   2.965   8.601
12982TIP3    H138823   1.275   2.956   8.597
12982TIP3    H238824   1.151   2.911   8.524
12983TIP3   OH238825   1.164   2.545   6.737
12983TIP3    H138826   1.106   2.471   6.768
12983TIP3    H238827   1.228   2.495   6.683
12984TIP3   OH238828   1.812   2.879   8.335
12984TIP3    H138829   1.810   2.803   8.398
12984TIP3    H238830   1.894   2.925   8.359
12985TIP3   OH238831   1.597   2.585   6.638
12985TIP3    H138832   1.643   2.519   6.693
12985TIP3    H238833   1.651   2.584   6.556
12986TIP3   OH238834   0.808   2.058   6.950
12986TIP3    H138835   0.866   2.032   7.023
12986TIP3    H238836   0.873   2.061   6.877
12987TIP3   OH238837   1.440   2.492   8.524
12987TIP3    H138838   1.397   2.510   8.438
12987TIP3    H238839   1.470   2.399   8.514
12988TIP3   OH238840   1.329   2.255   6.752
12988TIP3    H138841   1.310   2.273   6.846
12988TIP3    H238842   1.318   2.158   6.749
12989TIP3   OH238843   1.928   2.500   8.134
12989TIP3    H138844   2.003   2.542   8.088
12989TIP3    H238845   1.859   2.568   8.119
12990TIP3   OH238846   1.010   1.962   7.163
12990TIP3    H138847   0.995   1.927   7.253
12990TIP3    H238848   1.049   1.886   7.116
12991TIP3   OH238849   1.264   2.024   8.378
12991TIP3    H138850   1.202   2.097   8.400
12991TIP3    H238851   1.327   2.067   8.315
12992TIP3   OH238852   1.112   1.750   7.011
12992TIP3    H138853   1.085   1.758   6.917
12992TIP3    H238854   1.209   1.761   7.003
12993TIP3   OH238855   1.800   2.428   8.535
12993TIP3    H138856   1.877   2.404   8.481
12993TIP3    H238857   1.802   2.360   8.605
12994TIP3   OH238858   1.937   2.086   6.672
12994TIP3    H138859   1.915   2.040   6.588
12994TIP3    H238860   1.905   2.176   6.649
12995TIP3   OH238861   1.448   1.828   8.494
12995TIP3    H138862   1.394   1.748   8.486
12995TIP3    H238863   1.377   1.895   8.495
12996TIP3   OH238864   1.436   2.134   8.202
12996TIP3    H138865   1.519   2.147   8.154
12996TIP3    H238866   1.377   2.199   8.158
12997TIP3   OH238867   2.013   2.104   8.579
12997TIP3    H138868   2.062   2.026   8.611
12997TIP3    H238869   2.085   2.162   8.549
12998TIP3   OH238870   2.057   2.357   8.322
12998TIP3    H138871   2.000   2.410   8.262
12998TIP3    H238872   2.145   2.377   8.282
12999TIP3   OH238873   1.683   1.870   8.626
12999TIP3    H138874   1.649   1.890   8.714
12999TIP3    H238875   1.600   1.851   8.576
13000TIP3   OH238876   1.903   1.811   8.463
13000TIP3    H138877   1.834   1.821   8.532
13000TIP3    H238878   1.981   1.785   8.517
13001TIP3   OH238879   2.131   1.752   8.611
13001TIP3    H138880   2.148   1.659   8.637
13001TIP3    H238881   2.120   1.797   8.698
13002TIP3   OH238882   0.918   2.820   6.931
13002TIP3    H138883   1.001   2.832   6.881
13002TIP3    H238884   0.853   2.807   6.860
13003TIP3   OH238885   0.402   2.167   7.154
13003TIP3    H138886   0.485   2.214   7.132
13003TIP3    H238887   0.417   2.083   7.106
13004TIP3   OH238888   0.321   2.811   7.532
13004TIP3    H138889   0.236   2.768   7.520
13004TIP3    H238890   0.359   2.761   7.608
13005TIP3   OH238891   0.439   2.674   7.734
13005TIP3    H138892   0.445   2.594   7.786
13005TIP3    H238893   0.495   2.735   7.787
13006TIP3   OH238894   2.179   3.060   7.531
13006TIP3    H138895   2.204   3.102   7.615
13006TIP3    H238896   2.234   3.108   7.467
13007TIP3   OH238897   2.204   3.085   7.814
13007TIP3    H138898   2.165   2.996   7.806
13007TIP3    H238899   2.284   3.065   7.865
13008TIP3   OH238900   2.256   2.760   8.386
13008TIP3    H138901   2.180   2.771   8.447
13008TIP3    H238902   2.296   2.849   8.389
13009TIP3   OH238903   2.069   2.274   7.005
13009TIP3    H138904   2.136   2.339   6.975
13009TIP3    H238905   2.114   2.235   7.083
13010TIP3   OH238906   2.199   2.141   7.208
13010TIP3    H138907   2.131   2.100   7.267
13010TIP3    H238908   2.261   2.181   7.272
13011TIP3   OH238909   2.252   2.532   7.643
13011TIP3    H138910   2.302   2.469   7.588
13011TIP3    H238911   2.245   2.609   7.583
13012TIP3   OH238912   2.083   2.831   7.839
13012TIP3    H138913   2.012   2.878   7.886
13012TIP3    H238914   2.035   2.786   7.767
13013TIP3   OH238915   2.135   2.048   6.857
13013TIP3    H138916   2.065   2.050   6.788
13013TIP3    H238917   2.107   2.125   6.910
13014TIP3   OH238918   2.007   1.723   6.812
13014TIP3    H138919   1.966   1.764   6.735
13014TIP3    H238920   1.980   1.629   6.801
13015TIP3   OH238921   2.012   1.998   7.356
13015TIP3    H138922   2.020   1.902   7.349
13015TIP3    H238923   1.999   2.011   7.452
13016TIP3   OH238924   2.300   2.422   8.213
13016TIP3    H138925   2.373   2.358   8.202
13016TIP3    H238926   2.324   2.492   8.151
13017TIP3   OH238927   2.487   2.227   8.229
13017TIP3    H138928   2.411   2.179   8.269
13017TIP3    H238929   2.560   2.165   8.250
13018TIP3   OH238930   1.949   1.457   6.801
13018TIP3    H138931   2.025   1.424   6.852
13018TIP3    H238932   1.878   1.394   6.820
13019TIP3   OH238933   2.008   1.715   7.253
13019TIP3    H138934   2.049   1.626   7.266
13019TIP3    H238935   2.065   1.748   7.181
13020TIP3   OH238936   2.170   1.888   7.746
13020TIP3    H138937   2.256   1.914   7.704
13020TIP3    H238938   2.184   1.926   7.835
13021TIP3   OH238939   2.238   2.032   7.977
13021TIP3    H138940   2.161   2.067   8.025
13021TIP3    H238941   2.271   2.112   7.932
13022TIP3   OH238942   2.682   1.614   8.531
13022TIP3    H138943   2.745   1.554   8.487
13022TIP3    H238944   2.661   1.679   8.461
13023TIP3   OH238945   2.117   1.465   7.289
13023TIP3    H138946   2.166   1.447   7.372
13023TIP3    H238947   2.057   1.387   7.286
13024TIP3   OH238948   2.562   1.766   8.337
13024TIP3    H138949   2.475   1.801   8.365
13024TIP3    H238950   2.532   1.691   8.281
13025TIP3   OH238951   2.199   1.397   6.922
13025TIP3    H138952   2.237   1.326   6.866
13025TIP3    H238953   2.265   1.469   6.911
13026TIP3   OH238954   1.765   2.928   7.190
13026TIP3    H138955   1.812   2.914   7.105
13026TIP3    H238956   1.816   3.000   7.229
13027TIP3   OH238957   0.867   2.700   8.571
13027TIP3    H138958   0.775   2.681   8.549
13027TIP3    H238959   0.862   2.737   8.660
13028TIP3   OH238960   1.040   2.767   8.122
13028TIP3    H138961   0.992   2.843   8.082
13028TIP3    H238962   1.125   2.780   8.076
13029TIP3   OH238963   1.486   3.009   8.257
13029TIP3    H138964   1.529   3.017   8.344
13029TIP3    H238965   1.550   3.060   8.201
13030TIP3   OH238966   1.665   3.160   8.119
13030TIP3    H138967   1.736   3.115   8.071
13030TIP3    H238968   1.717   3.219   8.177
13031TIP3   OH238969   2.460   1.525   8.217
13031TIP3    H138970   2.368   1.517   8.185
13031TIP3    H238971   2.492   1.432   8.206
13032TIP3   OH238972   0.716   3.016   8.149
13032TIP3    H138973   0.628   3.050   8.123
13032TIP3    H238974   0.726   3.061   8.234
13033TIP3   OH238975   0.953   2.999   8.002
13033TIP3    H138976   0.866   3.015   8.046
13033TIP3    H238977   0.935   3.035   7.912
13034TIP3   OH238978   1.378   3.029   7.802
13034TIP3    H138979   1.312   3.049   7.733
13034TIP3    H238980   1.392   3.118   7.841
13035TIP3   OH238981   1.648   2.970   7.853
13035TIP3    H138982   1.554   2.988   7.832
13035TIP3    H238983   1.692   3.043   7.807
13036TIP3   OH238984   1.855   3.162   7.767
13036TIP3    H138985   1.841   3.247   7.721
13036TIP3    H238986   1.881   3.104   7.692
13037TIP3   OH238987   0.624   2.811   7.886
13037TIP3    H138988   0.648   2.797   7.979
13037TIP3    H238989   0.701   2.770   7.840
13038TIP3   OH238990   0.822   2.688   7.745
13038TIP3    H138991   0.843   2.605   7.792
13038TIP3    H238992   0.911   2.729   7.737
13039TIP3   OH238993   1.085   2.785   7.748
13039TIP3    H138994   1.121   2.697   7.729
13039TIP3    H238995   1.130   2.805   7.832
13040TIP3   OH238996   1.670   1.428   7.847
13040TIP3    H138997   1.626   1.342   7.839
13040TIP3    H238998   1.744   1.415   7.784
13041TIP3   OH238999   2.186   1.321   7.744
13041TIP3    H139000   2.227   1.371   7.669
13041TIP3    H239001   2.092   1.342   7.734
13042TIP3   OH239002   2.282   1.419   7.508
13042TIP3    H139003   2.354   1.368   7.466
13042TIP3    H239004   2.315   1.511   7.492
13043TIP3   OH239005   1.902   1.326   7.718
13043TIP3    H139006   1.900   1.295   7.627
13043TIP3    H239007   1.889   1.243   7.768
13044TIP3   OH239008   1.933   1.253   7.277
13044TIP3    H139009   1.846   1.296   7.285
13044TIP3    H239010   1.915   1.166   7.320
13045TIP3   OH239011   0.391   2.588   7.296
13045TIP3    H139012   0.364   2.546   7.214
13045TIP3    H239013   0.389   2.682   7.268
13046TIP3   OH239014   1.305   1.378   7.371
13046TIP3    H139015   1.371   1.317   7.406
13046TIP3    H239016   1.343   1.465   7.399
13047TIP3   OH239017   1.190   2.786   6.860
13047TIP3    H139018   1.278   2.805   6.823
13047TIP3    H239019   1.166   2.708   6.805
13048TIP3   OH239020   1.906   2.896   6.956
13048TIP3    H139021   1.899   2.798   6.942
13048TIP3    H239022   1.862   2.929   6.875
13049TIP3   OH239023   0.478   2.578   6.944
13049TIP3    H139024   0.486   2.654   7.003
13049TIP3    H239025   0.545   2.604   6.877
13050TIP3   OH239026   2.198   1.481   8.655
13050TIP3    H139027   2.224   1.419   8.725
13050TIP3    H239028   2.281   1.483   8.602
13051TIP3   OH239029   2.133   3.040   8.144
13051TIP3    H139030   2.056   3.010   8.092
13051TIP3    H239031   2.117   3.137   8.144
13052TIP3   OH239032   3.397   2.412   6.913
13052TIP3    H139033   3.371   2.503   6.890
13052TIP3    H239034   3.324   2.363   6.873
13053TIP3   OH239035   3.399   2.417   7.292
13053TIP3    H139036   3.427   2.374   7.374
13053TIP3    H239037   3.359   2.344   7.242
13054TIP3   OH239038   2.699   2.311   7.656
13054TIP3    H139039   2.734   2.243   7.716
13054TIP3    H239040   2.778   2.365   7.640
13055TIP3   OH239041   3.641   2.714   6.970
13055TIP3    H139042   3.631   2.647   7.039
13055TIP3    H239043   3.673   2.791   7.022
13056TIP3   OH239044   2.670   2.717   7.384
13056TIP3    H139045   2.662   2.620   7.385
13056TIP3    H239046   2.767   2.726   7.371
13057TIP3   OH239047   2.376   1.920   7.168
13057TIP3    H139048   2.327   2.004   7.180
13057TIP3    H239049   2.306   1.867   7.125
13058TIP3   OH239050   2.437   2.209   7.337
13058TIP3    H139051   2.486   2.132   7.372
13058TIP3    H239052   2.492   2.237   7.263
13059TIP3   OH239053   3.289   3.177   6.986
13059TIP3    H139054   3.336   3.106   6.937
13059TIP3    H239055   3.283   3.140   7.074
13060TIP3   OH239056   3.197   2.638   7.340
13060TIP3    H139057   3.232   2.562   7.291
13060TIP3    H239058   3.279   2.687   7.354
13061TIP3   OH239059   4.209   1.958   7.335
13061TIP3    H139060   4.239   2.041   7.378
13061TIP3    H239061   4.234   1.975   7.242
13062TIP3   OH239062   3.606   2.141   7.373
13062TIP3    H139063   3.652   2.057   7.392
13062TIP3    H239064   3.579   2.127   7.281
13063TIP3   OH239065   2.947   1.799   7.337
13063TIP3    H139066   2.927   1.871   7.274
13063TIP3    H239067   2.901   1.725   7.292
13064TIP3   OH239068   3.641   1.892   6.959
13064TIP3    H139069   3.714   1.876   7.023
13064TIP3    H239070   3.692   1.926   6.884
13065TIP3   OH239071   2.581   2.001   7.444
13065TIP3    H139072   2.665   1.980   7.489
13065TIP3    H239073   2.592   1.946   7.363
13066TIP3   OH239074   3.022   2.199   7.238
13066TIP3    H139075   3.116   2.173   7.249
13066TIP3    H239076   2.983   2.116   7.203
13067TIP3   OH239077   4.283   2.163   7.508
13067TIP3    H139078   4.202   2.213   7.487
13067TIP3    H239079   4.304   2.197   7.597
13068TIP3   OH239080   2.944   1.786   7.773
13068TIP3    H139081   2.885   1.820   7.703
13068TIP3    H239082   2.891   1.804   7.853
13069TIP3   OH239083   3.289   2.630   6.781
13069TIP3    H139084   3.251   2.614   6.694
13069TIP3    H239085   3.248   2.717   6.804
13070TIP3   OH239086   3.053   2.558   7.568
13070TIP3    H139087   2.988   2.623   7.604
13070TIP3    H239088   3.090   2.607   7.492
13071TIP3   OH239089   3.852   1.892   7.130
13071TIP3    H139090   3.849   1.841   7.211
13071TIP3    H239091   3.908   1.968   7.155
13072TIP3   OH239092   2.816   1.897   7.555
13072TIP3    H139093   2.879   1.970   7.577
13072TIP3    H239094   2.863   1.856   7.479
13073TIP3   OH239095   2.879   2.751   7.663
13073TIP3    H139096   2.854   2.835   7.621
13073TIP3    H239097   2.799   2.737   7.719
13074TIP3   OH239098   2.274   2.441   6.899
13074TIP3    H139099   2.233   2.466   6.814
13074TIP3    H239100   2.302   2.528   6.934
13075TIP3   OH239101   3.711   2.942   7.134
13075TIP3    H139102   3.623   2.949   7.177
13075TIP3    H239103   3.723   3.035   7.104
13076TIP3   OH239104   4.003   1.858   7.502
13076TIP3    H139105   3.916   1.888   7.470
13076TIP3    H239106   4.064   1.890   7.431
13077TIP3   OH239107   3.302   1.502   7.484
13077TIP3    H139108   3.289   1.406   7.500
13077TIP3    H239109   3.224   1.539   7.530
13078TIP3   OH239110   3.416   3.004   6.815
13078TIP3    H139111   3.465   2.922   6.792
13078TIP3    H239112   3.477   3.070   6.774
13079TIP3   OH239113   3.555   2.789   6.719
13079TIP3    H139114   3.527   2.709   6.673
13079TIP3    H239115   3.591   2.753   6.803
13080TIP3   OH239116   3.232   2.265   6.740
13080TIP3    H139117   3.152   2.317   6.718
13080TIP3    H239118   3.277   2.262   6.654
13081TIP3   OH239119   3.190   2.047   6.459
13081TIP3    H139120   3.258   2.099   6.505
13081TIP3    H239121   3.247   1.984   6.410
13082TIP3   OH239122   4.128   2.508   7.327
13082TIP3    H139123   4.048   2.565   7.333
13082TIP3    H239124   4.160   2.532   7.237
13083TIP3   OH239125   3.576   2.346   6.713
13083TIP3    H139126   3.523   2.372   6.792
13083TIP3    H239127   3.661   2.321   6.756
13084TIP3   OH239128   3.815   2.384   7.626
13084TIP3    H139129   3.811   2.465   7.680
13084TIP3    H239130   3.729   2.387   7.580
13085TIP3   OH239131   2.808   2.345   7.130
13085TIP3    H139132   2.766   2.288   7.062
13085TIP3    H239133   2.886   2.291   7.155
13086TIP3   OH239134   2.936   2.751   7.279
13086TIP3    H139135   2.915   2.717   7.190
13086TIP3    H239136   3.027   2.718   7.293
13087TIP3   OH239137   2.948   2.315   7.485
13087TIP3    H139138   2.977   2.294   7.394
13087TIP3    H239139   2.989   2.403   7.501
13088TIP3   OH239140   3.473   2.959   7.264
13088TIP3    H139141   3.442   3.037   7.314
13088TIP3    H239142   3.460   2.884   7.325
13089TIP3   OH239143   3.081   2.866   7.814
13089TIP3    H139144   3.021   2.932   7.856
13089TIP3    H239145   3.016   2.817   7.759
13090TIP3   OH239146   3.419   2.203   6.537
13090TIP3    H139147   3.477   2.264   6.589
13090TIP3    H239148   3.445   2.227   6.445
13091TIP3   OH239149   2.840   2.425   7.913
13091TIP3    H139150   2.843   2.514   7.954
13091TIP3    H239151   2.743   2.410   7.914
13092TIP3   OH239152   3.160   2.886   6.818
13092TIP3    H139153   3.240   2.941   6.830
13092TIP3    H239154   3.101   2.946   6.771
13093TIP3   OH239155   2.880   3.040   7.892
13093TIP3    H139156   2.845   3.042   7.801
13093TIP3    H239157   2.800   3.018   7.945
13094TIP3   OH239158   3.935   1.446   6.585
13094TIP3    H139159   3.853   1.467   6.636
13094TIP3    H239160   3.948   1.529   6.536
13095TIP3   OH239161   2.674   2.188   6.937
13095TIP3    H139162   2.612   2.235   6.878
13095TIP3    H239163   2.633   2.101   6.942
13096TIP3   OH239164   3.733   2.814   6.134
13096TIP3    H139165   3.741   2.911   6.119
13096TIP3    H239166   3.826   2.785   6.122
13097TIP3   OH239167   2.457   2.571   7.841
13097TIP3    H139168   2.392   2.552   7.770
13097TIP3    H239169   2.494   2.483   7.861
13098TIP3   OH239170   2.312   2.761   7.481
13098TIP3    H139171   2.407   2.761   7.464
13098TIP3    H239172   2.300   2.846   7.526
13099TIP3   OH239173   4.184   3.209   7.538
13099TIP3    H139174   4.184   3.113   7.550
13099TIP3    H239175   4.096   3.234   7.571
13100TIP3   OH239176   3.273   2.994   7.663
13100TIP3    H139177   3.281   3.088   7.693
13100TIP3    H239178   3.203   2.961   7.723
13101TIP3   OH239179   3.042   3.129   6.616
13101TIP3    H139180   2.998   3.111   6.531
13101TIP3    H239181   3.011   3.219   6.638
13102TIP3   OH239182   2.480   2.980   6.998
13102TIP3    H139183   2.528   2.970   7.083
13102TIP3    H239184   2.420   2.905   7.002
13103TIP3   OH239185   3.245   3.032   6.255
13103TIP3    H139186   3.304   2.962   6.218
13103TIP3    H239187   3.279   3.041   6.346
13104TIP3   OH239188   3.294   3.080   6.525
13104TIP3    H139189   3.206   3.089   6.568
13104TIP3    H239190   3.346   3.040   6.597
13105TIP3   OH239191   4.061   2.344   7.804
13105TIP3    H139192   3.985   2.353   7.745
13105TIP3    H239193   4.081   2.248   7.794
13106TIP3   OH239194   2.664   2.752   7.829
13106TIP3    H139195   2.711   2.738   7.913
13106TIP3    H239196   2.588   2.690   7.837
13107TIP3   OH239197   3.062   1.577   7.612
13107TIP3    H139198   2.973   1.546   7.586
13107TIP3    H239199   3.037   1.661   7.655
13108TIP3   OH239200   3.596   1.695   7.807
13108TIP3    H139201   3.665   1.664   7.870
13108TIP3    H239202   3.512   1.672   7.853
13109TIP3   OH239203   3.834   2.119   7.723
13109TIP3    H139204   3.786   2.117   7.809
13109TIP3    H239205   3.813   2.207   7.688
13110TIP3   OH239206   3.496   2.251   6.283
13110TIP3    H139207   3.461   2.226   6.195
13110TIP3    H239208   3.575   2.302   6.257
13111TIP3   OH239209   3.209   1.626   6.584
13111TIP3    H139210   3.174   1.624   6.675
13111TIP3    H239211   3.169   1.544   6.549
13112TIP3   OH239212   2.996   2.093   7.632
13112TIP3    H139213   2.942   2.114   7.711
13112TIP3    H239214   2.980   2.173   7.577
13113TIP3   OH239215   2.879   1.979   7.146
13113TIP3    H139216   2.785   1.955   7.161
13113TIP3    H239217   2.892   1.940   7.057
13114TIP3   OH239218   3.368   2.065   6.873
13114TIP3    H139219   3.315   2.137   6.831
13114TIP3    H239220   3.423   2.035   6.798
13115TIP3   OH239221   3.544   2.345   7.958
13115TIP3    H139222   3.523   2.271   8.018
13115TIP3    H239223   3.638   2.360   7.979
13116TIP3   OH239224   3.525   2.095   7.112
13116TIP3    H139225   3.467   2.125   7.040
13116TIP3    H239226   3.559   2.013   7.070
13117TIP3   OH239227   2.814   2.124   7.838
13117TIP3    H139228   2.830   2.193   7.904
13117TIP3    H239229   2.800   2.045   7.893
13118TIP3   OH239230   2.864   1.600   6.550
13118TIP3    H139231   2.853   1.597   6.647
13118TIP3    H239232   2.785   1.651   6.524
13119TIP3   OH239233   2.405   1.643   7.425
13119TIP3    H139234   2.483   1.676   7.474
13119TIP3    H239235   2.440   1.615   7.340
13120TIP3   OH239236   2.381   1.627   6.942
13120TIP3    H139237   2.424   1.664   6.862
13120TIP3    H239238   2.319   1.699   6.961
13121TIP3   OH239239   3.541   2.342   7.540
13121TIP3    H139240   3.571   2.271   7.479
13121TIP3    H239241   3.508   2.288   7.615
13122TIP3   OH239242   3.205   1.802   7.207
13122TIP3    H139243   3.122   1.800   7.259
13122TIP3    H239244   3.273   1.801   7.277
13123TIP3   OH239245   2.638   1.856   7.217
13123TIP3    H139246   2.544   1.864   7.188
13123TIP3    H239247   2.662   1.766   7.190
13124TIP3   OH239248   2.910   1.855   6.903
13124TIP3    H139249   3.003   1.870   6.880
13124TIP3    H239250   2.862   1.877   6.819
13125TIP3   OH239251   3.696   1.879   7.411
13125TIP3    H139252   3.658   1.890   7.501
13125TIP3    H239253   3.634   1.816   7.371
13126TIP3   OH239254   2.750   1.886   6.683
13126TIP3    H139255   2.679   1.842   6.634
13126TIP3    H239256   2.802   1.923   6.608
13127TIP3   OH239257   3.870   3.559   7.628
13127TIP3    H139258   3.866   3.588   7.534
13127TIP3    H239259   3.947   3.612   7.659
13128TIP3   OH239260   2.825   2.673   8.051
13128TIP3    H139261   2.904   2.707   8.097
13128TIP3    H239262   2.759   2.678   8.123
13129TIP3   OH239263   3.289   2.129   7.304
13129TIP3    H139264   3.360   2.092   7.250
13129TIP3    H239265   3.303   2.083   7.389
13130TIP3   OH239266   2.814   1.618   7.181
13130TIP3    H139267   2.780   1.537   7.225
13130TIP3    H239268   2.860   1.582   7.104
13131TIP3   OH239269   3.265   2.021   7.599
13131TIP3    H139270   3.176   2.060   7.607
13131TIP3    H239271   3.322   2.085   7.645
13132TIP3   OH239272   3.002   2.417   6.690
13132TIP3    H139273   2.929   2.353   6.678
13132TIP3    H239274   2.983   2.451   6.781
13133TIP3   OH239275   3.893   2.660   7.334
13133TIP3    H139276   3.924   2.717   7.260
13133TIP3    H239277   3.815   2.616   7.294
13134TIP3   OH239278   3.461   1.728   6.553
13134TIP3    H139279   3.364   1.713   6.558
13134TIP3    H239280   3.470   1.824   6.573
13135TIP3   OH239281   3.429   2.749   7.687
13135TIP3    H139282   3.416   2.721   7.778
13135TIP3    H239283   3.374   2.830   7.682
13136TIP3   OH239284   3.530   1.977   6.655
13136TIP3    H139285   3.626   1.984   6.669
13136TIP3    H239286   3.510   2.056   6.601
13137TIP3   OH239287   2.695   2.439   7.366
13137TIP3    H139288   2.729   2.413   7.278
13137TIP3    H239289   2.733   2.372   7.424
13138TIP3   OH239290   3.148   2.567   6.512
13138TIP3    H139291   3.101   2.654   6.517
13138TIP3    H239292   3.093   2.513   6.572
13139TIP3   OH239293   2.574   2.356   7.977
13139TIP3    H139294   2.588   2.344   8.073
13139TIP3    H239295   2.501   2.293   7.959
13140TIP3   OH239296   3.300   2.471   7.999
13140TIP3    H139297   3.242   2.418   7.942
13140TIP3    H239298   3.388   2.439   7.970
13141TIP3   OH239299   3.972   2.067   6.491
13141TIP3    H139300   3.909   2.022   6.429
13141TIP3    H239301   3.968   2.156   6.450
13142TIP3   OH239302   4.184   2.921   7.568
13142TIP3    H139303   4.089   2.907   7.559
13142TIP3    H239304   4.215   2.895   7.478
13143TIP3   OH239305   3.669   2.885   6.397
13143TIP3    H139306   3.647   2.813   6.457
13143TIP3    H239307   3.684   2.841   6.312
13144TIP3   OH239308   3.666   2.512   7.247
13144TIP3    H139309   3.572   2.484   7.249
13144TIP3    H239310   3.704   2.437   7.197
13145TIP3   OH239311   2.795   2.743   6.993
13145TIP3    H139312   2.798   2.824   6.938
13145TIP3    H239313   2.700   2.727   6.996
13146TIP3   OH239314   2.359   2.047   6.693
13146TIP3    H139315   2.404   2.132   6.712
13146TIP3    H239316   2.281   2.053   6.752
13147TIP3   OH239317   2.934   2.509   6.937
13147TIP3    H139318   2.900   2.599   6.952
13147TIP3    H239319   2.894   2.460   7.011
13148TIP3   OH239320   3.064   3.085   7.460
13148TIP3    H139321   3.103   3.159   7.409
13148TIP3    H239322   3.140   3.054   7.510
13149TIP3   OH239323   2.717   2.980   6.845
13149TIP3    H139324   2.629   2.991   6.888
13149TIP3    H239325   2.749   3.073   6.845
13150TIP3   OH239326   3.467   2.725   7.418
13150TIP3    H139327   3.452   2.716   7.515
13150TIP3    H239328   3.520   2.647   7.397
13151TIP3   OH239329   3.426   2.611   6.300
13151TIP3    H139330   3.477   2.588   6.381
13151TIP3    H239331   3.337   2.587   6.328
13152TIP3   OH239332   3.689   3.222   7.465
13152TIP3    H139333   3.598   3.209   7.426
13152TIP3    H239334   3.718   3.288   7.396
13153TIP3   OH239335   3.766   3.089   6.120
13153TIP3    H139336   3.806   3.162   6.069
13153TIP3    H239337   3.686   3.135   6.152
13154TIP3   OH239338   2.784   1.874   7.999
13154TIP3    H139339   2.687   1.868   7.999
13154TIP3    H239340   2.808   1.803   8.062
13155TIP3   OH239341   3.586   2.550   6.521
13155TIP3    H139342   3.577   2.481   6.589
13155TIP3    H239343   3.683   2.547   6.505
13156TIP3   OH239344   2.502   2.951   7.619
13156TIP3    H139345   2.556   2.877   7.650
13156TIP3    H239346   2.533   3.022   7.676
13157TIP3   OH239347   2.794   2.595   6.300
13157TIP3    H139348   2.807   2.503   6.269
13157TIP3    H239349   2.774   2.581   6.394
13158TIP3   OH239350   2.739   2.599   6.573
13158TIP3    H139351   2.813   2.575   6.631
13158TIP3    H239352   2.741   2.697   6.577
13159TIP3   OH239353   2.475   2.294   6.776
13159TIP3    H139354   2.408   2.339   6.831
13159TIP3    H239355   2.489   2.362   6.707
13160TIP3   OH239356   3.617   1.934   7.671
13160TIP3    H139357   3.703   1.968   7.703
13160TIP3    H239358   3.607   1.851   7.723
13161TIP3   OH239359   3.502   1.681   6.832
13161TIP3    H139360   3.487   1.703   6.738
13161TIP3    H239361   3.540   1.765   6.866
13162TIP3   OH239362   3.005   2.797   6.523
13162TIP3    H139363   2.917   2.825   6.556
13162TIP3    H239364   3.021   2.864   6.456
13163TIP3   OH239365   3.194   1.859   6.934
13163TIP3    H139366   3.258   1.931   6.915
13163TIP3    H239367   3.198   1.854   7.031
13164TIP3   OH239368   3.459   2.179   7.742
13164TIP3    H139369   3.484   2.231   7.821
13164TIP3    H239370   3.516   2.100   7.750
13165TIP3   OH239371   3.338   1.589   7.038
13165TIP3    H139372   3.328   1.668   7.094
13165TIP3    H239373   3.397   1.624   6.968
13166TIP3   OH239374   2.746   2.871   6.588
13166TIP3    H139375   2.717   2.940   6.523
13166TIP3    H239376   2.731   2.917   6.673
13167TIP3   OH239377   2.847   1.585   6.828
13167TIP3    H139378   2.845   1.677   6.861
13167TIP3    H239379   2.943   1.567   6.835
13168TIP3   OH239380   4.102   2.079   7.726
13168TIP3    H139381   4.004   2.075   7.728
13168TIP3    H239382   4.118   2.043   7.637
13169TIP3   OH239383   3.752   2.275   7.113
13169TIP3    H139384   3.678   2.213   7.122
13169TIP3    H239385   3.825   2.228   7.159
13170TIP3   OH239386   2.464   2.502   6.582
13170TIP3    H139387   2.527   2.576   6.589
13170TIP3    H239388   2.510   2.449   6.514
13171TIP3   OH239389   2.409   1.777   6.717
13171TIP3    H139390   2.409   1.875   6.711
13171TIP3    H239391   2.329   1.755   6.666
13172TIP3   OH239392   3.724   3.229   7.065
13172TIP3    H139393   3.679   3.272   6.989
13172TIP3    H239394   3.817   3.251   7.044
13173TIP3   OH239395   2.797   1.498   7.589
13173TIP3    H139396   2.766   1.466   7.502
13173TIP3    H239397   2.786   1.419   7.645
13174TIP3   OH239398   2.337   2.715   6.971
13174TIP3    H139399   2.262   2.748   7.022
13174TIP3    H239400   2.317   2.754   6.883
13175TIP3   OH239401   2.492   3.256   8.041
13175TIP3    H139402   2.579   3.257   8.088
13175TIP3    H239403   2.473   3.161   8.039
13176TIP3   OH239404   2.973   3.222   8.088
13176TIP3    H139405   3.069   3.209   8.092
13176TIP3    H239406   2.950   3.165   8.012
13177TIP3   OH239407   2.958   2.799   6.215
13177TIP3    H139408   2.902   2.726   6.250
13177TIP3    H239409   3.031   2.749   6.175
13178TIP3   OH239410   3.669   3.102   7.778
13178TIP3    H139411   3.620   3.050   7.845
13178TIP3    H239412   3.704   3.173   7.837
13179TIP3   OH239413   3.393   2.840   6.123
13179TIP3    H139414   3.441   2.778   6.181
13179TIP3    H239415   3.447   2.841   6.042
13180TIP3   OH239416   2.622   2.664   8.241
13180TIP3    H139417   2.640   2.568   8.239
13180TIP3    H239418   2.535   2.668   8.197
13181TIP3   OH239419   2.599   2.316   6.432
13181TIP3    H139420   2.656   2.283   6.504
13181TIP3    H239421   2.666   2.321   6.360
13182TIP3   OH239422   3.233   2.748   8.014
13182TIP3    H139423   3.186   2.768   7.930
13182TIP3    H239424   3.260   2.655   8.004
13183TIP3   OH239425   3.111   2.513   6.241
13183TIP3    H139426   3.112   2.526   6.338
13183TIP3    H239427   3.109   2.415   6.236
13184TIP3   OH239428   3.741   2.797   7.603
13184TIP3    H139429   3.764   2.747   7.521
13184TIP3    H239430   3.646   2.779   7.613
13185TIP3   OH239431   2.735   2.404   8.226
13185TIP3    H139432   2.810   2.349   8.201
13185TIP3    H239433   2.761   2.434   8.315
13186TIP3   OH239434   2.811   2.217   6.657
13186TIP3    H139435   2.782   2.173   6.738
13186TIP3    H239436   2.846   2.143   6.604
13187TIP3   OH239437   3.078   2.283   7.888
13187TIP3    H139438   2.999   2.341   7.889
13187TIP3    H239439   3.126   2.316   7.809
13188TIP3   OH239440   2.908   2.011   6.497
13188TIP3    H139441   2.882   2.015   6.403
13188TIP3    H239442   3.006   2.017   6.489
13189TIP3   OH239443   3.593   2.686   8.018
13189TIP3    H139444   3.680   2.669   7.979
13189TIP3    H239445   3.590   2.619   8.089
13190TIP3   OH239446   3.733   2.343   6.159
13190TIP3    H139447   3.710   2.297   6.075
13190TIP3    H239448   3.701   2.433   6.136
13191TIP3   OH239449   3.200   2.068   8.011
13191TIP3    H139450   3.203   1.990   7.951
13191TIP3    H239451   3.160   2.136   7.952
13192TIP3   OH239452   3.202   1.858   7.820
13192TIP3    H139453   3.231   1.899   7.736
13192TIP3    H239454   3.109   1.835   7.800
13193TIP3   OH239455   3.232   2.397   7.696
13193TIP3    H139456   3.310   2.397   7.640
13193TIP3    H239457   3.173   2.460   7.649
13194TIP3   OH239458   3.815   2.360   8.073
13194TIP3    H139459   3.862   2.276   8.077
13194TIP3    H239460   3.884   2.420   8.040
13195TIP3   OH239461   3.854   2.619   7.796
13195TIP3    H139462   3.809   2.690   7.747
13195TIP3    H239463   3.945   2.630   7.761
13196TIP3   OH239464   3.080   2.174   8.236
13196TIP3    H139465   2.985   2.162   8.224
13196TIP3    H239466   3.115   2.149   8.148
13197TIP3   OH239467   3.335   1.622   7.885
13197TIP3    H139468   3.286   1.703   7.860
13197TIP3    H239469   3.268   1.553   7.870
13198TIP3   OH239470   3.465   2.125   8.097
13198TIP3    H139471   3.467   2.118   8.194
13198TIP3    H239472   3.372   2.100   8.075
13199TIP3   OH239473   3.703   2.078   7.955
13199TIP3    H139474   3.627   2.076   8.016
13199TIP3    H239475   3.777   2.046   8.011
13200TIP3   OH239476   3.925   2.015   8.108
13200TIP3    H139477   3.942   1.919   8.125
13200TIP3    H239478   3.926   2.053   8.198
13201TIP3   OH239479   3.429   1.633   8.141
13201TIP3    H139480   3.496   1.561   8.137
13201TIP3    H239481   3.391   1.625   8.051
13202TIP3   OH239482   3.493   1.844   8.299
13202TIP3    H139483   3.481   1.770   8.235
13202TIP3    H239484   3.416   1.900   8.279
13203TIP3   OH239485   2.716   3.072   6.401
13203TIP3    H139486   2.811   3.071   6.381
13203TIP3    H239487   2.684   3.122   6.323
13204TIP3   OH239488   2.197   2.454   6.621
13204TIP3    H139489   2.291   2.477   6.604
13204TIP3    H239490   2.191   2.367   6.577
13205TIP3   OH239491   2.110   3.069   7.029
13205TIP3    H139492   2.043   3.007   6.993
13205TIP3    H239493   2.154   3.011   7.095
13206TIP3   OH239494   2.247   2.921   7.216
13206TIP3    H139495   2.233   2.847   7.276
13206TIP3    H239496   2.298   2.982   7.272
13207TIP3   OH239497   3.978   3.329   7.032
13207TIP3    H139498   4.007   3.412   7.075
13207TIP3    H239499   4.033   3.333   6.951
13208TIP3   OH239500   3.988   3.337   7.323
13208TIP3    H139501   3.981   3.279   7.245
13208TIP3    H239502   4.083   3.331   7.341
13209TIP3   OH239503   4.037   3.022   7.857
13209TIP3    H139504   3.974   3.026   7.931
13209TIP3    H239505   4.088   3.105   7.869
13210TIP3   OH239506   3.865   2.531   6.492
13210TIP3    H139507   3.932   2.595   6.462
13210TIP3    H239508   3.910   2.492   6.570
13211TIP3   OH239509   3.994   2.397   6.694
13211TIP3    H139510   3.928   2.356   6.755
13211TIP3    H239511   4.059   2.436   6.756
13212TIP3   OH239512   4.047   2.786   7.135
13212TIP3    H139513   4.096   2.722   7.080
13212TIP3    H239514   4.041   2.863   7.076
13213TIP3   OH239515   3.931   2.305   6.343
13213TIP3    H139516   3.861   2.308   6.275
13213TIP3    H239517   3.905   2.382   6.397
13214TIP3   OH239518   3.804   1.978   6.298
13214TIP3    H139519   3.761   2.020   6.222
13214TIP3    H239520   3.776   1.884   6.285
13215TIP3   OH239521   3.807   2.254   6.843
13215TIP3    H139522   3.816   2.158   6.837
13215TIP3    H239523   3.795   2.268   6.940
13216TIP3   OH239524   2.434   2.322   7.591
13216TIP3    H139525   2.432   2.296   7.497
13216TIP3    H239526   2.531   2.328   7.606
13217TIP3   OH239527   4.100   2.681   7.695
13217TIP3    H139528   4.166   2.608   7.693
13217TIP3    H239529   4.145   2.747   7.638
13218TIP3   OH239530   4.277   2.484   7.725
13218TIP3    H139531   4.205   2.428   7.761
13218TIP3    H239532   4.354   2.424   7.734
13219TIP3   OH239533   3.747   1.712   6.283
13219TIP3    H139534   3.821   1.681   6.339
13219TIP3    H239535   3.673   1.654   6.308
13220TIP3   OH239536   3.804   1.970   6.739
13220TIP3    H139537   3.845   1.882   6.753
13220TIP3    H239538   3.862   2.004   6.667
13221TIP3   OH239539   3.966   2.146   7.232
13221TIP3    H139540   4.052   2.172   7.191
13221TIP3    H239541   3.982   2.182   7.322
13222TIP3   OH239542   4.036   2.289   7.466
13222TIP3    H139543   3.956   2.324   7.511
13222TIP3    H239544   4.067   2.368   7.417
13223TIP3   OH239545   2.659   2.017   8.275
13223TIP3    H139546   2.740   1.984   8.236
13223TIP3    H239547   2.623   1.935   8.314
13224TIP3   OH239548   4.482   1.875   8.021
13224TIP3    H139549   4.544   1.812   7.979
13224TIP3    H239550   4.458   1.933   7.945
13225TIP3   OH239551   3.913   1.720   6.775
13225TIP3    H139552   3.962   1.704   6.859
13225TIP3    H239553   3.852   1.643   6.774
13226TIP3   OH239554   2.613   1.707   7.600
13226TIP3    H139555   2.675   1.632   7.605
13226TIP3    H239556   2.675   1.781   7.589
13227TIP3   OH239557   2.417   1.981   7.670
13227TIP3    H139558   2.465   1.971   7.585
13227TIP3    H239559   2.441   2.071   7.694
13228TIP3   OH239560   4.357   2.020   7.827
13228TIP3    H139561   4.269   2.059   7.843
13228TIP3    H239562   4.333   1.947   7.767
13229TIP3   OH239563   3.995   1.655   6.409
13229TIP3    H139564   4.035   1.584   6.355
13229TIP3    H239565   4.061   1.727   6.401
13230TIP3   OH239566   2.398   1.490   7.173
13230TIP3    H139567   2.303   1.483   7.192
13230TIP3    H239568   2.398   1.545   7.091
13231TIP3   OH239569   3.559   3.185   6.676
13231TIP3    H139570   3.607   3.170   6.592
13231TIP3    H239571   3.612   3.254   6.717
13232TIP3   OH239572   2.621   1.571   7.986
13232TIP3    H139573   2.568   1.561   8.066
13232TIP3    H239574   2.553   1.604   7.923
13233TIP3   OH239575   2.661   2.984   8.060
13233TIP3    H139576   2.567   2.961   8.043
13233TIP3    H239577   2.666   2.979   8.156
13234TIP3   OH239578   2.837   3.022   7.608
13234TIP3    H139579   2.788   3.097   7.568
13234TIP3    H239580   2.923   3.037   7.562
13235TIP3   OH239581   3.282   3.263   7.745
13235TIP3    H139582   3.322   3.268   7.834
13235TIP3    H239583   3.344   3.319   7.693
13236TIP3   OH239584   3.456   3.421   7.609
13236TIP3    H139585   3.524   3.381   7.554
13236TIP3    H239586   3.509   3.480   7.667
13237TIP3   OH239587   4.255   1.782   7.705
13237TIP3    H139588   4.165   1.776   7.669
13237TIP3    H239589   4.286   1.689   7.693
13238TIP3   OH239590   2.514   3.278   7.634
13238TIP3    H139591   2.425   3.311   7.606
13238TIP3    H239592   2.523   3.323   7.719
13239TIP3   OH239593   2.750   3.257   7.488
13239TIP3    H139594   2.663   3.271   7.533
13239TIP3    H239595   2.731   3.291   7.399
13240TIP3   OH239596   3.179   3.286   7.287
13240TIP3    H139597   3.110   3.305   7.220
13240TIP3    H239598   3.190   3.375   7.327
13241TIP3   OH239599   3.446   3.233   7.346
13241TIP3    H139600   3.352   3.248   7.324
13241TIP3    H239601   3.488   3.303   7.292
13242TIP3   OH239602   3.655   3.415   7.259
13242TIP3    H139603   3.639   3.501   7.213
13242TIP3    H239604   3.681   3.358   7.184
13243TIP3   OH239605   2.424   3.074   7.375
13243TIP3    H139606   2.451   3.049   7.467
13243TIP3    H239607   2.496   3.031   7.325
13244TIP3   OH239608   2.617   2.945   7.233
13244TIP3    H139609   2.635   2.862   7.281
13244TIP3    H239610   2.707   2.984   7.226
13245TIP3   OH239611   2.882   3.041   7.235
13245TIP3    H139612   2.916   2.952   7.219
13245TIP3    H239613   2.926   3.062   7.319
13246TIP3   OH239614   3.461   1.698   7.325
13246TIP3    H139615   3.417   1.627   7.375
13246TIP3    H239616   3.531   1.650   7.277
13247TIP3   OH239617   3.984   1.578   7.231
13247TIP3    H139618   4.022   1.628   7.155
13247TIP3    H239619   3.889   1.595   7.221
13248TIP3   OH239620   4.079   1.676   6.993
13248TIP3    H139621   4.151   1.625   6.952
13248TIP3    H239622   4.112   1.768   6.978
13249TIP3   OH239623   2.709   1.406   7.342
13249TIP3    H139624   2.617   1.374   7.340
13249TIP3    H239625   2.757   1.320   7.337
13250TIP3   OH239626   2.501   1.274   6.988
13250TIP3    H139627   2.528   1.330   6.913
13250TIP3    H239628   2.468   1.341   7.052
13251TIP3   OH239629   3.153   1.437   7.220
13251TIP3    H139630   3.210   1.487   7.159
13251TIP3    H239631   3.176   1.477   7.305
13252TIP3   OH239632   3.701   1.585   7.204
13252TIP3    H139633   3.697   1.549   7.114
13252TIP3    H239634   3.686   1.503   7.258
13253TIP3   OH239635   3.730   1.506   6.766
13253TIP3    H139636   3.643   1.549   6.775
13253TIP3    H239637   3.714   1.421   6.812
13254TIP3   OH239638   2.212   2.846   6.770
13254TIP3    H139639   2.128   2.813   6.734
13254TIP3    H239640   2.202   2.940   6.748
13255TIP3   OH239641   2.612   1.432   6.753
13255TIP3    H139642   2.660   1.371   6.694
13255TIP3    H239643   2.685   1.487   6.788
13256TIP3   OH239644   3.124   1.609   6.850
13256TIP3    H139645   3.185   1.562   6.909
13256TIP3    H239646   3.147   1.702   6.874
13257TIP3   OH239647   2.985   3.036   6.350
13257TIP3    H139648   3.073   3.059   6.313
13257TIP3    H239649   2.963   2.961   6.290
13258TIP3   OH239650   3.701   3.152   6.442
13258TIP3    H139651   3.693   3.055   6.428
13258TIP3    H239652   3.658   3.185   6.361
13259TIP3   OH239653   2.904   1.690   8.242
13259TIP3    H139654   2.877   1.615   8.297
13259TIP3    H239655   3.000   1.682   8.245
13260TIP3   OH239656   3.182   1.707   8.364
13260TIP3    H139657   3.250   1.658   8.313
13260TIP3    H239658   3.152   1.634   8.424
13261TIP3   OH239659   2.288   2.869   6.406
13261TIP3    H139660   2.290   2.902   6.497
13261TIP3    H239661   2.378   2.829   6.395
13262TIP3   OH239662   3.991   1.745   8.137
13262TIP3    H139663   4.012   1.713   8.227
13262TIP3    H239664   4.079   1.741   8.094
13263TIP3   OH239665   3.907   3.281   7.625
13263TIP3    H139666   3.831   3.310   7.571
13263TIP3    H239667   3.946   3.370   7.636
13264TIP3   OH239668   5.196   2.667   6.398
13264TIP3    H139669   5.169   2.760   6.379
13264TIP3    H239670   5.119   2.620   6.362
13265TIP3   OH239671   5.196   2.669   6.775
13265TIP3    H139672   5.226   2.640   6.863
13265TIP3    H239673   5.154   2.589   6.740
13266TIP3   OH239674   4.494   2.568   7.147
13266TIP3    H139675   4.529   2.500   7.208
13266TIP3    H239676   4.574   2.619   7.129
13267TIP3   OH239677   5.439   2.970   6.458
13267TIP3    H139678   5.424   2.903   6.526
13267TIP3    H239679   5.466   3.047   6.511
13268TIP3   OH239680   4.466   2.972   6.877
13268TIP3    H139681   4.460   2.875   6.875
13268TIP3    H239682   4.562   2.984   6.860
13269TIP3   OH239683   4.172   2.176   6.653
13269TIP3    H139684   4.126   2.260   6.667
13269TIP3    H239685   4.101   2.124   6.612
13270TIP3   OH239686   4.231   2.464   6.823
13270TIP3    H139687   4.282   2.388   6.859
13270TIP3    H239688   4.292   2.499   6.757
13271TIP3   OH239689   5.086   3.434   6.473
13271TIP3    H139690   5.134   3.362   6.427
13271TIP3    H239691   5.076   3.400   6.562
13272TIP3   OH239692   4.994   2.893   6.826
13272TIP3    H139693   5.034   2.819   6.777
13272TIP3    H239694   5.077   2.940   6.850
13273TIP3   OH239695   6.006   2.216   6.822
13273TIP3    H139696   6.035   2.298   6.867
13273TIP3    H239697   6.027   2.236   6.730
13274TIP3   OH239698   5.404   2.396   6.859
13274TIP3    H139699   5.448   2.312   6.878
13274TIP3    H239700   5.376   2.382   6.767
13275TIP3   OH239701   4.743   2.055   6.824
13275TIP3    H139702   4.724   2.129   6.761
13275TIP3    H239703   4.695   1.983   6.778
13276TIP3   OH239704   5.438   2.147   6.446
13276TIP3    H139705   5.511   2.131   6.510
13276TIP3    H239706   5.489   2.183   6.371
13277TIP3   OH239707   4.377   2.257   6.930
13277TIP3    H139708   4.461   2.239   6.977
13277TIP3    H239709   4.390   2.203   6.850
13278TIP3   OH239710   4.818   2.455   6.724
13278TIP3    H139711   4.913   2.430   6.736
13278TIP3    H239712   4.780   2.371   6.690
13279TIP3   OH239713   6.079   2.422   6.993
13279TIP3    H139714   5.996   2.471   6.974
13279TIP3    H239715   6.095   2.448   7.085
13280TIP3   OH239716   4.740   2.039   7.257
13280TIP3    H139717   4.681   2.077   7.189
13280TIP3    H239718   4.689   2.059   7.338
13281TIP3   OH239719   5.086   2.888   6.270
13281TIP3    H139720   5.045   2.871   6.184
13281TIP3    H239721   5.047   2.975   6.292
13282TIP3   OH239722   4.846   2.814   7.053
13282TIP3    H139723   4.785   2.881   7.090
13282TIP3    H239724   4.889   2.864   6.981
13283TIP3   OH239725   5.650   2.148   6.617
13283TIP3    H139726   5.638   2.103   6.702
13283TIP3    H239727   5.703   2.225   6.642
13284TIP3   OH239728   4.611   2.154   7.042
13284TIP3    H139729   4.673   2.227   7.065
13284TIP3    H239730   4.660   2.114   6.966
13285TIP3   OH239731   4.675   3.010   7.149
13285TIP3    H139732   4.650   3.094   7.106
13285TIP3    H239733   4.596   2.997   7.206
13286TIP3   OH239734   4.070   2.697   6.386
13286TIP3    H139735   4.029   2.726   6.302
13286TIP3    H239736   4.099   2.783   6.424
13287TIP3   OH239737   5.510   3.213   6.626
13287TIP3    H139738   5.421   3.205   6.666
13287TIP3    H239739   5.502   3.300   6.581
13288TIP3   OH239740   5.800   2.114   6.988
13288TIP3    H139741   5.713   2.146   6.958
13288TIP3    H239742   5.859   2.147   6.917
13289TIP3   OH239743   5.097   1.759   6.969
13289TIP3    H139744   5.085   1.664   6.987
13289TIP3    H239745   5.020   1.797   7.017
13290TIP3   OH239746   5.213   3.260   6.302
13290TIP3    H139747   5.262   3.178   6.279
13290TIP3    H239748   5.273   3.326   6.260
13291TIP3   OH239749   5.352   3.045   6.207
13291TIP3    H139750   5.326   2.965   6.160
13291TIP3    H239751   5.388   3.009   6.291
13292TIP3   OH239752   5.737   3.127   6.970
13292TIP3    H139753   5.725   3.050   6.910
13292TIP3    H239754   5.717   3.202   6.910
13293TIP3   OH239755   5.027   2.520   6.225
13293TIP3    H139756   4.948   2.573   6.203
13293TIP3    H239757   5.074   2.517   6.140
13294TIP3   OH239758   4.984   2.293   5.956
13294TIP3    H139759   5.050   2.354   5.993
13294TIP3    H239760   5.043   2.237   5.901
13295TIP3   OH239761   5.931   2.764   6.814
13295TIP3    H139762   5.848   2.816   6.819
13295TIP3    H239763   5.960   2.788   6.724
13296TIP3   OH239764   5.372   2.603   6.198
13296TIP3    H139765   5.319   2.628   6.277
13296TIP3    H239766   5.458   2.579   6.240
13297TIP3   OH239767   5.610   2.643   7.110
13297TIP3    H139768   5.607   2.727   7.160
13297TIP3    H239769   5.523   2.648   7.064
13298TIP3   OH239770   4.606   2.601   6.616
13298TIP3    H139771   4.565   2.544   6.547
13298TIP3    H239772   4.684   2.548   6.644
13299TIP3   OH239773   4.731   3.005   6.768
13299TIP3    H139774   4.715   2.973   6.678
13299TIP3    H239775   4.823   2.978   6.784
13300TIP3   OH239776   4.740   2.573   6.970
13300TIP3    H139777   4.774   2.552   6.881
13300TIP3    H239778   4.784   2.659   6.990
13301TIP3   OH239779   5.270   3.209   6.746
13301TIP3    H139780   5.253   3.291   6.797
13301TIP3    H239781   5.253   3.139   6.811
13302TIP3   OH239782   4.881   3.127   7.296
13302TIP3    H139783   4.822   3.192   7.339
13302TIP3    H239784   4.816   3.076   7.243
13303TIP3   OH239785   5.215   2.461   6.021
13303TIP3    H139786   5.274   2.520   6.073
13303TIP3    H239787   5.242   2.487   5.929
13304TIP3   OH239788   4.637   2.684   7.399
13304TIP3    H139789   4.641   2.773   7.441
13304TIP3    H239790   4.540   2.670   7.398
13305TIP3   OH239791   4.958   3.141   6.296
13305TIP3    H139792   5.036   3.195   6.319
13305TIP3    H239793   4.895   3.206   6.264
13306TIP3   OH239794   4.677   3.297   7.377
13306TIP3    H139795   4.642   3.301   7.286
13306TIP3    H239796   4.597   3.274   7.430
13307TIP3   OH239797   5.730   1.702   6.072
13307TIP3    H139798   5.650   1.723   6.123
13307TIP3    H239799   5.744   1.786   6.023
13308TIP3   OH239800   4.474   2.443   6.418
13308TIP3    H139801   4.408   2.491   6.363
13308TIP3    H239802   4.429   2.359   6.431
13309TIP3   OH239803   5.495   3.080   5.629
13309TIP3    H139804   5.540   3.162   5.601
13309TIP3    H239805   5.554   3.008   5.598
13310TIP3   OH239806   4.251   2.829   7.328
13310TIP3    H139807   4.191   2.808   7.253
13310TIP3    H239808   4.289   2.741   7.349
13311TIP3   OH239809   4.111   3.018   6.972
13311TIP3    H139810   4.203   3.012   6.943
13311TIP3    H239811   4.108   3.108   7.008
13312TIP3   OH239812   5.976   3.473   7.017
13312TIP3    H139813   5.972   3.376   7.029
13312TIP3    H239814   5.892   3.499   7.060
13313TIP3   OH239815   5.082   3.257   7.152
13313TIP3    H139816   5.080   3.350   7.182
13313TIP3    H239817   5.008   3.219   7.205
13314TIP3   OH239818   4.839   3.388   6.101
13314TIP3    H139819   4.792   3.372   6.018
13314TIP3    H239820   4.807   3.476   6.127
13315TIP3   OH239821   4.273   3.241   6.482
13315TIP3    H139822   4.330   3.228   6.561
13315TIP3    H239823   4.207   3.172   6.497
13316TIP3   OH239824   5.042   3.283   5.740
13316TIP3    H139825   5.102   3.213   5.706
13316TIP3    H239826   5.077   3.295   5.831
13317TIP3   OH239827   5.090   3.335   6.011
13317TIP3    H139828   5.002   3.346   6.054
13317TIP3    H239829   5.142   3.297   6.083
13318TIP3   OH239830   5.864   2.604   7.289
13318TIP3    H139831   5.783   2.617   7.238
13318TIP3    H239832   5.879   2.508   7.280
13319TIP3   OH239833   4.461   3.007   7.317
13319TIP3    H139834   4.511   2.991   7.400
13319TIP3    H239835   4.386   2.945   7.324
13320TIP3   OH239836   4.858   1.833   7.099
13320TIP3    H139837   4.768   1.804   7.074
13320TIP3    H239838   4.835   1.917   7.143
13321TIP3   OH239839   5.393   1.949   7.293
13321TIP3    H139840   5.462   1.923   7.358
13321TIP3    H239841   5.309   1.929   7.341
13322TIP3   OH239842   5.630   2.378   7.210
13322TIP3    H139843   5.582   2.375   7.296
13322TIP3    H239844   5.607   2.467   7.177
13323TIP3   OH239845   5.305   2.519   5.766
13323TIP3    H139846   5.274   2.483   5.680
13323TIP3    H239847   5.376   2.579   5.739
13324TIP3   OH239848   5.005   1.882   6.071
13324TIP3    H139849   4.972   1.881   6.163
13324TIP3    H239850   4.965   1.800   6.038
13325TIP3   OH239851   4.788   2.350   7.117
13325TIP3    H139852   4.741   2.374   7.199
13325TIP3    H239853   4.774   2.431   7.063
13326TIP3   OH239854   4.675   2.235   6.632
13326TIP3    H139855   4.581   2.211   6.649
13326TIP3    H239856   4.688   2.195   6.543
13327TIP3   OH239857   5.164   2.320   6.358
13327TIP3    H139858   5.111   2.393   6.318
13327TIP3    H239859   5.219   2.292   6.283
13328TIP3   OH239860   5.339   2.601   7.446
13328TIP3    H139861   5.318   2.528   7.508
13328TIP3    H239862   5.433   2.616   7.467
13329TIP3   OH239863   5.321   2.351   6.600
13329TIP3    H139864   5.263   2.383   6.528
13329TIP3    H239865   5.354   2.269   6.556
13330TIP3   OH239866   4.608   2.380   7.328
13330TIP3    H139867   4.644   2.443   7.392
13330TIP3    H239868   4.600   2.298   7.381
13331TIP3   OH239869   4.658   1.855   6.037
13331TIP3    H139870   4.651   1.854   6.135
13331TIP3    H239871   4.580   1.908   6.013
13332TIP3   OH239872   4.202   1.900   6.910
13332TIP3    H139873   4.278   1.933   6.962
13332TIP3    H239874   4.242   1.872   6.826
13333TIP3   OH239875   4.176   1.883   6.427
13333TIP3    H139876   4.221   1.921   6.349
13333TIP3    H239877   4.115   1.956   6.448
13334TIP3   OH239878   5.331   2.597   7.023
13334TIP3    H139879   5.364   2.525   6.964
13334TIP3    H239880   5.303   2.544   7.101
13335TIP3   OH239881   5.000   2.056   6.694
13335TIP3    H139882   4.918   2.056   6.747
13335TIP3    H239883   5.069   2.059   6.762
13336TIP3   OH239884   4.435   2.113   6.703
13336TIP3    H139885   4.340   2.121   6.675
13336TIP3    H239886   4.459   2.023   6.677
13337TIP3   OH239887   4.706   2.109   6.390
13337TIP3    H139888   4.800   2.126   6.370
13337TIP3    H239889   4.660   2.134   6.306
13338TIP3   OH239890   5.493   2.134   6.894
13338TIP3    H139891   5.460   2.146   6.986
13338TIP3    H239892   5.426   2.073   6.858
13339TIP3   OH239893   4.548   2.144   6.168
13339TIP3    H139894   4.475   2.100   6.120
13339TIP3    H239895   4.598   2.181   6.092
13340TIP3   OH239896   5.663   3.821   7.114
13340TIP3    H139897   5.659   3.848   7.020
13340TIP3    H239898   5.734   3.878   7.148
13341TIP3   OH239899   4.620   2.929   7.539
13341TIP3    H139900   4.702   2.962   7.581
13341TIP3    H239901   4.557   2.938   7.613
13342TIP3   OH239902   5.084   2.383   6.789
13342TIP3    H139903   5.159   2.349   6.738
13342TIP3    H239904   5.098   2.344   6.877
13343TIP3   OH239905   4.608   1.875   6.668
13343TIP3    H139906   4.576   1.794   6.713
13343TIP3    H239907   4.660   1.839   6.595
13344TIP3   OH239908   5.061   2.280   7.085
13344TIP3    H139909   4.973   2.320   7.095
13344TIP3    H239910   5.120   2.342   7.133
13345TIP3   OH239911   4.800   2.675   6.173
13345TIP3    H139912   4.727   2.611   6.164
13345TIP3    H239913   4.783   2.710   6.264
13346TIP3   OH239914   5.699   2.909   6.806
13346TIP3    H139915   5.723   2.960   6.725
13346TIP3    H239916   5.613   2.869   6.781
13347TIP3   OH239917   5.257   1.986   6.038
13347TIP3    H139918   5.160   1.972   6.044
13347TIP3    H239919   5.267   2.081   6.060
13348TIP3   OH239920   5.194   2.990   7.174
13348TIP3    H139921   5.222   2.974   7.265
13348TIP3    H239922   5.160   3.081   7.177
13349TIP3   OH239923   5.326   2.234   6.140
13349TIP3    H139924   5.422   2.241   6.155
13349TIP3    H239925   5.306   2.313   6.086
13350TIP3   OH239926   4.486   2.690   6.852
13350TIP3    H139927   4.525   2.668   6.765
13350TIP3    H239928   4.537   2.631   6.910
13351TIP3   OH239929   4.941   2.825   5.983
13351TIP3    H139930   4.894   2.911   5.996
13351TIP3    H239931   4.893   2.769   6.047
13352TIP3   OH239932   4.366   2.621   7.469
13352TIP3    H139933   4.396   2.604   7.560
13352TIP3    H239934   4.304   2.548   7.453
13353TIP3   OH239935   5.096   2.728   7.486
13353TIP3    H139936   5.040   2.673   7.430
13353TIP3    H239937   5.185   2.697   7.458
13354TIP3   OH239938   5.358   3.245   7.071
13354TIP3    H139939   5.262   3.250   7.081
13354TIP3    H239940   5.386   3.301   7.147
13355TIP3   OH239941   5.768   2.323   5.977
13355TIP3    H139942   5.706   2.278   5.915
13355TIP3    H239943   5.761   2.413   5.937
13356TIP3   OH239944   5.987   3.180   7.059
13356TIP3    H139945   5.889   3.176   7.051
13356TIP3    H239946   6.012   3.150   6.968
13357TIP3   OH239947   5.465   3.142   5.891
13357TIP3    H139948   5.449   3.064   5.946
13357TIP3    H239949   5.474   3.105   5.801
13358TIP3   OH239950   5.464   2.771   6.726
13358TIP3    H139951   5.370   2.747   6.738
13358TIP3    H239952   5.497   2.693   6.679
13359TIP3   OH239953   4.590   2.995   6.471
13359TIP3    H139954   4.594   3.081   6.424
13359TIP3    H239955   4.498   2.993   6.497
13360TIP3   OH239956   4.155   2.304   6.180
13360TIP3    H139957   4.200   2.388   6.199
13360TIP3    H239958   4.077   2.310   6.240
13361TIP3   OH239959   4.730   2.764   6.420
13361TIP3    H139960   4.694   2.854   6.435
13361TIP3    H239961   4.693   2.716   6.496
13362TIP3   OH239962   4.859   3.342   6.956
13362TIP3    H139963   4.891   3.412   6.897
13362TIP3    H239964   4.941   3.312   6.998
13363TIP3   OH239965   4.510   3.238   6.327
13363TIP3    H139966   4.424   3.246   6.374
13363TIP3    H239967   4.542   3.330   6.331
13364TIP3   OH239968   5.248   2.976   6.905
13364TIP3    H139969   5.239   2.975   7.003
13364TIP3    H239970   5.330   2.927   6.892
13365TIP3   OH239971   5.183   2.829   5.789
13365TIP3    H139972   5.270   2.826   5.838
13365TIP3    H239973   5.124   2.842   5.867
13366TIP3   OH239974   5.498   3.510   6.953
13366TIP3    H139975   5.417   3.457   6.944
13366TIP3    H239976   5.484   3.577   6.883
13367TIP3   OH239977   5.569   3.351   5.604
13367TIP3    H139978   5.606   3.428   5.557
13367TIP3    H239979   5.486   3.391   5.637
13368TIP3   OH239980   4.583   2.122   7.474
13368TIP3    H139981   4.487   2.125   7.487
13368TIP3    H239982   4.612   2.062   7.545
13369TIP3   OH239983   5.378   2.807   5.998
13369TIP3    H139984   5.371   2.740   6.069
13369TIP3    H239985   5.475   2.805   5.983
13370TIP3   OH239986   4.288   3.214   7.139
13370TIP3    H139987   4.343   3.134   7.138
13370TIP3    H239988   4.351   3.279   7.174
13371TIP3   OH239989   4.594   2.862   5.786
13371TIP3    H139990   4.585   2.779   5.737
13371TIP3    H239991   4.573   2.837   5.879
13372TIP3   OH239992   4.537   2.853   6.058
13372TIP3    H139993   4.605   2.830   6.123
13372TIP3    H239994   4.537   2.951   6.063
13373TIP3   OH239995   4.270   2.550   6.262
13373TIP3    H139996   4.204   2.595   6.320
13373TIP3    H239997   4.284   2.619   6.195
13374TIP3   OH239998   5.418   2.185   7.153
13374TIP3    H139999   5.498   2.225   7.192
13374TIP3    H240000   5.405   2.105   7.208
13375TIP3   OH240001   5.300   1.937   6.318
13375TIP3    H140002   5.285   1.961   6.224
13375TIP3    H240003   5.338   2.020   6.354
13376TIP3   OH240004   4.799   3.054   6.004
13376TIP3    H140005   4.713   3.079   6.043
13376TIP3    H240006   4.818   3.134   5.952
13377TIP3   OH240007   4.988   2.116   6.420
13377TIP3    H140008   5.053   2.188   6.401
13377TIP3    H240009   4.994   2.110   6.518
13378TIP3   OH240010   5.257   2.435   7.230
13378TIP3    H140011   5.278   2.490   7.309
13378TIP3    H240012   5.314   2.357   7.244
13379TIP3   OH240013   5.134   1.844   6.523
13379TIP3    H140014   5.126   1.921   6.584
13379TIP3    H240015   5.194   1.881   6.455
13380TIP3   OH240016   4.542   3.127   6.075
13380TIP3    H140017   4.512   3.197   6.012
13380TIP3    H240018   4.526   3.170   6.161
13381TIP3   OH240019   4.644   1.842   6.314
13381TIP3    H140020   4.642   1.933   6.349
13381TIP3    H240021   4.740   1.824   6.322
13382TIP3   OH240022   5.897   2.337   7.209
13382TIP3    H140023   5.799   2.334   7.216
13382TIP3    H240024   5.910   2.297   7.122
13383TIP3   OH240025   5.549   2.530   6.598
13383TIP3    H140026   5.473   2.470   6.610
13383TIP3    H240027   5.621   2.483   6.646
13384TIP3   OH240028   4.261   2.758   6.069
13384TIP3    H140029   4.321   2.834   6.079
13384TIP3    H240030   4.309   2.708   5.999
13385TIP3   OH240031   4.206   2.034   6.201
13385TIP3    H140032   4.206   2.132   6.198
13385TIP3    H240033   4.123   2.014   6.157
13386TIP3   OH240034   5.518   3.484   6.547
13386TIP3    H140035   5.475   3.531   6.472
13386TIP3    H240036   5.612   3.503   6.526
13387TIP3   OH240037   4.592   1.755   7.076
13387TIP3    H140038   4.562   1.722   6.988
13387TIP3    H240039   4.582   1.676   7.132
13388TIP3   OH240040   4.128   2.962   6.458
13388TIP3    H140041   4.057   3.003   6.509
13388TIP3    H240042   4.117   3.007   6.372
13389TIP3   OH240043   4.287   3.510   7.537
13389TIP3    H140044   4.375   3.518   7.580
13389TIP3    H240045   4.282   3.414   7.522
13390TIP3   OH240046   4.768   3.478   7.575
13390TIP3    H140047   4.864   3.467   7.580
13390TIP3    H240048   4.748   3.421   7.498
13391TIP3   OH240049   4.760   3.055   5.698
13391TIP3    H140050   4.693   2.994   5.737
13391TIP3    H240051   4.835   2.994   5.691
13392TIP3   OH240052   5.411   3.384   7.303
13392TIP3    H140053   5.402   3.316   7.373
13392TIP3    H240054   5.487   3.437   7.335
13393TIP3   OH240055   5.199   3.089   5.612
13393TIP3    H140056   5.271   3.049   5.664
13393TIP3    H240057   5.245   3.101   5.527
13394TIP3   OH240058   4.416   2.918   7.729
13394TIP3    H140059   4.438   2.823   7.728
13394TIP3    H240060   4.332   2.919   7.680
13395TIP3   OH240061   4.398   2.571   5.912
13395TIP3    H140062   4.455   2.542   5.986
13395TIP3    H240063   4.460   2.569   5.838
13396TIP3   OH240064   5.026   3.004   7.502
13396TIP3    H140065   4.987   3.024   7.414
13396TIP3    H240066   5.058   2.912   7.491
13397TIP3   OH240067   4.917   2.770   5.710
13397TIP3    H140068   4.908   2.790   5.806
13397TIP3    H240069   4.897   2.673   5.712
13398TIP3   OH240070   5.520   3.013   7.106
13398TIP3    H140071   5.595   3.058   7.062
13398TIP3    H240072   5.450   3.080   7.094
13399TIP3   OH240073   4.535   2.648   7.710
13399TIP3    H140074   4.616   2.604   7.682
13399TIP3    H240075   4.562   2.685   7.797
13400TIP3   OH240076   4.605   2.475   6.139
13400TIP3    H140077   4.579   2.436   6.223
13400TIP3    H240078   4.642   2.399   6.090
13401TIP3   OH240079   4.871   2.535   7.367
13401TIP3    H140080   4.797   2.599   7.373
13401TIP3    H240081   4.922   2.571   7.291
13402TIP3   OH240082   4.707   2.267   5.979
13402TIP3    H140083   4.692   2.248   5.885
13402TIP3    H240084   4.805   2.272   5.981
13403TIP3   OH240085   5.389   2.940   7.505
13403TIP3    H140086   5.470   2.920   7.457
13403TIP3    H240087   5.390   2.873   7.576
13404TIP3   OH240088   4.994   2.327   7.499
13404TIP3    H140089   4.998   2.247   7.442
13404TIP3    H240090   4.953   2.393   7.439
13405TIP3   OH240091   4.999   2.113   7.305
13405TIP3    H140092   5.028   2.156   7.222
13405TIP3    H240093   4.905   2.091   7.285
13406TIP3   OH240094   5.027   2.649   7.177
13406TIP3    H140095   5.111   2.659   7.130
13406TIP3    H240096   4.971   2.717   7.134
13407TIP3   OH240097   5.609   2.617   7.559
13407TIP3    H140098   5.659   2.534   7.570
13407TIP3    H240099   5.678   2.676   7.525
13408TIP3   OH240100   5.650   2.869   7.294
13408TIP3    H140101   5.592   2.923   7.235
13408TIP3    H240102   5.737   2.890   7.254
13409TIP3   OH240103   4.871   2.442   7.727
13409TIP3    H140104   4.804   2.372   7.739
13409TIP3    H240105   4.909   2.417   7.640
13410TIP3   OH240106   5.132   1.877   7.370
13410TIP3    H140107   5.083   1.960   7.348
13410TIP3    H240108   5.062   1.810   7.358
13411TIP3   OH240109   5.258   2.383   7.587
13411TIP3    H140110   5.251   2.371   7.683
13411TIP3    H240111   5.167   2.358   7.560
13412TIP3   OH240112   5.497   2.330   7.441
13412TIP3    H140113   5.422   2.333   7.504
13412TIP3    H240114   5.571   2.301   7.498
13413TIP3   OH240115   5.722   2.270   7.593
13413TIP3    H140116   5.738   2.175   7.612
13413TIP3    H240117   5.721   2.310   7.682
13414TIP3   OH240118   4.711   2.221   7.780
13414TIP3    H140119   4.722   2.131   7.743
13414TIP3    H240120   4.750   2.209   7.870
13415TIP3   OH240121   5.224   1.887   7.628
13415TIP3    H140122   5.294   1.818   7.624
13415TIP3    H240123   5.187   1.880   7.538
13416TIP3   OH240124   5.292   2.102   7.786
13416TIP3    H140125   5.270   2.031   7.722
13416TIP3    H240126   5.214   2.162   7.779
13417TIP3   OH240127   4.512   3.329   5.885
13417TIP3    H140128   4.608   3.328   5.868
13417TIP3    H240129   4.482   3.379   5.808
13418TIP3   OH240130   3.992   2.712   6.105
13418TIP3    H140131   4.087   2.734   6.091
13418TIP3    H240132   3.987   2.624   6.063
13419TIP3   OH240133   3.903   3.326   6.517
13419TIP3    H140134   3.838   3.263   6.481
13419TIP3    H240135   3.950   3.270   6.582
13420TIP3   OH240136   4.041   3.173   6.696
13420TIP3    H140137   4.031   3.099   6.757
13420TIP3    H240138   4.103   3.230   6.748
13421TIP3   OH240139   5.771   3.574   6.503
13421TIP3    H140140   5.794   3.610   6.591
13421TIP3    H240141   5.828   3.626   6.444
13422TIP3   OH240142   5.799   3.597   6.784
13422TIP3    H140143   5.757   3.508   6.780
13422TIP3    H240144   5.873   3.578   6.842
13423TIP3   OH240145   5.847   3.273   7.359
13423TIP3    H140146   5.772   3.282   7.422
13423TIP3    H240147   5.886   3.363   7.362
13424TIP3   OH240148   5.657   2.789   5.992
13424TIP3    H140149   5.725   2.847   5.953
13424TIP3    H240150   5.707   2.749   6.066
13425TIP3   OH240151   5.794   2.650   6.184
13425TIP3    H140152   5.725   2.611   6.242
13425TIP3    H240153   5.855   2.692   6.248
13426TIP3   OH240154   5.844   3.046   6.616
13426TIP3    H140155   5.896   2.982   6.563
13426TIP3    H240156   5.835   3.121   6.555
13427TIP3   OH240157   5.676   3.345   6.812
13427TIP3    H140158   5.605   3.390   6.861
13427TIP3    H240159   5.625   3.299   6.741
13428TIP3   OH240160   5.721   2.559   5.837
13428TIP3    H140161   5.678   2.596   5.757
13428TIP3    H240162   5.697   2.632   5.897
13429TIP3   OH240163   5.601   2.230   5.785
13429TIP3    H140164   5.561   2.279   5.713
13429TIP3    H240165   5.571   2.139   5.767
13430TIP3   OH240166   5.603   2.511   6.330
13430TIP3    H140167   5.612   2.415   6.324
13430TIP3    H240168   5.590   2.526   6.426
13431TIP3   OH240169   4.230   2.580   7.078
13431TIP3    H140170   4.229   2.554   6.984
13431TIP3    H240171   4.327   2.586   7.094
13432TIP3   OH240172   5.893   2.935   7.186
13432TIP3    H140173   5.966   2.870   7.177
13432TIP3    H240174   5.918   3.004   7.123
13433TIP3   OH240175   6.080   2.742   7.204
13433TIP3    H140176   6.005   2.692   7.242
13433TIP3    H240177   6.153   2.677   7.217
13434TIP3   OH240178   5.544   1.963   5.764
13434TIP3    H140179   5.617   1.939   5.825
13434TIP3    H240180   5.469   1.910   5.795
13435TIP3   OH240181   5.600   2.227   6.225
13435TIP3    H140182   5.642   2.138   6.239
13435TIP3    H240183   5.657   2.261   6.155
13436TIP3   OH240184   5.762   2.401   6.719
13436TIP3    H140185   5.848   2.427   6.679
13436TIP3    H240186   5.775   2.438   6.808
13437TIP3   OH240187   5.830   2.545   6.951
13437TIP3    H140188   5.752   2.579   6.999
13437TIP3    H240189   5.862   2.625   6.906
13438TIP3   OH240190   4.444   2.272   7.749
13438TIP3    H140191   4.542   2.267   7.750
13438TIP3    H240192   4.423   2.187   7.792
13439TIP3   OH240193   6.274   2.131   7.505
13439TIP3    H140194   6.339   2.069   7.467
13439TIP3    H240195   6.254   2.190   7.430
13440TIP3   OH240196   5.710   1.976   6.261
13440TIP3    H140197   5.758   1.961   6.345
13440TIP3    H240198   5.649   1.900   6.261
13441TIP3   OH240199   4.408   1.964   7.085
13441TIP3    H140200   4.471   1.889   7.092
13441TIP3    H240201   4.470   2.038   7.076
13442TIP3   OH240202   4.212   2.238   7.155
13442TIP3    H140203   4.261   2.228   7.071
13442TIP3    H240204   4.241   2.326   7.182
13443TIP3   OH240205   6.155   2.279   7.310
13443TIP3    H140206   6.068   2.316   7.335
13443TIP3    H240207   6.126   2.204   7.254
13444TIP3   OH240208   5.791   1.912   5.895
13444TIP3    H140209   5.832   1.841   5.842
13444TIP3    H240210   5.856   1.984   5.889
13445TIP3   OH240211   4.194   1.741   6.656
13445TIP3    H140212   4.100   1.739   6.680
13445TIP3    H240213   4.194   1.799   6.577
13446TIP3   OH240214   5.353   3.442   6.160
13446TIP3    H140215   5.406   3.429   6.078
13446TIP3    H240216   5.405   3.510   6.206
13447TIP3   OH240217   4.414   1.820   7.471
13447TIP3    H140218   4.363   1.817   7.553
13447TIP3    H240219   4.349   1.858   7.409
13448TIP3   OH240220   4.458   3.243   7.545
13448TIP3    H140221   4.366   3.217   7.529
13448TIP3    H240222   4.465   3.239   7.642
13449TIP3   OH240223   4.623   3.282   7.093
13449TIP3    H140224   4.569   3.345   7.039
13449TIP3    H240225   4.709   3.301   7.051
13450TIP3   OH240226   5.079   3.523   7.231
13450TIP3    H140227   5.120   3.527   7.320
13450TIP3    H240228   5.144   3.575   7.179
13451TIP3   OH240229   5.257   3.675   7.090
13451TIP3    H140230   5.330   3.627   7.049
13451TIP3    H240231   5.307   3.734   7.151
13452TIP3   OH240232   6.053   2.039   7.191
13452TIP3    H140233   5.961   2.033   7.158
13452TIP3    H240234   6.083   1.946   7.179
13453TIP3   OH240235   4.975   3.544   6.771
13453TIP3    H140236   4.901   3.561   6.709
13453TIP3    H240237   4.984   3.631   6.815
13454TIP3   OH240238   5.241   3.482   6.824
13454TIP3    H140239   5.146   3.500   6.805
13454TIP3    H240240   5.283   3.560   6.784
13455TIP3   OH240241   5.449   3.675   6.741
13455TIP3    H140242   5.435   3.761   6.694
13455TIP3    H240243   5.473   3.616   6.667
13456TIP3   OH240244   4.207   3.314   6.868
13456TIP3    H140245   4.249   3.316   6.956
13456TIP3    H240246   4.284   3.345   6.816
13457TIP3   OH240247   4.424   3.189   6.697
13457TIP3    H140248   4.436   3.122   6.767
13457TIP3    H240249   4.495   3.253   6.716
13458TIP3   OH240250   4.702   3.298   6.699
13458TIP3    H140251   4.719   3.204   6.713
13458TIP3    H240252   4.697   3.331   6.791
13459TIP3   OH240253   5.256   1.954   6.808
13459TIP3    H140254   5.213   1.884   6.861
13459TIP3    H240255   5.330   1.906   6.765
13460TIP3   OH240256   5.780   1.830   6.714
13460TIP3    H140257   5.817   1.884   6.641
13460TIP3    H240258   5.686   1.853   6.710
13461TIP3   OH240259   5.875   1.933   6.479
13461TIP3    H140260   5.949   1.883   6.438
13461TIP3    H240261   5.908   2.025   6.465
13462TIP3   OH240262   4.506   1.662   6.827
13462TIP3    H140263   4.413   1.630   6.827
13462TIP3    H240264   4.555   1.577   6.823
13463TIP3   OH240265   4.293   1.531   6.473
13463TIP3    H140266   4.322   1.589   6.401
13463TIP3    H240267   4.263   1.596   6.540
13464TIP3   OH240268   4.949   1.694   6.707
13464TIP3    H140269   5.006   1.745   6.647
13464TIP3    H240270   4.972   1.733   6.793
13465TIP3   OH240271   5.496   1.841   6.692
13465TIP3    H140272   5.493   1.806   6.602
13465TIP3    H240273   5.482   1.759   6.745
13466TIP3   OH240274   5.526   1.763   6.252
13466TIP3    H140275   5.440   1.807   6.264
13466TIP3    H240276   5.510   1.679   6.299
13467TIP3   OH240277   4.010   3.101   6.256
13467TIP3    H140278   3.924   3.071   6.220
13467TIP3    H240279   4.001   3.197   6.241
13468TIP3   OH240280   4.408   1.690   6.239
13468TIP3    H140281   4.458   1.629   6.181
13468TIP3    H240282   4.480   1.745   6.275
13469TIP3   OH240283   4.921   1.865   6.337
13469TIP3    H140284   4.983   1.820   6.397
13469TIP3    H240285   4.942   1.958   6.361
13470TIP3   OH240286   4.782   3.292   5.836
13470TIP3    H140287   4.871   3.314   5.801
13470TIP3    H240288   4.761   3.218   5.776
13471TIP3   OH240289   5.500   3.409   5.928
13471TIP3    H140290   5.490   3.311   5.918
13471TIP3    H240291   5.455   3.440   5.847
13472TIP3   OH240292   4.713   1.941   7.716
13472TIP3    H140293   4.681   1.871   7.775
13472TIP3    H240294   4.808   1.943   7.742
13473TIP3   OH240295   4.961   1.939   7.836
13473TIP3    H140296   5.048   1.919   7.795
13473TIP3    H240297   4.955   1.867   7.901
13474TIP3   OH240298   4.084   3.128   5.893
13474TIP3    H140299   4.084   3.156   5.986
13474TIP3    H240300   4.174   3.088   5.883
13475TIP3   OH240301   5.787   2.000   7.625
13475TIP3    H140302   5.806   1.969   7.716
13475TIP3    H240303   5.876   1.997   7.583
13476TIP3   OH240304   5.728   3.553   7.115
13476TIP3    H140305   5.649   3.522   7.068
13476TIP3    H240306   5.709   3.650   7.118
13477TIP3   OH240307   6.993   2.926   5.882
13477TIP3    H140308   6.965   3.018   5.863
13477TIP3    H240309   6.914   2.878   5.851
13478TIP3   OH240310   6.992   2.925   6.262
13478TIP3    H140311   7.023   2.897   6.350
13478TIP3    H240312   6.949   2.845   6.229
13479TIP3   OH240313   6.292   2.821   6.628
13479TIP3    H140314   6.323   2.754   6.691
13479TIP3    H240315   6.370   2.878   6.622
13480TIP3   OH240316   7.234   3.227   5.944
13480TIP3    H140317   7.221   3.159   6.011
13480TIP3    H240318   7.263   3.303   5.999
13481TIP3   OH240319   6.263   3.231   6.355
13481TIP3    H140320   6.254   3.134   6.358
13481TIP3    H240321   6.360   3.239   6.347
13482TIP3   OH240322   5.969   2.432   6.140
13482TIP3    H140323   5.922   2.516   6.155
13482TIP3    H240324   5.899   2.380   6.098
13483TIP3   OH240325   6.030   2.723   6.312
13483TIP3    H140326   6.079   2.646   6.347
13483TIP3    H240327   6.085   2.749   6.237
13484TIP3   OH240328   6.882   3.690   5.960
13484TIP3    H140329   6.930   3.618   5.913
13484TIP3    H240330   6.876   3.654   6.049
13485TIP3   OH240331   6.790   3.151   6.312
13485TIP3    H140332   6.828   3.075   6.265
13485TIP3    H240333   6.874   3.196   6.336
13486TIP3   OH240334   7.802   2.472   6.309
13486TIP3    H140335   7.831   2.554   6.353
13486TIP3    H240336   7.825   2.492   6.216
13487TIP3   OH240337   7.203   2.654   6.345
13487TIP3    H140338   7.245   2.569   6.365
13487TIP3    H240339   7.172   2.638   6.254
13488TIP3   OH240340   6.540   2.312   6.310
13488TIP3    H140341   6.519   2.385   6.247
13488TIP3    H240342   6.491   2.239   6.266
13489TIP3   OH240343   7.234   2.403   5.932
13489TIP3    H140344   7.306   2.387   5.998
13489TIP3    H240345   7.286   2.439   5.858
13490TIP3   OH240346   6.174   2.515   6.416
13490TIP3    H140347   6.257   2.495   6.464
13490TIP3    H240348   6.186   2.459   6.337
13491TIP3   OH240349   6.615   2.712   6.208
13491TIP3    H140350   6.708   2.686   6.222
13491TIP3    H240351   6.576   2.628   6.177
13492TIP3   OH240352   7.876   2.678   6.479
13492TIP3    H140353   7.793   2.727   6.460
13492TIP3    H240354   7.891   2.706   6.571
13493TIP3   OH240355   6.537   2.295   6.743
13493TIP3    H140356   6.477   2.333   6.677
13493TIP3    H240357   6.486   2.312   6.825
13494TIP3   OH240358   6.887   3.149   5.751
13494TIP3    H140359   6.839   3.126   5.670
13494TIP3    H240360   6.843   3.232   5.776
13495TIP3   OH240361   6.644   3.071   6.540
13495TIP3    H140362   6.580   3.136   6.577
13495TIP3    H240363   6.685   3.122   6.467
13496TIP3   OH240364   7.446   2.405   6.103
13496TIP3    H140365   7.434   2.358   6.187
13496TIP3    H240366   7.499   2.482   6.130
13497TIP3   OH240367   6.407   2.411   6.528
13497TIP3    H140368   6.470   2.483   6.552
13497TIP3    H240369   6.457   2.370   6.453
13498TIP3   OH240370   6.472   3.265   6.638
13498TIP3    H140371   6.446   3.350   6.597
13498TIP3    H240372   6.392   3.249   6.693
13499TIP3   OH240373   5.869   2.947   5.879
13499TIP3    H140374   5.818   2.967   5.799
13499TIP3    H240375   5.897   3.036   5.909
13500TIP3   OH240376   7.306   3.470   6.112
13500TIP3    H140377   7.216   3.462   6.152
13500TIP3    H240378   7.298   3.556   6.067
13501TIP3   OH240379   7.596   2.371   6.475
13501TIP3    H140380   7.509   2.402   6.446
13501TIP3    H240381   7.655   2.404   6.404
13502TIP3   OH240382   6.894   2.016   6.457
13502TIP3    H140383   6.881   1.921   6.475
13502TIP3    H240384   6.816   2.054   6.504
13503TIP3   OH240385   7.010   3.517   5.788
13503TIP3    H140386   7.060   3.435   5.766
13503TIP3    H240387   7.070   3.583   5.746
13504TIP3   OH240388   7.152   3.302   5.692
13504TIP3    H140389   7.106   3.224   5.657
13504TIP3    H240390   7.187   3.267   5.777
13505TIP3   OH240391   7.531   3.384   6.456
13505TIP3    H140392   7.521   3.307   6.397
13505TIP3    H240393   7.514   3.459   6.395
13506TIP3   OH240394   6.823   2.776   5.713
13506TIP3    H140395   6.742   2.828   5.693
13506TIP3    H240396   6.868   2.777   5.627
13507TIP3   OH240397   6.782   2.563   5.428
13507TIP3    H140398   6.848   2.612   5.479
13507TIP3    H240399   6.839   2.498   5.383
13508TIP3   OH240400   7.726   3.019   6.300
13508TIP3    H140401   7.644   3.072   6.306
13508TIP3    H240402   7.756   3.044   6.210
13509TIP3   OH240403   7.170   2.859   5.685
13509TIP3    H140404   7.115   2.885   5.763
13509TIP3    H240405   7.254   2.834   5.730
13510TIP3   OH240406   7.406   2.900   6.596
13510TIP3    H140407   7.403   2.984   6.646
13510TIP3    H240408   7.319   2.904   6.551
13511TIP3   OH240409   6.402   2.858   6.101
13511TIP3    H140410   6.361   2.801   6.033
13511TIP3    H240411   6.479   2.804   6.129
13512TIP3   OH240412   6.532   3.269   6.251
13512TIP3    H140413   6.511   3.227   6.166
13512TIP3    H240414   6.623   3.235   6.268
13513TIP3   OH240415   6.542   2.828   6.457
13513TIP3    H140416   6.573   2.809   6.366
13513TIP3    H240417   6.583   2.915   6.476
13514TIP3   OH240418   7.065   3.467   6.233
13514TIP3    H140419   7.050   3.547   6.286
13514TIP3    H240420   7.050   3.394   6.296
13515TIP3   OH240421   6.676   3.386   6.783
13515TIP3    H140422   6.613   3.449   6.824
13515TIP3    H240423   6.613   3.332   6.731
13516TIP3   OH240424   7.013   2.717   5.511
13516TIP3    H140425   7.070   2.777   5.564
13516TIP3    H240426   7.039   2.742   5.419
13517TIP3   OH240427   6.430   2.942   6.878
13517TIP3    H140428   6.433   3.028   6.924
13517TIP3    H240429   6.335   2.920   6.888
13518TIP3   OH240430   6.754   3.397   5.786
13518TIP3    H140431   6.832   3.453   5.806
13518TIP3    H240432   6.692   3.460   5.748
13519TIP3   OH240433   6.471   3.554   6.867
13519TIP3    H140434   6.437   3.555   6.776
13519TIP3    H240435   6.391   3.531   6.919
13520TIP3   OH240436   7.526   1.959   5.558
13520TIP3    H140437   7.446   1.979   5.610
13520TIP3    H240438   7.539   2.044   5.510
13521TIP3   OH240439   6.270   2.701   5.905
13521TIP3    H140440   6.205   2.749   5.848
13521TIP3    H240441   6.224   2.617   5.918
13522TIP3   OH240442   7.325   3.326   5.105
13522TIP3    H140443   7.333   3.423   5.094
13522TIP3    H240444   7.418   3.298   5.094
13523TIP3   OH240445   6.050   3.085   6.814
13523TIP3    H140446   5.984   3.064   6.745
13523TIP3    H240447   6.086   2.997   6.837
13524TIP3   OH240448   5.904   3.276   6.450
13524TIP3    H140449   6.000   3.275   6.439
13524TIP3    H240450   5.891   3.358   6.499
13525TIP3   OH240451   7.769   3.728   6.501
13525TIP3    H140452   7.768   3.631   6.516
13525TIP3    H240453   7.686   3.753   6.547
13526TIP3   OH240454   6.877   3.514   6.639
13526TIP3    H140455   6.875   3.607   6.669
13526TIP3    H240456   6.803   3.476   6.691
13527TIP3   OH240457   6.636   3.645   5.588
13527TIP3    H140458   6.588   3.626   5.505
13527TIP3    H240459   6.603   3.733   5.613
13528TIP3   OH240460   6.073   3.494   5.971
13528TIP3    H140461   6.120   3.484   6.057
13528TIP3    H240462   6.016   3.415   5.974
13529TIP3   OH240463   6.837   3.545   5.229
13529TIP3    H140464   6.896   3.475   5.193
13529TIP3    H240465   6.870   3.555   5.320
13530TIP3   OH240466   6.887   3.592   5.499
13530TIP3    H140467   6.798   3.603   5.540
13530TIP3    H240468   6.937   3.552   5.572
13531TIP3   OH240469   7.659   2.860   6.776
13531TIP3    H140470   7.578   2.872   6.725
13531TIP3    H240471   7.674   2.764   6.767
13532TIP3   OH240472   6.254   3.268   6.802
13532TIP3    H140473   6.302   3.249   6.884
13532TIP3    H240474   6.179   3.204   6.807
13533TIP3   OH240475   6.655   2.091   6.585
13533TIP3    H140476   6.565   2.061   6.560
13533TIP3    H240477   6.630   2.174   6.632
13534TIP3   OH240478   7.188   2.206   6.780
13534TIP3    H140479   7.256   2.180   6.846
13534TIP3    H240480   7.104   2.187   6.827
13535TIP3   OH240481   7.428   2.635   6.699
13535TIP3    H140482   7.379   2.631   6.785
13535TIP3    H240483   7.403   2.723   6.664
13536TIP3   OH240484   7.086   2.763   5.254
13536TIP3    H140485   7.055   2.738   5.165
13536TIP3    H240486   7.165   2.816   5.232
13537TIP3   OH240487   6.801   2.141   5.557
13537TIP3    H140488   6.768   2.139   5.649
13537TIP3    H240489   6.762   2.057   5.524
13538TIP3   OH240490   6.587   2.606   6.606
13538TIP3    H140491   6.536   2.627   6.686
13538TIP3    H240492   6.571   2.687   6.552
13539TIP3   OH240493   6.470   2.492   6.119
13539TIP3    H140494   6.377   2.468   6.136
13539TIP3    H240495   6.483   2.452   6.030
13540TIP3   OH240496   6.961   2.578   5.846
13540TIP3    H140497   6.907   2.650   5.805
13540TIP3    H240498   7.015   2.549   5.770
13541TIP3   OH240499   7.135   2.860   6.937
13541TIP3    H140500   7.113   2.786   6.997
13541TIP3    H240501   7.231   2.870   6.955
13542TIP3   OH240502   7.118   2.607   6.086
13542TIP3    H140503   7.059   2.638   6.015
13542TIP3    H240504   7.151   2.525   6.043
13543TIP3   OH240505   6.406   2.635   6.814
13543TIP3    H140506   6.431   2.698   6.883
13543TIP3    H240507   6.394   2.553   6.865
13544TIP3   OH240508   6.455   2.112   5.523
13544TIP3    H140509   6.447   2.110   5.621
13544TIP3    H240510   6.377   2.166   5.500
13545TIP3   OH240511   5.998   2.156   6.395
13545TIP3    H140512   6.073   2.190   6.449
13545TIP3    H240513   6.040   2.128   6.313
13546TIP3   OH240514   5.972   2.141   5.912
13546TIP3    H140515   6.017   2.180   5.834
13546TIP3    H240516   5.910   2.213   5.934
13547TIP3   OH240517   7.128   2.854   6.509
13547TIP3    H140518   7.161   2.782   6.451
13547TIP3    H240519   7.100   2.802   6.587
13548TIP3   OH240520   6.796   2.315   6.180
13548TIP3    H140521   6.714   2.313   6.232
13548TIP3    H240522   6.864   2.315   6.250
13549TIP3   OH240523   6.232   2.371   6.189
13549TIP3    H140524   6.137   2.379   6.162
13549TIP3    H240525   6.254   2.279   6.164
13550TIP3   OH240526   6.502   2.366   5.877
13550TIP3    H140527   6.596   2.383   5.855
13550TIP3    H240528   6.454   2.389   5.795
13551TIP3   OH240529   7.289   2.391   6.381
13551TIP3    H140530   7.256   2.403   6.473
13551TIP3    H240531   7.222   2.329   6.346
13552TIP3   OH240532   6.344   2.397   5.657
13552TIP3    H140533   6.268   2.357   5.611
13552TIP3    H240534   6.394   2.434   5.581
13553TIP3   OH240535   7.459   4.079   6.601
13553TIP3    H140536   7.457   4.104   6.506
13553TIP3    H240537   7.537   4.128   6.632
13554TIP3   OH240538   6.415   3.187   7.020
13554TIP3    H140539   6.489   3.232   7.063
13554TIP3    H240540   6.349   3.184   7.092
13555TIP3   OH240541   6.880   2.642   6.278
13555TIP3    H140542   6.954   2.603   6.229
13555TIP3    H240543   6.890   2.601   6.366
13556TIP3   OH240544   6.404   2.131   6.155
13556TIP3    H140545   6.371   2.051   6.202
13556TIP3    H240546   6.456   2.093   6.083
13557TIP3   OH240547   6.858   2.539   6.567
13557TIP3    H140548   6.768   2.575   6.581
13557TIP3    H240549   6.914   2.599   6.618
13558TIP3   OH240550   6.596   2.930   5.664
13558TIP3    H140551   6.524   2.865   5.652
13558TIP3    H240552   6.576   2.965   5.754
13559TIP3   OH240553   7.495   3.167   6.292
13559TIP3    H140554   7.519   3.216   6.211
13559TIP3    H240555   7.409   3.125   6.267
13560TIP3   OH240556   7.051   2.245   5.518
13560TIP3    H140557   6.955   2.227   5.531
13560TIP3    H240558   7.062   2.338   5.548
13561TIP3   OH240559   6.993   3.248   6.658
13561TIP3    H140560   7.014   3.225   6.749
13561TIP3    H240561   6.956   3.338   6.665
13562TIP3   OH240562   7.122   2.489   5.626
13562TIP3    H140563   7.218   2.496   5.644
13562TIP3    H240564   7.104   2.570   5.576
13563TIP3   OH240565   6.288   2.954   6.340
13563TIP3    H140566   6.324   2.924   6.253
13563TIP3    H240567   6.324   2.888   6.400
13564TIP3   OH240568   6.738   3.080   5.482
13564TIP3    H140569   6.691   3.166   5.488
13564TIP3    H240570   6.684   3.025   5.543
13565TIP3   OH240571   6.166   2.872   6.951
13565TIP3    H140572   6.186   2.858   7.046
13565TIP3    H240573   6.097   2.806   6.935
13566TIP3   OH240574   6.891   2.987   6.968
13566TIP3    H140575   6.832   2.926   6.921
13566TIP3    H240576   6.979   2.952   6.942
13567TIP3   OH240577   7.155   3.507   6.556
13567TIP3    H140578   7.058   3.506   6.568
13567TIP3    H240579   7.182   3.561   6.633
13568TIP3   OH240580   7.564   2.579   5.464
13568TIP3    H140581   7.502   2.535   5.402
13568TIP3    H240582   7.561   2.669   5.424
13569TIP3   OH240583   7.782   3.437   6.545
13569TIP3    H140584   7.684   3.432   6.537
13569TIP3    H240585   7.807   3.407   6.455
13570TIP3   OH240586   7.265   3.399   5.372
13570TIP3    H140587   7.238   3.331   5.435
13570TIP3    H240588   7.275   3.350   5.288
13571TIP3   OH240589   7.260   3.029   6.212
13571TIP3    H140590   7.166   3.003   6.224
13571TIP3    H240591   7.294   2.949   6.166
13572TIP3   OH240592   6.386   3.255   5.963
13572TIP3    H140593   6.386   3.338   5.910
13572TIP3    H240594   6.292   3.239   5.972
13573TIP3   OH240595   5.948   2.561   5.661
13573TIP3    H140596   5.993   2.646   5.680
13573TIP3    H240597   5.864   2.573   5.710
13574TIP3   OH240598   6.527   3.023   5.908
13574TIP3    H140599   6.491   3.112   5.926
13574TIP3    H240600   6.489   2.972   5.982
13575TIP3   OH240601   6.656   3.601   6.433
13575TIP3    H140602   6.695   3.674   6.381
13575TIP3    H240603   6.734   3.566   6.479
13576TIP3   OH240604   6.307   3.494   5.816
13576TIP3    H140605   6.221   3.503   5.862
13576TIP3    H240606   6.338   3.587   5.819
13577TIP3   OH240607   7.046   3.234   6.390
13577TIP3    H140608   7.036   3.232   6.488
13577TIP3    H240609   7.126   3.181   6.377
13578TIP3   OH240610   7.018   3.124   5.273
13578TIP3    H140611   7.071   3.100   5.353
13578TIP3    H240612   6.929   3.101   5.303
13579TIP3   OH240613   7.293   3.768   6.441
13579TIP3    H140614   7.213   3.713   6.432
13579TIP3    H240615   7.279   3.834   6.369
13580TIP3   OH240616   7.358   3.602   5.094
13580TIP3    H140617   7.395   3.675   5.041
13580TIP3    H240618   7.278   3.647   5.128
13581TIP3   OH240619   6.379   2.378   6.960
13581TIP3    H140620   6.283   2.382   6.976
13581TIP3    H240621   6.409   2.320   7.032
13582TIP3   OH240622   7.178   3.058   5.488
13582TIP3    H140623   7.168   2.994   5.562
13582TIP3    H240624   7.276   3.058   5.478
13583TIP3   OH240625   6.096   3.463   6.590
13583TIP3    H140626   6.147   3.388   6.624
13583TIP3    H240627   6.121   3.533   6.652
13584TIP3   OH240628   6.387   3.106   5.270
13584TIP3    H140629   6.399   3.013   5.245
13584TIP3    H240630   6.369   3.098   5.366
13585TIP3   OH240631   6.337   3.113   5.540
13585TIP3    H140632   6.399   3.085   5.609
13585TIP3    H240633   6.338   3.211   5.551
13586TIP3   OH240634   6.070   2.810   5.747
13586TIP3    H140635   6.002   2.848   5.806
13586TIP3    H240636   6.074   2.881   5.679
13587TIP3   OH240637   7.215   2.442   6.640
13587TIP3    H140638   7.294   2.481   6.681
13587TIP3    H240639   7.200   2.362   6.694
13588TIP3   OH240640   7.096   2.194   5.804
13588TIP3    H140641   7.082   2.220   5.711
13588TIP3    H240642   7.135   2.276   5.842
13589TIP3   OH240643   6.597   3.311   5.493
13589TIP3    H140644   6.510   3.336   5.530
13589TIP3    H240645   6.613   3.386   5.433
13590TIP3   OH240646   6.786   2.372   5.907
13590TIP3    H140647   6.850   2.445   5.891
13590TIP3    H240648   6.790   2.365   6.005
13591TIP3   OH240649   7.055   2.693   6.716
13591TIP3    H140650   7.072   2.746   6.797
13591TIP3    H240651   7.109   2.614   6.732
13592TIP3   OH240652   6.930   2.101   6.011
13592TIP3    H140653   6.923   2.178   6.071
13592TIP3    H240654   6.990   2.138   5.942
13593TIP3   OH240655   6.340   3.385   5.562
13593TIP3    H140656   6.309   3.454   5.499
13593TIP3    H240657   6.323   3.428   5.648
13594TIP3   OH240658   6.441   2.098   5.800
13594TIP3    H140659   6.437   2.189   5.836
13594TIP3    H240660   6.537   2.081   5.809
13595TIP3   OH240661   7.695   2.592   6.696
13595TIP3    H140662   7.597   2.590   6.705
13595TIP3    H240663   7.706   2.553   6.609
13596TIP3   OH240664   7.345   2.787   6.084
13596TIP3    H140665   7.270   2.728   6.097
13596TIP3    H240666   7.417   2.740   6.132
13597TIP3   OH240667   6.063   3.018   5.561
13597TIP3    H140668   6.125   3.092   5.564
13597TIP3    H240669   6.100   2.965   5.489
13598TIP3   OH240670   6.002   2.293   5.684
13598TIP3    H140671   6.001   2.391   5.682
13598TIP3    H240672   5.914   2.273   5.651
13599TIP3   OH240673   7.314   3.741   6.034
13599TIP3    H140674   7.271   3.788   5.959
13599TIP3    H240675   7.408   3.760   6.013
13600TIP3   OH240676   6.390   2.011   6.562
13600TIP3    H140677   6.358   1.978   6.475
13600TIP3    H240678   6.379   1.933   6.620
13601TIP3   OH240679   5.932   3.233   5.945
13601TIP3    H140680   5.857   3.262   5.998
13601TIP3    H240681   5.907   3.269   5.857
13602TIP3   OH240682   6.085   3.768   7.011
13602TIP3    H140683   6.169   3.769   7.061
13602TIP3    H240684   6.061   3.674   7.013
13603TIP3   OH240685   6.567   3.724   7.072
13603TIP3    H140686   6.663   3.732   7.061
13603TIP3    H240687   6.543   3.675   6.991
13604TIP3   OH240688   6.548   3.312   5.185
13604TIP3    H140689   6.491   3.241   5.224
13604TIP3    H240690   6.623   3.258   5.156
13605TIP3   OH240691   7.204   3.644   6.791
13605TIP3    H140692   7.197   3.573   6.859
13605TIP3    H240693   7.284   3.693   6.821
13606TIP3   OH240694   6.985   3.352   5.097
13606TIP3    H140695   7.030   3.289   5.156
13606TIP3    H240696   7.042   3.353   5.018
13607TIP3   OH240697   6.218   3.177   7.214
13607TIP3    H140698   6.232   3.081   7.221
13607TIP3    H240699   6.129   3.181   7.170
13608TIP3   OH240700   6.189   2.828   5.402
13608TIP3    H140701   6.241   2.799   5.479
13608TIP3    H240702   6.260   2.832   5.334
13609TIP3   OH240703   6.822   3.258   6.986
13609TIP3    H140704   6.781   3.276   6.899
13609TIP3    H240705   6.854   3.165   6.976
13610TIP3   OH240706   6.703   3.027   5.212
13610TIP3    H140707   6.704   3.040   5.309
13610TIP3    H240708   6.699   2.929   5.208
13611TIP3   OH240709   7.316   3.270   6.593
13611TIP3    H140710   7.391   3.315   6.549
13611TIP3    H240711   7.246   3.336   6.579
13612TIP3   OH240712   6.337   2.912   7.194
13612TIP3    H140713   6.407   2.847   7.178
13612TIP3    H240714   6.360   2.942   7.284
13613TIP3   OH240715   6.406   2.732   5.632
13613TIP3    H140716   6.372   2.693   5.713
13613TIP3    H240717   6.437   2.653   5.582
13614TIP3   OH240718   6.671   2.797   6.857
13614TIP3    H140719   6.592   2.855   6.859
13614TIP3    H240720   6.718   2.831   6.778
13615TIP3   OH240721   6.500   2.522   5.470
13615TIP3    H140722   6.474   2.528   5.376
13615TIP3    H240723   6.598   2.531   5.462
13616TIP3   OH240724   7.190   3.199   6.996
13616TIP3    H140725   7.266   3.174   6.942
13616TIP3    H240726   7.187   3.128   7.062
13617TIP3   OH240727   7.325   2.857   5.131
13617TIP3    H140728   7.301   2.811   5.048
13617TIP3    H240729   7.292   2.947   5.108
13618TIP3   OH240730   6.793   2.584   6.984
13618TIP3    H140731   6.793   2.503   6.929
13618TIP3    H240732   6.749   2.649   6.926
13619TIP3   OH240733   6.796   2.370   6.790
13619TIP3    H140734   6.823   2.411   6.706
13619TIP3    H240735   6.702   2.347   6.772
13620TIP3   OH240736   6.825   2.907   6.663
13620TIP3    H140737   6.907   2.915   6.613
13620TIP3    H240738   6.768   2.974   6.619
13621TIP3   OH240739   7.404   2.874   7.044
13621TIP3    H140740   7.451   2.792   7.063
13621TIP3    H240741   7.475   2.930   7.009
13622TIP3   OH240742   7.446   3.127   6.782
13622TIP3    H140743   7.389   3.180   6.722
13622TIP3    H240744   7.534   3.146   6.742
13623TIP3   OH240745   6.667   2.700   7.210
13623TIP3    H140746   6.600   2.630   7.228
13623TIP3    H240747   6.705   2.669   7.126
13624TIP3   OH240748   6.928   2.133   6.855
13624TIP3    H140749   6.879   2.216   6.835
13624TIP3    H240750   6.858   2.066   6.846
13625TIP3   OH240751   7.054   2.641   7.074
13625TIP3    H140752   7.045   2.626   7.170
13625TIP3    H240753   6.963   2.615   7.046
13626TIP3   OH240754   7.293   2.588   6.929
13626TIP3    H140755   7.218   2.589   6.991
13626TIP3    H240756   7.367   2.557   6.985
13627TIP3   OH240757   7.524   2.527   7.078
13627TIP3    H140758   7.535   2.432   7.099
13627TIP3    H240759   7.518   2.569   7.167
13628TIP3   OH240760   6.511   2.477   7.265
13628TIP3    H140761   6.519   2.386   7.233
13628TIP3    H240762   6.548   2.466   7.356
13629TIP3   OH240763   7.024   2.145   7.112
13629TIP3    H140764   7.090   2.073   7.109
13629TIP3    H240765   6.983   2.137   7.024
13630TIP3   OH240766   7.090   2.361   7.271
13630TIP3    H140767   7.066   2.289   7.209
13630TIP3    H240768   7.011   2.419   7.268
13631TIP3   OH240769   6.308   3.587   5.374
13631TIP3    H140770   6.404   3.585   5.354
13631TIP3    H240771   6.277   3.636   5.296
13632TIP3   OH240772   5.703   3.582   6.002
13632TIP3    H140773   5.635   3.520   5.967
13632TIP3    H240774   5.747   3.525   6.069
13633TIP3   OH240775   5.838   3.436   6.191
13633TIP3    H140776   5.826   3.361   6.251
13633TIP3    H240777   5.889   3.496   6.248
13634TIP3   OH240778   7.566   3.833   5.990
13634TIP3    H140779   7.592   3.866   6.078
13634TIP3    H240780   7.626   3.881   5.932
13635TIP3   OH240781   7.596   3.854   6.272
13635TIP3    H140782   7.553   3.766   6.268
13635TIP3    H240783   7.671   3.833   6.330
13636TIP3   OH240784   7.642   3.531   6.844
13636TIP3    H140785   7.569   3.539   6.909
13636TIP3    H240786   7.684   3.619   6.849
13637TIP3   OH240787   7.459   3.043   5.465
13637TIP3    H140788   7.527   3.108   5.438
13637TIP3    H240789   7.501   3.004   5.545
13638TIP3   OH240790   7.585   2.911   5.669
13638TIP3    H140791   7.520   2.869   5.729
13638TIP3    H240792   7.651   2.949   5.731
13639TIP3   OH240793   7.639   3.302   6.101
13639TIP3    H140794   7.693   3.238   6.051
13639TIP3    H240795   7.631   3.376   6.038
13640TIP3   OH240796   7.472   3.603   6.297
13640TIP3    H140797   7.400   3.646   6.348
13640TIP3    H240798   7.422   3.555   6.227
13641TIP3   OH240799   7.524   2.818   5.316
13641TIP3    H140800   7.452   2.822   5.249
13641TIP3    H240801   7.498   2.894   5.372
13642TIP3   OH240802   7.396   2.491   5.270
13642TIP3    H140803   7.351   2.531   5.195
13642TIP3    H240804   7.370   2.397   5.259
13643TIP3   OH240805   7.400   2.767   5.816
13643TIP3    H140806   7.408   2.670   5.812
13643TIP3    H240807   7.386   2.782   5.912
13644TIP3   OH240808   6.027   2.839   6.564
13644TIP3    H140809   6.024   2.810   6.470
13644TIP3    H240810   6.124   2.841   6.579
13645TIP3   OH240811   7.689   3.192   6.673
13645TIP3    H140812   7.762   3.126   6.664
13645TIP3    H240813   7.716   3.262   6.611
13646TIP3   OH240814   7.874   2.998   6.691
13646TIP3    H140815   7.800   2.947   6.730
13646TIP3    H240816   7.947   2.934   6.705
13647TIP3   OH240817   7.339   2.224   5.254
13647TIP3    H140818   7.415   2.196   5.310
13647TIP3    H240819   7.267   2.167   5.283
13648TIP3   OH240820   7.395   2.483   5.711
13648TIP3    H140821   7.436   2.394   5.726
13648TIP3    H240822   7.455   2.516   5.642
13649TIP3   OH240823   7.558   2.658   6.205
13649TIP3    H140824   7.644   2.684   6.165
13649TIP3    H240825   7.571   2.694   6.295
13650TIP3   OH240826   7.626   2.801   6.438
13650TIP3    H140827   7.548   2.835   6.486
13650TIP3    H240828   7.659   2.881   6.393
13651TIP3   OH240829   6.245   2.529   7.236
13651TIP3    H140830   6.343   2.522   7.240
13651TIP3    H240831   6.220   2.444   7.277
13652TIP3   OH240832   8.081   2.393   6.995
13652TIP3    H140833   8.138   2.326   6.950
13652TIP3    H240834   8.051   2.447   6.919
13653TIP3   OH240835   7.505   2.233   5.748
13653TIP3    H140836   7.554   2.218   5.832
13653TIP3    H240837   7.445   2.156   5.748
13654TIP3   OH240838   6.205   2.219   6.568
13654TIP3    H140839   6.268   2.145   6.578
13654TIP3    H240840   6.267   2.295   6.562
13655TIP3   OH240841   6.008   2.493   6.641
13655TIP3    H140842   6.057   2.488   6.557
13655TIP3    H240843   6.035   2.580   6.673
13656TIP3   OH240844   7.950   2.532   6.801
13656TIP3    H140845   7.864   2.572   6.824
13656TIP3    H240846   7.920   2.461   6.741
13657TIP3   OH240847   7.586   2.170   5.379
13657TIP3    H140848   7.628   2.097   5.330
13657TIP3    H240849   7.654   2.240   5.375
13658TIP3   OH240850   5.991   1.995   6.139
13658TIP3    H140851   5.898   1.995   6.167
13658TIP3    H240852   5.989   2.056   6.062
13659TIP3   OH240853   7.151   3.699   5.648
13659TIP3    H140854   7.202   3.686   5.565
13659TIP3    H240855   7.202   3.767   5.693
13660TIP3   OH240856   6.211   2.075   6.955
13660TIP3    H140857   6.162   2.072   7.039
13660TIP3    H240858   6.144   2.115   6.896
13661TIP3   OH240859   6.255   3.495   7.042
13661TIP3    H140860   6.164   3.473   7.012
13661TIP3    H240861   6.244   3.489   7.137
13662TIP3   OH240862   6.430   3.537   6.583
13662TIP3    H140863   6.379   3.610   6.543
13662TIP3    H240864   6.515   3.552   6.536
13663TIP3   OH240865   6.875   3.780   6.718
13663TIP3    H140866   6.917   3.785   6.806
13663TIP3    H240867   6.940   3.831   6.664
13664TIP3   OH240868   7.054   3.931   6.577
13664TIP3    H140869   7.126   3.882   6.535
13664TIP3    H240870   7.105   3.989   6.638
13665TIP3   OH240871   7.848   2.295   6.677
13665TIP3    H140872   7.757   2.290   6.644
13665TIP3    H240873   7.878   2.202   6.666
13666TIP3   OH240874   6.107   3.793   6.606
13666TIP3    H140875   6.018   3.825   6.580
13666TIP3    H240876   6.114   3.833   6.693
13667TIP3   OH240877   6.342   3.771   6.462
13667TIP3    H140878   6.256   3.785   6.507
13667TIP3    H240879   6.322   3.805   6.372
13668TIP3   OH240880   6.768   3.801   6.260
13668TIP3    H140881   6.699   3.821   6.194
13668TIP3    H240882   6.781   3.889   6.302
13669TIP3   OH240883   7.036   3.740   6.311
13669TIP3    H140884   6.942   3.757   6.291
13669TIP3    H240885   7.079   3.817   6.270
13670TIP3   OH240886   7.246   3.933   6.227
13670TIP3    H140887   7.231   4.018   6.180
13670TIP3    H240888   7.270   3.873   6.154
13671TIP3   OH240889   6.018   3.588   6.349
13671TIP3    H140890   6.043   3.562   6.440
13671TIP3    H240891   6.090   3.543   6.298
13672TIP3   OH240892   6.211   3.458   6.206
13672TIP3    H140893   6.227   3.375   6.255
13672TIP3    H240894   6.301   3.496   6.200
13673TIP3   OH240895   6.477   3.554   6.208
13673TIP3    H140896   6.508   3.463   6.195
13673TIP3    H240897   6.519   3.575   6.293
13674TIP3   OH240898   7.052   2.210   6.295
13674TIP3    H140899   7.009   2.141   6.349
13674TIP3    H240900   7.125   2.161   6.253
13675TIP3   OH240901   7.577   2.088   6.201
13675TIP3    H140902   7.613   2.142   6.127
13675TIP3    H240903   7.482   2.108   6.196
13676TIP3   OH240904   7.671   2.191   5.965
13676TIP3    H140905   7.745   2.140   5.925
13676TIP3    H240906   7.705   2.283   5.951
13677TIP3   OH240907   6.302   1.919   6.313
13677TIP3    H140908   6.210   1.886   6.314
13677TIP3    H240909   6.351   1.834   6.309
13678TIP3   OH240910   6.088   1.788   5.960
13678TIP3    H140911   6.117   1.846   5.888
13678TIP3    H240912   6.058   1.852   6.027
13679TIP3   OH240913   6.745   1.951   6.193
13679TIP3    H140914   6.803   2.002   6.135
13679TIP3    H240915   6.765   1.989   6.280
13680TIP3   OH240916   7.294   2.097   6.178
13680TIP3    H140917   7.290   2.061   6.089
13680TIP3    H240918   7.279   2.017   6.233
13681TIP3   OH240919   7.322   2.019   5.739
13681TIP3    H140920   7.235   2.063   5.752
13681TIP3    H240921   7.307   1.935   5.786
13682TIP3   OH240922   5.807   3.358   5.742
13682TIP3    H140923   5.722   3.327   5.706
13682TIP3    H240924   5.795   3.453   5.727
13683TIP3   OH240925   6.204   1.947   5.725
13683TIP3    H140926   6.255   1.886   5.667
13683TIP3    H240927   6.276   2.003   5.761
13684TIP3   OH240928   6.718   2.122   5.823
13684TIP3    H140929   6.778   2.076   5.884
13684TIP3    H240930   6.739   2.215   5.848
13685TIP3   OH240931   6.577   3.548   5.323
13685TIP3    H140932   6.665   3.571   5.286
13685TIP3    H240933   6.555   3.474   5.263
13686TIP3   OH240934   7.297   3.666   5.415
13686TIP3    H140935   7.288   3.569   5.402
13686TIP3    H240936   7.250   3.699   5.335
13687TIP3   OH240937   6.510   2.199   7.202
13687TIP3    H140938   6.475   2.129   7.261
13687TIP3    H240939   6.604   2.199   7.231
13688TIP3   OH240940   6.758   2.195   7.322
13688TIP3    H140941   6.844   2.168   7.287
13688TIP3    H240942   6.744   2.129   7.392
13689TIP3   OH240943   5.881   3.387   5.379
13689TIP3    H140944   5.878   3.410   5.473
13689TIP3    H240945   5.969   3.345   5.371
13690TIP3   OH240946   7.583   2.256   7.111
13690TIP3    H140947   7.601   2.227   7.203
13690TIP3    H240948   7.672   2.252   7.070
13691TIP3   OH240949   7.523   3.811   6.603
13691TIP3    H140950   7.444   3.779   6.555
13691TIP3    H240951   7.504   3.907   6.606
13692TIP3   OH240952   8.790   3.183   5.368
13692TIP3    H140953   8.761   3.275   5.350
13692TIP3    H240954   8.711   3.134   5.339
13693TIP3   OH240955   8.791   3.180   5.762
13693TIP3    H140956   8.823   3.146   5.848
13693TIP3    H240957   8.753   3.100   5.723
13694TIP3   OH240958   8.087   3.079   6.116
13694TIP3    H140959   8.117   3.012   6.180
13694TIP3    H240960   8.167   3.132   6.106
13695TIP3   OH240961   9.032   3.484   5.432
13695TIP3    H140962   9.017   3.411   5.494
13695TIP3    H240963   9.056   3.557   5.491
13696TIP3   OH240964   8.057   3.486   5.839
13696TIP3    H140965   8.048   3.389   5.843
13696TIP3    H240966   8.154   3.495   5.839
13697TIP3   OH240967   7.766   2.691   5.625
13697TIP3    H140968   7.718   2.775   5.641
13697TIP3    H240969   7.694   2.637   5.589
13698TIP3   OH240970   7.824   2.977   5.796
13698TIP3    H140971   7.873   2.901   5.834
13698TIP3    H240972   7.886   3.009   5.729
13699TIP3   OH240973   8.681   3.950   5.447
13699TIP3    H140974   8.727   3.877   5.401
13699TIP3    H240975   8.671   3.913   5.536
13700TIP3   OH240976   8.588   3.410   5.796
13700TIP3    H140977   8.625   3.329   5.758
13700TIP3    H240978   8.672   3.454   5.821
13701TIP3   OH240979   9.532   2.751   5.808
13701TIP3    H140980   9.596   2.804   5.860
13701TIP3    H240981   9.574   2.754   5.721
13702TIP3   OH240982   9.015   2.914   5.811
13702TIP3    H140983   9.047   2.830   5.848
13702TIP3    H240984   8.971   2.885   5.730
13703TIP3   OH240985   8.334   2.569   5.797
13703TIP3    H140986   8.316   2.642   5.735
13703TIP3    H240987   8.286   2.496   5.752
13704TIP3   OH240988   9.032   2.658   5.419
13704TIP3    H140989   9.103   2.642   5.485
13704TIP3    H240990   9.084   2.696   5.346
13705TIP3   OH240991   7.970   2.772   5.903
13705TIP3    H140992   8.053   2.752   5.951
13705TIP3    H240993   7.984   2.716   5.823
13706TIP3   OH240994   8.412   2.969   5.695
13706TIP3    H140995   8.506   2.943   5.708
13706TIP3    H240996   8.373   2.885   5.664
13707TIP3   OH240997   9.670   2.933   5.962
13707TIP3    H140998   9.585   2.983   5.958
13707TIP3    H240999   9.710   2.969   6.044
13708TIP3   OH241000   8.332   2.552   6.230
13708TIP3    H141001   8.273   2.590   6.163
13708TIP3    H241002   8.281   2.571   6.312
13709TIP3   OH241003   8.684   3.407   5.237
13709TIP3    H141004   8.637   3.380   5.158
13709TIP3    H241005   8.638   3.490   5.260
13710TIP3   OH241006   8.436   3.329   6.022
13710TIP3    H141007   8.374   3.394   6.062
13710TIP3    H241008   8.481   3.382   5.954
13711TIP3   OH241009   9.244   2.659   5.591
13711TIP3    H141010   9.223   2.619   5.678
13711TIP3    H241011   9.293   2.738   5.618
13712TIP3   OH241012   8.203   2.668   6.016
13712TIP3    H141013   8.264   2.741   6.039
13712TIP3    H241014   8.252   2.627   5.941
13713TIP3   OH241015   8.265   3.523   6.124
13713TIP3    H141016   8.240   3.610   6.087
13713TIP3    H241017   8.187   3.507   6.181
13714TIP3   OH241018   7.664   3.211   5.360
13714TIP3    H141019   7.621   3.240   5.277
13714TIP3    H241020   7.694   3.297   5.397
13715TIP3   OH241021   9.103   3.728   5.600
13715TIP3    H141022   9.015   3.716   5.641
13715TIP3    H241023   9.091   3.814   5.556
13716TIP3   OH241024   9.372   2.619   5.977
13716TIP3    H141025   9.284   2.647   5.948
13716TIP3    H241026   9.429   2.661   5.909
13717TIP3   OH241027   8.690   2.272   5.943
13717TIP3    H141028   8.677   2.177   5.962
13717TIP3    H241029   8.613   2.310   5.990
13718TIP3   OH241030   8.806   3.775   5.275
13718TIP3    H141031   8.855   3.692   5.255
13718TIP3    H241032   8.865   3.839   5.231
13719TIP3   OH241033   8.949   3.560   5.179
13719TIP3    H141034   8.905   3.482   5.143
13719TIP3    H241035   8.984   3.525   5.264
13720TIP3   OH241036   9.328   3.642   5.940
13720TIP3    H141037   9.312   3.562   5.885
13720TIP3    H241038   9.308   3.715   5.877
13721TIP3   OH241039   8.618   3.034   5.199
13721TIP3    H141040   8.538   3.085   5.176
13721TIP3    H241041   8.666   3.031   5.114
13722TIP3   OH241042   8.577   2.819   4.916
13722TIP3    H141043   8.645   2.868   4.966
13722TIP3    H241044   8.635   2.755   4.869
13723TIP3   OH241045   9.522   3.279   5.789
13723TIP3    H141046   9.437   3.328   5.796
13723TIP3    H241047   9.546   3.296   5.696
13724TIP3   OH241048   8.967   3.117   5.171
13724TIP3    H141049   8.912   3.141   5.250
13724TIP3    H241050   9.050   3.089   5.216
13725TIP3   OH241051   9.215   3.165   6.076
13725TIP3    H141052   9.200   3.248   6.124
13725TIP3    H241053   9.121   3.144   6.057
13726TIP3   OH241054   8.201   3.115   5.588
13726TIP3    H141055   8.160   3.057   5.521
13726TIP3    H241056   8.277   3.062   5.618
13727TIP3   OH241057   8.332   3.529   5.736
13727TIP3    H141058   8.309   3.481   5.655
13727TIP3    H241059   8.421   3.495   5.755
13728TIP3   OH241060   8.332   3.087   5.941
13728TIP3    H141061   8.370   3.065   5.854
13728TIP3    H241062   8.378   3.171   5.964
13729TIP3   OH241063   8.863   3.723   5.719
13729TIP3    H141064   8.849   3.800   5.776
13729TIP3    H241065   8.849   3.648   5.781
13730TIP3   OH241066   8.473   3.642   6.267
13730TIP3    H141067   8.413   3.705   6.314
13730TIP3    H241068   8.407   3.589   6.218
13731TIP3   OH241069   8.807   2.975   4.998
13731TIP3    H141070   8.867   3.034   5.050
13731TIP3    H241071   8.834   3.000   4.906
13732TIP3   OH241072   8.226   3.200   6.368
13732TIP3    H141073   8.230   3.287   6.413
13732TIP3    H241074   8.131   3.181   6.376
13733TIP3   OH241075   8.550   3.654   5.269
13733TIP3    H141076   8.627   3.709   5.294
13733TIP3    H241077   8.487   3.719   5.236
13734TIP3   OH241078   8.267   3.811   6.353
13734TIP3    H141079   8.231   3.809   6.263
13734TIP3    H241080   8.188   3.790   6.408
13735TIP3   OH241081   9.332   2.233   5.074
13735TIP3    H141082   9.242   2.249   5.110
13735TIP3    H241083   9.336   2.298   5.002
13736TIP3   OH241084   8.067   2.957   5.391
13736TIP3    H141085   7.999   3.001   5.336
13736TIP3    H241086   8.025   2.872   5.408
13737TIP3   OH241087   9.121   3.584   4.593
13737TIP3    H141088   9.129   3.680   4.580
13737TIP3    H241089   9.214   3.555   4.581
13738TIP3   OH241090   7.846   3.341   6.300
13738TIP3    H141091   7.781   3.318   6.231
13738TIP3    H241092   7.883   3.254   6.326
13739TIP3   OH241093   7.700   3.534   5.933
13739TIP3    H141094   7.796   3.528   5.925
13739TIP3    H241095   7.690   3.613   5.988
13740TIP3   OH241096   9.558   3.988   5.981
13740TIP3    H141097   9.563   3.892   5.997
13740TIP3    H241098   9.477   4.011   6.033
13741TIP3   OH241099   8.667   3.775   6.122
13741TIP3    H141100   8.668   3.867   6.157
13741TIP3    H241101   8.597   3.735   6.178
13742TIP3   OH241102   8.433   3.903   5.073
13742TIP3    H141103   8.383   3.882   4.992
13742TIP3    H241104   8.397   3.990   5.099
13743TIP3   OH241105   7.870   3.750   5.459
13743TIP3    H141106   7.917   3.740   5.544
13743TIP3    H241107   7.810   3.674   5.464
13744TIP3   OH241108   8.635   3.803   4.715
13744TIP3    H141109   8.693   3.732   4.681
13744TIP3    H241110   8.666   3.810   4.808
13745TIP3   OH241111   8.684   3.850   4.985
13745TIP3    H141112   8.595   3.861   5.026
13745TIP3    H241113   8.731   3.805   5.057
13746TIP3   OH241114   9.459   3.123   6.252
13746TIP3    H141115   9.376   3.133   6.203
13746TIP3    H241116   9.472   3.026   6.245
13747TIP3   OH241117   8.050   3.525   6.291
13747TIP3    H141118   8.100   3.508   6.373
13747TIP3    H241119   7.977   3.460   6.298
13748TIP3   OH241120   8.451   2.347   6.072
13748TIP3    H141121   8.361   2.317   6.048
13748TIP3    H241122   8.428   2.431   6.117
13749TIP3   OH241123   8.983   2.460   6.271
13749TIP3    H141124   9.051   2.432   6.336
13749TIP3    H241125   8.899   2.440   6.316
13750TIP3   OH241126   9.223   2.898   6.188
13750TIP3    H141127   9.172   2.891   6.271
13750TIP3    H241128   9.179   2.971   6.142
13751TIP3   OH241129   8.881   3.027   4.742
13751TIP3    H141130   8.850   2.997   4.654
13751TIP3    H241131   8.966   3.069   4.718
13752TIP3   OH241132   8.595   2.399   5.044
13752TIP3    H141133   8.564   2.395   5.136
13752TIP3    H241134   8.558   2.314   5.011
13753TIP3   OH241135   8.379   2.864   6.090
13753TIP3    H141136   8.332   2.887   6.172
13753TIP3    H241137   8.365   2.946   6.037
13754TIP3   OH241138   8.266   2.749   5.605
13754TIP3    H141139   8.173   2.722   5.623
13754TIP3    H241140   8.279   2.708   5.517
13755TIP3   OH241141   8.756   2.834   5.330
13755TIP3    H141142   8.703   2.906   5.289
13755TIP3    H241143   8.811   2.805   5.255
13756TIP3   OH241144   8.944   3.150   6.484
13756TIP3    H141145   8.915   3.058   6.501
13756TIP3    H241146   8.992   3.137   6.400
13757TIP3   OH241147   8.904   2.858   5.569
13757TIP3    H141148   8.848   2.888   5.494
13757TIP3    H241149   8.943   2.778   5.527
13758TIP3   OH241150   8.198   2.893   6.301
13758TIP3    H141151   8.233   2.956   6.366
13758TIP3    H241152   8.190   2.811   6.354
13759TIP3   OH241153   8.250   2.368   5.010
13759TIP3    H141154   8.245   2.366   5.107
13759TIP3    H241155   8.171   2.422   4.988
13760TIP3   OH241156   7.795   2.415   5.880
13760TIP3    H141157   7.869   2.447   5.935
13760TIP3    H241158   7.838   2.382   5.800
13761TIP3   OH241159   7.768   2.395   5.399
13761TIP3    H141160   7.815   2.434   5.323
13761TIP3    H241161   7.708   2.469   5.421
13762TIP3   OH241162   8.590   2.571   5.666
13762TIP3    H141163   8.510   2.570   5.722
13762TIP3    H241164   8.661   2.574   5.732
13763TIP3   OH241165   8.028   2.627   5.675
13763TIP3    H141166   7.933   2.634   5.648
13763TIP3    H241167   8.051   2.535   5.652
13764TIP3   OH241168   8.298   2.622   5.364
13764TIP3    H141169   8.392   2.638   5.345
13764TIP3    H241170   8.253   2.647   5.280
13765TIP3   OH241171   9.088   2.642   5.857
13765TIP3    H141172   9.059   2.655   5.951
13765TIP3    H241173   9.017   2.584   5.826
13766TIP3   OH241174   8.137   2.657   5.142
13766TIP3    H141175   8.064   2.614   5.093
13766TIP3    H241176   8.189   2.693   5.067
13767TIP3   OH241177   9.255   4.336   6.088
13767TIP3    H141178   9.254   4.359   5.993
13767TIP3    H241179   9.332   4.386   6.120
13768TIP3   OH241180   8.212   3.447   6.510
13768TIP3    H141181   8.292   3.477   6.558
13768TIP3    H241182   8.148   3.446   6.583
13769TIP3   OH241183   8.677   2.897   5.758
13769TIP3    H141184   8.753   2.865   5.706
13769TIP3    H241185   8.698   2.866   5.847
13770TIP3   OH241186   8.199   2.388   5.641
13770TIP3    H141187   8.167   2.308   5.688
13770TIP3    H241188   8.255   2.350   5.572
13771TIP3   OH241189   8.651   2.787   6.064
13771TIP3    H141190   8.564   2.831   6.067
13771TIP3    H241191   8.713   2.858   6.089
13772TIP3   OH241192   8.389   3.188   5.148
13772TIP3    H141193   8.318   3.122   5.138
13772TIP3    H241194   8.372   3.221   5.239
13773TIP3   OH241195   9.289   3.424   5.779
13773TIP3    H141196   9.307   3.469   5.695
13773TIP3    H241197   9.204   3.378   5.760
13774TIP3   OH241198   8.848   2.501   5.008
13774TIP3    H141199   8.751   2.485   5.019
13774TIP3    H241200   8.859   2.595   5.035
13775TIP3   OH241201   8.798   3.518   6.140
13775TIP3    H141202   8.809   3.471   6.224
13775TIP3    H241203   8.747   3.597   6.164
13776TIP3   OH241204   8.919   2.746   5.113
13776TIP3    H141205   9.016   2.751   5.129
13776TIP3    H241206   8.903   2.826   5.059
13777TIP3   OH241207   8.080   3.207   5.825
13777TIP3    H141208   8.120   3.180   5.740
13777TIP3    H241209   8.126   3.148   5.887
13778TIP3   OH241210   8.534   3.336   4.967
13778TIP3    H141211   8.487   3.423   4.975
13778TIP3    H241212   8.480   3.281   5.029
13779TIP3   OH241213   7.961   3.131   6.439
13779TIP3    H141214   7.983   3.117   6.533
13779TIP3    H241215   7.894   3.062   6.424
13780TIP3   OH241216   8.684   3.243   6.457
13780TIP3    H141217   8.633   3.186   6.398
13780TIP3    H241218   8.775   3.212   6.438
13781TIP3   OH241219   8.950   3.781   6.032
13781TIP3    H141220   8.857   3.761   6.050
13781TIP3    H241221   8.977   3.822   6.117
13782TIP3   OH241222   9.354   2.828   4.963
13782TIP3    H141223   9.294   2.783   4.899
13782TIP3    H241224   9.379   2.902   4.905
13783TIP3   OH241225   9.579   3.688   6.022
13783TIP3    H141226   9.481   3.687   6.020
13783TIP3    H241227   9.598   3.652   5.933
13784TIP3   OH241228   9.060   3.657   4.860
13784TIP3    H141229   9.036   3.588   4.923
13784TIP3    H241230   9.073   3.607   4.777
13785TIP3   OH241231   9.057   3.288   5.694
13785TIP3    H141232   8.966   3.259   5.718
13785TIP3    H241233   9.090   3.206   5.653
13786TIP3   OH241234   8.182   3.511   5.447
13786TIP3    H141235   8.181   3.594   5.395
13786TIP3    H241236   8.087   3.497   5.461
13787TIP3   OH241237   7.745   2.817   5.151
13787TIP3    H141238   7.792   2.900   5.173
13787TIP3    H241239   7.669   2.822   5.213
13788TIP3   OH241240   8.323   3.279   5.393
13788TIP3    H141241   8.286   3.368   5.412
13788TIP3    H241242   8.288   3.228   5.468
13789TIP3   OH241243   8.452   3.856   5.920
13789TIP3    H141244   8.495   3.928   5.870
13789TIP3    H241245   8.527   3.820   5.970
13790TIP3   OH241246   8.102   3.752   5.302
13790TIP3    H141247   8.017   3.759   5.348
13790TIP3    H241248   8.133   3.845   5.305
13791TIP3   OH241249   8.846   3.491   5.876
13791TIP3    H141250   8.831   3.490   5.973
13791TIP3    H241251   8.916   3.426   5.867
13792TIP3   OH241252   8.814   3.385   4.760
13792TIP3    H141253   8.868   3.360   4.838
13792TIP3    H241254   8.727   3.356   4.790
13793TIP3   OH241255   9.091   4.024   5.930
13793TIP3    H141256   9.015   3.963   5.929
13793TIP3    H241257   9.069   4.085   5.857
13794TIP3   OH241258   9.154   3.859   4.580
13794TIP3    H141259   9.186   3.928   4.521
13794TIP3    H241260   9.073   3.902   4.616
13795TIP3   OH241261   8.175   2.635   6.447
13795TIP3    H141262   8.078   2.640   6.461
13795TIP3    H241263   8.202   2.574   6.518
13796TIP3   OH241264   8.973   3.318   4.976
13796TIP3    H141265   8.963   3.252   5.048
13796TIP3    H241266   9.070   3.315   4.964
13797TIP3   OH241267   7.892   3.719   6.078
13797TIP3    H141268   7.943   3.644   6.111
13797TIP3    H241269   7.918   3.788   6.141
13798TIP3   OH241270   8.181   3.365   4.759
13798TIP3    H141271   8.196   3.272   4.731
13798TIP3    H241272   8.163   3.353   4.855
13799TIP3   OH241273   8.127   3.369   5.031
13799TIP3    H141274   8.197   3.340   5.093
13799TIP3    H241275   8.132   3.467   5.040
13800TIP3   OH241276   7.862   3.062   5.235
13800TIP3    H141277   7.796   3.107   5.293
13800TIP3    H241278   7.877   3.132   5.169
13801TIP3   OH241279   9.015   2.683   6.111
13801TIP3    H141280   9.056   2.752   6.164
13801TIP3    H241281   8.998   2.612   6.176
13802TIP3   OH241282   8.889   2.452   5.292
13802TIP3    H141283   8.878   2.477   5.198
13802TIP3    H241284   8.930   2.533   5.330
13803TIP3   OH241285   8.392   3.567   4.980
13803TIP3    H141286   8.306   3.593   5.018
13803TIP3    H241287   8.407   3.640   4.919
13804TIP3   OH241288   8.579   2.630   5.394
13804TIP3    H141289   8.645   2.701   5.378
13804TIP3    H241290   8.585   2.621   5.492
13805TIP3   OH241291   8.725   2.357   5.497
13805TIP3    H141292   8.723   2.430   5.561
13805TIP3    H241293   8.785   2.394   5.429
13806TIP3   OH241294   8.136   3.642   5.048
13806TIP3    H141295   8.104   3.712   4.986
13806TIP3    H241296   8.119   3.685   5.135
13807TIP3   OH241297   8.237   2.355   5.286
13807TIP3    H141298   8.235   2.445   5.323
13807TIP3    H241299   8.333   2.336   5.295
13808TIP3   OH241300   9.488   2.850   6.185
13808TIP3    H141301   9.389   2.851   6.188
13808TIP3    H241302   9.502   2.820   6.094
13809TIP3   OH241303   9.134   3.047   5.564
13809TIP3    H141304   9.059   2.993   5.593
13809TIP3    H241305   9.208   3.006   5.615
13810TIP3   OH241306   7.853   3.273   5.041
13810TIP3    H141307   7.918   3.345   5.051
13810TIP3    H241308   7.900   3.219   4.974
13811TIP3   OH241309   7.799   2.548   5.173
13811TIP3    H141310   7.799   2.646   5.169
13811TIP3    H241311   7.712   2.527   5.138
13812TIP3   OH241312   9.109   4.001   5.521
13812TIP3    H141313   9.067   4.046   5.445
13812TIP3    H241314   9.203   4.019   5.501
13813TIP3   OH241315   8.185   2.268   6.049
13813TIP3    H141316   8.155   2.234   5.962
13813TIP3    H241317   8.175   2.189   6.106
13814TIP3   OH241318   7.725   3.486   5.430
13814TIP3    H141319   7.654   3.517   5.486
13814TIP3    H241320   7.700   3.526   5.343
13815TIP3   OH241321   7.881   4.027   6.500
13815TIP3    H141322   7.967   4.027   6.547
13815TIP3    H241323   7.860   3.932   6.499
13816TIP3   OH241324   8.364   3.996   6.541
13816TIP3    H141325   8.457   3.974   6.554
13816TIP3    H241326   8.340   3.935   6.469
13817TIP3   OH241327   8.345   3.568   4.673
13817TIP3    H141328   8.287   3.498   4.712
13817TIP3    H241329   8.420   3.513   4.643
13818TIP3   OH241330   9.004   3.897   6.276
13818TIP3    H141331   8.993   3.828   6.346
13818TIP3    H241332   9.080   3.948   6.310
13819TIP3   OH241333   8.782   3.610   4.586
13819TIP3    H141334   8.822   3.543   4.644
13819TIP3    H241335   8.839   3.605   4.506
13820TIP3   OH241336   8.012   3.433   6.700
13820TIP3    H141337   8.028   3.337   6.705
13820TIP3    H241338   7.924   3.435   6.657
13821TIP3   OH241339   7.989   3.085   4.893
13821TIP3    H141340   8.043   3.052   4.967
13821TIP3    H241341   8.058   3.090   4.822
13822TIP3   OH241342   8.621   3.518   6.473
13822TIP3    H141343   8.577   3.535   6.387
13822TIP3    H241344   8.647   3.424   6.466
13823TIP3   OH241345   8.497   3.283   4.699
13823TIP3    H141346   8.500   3.296   4.796
13823TIP3    H241347   8.497   3.185   4.694
13824TIP3   OH241348   9.117   3.528   6.087
13824TIP3    H141349   9.185   3.579   6.040
13824TIP3    H241350   9.036   3.579   6.067
13825TIP3   OH241351   8.130   3.167   6.683
13825TIP3    H141352   8.205   3.111   6.661
13825TIP3    H241353   8.155   3.201   6.771
13826TIP3   OH241354   8.197   2.989   5.116
13826TIP3    H141355   8.171   2.949   5.200
13826TIP3    H241356   8.233   2.912   5.067
13827TIP3   OH241357   8.456   3.044   6.349
13827TIP3    H141358   8.383   3.111   6.350
13827TIP3    H241359   8.508   3.076   6.271
13828TIP3   OH241360   8.297   2.781   4.957
13828TIP3    H141361   8.272   2.784   4.862
13828TIP3    H241362   8.395   2.787   4.950
13829TIP3   OH241363   8.991   3.452   6.483
13829TIP3    H141364   9.063   3.438   6.419
13829TIP3    H241365   8.965   3.361   6.503
13830TIP3   OH241366   9.119   3.115   4.617
13830TIP3    H141367   9.097   3.065   4.536
13830TIP3    H241368   9.085   3.204   4.592
13831TIP3   OH241369   8.591   2.839   6.469
13831TIP3    H141370   8.589   2.759   6.413
13831TIP3    H241371   8.544   2.904   6.413
13832TIP3   OH241372   8.590   2.624   6.282
13832TIP3    H141373   8.620   2.669   6.199
13832TIP3    H241374   8.497   2.603   6.260
13833TIP3   OH241375   8.608   3.147   6.157
13833TIP3    H141376   8.705   3.146   6.137
13833TIP3    H241377   8.575   3.218   6.099
13834TIP3   OH241378   9.239   3.130   6.558
13834TIP3    H141379   9.258   3.046   6.514
13834TIP3    H241380   9.285   3.193   6.500
13835TIP3   OH241381   9.242   3.388   6.278
13835TIP3    H141382   9.185   3.435   6.213
13835TIP3    H241383   9.329   3.400   6.233
13836TIP3   OH241384   8.470   2.952   6.701
13836TIP3    H141385   8.399   2.886   6.714
13836TIP3    H241386   8.501   2.929   6.611
13837TIP3   OH241387   8.723   2.390   6.344
13837TIP3    H141388   8.675   2.472   6.322
13837TIP3    H241389   8.653   2.322   6.332
13838TIP3   OH241390   8.849   2.895   6.558
13838TIP3    H141391   8.820   2.878   6.650
13838TIP3    H241392   8.765   2.870   6.513
13839TIP3   OH241393   9.095   2.855   6.421
13839TIP3    H141394   9.010   2.851   6.469
13839TIP3    H241395   9.157   2.812   6.483
13840TIP3   OH241396   9.327   2.789   6.594
13840TIP3    H141397   9.339   2.692   6.584
13840TIP3    H241398   9.303   2.797   6.686
13841TIP3   OH241399   8.306   2.734   6.752
13841TIP3    H141400   8.312   2.643   6.717
13841TIP3    H241401   8.340   2.721   6.843
13842TIP3   OH241402   8.819   2.397   6.599
13842TIP3    H141403   8.886   2.327   6.593
13842TIP3    H241404   8.778   2.392   6.510
13843TIP3   OH241405   8.872   2.603   6.770
13843TIP3    H141406   8.853   2.539   6.698
13843TIP3    H241407   8.810   2.676   6.752
13844TIP3   OH241408   8.105   3.846   4.861
13844TIP3    H141409   8.200   3.841   4.840
13844TIP3    H241410   8.073   3.893   4.782
13845TIP3   OH241411   7.585   3.227   5.076
13845TIP3    H141412   7.680   3.249   5.064
13845TIP3    H241413   7.580   3.138   5.036
13846TIP3   OH241414   7.501   3.838   5.489
13846TIP3    H141415   7.432   3.777   5.454
13846TIP3    H241416   7.544   3.781   5.557
13847TIP3   OH241417   7.636   3.691   5.677
13847TIP3    H141418   7.623   3.617   5.739
13847TIP3    H241419   7.686   3.752   5.734
13848TIP3   OH241420   9.362   4.094   5.476
13848TIP3    H141421   9.388   4.120   5.566
13848TIP3    H241422   9.431   4.135   5.422
13849TIP3   OH241423   9.395   4.109   5.758
13849TIP3    H141424   9.347   4.023   5.755
13849TIP3    H241425   9.466   4.086   5.819
13850TIP3   OH241426   9.438   3.788   6.330
13850TIP3    H141427   9.365   3.794   6.395
13850TIP3    H241428   9.479   3.877   6.337
13851TIP3   OH241429   9.248   3.304   4.951
13851TIP3    H141430   9.318   3.368   4.928
13851TIP3    H241431   9.288   3.260   5.029
13852TIP3   OH241432   9.367   3.168   5.153
13852TIP3    H141433   9.300   3.122   5.210
13852TIP3    H241434   9.426   3.208   5.219
13853TIP3   OH241435   9.435   3.555   5.583
13853TIP3    H141436   9.480   3.498   5.518
13853TIP3    H241437   9.417   3.635   5.530
13854TIP3   OH241438   9.267   3.862   5.781
13854TIP3    H141439   9.198   3.901   5.837
13854TIP3    H241440   9.214   3.813   5.714
13855TIP3   OH241441   9.326   3.085   4.795
13855TIP3    H141442   9.249   3.079   4.735
13855TIP3    H241443   9.294   3.154   4.857
13856TIP3   OH241444   9.178   2.750   4.768
13856TIP3    H141445   9.165   2.786   4.680
13856TIP3    H241446   9.156   2.655   4.755
13857TIP3   OH241447   9.195   3.021   5.301
13857TIP3    H141448   9.203   2.925   5.296
13857TIP3    H241449   9.178   3.035   5.398
13858TIP3   OH241450   7.823   3.098   6.049
13858TIP3    H141451   7.822   3.068   5.956
13858TIP3    H241452   7.920   3.100   6.066
13859TIP3   OH241453   9.486   3.448   6.160
13859TIP3    H141454   9.559   3.383   6.150
13859TIP3    H241455   9.512   3.518   6.098
13860TIP3   OH241456   9.682   3.261   6.180
13860TIP3    H141457   9.602   3.214   6.212
13860TIP3    H241458   9.746   3.188   6.189
13861TIP3   OH241459   9.131   2.484   4.747
13861TIP3    H141460   9.207   2.448   4.796
13861TIP3    H241461   9.058   2.423   4.769
13862TIP3   OH241462   9.194   2.741   5.196
13862TIP3    H141463   9.235   2.653   5.213
13862TIP3    H241464   9.250   2.773   5.122
13863TIP3   OH241465   9.346   2.930   5.682
13863TIP3    H141466   9.430   2.963   5.646
13863TIP3    H241467   9.361   2.942   5.777
13864TIP3   OH241468   9.426   3.057   5.927
13864TIP3    H141469   9.346   3.088   5.975
13864TIP3    H241470   9.454   3.139   5.881
13865TIP3   OH241471   8.039   2.784   6.723
13865TIP3    H141472   8.136   2.778   6.725
13865TIP3    H241473   8.015   2.699   6.766
13866TIP3   OH241474   9.300   2.490   5.243
13866TIP3    H141475   9.337   2.476   5.332
13866TIP3    H241476   9.239   2.414   5.236
13867TIP3   OH241477   8.001   2.476   6.055
13867TIP3    H141478   8.063   2.402   6.065
13867TIP3    H241479   8.063   2.551   6.049
13868TIP3   OH241480   7.804   2.750   6.128
13868TIP3    H141481   7.854   2.744   6.044
13868TIP3    H241482   7.834   2.836   6.161
13869TIP3   OH241483   9.730   2.777   6.306
13869TIP3    H141484   9.650   2.831   6.318
13869TIP3    H241485   9.697   2.718   6.234
13870TIP3   OH241486   9.381   2.410   4.857
13870TIP3    H141487   9.426   2.325   4.838
13870TIP3    H241488   9.434   2.470   4.799
13871TIP3   OH241489   7.787   2.252   5.627
13871TIP3    H141490   7.694   2.251   5.655
13871TIP3    H241491   7.785   2.312   5.550
13872TIP3   OH241492   8.945   3.958   5.132
13872TIP3    H141493   9.001   3.941   5.053
13872TIP3    H241494   9.001   4.017   5.185
13873TIP3   OH241495   8.007   2.334   6.443
13873TIP3    H141496   7.957   2.328   6.526
13873TIP3    H241497   7.941   2.372   6.383
13874TIP3   OH241498   8.048   3.761   6.521
13874TIP3    H141499   7.956   3.732   6.504
13874TIP3    H241500   8.058   3.742   6.615
13875TIP3   OH241501   8.224   3.793   6.067
13875TIP3    H141502   8.176   3.869   6.029
13875TIP3    H241503   8.311   3.806   6.024
13876TIP3   OH241504   8.671   4.040   6.206
13876TIP3    H141505   8.713   4.039   6.295
13876TIP3    H241506   8.738   4.089   6.154
13877TIP3   OH241507   8.850   4.190   6.062
13877TIP3    H141508   8.921   4.135   6.025
13877TIP3    H241509   8.901   4.246   6.124
13878TIP3   OH241510   9.635   2.551   6.170
13878TIP3    H141511   9.551   2.558   6.123
13878TIP3    H241512   9.669   2.465   6.138
13879TIP3   OH241513   7.903   4.051   6.090
13879TIP3    H141514   7.813   4.085   6.067
13879TIP3    H241515   7.911   4.084   6.180
13880TIP3   OH241516   8.139   4.030   5.948
13880TIP3    H141517   8.053   4.042   5.994
13880TIP3    H241518   8.118   4.062   5.859
13881TIP3   OH241519   8.566   4.060   5.744
13881TIP3    H141520   8.493   4.079   5.682
13881TIP3    H241521   8.577   4.146   5.790
13882TIP3   OH241522   8.833   3.999   5.795
13882TIP3    H141523   8.738   4.013   5.777
13882TIP3    H241524   8.872   4.079   5.758
13883TIP3   OH241525   9.045   4.192   5.715
13883TIP3    H141526   9.029   4.275   5.665
13883TIP3    H241527   9.067   4.129   5.643
13884TIP3   OH241528   7.814   3.844   5.836
13884TIP3    H141529   7.840   3.819   5.927
13884TIP3    H241530   7.886   3.799   5.786
13885TIP3   OH241531   8.008   3.715   5.692
13885TIP3    H141532   8.023   3.631   5.741
13885TIP3    H241533   8.098   3.751   5.688
13886TIP3   OH241534   8.275   3.810   5.695
13886TIP3    H141535   8.305   3.718   5.684
13886TIP3    H241536   8.317   3.832   5.780
13887TIP3   OH241537   8.846   2.465   5.775
13887TIP3    H141538   8.806   2.397   5.832
13887TIP3    H241539   8.923   2.418   5.738
13888TIP3   OH241540   9.372   2.350   5.709
13888TIP3    H141541   9.405   2.400   5.631
13888TIP3    H241542   9.276   2.365   5.702
13889TIP3   OH241543   9.460   2.444   5.470
13889TIP3    H141544   9.545   2.402   5.448
13889TIP3    H241545   9.484   2.539   5.460
13890TIP3   OH241546   8.098   2.175   5.800
13890TIP3    H141547   8.006   2.142   5.801
13890TIP3    H241548   8.148   2.090   5.797
13891TIP3   OH241549   7.880   2.045   5.446
13891TIP3    H141550   7.913   2.103   5.375
13891TIP3    H241551   7.854   2.109   5.515
13892TIP3   OH241552   8.540   2.208   5.680
13892TIP3    H141553   8.598   2.259   5.621
13892TIP3    H241554   8.563   2.246   5.767
13893TIP3   OH241555   9.084   2.353   5.666
13893TIP3    H141556   9.096   2.316   5.578
13893TIP3    H241557   9.073   2.272   5.720
13894TIP3   OH241558   9.109   2.281   5.229
13894TIP3    H141559   9.022   2.323   5.245
13894TIP3    H241560   9.096   2.195   5.275
13895TIP3   OH241561   7.602   3.614   5.227
13895TIP3    H141562   7.517   3.582   5.193
13895TIP3    H241563   7.590   3.710   5.212
13896TIP3   OH241564   8.001   2.206   5.210
13896TIP3    H141565   8.050   2.142   5.154
13896TIP3    H241566   8.074   2.260   5.247
13897TIP3   OH241567   8.514   2.379   5.310
13897TIP3    H141568   8.575   2.333   5.371
13897TIP3    H241569   8.535   2.472   5.335
13898TIP3   OH241570   8.373   3.806   4.807
13898TIP3    H141571   8.462   3.827   4.772
13898TIP3    H241572   8.351   3.730   4.749
13899TIP3   OH241573   9.096   3.923   4.901
13899TIP3    H141574   9.088   3.824   4.892
13899TIP3    H241575   9.045   3.951   4.823
13900TIP3   OH241576   8.305   2.456   6.691
13900TIP3    H141577   8.271   2.386   6.748
13900TIP3    H241578   8.400   2.457   6.718
13901TIP3   OH241579   8.554   2.455   6.811
13901TIP3    H141580   8.639   2.430   6.770
13901TIP3    H241581   8.542   2.383   6.876
13902TIP3   OH241582   7.677   3.642   4.866
13902TIP3    H141583   7.674   3.668   4.960
13902TIP3    H241584   7.766   3.602   4.858
13903TIP3   OH241585   9.378   2.519   6.598
13903TIP3    H141586   9.400   2.483   6.686
13903TIP3    H241587   9.465   2.514   6.551
13904TIP3   OH241588   9.318   4.068   6.091
13904TIP3    H141589   9.239   4.034   6.044
13904TIP3    H241590   9.296   4.163   6.096
13905TIP3   OH241591   9.540   2.950   5.130
13905TIP3    H141592   9.472   3.020   5.129
13905TIP3    H241593   9.492   2.881   5.079
13906TIP3   OH241594   9.598   3.238   5.284
13906TIP3    H141595   9.626   3.154   5.322
13906TIP3    H241596   9.635   3.230   5.195
13907TIP3   OH241597   9.451   3.475   4.871
13907TIP3    H141598   9.436   3.477   4.776
13907TIP3    H241599   9.488   3.564   4.889
13908TIP3   OH241600   9.641   3.582   5.773
13908TIP3    H141601   9.567   3.553   5.717
13908TIP3    H241602   9.674   3.498   5.812
13909TIP3   OH241603   9.501   3.794   5.417
13909TIP3    H141604   9.598   3.795   5.416
13909TIP3    H241605   9.482   3.870   5.474
13910TIP3   OH241606   9.630   4.017   4.968
13910TIP3    H141607   9.690   4.008   5.044
13910TIP3    H241608   9.593   3.927   4.962
13911TIP3   OH241609   9.786   3.807   5.800
13911TIP3    H141610   9.817   3.780   5.888
13911TIP3    H241611   9.722   3.734   5.783
13912TIP3   OH241612   9.556   2.687   5.398
13912TIP3    H141613   9.622   2.734   5.450
13912TIP3    H241614   9.569   2.723   5.309
13913TIP3   OH241615   9.742   3.380   5.929
13913TIP3    H141616   9.760   3.348   6.019
13913TIP3    H241617   9.673   3.317   5.901
13914TIP3   OH241618   9.523   3.149   4.615
13914TIP3    H141619   9.595   3.137   4.680
13914TIP3    H241620   9.446   3.123   4.672
13915TIP3   OH241621   9.683   3.981   5.571
13915TIP3    H141622   9.722   3.906   5.619
13915TIP3    H241623   9.710   4.054   5.627
13916TIP3   OH241624   9.523   3.749   4.920
13916TIP3    H141625   9.441   3.768   4.969
13916TIP3    H241626   9.500   3.786   4.832
13917TIP3   OH241627   9.672   4.277   5.986
13917TIP3    H141628   9.761   4.262   6.023
13917TIP3    H241629   9.641   4.185   5.982
13918TIP3   OH241630   9.807   3.717   6.173
13918TIP3    H141631   9.835   3.634   6.214
13918TIP3    H241632   9.722   3.694   6.130
13919TIP3   OH241633   9.379   3.489   4.557
13919TIP3    H141634   9.475   3.478   4.566
13919TIP3    H241635   9.358   3.406   4.508
13920TIP3   OH241636   9.294   4.099   4.975
13920TIP3    H141637   9.229   4.033   4.941
13920TIP3    H241638   9.341   4.043   5.042
13921TIP3   OH241639   9.419   3.953   5.171
13921TIP3    H141640   9.413   3.875   5.228
13921TIP3    H241641   9.478   4.009   5.225
13922TIP3   OH241642   9.643   3.349   5.533
13922TIP3    H141643   9.618   3.317   5.443
13922TIP3    H241644   9.727   3.395   5.515
13923TIP3   OH241645   9.819   3.029   6.192
13923TIP3    H141646   9.911   3.063   6.203
13923TIP3    H241647   9.818   2.954   6.255
13924TIP3   OH241648   9.593   3.028   5.582
13924TIP3    H141649   9.655   2.954   5.591
13924TIP3    H241650   9.637   3.101   5.628
13925TIP3   OH241651   9.546   2.562   5.099
13925TIP3    H141652   9.451   2.547   5.114
13925TIP3    H241653   9.548   2.580   5.004
13926TIP3   OH241654   9.836   4.031   6.030
13926TIP3    H141655   9.757   3.991   5.990
13926TIP3    H241656   9.844   3.982   6.113
13927TIP3   OH241657   9.689   4.303   5.575
13927TIP3    H141658   9.602   4.344   5.556
13927TIP3    H241659   9.705   4.338   5.664
13928TIP3   OH241660   9.941   4.296   5.448
13928TIP3    H141661   9.849   4.295   5.479
13928TIP3    H241662   9.931   4.319   5.354
13929TIP3   OH241663   9.613   4.100   5.322
13929TIP3    H141664   9.639   4.077   5.413
13929TIP3    H241665   9.689   4.062   5.273
13930TIP3   OH241666   9.817   3.989   5.165
13930TIP3    H141667   9.838   3.894   5.177
13930TIP3    H241668   9.907   4.028   5.177
13931TIP3   OH241669   9.398   3.866   4.714
13931TIP3    H141670   9.312   3.834   4.679
13931TIP3    H241671   9.389   3.961   4.695
13932TIP3   OH241672   9.500   3.918   4.368
13932TIP3    H141673   9.466   3.930   4.458
13932TIP3    H241674   9.550   3.835   4.377
13933TIP3   OH241675   1.241   3.969   7.061
13933TIP3    H141676   1.213   4.061   7.041
13933TIP3    H241677   1.164   3.921   7.026
13934TIP3   OH241678   1.240   3.970   7.438
13934TIP3    H141679   1.270   3.941   7.526
13934TIP3    H241680   1.197   3.891   7.403
13935TIP3   OH241681   0.538   3.866   7.799
13935TIP3    H141682   0.565   3.797   7.862
13935TIP3    H241683   0.614   3.926   7.801
13936TIP3   OH241684   1.483   4.272   7.122
13936TIP3    H141685   1.470   4.204   7.188
13936TIP3    H241686   1.512   4.348   7.175
13937TIP3   OH241687   0.519   4.275   7.531
13937TIP3    H141688   0.505   4.178   7.535
13937TIP3    H241689   0.616   4.279   7.527
13938TIP3   OH241690   0.174   3.475   7.315
13938TIP3    H141691   0.174   3.569   7.342
13938TIP3    H241692   0.164   3.430   7.401
13939TIP3   OH241693   0.284   3.764   7.484
13939TIP3    H141694   0.334   3.690   7.524
13939TIP3    H241695   0.342   3.795   7.414
13940TIP3   OH241696   1.131   4.734   7.139
13940TIP3    H141697   1.177   4.664   7.088
13940TIP3    H241698   1.130   4.696   7.227
13941TIP3   OH241699   1.039   4.196   7.488
13941TIP3    H141700   1.077   4.120   7.441
13941TIP3    H241701   1.123   4.241   7.512
13942TIP3   OH241702   2.052   3.515   7.487
13942TIP3    H141703   2.080   3.599   7.529
13942TIP3    H241704   2.072   3.534   7.393
13943TIP3   OH241705   1.450   3.697   7.522
13943TIP3    H141706   1.494   3.612   7.540
13943TIP3    H241707   1.420   3.683   7.431
13944TIP3   OH241708   0.789   3.357   7.487
13944TIP3    H141709   0.769   3.430   7.425
13944TIP3    H241710   0.741   3.284   7.443
13945TIP3   OH241711   1.483   3.449   7.110
13945TIP3    H141712   1.556   3.433   7.173
13945TIP3    H241713   1.533   3.484   7.034
13946TIP3   OH241714   0.424   3.556   7.587
13946TIP3    H141715   0.500   3.541   7.645
13946TIP3    H241716   0.446   3.498   7.512
13947TIP3   OH241717   0.864   3.757   7.382
13947TIP3    H141718   0.958   3.731   7.398
13947TIP3    H241719   0.825   3.673   7.352
13948TIP3   OH241720   2.124   3.722   7.659
13948TIP3    H141721   2.042   3.772   7.638
13948TIP3    H241722   2.145   3.759   7.747
13949TIP3   OH241723   0.785   3.340   7.921
13949TIP3    H141724   0.726   3.378   7.853
13949TIP3    H241725   0.734   3.361   8.002
13950TIP3   OH241726   1.132   4.190   6.931
13950TIP3    H141727   1.091   4.170   6.846
13950TIP3    H241728   1.089   4.275   6.953
13951TIP3   OH241729   0.894   4.115   7.717
13951TIP3    H141730   0.830   4.179   7.755
13951TIP3    H241731   0.935   4.167   7.645
13952TIP3   OH241732   1.695   3.449   7.280
13952TIP3    H141733   1.685   3.402   7.364
13952TIP3    H241734   1.748   3.527   7.306
13953TIP3   OH241735   0.656   3.455   7.707
13953TIP3    H141736   0.717   3.529   7.728
13953TIP3    H241737   0.704   3.415   7.631
13954TIP3   OH241738   0.722   4.306   7.811
13954TIP3    H141739   0.698   4.394   7.774
13954TIP3    H241740   0.643   4.292   7.869
13955TIP3   OH241741   0.168   4.020   6.996
13955TIP3    H141742   0.082   4.052   6.963
13955TIP3    H241743   0.180   4.075   7.075
13956TIP3   OH241744   1.553   4.514   7.289
13956TIP3    H141745   1.463   4.507   7.328
13956TIP3    H241746   1.547   4.601   7.244
13957TIP3   OH241747   1.845   3.414   7.652
13957TIP3    H141748   1.758   3.444   7.622
13957TIP3    H241749   1.904   3.447   7.581
13958TIP3   OH241750   1.145   3.061   7.636
13958TIP3    H141751   1.127   2.966   7.648
13958TIP3    H241752   1.066   3.100   7.681
13959TIP3   OH241753   1.256   4.563   6.964
13959TIP3    H141754   1.305   4.480   6.943
13959TIP3    H241755   1.317   4.628   6.922
13960TIP3   OH241756   1.397   4.348   6.870
13960TIP3    H141757   1.365   4.268   6.827
13960TIP3    H241758   1.433   4.312   6.954
13961TIP3   OH241759   1.780   4.428   7.634
13961TIP3    H141760   1.770   4.352   7.573
13961TIP3    H241761   1.763   4.504   7.573
13962TIP3   OH241762   1.072   3.822   6.890
13962TIP3    H141763   0.992   3.874   6.867
13962TIP3    H241764   1.118   3.819   6.804
13963TIP3   OH241765   1.030   3.606   6.608
13963TIP3    H141766   1.099   3.657   6.655
13963TIP3    H241767   1.086   3.542   6.560
13964TIP3   OH241768   1.975   4.063   7.477
13964TIP3    H141769   1.893   4.116   7.482
13964TIP3    H241770   2.006   4.088   7.387
13965TIP3   OH241771   1.418   3.904   6.862
13965TIP3    H141772   1.364   3.929   6.941
13965TIP3    H241773   1.503   3.879   6.905
13966TIP3   OH241774   1.654   3.944   7.773
13966TIP3    H141775   1.652   4.028   7.822
13966TIP3    H241776   1.568   3.949   7.727
13967TIP3   OH241777   0.652   3.903   7.278
13967TIP3    H141778   0.610   3.845   7.211
13967TIP3    H241779   0.730   3.849   7.306
13968TIP3   OH241780   0.786   4.318   7.424
13968TIP3    H141781   0.763   4.270   7.343
13968TIP3    H241782   0.875   4.282   7.444
13969TIP3   OH241783   0.796   3.871   7.633
13969TIP3    H141784   0.824   3.855   7.541
13969TIP3    H241785   0.833   3.959   7.653
13970TIP3   OH241786   1.311   4.512   7.409
13970TIP3    H141787   1.300   4.591   7.463
13970TIP3    H241788   1.298   4.439   7.473
13971TIP3   OH241789   0.926   4.430   7.957
13971TIP3    H141790   0.866   4.494   8.003
13971TIP3    H241791   0.860   4.377   7.907
13972TIP3   OH241792   1.260   3.763   6.687
13972TIP3    H141793   1.319   3.822   6.739
13972TIP3    H241794   1.286   3.786   6.595
13973TIP3   OH241795   0.691   3.988   8.053
13973TIP3    H141796   0.692   4.078   8.093
13973TIP3    H241797   0.596   3.966   8.066
13974TIP3   OH241798   1.002   4.443   6.963
13974TIP3    H141799   1.081   4.496   6.980
13974TIP3    H241800   0.940   4.506   6.925
13975TIP3   OH241801   0.724   4.602   8.044
13975TIP3    H141802   0.688   4.596   7.953
13975TIP3    H241803   0.652   4.562   8.098
13976TIP3   OH241804   1.776   3.004   6.736
13976TIP3    H141805   1.694   3.024   6.786
13976TIP3    H241806   1.789   3.087   6.686
13977TIP3   OH241807   0.520   3.743   7.088
13977TIP3    H141808   0.460   3.786   7.024
13977TIP3    H241809   0.477   3.658   7.099
13978TIP3   OH241810   1.574   4.371   6.286
13978TIP3    H141811   1.583   4.467   6.269
13978TIP3    H241812   1.667   4.341   6.273
13979TIP3   OH241813   0.301   4.143   7.985
13979TIP3    H141814   0.251   4.104   7.912
13979TIP3    H241815   0.334   4.062   8.029
13980TIP3   OH241816   2.019   4.772   7.681
13980TIP3    H141817   2.016   4.676   7.694
13980TIP3    H241818   1.935   4.800   7.725
13981TIP3   OH241819   1.122   4.560   7.813
13981TIP3    H141820   1.122   4.653   7.846
13981TIP3    H241821   1.052   4.520   7.868
13982TIP3   OH241822   0.882   4.688   6.765
13982TIP3    H141823   0.838   4.669   6.680
13982TIP3    H241824   0.851   4.778   6.786
13983TIP3   OH241825   0.362   4.525   7.119
13983TIP3    H141826   0.380   4.500   7.211
13983TIP3    H241827   0.275   4.485   7.100
13984TIP3   OH241828   1.084   4.589   6.406
13984TIP3    H141829   1.144   4.520   6.369
13984TIP3    H241830   1.120   4.598   6.497
13985TIP3   OH241831   1.135   4.638   6.676
13985TIP3    H141832   1.047   4.646   6.720
13985TIP3    H241833   1.187   4.596   6.746
13986TIP3   OH241834   1.907   3.902   7.955
13986TIP3    H141835   1.828   3.919   7.902
13986TIP3    H241836   1.921   3.807   7.942
13987TIP3   OH241837   0.511   4.316   7.978
13987TIP3    H141838   0.555   4.308   8.065
13987TIP3    H241839   0.438   4.251   7.986
13988TIP3   OH241840   0.906   3.134   7.764
13988TIP3    H141841   0.816   3.102   7.738
13988TIP3    H241842   0.880   3.219   7.806
13989TIP3   OH241843   1.436   3.250   7.956
13989TIP3    H141844   1.503   3.225   8.023
13989TIP3    H241845   1.351   3.232   8.002
13990TIP3   OH241846   1.677   3.680   7.875
13990TIP3    H141847   1.626   3.677   7.959
13990TIP3    H241848   1.653   3.767   7.839
13991TIP3   OH241849   1.335   3.811   6.432
13991TIP3    H141850   1.302   3.784   6.344
13991TIP3    H241851   1.417   3.858   6.407
13992TIP3   OH241852   1.048   3.183   6.732
13992TIP3    H141853   1.012   3.178   6.822
13992TIP3    H241854   1.010   3.102   6.693
13993TIP3   OH241855   0.837   3.650   7.782
13993TIP3    H141856   0.784   3.672   7.862
13993TIP3    H241857   0.822   3.730   7.728
13994TIP3   OH241858   0.719   3.536   7.296
13994TIP3    H141859   0.625   3.513   7.311
13994TIP3    H241860   0.733   3.497   7.207
13995TIP3   OH241861   1.210   3.623   7.023
13995TIP3    H141862   1.156   3.695   6.981
13995TIP3    H241863   1.264   3.593   6.947
13996TIP3   OH241864   1.383   3.901   8.109
13996TIP3    H141865   1.362   3.829   8.172
13996TIP3    H241866   1.477   3.918   8.131
13997TIP3   OH241867   1.366   3.652   7.263
13997TIP3    H141868   1.307   3.684   7.192
13997TIP3    H241869   1.399   3.571   7.220
13998TIP3   OH241870   0.659   3.682   7.988
13998TIP3    H141871   0.667   3.749   8.057
13998TIP3    H241872   0.642   3.601   8.039
13999TIP3   OH241873   0.708   3.157   6.703
13999TIP3    H141874   0.697   3.150   6.800
13999TIP3    H241875   0.627   3.205   6.678
14000TIP3   OH241876   0.244   3.224   7.538
14000TIP3    H141877   0.302   3.243   7.614
14000TIP3    H241878   0.288   3.147   7.500
14001TIP3   OH241879   0.235   3.210   7.108
14001TIP3    H141880   0.269   3.227   7.018
14001TIP3    H241881   0.182   3.290   7.120
14002TIP3   OH241882   1.377   3.898   7.686
14002TIP3    H141883   1.409   3.826   7.628
14002TIP3    H241884   1.347   3.846   7.763
14003TIP3   OH241885   1.046   3.358   7.358
14003TIP3    H141886   0.962   3.357   7.408
14003TIP3    H241887   1.112   3.363   7.429
14004TIP3   OH241888   0.476   3.412   7.357
14004TIP3    H141889   0.386   3.404   7.323
14004TIP3    H241890   0.512   3.322   7.344
14005TIP3   OH241891   0.750   3.413   7.053
14005TIP3    H141892   0.845   3.425   7.031
14005TIP3    H241893   0.704   3.435   6.969
14006TIP3   OH241894   1.539   3.434   7.559
14006TIP3    H141895   1.503   3.447   7.649
14006TIP3    H241896   1.472   3.373   7.522
14007TIP3   OH241897   0.588   3.446   6.831
14007TIP3    H141898   0.521   3.399   6.780
14007TIP3    H241899   0.643   3.482   6.758
14008TIP3   OH241900   1.702   5.121   7.776
14008TIP3    H141901   1.703   5.149   7.683
14008TIP3    H241902   1.783   5.167   7.810
14009TIP3   OH241903   0.674   4.228   8.198
14009TIP3    H141904   0.752   4.264   8.245
14009TIP3    H241905   0.605   4.240   8.266
14010TIP3   OH241906   1.129   3.685   7.453
14010TIP3    H141907   1.203   3.649   7.402
14010TIP3    H241908   1.142   3.645   7.541
14011TIP3   OH241909   0.653   3.178   7.332
14011TIP3    H141910   0.619   3.097   7.376
14011TIP3    H241911   0.700   3.141   7.255
14012TIP3   OH241912   1.106   3.580   7.750
14012TIP3    H141913   1.016   3.619   7.758
14012TIP3    H241914   1.163   3.645   7.796
14013TIP3   OH241915   0.842   3.976   6.838
14013TIP3    H141916   0.770   3.910   6.828
14013TIP3    H241917   0.825   4.009   6.930
14014TIP3   OH241918   1.744   4.211   7.469
14014TIP3    H141919   1.768   4.261   7.388
14014TIP3    H241920   1.658   4.170   7.444
14015TIP3   OH241921   1.301   3.286   6.703
14015TIP3    H141922   1.204   3.270   6.709
14015TIP3    H241923   1.309   3.382   6.724
14016TIP3   OH241924   1.241   4.292   7.837
14016TIP3    H141925   1.265   4.272   7.928
14016TIP3    H241926   1.204   4.382   7.843
14017TIP3   OH241927   1.370   3.535   6.805
14017TIP3    H141928   1.467   3.541   6.819
14017TIP3    H241929   1.352   3.614   6.751
14018TIP3   OH241930   0.539   4.001   7.515
14018TIP3    H141931   0.577   3.967   7.432
14018TIP3    H241932   0.566   3.933   7.579
14019TIP3   OH241933   0.987   4.124   6.659
14019TIP3    H141934   0.940   4.211   6.666
14019TIP3    H241935   0.934   4.069   6.720
14020TIP3   OH241936   0.439   3.917   8.129
14020TIP3    H141937   0.446   3.909   8.225
14020TIP3    H241938   0.348   3.884   8.111
14021TIP3   OH241939   1.140   4.030   8.150
14021TIP3    H141940   1.079   3.973   8.100
14021TIP3    H241941   1.226   3.997   8.118
14022TIP3   OH241942   1.402   4.550   7.733
14022TIP3    H141943   1.306   4.551   7.745
14022TIP3    H241944   1.431   4.604   7.810
14023TIP3   OH241945   1.813   3.625   6.641
14023TIP3    H141946   1.750   3.580   6.579
14023TIP3    H241947   1.810   3.713   6.599
14024TIP3   OH241948   2.030   4.479   7.724
14024TIP3    H141949   1.932   4.476   7.714
14024TIP3    H241950   2.056   4.451   7.633
14025TIP3   OH241951   1.509   4.444   6.548
14025TIP3    H141952   1.489   4.371   6.608
14025TIP3    H241953   1.525   4.399   6.463
14026TIP3   OH241954   1.508   4.073   7.389
14026TIP3    H141955   1.415   4.048   7.401
14026TIP3    H241956   1.542   3.994   7.343
14027TIP3   OH241957   0.639   4.300   7.137
14027TIP3    H141958   0.642   4.381   7.082
14027TIP3    H241959   0.544   4.291   7.153
14028TIP3   OH241960   0.199   3.608   6.847
14028TIP3    H141961   0.266   3.679   6.855
14028TIP3    H241962   0.129   3.648   6.902
14029TIP3   OH241963   0.776   4.066   7.084
14029TIP3    H141964   0.741   4.156   7.102
14029TIP3    H241965   0.739   4.016   7.159
14030TIP3   OH241966   0.905   4.647   7.607
14030TIP3    H141967   0.950   4.718   7.557
14030TIP3    H241968   0.980   4.610   7.657
14031TIP3   OH241969   0.588   4.544   6.979
14031TIP3    H141970   0.502   4.545   7.027
14031TIP3    H241971   0.610   4.639   6.983
14032TIP3   OH241972   1.294   4.278   7.567
14032TIP3    H141973   1.285   4.277   7.665
14032TIP3    H241974   1.374   4.227   7.554
14033TIP3   OH241975   1.266   4.171   6.452
14033TIP3    H141976   1.320   4.147   6.530
14033TIP3    H241977   1.178   4.144   6.482
14034TIP3   OH241978   1.542   4.812   7.618
14034TIP3    H141979   1.462   4.757   7.609
14034TIP3    H241980   1.527   4.878   7.547
14035TIP3   OH241981   1.607   4.646   6.271
14035TIP3    H141982   1.648   4.717   6.218
14035TIP3    H241983   1.527   4.694   6.302
14036TIP3   OH241984   0.635   3.419   8.144
14036TIP3    H141985   0.542   3.432   8.167
14036TIP3    H241986   0.664   3.356   8.212
14037TIP3   OH241987   1.427   4.108   6.669
14037TIP3    H141988   1.417   4.039   6.739
14037TIP3    H241989   1.524   4.104   6.655
14038TIP3   OH241990   0.379   4.531   7.759
14038TIP3    H141991   0.405   4.438   7.769
14038TIP3    H241992   0.378   4.559   7.851
14039TIP3   OH241993   0.632   4.153   6.450
14039TIP3    H141994   0.648   4.061   6.420
14039TIP3    H241995   0.615   4.139   6.545
14040TIP3   OH241996   0.582   4.157   6.724
14040TIP3    H141997   0.654   4.130   6.782
14040TIP3    H241998   0.586   4.255   6.729
14041TIP3   OH241999   0.340   3.837   6.904
14041TIP3    H142000   0.274   3.892   6.953
14041TIP3    H242001   0.360   3.901   6.834
14042TIP3   OH242002   1.463   3.488   7.817
14042TIP3    H142003   1.543   3.527   7.856
14042TIP3    H242004   1.449   3.407   7.871
14043TIP3   OH242005   1.342   3.239   6.983
14043TIP3    H142006   1.327   3.261   6.888
14043TIP3    H242007   1.381   3.323   7.017
14044TIP3   OH242008   0.845   4.354   6.672
14044TIP3    H142009   0.758   4.382   6.706
14044TIP3    H242010   0.862   4.424   6.607
14045TIP3   OH242011   1.035   3.418   7.085
14045TIP3    H142012   1.099   3.490   7.066
14045TIP3    H242013   1.039   3.413   7.183
14046TIP3   OH242014   1.302   3.737   7.893
14046TIP3    H142015   1.321   3.793   7.971
14046TIP3    H242016   1.358   3.659   7.907
14047TIP3   OH242017   1.179   3.147   7.190
14047TIP3    H142018   1.166   3.227   7.244
14047TIP3    H242019   1.238   3.182   7.119
14048TIP3   OH242020   0.586   4.429   6.732
14048TIP3    H142021   0.556   4.501   6.672
14048TIP3    H242022   0.582   4.473   6.820
14049TIP3   OH242023   0.686   3.144   6.981
14049TIP3    H142024   0.691   3.236   7.014
14049TIP3    H242025   0.781   3.120   6.985
14050TIP3   OH242026   1.943   3.634   7.876
14050TIP3    H142027   1.845   3.633   7.880
14050TIP3    H242028   1.957   3.606   7.784
14051TIP3   OH242029   1.594   3.831   7.262
14051TIP3    H142030   1.518   3.771   7.273
14051TIP3    H242031   1.666   3.784   7.309
14052TIP3   OH242032   0.317   4.070   6.721
14052TIP3    H142033   0.392   4.130   6.736
14052TIP3    H242034   0.357   4.011   6.654
14053TIP3   OH242035   0.246   3.335   6.867
14053TIP3    H142036   0.247   3.432   6.866
14053TIP3    H242037   0.179   3.314   6.801
14054TIP3   OH242038   1.562   4.786   7.210
14054TIP3    H142039   1.520   4.833   7.135
14054TIP3    H242040   1.657   4.805   7.191
14055TIP3   OH242041   0.643   3.051   7.740
14055TIP3    H142042   0.608   3.023   7.652
14055TIP3    H242043   0.622   2.973   7.795
14056TIP3   OH242044   0.201   4.243   7.154
14056TIP3    H142045   0.114   4.285   7.147
14056TIP3    H242046   0.240   4.273   7.070
14057TIP3   OH242047   0.810   4.790   8.232
14057TIP3    H142048   0.904   4.768   8.245
14057TIP3    H242049   0.787   4.727   8.161
14058TIP3   OH242050   0.797   4.356   6.364
14058TIP3    H142051   0.741   4.284   6.401
14058TIP3    H242052   0.873   4.305   6.331
14059TIP3   OH242053   1.454   4.687   7.968
14059TIP3    H142054   1.446   4.617   8.037
14059TIP3    H242055   1.532   4.738   7.997
14060TIP3   OH242056   1.232   4.398   6.274
14060TIP3    H142057   1.279   4.335   6.332
14060TIP3    H242058   1.288   4.398   6.194
14061TIP3   OH242059   0.482   4.206   8.397
14061TIP3    H142060   0.516   4.115   8.395
14061TIP3    H242061   0.387   4.188   8.380
14062TIP3   OH242062   0.445   3.873   6.584
14062TIP3    H142063   0.501   3.838   6.655
14062TIP3    H242064   0.511   3.877   6.511
14063TIP3   OH242065   1.073   4.306   8.163
14063TIP3    H142066   1.030   4.323   8.077
14063TIP3    H242067   1.103   4.213   8.155
14064TIP3   OH242068   0.947   4.071   6.390
14064TIP3    H142069   0.953   4.083   6.487
14064TIP3    H242070   0.949   3.973   6.385
14065TIP3   OH242071   1.565   4.314   7.770
14065TIP3    H142072   1.639   4.359   7.726
14065TIP3    H242073   1.494   4.380   7.757
14066TIP3   OH242074   0.570   3.938   8.389
14066TIP3    H142075   0.651   3.899   8.354
14066TIP3    H242076   0.602   3.976   8.474
14067TIP3   OH242077   0.650   3.777   6.806
14067TIP3    H142078   0.624   3.733   6.888
14067TIP3    H242079   0.687   3.701   6.754
14068TIP3   OH242080   0.925   3.843   8.038
14068TIP3    H142081   0.844   3.899   8.037
14068TIP3    H242082   0.970   3.874   7.956
14069TIP3   OH242083   0.750   3.570   6.647
14069TIP3    H142084   0.724   3.571   6.553
14069TIP3    H242085   0.847   3.574   6.640
14070TIP3   OH242086   1.434   4.242   8.169
14070TIP3    H142087   1.515   4.223   8.121
14070TIP3    H242088   1.434   4.175   8.239
14071TIP3   OH242089   1.571   3.901   6.310
14071TIP3    H142090   1.552   3.855   6.226
14071TIP3    H242091   1.540   3.991   6.285
14072TIP3   OH242092   1.043   3.628   8.160
14072TIP3    H142093   1.040   3.550   8.102
14072TIP3    H242094   1.000   3.697   8.104
14073TIP3   OH242095   1.044   3.412   7.967
14073TIP3    H142096   1.071   3.457   7.885
14073TIP3    H242097   0.950   3.392   7.948
14074TIP3   OH242098   1.075   3.951   7.839
14074TIP3    H142099   1.156   3.963   7.788
14074TIP3    H242100   1.016   4.017   7.797
14075TIP3   OH242101   1.656   3.918   8.224
14075TIP3    H142102   1.708   3.837   8.225
14075TIP3    H242103   1.719   3.982   8.189
14076TIP3   OH242104   1.695   4.169   7.957
14076TIP3    H142105   1.637   4.223   7.898
14076TIP3    H242106   1.782   4.191   7.917
14077TIP3   OH242107   0.921   3.741   8.391
14077TIP3    H142108   0.851   3.673   8.403
14077TIP3    H242109   0.953   3.720   8.302
14078TIP3   OH242110   1.176   3.180   8.037
14078TIP3    H142111   1.129   3.262   8.011
14078TIP3    H242112   1.107   3.113   8.021
14079TIP3   OH242113   1.303   3.682   8.251
14079TIP3    H142114   1.287   3.675   8.346
14079TIP3    H242115   1.214   3.659   8.217
14080TIP3   OH242116   1.541   3.630   8.104
14080TIP3    H142117   1.465   3.635   8.166
14080TIP3    H242118   1.614   3.603   8.163
14081TIP3   OH242119   1.770   3.573   8.258
14081TIP3    H142120   1.782   3.478   8.277
14081TIP3    H242121   1.766   3.613   8.347
14082TIP3   OH242122   0.754   3.528   8.438
14082TIP3    H142123   0.763   3.438   8.402
14082TIP3    H242124   0.796   3.515   8.527
14083TIP3   OH242125   1.269   3.184   8.294
14083TIP3    H142126   1.338   3.116   8.282
14083TIP3    H242127   1.228   3.184   8.205
14084TIP3   OH242128   1.334   3.403   8.451
14084TIP3    H142129   1.311   3.334   8.384
14084TIP3    H242130   1.259   3.465   8.444
14085TIP3   OH242131   0.557   4.637   6.551
14085TIP3    H142132   0.652   4.628   6.533
14085TIP3    H242133   0.529   4.682   6.469
14086TIP3   OH242134   0.049   4.033   6.705
14086TIP3    H142135   0.142   4.044   6.733
14086TIP3    H242136   0.044   3.935   6.697
14087TIP3   OH242137   1.813   4.880   7.166
14087TIP3    H142138   1.840   4.913   7.254
14087TIP3    H242139   1.877   4.924   7.108
14088TIP3   OH242140   1.842   4.899   7.448
14088TIP3    H142141   1.804   4.809   7.446
14088TIP3    H242142   1.920   4.883   7.504
14089TIP3   OH242143   1.891   4.574   8.023
14089TIP3    H142144   1.817   4.584   8.086
14089TIP3    H242145   1.932   4.663   8.026
14090TIP3   OH242146   1.706   4.089   6.642
14090TIP3    H142147   1.774   4.152   6.612
14090TIP3    H242148   1.750   4.050   6.721
14091TIP3   OH242149   1.835   3.956   6.845
14091TIP3    H142150   1.769   3.914   6.905
14091TIP3    H242151   1.899   3.994   6.908
14092TIP3   OH242152   1.887   4.346   7.278
14092TIP3    H142153   1.941   4.283   7.226
14092TIP3    H242154   1.881   4.423   7.217
14093TIP3   OH242155   1.720   4.646   7.475
14093TIP3    H142156   1.650   4.691   7.525
14093TIP3    H242157   1.670   4.600   7.405
14094TIP3   OH242158   1.772   3.863   6.493
14094TIP3    H142159   1.701   3.866   6.425
14094TIP3    H242160   1.745   3.940   6.548
14095TIP3   OH242161   1.643   3.536   6.449
14095TIP3    H142162   1.604   3.576   6.371
14095TIP3    H242163   1.617   3.442   6.438
14096TIP3   OH242164   1.648   3.812   6.993
14096TIP3    H142165   1.656   3.716   6.986
14096TIP3    H242166   1.635   3.826   7.089
14097TIP3   OH242167   0.277   3.926   7.717
14097TIP3    H142168   0.274   3.874   7.634
14097TIP3    H242169   0.368   3.906   7.748
14098TIP3   OH242170   1.937   4.236   7.849
14098TIP3    H142171   2.011   4.172   7.839
14098TIP3    H242172   1.964   4.308   7.789
14099TIP3   OH242173   2.122   4.042   7.867
14099TIP3    H142174   2.048   3.991   7.908
14099TIP3    H242175   2.195   3.979   7.880
14100TIP3   OH242176   1.587   3.270   6.434
14100TIP3    H142177   1.661   3.239   6.490
14100TIP3    H242178   1.513   3.212   6.457
14101TIP3   OH242179   1.645   3.528   6.888
14101TIP3    H142180   1.686   3.439   6.903
14101TIP3    H242181   1.703   3.561   6.817
14102TIP3   OH242182   1.807   3.702   7.383
14102TIP3    H142183   1.893   3.728   7.342
14102TIP3    H242184   1.821   3.740   7.472
14103TIP3   OH242185   1.875   3.846   7.616
14103TIP3    H142186   1.797   3.881   7.663
14103TIP3    H242187   1.908   3.926   7.569
14104TIP3   OH242188   0.482   3.549   8.420
14104TIP3    H142189   0.576   3.570   8.404
14104TIP3    H242190   0.491   3.484   8.490
14105TIP3   OH242191   2.327   3.434   8.172
14105TIP3    H142192   2.386   3.371   8.126
14105TIP3    H242193   2.297   3.491   8.098
14106TIP3   OH242194   1.754   3.278   6.926
14106TIP3    H142195   1.802   3.261   7.010
14106TIP3    H242196   1.693   3.201   6.924
14107TIP3   OH242197   0.451   3.253   7.729
14107TIP3    H142198   0.520   3.187   7.745
14107TIP3    H242199   0.501   3.336   7.739
14108TIP3   OH242200   0.294   3.550   7.842
14108TIP3    H142201   0.313   3.536   7.748
14108TIP3    H242202   0.254   3.638   7.842
14109TIP3   OH242203   2.198   3.576   7.981
14109TIP3    H142204   2.112   3.618   8.000
14109TIP3    H242205   2.168   3.507   7.918
14110TIP3   OH242206   1.836   3.212   6.559
14110TIP3    H142207   1.875   3.141   6.504
14110TIP3    H242208   1.902   3.284   6.550
14111TIP3   OH242209   0.235   3.028   7.302
14111TIP3    H142210   0.152   3.058   7.340
14111TIP3    H242211   0.247   3.094   7.231
14112TIP3   OH242212   1.396   4.747   6.823
14112TIP3    H142213   1.448   4.730   6.742
14112TIP3    H242214   1.453   4.809   6.871
14113TIP3   OH242215   0.457   3.127   8.149
14113TIP3    H142216   0.389   3.120   8.218
14113TIP3    H242217   0.406   3.165   8.076
14114TIP3   OH242218   0.531   4.510   8.217
14114TIP3    H142219   0.446   4.555   8.201
14114TIP3    H242220   0.532   4.507   8.314
14115TIP3   OH242221   0.687   4.576   7.762
14115TIP3    H142222   0.627   4.643   7.724
14115TIP3    H242223   0.769   4.598   7.713
14116TIP3   OH242224   1.124   4.827   7.895
14116TIP3    H142225   1.166   4.827   7.984
14116TIP3    H242226   1.191   4.877   7.843
14117TIP3   OH242227   1.303   4.978   7.753
14117TIP3    H142228   1.375   4.927   7.713
14117TIP3    H242229   1.354   5.036   7.814
14118TIP3   OH242230   2.095   3.341   7.855
14118TIP3    H142231   2.006   3.340   7.817
14118TIP3    H242232   2.124   3.248   7.841
14119TIP3   OH242233   0.587   4.819   7.646
14119TIP3    H142234   0.499   4.821   7.686
14119TIP3    H242235   0.570   4.850   7.556
14120TIP3   OH242236   1.018   4.847   7.437
14120TIP3    H142237   0.951   4.869   7.369
14120TIP3    H242238   1.031   4.933   7.481
14121TIP3   OH242239   1.286   4.784   7.488
14121TIP3    H142240   1.192   4.803   7.467
14121TIP3    H242241   1.331   4.860   7.447
14122TIP3   OH242242   1.488   4.975   7.403
14122TIP3    H142243   1.478   5.061   7.356
14122TIP3    H242244   1.519   4.916   7.331
14123TIP3   OH242245   0.316   4.657   7.514
14123TIP3    H142246   0.336   4.616   7.602
14123TIP3    H242247   0.369   4.597   7.458
14124TIP3   OH242248   0.467   4.485   7.369
14124TIP3    H142249   0.479   4.405   7.426
14124TIP3    H242250   0.558   4.522   7.369
14125TIP3   OH242251   0.730   4.600   7.386
14125TIP3    H142252   0.760   4.509   7.371
14125TIP3    H242253   0.775   4.618   7.471
14126TIP3   OH242254   1.306   3.257   7.478
14126TIP3    H142255   1.259   3.187   7.526
14126TIP3    H242256   1.372   3.207   7.427
14127TIP3   OH242257   1.827   3.136   7.382
14127TIP3    H142258   1.863   3.187   7.307
14127TIP3    H242259   1.731   3.152   7.373
14128TIP3   OH242260   1.920   3.233   7.144
14128TIP3    H142261   1.993   3.183   7.101
14128TIP3    H242262   1.952   3.325   7.129
14129TIP3   OH242263   0.549   2.964   7.491
14129TIP3    H142264   0.457   2.929   7.488
14129TIP3    H242265   0.599   2.880   7.485
14130TIP3   OH242266   0.350   2.827   7.148
14130TIP3    H142267   0.366   2.883   7.070
14130TIP3    H242268   0.312   2.893   7.210
14131TIP3   OH242269   0.995   2.994   7.371
14131TIP3    H142270   1.050   3.043   7.308
14131TIP3    H242271   1.014   3.039   7.454
14132TIP3   OH242272   1.545   3.142   7.353
14132TIP3    H142273   1.536   3.108   7.263
14132TIP3    H242274   1.528   3.060   7.406
14133TIP3   OH242275   1.571   3.065   6.917
14133TIP3    H142276   1.483   3.106   6.924
14133TIP3    H242277   1.555   2.979   6.962
14134TIP3   OH242278   0.460   2.991   6.897
14134TIP3    H142279   0.517   2.922   6.857
14134TIP3    H242280   0.527   3.049   6.937
14135TIP3   OH242281   0.964   3.169   6.998
14135TIP3    H142282   1.023   3.116   7.054
14135TIP3    H242283   0.990   3.260   7.025
14136TIP3   OH242284   0.825   4.594   6.498
14136TIP3    H142285   0.914   4.615   6.464
14136TIP3    H242286   0.803   4.518   6.440
14137TIP3   OH242287   1.542   4.710   6.593
14137TIP3    H142288   1.535   4.612   6.580
14137TIP3    H242289   1.501   4.742   6.510
14138TIP3   OH242290   0.757   3.246   8.377
14138TIP3    H142291   0.724   3.172   8.431
14138TIP3    H242292   0.851   3.247   8.407
14139TIP3   OH242293   1.008   3.236   8.500
14139TIP3    H142294   1.092   3.217   8.454
14139TIP3    H242295   0.999   3.160   8.559
14140TIP3   OH242296   0.147   4.435   6.595
14140TIP3    H142297   0.170   4.527   6.617
14140TIP3    H242298   0.231   4.397   6.561
14141TIP3   OH242299   1.832   3.301   8.287
14141TIP3    H142300   1.855   3.271   8.378
14141TIP3    H242301   1.920   3.300   8.243
14142TIP3   OH242302   1.772   4.855   7.780
14142TIP3    H142303   1.692   4.826   7.731
14142TIP3    H242304   1.755   4.952   7.782
14143TIP3   OH242305   3.036   4.227   6.546
14143TIP3    H142306   3.007   4.318   6.523
14143TIP3    H242307   2.960   4.177   6.511
14144TIP3   OH242308   3.041   4.227   6.924
14144TIP3    H142309   3.066   4.196   7.012
14144TIP3    H242310   2.995   4.150   6.887
14145TIP3   OH242311   2.336   4.123   7.292
14145TIP3    H142312   2.369   4.057   7.355
14145TIP3    H242313   2.413   4.181   7.284
14146TIP3   OH242314   3.290   4.521   6.608
14146TIP3    H142315   3.259   4.459   6.675
14146TIP3    H242316   3.302   4.602   6.659
14147TIP3   OH242317   2.306   4.531   7.018
14147TIP3    H142318   2.298   4.433   7.020
14147TIP3    H242319   2.402   4.541   7.011
14148TIP3   OH242320   2.013   3.734   6.804
14148TIP3    H142321   1.966   3.818   6.817
14148TIP3    H242322   1.943   3.681   6.763
14149TIP3   OH242323   2.073   4.023   6.973
14149TIP3    H142324   2.122   3.946   7.009
14149TIP3    H242325   2.132   4.053   6.903
14150TIP3   OH242326   2.929   4.994   6.626
14150TIP3    H142327   2.974   4.924   6.575
14150TIP3    H242328   2.921   4.952   6.712
14151TIP3   OH242329   2.834   4.452   6.976
14151TIP3    H142330   2.871   4.379   6.924
14151TIP3    H242331   2.918   4.496   7.001
14152TIP3   OH242332   3.842   3.773   6.973
14152TIP3    H142333   3.873   3.856   7.015
14152TIP3    H242334   3.871   3.785   6.881
14153TIP3   OH242335   3.247   3.954   7.009
14153TIP3    H142336   3.290   3.868   7.027
14153TIP3    H242337   3.217   3.940   6.917
14154TIP3   OH242338   2.585   3.613   6.974
14154TIP3    H142339   2.565   3.686   6.912
14154TIP3    H242340   2.537   3.540   6.929
14155TIP3   OH242341   3.278   3.705   6.597
14155TIP3    H142342   3.352   3.689   6.660
14155TIP3    H242343   3.329   3.740   6.521
14156TIP3   OH242344   2.218   3.816   7.080
14156TIP3    H142345   2.301   3.796   7.127
14156TIP3    H242346   2.230   3.760   7.000
14157TIP3   OH242347   2.660   4.013   6.873
14157TIP3    H142348   2.753   3.988   6.885
14157TIP3    H242349   2.620   3.930   6.840
14158TIP3   OH242350   3.917   3.979   7.144
14158TIP3    H142351   3.833   4.027   7.130
14158TIP3    H242352   3.942   4.013   7.232
14159TIP3   OH242353   2.581   3.597   7.408
14159TIP3    H142354   2.522   3.634   7.339
14159TIP3    H242355   2.529   3.617   7.488
14160TIP3   OH242356   2.928   4.446   6.418
14160TIP3    H142357   2.893   4.428   6.328
14160TIP3    H242358   2.884   4.530   6.439
14161TIP3   OH242359   2.688   4.372   7.204
14161TIP3    H142360   2.625   4.438   7.241
14161TIP3    H242361   2.730   4.423   7.132
14162TIP3   OH242362   3.490   3.706   6.767
14162TIP3    H142363   3.482   3.657   6.849
14162TIP3    H242364   3.545   3.782   6.794
14163TIP3   OH242365   2.452   3.712   7.192
14163TIP3    H142366   2.514   3.785   7.215
14163TIP3    H242367   2.501   3.672   7.116
14164TIP3   OH242368   2.516   4.565   7.299
14164TIP3    H142369   2.491   4.651   7.260
14164TIP3    H242370   2.437   4.551   7.356
14165TIP3   OH242371   1.910   4.255   6.536
14165TIP3    H142372   1.872   4.281   6.450
14165TIP3    H242373   1.941   4.341   6.572
14166TIP3   OH242374   3.356   4.771   6.776
14166TIP3    H142375   3.267   4.762   6.817
14166TIP3    H242376   3.344   4.856   6.728
14167TIP3   OH242377   3.641   3.669   7.142
14167TIP3    H142378   3.554   3.698   7.112
14167TIP3    H242379   3.700   3.701   7.070
14168TIP3   OH242380   2.942   3.317   7.124
14168TIP3    H142381   2.924   3.222   7.136
14168TIP3    H242382   2.863   3.355   7.168
14169TIP3   OH242383   3.057   4.819   6.460
14169TIP3    H142384   3.103   4.737   6.432
14169TIP3    H242385   3.111   4.885   6.412
14170TIP3   OH242386   3.192   4.603   6.359
14170TIP3    H142387   3.163   4.526   6.308
14170TIP3    H242388   3.230   4.562   6.439
14171TIP3   OH242389   3.578   4.685   7.120
14171TIP3    H142390   3.561   4.608   7.062
14171TIP3    H242391   3.556   4.761   7.061
14172TIP3   OH242392   2.868   4.079   6.377
14172TIP3    H142393   2.787   4.132   6.357
14172TIP3    H242394   2.912   4.079   6.291
14173TIP3   OH242395   2.829   3.862   6.099
14173TIP3    H142396   2.897   3.913   6.145
14173TIP3    H242397   2.885   3.800   6.048
14174TIP3   OH242398   3.766   4.322   6.976
14174TIP3    H142399   3.687   4.380   6.983
14174TIP3    H242400   3.764   4.297   6.883
14175TIP3   OH242401   3.215   4.160   6.350
14175TIP3    H142402   3.159   4.187   6.426
14175TIP3    H242403   3.298   4.135   6.396
14176TIP3   OH242404   3.450   4.201   7.260
14176TIP3    H142405   3.448   4.284   7.311
14176TIP3    H242406   3.363   4.205   7.216
14177TIP3   OH242407   2.445   4.159   6.767
14177TIP3    H142408   2.404   4.102   6.699
14177TIP3    H242409   2.524   4.106   6.793
14178TIP3   OH242410   2.575   4.568   6.915
14178TIP3    H142411   2.555   4.530   6.828
14178TIP3    H242412   2.665   4.536   6.932
14179TIP3   OH242413   2.586   4.129   7.120
14179TIP3    H142414   2.617   4.110   7.029
14179TIP3    H242415   2.627   4.216   7.139
14180TIP3   OH242416   3.116   4.766   6.898
14180TIP3    H142417   3.097   4.847   6.947
14180TIP3    H242418   3.096   4.695   6.962
14181TIP3   OH242419   2.722   4.684   7.445
14181TIP3    H142420   2.663   4.748   7.490
14181TIP3    H242421   2.656   4.633   7.395
14182TIP3   OH242422   3.058   4.016   6.176
14182TIP3    H142423   3.114   4.079   6.226
14182TIP3    H242424   3.084   4.038   6.083
14183TIP3   OH242425   2.476   4.242   7.546
14183TIP3    H142426   2.481   4.330   7.589
14183TIP3    H242427   2.380   4.225   7.553
14184TIP3   OH242428   2.798   4.702   6.456
14184TIP3    H142429   2.878   4.756   6.467
14184TIP3    H242430   2.739   4.760   6.408
14185TIP3   OH242431   2.517   4.852   7.529
14185TIP3    H142432   2.480   4.855   7.439
14185TIP3    H242433   2.438   4.832   7.584
14186TIP3   OH242434   3.572   3.261   6.222
14186TIP3    H142435   3.490   3.281   6.273
14186TIP3    H242436   3.585   3.344   6.172
14187TIP3   OH242437   2.312   4.001   6.573
14187TIP3    H142438   2.250   4.049   6.514
14187TIP3    H242439   2.269   3.915   6.579
14188TIP3   OH242440   3.375   4.628   5.768
14188TIP3    H142441   3.377   4.724   5.751
14188TIP3    H242442   3.469   4.604   5.764
14189TIP3   OH242443   2.094   4.385   7.478
14189TIP3    H142444   2.030   4.364   7.408
14189TIP3    H242445   2.132   4.298   7.501
14190TIP3   OH242446   1.950   4.577   7.113
14190TIP3    H142447   2.045   4.572   7.101
14190TIP3    H242448   1.941   4.658   7.166
14191TIP3   OH242449   3.813   5.029   7.165
14191TIP3    H142450   3.812   4.933   7.182
14191TIP3    H242451   3.730   5.056   7.210
14192TIP3   OH242452   2.921   4.815   7.301
14192TIP3    H142453   2.921   4.908   7.331
14192TIP3    H242454   2.849   4.777   7.356
14193TIP3   OH242455   2.666   4.941   6.254
14193TIP3    H142456   2.629   4.939   6.165
14193TIP3    H242457   2.653   5.034   6.279
14194TIP3   OH242458   2.116   4.796   6.636
14194TIP3    H142459   2.166   4.786   6.721
14194TIP3    H242460   2.061   4.716   6.639
14195TIP3   OH242461   2.935   4.924   6.195
14195TIP3    H142462   2.840   4.909   6.214
14195TIP3    H242463   2.974   4.838   6.215
14196TIP3   OH242464   3.704   4.160   7.441
14196TIP3    H142465   3.622   4.174   7.391
14196TIP3    H242466   3.718   4.064   7.430
14197TIP3   OH242467   2.300   4.567   7.465
14197TIP3    H142468   2.349   4.554   7.549
14197TIP3    H242469   2.225   4.505   7.475
14198TIP3   OH242470   2.700   3.391   7.250
14198TIP3    H142471   2.611   3.361   7.224
14198TIP3    H242472   2.676   3.475   7.293
14199TIP3   OH242473   3.232   3.507   7.444
14199TIP3    H142474   3.298   3.483   7.512
14199TIP3    H242475   3.147   3.489   7.488
14200TIP3   OH242476   3.472   3.937   7.362
14200TIP3    H142477   3.423   3.933   7.447
14200TIP3    H242478   3.447   4.024   7.327
14201TIP3   OH242479   3.133   4.056   5.918
14201TIP3    H142480   3.101   4.033   5.829
14201TIP3    H242481   3.186   4.135   5.901
14202TIP3   OH242482   2.846   3.440   6.221
14202TIP3    H142483   2.811   3.438   6.312
14202TIP3    H242484   2.806   3.358   6.186
14203TIP3   OH242485   2.631   3.907   7.268
14203TIP3    H142486   2.580   3.930   7.349
14203TIP3    H242487   2.616   3.988   7.214
14204TIP3   OH242488   2.516   3.793   6.783
14204TIP3    H142489   2.422   3.769   6.799
14204TIP3    H242490   2.529   3.754   6.693
14205TIP3   OH242491   3.005   3.880   6.510
14205TIP3    H142492   2.951   3.951   6.468
14205TIP3    H242493   3.059   3.850   6.434
14206TIP3   OH242494   3.180   4.157   7.595
14206TIP3    H142495   3.159   4.085   7.658
14206TIP3    H242496   3.273   4.175   7.618
14207TIP3   OH242497   3.163   3.910   6.749
14207TIP3    H142498   3.103   3.940   6.678
14207TIP3    H242499   3.195   3.828   6.706
14208TIP3   OH242500   2.451   3.938   7.477
14208TIP3    H142501   2.475   4.004   7.544
14208TIP3    H242502   2.440   3.857   7.531
14209TIP3   OH242503   2.500   3.413   6.188
14209TIP3    H142504   2.490   3.412   6.285
14209TIP3    H242505   2.423   3.467   6.161
14210TIP3   OH242506   2.042   3.458   7.061
14210TIP3    H142507   2.119   3.491   7.111
14210TIP3    H242508   2.080   3.429   6.976
14211TIP3   OH242509   2.018   3.441   6.579
14211TIP3    H142510   2.061   3.479   6.499
14211TIP3    H242511   1.956   3.513   6.599
14212TIP3   OH242512   3.176   4.155   7.174
14212TIP3    H142513   3.207   4.082   7.115
14212TIP3    H242514   3.144   4.102   7.250
14213TIP3   OH242515   2.842   3.614   6.845
14213TIP3    H142516   2.758   3.614   6.895
14213TIP3    H242517   2.908   3.619   6.915
14214TIP3   OH242518   2.276   3.671   6.854
14214TIP3    H142519   2.181   3.680   6.825
14214TIP3    H242520   2.299   3.580   6.827
14215TIP3   OH242521   2.547   3.669   6.540
14215TIP3    H142522   2.641   3.685   6.516
14215TIP3    H242523   2.499   3.691   6.457
14216TIP3   OH242524   3.335   3.690   7.046
14216TIP3    H142525   3.299   3.704   7.136
14216TIP3    H242526   3.268   3.630   7.008
14217TIP3   OH242527   2.387   3.698   6.320
14217TIP3    H142528   2.316   3.656   6.269
14217TIP3    H242529   2.440   3.738   6.247
14218TIP3   OH242530   3.508   5.380   7.263
14218TIP3    H142531   3.509   5.399   7.167
14218TIP3    H242532   3.589   5.426   7.293
14219TIP3   OH242533   2.462   4.488   7.687
14219TIP3    H142534   2.541   4.521   7.734
14219TIP3    H242535   2.396   4.493   7.760
14220TIP3   OH242536   2.925   3.942   6.941
14220TIP3    H142537   2.999   3.906   6.889
14220TIP3    H242538   2.939   3.901   7.028
14221TIP3   OH242539   2.451   3.433   6.819
14221TIP3    H142540   2.417   3.352   6.862
14221TIP3    H242541   2.496   3.397   6.741
14222TIP3   OH242542   2.902   3.837   7.236
14222TIP3    H142543   2.813   3.876   7.245
14222TIP3    H242544   2.959   3.901   7.283
14223TIP3   OH242545   2.637   4.229   6.327
14223TIP3    H142546   2.562   4.166   6.315
14223TIP3    H242547   2.620   4.264   6.417
14224TIP3   OH242548   3.536   4.467   6.955
14224TIP3    H142549   3.556   4.509   6.869
14224TIP3    H242550   3.450   4.423   6.937
14225TIP3   OH242551   3.098   3.543   6.190
14225TIP3    H142552   3.001   3.527   6.195
14225TIP3    H242553   3.107   3.638   6.210
14226TIP3   OH242554   3.040   4.551   7.324
14226TIP3    H142555   3.060   4.531   7.416
14226TIP3    H242556   2.999   4.639   7.328
14227TIP3   OH242557   3.167   3.791   6.292
14227TIP3    H142558   3.264   3.799   6.305
14227TIP3    H242559   3.146   3.870   6.239
14228TIP3   OH242560   2.330   4.252   7.003
14228TIP3    H142561   2.367   4.226   6.917
14228TIP3    H242562   2.372   4.189   7.063
14229TIP3   OH242563   2.807   4.391   6.173
14229TIP3    H142564   2.752   4.471   6.159
14229TIP3    H242565   2.741   4.329   6.210
14230TIP3   OH242566   2.211   4.173   7.615
14230TIP3    H142567   2.232   4.161   7.710
14230TIP3    H242568   2.141   4.108   7.601
14231TIP3   OH242569   2.937   4.286   7.636
14231TIP3    H142570   2.878   4.230   7.583
14231TIP3    H242571   3.025   4.255   7.606
14232TIP3   OH242572   3.200   4.807   7.218
14232TIP3    H142573   3.103   4.808   7.231
14232TIP3    H242574   3.228   4.858   7.296
14233TIP3   OH242575   3.609   3.881   6.128
14233TIP3    H142576   3.548   3.836   6.065
14233TIP3    H242577   3.605   3.970   6.087
14234TIP3   OH242578   3.828   4.737   7.210
14234TIP3    H142579   3.730   4.733   7.200
14234TIP3    H242580   3.854   4.710   7.119
14235TIP3   OH242581   3.321   4.697   6.036
14235TIP3    H142582   3.277   4.631   6.090
14235TIP3    H242583   3.319   4.657   5.947
14236TIP3   OH242584   3.306   4.328   6.879
14236TIP3    H142585   3.211   4.305   6.891
14236TIP3    H242586   3.337   4.249   6.829
14237TIP3   OH242587   2.433   4.557   6.630
14237TIP3    H142588   2.436   4.637   6.574
14237TIP3    H242589   2.338   4.540   6.632
14238TIP3   OH242590   1.996   3.861   6.329
14238TIP3    H142591   2.042   3.946   6.348
14238TIP3    H242592   1.919   3.868   6.389
14239TIP3   OH242593   2.571   4.323   6.574
14239TIP3    H142594   2.538   4.413   6.589
14239TIP3    H242595   2.532   4.274   6.648
14240TIP3   OH242596   2.700   4.900   7.096
14240TIP3    H142597   2.740   4.974   7.047
14240TIP3    H242598   2.776   4.868   7.147
14241TIP3   OH242599   2.352   4.796   6.480
14241TIP3    H142600   2.265   4.805   6.525
14241TIP3    H242601   2.383   4.889   6.481
14242TIP3   OH242602   3.089   4.533   7.055
14242TIP3    H142603   3.079   4.534   7.153
14242TIP3    H242604   3.170   4.481   7.044
14243TIP3   OH242605   3.058   4.382   5.940
14243TIP3    H142606   3.108   4.386   6.024
14243TIP3    H242607   2.970   4.410   5.969
14244TIP3   OH242608   3.340   5.068   7.102
14244TIP3    H142609   3.260   5.013   7.097
14244TIP3    H242610   3.322   5.134   7.032
14245TIP3   OH242611   3.401   4.907   5.750
14245TIP3    H142612   3.437   4.985   5.705
14245TIP3    H242613   3.321   4.947   5.791
14246TIP3   OH242614   2.423   3.679   7.625
14246TIP3    H142615   2.327   3.685   7.638
14246TIP3    H242616   2.450   3.619   7.696
14247TIP3   OH242617   3.224   4.370   6.165
14247TIP3    H142618   3.215   4.298   6.230
14247TIP3    H242619   3.320   4.365   6.144
14248TIP3   OH242620   2.138   4.764   7.256
14248TIP3    H142621   2.193   4.691   7.287
14248TIP3    H242622   2.166   4.836   7.315
14249TIP3   OH242623   2.379   4.421   5.959
14249TIP3    H142624   2.438   4.378   5.896
14249TIP3    H242625   2.407   4.391   6.046
14250TIP3   OH242626   2.378   4.409   6.237
14250TIP3    H142627   2.461   4.394   6.284
14250TIP3    H242628   2.380   4.507   6.225
14251TIP3   OH242629   2.112   4.107   6.413
14251TIP3    H142630   2.046   4.154   6.468
14251TIP3    H242631   2.128   4.175   6.344
14252TIP3   OH242632   3.259   3.744   7.304
14252TIP3    H142633   3.338   3.784   7.344
14252TIP3    H242634   3.245   3.664   7.359
14253TIP3   OH242635   3.139   3.495   6.469
14253TIP3    H142636   3.124   3.517   6.375
14253TIP3    H242637   3.177   3.579   6.503
14254TIP3   OH242638   2.642   4.606   6.148
14254TIP3    H142639   2.556   4.642   6.177
14254TIP3    H242640   2.665   4.664   6.074
14255TIP3   OH242641   2.832   3.673   6.571
14255TIP3    H142642   2.895   3.746   6.552
14255TIP3    H242643   2.835   3.669   6.669
14256TIP3   OH242644   3.098   3.993   7.380
14256TIP3    H142645   3.117   4.049   7.458
14256TIP3    H242646   3.154   3.916   7.395
14257TIP3   OH242647   2.975   3.403   6.675
14257TIP3    H142648   2.963   3.482   6.731
14257TIP3    H242649   3.035   3.439   6.606
14258TIP3   OH242650   2.385   4.685   6.223
14258TIP3    H142651   2.361   4.754   6.158
14258TIP3    H242652   2.370   4.730   6.308
14259TIP3   OH242653   2.484   3.399   6.466
14259TIP3    H142654   2.482   3.492   6.498
14259TIP3    H242655   2.580   3.382   6.472
14260TIP3   OH242656   3.739   3.893   7.362
14260TIP3    H142657   3.641   3.891   7.366
14260TIP3    H242658   3.752   3.858   7.273
14261TIP3   OH242659   3.390   4.088   6.747
14261TIP3    H142660   3.312   4.030   6.758
14261TIP3    H242661   3.459   4.039   6.796
14262TIP3   OH242662   2.102   4.318   6.221
14262TIP3    H142663   2.170   4.386   6.230
14262TIP3    H242664   2.142   4.266   6.148
14263TIP3   OH242665   2.045   3.591   6.354
14263TIP3    H142666   2.047   3.689   6.348
14263TIP3    H242667   1.966   3.571   6.304
14264TIP3   OH242668   3.357   5.044   6.699
14264TIP3    H142669   3.312   5.090   6.625
14264TIP3    H242670   3.450   5.064   6.677
14265TIP3   OH242671   2.435   3.313   7.225
14265TIP3    H142672   2.403   3.281   7.138
14265TIP3    H242673   2.423   3.233   7.281
14266TIP3   OH242674   1.976   4.532   6.608
14266TIP3    H142675   1.900   4.563   6.658
14266TIP3    H242676   1.956   4.569   6.520
14267TIP3   OH242677   2.132   5.073   7.674
14267TIP3    H142678   2.217   5.075   7.723
14267TIP3    H242679   2.112   4.978   7.677
14268TIP3   OH242680   2.609   5.034   7.729
14268TIP3    H142681   2.706   5.029   7.731
14268TIP3    H242682   2.588   4.982   7.649
14269TIP3   OH242683   3.256   4.939   7.451
14269TIP3    H142684   3.245   4.872   7.522
14269TIP3    H242685   3.330   4.994   7.485
14270TIP3   OH242686   2.260   4.477   7.878
14270TIP3    H142687   2.276   4.381   7.880
14270TIP3    H242688   2.172   4.481   7.834
14271TIP3   OH242689   2.235   4.125   6.068
14271TIP3    H142690   2.296   4.095   6.139
14271TIP3    H242691   2.297   4.144   5.997
14272TIP3   OH242692   2.869   4.563   7.651
14272TIP3    H142693   2.826   4.581   7.565
14272TIP3    H242694   2.899   4.470   7.641
14273TIP3   OH242695   3.361   4.569   7.256
14273TIP3    H142696   3.434   4.619   7.215
14273TIP3    H242697   3.288   4.633   7.245
14274TIP3   OH242698   2.378   4.208   7.861
14274TIP3    H142699   2.458   4.159   7.838
14274TIP3    H242700   2.403   4.245   7.948
14275TIP3   OH242701   2.443   4.031   6.291
14275TIP3    H142702   2.418   3.988   6.374
14275TIP3    H242703   2.482   3.957   6.240
14276TIP3   OH242704   2.715   4.096   7.521
14276TIP3    H142705   2.637   4.156   7.524
14276TIP3    H242706   2.763   4.130   7.442
14277TIP3   OH242707   2.547   3.825   6.140
14277TIP3    H142708   2.518   3.824   6.046
14277TIP3    H242709   2.644   3.832   6.128
14278TIP3   OH242710   3.229   4.498   7.655
14278TIP3    H142711   3.312   4.480   7.610
14278TIP3    H242712   3.230   4.432   7.727
14279TIP3   OH242713   3.386   4.164   5.786
14279TIP3    H142714   3.347   4.117   5.710
14279TIP3    H242715   3.341   4.251   5.776
14280TIP3   OH242716   2.838   3.885   7.647
14280TIP3    H142717   2.838   3.806   7.589
14280TIP3    H242718   2.795   3.952   7.590
14281TIP3   OH242719   2.841   3.669   7.454
14281TIP3    H142720   2.868   3.714   7.371
14281TIP3    H242721   2.746   3.648   7.435
14282TIP3   OH242722   2.869   4.208   7.327
14282TIP3    H142723   2.951   4.219   7.278
14282TIP3    H242724   2.811   4.275   7.285
14283TIP3   OH242725   3.451   4.175   7.709
14283TIP3    H142726   3.503   4.094   7.718
14283TIP3    H242727   3.517   4.238   7.676
14284TIP3   OH242728   3.492   4.425   7.443
14284TIP3    H142729   3.433   4.479   7.385
14284TIP3    H242730   3.579   4.447   7.403
14285TIP3   OH242731   2.717   3.997   7.878
14285TIP3    H142732   2.646   3.931   7.890
14285TIP3    H242733   2.750   3.974   7.789
14286TIP3   OH242734   2.972   3.435   7.521
14286TIP3    H142735   2.925   3.518   7.498
14286TIP3    H242736   2.902   3.368   7.508
14287TIP3   OH242737   3.100   3.939   7.737
14287TIP3    H142738   3.087   3.931   7.833
14287TIP3    H242739   3.010   3.916   7.707
14288TIP3   OH242740   3.337   3.885   7.591
14288TIP3    H142741   3.262   3.892   7.653
14288TIP3    H242742   3.411   3.859   7.650
14289TIP3   OH242743   3.565   3.827   7.744
14289TIP3    H142744   3.577   3.733   7.766
14289TIP3    H242745   3.562   3.870   7.833
14290TIP3   OH242746   2.553   3.779   7.929
14290TIP3    H142747   2.562   3.688   7.893
14290TIP3    H242748   2.588   3.767   8.020
14291TIP3   OH242749   3.067   3.443   7.779
14291TIP3    H142750   3.133   3.372   7.771
14291TIP3    H242751   3.026   3.440   7.690
14292TIP3   OH242752   3.131   3.658   7.940
14292TIP3    H142753   3.109   3.590   7.873
14292TIP3    H242754   3.055   3.720   7.932
14293TIP3   OH242755   2.375   4.891   6.036
14293TIP3    H142756   2.458   4.896   5.988
14293TIP3    H242757   2.316   4.923   5.964
14294TIP3   OH242758   1.834   4.270   6.256
14294TIP3    H142759   1.928   4.293   6.240
14294TIP3    H242760   1.829   4.181   6.214
14295TIP3   OH242761   1.745   4.884   6.668
14295TIP3    H142762   1.680   4.820   6.632
14295TIP3    H242763   1.791   4.827   6.734
14296TIP3   OH242764   1.882   4.738   6.855
14296TIP3    H142765   1.873   4.662   6.914
14296TIP3    H242766   1.935   4.798   6.910
14297TIP3   OH242767   3.610   5.131   6.656
14297TIP3    H142768   3.642   5.171   6.739
14297TIP3    H242769   3.671   5.167   6.590
14298TIP3   OH242770   3.642   5.159   6.940
14298TIP3    H142771   3.597   5.072   6.931
14298TIP3    H242772   3.717   5.133   6.995
14299TIP3   OH242773   3.687   4.831   7.508
14299TIP3    H142774   3.614   4.839   7.572
14299TIP3    H242775   3.728   4.919   7.512
14300TIP3   OH242776   3.502   4.343   6.127
14300TIP3    H142777   3.565   4.412   6.097
14300TIP3    H242778   3.549   4.306   6.204
14301TIP3   OH242779   3.630   4.208   6.334
14301TIP3    H142780   3.556   4.160   6.378
14301TIP3    H242781   3.667   4.257   6.408
14302TIP3   OH242782   3.686   4.593   6.755
14302TIP3    H142783   3.709   4.589   6.661
14302TIP3    H242784   3.648   4.682   6.757
14303TIP3   OH242785   3.516   4.903   6.961
14303TIP3    H142786   3.449   4.951   7.014
14303TIP3    H242787   3.461   4.861   6.892
14304TIP3   OH242788   3.569   4.118   5.982
14304TIP3    H142789   3.502   4.122   5.910
14304TIP3    H242790   3.541   4.196   6.033
14305TIP3   OH242791   3.444   3.791   5.934
14305TIP3    H142792   3.395   3.835   5.863
14305TIP3    H242793   3.416   3.698   5.922
14306TIP3   OH242794   3.447   4.067   6.479
14306TIP3    H142795   3.452   3.970   6.471
14306TIP3    H242796   3.431   4.079   6.576
14307TIP3   OH242797   2.071   4.139   7.227
14307TIP3    H142798   2.069   4.112   7.133
14307TIP3    H242799   2.169   4.143   7.243
14308TIP3   OH242800   3.734   4.493   7.335
14308TIP3    H142801   3.807   4.428   7.327
14308TIP3    H242802   3.764   4.565   7.277
14309TIP3   OH242803   3.918   4.299   7.352
14309TIP3    H142804   3.845   4.248   7.394
14309TIP3    H242805   3.992   4.237   7.367
14310TIP3   OH242806   3.384   3.526   5.919
14310TIP3    H142807   3.458   3.496   5.975
14310TIP3    H242808   3.310   3.468   5.944
14311TIP3   OH242809   3.443   3.787   6.376
14311TIP3    H142810   3.482   3.698   6.392
14311TIP3    H242811   3.500   3.817   6.304
14312TIP3   OH242812   3.602   3.960   6.870
14312TIP3    H142813   3.686   3.990   6.829
14312TIP3    H242814   3.615   3.994   6.960
14313TIP3   OH242815   3.668   4.100   7.106
14313TIP3    H142816   3.589   4.133   7.153
14313TIP3    H242817   3.703   4.184   7.067
14314TIP3   OH242818   2.285   3.826   7.896
14314TIP3    H142819   2.383   3.823   7.900
14314TIP3    H242820   2.263   3.743   7.942
14315TIP3   OH242821   4.117   3.689   7.659
14315TIP3    H142822   4.182   3.628   7.616
14315TIP3    H242823   4.094   3.748   7.585
14316TIP3   OH242824   3.549   3.535   6.413
14316TIP3    H142825   3.598   3.518   6.496
14316TIP3    H242826   3.489   3.458   6.411
14317TIP3   OH242827   2.250   3.521   7.234
14317TIP3    H142828   2.314   3.447   7.242
14317TIP3    H242829   2.311   3.596   7.226
14318TIP3   OH242830   2.054   3.794   7.307
14318TIP3    H142831   2.102   3.788   7.222
14318TIP3    H242832   2.079   3.883   7.335
14319TIP3   OH242833   3.994   3.836   7.466
14319TIP3    H142834   3.907   3.876   7.484
14319TIP3    H242835   3.968   3.763   7.407
14320TIP3   OH242836   3.631   3.470   6.045
14320TIP3    H142837   3.672   3.398   5.993
14320TIP3    H242838   3.698   3.541   6.038
14321TIP3   OH242839   2.036   3.300   6.808
14321TIP3    H142840   1.941   3.296   6.831
14321TIP3    H242841   2.035   3.357   6.728
14322TIP3   OH242842   3.209   4.999   6.323
14322TIP3    H142843   3.242   4.978   6.233
14322TIP3    H242844   3.266   5.073   6.346
14323TIP3   OH242845   2.255   3.374   7.620
14323TIP3    H142846   2.205   3.375   7.703
14323TIP3    H242847   2.191   3.416   7.559
14324TIP3   OH242848   2.297   4.798   7.696
14324TIP3    H142849   2.203   4.776   7.681
14324TIP3    H242850   2.304   4.793   7.792
14325TIP3   OH242851   2.473   4.835   7.242
14325TIP3    H142852   2.426   4.913   7.205
14325TIP3    H242853   2.559   4.850   7.199
14326TIP3   OH242854   2.923   5.083   7.378
14326TIP3    H142855   2.960   5.087   7.468
14326TIP3    H242856   2.986   5.139   7.329
14327TIP3   OH242857   3.099   5.238   7.235
14327TIP3    H142858   3.173   5.183   7.206
14327TIP3    H242859   3.144   5.295   7.302
14328TIP3   OH242860   3.886   3.599   7.350
14328TIP3    H142861   3.799   3.598   7.305
14328TIP3    H242862   3.917   3.507   7.335
14329TIP3   OH242863   2.150   5.094   7.268
14329TIP3    H142864   2.061   5.127   7.247
14329TIP3    H242865   2.164   5.136   7.354
14330TIP3   OH242866   2.387   5.073   7.126
14330TIP3    H142867   2.301   5.086   7.171
14330TIP3    H242868   2.368   5.106   7.036
14331TIP3   OH242869   2.813   5.102   6.924
14331TIP3    H142870   2.745   5.122   6.858
14331TIP3    H242871   2.824   5.189   6.968
14332TIP3   OH242872   3.081   5.040   6.972
14332TIP3    H142873   2.986   5.056   6.955
14332TIP3    H242874   3.120   5.119   6.932
14333TIP3   OH242875   3.296   5.241   6.889
14333TIP3    H142876   3.273   5.321   6.838
14333TIP3    H242877   3.316   5.176   6.818
14334TIP3   OH242878   2.061   4.889   7.013
14334TIP3    H142879   2.088   4.864   7.104
14334TIP3    H242880   2.134   4.845   6.963
14335TIP3   OH242881   2.255   4.760   6.869
14335TIP3    H142882   2.272   4.676   6.917
14335TIP3    H242883   2.345   4.797   6.864
14336TIP3   OH242884   2.521   4.857   6.872
14336TIP3    H142885   2.553   4.766   6.857
14336TIP3    H242886   2.564   4.876   6.957
14337TIP3   OH242887   3.101   3.513   6.964
14337TIP3    H142888   3.055   3.443   7.013
14337TIP3    H242889   3.169   3.464   6.914
14338TIP3   OH242890   3.622   3.391   6.869
14338TIP3    H142891   3.660   3.442   6.793
14338TIP3    H242892   3.527   3.408   6.859
14339TIP3   OH242893   3.716   3.492   6.631
14339TIP3    H142894   3.788   3.440   6.589
14339TIP3    H242895   3.750   3.584   6.615
14340TIP3   OH242896   2.346   3.220   6.978
14340TIP3    H142897   2.254   3.189   6.977
14340TIP3    H242898   2.394   3.135   6.973
14341TIP3   OH242899   2.137   3.089   6.625
14341TIP3    H142900   2.164   3.146   6.551
14341TIP3    H242901   2.104   3.154   6.690
14342TIP3   OH242902   2.792   3.250   6.857
14342TIP3    H142903   2.847   3.301   6.796
14342TIP3    H242904   2.808   3.294   6.941
14343TIP3   OH242905   3.339   3.399   6.840
14343TIP3    H142906   3.334   3.366   6.750
14343TIP3    H242907   3.323   3.317   6.893
14344TIP3   OH242908   3.367   3.321   6.403
14344TIP3    H142909   3.280   3.364   6.412
14344TIP3    H242910   3.351   3.236   6.449
14345TIP3   OH242911   1.849   4.660   6.407
14345TIP3    H142912   1.765   4.626   6.371
14345TIP3    H242913   1.838   4.754   6.386
14346TIP3   OH242914   2.249   3.246   6.390
14346TIP3    H142915   2.298   3.187   6.331
14346TIP3    H242916   2.321   3.302   6.425
14347TIP3   OH242917   2.761   3.423   6.487
14347TIP3    H142918   2.823   3.377   6.546
14347TIP3    H242919   2.783   3.516   6.511
14348TIP3   OH242920   3.339   4.966   6.081
14348TIP3    H142921   3.337   4.868   6.067
14348TIP3    H242922   3.292   4.997   6.000
14349TIP3   OH242923   2.554   3.498   7.865
14349TIP3    H142924   2.520   3.430   7.925
14349TIP3    H242925   2.648   3.501   7.893
14350TIP3   OH242926   2.802   3.497   7.986
14350TIP3    H142927   2.888   3.476   7.945
14350TIP3    H242928   2.793   3.425   8.051
14351TIP3   OH242929   1.930   4.687   6.042
14351TIP3    H142930   1.938   4.704   6.137
14351TIP3    H242931   2.013   4.638   6.022
14352TIP3   OH242932   3.630   3.554   7.774
14352TIP3    H142933   3.650   3.530   7.867
14352TIP3    H242934   3.720   3.558   7.734
14353TIP3   OH242935   3.569   5.111   7.266
14353TIP3    H142936   3.489   5.079   7.219
14353TIP3    H242937   3.548   5.207   7.271
14354TIP3   OH242938   4.835   4.476   6.036
14354TIP3    H142939   4.806   4.568   6.015
14354TIP3    H242940   4.758   4.428   6.003
14355TIP3   OH242941   4.828   4.484   6.415
14355TIP3    H142942   4.863   4.457   6.502
14355TIP3    H242943   4.790   4.401   6.382
14356TIP3   OH242944   4.130   4.391   6.772
14356TIP3    H142945   4.140   4.324   6.845
14356TIP3    H242946   4.220   4.432   6.781
14357TIP3   OH242947   5.070   4.791   6.094
14357TIP3    H142948   5.062   4.717   6.157
14357TIP3    H242949   5.107   4.861   6.150
14358TIP3   OH242950   4.113   4.740   6.523
14358TIP3    H142951   4.133   4.700   6.438
14358TIP3    H242952   4.188   4.802   6.530
14359TIP3   OH242953   3.808   3.992   6.293
14359TIP3    H142954   3.757   4.075   6.298
14359TIP3    H242955   3.741   3.933   6.253
14360TIP3   OH242956   4.632   4.709   6.461
14360TIP3    H142957   4.671   4.631   6.418
14360TIP3    H242958   4.715   4.755   6.486
14361TIP3   OH242959   5.645   4.030   6.460
14361TIP3    H142960   5.672   4.113   6.506
14361TIP3    H242961   5.663   4.053   6.368
14362TIP3   OH242962   5.044   4.213   6.494
14362TIP3    H142963   5.086   4.127   6.516
14362TIP3    H242964   5.013   4.195   6.404
14363TIP3   OH242965   4.383   3.869   6.457
14363TIP3    H142966   4.362   3.942   6.395
14363TIP3    H242967   4.335   3.796   6.413
14364TIP3   OH242968   5.075   3.960   6.083
14364TIP3    H142969   5.147   3.944   6.148
14364TIP3    H242970   5.127   3.997   6.009
14365TIP3   OH242971   4.021   4.093   6.572
14365TIP3    H142972   4.101   4.052   6.610
14365TIP3    H242973   4.015   4.042   6.489
14366TIP3   OH242974   4.451   4.270   6.368
14366TIP3    H142975   4.546   4.247   6.376
14366TIP3    H242976   4.415   4.188   6.330
14367TIP3   OH242977   5.716   4.237   6.630
14367TIP3    H142978   5.632   4.286   6.612
14367TIP3    H242979   5.732   4.266   6.722
14368TIP3   OH242980   4.385   3.892   6.910
14368TIP3    H142981   4.329   3.867   6.835
14368TIP3    H242982   4.323   3.892   6.985
14369TIP3   OH242983   4.721   4.684   5.901
14369TIP3    H142984   4.690   4.661   5.811
14369TIP3    H242985   4.693   4.775   5.908
14370TIP3   OH242986   4.484   4.629   6.689
14370TIP3    H142987   4.424   4.697   6.728
14370TIP3    H242988   4.530   4.681   6.620
14371TIP3   OH242989   5.287   3.962   6.254
14371TIP3    H142990   5.272   3.917   6.338
14371TIP3    H242991   5.339   4.040   6.281
14372TIP3   OH242992   4.245   3.965   6.672
14372TIP3    H142993   4.311   4.029   6.707
14372TIP3    H242994   4.299   3.926   6.599
14373TIP3   OH242995   4.310   4.822   6.786
14373TIP3    H142996   4.288   4.911   6.750
14373TIP3    H242997   4.232   4.809   6.844
14374TIP3   OH242998   3.707   4.512   6.026
14374TIP3    H142999   3.666   4.536   5.940
14374TIP3    H243000   3.732   4.600   6.061
14375TIP3   OH243001   5.147   5.028   6.262
14375TIP3    H143002   5.058   5.018   6.303
14375TIP3    H243003   5.139   5.115   6.219
14376TIP3   OH243004   5.437   3.926   6.624
14376TIP3    H143005   5.350   3.960   6.597
14376TIP3    H243006   5.496   3.961   6.554
14377TIP3   OH243007   4.732   3.569   6.611
14377TIP3    H143008   4.724   3.472   6.624
14377TIP3    H243009   4.664   3.598   6.673
14378TIP3   OH243010   4.964   4.866   5.841
14378TIP3    H143011   4.963   4.782   5.793
14378TIP3    H243012   5.006   4.838   5.926
14379TIP3   OH243013   5.372   4.943   6.606
14379TIP3    H143014   5.362   4.864   6.549
14379TIP3    H243015   5.358   5.016   6.542
14380TIP3   OH243016   4.663   4.335   5.863
14380TIP3    H143017   4.583   4.387   5.843
14380TIP3    H243018   4.709   4.334   5.777
14381TIP3   OH243019   4.623   4.120   5.582
14381TIP3    H143020   4.691   4.170   5.631
14381TIP3    H243021   4.680   4.058   5.532
14382TIP3   OH243022   5.568   4.577   6.450
14382TIP3    H143023   5.485   4.629   6.458
14382TIP3    H243024   5.597   4.603   6.360
14383TIP3   OH243025   5.012   4.418   5.835
14383TIP3    H143026   4.957   4.441   5.914
14383TIP3    H243027   5.095   4.392   5.879
14384TIP3   OH243028   5.245   4.450   6.743
14384TIP3    H143029   5.251   4.530   6.800
14384TIP3    H243030   5.158   4.466   6.700
14385TIP3   OH243031   4.242   4.419   6.250
14385TIP3    H143032   4.201   4.360   6.183
14385TIP3    H243033   4.317   4.365   6.282
14386TIP3   OH243034   4.365   4.819   6.402
14386TIP3    H143035   4.352   4.788   6.311
14386TIP3    H243036   4.456   4.790   6.422
14387TIP3   OH243037   4.360   4.397   6.603
14387TIP3    H143038   4.402   4.365   6.520
14387TIP3    H243039   4.417   4.473   6.626
14388TIP3   OH243040   4.906   5.023   6.381
14388TIP3    H143041   4.890   5.103   6.433
14388TIP3    H243042   4.891   4.951   6.446
14389TIP3   OH243043   4.518   4.945   6.929
14389TIP3    H143044   4.460   5.007   6.977
14389TIP3    H243045   4.451   4.891   6.881
14390TIP3   OH243046   4.854   4.275   5.661
14390TIP3    H143047   4.911   4.335   5.714
14390TIP3    H243048   4.880   4.299   5.569
14391TIP3   OH243049   4.268   4.506   7.025
14391TIP3    H143050   4.277   4.591   7.072
14391TIP3    H243051   4.175   4.484   7.045
14392TIP3   OH243052   4.312   5.112   7.017
14392TIP3    H143053   4.277   5.111   6.926
14392TIP3    H243054   4.232   5.091   7.070
14393TIP3   OH243055   5.367   3.517   5.709
14393TIP3    H143056   5.287   3.537   5.761
14393TIP3    H243057   5.380   3.601   5.661
14394TIP3   OH243058   4.110   4.258   6.055
14394TIP3    H143059   4.044   4.304   5.998
14394TIP3    H243060   4.067   4.173   6.069
14395TIP3   OH243061   5.177   4.881   5.251
14395TIP3    H143062   5.174   4.978   5.237
14395TIP3    H243063   5.273   4.864   5.251
14396TIP3   OH243064   3.889   4.641   6.964
14396TIP3    H143065   3.820   4.613   6.901
14396TIP3    H243066   3.926   4.555   6.995
14397TIP3   OH243067   3.758   4.829   6.600
14397TIP3    H143068   3.852   4.852   6.590
14397TIP3    H243069   3.726   4.908   6.647
14398TIP3   OH243070   5.610   5.285   6.650
14398TIP3    H143071   5.610   5.189   6.668
14398TIP3    H243072   5.528   5.311   6.697
14399TIP3   OH243073   4.716   5.075   6.786
14399TIP3    H143074   4.715   5.167   6.820
14399TIP3    H243075   4.645   5.034   6.841
14400TIP3   OH243076   4.481   5.214   5.733
14400TIP3    H143077   4.410   5.181   5.676
14400TIP3    H243078   4.447   5.301   5.761
14401TIP3   OH243079   4.733   5.118   5.705
14401TIP3    H143080   4.640   5.137   5.679
14401TIP3    H243081   4.770   5.071   5.627
14402TIP3   OH243082   5.508   4.418   6.918
14402TIP3    H143083   5.418   4.434   6.888
14402TIP3    H243084   5.513   4.321   6.918
14403TIP3   OH243085   4.097   4.825   6.954
14403TIP3    H143086   4.147   4.810   7.037
14403TIP3    H243087   4.023   4.761   6.962
14404TIP3   OH243088   5.025   3.763   6.931
14404TIP3    H143089   5.093   3.738   6.996
14404TIP3    H243090   4.941   3.743   6.978
14405TIP3   OH243091   5.270   4.192   6.849
14405TIP3    H143092   5.223   4.189   6.934
14405TIP3    H243093   5.247   4.280   6.814
14406TIP3   OH243094   4.925   4.323   5.403
14406TIP3    H143095   4.897   4.292   5.315
14406TIP3    H243096   5.004   4.375   5.381
14407TIP3   OH243097   4.642   3.698   5.707
14407TIP3    H143098   4.609   3.696   5.800
14407TIP3    H243099   4.602   3.615   5.674
14408TIP3   OH243100   4.426   4.167   6.749
14408TIP3    H143101   4.383   4.184   6.835
14408TIP3    H243102   4.408   4.249   6.700
14409TIP3   OH243103   4.310   4.052   6.269
14409TIP3    H143104   4.218   4.025   6.286
14409TIP3    H243105   4.324   4.010   6.180
14410TIP3   OH243106   4.801   4.136   5.996
14410TIP3    H143107   4.748   4.207   5.955
14410TIP3    H243108   4.856   4.106   5.921
14411TIP3   OH243109   4.970   4.416   7.084
14411TIP3    H143110   4.956   4.341   7.147
14411TIP3    H243111   5.060   4.444   7.108
14412TIP3   OH243112   4.959   4.165   6.236
14412TIP3    H143113   4.899   4.196   6.165
14412TIP3    H243114   4.992   4.083   6.193
14413TIP3   OH243115   4.230   4.199   6.960
14413TIP3    H143116   4.278   4.256   7.022
14413TIP3    H243117   4.232   4.113   7.006
14414TIP3   OH243118   4.295   3.670   5.673
14414TIP3    H143119   4.289   3.668   5.771
14414TIP3    H243120   4.217   3.724   5.651
14415TIP3   OH243121   3.842   3.716   6.546
14415TIP3    H143122   3.921   3.744   6.596
14415TIP3    H243123   3.879   3.680   6.464
14416TIP3   OH243124   3.813   3.696   6.063
14416TIP3    H143125   3.859   3.734   5.986
14416TIP3    H243126   3.752   3.770   6.083
14417TIP3   OH243127   4.962   4.412   6.656
14417TIP3    H143128   5.000   4.340   6.600
14417TIP3    H243129   4.940   4.360   6.737
14418TIP3   OH243130   4.638   3.874   6.330
14418TIP3    H143131   4.555   3.871   6.382
14418TIP3    H243132   4.705   3.873   6.400
14419TIP3   OH243133   4.072   3.930   6.343
14419TIP3    H143134   3.978   3.934   6.315
14419TIP3    H243135   4.099   3.840   6.319
14420TIP3   OH243136   4.343   3.925   6.027
14420TIP3    H143137   4.437   3.940   6.006
14420TIP3    H243138   4.296   3.948   5.943
14421TIP3   OH243139   5.129   3.948   6.529
14421TIP3    H143140   5.098   3.961   6.622
14421TIP3    H243141   5.062   3.887   6.496
14422TIP3   OH243142   4.183   3.957   5.806
14422TIP3    H143143   4.109   3.915   5.757
14422TIP3    H243144   4.234   3.994   5.732
14423TIP3   OH243145   5.298   5.638   6.751
14423TIP3    H143146   5.300   5.660   6.657
14423TIP3    H243147   5.379   5.683   6.784
14424TIP3   OH243148   4.258   4.747   7.174
14424TIP3    H143149   4.339   4.777   7.221
14424TIP3    H243150   4.194   4.748   7.248
14425TIP3   OH243151   4.720   4.201   6.428
14425TIP3    H143152   4.794   4.160   6.381
14425TIP3    H243153   4.728   4.160   6.517
14426TIP3   OH243154   4.243   3.692   6.304
14426TIP3    H143155   4.204   3.615   6.352
14426TIP3    H243156   4.297   3.647   6.238
14427TIP3   OH243157   4.700   4.101   6.709
14427TIP3    H143158   4.610   4.132   6.729
14427TIP3    H243159   4.756   4.157   6.766
14428TIP3   OH243160   4.435   4.487   5.812
14428TIP3    H143161   4.361   4.423   5.801
14428TIP3    H243162   4.416   4.522   5.903
14429TIP3   OH243163   5.337   4.725   6.442
14429TIP3    H143164   5.360   4.774   6.361
14429TIP3    H243165   5.251   4.683   6.419
14430TIP3   OH243166   4.893   3.802   5.670
14430TIP3    H143167   4.796   3.785   5.681
14430TIP3    H243168   4.903   3.896   5.697
14431TIP3   OH243169   4.829   4.804   6.810
14431TIP3    H143170   4.866   4.784   6.897
14431TIP3    H243171   4.797   4.895   6.821
14432TIP3   OH243172   4.963   4.047   5.777
14432TIP3    H143173   5.059   4.053   5.794
14432TIP3    H243174   4.945   4.127   5.725
14433TIP3   OH243175   4.601   4.648   5.655
14433TIP3    H143176   4.545   4.729   5.649
14433TIP3    H243177   4.537   4.584   5.692
14434TIP3   OH243178   4.008   4.434   7.104
14434TIP3    H143179   4.035   4.423   7.197
14434TIP3    H243180   3.939   4.366   7.096
14435TIP3   OH243181   4.730   4.543   7.121
14435TIP3    H143182   4.676   4.484   7.067
14435TIP3    H243183   4.820   4.513   7.096
14436TIP3   OH243184   4.994   5.069   6.704
14436TIP3    H143185   4.897   5.067   6.718
14436TIP3    H243186   5.023   5.118   6.784
14437TIP3   OH243187   5.405   4.137   5.615
14437TIP3    H143188   5.343   4.092   5.553
14437TIP3    H243189   5.402   4.226   5.574
14438TIP3   OH243190   5.623   4.995   6.695
14438TIP3    H143191   5.525   4.990   6.690
14438TIP3    H243192   5.647   4.965   6.605
14439TIP3   OH243193   5.120   4.955   5.525
14439TIP3    H143194   5.080   4.885   5.577
14439TIP3    H243195   5.103   4.924   5.434
14440TIP3   OH243196   5.101   4.588   6.359
14440TIP3    H143197   5.008   4.562   6.374
14440TIP3    H243198   5.135   4.507   6.316
14441TIP3   OH243199   4.224   4.810   6.128
14441TIP3    H143200   4.225   4.895   6.079
14441TIP3    H243201   4.130   4.792   6.115
14442TIP3   OH243202   3.790   4.120   5.816
14442TIP3    H143203   3.836   4.204   5.836
14442TIP3    H243204   3.714   4.125   5.878
14443TIP3   OH243205   4.369   4.584   6.059
14443TIP3    H143206   4.327   4.670   6.079
14443TIP3    H243207   4.333   4.529   6.131
14444TIP3   OH243208   4.498   5.157   6.587
14444TIP3    H143209   4.538   5.228   6.534
14444TIP3    H243210   4.575   5.123   6.635
14445TIP3   OH243211   4.886   4.792   6.542
14445TIP3    H143212   4.875   4.790   6.639
14445TIP3    H243213   4.968   4.742   6.531
14446TIP3   OH243214   4.853   4.666   5.425
14446TIP3    H143215   4.911   4.653   5.503
14446TIP3    H243216   4.766   4.657   5.467
14447TIP3   OH243217   5.133   5.326   6.594
14447TIP3    H143218   5.055   5.267   6.587
14447TIP3    H243219   5.116   5.389   6.521
14448TIP3   OH243220   5.197   5.161   5.242
14448TIP3    H143221   5.223   5.233   5.182
14448TIP3    H243222   5.115   5.200   5.279
14449TIP3   OH243223   4.211   3.937   7.118
14449TIP3    H143224   4.116   3.938   7.136
14449TIP3    H243225   4.246   3.875   7.185
14450TIP3   OH243226   5.020   4.625   5.647
14450TIP3    H143227   5.010   4.555   5.714
14450TIP3    H243228   5.117   4.619   5.630
14451TIP3   OH243229   3.936   5.022   6.747
14451TIP3    H143230   3.991   4.948   6.779
14451TIP3    H243231   3.967   5.094   6.803
14452TIP3   OH243232   4.155   4.673   5.717
14452TIP3    H143233   4.241   4.643   5.749
14452TIP3    H243234   4.170   4.769   5.705
14453TIP3   OH243235   3.906   4.365   5.899
14453TIP3    H143236   3.840   4.412   5.955
14453TIP3    H243237   3.921   4.434   5.831
14454TIP3   OH243238   5.058   3.998   6.789
14454TIP3    H143239   5.133   4.040   6.833
14454TIP3    H243240   5.041   3.919   6.845
14455TIP3   OH243241   4.938   3.752   5.954
14455TIP3    H143242   4.923   3.777   5.861
14455TIP3    H243243   4.976   3.834   5.992
14456TIP3   OH243244   4.448   4.879   5.653
14456TIP3    H143245   4.358   4.893   5.690
14456TIP3    H243246   4.452   4.953   5.591
14457TIP3   OH243247   4.626   3.930   6.058
14457TIP3    H143248   4.691   4.002   6.041
14457TIP3    H243249   4.631   3.923   6.156
14458TIP3   OH243250   4.895   4.251   6.868
14458TIP3    H143251   4.915   4.306   6.947
14458TIP3    H243252   4.950   4.173   6.884
14459TIP3   OH243253   4.771   3.660   6.162
14459TIP3    H143254   4.765   3.736   6.222
14459TIP3    H243255   4.831   3.696   6.092
14460TIP3   OH243256   4.187   4.946   5.708
14460TIP3    H143257   4.150   5.013   5.648
14460TIP3    H243258   4.148   4.975   5.794
14461TIP3   OH243259   4.282   3.656   5.949
14461TIP3    H143260   4.278   3.746   5.988
14461TIP3    H243261   4.377   3.638   5.959
14462TIP3   OH243262   5.536   4.142   6.845
14462TIP3    H143263   5.438   4.144   6.855
14462TIP3    H243264   5.544   4.113   6.754
14463TIP3   OH243265   5.187   4.345   6.234
14463TIP3    H143266   5.111   4.286   6.248
14463TIP3    H243267   5.258   4.298   6.283
14464TIP3   OH243268   3.899   4.577   5.703
14464TIP3    H143269   3.973   4.638   5.724
14464TIP3    H243270   3.945   4.523   5.635
14465TIP3   OH243271   3.843   3.849   5.837
14465TIP3    H143272   3.843   3.947   5.833
14465TIP3    H243273   3.757   3.828   5.798
14466TIP3   OH243274   5.152   5.300   6.181
14466TIP3    H143275   5.114   5.350   6.106
14466TIP3    H243276   5.248   5.318   6.166
14467TIP3   OH243277   3.772   4.768   6.109
14467TIP3    H143278   3.694   4.822   6.127
14467TIP3    H243279   3.813   4.822   6.039
14468TIP3   OH243280   3.926   5.329   7.165
14468TIP3    H143281   4.012   5.329   7.211
14468TIP3    H243282   3.906   5.234   7.162
14469TIP3   OH243283   4.408   5.297   7.206
14469TIP3    H143284   4.501   5.275   7.219
14469TIP3    H243285   4.385   5.236   7.132
14470TIP3   OH243286   5.048   5.198   6.941
14470TIP3    H143287   5.038   5.128   7.009
14470TIP3    H243288   5.126   5.247   6.973
14471TIP3   OH243289   4.894   4.929   5.310
14471TIP3    H143290   4.883   4.834   5.308
14471TIP3    H243291   4.906   4.955   5.218
14472TIP3   OH243292   4.058   4.735   7.365
14472TIP3    H143293   4.074   4.640   7.372
14472TIP3    H243294   3.969   4.737   7.322
14473TIP3   OH243295   4.035   4.388   5.557
14473TIP3    H143296   4.092   4.358   5.630
14473TIP3    H243297   4.104   4.396   5.486
14474TIP3   OH243298   4.663   4.819   7.138
14474TIP3    H143299   4.626   4.835   7.049
14474TIP3    H243300   4.697   4.727   7.130
14475TIP3   OH243301   5.153   4.829   6.738
14475TIP3    H143302   5.231   4.873   6.700
14475TIP3    H243303   5.086   4.899   6.728
14476TIP3   OH243304   4.176   4.465   7.343
14476TIP3    H143305   4.253   4.411   7.325
14476TIP3    H243306   4.200   4.501   7.432
14477TIP3   OH243307   4.243   4.288   5.781
14477TIP3    H143308   4.215   4.246   5.864
14477TIP3    H243309   4.277   4.212   5.730
14478TIP3   OH243310   4.502   4.347   7.001
14478TIP3    H143311   4.433   4.417   7.008
14478TIP3    H243312   4.558   4.383   6.928
14479TIP3   OH243313   4.342   4.081   5.621
14479TIP3    H143314   4.315   4.087   5.526
14479TIP3    H243315   4.439   4.089   5.613
14480TIP3   OH243316   5.037   4.752   7.137
14480TIP3    H143317   5.128   4.768   7.107
14480TIP3    H243318   5.055   4.700   7.216
14481TIP3   OH243319   5.170   4.414   5.281
14481TIP3    H143320   5.149   4.370   5.196
14481TIP3    H243321   5.134   4.504   5.261
14482TIP3   OH243322   4.630   4.141   7.136
14482TIP3    H143323   4.636   4.061   7.080
14482TIP3    H243324   4.588   4.205   7.075
14483TIP3   OH243325   4.648   3.934   6.941
14483TIP3    H143326   4.671   3.967   6.852
14483TIP3    H243327   4.552   3.912   6.928
14484TIP3   OH243328   4.662   4.462   6.815
14484TIP3    H143329   4.748   4.467   6.770
14484TIP3    H243330   4.612   4.533   6.770
14485TIP3   OH243331   5.288   4.661   6.907
14485TIP3    H143332   5.228   4.726   6.863
14485TIP3    H243333   5.375   4.697   6.880
14486TIP3   OH243334   4.508   4.257   7.361
14486TIP3    H143335   4.442   4.187   7.377
14486TIP3    H243336   4.546   4.229   7.276
14487TIP3   OH243337   4.759   3.689   7.003
14487TIP3    H143338   4.717   3.776   6.984
14487TIP3    H243339   4.687   3.629   6.975
14488TIP3   OH243340   4.896   4.195   7.223
14488TIP3    H143341   4.892   4.184   7.320
14488TIP3    H243342   4.804   4.169   7.199
14489TIP3   OH243343   5.135   4.143   7.077
14489TIP3    H143344   5.061   4.147   7.141
14489TIP3    H243345   5.210   4.122   7.136
14490TIP3   OH243346   5.362   4.088   7.234
14490TIP3    H143347   5.372   3.994   7.259
14490TIP3    H243348   5.358   4.134   7.320
14491TIP3   OH243349   4.349   4.040   7.419
14491TIP3    H143350   4.353   3.949   7.382
14491TIP3    H243351   4.386   4.025   7.508
14492TIP3   OH243352   4.861   3.700   7.261
14492TIP3    H143353   4.929   3.630   7.254
14492TIP3    H243354   4.817   3.691   7.173
14493TIP3   OH243355   4.924   3.911   7.428
14493TIP3    H143356   4.904   3.844   7.359
14493TIP3    H243357   4.850   3.974   7.418
14494TIP3   OH243358   4.145   5.142   5.514
14494TIP3    H143359   4.242   5.148   5.509
14494TIP3    H243360   4.120   5.191   5.434
14495TIP3   OH243361   3.635   4.522   5.751
14495TIP3    H143362   3.725   4.554   5.730
14495TIP3    H243363   3.632   4.439   5.700
14496TIP3   OH243364   3.541   5.142   6.150
14496TIP3    H143365   3.475   5.078   6.116
14496TIP3    H243366   3.585   5.087   6.219
14497TIP3   OH243367   3.669   5.004   6.344
14497TIP3    H143368   3.671   4.919   6.391
14497TIP3    H243369   3.732   5.056   6.397
14498TIP3   OH243370   5.403   5.397   6.140
14498TIP3    H143371   5.434   5.423   6.228
14498TIP3    H243372   5.471   5.435   6.082
14499TIP3   OH243373   5.438   5.412   6.421
14499TIP3    H143374   5.394   5.324   6.419
14499TIP3    H243375   5.511   5.391   6.482
14500TIP3   OH243376   5.484   5.087   6.993
14500TIP3    H143377   5.411   5.089   7.058
14500TIP3    H243378   5.523   5.177   7.003
14501TIP3   OH243379   5.299   4.600   5.616
14501TIP3    H143380   5.365   4.666   5.589
14501TIP3    H243381   5.342   4.561   5.695
14502TIP3   OH243382   5.427   4.469   5.820
14502TIP3    H143383   5.361   4.426   5.879
14502TIP3    H243384   5.491   4.507   5.882
14503TIP3   OH243385   5.479   4.860   6.250
14503TIP3    H143386   5.534   4.796   6.201
14503TIP3    H243387   5.473   4.935   6.187
14504TIP3   OH243388   5.313   5.163   6.445
14504TIP3    H143389   5.243   5.201   6.501
14504TIP3    H243390   5.261   5.112   6.379
14505TIP3   OH243391   5.367   4.376   5.467
14505TIP3    H143392   5.295   4.378   5.399
14505TIP3    H243393   5.339   4.451   5.523
14506TIP3   OH243394   5.237   4.049   5.421
14506TIP3    H143395   5.194   4.090   5.345
14506TIP3    H243396   5.210   3.955   5.409
14507TIP3   OH243397   5.241   4.325   5.966
14507TIP3    H143398   5.249   4.228   5.962
14507TIP3    H243399   5.227   4.339   6.063
14508TIP3   OH243400   5.531   4.750   6.820
14508TIP3    H143401   5.604   4.685   6.813
14508TIP3    H243402   5.562   4.824   6.765
14509TIP3   OH243403   5.721   4.559   6.834
14509TIP3    H143404   5.645   4.510   6.874
14509TIP3    H243405   5.792   4.494   6.851
14510TIP3   OH243406   5.181   3.782   5.405
14510TIP3    H143407   5.256   3.754   5.461
14510TIP3    H243408   5.108   3.725   5.433
14511TIP3   OH243409   5.237   4.041   5.862
14511TIP3    H143410   5.277   3.952   5.877
14511TIP3    H243411   5.296   4.074   5.792
14512TIP3   OH243412   5.399   4.215   6.355
14512TIP3    H143413   5.485   4.241   6.316
14512TIP3    H243414   5.411   4.253   6.444
14513TIP3   OH243415   5.466   4.357   6.586
14513TIP3    H143416   5.390   4.390   6.639
14513TIP3    H243417   5.498   4.440   6.545
14514TIP3   OH243418   4.082   4.085   7.384
14514TIP3    H143419   4.180   4.081   7.386
14514TIP3    H243420   4.061   4.002   7.430
14515TIP3   OH243421   5.926   3.952   7.145
14515TIP3    H143422   5.979   3.885   7.098
14515TIP3    H243423   5.891   4.006   7.071
14516TIP3   OH243424   5.346   3.791   5.898
14516TIP3    H143425   5.394   3.775   5.982
14516TIP3    H243426   5.286   3.714   5.898
14517TIP3   OH243427   4.048   3.777   6.725
14517TIP3    H143428   4.104   3.699   6.737
14517TIP3    H243429   4.115   3.847   6.708
14518TIP3   OH243430   3.844   4.070   6.791
14518TIP3    H143431   3.887   4.052   6.705
14518TIP3    H243432   3.918   4.109   6.839
14519TIP3   OH243433   5.793   4.090   6.955
14519TIP3    H143434   5.711   4.133   6.989
14519TIP3    H243435   5.753   4.026   6.893
14520TIP3   OH243436   5.427   3.728   5.530
14520TIP3    H143437   5.468   3.655   5.479
14520TIP3    H243438   5.495   3.797   5.525
14521TIP3   OH243439   3.829   3.558   6.294
14521TIP3    H143440   3.734   3.553   6.316
14521TIP3    H243441   3.829   3.614   6.214
14522TIP3   OH243442   4.963   5.248   5.823
14522TIP3    H143443   5.010   5.226   5.739
14522TIP3    H243444   5.028   5.312   5.858
14523TIP3   OH243445   4.027   3.615   7.109
14523TIP3    H143446   3.993   3.640   7.196
14523TIP3    H243447   3.971   3.669   7.049
14524TIP3   OH243448   4.091   5.063   7.184
14524TIP3    H143449   3.999   5.034   7.169
14524TIP3    H243450   4.104   5.043   7.277
14525TIP3   OH243451   4.269   5.091   6.731
14525TIP3    H143452   4.221   5.166   6.690
14525TIP3    H243453   4.356   5.107   6.688
14526TIP3   OH243454   4.716   5.341   6.869
14526TIP3    H143455   4.758   5.339   6.958
14526TIP3    H243456   4.783   5.390   6.818
14527TIP3   OH243457   4.896   5.491   6.726
14527TIP3    H143458   4.968   5.437   6.689
14527TIP3    H243459   4.946   5.548   6.788
14528TIP3   OH243460   5.689   3.854   6.827
14528TIP3    H143461   5.598   3.854   6.794
14528TIP3    H243462   5.715   3.760   6.814
14529TIP3   OH243463   3.947   5.350   6.755
14529TIP3    H143464   3.859   5.386   6.730
14529TIP3    H243465   3.955   5.384   6.844
14530TIP3   OH243466   4.185   5.330   6.613
14530TIP3    H143467   4.098   5.342   6.656
14530TIP3    H243468   4.167   5.360   6.522
14531TIP3   OH243469   4.612   5.363   6.410
14531TIP3    H143470   4.536   5.378   6.350
14531TIP3    H243471   4.622   5.451   6.452
14532TIP3   OH243472   4.878   5.297   6.458
14532TIP3    H143473   4.784   5.312   6.438
14532TIP3    H243474   4.919   5.378   6.425
14533TIP3   OH243475   5.086   5.491   6.378
14533TIP3    H143476   5.073   5.576   6.329
14533TIP3    H243477   5.112   5.430   6.306
14534TIP3   OH243478   3.852   5.148   6.506
14534TIP3    H143479   3.882   5.124   6.596
14534TIP3    H243480   3.927   5.109   6.455
14535TIP3   OH243481   4.058   5.029   6.385
14535TIP3    H143482   4.072   4.937   6.363
14535TIP3    H243483   4.129   5.072   6.333
14536TIP3   OH243484   4.332   5.120   6.350
14536TIP3    H143485   4.350   5.026   6.341
14536TIP3    H243486   4.364   5.136   6.441
14537TIP3   OH243487   4.892   3.767   6.445
14537TIP3    H143488   4.850   3.698   6.500
14537TIP3    H243489   4.966   3.718   6.403
14538TIP3   OH243490   5.419   3.645   6.351
14538TIP3    H143491   5.454   3.699   6.278
14538TIP3    H243492   5.323   3.666   6.347
14539TIP3   OH243493   5.512   3.749   6.115
14539TIP3    H143494   5.586   3.698   6.075
14539TIP3    H243495   5.545   3.840   6.101
14540TIP3   OH243496   4.138   3.482   6.442
14540TIP3    H143497   4.050   3.444   6.457
14540TIP3    H243498   4.195   3.403   6.458
14541TIP3   OH243499   3.926   3.345   6.109
14541TIP3    H143500   3.958   3.404   6.038
14541TIP3    H243501   3.901   3.410   6.178
14542TIP3   OH243502   4.585   3.508   6.340
14542TIP3    H143503   4.647   3.561   6.288
14542TIP3    H243504   4.602   3.541   6.430
14543TIP3   OH243505   5.135   3.656   6.328
14543TIP3    H143506   5.130   3.619   6.239
14543TIP3    H243507   5.121   3.575   6.383
14544TIP3   OH243508   5.162   3.577   5.889
14544TIP3    H143509   5.076   3.621   5.902
14544TIP3    H243510   5.148   3.493   5.936
14545TIP3   OH243511   3.642   4.911   5.892
14545TIP3    H143512   3.556   4.883   5.857
14545TIP3    H243513   3.638   5.006   5.875
14546TIP3   OH243514   4.046   3.506   5.874
14546TIP3    H143515   4.095   3.444   5.818
14546TIP3    H243516   4.118   3.561   5.911
14547TIP3   OH243517   4.559   3.680   5.973
14547TIP3    H143518   4.618   3.633   6.035
14547TIP3    H243519   4.580   3.773   5.998
14548TIP3   OH243520   4.423   5.103   5.468
14548TIP3    H143521   4.489   5.156   5.420
14548TIP3    H243522   4.382   5.052   5.396
14549TIP3   OH243523   5.125   5.225   5.580
14549TIP3    H143524   5.129   5.129   5.556
14549TIP3    H243525   5.087   5.263   5.497
14550TIP3   OH243526   4.347   3.772   7.360
14550TIP3    H143527   4.316   3.686   7.393
14550TIP3    H243528   4.443   3.765   7.382
14551TIP3   OH243529   4.600   3.755   7.475
14551TIP3    H143530   4.684   3.735   7.431
14551TIP3    H243531   4.593   3.680   7.537
14552TIP3   OH243532   3.744   4.956   5.531
14552TIP3    H143533   3.695   4.987   5.609
14552TIP3    H243534   3.811   4.899   5.572
14553TIP3   OH243535   5.423   3.812   7.262
14553TIP3    H143536   5.444   3.784   7.353
14553TIP3    H243537   5.511   3.812   7.220
14554TIP3   OH243538   5.366   5.370   6.749
14554TIP3    H143539   5.285   5.337   6.707
14554TIP3    H243540   5.344   5.465   6.758
14555TIP3   OH243541   6.628   4.740   5.520
14555TIP3    H143542   6.601   4.831   5.497
14555TIP3    H243543   6.551   4.691   5.486
14556TIP3   OH243544   6.631   4.740   5.899
14556TIP3    H143545   6.659   4.710   5.987
14556TIP3    H243546   6.586   4.662   5.863
14557TIP3   OH243547   5.929   4.635   6.263
14557TIP3    H143548   5.959   4.568   6.328
14557TIP3    H243549   6.004   4.696   6.263
14558TIP3   OH243550   6.874   5.039   5.582
14558TIP3    H143551   6.856   4.972   5.649
14558TIP3    H243552   6.900   5.116   5.635
14559TIP3   OH243553   5.898   5.045   5.991
14559TIP3    H143554   5.890   4.947   5.994
14559TIP3    H243555   5.995   5.054   5.986
14560TIP3   OH243556   5.607   4.249   5.776
14560TIP3    H143557   5.558   4.332   5.791
14560TIP3    H243558   5.536   4.194   5.739
14561TIP3   OH243559   5.666   4.536   5.947
14561TIP3    H143560   5.714   4.459   5.984
14561TIP3    H243561   5.726   4.565   5.877
14562TIP3   OH243562   6.519   5.504   5.598
14562TIP3    H143563   6.566   5.434   5.549
14562TIP3    H243564   6.514   5.466   5.686
14563TIP3   OH243565   6.427   4.966   5.949
14563TIP3    H143566   6.464   4.891   5.900
14563TIP3    H243567   6.511   5.011   5.973
14564TIP3   OH243568   7.441   4.286   5.947
14564TIP3    H143569   7.469   4.369   5.991
14564TIP3    H243570   7.459   4.308   5.854
14565TIP3   OH243571   6.840   4.468   5.982
14565TIP3    H143572   6.882   4.382   6.002
14565TIP3    H243573   6.809   4.453   5.891
14566TIP3   OH243574   6.178   4.127   5.947
14566TIP3    H143575   6.156   4.200   5.885
14566TIP3    H243576   6.129   4.054   5.903
14567TIP3   OH243577   6.871   4.217   5.570
14567TIP3    H143578   6.944   4.202   5.634
14567TIP3    H243579   6.922   4.254   5.495
14568TIP3   OH243580   5.811   4.330   6.053
14568TIP3    H143581   5.894   4.310   6.101
14568TIP3    H243582   5.824   4.273   5.974
14569TIP3   OH243583   6.252   4.527   5.844
14569TIP3    H143584   6.346   4.501   5.859
14569TIP3    H243585   6.213   4.443   5.813
14570TIP3   OH243586   7.514   4.494   6.116
14570TIP3    H143587   7.430   4.542   6.096
14570TIP3    H243588   7.526   4.518   6.209
14571TIP3   OH243589   6.174   4.110   6.381
14571TIP3    H143590   6.114   4.148   6.314
14571TIP3    H243591   6.122   4.128   6.462
14572TIP3   OH243592   6.519   4.958   5.392
14572TIP3    H143593   6.486   4.940   5.301
14572TIP3    H243594   6.475   5.043   5.411
14573TIP3   OH243595   6.281   4.885   6.178
14573TIP3    H143596   6.217   4.950   6.216
14573TIP3    H243597   6.322   4.937   6.106
14574TIP3   OH243598   7.084   4.218   5.740
14574TIP3    H143599   7.069   4.173   5.824
14574TIP3    H243600   7.135   4.297   5.768
14575TIP3   OH243601   6.045   4.226   6.166
14575TIP3    H143602   6.107   4.298   6.189
14575TIP3    H243603   6.094   4.185   6.091
14576TIP3   OH243604   6.107   5.078   6.273
14576TIP3    H143605   6.082   5.164   6.235
14576TIP3    H243606   6.029   5.062   6.331
14577TIP3   OH243607   5.506   4.768   5.517
14577TIP3    H143608   5.464   4.792   5.432
14577TIP3    H243609   5.533   4.856   5.551
14578TIP3   OH243610   6.944   5.285   5.752
14578TIP3    H143611   6.854   5.276   5.790
14578TIP3    H243612   6.935   5.370   5.704
14579TIP3   OH243613   7.233   4.186   6.113
14579TIP3    H143614   7.145   4.215   6.083
14579TIP3    H243615   7.291   4.218   6.041
14580TIP3   OH243616   6.532   3.830   6.096
14580TIP3    H143617   6.517   3.735   6.111
14580TIP3    H243618   6.454   3.869   6.141
14581TIP3   OH243619   6.645   5.333   5.425
14581TIP3    H143620   6.693   5.249   5.403
14581TIP3    H243621   6.709   5.397   5.385
14582TIP3   OH243622   6.783   5.117   5.331
14582TIP3    H143623   6.759   5.039   5.279
14582TIP3    H243624   6.819   5.077   5.413
14583TIP3   OH243625   7.170   5.199   6.093
14583TIP3    H143626   7.158   5.121   6.034
14583TIP3    H243627   7.151   5.273   6.032
14584TIP3   OH243628   6.458   4.591   5.349
14584TIP3    H143629   6.379   4.646   5.330
14584TIP3    H243630   6.505   4.595   5.264
14585TIP3   OH243631   6.419   4.376   5.071
14585TIP3    H143632   6.486   4.427   5.119
14585TIP3    H243633   6.477   4.315   5.020
14586TIP3   OH243634   7.365   4.835   5.938
14586TIP3    H143635   7.281   4.887   5.943
14586TIP3    H243636   7.394   4.859   5.847
14587TIP3   OH243637   6.807   4.670   5.323
14587TIP3    H143638   6.752   4.699   5.400
14587TIP3    H243639   6.891   4.649   5.369
14588TIP3   OH243640   7.043   4.715   6.233
14588TIP3    H143641   7.039   4.798   6.283
14588TIP3    H243642   6.956   4.718   6.188
14589TIP3   OH243643   6.039   4.672   5.740
14589TIP3    H143644   5.998   4.615   5.672
14589TIP3    H243645   6.117   4.619   5.767
14590TIP3   OH243646   6.169   5.084   5.887
14590TIP3    H143647   6.148   5.042   5.803
14590TIP3    H243648   6.259   5.050   5.905
14591TIP3   OH243649   6.180   4.642   6.093
14591TIP3    H143650   6.211   4.624   6.002
14591TIP3    H243651   6.220   4.729   6.113
14592TIP3   OH243652   6.702   5.281   5.870
14592TIP3    H143653   6.688   5.361   5.924
14592TIP3    H243654   6.687   5.208   5.933
14593TIP3   OH243655   6.314   5.200   6.417
14593TIP3    H143656   6.254   5.262   6.464
14593TIP3    H243657   6.248   5.147   6.368
14594TIP3   OH243658   6.651   4.530   5.148
14594TIP3    H143659   6.707   4.591   5.201
14594TIP3    H243660   6.675   4.557   5.056
14595TIP3   OH243661   6.067   4.757   6.515
14595TIP3    H143662   6.073   4.843   6.562
14595TIP3    H243663   5.972   4.737   6.529
14596TIP3   OH243664   6.389   5.215   5.427
14596TIP3    H143665   6.469   5.267   5.443
14596TIP3    H243666   6.329   5.279   5.386
14597TIP3   OH243667   6.108   5.369   6.504
14597TIP3    H143668   6.072   5.366   6.414
14597TIP3    H243669   6.030   5.347   6.559
14598TIP3   OH243670   7.164   3.773   5.196
14598TIP3    H143671   7.082   3.793   5.247
14598TIP3    H243672   7.177   3.857   5.148
14599TIP3   OH243673   5.906   4.514   5.544
14599TIP3    H143674   5.841   4.559   5.486
14599TIP3    H243675   5.863   4.429   5.558
14600TIP3   OH243676   6.961   5.145   4.745
14600TIP3    H143677   6.964   5.241   4.724
14600TIP3    H243678   7.055   5.121   4.734
14601TIP3   OH243679   5.688   4.898   6.451
14601TIP3    H143680   5.622   4.874   6.383
14601TIP3    H243681   5.725   4.811   6.477
14602TIP3   OH243682   5.542   5.092   6.083
14602TIP3    H143683   5.637   5.084   6.074
14602TIP3    H243684   5.535   5.170   6.141
14603TIP3   OH243685   7.407   5.543   6.139
14603TIP3    H143686   7.405   5.447   6.151
14603TIP3    H243687   7.323   5.568   6.184
14604TIP3   OH243688   6.512   5.329   6.274
14604TIP3    H143689   6.511   5.421   6.306
14604TIP3    H243690   6.440   5.289   6.328
14605TIP3   OH243691   6.269   5.457   5.225
14605TIP3    H143692   6.223   5.440   5.141
14605TIP3    H243693   6.240   5.547   5.248
14606TIP3   OH243694   5.710   5.308   5.609
14606TIP3    H143695   5.758   5.298   5.695
14606TIP3    H243696   5.652   5.230   5.612
14607TIP3   OH243697   6.463   5.367   4.909
14607TIP3    H143698   6.539   5.332   4.861
14607TIP3    H243699   6.502   5.382   4.998
14608TIP3   OH243700   6.529   5.415   5.163
14608TIP3    H143701   6.438   5.419   5.199
14608TIP3    H243702   6.577   5.366   5.232
14609TIP3   OH243703   7.297   4.675   6.413
14609TIP3    H143704   7.215   4.689   6.363
14609TIP3    H243705   7.311   4.579   6.403
14610TIP3   OH243706   5.892   5.082   6.440
14610TIP3    H143707   5.942   5.066   6.523
14610TIP3    H243708   5.818   5.018   6.449
14611TIP3   OH243709   6.292   3.906   6.223
14611TIP3    H143710   6.203   3.875   6.197
14611TIP3    H243711   6.267   3.988   6.268
14612TIP3   OH243712   6.825   4.021   6.417
14612TIP3    H143713   6.892   3.994   6.483
14612TIP3    H243714   6.740   4.001   6.463
14613TIP3   OH243715   7.067   4.451   6.337
14613TIP3    H143716   7.016   4.446   6.421
14613TIP3    H243717   7.040   4.538   6.301
14614TIP3   OH243718   6.722   4.580   4.890
14614TIP3    H143719   6.694   4.549   4.802
14614TIP3    H243720   6.803   4.630   4.868
14615TIP3   OH243721   6.438   3.953   5.194
14615TIP3    H143722   6.405   3.952   5.286
14615TIP3    H243723   6.398   3.871   5.161
14616TIP3   OH243724   6.224   4.420   6.243
14616TIP3    H143725   6.173   4.442   6.323
14616TIP3    H243726   6.208   4.501   6.189
14617TIP3   OH243727   6.108   4.306   5.756
14617TIP3    H143728   6.015   4.281   5.773
14617TIP3    H243729   6.120   4.266   5.667
14618TIP3   OH243730   6.597   4.393   5.483
14618TIP3    H143731   6.543   4.465   5.442
14618TIP3    H243732   6.651   4.364   5.407
14619TIP3   OH243733   6.772   4.671   6.569
14619TIP3    H143734   6.750   4.599   6.632
14619TIP3    H243735   6.865   4.686   6.592
14620TIP3   OH243736   6.755   4.422   5.723
14620TIP3    H143737   6.696   4.454   5.653
14620TIP3    H243738   6.787   4.340   5.679
14621TIP3   OH243739   6.043   4.450   6.451
14621TIP3    H143740   6.063   4.515   6.519
14621TIP3    H243741   6.030   4.368   6.503
14622TIP3   OH243742   6.092   3.927   5.161
14622TIP3    H143743   6.084   3.925   5.258
14622TIP3    H243744   6.014   3.980   5.137
14623TIP3   OH243745   5.635   3.973   6.030
14623TIP3    H143746   5.710   4.004   6.085
14623TIP3    H243747   5.678   3.939   5.950
14624TIP3   OH243748   5.610   3.954   5.550
14624TIP3    H143749   5.655   3.993   5.472
14624TIP3    H243750   5.548   4.026   5.572
14625TIP3   OH243751   6.767   4.668   6.147
14625TIP3    H143752   6.799   4.596   6.088
14625TIP3    H243753   6.737   4.616   6.224
14626TIP3   OH243754   6.434   4.127   5.818
14626TIP3    H143755   6.351   4.127   5.869
14626TIP3    H243756   6.500   4.131   5.889
14627TIP3   OH243757   5.869   4.185   5.825
14627TIP3    H143758   5.774   4.193   5.799
14627TIP3    H243759   5.891   4.093   5.803
14628TIP3   OH243760   6.140   4.181   5.513
14628TIP3    H143761   6.233   4.198   5.491
14628TIP3    H243762   6.092   4.204   5.430
14629TIP3   OH243763   6.927   4.204   6.017
14629TIP3    H143764   6.894   4.217   6.109
14629TIP3    H243765   6.859   4.143   5.982
14630TIP3   OH243766   5.979   4.213   5.293
14630TIP3    H143767   5.907   4.170   5.244
14630TIP3    H243768   6.031   4.251   5.219
14631TIP3   OH243769   7.096   5.893   6.237
14631TIP3    H143770   7.093   5.916   6.143
14631TIP3    H243771   7.172   5.945   6.268
14632TIP3   OH243772   6.055   5.004   6.658
14632TIP3    H143773   6.133   5.035   6.709
14632TIP3    H243774   5.989   5.001   6.731
14633TIP3   OH243775   6.517   4.456   5.915
14633TIP3    H143776   6.591   4.418   5.865
14633TIP3    H243777   6.528   4.415   6.003
14634TIP3   OH243778   6.042   3.945   5.793
14634TIP3    H143779   6.007   3.866   5.839
14634TIP3    H243780   6.091   3.907   5.719
14635TIP3   OH243781   6.494   4.353   6.206
14635TIP3    H143782   6.405   4.390   6.218
14635TIP3    H243783   6.551   4.415   6.256
14636TIP3   OH243784   6.226   4.740   5.300
14636TIP3    H143785   6.152   4.677   5.291
14636TIP3    H243786   6.210   4.777   5.391
14637TIP3   OH243787   7.132   4.980   5.930
14637TIP3    H143788   7.155   5.030   5.848
14637TIP3    H243789   7.046   4.939   5.905
14638TIP3   OH243790   6.690   4.058   5.159
14638TIP3    H143791   6.593   4.041   5.168
14638TIP3    H243792   6.699   4.152   5.184
14639TIP3   OH243793   6.633   5.064   6.297
14639TIP3    H143794   6.650   5.041   6.389
14639TIP3    H243795   6.591   5.152   6.304
14640TIP3   OH243796   6.759   4.303   5.264
14640TIP3    H143797   6.855   4.313   5.280
14640TIP3    H243798   6.738   4.384   5.213
14641TIP3   OH243799   5.923   4.767   5.977
14641TIP3    H143800   5.961   4.737   5.892
14641TIP3    H243801   5.961   4.703   6.039
14642TIP3   OH243802   6.393   4.904   5.152
14642TIP3    H143803   6.337   4.983   5.134
14642TIP3    H243804   6.327   4.841   5.187
14643TIP3   OH243805   5.805   4.686   6.587
14643TIP3    H143806   5.823   4.675   6.683
14643TIP3    H243807   5.733   4.621   6.574
14644TIP3   OH243808   6.529   4.801   6.608
14644TIP3    H143809   6.468   4.742   6.561
14644TIP3    H243810   6.616   4.767   6.579
14645TIP3   OH243811   6.792   5.323   6.191
14645TIP3    H143812   6.695   5.320   6.204
14645TIP3    H243813   6.819   5.374   6.270
14646TIP3   OH243814   7.203   4.393   5.100
14646TIP3    H143815   7.140   4.349   5.038
14646TIP3    H243816   7.198   4.483   5.061
14647TIP3   OH243817   7.420   5.252   6.182
14647TIP3    H143818   7.322   5.247   6.174
14647TIP3    H243819   7.445   5.222   6.092
14648TIP3   OH243820   6.900   5.212   5.010
14648TIP3    H143821   6.872   5.138   5.066
14648TIP3    H243822   6.913   5.169   4.923
14649TIP3   OH243823   6.897   4.842   5.850
14649TIP3    H143824   6.804   4.817   5.862
14649TIP3    H243825   6.931   4.764   5.803
14650TIP3   OH243826   6.024   5.070   5.602
14650TIP3    H143827   6.026   5.151   5.546
14650TIP3    H243828   5.929   5.055   5.609
14651TIP3   OH243829   5.582   4.379   5.294
14651TIP3    H143830   5.633   4.458   5.323
14651TIP3    H243831   5.509   4.380   5.359
14652TIP3   OH243832   6.163   4.835   5.546
14652TIP3    H143833   6.129   4.926   5.563
14652TIP3    H243834   6.125   4.787   5.622
14653TIP3   OH243835   6.292   5.415   6.070
14653TIP3    H143836   6.334   5.487   6.019
14653TIP3    H243837   6.369   5.380   6.119
14654TIP3   OH243838   5.943   5.310   5.452
14654TIP3    H143839   5.858   5.318   5.499
14654TIP3    H243840   5.975   5.403   5.456
14655TIP3   OH243841   6.682   5.048   6.028
14655TIP3    H143842   6.674   5.047   6.126
14655TIP3    H243843   6.762   4.995   6.015
14656TIP3   OH243844   6.931   5.583   6.079
14656TIP3    H143845   6.852   5.526   6.072
14656TIP3    H243846   6.914   5.647   6.006
14657TIP3   OH243847   6.995   5.419   4.730
14657TIP3    H143848   7.023   5.487   4.667
14657TIP3    H243849   6.907   5.456   4.753
14658TIP3   OH243850   6.015   4.191   6.597
14658TIP3    H143851   5.920   4.200   6.614
14658TIP3    H243852   6.043   4.133   6.670
14659TIP3   OH243853   6.824   4.888   5.143
14659TIP3    H143854   6.807   4.812   5.201
14659TIP3    H243855   6.917   4.874   5.118
14660TIP3   OH243856   5.731   5.278   6.230
14660TIP3    H143857   5.783   5.201   6.260
14660TIP3    H243858   5.759   5.344   6.294
14661TIP3   OH243859   6.014   4.907   4.908
14661TIP3    H143860   6.039   4.816   4.885
14661TIP3    H243861   6.006   4.905   5.004
14662TIP3   OH243862   5.963   4.926   5.193
14662TIP3    H143863   6.045   4.901   5.238
14662TIP3    H243864   5.971   5.024   5.190
14663TIP3   OH243865   5.702   4.620   5.386
14663TIP3    H143866   5.638   4.666   5.443
14663TIP3    H243867   5.724   4.690   5.322
14664TIP3   OH243868   6.854   4.256   6.276
14664TIP3    H143869   6.931   4.295   6.319
14664TIP3    H243870   6.837   4.176   6.331
14665TIP3   OH243871   6.734   4.008   5.441
14665TIP3    H143872   6.718   4.033   5.348
14665TIP3    H243873   6.771   4.091   5.478
14666TIP3   OH243874   6.229   5.123   5.127
14666TIP3    H143875   6.142   5.149   5.162
14666TIP3    H243876   6.252   5.200   5.073
14667TIP3   OH243877   6.424   4.186   5.545
14667TIP3    H143878   6.487   4.259   5.527
14667TIP3    H243879   6.427   4.181   5.642
14668TIP3   OH243880   6.691   4.507   6.353
14668TIP3    H143881   6.709   4.562   6.432
14668TIP3    H243882   6.746   4.429   6.370
14669TIP3   OH243883   6.567   3.917   5.649
14669TIP3    H143884   6.557   3.995   5.706
14669TIP3    H243885   6.627   3.953   5.580
14670TIP3   OH243886   5.974   5.200   5.199
14670TIP3    H143887   5.943   5.270   5.138
14670TIP3    H243888   5.959   5.243   5.287
14671TIP3   OH243889   6.077   3.913   5.437
14671TIP3    H143890   6.075   4.004   5.473
14671TIP3    H243891   6.173   3.895   5.446
14672TIP3   OH243892   7.333   4.406   6.332
14672TIP3    H143893   7.235   4.406   6.342
14672TIP3    H243894   7.341   4.366   6.245
14673TIP3   OH243895   6.983   4.601   5.722
14673TIP3    H143896   6.906   4.542   5.734
14673TIP3    H243897   7.054   4.553   5.770
14674TIP3   OH243898   5.697   4.838   5.184
14674TIP3    H143899   5.772   4.898   5.204
14674TIP3    H243900   5.743   4.779   5.120
14675TIP3   OH243901   5.638   4.109   5.325
14675TIP3    H143902   5.638   4.206   5.316
14675TIP3    H243903   5.555   4.085   5.282
14676TIP3   OH243904   6.950   5.557   5.672
14676TIP3    H143905   6.907   5.604   5.597
14676TIP3    H243906   7.044   5.575   5.650
14677TIP3   OH243907   6.028   3.826   6.198
14677TIP3    H143908   5.996   3.793   6.112
14677TIP3    H243909   6.016   3.747   6.256
14678TIP3   OH243910   5.567   5.047   5.580
14678TIP3    H143911   5.491   5.075   5.634
14678TIP3    H243912   5.541   5.084   5.493
14679TIP3   OH243913   5.722   5.585   6.649
14679TIP3    H143914   5.807   5.585   6.698
14679TIP3    H243915   5.700   5.491   6.650
14680TIP3   OH243916   6.206   5.554   6.691
14680TIP3    H143917   6.299   5.531   6.703
14680TIP3    H243918   6.180   5.492   6.620
14681TIP3   OH243919   6.845   5.455   6.427
14681TIP3    H143920   6.835   5.386   6.496
14681TIP3    H243921   6.921   5.507   6.460
14682TIP3   OH243922   5.855   4.992   6.849
14682TIP3    H143923   5.869   4.897   6.859
14682TIP3    H243924   5.765   4.995   6.810
14683TIP3   OH243925   5.832   4.644   5.050
14683TIP3    H143926   5.892   4.611   5.120
14683TIP3    H243927   5.897   4.652   4.976
14684TIP3   OH243928   6.463   5.077   6.623
14684TIP3    H143929   6.418   5.092   6.538
14684TIP3    H243930   6.492   4.983   6.616
14685TIP3   OH243931   6.954   5.083   6.231
14685TIP3    H143932   7.027   5.130   6.186
14685TIP3    H243933   6.881   5.146   6.219
14686TIP3   OH243934   5.975   4.727   6.831
14686TIP3    H143935   6.045   4.662   6.818
14686TIP3    H243936   5.997   4.760   6.921
14687TIP3   OH243937   6.031   4.544   5.265
14687TIP3    H143938   6.011   4.501   5.350
14687TIP3    H243939   6.072   4.470   5.215
14688TIP3   OH243940   6.309   4.612   6.496
14688TIP3    H143941   6.229   4.669   6.498
14688TIP3    H243942   6.355   4.645   6.416
14689TIP3   OH243943   6.138   4.338   5.108
14689TIP3    H143944   6.112   4.343   5.013
14689TIP3    H243945   6.236   4.346   5.100
14690TIP3   OH243946   6.823   5.013   6.629
14690TIP3    H143947   6.904   4.989   6.581
14690TIP3    H243948   6.820   4.946   6.699
14691TIP3   OH243949   6.967   4.668   4.769
14691TIP3    H143950   6.944   4.627   4.683
14691TIP3    H243951   6.934   4.760   4.751
14692TIP3   OH243952   6.433   4.398   6.619
14692TIP3    H143953   6.429   4.318   6.563
14692TIP3    H243954   6.387   4.465   6.563
14693TIP3   OH243955   6.433   4.183   6.427
14693TIP3    H143956   6.459   4.226   6.343
14693TIP3    H243957   6.339   4.162   6.409
14694TIP3   OH243958   6.462   4.721   6.300
14694TIP3    H143959   6.544   4.731   6.250
14694TIP3    H243960   6.404   4.788   6.257
14695TIP3   OH243961   7.043   4.687   6.682
14695TIP3    H143962   7.093   4.605   6.693
14695TIP3    H243963   7.110   4.748   6.648
14696TIP3   OH243964   7.084   4.940   6.419
14696TIP3    H143965   7.025   4.993   6.360
14696TIP3    H243966   7.171   4.961   6.378
14697TIP3   OH243967   6.311   4.510   6.851
14697TIP3    H143968   6.239   4.445   6.866
14697TIP3    H243969   6.343   4.484   6.762
14698TIP3   OH243970   6.565   3.949   6.495
14698TIP3    H143971   6.517   4.031   6.472
14698TIP3    H243972   6.495   3.881   6.483
14699TIP3   OH243973   6.692   4.453   6.711
14699TIP3    H143974   6.678   4.443   6.807
14699TIP3    H243975   6.602   4.429   6.680
14700TIP3   OH243976   6.930   4.400   6.565
14700TIP3    H143977   6.854   4.404   6.627
14700TIP3    H243978   7.003   4.371   6.623
14701TIP3   OH243979   7.161   4.343   6.717
14701TIP3    H143980   7.172   4.247   6.736
14701TIP3    H243981   7.156   4.383   6.806
14702TIP3   OH243982   6.148   4.291   6.902
14702TIP3    H143983   6.153   4.200   6.869
14702TIP3    H243984   6.181   4.280   6.993
14703TIP3   OH243985   6.658   3.955   6.753
14703TIP3    H143986   6.728   3.887   6.744
14703TIP3    H243987   6.618   3.952   6.664
14704TIP3   OH243988   6.724   4.173   6.912
14704TIP3    H143989   6.701   4.103   6.847
14704TIP3    H243990   6.648   4.233   6.906
14705TIP3   OH243991   5.938   5.403   5.012
14705TIP3    H143992   6.034   5.390   4.998
14705TIP3    H243993   5.914   5.447   4.928
14706TIP3   OH243994   5.437   4.787   5.250
14706TIP3    H143995   5.528   4.813   5.222
14706TIP3    H243996   5.426   4.701   5.209
14707TIP3   OH243997   5.338   5.395   5.639
14707TIP3    H143998   5.269   5.334   5.607
14707TIP3    H243999   5.383   5.339   5.706
14708TIP3   OH244000   5.474   5.250   5.828
14708TIP3    H144001   5.466   5.174   5.888
14708TIP3    H244002   5.527   5.310   5.884
14709TIP3   OH244003   7.203   5.647   5.627
14709TIP3    H144004   7.231   5.681   5.714
14709TIP3    H244005   7.263   5.692   5.566
14710TIP3   OH244006   7.233   5.669   5.910
14710TIP3    H144007   7.188   5.582   5.903
14710TIP3    H244008   7.308   5.645   5.967
14711TIP3   OH244009   7.280   5.344   6.483
14711TIP3    H144010   7.206   5.352   6.546
14711TIP3    H244011   7.319   5.433   6.487
14712TIP3   OH244012   7.100   4.854   5.100
14712TIP3    H144013   7.165   4.922   5.075
14712TIP3    H244014   7.141   4.817   5.182
14713TIP3   OH244015   7.225   4.723   5.306
14713TIP3    H144016   7.157   4.683   5.365
14713TIP3    H244017   7.287   4.764   5.370
14714TIP3   OH244018   7.278   5.117   5.740
14714TIP3    H144019   7.329   5.053   5.687
14714TIP3    H244020   7.269   5.192   5.679
14715TIP3   OH244021   7.109   5.418   5.934
14715TIP3    H144022   7.037   5.460   5.985
14715TIP3    H244023   7.060   5.370   5.865
14716TIP3   OH244024   7.163   4.630   4.954
14716TIP3    H144025   7.092   4.634   4.886
14716TIP3    H244026   7.136   4.707   5.009
14717TIP3   OH244027   7.036   4.304   4.906
14717TIP3    H144028   6.988   4.348   4.834
14717TIP3    H244029   7.008   4.211   4.893
14718TIP3   OH244030   7.039   4.582   5.454
14718TIP3    H144031   7.044   4.485   5.449
14718TIP3    H244032   7.024   4.596   5.550
14719TIP3   OH244033   5.664   4.657   6.198
14719TIP3    H144034   5.662   4.626   6.105
14719TIP3    H244035   5.761   4.657   6.216
14720TIP3   OH244036   7.327   5.006   6.310
14720TIP3    H144037   7.400   4.941   6.300
14720TIP3    H244038   7.352   5.076   6.247
14721TIP3   OH244039   7.513   4.813   6.326
14721TIP3    H144040   7.438   4.763   6.366
14721TIP3    H244041   7.585   4.748   6.341
14722TIP3   OH244042   6.977   4.037   4.891
14722TIP3    H144043   7.050   4.009   4.950
14722TIP3    H244044   6.902   3.982   4.918
14723TIP3   OH244045   7.034   4.298   5.350
14723TIP3    H144046   7.074   4.209   5.364
14723TIP3    H244047   7.091   4.331   5.279
14724TIP3   OH244048   7.196   4.471   5.843
14724TIP3    H144049   7.282   4.498   5.803
14724TIP3    H244050   7.208   4.509   5.932
14725TIP3   OH244051   7.263   4.616   6.075
14725TIP3    H144052   7.185   4.649   6.123
14725TIP3    H244053   7.295   4.697   6.030
14726TIP3   OH244054   5.881   4.340   6.867
14726TIP3    H144055   5.978   4.335   6.875
14726TIP3    H244056   5.855   4.259   6.915
14727TIP3   OH244057   7.714   4.206   6.631
14727TIP3    H144058   7.774   4.141   6.588
14727TIP3    H244059   7.687   4.261   6.555
14728TIP3   OH244060   7.144   4.047   5.384
14728TIP3    H144061   7.190   4.031   5.469
14728TIP3    H244062   7.082   3.971   5.384
14729TIP3   OH244063   5.843   4.033   6.203
14729TIP3    H144064   5.905   3.959   6.214
14729TIP3    H244065   5.904   4.109   6.199
14730TIP3   OH244066   5.646   4.307   6.278
14730TIP3    H144067   5.695   4.304   6.194
14730TIP3    H244068   5.672   4.393   6.313
14731TIP3   OH244069   7.588   4.348   6.437
14731TIP3    H144070   7.501   4.388   6.459
14731TIP3    H244071   7.558   4.276   6.378
14732TIP3   OH244072   7.224   3.983   5.019
14732TIP3    H144073   7.264   3.911   4.966
14732TIP3    H244074   7.291   4.054   5.011
14733TIP3   OH244075   5.629   3.811   5.779
14733TIP3    H144076   5.535   3.809   5.806
14733TIP3    H244077   5.625   3.870   5.700
14734TIP3   OH244078   6.792   5.514   5.289
14734TIP3    H144079   6.838   5.497   5.204
14734TIP3    H244080   6.847   5.584   5.327
14735TIP3   OH244081   5.848   3.888   6.592
14735TIP3    H144082   5.800   3.887   6.676
14735TIP3    H244083   5.782   3.930   6.533
14736TIP3   OH244084   5.888   5.319   6.672
14736TIP3    H144085   5.797   5.290   6.655
14736TIP3    H244086   5.898   5.298   6.766
14737TIP3   OH244087   6.066   5.349   6.218
14737TIP3    H144088   6.018   5.425   6.179
14737TIP3    H244089   6.152   5.363   6.174
14738TIP3   OH244090   6.512   5.595   6.355
14738TIP3    H144091   6.553   5.596   6.445
14738TIP3    H244092   6.578   5.646   6.304
14739TIP3   OH244093   6.691   5.747   6.214
14739TIP3    H144094   6.761   5.696   6.173
14739TIP3    H244095   6.742   5.804   6.275
14740TIP3   OH244096   7.486   4.110   6.315
14740TIP3    H144097   7.394   4.105   6.281
14740TIP3    H244098   7.515   4.017   6.303
14741TIP3   OH244099   5.743   5.610   6.239
14741TIP3    H144100   5.654   5.644   6.218
14741TIP3    H244101   5.752   5.639   6.331
14742TIP3   OH244102   5.980   5.587   6.099
14742TIP3    H144103   5.894   5.600   6.144
14742TIP3    H244104   5.960   5.619   6.009
14743TIP3   OH244105   6.406   5.616   5.897
14743TIP3    H144106   6.337   5.636   5.831
14743TIP3    H244107   6.418   5.704   5.939
14744TIP3   OH244108   6.674   5.556   5.949
14744TIP3    H144109   6.579   5.571   5.929
14744TIP3    H244110   6.716   5.632   5.905
14745TIP3   OH244111   6.884   5.749   5.864
14745TIP3    H144112   6.868   5.832   5.816
14745TIP3    H244113   6.908   5.687   5.791
14746TIP3   OH244114   5.654   5.402   5.988
14746TIP3    H144115   5.682   5.376   6.079
14746TIP3    H244116   5.725   5.358   5.937
14747TIP3   OH244117   5.847   5.274   5.843
14747TIP3    H144118   5.863   5.189   5.892
14747TIP3    H244119   5.938   5.310   5.838
14748TIP3   OH244120   6.114   5.369   5.845
14748TIP3    H144121   6.145   5.277   5.832
14748TIP3    H244122   6.157   5.389   5.930
14749TIP3   OH244123   6.692   4.025   5.936
14749TIP3    H144124   6.646   3.957   5.987
14749TIP3    H244125   6.761   3.975   5.889
14750TIP3   OH244126   7.215   3.903   5.839
14750TIP3    H144127   7.250   3.956   5.764
14750TIP3    H244128   7.119   3.922   5.833
14751TIP3   OH244129   7.309   4.004   5.602
14751TIP3    H144130   7.383   3.954   5.562
14751TIP3    H244131   7.341   4.097   5.588
14752TIP3   OH244132   5.939   3.733   5.950
14752TIP3    H144133   5.846   3.700   5.951
14752TIP3    H244134   5.988   3.648   5.947
14753TIP3   OH244135   5.724   3.604   5.595
14753TIP3    H144136   5.755   3.663   5.524
14753TIP3    H244137   5.696   3.668   5.664
14754TIP3   OH244138   6.383   3.764   5.830
14754TIP3    H144139   6.441   3.816   5.772
14754TIP3    H244140   6.400   3.804   5.916
14755TIP3   OH244141   6.933   3.912   5.814
14755TIP3    H144142   6.925   3.876   5.725
14755TIP3    H244143   6.917   3.831   5.869
14756TIP3   OH244144   6.959   3.834   5.376
14756TIP3    H144145   6.873   3.878   5.388
14756TIP3    H244146   6.943   3.750   5.423
14757TIP3   OH244147   5.442   5.171   5.375
14757TIP3    H144148   5.355   5.140   5.342
14757TIP3    H244149   5.434   5.265   5.354
14758TIP3   OH244150   5.841   3.763   5.361
14758TIP3    H144151   5.891   3.700   5.305
14758TIP3    H244152   5.914   3.817   5.398
14759TIP3   OH244153   6.355   3.936   5.460
14759TIP3    H144154   6.414   3.890   5.521
14759TIP3    H244155   6.376   4.029   5.485
14760TIP3   OH244156   6.201   5.360   4.955
14760TIP3    H144157   6.296   5.378   4.935
14760TIP3    H244158   6.181   5.299   4.882
14761TIP3   OH244159   6.936   5.479   5.056
14761TIP3    H144160   6.926   5.382   5.041
14761TIP3    H244161   6.891   5.514   4.976
14762TIP3   OH244162   6.147   4.014   6.838
14762TIP3    H144163   6.110   3.946   6.897
14762TIP3    H244164   6.241   4.015   6.868
14763TIP3   OH244165   6.395   4.011   6.960
14763TIP3    H144166   6.479   3.987   6.920
14763TIP3    H244167   6.382   3.940   7.026
14764TIP3   OH244168   5.555   5.230   5.036
14764TIP3    H144169   5.493   5.256   5.106
14764TIP3    H244170   5.607   5.162   5.080
14765TIP3   OH244171   7.220   4.071   6.748
14765TIP3    H144172   7.240   4.041   6.839
14765TIP3    H244173   7.309   4.068   6.706
14766TIP3   OH244174   7.161   5.625   6.240
14766TIP3    H144175   7.082   5.592   6.192
14766TIP3    H244176   7.140   5.720   6.243
14767TIP3   OH244177   8.430   4.998   5.003
14767TIP3    H144178   8.401   5.090   4.990
14767TIP3    H244179   8.350   4.949   4.978
14768TIP3   OH244180   8.438   4.990   5.380
14768TIP3    H144181   8.457   4.968   5.473
14768TIP3    H244182   8.382   4.916   5.353
14769TIP3   OH244183   7.726   4.892   5.751
14769TIP3    H144184   7.758   4.825   5.815
14769TIP3    H244185   7.801   4.953   5.748
14770TIP3   OH244186   8.665   5.312   5.059
14770TIP3    H144187   8.648   5.236   5.117
14770TIP3    H244188   8.695   5.379   5.123
14771TIP3   OH244189   7.695   5.300   5.485
14771TIP3    H144190   7.684   5.203   5.486
14771TIP3    H244191   7.791   5.305   5.465
14772TIP3   OH244192   7.404   4.506   5.263
14772TIP3    H144193   7.356   4.589   5.279
14772TIP3    H244194   7.332   4.451   5.226
14773TIP3   OH244195   7.462   4.793   5.434
14773TIP3    H144196   7.512   4.717   5.470
14773TIP3    H244197   7.521   4.825   5.365
14774TIP3   OH244198   8.334   5.744   5.073
14774TIP3    H144199   8.331   5.648   5.062
14774TIP3    H244200   8.293   5.753   5.160
14775TIP3   OH244201   8.227   5.220   5.448
14775TIP3    H144202   8.253   5.155   5.381
14775TIP3    H244203   8.314   5.262   5.465
14776TIP3   OH244204   9.236   4.546   5.430
14776TIP3    H144205   9.264   4.625   5.481
14776TIP3    H244206   9.259   4.572   5.340
14777TIP3   OH244207   8.642   4.727   5.468
14777TIP3    H144208   8.677   4.638   5.488
14777TIP3    H244209   8.604   4.712   5.379
14778TIP3   OH244210   7.975   4.383   5.433
14778TIP3    H144211   7.952   4.456   5.371
14778TIP3    H244212   7.926   4.310   5.390
14779TIP3   OH244213   8.669   4.473   5.058
14779TIP3    H144214   8.742   4.456   5.122
14779TIP3    H244215   8.719   4.512   4.984
14780TIP3   OH244216   7.607   4.586   5.540
14780TIP3    H144217   7.690   4.566   5.588
14780TIP3    H244218   7.619   4.530   5.461
14781TIP3   OH244219   8.050   4.784   5.328
14781TIP3    H144220   8.142   4.756   5.347
14781TIP3    H244221   8.008   4.700   5.299
14782TIP3   OH244222   9.308   4.752   5.600
14782TIP3    H144223   9.224   4.798   5.583
14782TIP3    H244224   9.317   4.767   5.695
14783TIP3   OH244225   7.971   4.367   5.868
14783TIP3    H144226   7.910   4.404   5.801
14783TIP3    H244227   7.919   4.384   5.949
14784TIP3   OH244228   8.329   5.228   4.869
14784TIP3    H144229   8.271   5.190   4.801
14784TIP3    H244230   8.267   5.280   4.922
14785TIP3   OH244231   8.076   5.141   5.667
14785TIP3    H144232   8.013   5.207   5.701
14785TIP3    H244233   8.115   5.188   5.590
14786TIP3   OH244234   8.888   4.476   5.227
14786TIP3    H144235   8.861   4.428   5.307
14786TIP3    H244236   8.927   4.557   5.264
14787TIP3   OH244237   7.841   4.482   5.652
14787TIP3    H144238   7.903   4.555   5.675
14787TIP3    H244239   7.891   4.441   5.577
14788TIP3   OH244240   7.906   5.334   5.765
14788TIP3    H144241   7.878   5.414   5.717
14788TIP3    H244242   7.826   5.320   5.820
14789TIP3   OH244243   7.304   5.025   5.001
14789TIP3    H144244   7.259   5.050   4.917
14789TIP3    H244245   7.329   5.113   5.037
14790TIP3   OH244246   8.742   5.540   5.231
14790TIP3    H144247   8.654   5.531   5.276
14790TIP3    H244248   8.732   5.630   5.193
14791TIP3   OH244249   9.029   4.446   5.600
14791TIP3    H144250   8.940   4.473   5.572
14791TIP3    H244251   9.085   4.477   5.526
14792TIP3   OH244252   8.328   4.088   5.581
14792TIP3    H144253   8.315   3.992   5.599
14792TIP3    H244254   8.249   4.125   5.628
14793TIP3   OH244255   8.579   5.392   4.807
14793TIP3    H144256   8.526   5.311   4.790
14793TIP3    H244257   8.610   5.369   4.899
14794TIP3   OH244258   8.966   5.456   5.580
14794TIP3    H144259   8.952   5.377   5.522
14794TIP3    H244260   8.946   5.530   5.518
14795TIP3   OH244261   8.257   4.848   4.838
14795TIP3    H144262   8.173   4.896   4.820
14795TIP3    H244263   8.298   4.845   4.750
14796TIP3   OH244264   8.215   4.634   4.553
14796TIP3    H144265   8.283   4.683   4.603
14796TIP3    H244266   8.271   4.569   4.507
14797TIP3   OH244267   9.161   5.091   5.422
14797TIP3    H144268   9.077   5.142   5.431
14797TIP3    H244269   9.188   5.119   5.332
14798TIP3   OH244270   8.606   4.933   4.806
14798TIP3    H144271   8.549   4.956   4.884
14798TIP3    H244272   8.688   4.908   4.852
14799TIP3   OH244273   8.840   4.972   5.719
14799TIP3    H144274   8.835   5.056   5.769
14799TIP3    H244275   8.752   4.973   5.676
14800TIP3   OH244276   7.832   4.928   5.228
14800TIP3    H144277   7.795   4.873   5.156
14800TIP3    H244278   7.913   4.878   5.252
14801TIP3   OH244279   7.956   5.314   5.396
14801TIP3    H144280   7.959   5.332   5.299
14801TIP3    H244281   8.050   5.295   5.410
14802TIP3   OH244282   7.979   4.898   5.580
14802TIP3    H144283   8.005   4.885   5.487
14802TIP3    H244284   8.015   4.987   5.600
14803TIP3   OH244285   8.506   5.537   5.357
14803TIP3    H144286   8.483   5.617   5.407
14803TIP3    H244287   8.485   5.464   5.419
14804TIP3   OH244288   8.110   5.457   5.905
14804TIP3    H144289   8.049   5.519   5.950
14804TIP3    H244290   8.045   5.404   5.854
14805TIP3   OH244291   8.447   4.786   4.636
14805TIP3    H144292   8.503   4.847   4.688
14805TIP3    H244293   8.473   4.812   4.544
14806TIP3   OH244294   7.864   5.012   6.004
14806TIP3    H144295   7.868   5.099   6.049
14806TIP3    H244296   7.769   4.993   6.014
14807TIP3   OH244297   7.905   5.627   5.992
14807TIP3    H144298   7.871   5.624   5.900
14807TIP3    H244299   7.825   5.603   6.044
14808TIP3   OH244300   8.959   4.030   4.683
14808TIP3    H144301   8.878   4.045   4.736
14808TIP3    H244302   8.971   4.117   4.640
14809TIP3   OH244303   7.706   4.769   5.022
14809TIP3    H144304   7.637   4.817   4.972
14809TIP3    H244305   7.658   4.689   5.046
14810TIP3   OH244306   8.758   5.405   4.255
14810TIP3    H144307   8.766   5.498   4.224
14810TIP3    H244308   8.847   5.371   4.231
14811TIP3   OH244309   7.484   5.155   5.938
14811TIP3    H144310   7.418   5.135   5.869
14811TIP3    H244311   7.520   5.067   5.960
14812TIP3   OH244312   7.338   5.346   5.574
14812TIP3    H144313   7.433   5.343   5.560
14812TIP3    H244314   7.327   5.429   5.624
14813TIP3   OH244315   9.203   5.799   5.626
14813TIP3    H144316   9.201   5.702   5.642
14813TIP3    H244317   9.120   5.825   5.671
14814TIP3   OH244318   8.309   5.585   5.762
14814TIP3    H144319   8.308   5.677   5.794
14814TIP3    H244320   8.236   5.546   5.814
14815TIP3   OH244321   8.107   5.748   4.677
14815TIP3    H144322   8.037   5.699   4.632
14815TIP3    H244323   8.056   5.811   4.731
14816TIP3   OH244324   7.504   5.564   5.100
14816TIP3    H144325   7.556   5.552   5.183
14816TIP3    H244326   7.448   5.486   5.103
14817TIP3   OH244327   8.279   5.615   4.361
14817TIP3    H144328   8.335   5.554   4.308
14817TIP3    H244329   8.280   5.571   4.447
14818TIP3   OH244330   9.094   4.933   5.899
14818TIP3    H144331   9.010   4.945   5.852
14818TIP3    H244332   9.107   4.837   5.890
14819TIP3   OH244333   7.688   5.339   5.929
14819TIP3    H144334   7.738   5.320   6.011
14819TIP3    H244335   7.614   5.275   5.934
14820TIP3   OH244336   8.088   4.163   5.708
14820TIP3    H144337   7.999   4.132   5.683
14820TIP3    H244338   8.063   4.245   5.756
14821TIP3   OH244339   8.621   4.278   5.905
14821TIP3    H144340   8.689   4.250   5.969
14821TIP3    H244341   8.537   4.257   5.951
14822TIP3   OH244342   8.865   4.709   5.826
14822TIP3    H144343   8.813   4.703   5.909
14822TIP3    H244344   8.834   4.794   5.789
14823TIP3   OH244345   8.527   4.844   4.387
14823TIP3    H144346   8.488   4.815   4.302
14823TIP3    H244347   8.607   4.890   4.355
14824TIP3   OH244348   8.237   4.210   4.681
14824TIP3    H144349   8.202   4.209   4.773
14824TIP3    H244350   8.195   4.129   4.647
14825TIP3   OH244351   8.022   4.676   5.730
14825TIP3    H144352   7.969   4.698   5.810
14825TIP3    H244353   8.006   4.757   5.676
14826TIP3   OH244354   7.904   4.563   5.243
14826TIP3    H144355   7.811   4.539   5.261
14826TIP3    H244356   7.915   4.522   5.154
14827TIP3   OH244357   8.396   4.651   4.971
14827TIP3    H144358   8.341   4.722   4.931
14827TIP3    H244359   8.446   4.620   4.894
14828TIP3   OH244360   8.569   4.929   6.057
14828TIP3    H144361   8.545   4.856   6.119
14828TIP3    H244362   8.663   4.941   6.080
14829TIP3   OH244363   8.553   4.679   5.210
14829TIP3    H144364   8.491   4.709   5.141
14829TIP3    H244365   8.583   4.596   5.167
14830TIP3   OH244366   7.841   4.706   5.938
14830TIP3    H144367   7.860   4.771   6.007
14830TIP3    H244368   7.827   4.624   5.989
14831TIP3   OH244369   7.890   4.185   4.647
14831TIP3    H144370   7.881   4.181   4.744
14831TIP3    H244371   7.810   4.236   4.623
14832TIP3   OH244372   7.431   4.229   5.518
14832TIP3    H144373   7.507   4.260   5.571
14832TIP3    H244374   7.473   4.197   5.436
14833TIP3   OH244375   7.407   4.211   5.036
14833TIP3    H144376   7.452   4.251   4.959
14833TIP3    H244377   7.344   4.283   5.058
14834TIP3   OH244378   8.568   4.926   5.634
14834TIP3    H144379   8.598   4.853   5.575
14834TIP3    H244380   8.535   4.873   5.710
14835TIP3   OH244381   8.231   4.386   5.304
14835TIP3    H144382   8.146   4.384   5.353
14835TIP3    H244383   8.295   4.386   5.377
14836TIP3   OH244384   7.665   4.442   5.312
14836TIP3    H144385   7.571   4.451   5.286
14836TIP3    H244386   7.686   4.349   5.289
14837TIP3   OH244387   7.936   4.437   5.000
14837TIP3    H144388   8.029   4.455   4.976
14837TIP3    H244389   7.886   4.460   4.919
14838TIP3   OH244390   8.721   4.460   5.500
14838TIP3    H144391   8.692   4.473   5.594
14838TIP3    H244392   8.652   4.398   5.470
14839TIP3   OH244393   7.777   4.469   4.781
14839TIP3    H144394   7.701   4.428   4.737
14839TIP3    H244395   7.826   4.504   4.704
14840TIP3   OH244396   8.893   6.150   5.724
14840TIP3    H144397   8.890   6.175   5.630
14840TIP3    H244398   8.970   6.200   5.756
14841TIP3   OH244399   7.850   5.260   6.147
14841TIP3    H144400   7.929   5.291   6.195
14841TIP3    H244401   7.785   5.258   6.219
14842TIP3   OH244402   8.314   4.714   5.405
14842TIP3    H144403   8.385   4.669   5.357
14842TIP3    H244404   8.319   4.673   5.493
14843TIP3   OH244405   7.839   4.201   5.280
14843TIP3    H144406   7.803   4.123   5.327
14843TIP3    H244407   7.887   4.161   5.207
14844TIP3   OH244408   8.291   4.612   5.687
14844TIP3    H144409   8.200   4.645   5.704
14844TIP3    H244410   8.346   4.672   5.742
14845TIP3   OH244411   8.030   4.998   4.785
14845TIP3    H144412   7.957   4.934   4.771
14845TIP3    H244413   8.006   5.035   4.873
14846TIP3   OH244414   8.929   5.236   5.417
14846TIP3    H144415   8.950   5.287   5.335
14846TIP3    H244416   8.842   5.195   5.394
14847TIP3   OH244417   8.485   4.316   4.644
14847TIP3    H144418   8.389   4.295   4.655
14847TIP3    H244419   8.492   4.409   4.672
14848TIP3   OH244420   8.436   5.325   5.782
14848TIP3    H144421   8.442   5.295   5.873
14848TIP3    H244422   8.387   5.408   5.790
14849TIP3   OH244423   8.555   4.560   4.751
14849TIP3    H144424   8.651   4.570   4.767
14849TIP3    H244425   8.533   4.641   4.700
14850TIP3   OH244426   7.715   5.020   5.466
14850TIP3    H144427   7.755   4.997   5.379
14850TIP3    H244428   7.757   4.956   5.525
14851TIP3   OH244429   8.171   5.151   4.607
14851TIP3    H144430   8.124   5.237   4.613
14851TIP3    H244431   8.116   5.095   4.666
14852TIP3   OH244432   7.601   4.942   6.074
14852TIP3    H144433   7.618   4.928   6.170
14852TIP3    H244434   7.529   4.878   6.058
14853TIP3   OH244435   8.324   5.058   6.095
14853TIP3    H144436   8.263   4.999   6.048
14853TIP3    H244437   8.411   5.023   6.066
14854TIP3   OH244438   8.590   5.584   5.676
14854TIP3    H144439   8.494   5.576   5.690
14854TIP3    H244440   8.615   5.633   5.757
14855TIP3   OH244441   9.004   4.639   4.580
14855TIP3    H144442   8.937   4.605   4.515
14855TIP3    H244443   9.001   4.733   4.554
14856TIP3   OH244444   9.215   5.507   5.669
14856TIP3    H144445   9.117   5.503   5.661
14856TIP3    H244446   9.240   5.478   5.579
14857TIP3   OH244447   8.664   5.467   4.533
14857TIP3    H144448   8.680   5.373   4.550
14857TIP3    H244449   8.688   5.472   4.438
14858TIP3   OH244450   8.696   5.099   5.334
14858TIP3    H144451   8.602   5.074   5.349
14858TIP3    H244452   8.728   5.019   5.289
14859TIP3   OH244453   7.380   4.633   4.784
14859TIP3    H144454   7.427   4.715   4.809
14859TIP3    H244455   7.304   4.636   4.846
14860TIP3   OH244456   7.962   5.098   5.024
14860TIP3    H144457   7.984   5.191   5.051
14860TIP3    H244458   7.916   5.066   5.103
14861TIP3   OH244459   8.089   5.668   5.559
14861TIP3    H144460   8.127   5.740   5.506
14861TIP3    H244461   8.168   5.635   5.605
14862TIP3   OH244462   7.712   5.574   4.908
14862TIP3    H144463   7.641   5.567   4.975
14862TIP3    H244464   7.766   5.647   4.942
14863TIP3   OH244465   8.483   5.304   5.514
14863TIP3    H144466   8.471   5.306   5.612
14863TIP3    H244467   8.561   5.248   5.506
14864TIP3   OH244468   8.449   5.201   4.399
14864TIP3    H144469   8.502   5.173   4.477
14864TIP3    H244470   8.362   5.169   4.425
14865TIP3   OH244471   8.728   5.838   5.565
14865TIP3    H144472   8.649   5.780   5.560
14865TIP3    H244473   8.710   5.902   5.493
14866TIP3   OH244474   8.790   5.676   4.223
14866TIP3    H144475   8.816   5.742   4.157
14866TIP3    H244476   8.714   5.724   4.263
14867TIP3   OH244477   7.812   4.449   6.084
14867TIP3    H144478   7.715   4.454   6.098
14867TIP3    H244479   7.839   4.389   6.156
14868TIP3   OH244480   8.615   5.142   4.616
14868TIP3    H144481   8.599   5.074   4.685
14868TIP3    H244482   8.711   5.128   4.602
14869TIP3   OH244483   7.528   5.536   5.716
14869TIP3    H144484   7.579   5.457   5.740
14869TIP3    H244485   7.559   5.600   5.781
14870TIP3   OH244486   7.814   5.168   4.383
14870TIP3    H144487   7.835   5.073   4.371
14870TIP3    H244488   7.794   5.171   4.479
14871TIP3   OH244489   7.770   5.185   4.660
14871TIP3    H144490   7.823   5.157   4.736
14871TIP3    H244491   7.771   5.283   4.671
14872TIP3   OH244492   7.499   4.878   4.873
14872TIP3    H144493   7.433   4.921   4.932
14872TIP3    H244494   7.512   4.950   4.807
14873TIP3   OH244495   8.653   4.510   5.760
14873TIP3    H144496   8.727   4.549   5.809
14873TIP3    H244497   8.633   4.431   5.815
14874TIP3   OH244498   8.532   4.264   4.927
14874TIP3    H144499   8.513   4.289   4.835
14874TIP3    H244500   8.566   4.348   4.965
14875TIP3   OH244501   8.038   5.387   4.616
14875TIP3    H144502   7.955   5.402   4.667
14875TIP3    H244503   8.032   5.462   4.555
14876TIP3   OH244504   8.222   4.443   5.032
14876TIP3    H144505   8.284   4.517   5.017
14876TIP3    H244506   8.222   4.437   5.130
14877TIP3   OH244507   8.489   4.764   5.839
14877TIP3    H144508   8.503   4.820   5.918
14877TIP3    H244509   8.541   4.685   5.859
14878TIP3   OH244510   8.363   4.174   5.137
14878TIP3    H144511   8.352   4.252   5.194
14878TIP3    H244512   8.423   4.210   5.067
14879TIP3   OH244513   7.775   5.454   4.678
14879TIP3    H144514   7.741   5.524   4.619
14879TIP3    H244515   7.752   5.492   4.766
14880TIP3   OH244516   7.874   4.169   4.923
14880TIP3    H144517   7.870   4.259   4.960
14880TIP3    H244518   7.970   4.151   4.932
14881TIP3   OH244519   9.130   4.663   5.816
14881TIP3    H144520   9.032   4.665   5.830
14881TIP3    H244521   9.133   4.612   5.734
14882TIP3   OH244522   8.779   4.857   5.205
14882TIP3    H144523   8.700   4.802   5.222
14882TIP3    H244524   8.848   4.810   5.257
14883TIP3   OH244525   7.492   5.095   4.674
14883TIP3    H144526   7.561   5.160   4.694
14883TIP3    H244527   7.543   5.036   4.614
14884TIP3   OH244528   7.436   4.365   4.806
14884TIP3    H144529   7.432   4.462   4.803
14884TIP3    H244530   7.348   4.341   4.776
14885TIP3   OH244531   8.749   5.809   5.156
14885TIP3    H144532   8.705   5.860   5.084
14885TIP3    H244533   8.843   5.830   5.136
14886TIP3   OH244534   7.825   4.082   5.685
14886TIP3    H144535   7.792   4.049   5.599
14886TIP3    H244536   7.813   4.004   5.743
14887TIP3   OH244537   7.358   5.299   5.069
14887TIP3    H144538   7.282   5.333   5.118
14887TIP3    H244539   7.341   5.338   4.980
14888TIP3   OH244540   7.517   5.840   6.137
14888TIP3    H144541   7.603   5.838   6.183
14888TIP3    H244542   7.494   5.746   6.135
14889TIP3   OH244543   8.004   5.808   6.181
14889TIP3    H144544   8.097   5.783   6.186
14889TIP3    H244545   7.973   5.750   6.108
14890TIP3   OH244546   7.982   5.378   4.309
14890TIP3    H144547   7.927   5.307   4.349
14890TIP3    H244548   8.055   5.326   4.271
14891TIP3   OH244549   8.640   5.713   5.915
14891TIP3    H144550   8.631   5.643   5.984
14891TIP3    H244551   8.718   5.763   5.946
14892TIP3   OH244552   8.421   5.429   4.223
14892TIP3    H144553   8.462   5.357   4.274
14892TIP3    H244554   8.469   5.426   4.138
14893TIP3   OH244555   7.649   5.249   6.337
14893TIP3    H144556   7.665   5.153   6.343
14893TIP3    H244557   7.561   5.251   6.294
14894TIP3   OH244558   7.637   4.915   4.535
14894TIP3    H144559   7.686   4.868   4.605
14894TIP3    H244560   7.697   4.904   4.458
14895TIP3   OH244561   8.258   5.334   6.110
14895TIP3    H144562   8.212   5.349   6.025
14895TIP3    H244563   8.286   5.240   6.103
14896TIP3   OH244564   8.132   5.094   4.340
14896TIP3    H144565   8.134   5.107   4.437
14896TIP3    H244566   8.134   4.996   4.335
14897TIP3   OH244567   8.751   5.337   5.717
14897TIP3    H144568   8.821   5.390   5.674
14897TIP3    H244569   8.675   5.397   5.708
14898TIP3   OH244570   7.768   4.983   6.319
14898TIP3    H144571   7.841   4.922   6.301
14898TIP3    H244572   7.793   5.016   6.408
14899TIP3   OH244573   7.837   4.803   4.753
14899TIP3    H144574   7.805   4.767   4.838
14899TIP3    H244575   7.868   4.722   4.707
14900TIP3   OH244576   8.105   4.870   5.983
14900TIP3    H144577   8.025   4.926   5.986
14900TIP3    H244578   8.151   4.903   5.903
14901TIP3   OH244579   7.934   4.594   4.594
14901TIP3    H144580   7.907   4.595   4.500
14901TIP3    H244581   8.032   4.601   4.586
14902TIP3   OH244582   8.621   5.270   6.117
14902TIP3    H144583   8.699   5.243   6.067
14902TIP3    H244584   8.616   5.202   6.186
14903TIP3   OH244585   8.761   4.931   4.258
14903TIP3    H144586   8.737   4.883   4.176
14903TIP3    H244587   8.728   5.020   4.233
14904TIP3   OH244588   8.228   4.656   6.107
14904TIP3    H144589   8.225   4.575   6.052
14904TIP3    H244590   8.183   4.722   6.050
14905TIP3   OH244591   8.229   4.442   5.913
14905TIP3    H144592   8.255   4.482   5.828
14905TIP3    H244593   8.135   4.419   5.897
14906TIP3   OH244594   8.260   4.980   5.788
14906TIP3    H144595   8.339   4.988   5.733
14906TIP3    H244596   8.199   5.045   5.746
14907TIP3   OH244597   8.838   4.944   6.168
14907TIP3    H144598   8.886   4.861   6.184
14907TIP3    H244599   8.909   5.001   6.134
14908TIP3   OH244600   8.881   5.197   5.907
14908TIP3    H144601   8.822   5.249   5.847
14908TIP3    H244602   8.967   5.217   5.865
14909TIP3   OH244603   8.105   4.768   6.337
14909TIP3    H144604   8.036   4.701   6.352
14909TIP3    H244605   8.139   4.742   6.250
14910TIP3   OH244606   8.361   4.205   5.979
14910TIP3    H144607   8.311   4.287   5.958
14910TIP3    H244608   8.291   4.137   5.969
14911TIP3   OH244609   8.487   4.711   6.197
14911TIP3    H144610   8.475   4.697   6.293
14911TIP3    H244611   8.397   4.686   6.167
14912TIP3   OH244612   8.726   4.657   6.052
14912TIP3    H144613   8.650   4.660   6.113
14912TIP3    H244614   8.799   4.626   6.110
14913TIP3   OH244615   8.961   4.600   6.202
14913TIP3    H144616   8.970   4.504   6.222
14913TIP3    H244617   8.953   4.639   6.292
14914TIP3   OH244618   7.945   4.548   6.389
14914TIP3    H144619   7.950   4.457   6.355
14914TIP3    H244620   7.980   4.536   6.480
14915TIP3   OH244621   8.457   4.217   6.237
14915TIP3    H144622   8.524   4.145   6.233
14915TIP3    H244623   8.416   4.208   6.148
14916TIP3   OH244624   8.524   4.432   6.394
14916TIP3    H144625   8.500   4.360   6.332
14916TIP3    H244626   8.444   4.490   6.390
14917TIP3   OH244627   7.735   5.652   4.486
14917TIP3    H144628   7.833   5.649   4.476
14917TIP3    H244629   7.712   5.707   4.408
14918TIP3   OH244630   7.226   5.043   4.731
14918TIP3    H144631   7.316   5.070   4.704
14918TIP3    H244632   7.212   4.963   4.679
14919TIP3   OH244633   7.137   5.654   5.126
14919TIP3    H144634   7.069   5.592   5.091
14919TIP3    H244635   7.181   5.597   5.192
14920TIP3   OH244636   7.271   5.507   5.315
14920TIP3    H144637   7.259   5.431   5.373
14920TIP3    H244638   7.323   5.566   5.372
14921TIP3   OH244639   9.002   5.900   5.115
14921TIP3    H144640   9.022   5.934   5.204
14921TIP3    H244641   9.055   5.958   5.058
14922TIP3   OH244642   9.030   5.924   5.394
14922TIP3    H144643   8.986   5.836   5.393
14922TIP3    H244644   9.102   5.904   5.456
14923TIP3   OH244645   9.077   5.600   5.969
14923TIP3    H144646   9.003   5.609   6.032
14923TIP3    H244647   9.118   5.689   5.974
14924TIP3   OH244648   8.890   5.119   4.588
14924TIP3    H144649   8.963   5.177   4.560
14924TIP3    H244650   8.930   5.076   4.667
14925TIP3   OH244651   9.013   4.988   4.789
14925TIP3    H144652   8.955   4.935   4.847
14925TIP3    H244653   9.088   5.009   4.847
14926TIP3   OH244654   9.074   5.375   5.226
14926TIP3    H144655   9.126   5.311   5.174
14926TIP3    H244656   9.061   5.448   5.164
14927TIP3   OH244657   8.904   5.674   5.420
14927TIP3    H144658   8.834   5.717   5.473
14927TIP3    H244659   8.852   5.627   5.352
14928TIP3   OH244660   8.959   4.890   4.441
14928TIP3    H144661   8.888   4.893   4.373
14928TIP3    H244662   8.930   4.964   4.497
14929TIP3   OH244663   8.830   4.560   4.390
14929TIP3    H144664   8.782   4.604   4.319
14929TIP3    H244665   8.800   4.467   4.379
14930TIP3   OH244666   8.836   4.835   4.939
14930TIP3    H144667   8.835   4.738   4.935
14930TIP3    H244668   8.821   4.852   5.035
14931TIP3   OH244669   7.460   4.909   5.687
14931TIP3    H144670   7.457   4.882   5.593
14931TIP3    H244671   7.558   4.912   5.702
14932TIP3   OH244672   9.123   5.263   5.797
14932TIP3    H144673   9.196   5.198   5.787
14932TIP3    H244674   9.150   5.334   5.736
14933TIP3   OH244675   9.309   5.069   5.810
14933TIP3    H144676   9.234   5.020   5.851
14933TIP3    H244677   9.382   5.005   5.827
14934TIP3   OH244678   8.774   4.291   4.384
14934TIP3    H144679   8.834   4.256   4.451
14934TIP3    H244680   8.692   4.241   4.399
14935TIP3   OH244681   8.831   4.554   4.836
14935TIP3    H144682   8.869   4.464   4.848
14935TIP3    H244683   8.888   4.587   4.764
14936TIP3   OH244684   8.991   4.726   5.330
14936TIP3    H144685   9.077   4.755   5.292
14936TIP3    H244686   9.000   4.763   5.420
14937TIP3   OH244687   9.057   4.871   5.560
14937TIP3    H144688   8.980   4.904   5.611
14937TIP3    H244689   9.089   4.954   5.518
14938TIP3   OH244690   7.678   4.600   6.361
14938TIP3    H144691   7.776   4.592   6.363
14938TIP3    H244692   7.653   4.514   6.402
14939TIP3   OH244693   9.515   4.466   6.118
14939TIP3    H144694   9.570   4.396   6.076
14939TIP3    H244695   9.485   4.518   6.041
14940TIP3   OH244696   8.943   4.300   4.870
14940TIP3    H144697   8.983   4.286   4.959
14940TIP3    H244698   8.877   4.228   4.868
14941TIP3   OH244699   7.639   4.290   5.690
14941TIP3    H144700   7.702   4.216   5.702
14941TIP3    H244701   7.700   4.365   5.686
14942TIP3   OH244702   7.443   4.564   5.766
14942TIP3    H144703   7.491   4.559   5.681
14942TIP3    H244704   7.467   4.652   5.796
14943TIP3   OH244705   9.384   4.604   5.923
14943TIP3    H144706   9.298   4.643   5.946
14943TIP3    H244707   9.355   4.532   5.865
14944TIP3   OH244708   9.053   4.241   4.514
14944TIP3    H144709   9.060   4.161   4.458
14944TIP3    H244710   9.073   4.310   4.449
14945TIP3   OH244711   7.424   4.068   5.265
14945TIP3    H144712   7.331   4.065   5.292
14945TIP3    H244713   7.421   4.127   5.187
14946TIP3   OH244714   7.645   4.147   6.080
14946TIP3    H144715   7.595   4.143   6.163
14946TIP3    H244716   7.578   4.186   6.020
14947TIP3   OH244717   7.685   5.576   6.160
14947TIP3    H144718   7.594   5.547   6.139
14947TIP3    H244719   7.691   5.554   6.254
14948TIP3   OH244720   7.862   5.609   5.708
14948TIP3    H144721   7.812   5.682   5.667
14948TIP3    H244722   7.947   5.621   5.661
14949TIP3   OH244723   8.309   5.851   5.844
14949TIP3    H144724   8.351   5.854   5.932
14949TIP3    H244725   8.374   5.902   5.791
14950TIP3   OH244726   8.486   6.002   5.700
14950TIP3    H144727   8.558   5.951   5.661
14950TIP3    H244728   8.537   6.062   5.760
14951TIP3   OH244729   9.282   4.365   5.801
14951TIP3    H144730   9.190   4.355   5.772
14951TIP3    H244731   9.314   4.272   5.791
14952TIP3   OH244732   7.541   5.868   5.726
14952TIP3    H144733   7.451   5.900   5.702
14952TIP3    H244734   7.544   5.895   5.819
14953TIP3   OH244735   7.778   5.847   5.587
14953TIP3    H144736   7.690   5.859   5.632
14953TIP3    H244737   7.757   5.874   5.496
14954TIP3   OH244738   8.205   5.876   5.375
14954TIP3    H144739   8.126   5.893   5.321
14954TIP3    H244740   8.215   5.961   5.422
14955TIP3   OH244741   8.470   5.813   5.434
14955TIP3    H144742   8.376   5.827   5.413
14955TIP3    H244743   8.510   5.892   5.395
14956TIP3   OH244744   8.682   6.005   5.351
14956TIP3    H144745   8.665   6.089   5.303
14956TIP3    H244746   8.702   5.944   5.277
14957TIP3   OH244747   7.451   5.660   5.475
14957TIP3    H144748   7.477   5.632   5.565
14957TIP3    H244749   7.522   5.615   5.423
14958TIP3   OH244750   7.645   5.531   5.334
14958TIP3    H144751   7.662   5.445   5.378
14958TIP3    H244752   7.736   5.565   5.323
14959TIP3   OH244753   7.913   5.635   5.315
14959TIP3    H144754   7.952   5.563   5.260
14959TIP3    H244755   7.957   5.620   5.401
14960TIP3   OH244756   8.489   4.281   5.422
14960TIP3    H144757   8.442   4.215   5.476
14960TIP3    H244758   8.555   4.227   5.376
14961TIP3   OH244759   9.012   4.159   5.320
14961TIP3    H144760   9.041   4.217   5.247
14961TIP3    H244761   8.915   4.174   5.320
14962TIP3   OH244762   9.112   4.273   5.082
14962TIP3    H144763   9.182   4.211   5.051
14962TIP3    H244764   9.163   4.351   5.107
14963TIP3   OH244765   7.736   3.990   5.436
14963TIP3    H144766   7.643   3.957   5.438
14963TIP3    H244767   7.784   3.904   5.434
14964TIP3   OH244768   7.522   3.859   5.084
14964TIP3    H144769   7.550   3.918   5.012
14964TIP3    H244770   7.491   3.923   5.152
14965TIP3   OH244771   8.179   4.022   5.316
14965TIP3    H144772   8.239   4.074   5.261
14965TIP3    H244773   8.195   4.059   5.404
14966TIP3   OH244774   8.733   4.167   5.299
14966TIP3    H144775   8.720   4.127   5.212
14966TIP3    H244776   8.716   4.090   5.358
14967TIP3   OH244777   8.756   4.092   4.863
14967TIP3    H144778   8.668   4.134   4.876
14967TIP3    H244779   8.742   4.008   4.911
14968TIP3   OH244780   7.240   5.426   4.861
14968TIP3    H144781   7.151   5.397   4.830
14968TIP3    H244782   7.232   5.521   4.845
14969TIP3   OH244783   7.637   4.019   4.847
14969TIP3    H144784   7.687   3.956   4.791
14969TIP3    H244785   7.710   4.073   4.885
14970TIP3   OH244786   8.152   4.194   4.945
14970TIP3    H144787   8.208   4.145   5.008
14970TIP3    H244788   8.173   4.286   4.972
14971TIP3   OH244789   8.005   5.616   4.439
14971TIP3    H144790   8.089   5.650   4.403
14971TIP3    H244791   7.989   5.539   4.379
14972TIP3   OH244792   7.943   4.271   6.328
14972TIP3    H144793   7.908   4.201   6.385
14972TIP3    H244794   8.037   4.271   6.356
14973TIP3   OH244795   8.192   4.267   6.447
14973TIP3    H144796   8.277   4.240   6.410
14973TIP3    H244797   8.178   4.198   6.516
14974TIP3   OH244798   7.354   5.480   4.523
14974TIP3    H144799   7.290   5.514   4.588
14974TIP3    H244800   7.391   5.405   4.570
14975TIP3   OH244801   9.016   4.328   6.235
14975TIP3    H144802   9.034   4.297   6.327
14975TIP3    H244803   9.105   4.322   6.194
14976TIP3   OH244804   8.958   5.882   5.724
14976TIP3    H144805   8.878   5.849   5.679
14976TIP3    H244806   8.937   5.977   5.730
14977TIP3   OH244807   9.524   5.146   5.234
14977TIP3    H144808   9.552   5.078   5.299
14977TIP3    H244809   9.593   5.213   5.248
14978TIP3   OH244810   9.483   5.557   4.965
14978TIP3    H144811   9.478   5.459   4.969
14978TIP3    H244812   9.579   5.570   4.962
14979TIP3   OH244813   9.260   5.050   4.917
14979TIP3    H144814   9.315   4.979   4.956
14979TIP3    H244815   9.318   5.090   4.852
14980TIP3   OH244816   9.978   5.992   4.570
14980TIP3    H144817  10.071   5.988   4.539
14980TIP3    H244818   9.993   5.986   4.666
14981TIP3   OH244819   9.969   5.494   4.918
14981TIP3    H144820   9.975   5.431   4.844
14981TIP3    H244821  10.064   5.497   4.943
14982TIP3   OH244822   9.737   4.642   4.931
14982TIP3    H144823   9.755   4.703   4.857
14982TIP3    H244824   9.724   4.558   4.884
14983TIP3   OH244825   9.411   4.848   5.023
14983TIP3    H144826   9.488   4.838   5.083
14983TIP3    H244827   9.410   4.760   4.983
14984TIP3   OH244828   9.807   5.058   4.804
14984TIP3    H144829   9.902   5.038   4.821
14984TIP3    H244830   9.776   4.969   4.778
14985TIP3   OH244831   9.762   4.622   5.361
14985TIP3    H144832   9.702   4.658   5.294
14985TIP3    H244833   9.710   4.638   5.443
14986TIP3   OH244834   9.844   5.406   5.142
14986TIP3    H144835   9.787   5.474   5.185
14986TIP3    H244836   9.886   5.459   5.071
14987TIP3   OH244837   9.629   4.743   5.153
14987TIP3    H144838   9.696   4.812   5.173
14987TIP3    H244839   9.673   4.699   5.076
14988TIP3   OH244840   9.693   5.600   5.249
14988TIP3    H144841   9.668   5.689   5.216
14988TIP3    H244842   9.616   5.583   5.307
14989TIP3   OH244843   9.097   5.282   4.483
14989TIP3    H144844   9.055   5.306   4.398
14989TIP3    H244845   9.128   5.368   4.517
14990TIP3   OH244846   9.609   5.205   4.696
14990TIP3    H144847   9.568   5.143   4.633
14990TIP3    H244848   9.684   5.151   4.731
14991TIP3   OH244849   9.736   5.617   4.847
14991TIP3    H144850   9.717   5.567   4.766
14991TIP3    H244851   9.821   5.578   4.877
14992TIP3   OH244852   9.778   5.154   5.067
14992TIP3    H144853   9.793   5.144   4.971
14992TIP3    H244854   9.801   5.247   5.084
14993TIP3   OH244855   9.901   5.713   5.394
14993TIP3    H144856   9.841   5.776   5.441
14993TIP3    H244857   9.835   5.661   5.344
14994TIP3   OH244858   9.651   5.278   5.486
14994TIP3    H144859   9.658   5.362   5.535
14994TIP3    H244860   9.558   5.253   5.506
14995TIP3   OH244861   9.922   5.772   4.399
14995TIP3    H144862  10.018   5.757   4.395
14995TIP3    H244863   9.897   5.737   4.310
14996TIP3   OH244864   9.701   5.881   5.478
14996TIP3    H144865   9.661   5.881   5.389
14996TIP3    H244866   9.623   5.861   5.535
14997TIP3   OH244867   9.491   5.024   4.518
14997TIP3    H144868   9.433   5.079   4.461
14997TIP3    H244869   9.447   4.938   4.510
14998TIP3   OH244870   9.280   5.411   5.424
14998TIP3    H144871   9.211   5.389   5.358
14998TIP3    H244872   9.315   5.323   5.449
14999TIP3   OH244873   9.133   5.609   5.051
14999TIP3    H144874   9.230   5.605   5.053
14999TIP3    H244875   9.116   5.685   5.108
15000TIP3   OH244876  10.086   5.840   5.240
15000TIP3    H144877  10.099   5.930   5.275
15000TIP3    H244878  10.021   5.803   5.303
15001TIP3   OH244879   9.815   5.977   4.240
15001TIP3    H144880   9.817   5.937   4.152
15001TIP3    H244881   9.834   6.071   4.221
15002TIP3   OH244882   9.306   5.820   4.580
15002TIP3    H144883   9.351   5.811   4.667
15002TIP3    H244884   9.246   5.743   4.584
15003TIP3   OH244885   9.482   5.595   5.415
15003TIP3    H144886   9.531   5.581   5.499
15003TIP3    H244887   9.409   5.531   5.423
15004TIP3   OH244888   9.868   4.421   5.205
15004TIP3    H144889   9.780   4.391   5.179
15004TIP3    H244890   9.846   4.499   5.259
15005TIP3   OH244891   9.820   4.928   5.211
15005TIP3    H144892   9.772   4.949   5.293
15005TIP3    H244893   9.807   5.011   5.160
15006TIP3   OH244894   9.703   4.817   4.724
15006TIP3    H144895   9.607   4.808   4.730
15006TIP3    H244896   9.717   4.787   4.631
15007TIP3   OH244897   9.637   4.959   5.423
15007TIP3    H144898   9.655   5.022   5.493
15007TIP3    H244899   9.622   4.876   5.474
15008TIP3   OH244900   9.673   4.477   4.139
15008TIP3    H144901   9.641   4.417   4.207
15008TIP3    H244902   9.604   4.474   4.072
15009TIP3   OH244903   9.254   4.524   4.554
15009TIP3    H144904   9.269   4.537   4.457
15009TIP3    H244905   9.162   4.561   4.556
15010TIP3   OH244906   9.701   4.724   4.469
15010TIP3    H144907   9.781   4.715   4.415
15010TIP3    H244908   9.634   4.735   4.398
15011TIP3   OH244909   9.542   4.735   4.257
15011TIP3    H144910   9.482   4.685   4.198
15011TIP3    H244911   9.612   4.759   4.192
15012TIP3   OH244912   9.647   5.516   5.633
15012TIP3    H144913   9.726   5.545   5.684
15012TIP3    H244914   9.580   5.516   5.705
15013TIP3   OH244915   9.602   4.455   4.745
15013TIP3    H144916   9.595   4.381   4.810
15013TIP3    H244917   9.681   4.429   4.695
15014TIP3   OH244918   9.774   5.289   4.273
15014TIP3    H144919   9.731   5.201   4.268
15014TIP3    H244920   9.806   5.293   4.364
15015TIP3   OH244921  10.184   5.582   5.327
15015TIP3    H144922  10.215   5.621   5.410
15015TIP3    H244923  10.141   5.658   5.284
15016TIP3   OH244924   9.515   5.281   4.953
15016TIP3    H144925   9.547   5.252   4.865
15016TIP3    H244926   9.552   5.215   5.013
15017TIP3   OH244927   9.397   5.197   5.561
15017TIP3    H144928   9.417   5.186   5.656
15017TIP3    H244929   9.326   5.133   5.548
15018TIP3   OH244930   9.613   5.580   4.568
15018TIP3    H144931   9.609   5.663   4.516
15018TIP3    H244932   9.519   5.562   4.583
15019TIP3   OH244933   9.183   4.886   4.279
15019TIP3    H144934   9.225   4.973   4.296
15019TIP3    H244935   9.104   4.892   4.337
15020TIP3   OH244936   9.793   5.370   4.557
15020TIP3    H144937   9.734   5.447   4.544
15020TIP3    H244938   9.731   5.309   4.601
15021TIP3   OH244939   9.885   5.925   5.043
15021TIP3    H144940   9.924   6.001   4.996
15021TIP3    H244941   9.961   5.894   5.097
15022TIP3   OH244942   9.541   5.823   4.431
15022TIP3    H144943   9.454   5.828   4.475
15022TIP3    H244944   9.571   5.916   4.435
15023TIP3   OH244945   9.607   4.706   5.575
15023TIP3    H144946   9.511   4.710   5.588
15023TIP3    H244947   9.633   4.642   5.644
15024TIP3   OH244948   9.327   5.789   5.201
15024TIP3    H144949   9.376   5.716   5.242
15024TIP3    H244950   9.344   5.860   5.264
15025TIP3   OH244951   9.621   5.433   3.884
15025TIP3    H144952   9.636   5.341   3.856
15025TIP3    H244953   9.600   5.420   3.979
15026TIP3   OH244954   9.563   5.435   4.156
15026TIP3    H144955   9.644   5.400   4.198
15026TIP3    H244956   9.570   5.532   4.171
15027TIP3   OH244957   9.298   5.136   4.359
15027TIP3    H144958   9.230   5.180   4.415
15027TIP3    H244959   9.311   5.205   4.291
15028TIP3   OH244960   9.835   5.689   4.153
15028TIP3    H144961   9.738   5.688   4.166
15028TIP3    H244962   9.839   5.714   4.060
15029TIP3   OH244963   9.563   5.712   4.172
15029TIP3    H144964   9.533   5.778   4.106
15029TIP3    H244965   9.544   5.758   4.256
15030TIP3   OH244966   9.671   4.430   4.421
15030TIP3    H144967   9.639   4.516   4.451
15030TIP3    H244968   9.756   4.458   4.380
15031TIP3   OH244969   9.286   5.346   4.168
15031TIP3    H144970   9.354   5.415   4.176
15031TIP3    H244971   9.329   5.289   4.100
15032TIP3   OH244972   9.222   4.613   4.304
15032TIP3    H144973   9.229   4.711   4.295
15032TIP3    H244974   9.150   4.594   4.242
15033TIP3   OH244975   9.602   4.340   5.174
15033TIP3    H144976   9.581   4.299   5.088
15033TIP3    H244977   9.605   4.262   5.234
15034TIP3   OH244978   9.162   5.555   4.552
15034TIP3    H144979   9.093   5.590   4.610
15034TIP3    H244980   9.137   5.597   4.467
15035TIP3   OH244981   9.314   6.098   5.623
15035TIP3    H144982   9.400   6.098   5.671
15035TIP3    H244983   9.293   6.003   5.623
15036TIP3   OH244984   9.800   6.075   5.654
15036TIP3    H144985   9.886   6.042   5.684
15036TIP3    H244986   9.774   6.006   5.590
15037TIP3   OH244987   9.768   5.648   3.804
15037TIP3    H144988   9.714   5.571   3.832
15037TIP3    H244989   9.859   5.610   3.810
15038TIP3   OH244990   9.446   5.504   5.822
15038TIP3    H144991   9.460   5.408   5.831
15038TIP3    H244992   9.357   5.507   5.781
15039TIP3   OH244993   9.417   5.158   4.023
15039TIP3    H144994   9.476   5.126   4.093
15039TIP3    H244995   9.481   5.165   3.948
15040TIP3   OH244996  10.058   5.598   5.590
15040TIP3    H144997  10.003   5.622   5.513
15040TIP3    H244998  10.036   5.505   5.604
15041TIP3   OH244999   9.567   5.235   5.803
15041TIP3    H145000   9.642   5.175   5.791
15041TIP3    H245001   9.589   5.272   5.891
15042TIP3   OH245002   9.634   5.052   4.246
15042TIP3    H145003   9.601   5.010   4.327
15042TIP3    H245004   9.664   4.975   4.194
15043TIP3   OH245005   9.877   5.131   5.489
15043TIP3    H145006   9.796   5.187   5.492
15043TIP3    H245007   9.921   5.173   5.411
15044TIP3   OH245008   9.726   4.847   4.088
15044TIP3    H145009   9.689   4.841   3.997
15044TIP3    H245010   9.821   4.856   4.070
15045TIP3   OH245011  10.029   4.947   5.602
15045TIP3    H145012  10.039   4.850   5.583
15045TIP3    H245013   9.945   4.967   5.553
15046TIP3   OH245014  10.007   4.737   5.411
15046TIP3    H145015  10.058   4.698   5.339
15046TIP3    H245016   9.925   4.683   5.406
15047TIP3   OH245017  10.002   5.247   5.289
15047TIP3    H145018  10.048   5.207   5.214
15047TIP3    H245019   9.947   5.315   5.244
15048TIP3   OH245020   9.865   5.046   5.809
15048TIP3    H145021   9.811   4.969   5.836
15048TIP3    H245022   9.917   5.011   5.736
15049TIP3   OH245023   9.746   4.808   5.874
15049TIP3    H145024   9.743   4.717   5.839
15049TIP3    H245025   9.776   4.791   5.966
15050TIP3   OH245026   9.535   5.913   3.985
15050TIP3    H145027   9.631   5.918   3.970
15050TIP3    H245028   9.504   5.963   3.907
15051TIP3   OH245029   9.017   5.296   4.204
15051TIP3    H145030   9.111   5.318   4.187
15051TIP3    H245031   9.010   5.208   4.160
15052TIP3   OH245032   8.934   5.908   4.614
15052TIP3    H145033   8.875   5.847   4.567
15052TIP3    H245034   8.975   5.851   4.682
15053TIP3   OH245035   9.066   5.758   4.802
15053TIP3    H145036   9.062   5.687   4.868
15053TIP3    H245037   9.114   5.825   4.855
15054TIP3   OH245038   9.257   5.168   5.172
15054TIP3    H145039   9.253   5.140   5.078
15054TIP3    H245040   9.354   5.169   5.187
15055TIP3   OH245041   9.476   4.857   5.850
15055TIP3    H145042   9.573   4.848   5.851
15055TIP3    H245043   9.450   4.771   5.889
15056TIP3   OH245044   9.425   4.553   5.165
15056TIP3    H145045   9.480   4.473   5.178
15056TIP3    H245046   9.493   4.622   5.178
15057TIP3   OH245047   9.238   4.823   5.252
15057TIP3    H145048   9.293   4.827   5.172
15057TIP3    H245049   9.258   4.908   5.294
15058TIP3   OH245050   9.197   4.360   4.765
15058TIP3    H145051   9.121   4.331   4.821
15058TIP3    H245052   9.154   4.348   4.678
15059TIP3   OH245053   9.438   4.410   5.567
15059TIP3    H145054   9.389   4.398   5.651
15059TIP3    H245055   9.368   4.444   5.509
15060TIP3   OH245056   9.483   5.832   5.641
15060TIP3    H145057   9.390   5.804   5.633
15060TIP3    H245058   9.501   5.814   5.735
15061TIP3   OH245059   9.657   5.864   5.190
15061TIP3    H145060   9.607   5.939   5.153
15061TIP3    H245061   9.743   5.879   5.144
15062TIP3   OH245062  10.123   6.107   5.320
15062TIP3    H145063  10.139   6.103   5.418
15062TIP3    H245064  10.194   6.166   5.294
15063TIP3   OH245065   9.337   6.121   5.215
15063TIP3    H145066   9.248   6.154   5.191
15063TIP3    H245067   9.346   6.158   5.304
15064TIP3   OH245068   9.572   6.100   5.071
15064TIP3    H145069   9.487   6.112   5.118
15064TIP3    H245070   9.550   6.136   4.983
15065TIP3   OH245071   9.985   6.131   4.864
15065TIP3    H145072   9.910   6.152   4.804
15065TIP3    H245073   9.999   6.217   4.908
15066TIP3   OH245074  10.251   6.090   4.901
15066TIP3    H145075  10.154   6.084   4.885
15066TIP3    H245076  10.266   6.185   4.887
15067TIP3   OH245077   9.248   5.915   4.957
15067TIP3    H145078   9.271   5.890   5.049
15067TIP3    H245079   9.320   5.870   4.909
15068TIP3   OH245080   9.441   5.785   4.814
15068TIP3    H145081   9.454   5.702   4.866
15068TIP3    H245082   9.532   5.821   4.811
15069TIP3   OH245083   9.710   5.887   4.813
15069TIP3    H145084   9.729   5.791   4.808
15069TIP3    H245085   9.748   5.907   4.900
15070TIP3   OH245086   9.518   4.254   4.912
15070TIP3    H145087   9.430   4.215   4.928
15070TIP3    H245088   9.571   4.170   4.919
15071TIP3   OH245089   9.331   4.106   4.564
15071TIP3    H145090   9.353   4.166   4.490
15071TIP3    H245091   9.272   4.159   4.618
15072TIP3   OH245092   9.029   5.692   4.360
15072TIP3    H145093   8.948   5.658   4.316
15072TIP3    H245094   9.025   5.784   4.328
15073TIP3   OH245095   9.428   4.280   4.346
15073TIP3    H145096   9.462   4.211   4.285
15073TIP3    H245097   9.511   4.322   4.377
15074TIP3   OH245098   9.807   5.884   3.939
15074TIP3    H145099   9.896   5.910   3.912
15074TIP3    H245100   9.786   5.812   3.876
15075TIP3   OH245101   9.705   4.530   5.797
15075TIP3    H145102   9.668   4.462   5.855
15075TIP3    H245103   9.799   4.527   5.826
15076TIP3   OH245104   9.941   4.528   5.927
15076TIP3    H145105  10.039   4.533   5.918
15076TIP3    H245106   9.936   4.458   5.995
15077TIP3   OH245107   9.111   5.711   3.990
15077TIP3    H145108   9.110   5.745   4.080
15077TIP3    H245109   9.200   5.672   3.981
15078TIP3   OH245110   0.878   5.784   6.697
15078TIP3    H145111   0.850   5.876   6.679
15078TIP3    H245112   0.801   5.735   6.664
15079TIP3   OH245113   0.881   5.781   7.074
15079TIP3    H145114   0.911   5.755   7.163
15079TIP3    H245115   0.841   5.699   7.042
15080TIP3   OH245116   1.117   6.089   6.759
15080TIP3    H145117   1.108   6.016   6.821
15080TIP3    H245118   1.151   6.160   6.816
15081TIP3   OH245119   0.766   6.551   6.771
15081TIP3    H145120   0.812   6.476   6.726
15081TIP3    H245121   0.752   6.515   6.859
15082TIP3   OH245122   0.665   5.960   7.102
15082TIP3    H145123   0.743   5.907   7.075
15082TIP3    H245124   0.710   6.037   7.140
15083TIP3   OH245125   1.685   5.332   7.123
15083TIP3    H145126   1.716   5.413   7.170
15083TIP3    H245127   1.713   5.352   7.032
15084TIP3   OH245128   1.084   5.515   7.159
15084TIP3    H145129   1.130   5.431   7.181
15084TIP3    H245130   1.058   5.497   7.067
15085TIP3   OH245131   0.463   5.169   7.128
15085TIP3    H145132   0.423   5.247   7.085
15085TIP3    H245133   0.422   5.098   7.074
15086TIP3   OH245134   1.119   5.263   6.746
15086TIP3    H145135   1.191   5.247   6.812
15086TIP3    H245136   1.173   5.297   6.672
15087TIP3   OH245137   0.501   5.580   7.038
15087TIP3    H145138   0.595   5.549   7.041
15087TIP3    H245139   0.457   5.504   6.995
15088TIP3   OH245140   1.761   5.537   7.293
15088TIP3    H145141   1.676   5.586   7.282
15088TIP3    H245142   1.786   5.564   7.383
15089TIP3   OH245143   0.769   6.005   6.568
15089TIP3    H145144   0.732   5.981   6.482
15089TIP3    H245145   0.723   6.089   6.588
15090TIP3   OH245146   1.329   5.266   6.918
15090TIP3    H145147   1.326   5.214   6.999
15090TIP3    H245148   1.386   5.341   6.943
15091TIP3   OH245149   1.191   6.330   6.927
15091TIP3    H145150   1.101   6.320   6.967
15091TIP3    H245151   1.182   6.416   6.882
15092TIP3   OH245152   1.481   5.228   7.287
15092TIP3    H145153   1.396   5.264   7.258
15092TIP3    H245154   1.543   5.262   7.219
15093TIP3   OH245155   0.777   4.870   7.267
15093TIP3    H145156   0.773   4.775   7.287
15093TIP3    H245157   0.706   4.903   7.325
15094TIP3   OH245158   0.890   6.376   6.599
15094TIP3    H145159   0.941   6.293   6.580
15094TIP3    H245160   0.953   6.441   6.560
15095TIP3   OH245161   1.033   6.163   6.507
15095TIP3    H145162   1.006   6.081   6.463
15095TIP3    H245163   1.069   6.128   6.592
15096TIP3   OH245164   1.415   6.245   7.269
15096TIP3    H145165   1.407   6.165   7.213
15096TIP3    H245166   1.404   6.317   7.203
15097TIP3   OH245167   0.710   5.636   6.526
15097TIP3    H145168   0.630   5.686   6.498
15097TIP3    H245169   0.760   5.631   6.442
15098TIP3   OH245170   0.668   5.420   6.245
15098TIP3    H145171   0.737   5.471   6.292
15098TIP3    H245172   0.725   5.356   6.197
15099TIP3   OH245173   1.611   5.879   7.113
15099TIP3    H145174   1.529   5.932   7.120
15099TIP3    H245175   1.641   5.902   7.023
15100TIP3   OH245176   1.056   5.719   6.499
15100TIP3    H145177   1.003   5.743   6.578
15100TIP3    H245178   1.140   5.692   6.541
15101TIP3   OH245179   1.292   5.758   7.411
15101TIP3    H145180   1.292   5.839   7.467
15101TIP3    H245181   1.207   5.769   7.365
15102TIP3   OH245182   0.428   5.677   7.280
15102TIP3    H145183   0.463   5.641   7.196
15102TIP3    H245184   0.486   5.753   7.296
15103TIP3   OH245185   0.949   6.329   7.049
15103TIP3    H145186   0.937   6.400   7.115
15103TIP3    H245187   0.936   6.248   7.103
15104TIP3   OH245188   0.895   5.580   6.325
15104TIP3    H145189   0.956   5.637   6.377
15104TIP3    H245190   0.922   5.603   6.232
15105TIP3   OH245191   0.632   6.265   6.606
15105TIP3    H145192   0.720   6.302   6.624
15105TIP3    H245193   0.590   6.335   6.554
15106TIP3   OH245194   1.413   4.819   6.372
15106TIP3    H145195   1.332   4.839   6.424
15106TIP3    H245196   1.425   4.903   6.322
15107TIP3   OH245197   1.212   6.186   5.923
15107TIP3    H145198   1.221   6.282   5.907
15107TIP3    H245199   1.304   6.155   5.909
15108TIP3   OH245200   1.651   6.586   7.310
15108TIP3    H145201   1.654   6.490   7.327
15108TIP3    H245202   1.570   6.610   7.360
15109TIP3   OH245203   0.782   6.354   7.460
15109TIP3    H145204   0.781   6.448   7.490
15109TIP3    H245205   0.687   6.336   7.447
15110TIP3   OH245206   0.540   6.487   6.425
15110TIP3    H145207   0.518   6.460   6.333
15110TIP3    H245208   0.542   6.583   6.419
15111TIP3   OH245209   0.726   6.403   6.044
15111TIP3    H145210   0.783   6.333   6.004
15111TIP3    H245211   0.767   6.412   6.132
15112TIP3   OH245212   0.786   6.448   6.313
15112TIP3    H145213   0.705   6.443   6.368
15112TIP3    H245214   0.851   6.407   6.372
15113TIP3   OH245215   1.538   5.720   7.589
15113TIP3    H145216   1.464   5.721   7.526
15113TIP3    H245217   1.565   5.626   7.584
15114TIP3   OH245218   0.533   4.952   7.403
15114TIP3    H145219   0.460   4.913   7.353
15114TIP3    H245220   0.530   5.044   7.375
15115TIP3   OH245221   1.076   5.065   7.594
15115TIP3    H145222   1.146   5.039   7.657
15115TIP3    H245223   0.993   5.044   7.642
15116TIP3   OH245224   1.304   5.489   7.506
15116TIP3    H145225   1.263   5.488   7.595
15116TIP3    H245226   1.291   5.582   7.478
15117TIP3   OH245227   0.971   5.629   6.070
15117TIP3    H145228   0.939   5.599   5.982
15117TIP3    H245229   1.056   5.671   6.044
15118TIP3   OH245230   0.684   5.002   6.370
15118TIP3    H145231   0.655   4.997   6.463
15118TIP3    H245232   0.649   4.918   6.337
15119TIP3   OH245233   0.463   5.451   7.429
15119TIP3    H145234   0.412   5.481   7.506
15119TIP3    H245235   0.450   5.528   7.369
15120TIP3   OH245236   0.350   5.343   6.937
15120TIP3    H145237   0.254   5.351   6.925
15120TIP3    H245238   0.374   5.300   6.852
15121TIP3   OH245239   0.846   5.437   6.659
15121TIP3    H145240   0.795   5.509   6.617
15121TIP3    H245241   0.903   5.406   6.585
15122TIP3   OH245242   1.023   5.717   7.747
15122TIP3    H145243   1.002   5.644   7.809
15122TIP3    H245244   1.118   5.730   7.767
15123TIP3   OH245245   1.002   5.466   6.900
15123TIP3    H145246   0.944   5.494   6.826
15123TIP3    H245247   1.038   5.384   6.859
15124TIP3   OH245248   0.345   4.977   6.339
15124TIP3    H145249   0.336   4.973   6.436
15124TIP3    H245250   0.253   4.982   6.311
15125TIP3   OH245251   1.003   5.713   7.322
15125TIP3    H145252   1.042   5.643   7.264
15125TIP3    H245253   0.986   5.660   7.402
15126TIP3   OH245254   0.699   5.181   6.988
15126TIP3    H145255   0.619   5.180   7.044
15126TIP3    H245256   0.769   5.170   7.054
15127TIP3   OH245257   0.392   5.231   6.687
15127TIP3    H145258   0.489   5.242   6.677
15127TIP3    H245259   0.356   5.266   6.604
15128TIP3   OH245260   1.172   5.253   7.196
15128TIP3    H145261   1.138   5.263   7.288
15128TIP3    H245262   1.111   5.188   7.160
15129TIP3   OH245263   0.210   5.289   6.464
15129TIP3    H145264   0.174   5.199   6.452
15129TIP3    H245265   0.271   5.300   6.388
15130TIP3   OH245266   1.342   6.942   7.414
15130TIP3    H145267   1.345   6.961   7.319
15130TIP3    H245268   1.423   6.985   7.446
15131TIP3   OH245269   0.768   5.501   7.089
15131TIP3    H145270   0.840   5.463   7.036
15131TIP3    H245271   0.782   5.459   7.175
15132TIP3   OH245272   0.326   4.993   6.971
15132TIP3    H145273   0.258   4.924   6.985
15132TIP3    H245274   0.373   4.957   6.895
15133TIP3   OH245275   0.743   5.393   7.388
15133TIP3    H145276   0.656   5.434   7.398
15133TIP3    H245277   0.803   5.455   7.434
15134TIP3   OH245278   0.483   5.785   6.461
15134TIP3    H145279   0.409   5.721   6.459
15134TIP3    H245280   0.473   5.822   6.552
15135TIP3   OH245281   1.380   6.028   7.106
15135TIP3    H145282   1.405   6.075   7.024
15135TIP3    H245283   1.296   5.984   7.081
15136TIP3   OH245284   0.938   5.102   6.338
15136TIP3    H145285   0.841   5.086   6.346
15136TIP3    H245286   0.948   5.197   6.362
15137TIP3   OH245287   0.875   6.096   7.477
15137TIP3    H145288   0.907   6.086   7.568
15137TIP3    H245289   0.842   6.188   7.478
15138TIP3   OH245290   1.007   5.350   6.442
15138TIP3    H145291   1.104   5.353   6.458
15138TIP3    H245292   0.993   5.429   6.386
15139TIP3   OH245293   0.633   5.934   6.292
15139TIP3    H145294   0.590   6.021   6.305
15139TIP3    H245295   0.578   5.877   6.350
15140TIP3   OH245296   0.789   5.853   7.791
15140TIP3    H145297   0.733   5.781   7.755
15140TIP3    H245298   0.878   5.822   7.763
15141TIP3   OH245299   1.043   6.380   7.363
15141TIP3    H145300   0.949   6.361   7.385
15141TIP3    H245301   1.071   6.424   7.446
15142TIP3   OH245302   1.448   5.438   6.279
15142TIP3    H145303   1.386   5.393   6.217
15142TIP3    H245304   1.447   5.527   6.236
15143TIP3   OH245305   1.667   6.298   7.358
15143TIP3    H145306   1.569   6.290   7.352
15143TIP3    H245307   1.692   6.266   7.268
15144TIP3   OH245308   1.146   6.258   6.186
15144TIP3    H145309   1.128   6.185   6.246
15144TIP3    H245310   1.162   6.213   6.101
15145TIP3   OH245311   1.146   5.888   7.024
15145TIP3    H145312   1.053   5.861   7.036
15145TIP3    H245313   1.182   5.808   6.980
15146TIP3   OH245314   0.453   5.881   6.709
15146TIP3    H145315   0.440   5.973   6.736
15146TIP3    H245316   0.427   5.834   6.789
15147TIP3   OH245317   0.937   6.097   7.205
15147TIP3    H145318   0.921   6.088   7.302
15147TIP3    H245319   1.013   6.039   7.193
15148TIP3   OH245320   0.905   5.988   6.088
15148TIP3    H145321   0.957   5.963   6.167
15148TIP3    H245322   0.817   5.956   6.114
15149TIP3   OH245323   1.178   6.631   7.261
15149TIP3    H145324   1.104   6.567   7.259
15149TIP3    H245325   1.159   6.689   7.186
15150TIP3   OH245326   1.245   6.461   5.908
15150TIP3    H145327   1.283   6.532   5.854
15150TIP3    H245328   1.164   6.507   5.939
15151TIP3   OH245329   1.064   5.924   6.308
15151TIP3    H145330   1.054   5.854   6.376
15151TIP3    H245331   1.161   5.918   6.293
15152TIP3   OH245332   0.325   5.940   6.117
15152TIP3    H145333   0.346   5.858   6.068
15152TIP3    H245334   0.303   5.903   6.203
15153TIP3   OH245335   1.094   5.304   7.455
15153TIP3    H145336   1.177   5.345   7.488
15153TIP3    H245337   1.088   5.223   7.511
15154TIP3   OH245338   0.976   5.057   6.620
15154TIP3    H145339   0.968   5.078   6.525
15154TIP3    H245340   1.019   5.137   6.655
15155TIP3   OH245341   0.495   6.165   6.317
15155TIP3    H145342   0.401   6.172   6.334
15155TIP3    H245343   0.504   6.205   6.229
15156TIP3   OH245344   0.666   5.236   6.721
15156TIP3    H145345   0.734   5.304   6.702
15156TIP3    H245346   0.679   5.224   6.818
15157TIP3   OH245347   0.936   5.553   7.532
15157TIP3    H145348   0.961   5.604   7.613
15157TIP3    H245349   0.993   5.475   7.540
15158TIP3   OH245350   0.816   4.961   6.825
15158TIP3    H145351   0.814   5.036   6.887
15158TIP3    H245352   0.876   4.996   6.755
15159TIP3   OH245353   0.333   4.972   6.621
15159TIP3    H145354   0.353   5.059   6.662
15159TIP3    H245355   0.423   4.933   6.623
15160TIP3   OH245356   1.574   5.456   7.506
15160TIP3    H145357   1.477   5.447   7.510
15160TIP3    H245358   1.594   5.412   7.422
15161TIP3   OH245359   1.230   5.647   6.898
15161TIP3    H145360   1.156   5.585   6.911
15161TIP3    H245361   1.304   5.602   6.945
15162TIP3   OH245362   1.197   6.603   6.848
15162TIP3    H145363   1.157   6.652   6.773
15162TIP3    H245364   1.292   6.620   6.829
15163TIP3   OH245365   0.466   6.160   6.024
15163TIP3    H145366   0.421   6.077   6.051
15163TIP3    H245367   0.528   6.126   5.956
15164TIP3   OH245368   1.096   6.502   7.605
15164TIP3    H145369   1.089   6.428   7.670
15164TIP3    H245370   1.176   6.548   7.636
15165TIP3   OH245371   0.873   6.213   5.912
15165TIP3    H145372   0.916   6.148   5.970
15165TIP3    H245373   0.929   6.210   5.831
15166TIP3   OH245374   0.727   6.128   7.788
15166TIP3    H145375   0.660   6.106   7.723
15166TIP3    H245376   0.762   6.039   7.809
15167TIP3   OH245377   0.602   5.878   6.023
15167TIP3    H145378   0.603   5.893   6.120
15167TIP3    H245379   0.601   5.780   6.019
15168TIP3   OH245380   1.201   6.129   7.405
15168TIP3    H145381   1.278   6.173   7.363
15168TIP3    H245382   1.132   6.195   7.389
15169TIP3   OH245383   0.295   5.587   6.447
15169TIP3    H145384   0.263   5.531   6.518
15169TIP3    H245385   0.327   5.520   6.383
15170TIP3   OH245386   0.631   5.662   7.664
15170TIP3    H145387   0.542   5.702   7.664
15170TIP3    H245388   0.663   5.687   7.575
15171TIP3   OH245389   0.392   5.384   6.283
15171TIP3    H145390   0.369   5.391   6.188
15171TIP3    H245391   0.490   5.388   6.278
15172TIP3   OH245392   1.074   6.052   7.804
15172TIP3    H145393   1.156   6.032   7.758
15172TIP3    H245394   1.075   5.986   7.876
15173TIP3   OH245395   1.207   5.717   5.947
15173TIP3    H145396   1.189   5.668   5.863
15173TIP3    H245397   1.176   5.806   5.920
15174TIP3   OH245398   0.690   5.427   7.810
15174TIP3    H145399   0.679   5.352   7.749
15174TIP3    H245400   0.661   5.503   7.757
15175TIP3   OH245401   0.673   5.222   7.599
15175TIP3    H145402   0.712   5.268   7.521
15175TIP3    H245403   0.579   5.229   7.580
15176TIP3   OH245404   0.705   5.782   7.426
15176TIP3    H145405   0.796   5.760   7.404
15176TIP3    H245406   0.706   5.879   7.416
15177TIP3   OH245407   1.293   5.733   7.858
15177TIP3    H145408   1.338   5.648   7.870
15177TIP3    H245409   1.365   5.787   7.821
15178TIP3   OH245410   1.330   5.985   7.595
15178TIP3    H145411   1.276   6.039   7.533
15178TIP3    H245412   1.419   6.001   7.558
15179TIP3   OH245413   0.814   4.992   7.670
15179TIP3    H145414   0.763   5.073   7.648
15179TIP3    H245415   0.745   4.923   7.665
15180TIP3   OH245416   0.941   5.502   7.891
15180TIP3    H145417   0.934   5.491   7.987
15180TIP3    H245418   0.851   5.471   7.865
15181TIP3   OH245419   1.175   5.450   7.740
15181TIP3    H145420   1.102   5.449   7.805
15181TIP3    H245421   1.250   5.418   7.795
15182TIP3   OH245422   1.384   5.382   7.897
15182TIP3    H145423   1.415   5.290   7.910
15182TIP3    H245424   1.397   5.422   7.985
15183TIP3   OH245425   0.908   5.003   7.928
15183TIP3    H145426   0.977   4.934   7.925
15183TIP3    H245427   0.870   4.995   7.839
15184TIP3   OH245428   0.972   5.217   8.089
15184TIP3    H145429   0.951   5.146   8.024
15184TIP3    H245430   0.898   5.279   8.078
15185TIP3   OH245431   1.448   6.699   6.804
15185TIP3    H145432   1.480   6.725   6.892
15185TIP3    H245433   1.517   6.734   6.746
15186TIP3   OH245434   1.484   6.712   7.086
15186TIP3    H145435   1.438   6.626   7.081
15186TIP3    H245436   1.556   6.687   7.146
15187TIP3   OH245437   1.521   6.395   7.651
15187TIP3    H145438   1.454   6.398   7.722
15187TIP3    H245439   1.567   6.480   7.663
15188TIP3   OH245440   1.342   5.905   6.280
15188TIP3    H145441   1.413   5.965   6.251
15188TIP3    H245442   1.385   5.864   6.359
15189TIP3   OH245443   1.469   5.773   6.484
15189TIP3    H145444   1.406   5.728   6.543
15189TIP3    H245445   1.537   5.807   6.546
15190TIP3   OH245446   1.522   6.161   6.912
15190TIP3    H145447   1.580   6.095   6.867
15190TIP3    H245448   1.516   6.232   6.846
15191TIP3   OH245449   1.358   6.466   7.107
15191TIP3    H145450   1.286   6.497   7.165
15191TIP3    H245451   1.308   6.413   7.040
15192TIP3   OH245452   1.410   5.679   6.130
15192TIP3    H145453   1.338   5.680   6.063
15192TIP3    H245454   1.382   5.754   6.186
15193TIP3   OH245455   1.276   5.354   6.087
15193TIP3    H145456   1.241   5.387   6.003
15193TIP3    H245457   1.253   5.258   6.080
15194TIP3   OH245458   1.284   5.626   6.629
15194TIP3    H145459   1.295   5.530   6.624
15194TIP3    H245460   1.272   5.640   6.726
15195TIP3   OH245461   1.573   6.050   7.484
15195TIP3    H145462   1.642   5.980   7.479
15195TIP3    H245463   1.609   6.118   7.425
15196TIP3   OH245464   1.758   5.857   7.501
15196TIP3    H145465   1.690   5.810   7.553
15196TIP3    H245466   1.834   5.797   7.515
15197TIP3   OH245467   1.223   5.088   6.075
15197TIP3    H145468   1.302   5.056   6.123
15197TIP3    H245469   1.154   5.023   6.097
15198TIP3   OH245470   1.281   5.342   6.524
15198TIP3    H145471   1.321   5.253   6.540
15198TIP3    H245472   1.341   5.374   6.454
15199TIP3   OH245473   1.442   5.520   7.018
15199TIP3    H145474   1.529   5.544   6.978
15199TIP3    H245475   1.458   5.553   7.108
15200TIP3   OH245476   1.509   5.660   7.250
15200TIP3    H145477   1.433   5.696   7.300
15200TIP3    H245478   1.545   5.740   7.208
15201TIP3   OH245479   1.950   5.230   7.811
15201TIP3    H145480   2.017   5.180   7.759
15201TIP3    H245481   1.937   5.310   7.756
15202TIP3   OH245482   1.389   5.093   6.564
15202TIP3    H145483   1.440   5.077   6.646
15202TIP3    H245484   1.331   5.014   6.562
15203TIP3   OH245485   1.844   5.397   7.616
15203TIP3    H145486   1.771   5.430   7.673
15203TIP3    H245487   1.799   5.327   7.565
15204TIP3   OH245488   1.472   5.028   6.192
15204TIP3    H145489   1.512   4.954   6.143
15204TIP3    H245490   1.541   5.097   6.187
15205TIP3   OH245491   1.034   6.563   6.462
15205TIP3    H145492   1.084   6.545   6.379
15205TIP3    H245493   1.095   6.623   6.508
15206TIP3   OH245494   0.789   6.616   7.539
15206TIP3    H145495   0.813   6.635   7.631
15206TIP3    H245496   0.846   6.678   7.490
15207TIP3   OH245497   0.939   6.801   7.392
15207TIP3    H145498   0.997   6.740   7.345
15207TIP3    H245499   1.002   6.844   7.454
15208TIP3   OH245500   1.732   5.155   7.491
15208TIP3    H145501   1.641   5.148   7.458
15208TIP3    H245502   1.764   5.063   7.479
15209TIP3   OH245503   0.662   6.692   7.034
15209TIP3    H145504   0.565   6.694   7.035
15209TIP3    H245505   0.683   6.770   7.087
15210TIP3   OH245506   0.918   6.617   7.133
15210TIP3    H145507   0.833   6.620   7.084
15210TIP3    H245508   0.974   6.676   7.079
15211TIP3   OH245509   1.127   6.791   7.040
15211TIP3    H145510   1.119   6.876   6.992
15211TIP3    H245511   1.159   6.731   6.969
15212TIP3   OH245512   0.935   5.067   7.105
15212TIP3    H145513   0.896   4.995   7.159
15212TIP3    H245514   1.012   5.023   7.064
15213TIP3   OH245515   1.462   4.948   7.015
15213TIP3    H145516   1.500   5.000   6.941
15213TIP3    H245517   1.367   4.969   7.009
15214TIP3   OH245518   1.556   5.052   6.780
15214TIP3    H145519   1.629   4.999   6.740
15214TIP3    H245520   1.591   5.142   6.764
15215TIP3   OH245521   0.634   4.818   7.006
15215TIP3    H145522   0.695   4.865   6.946
15215TIP3    H245523   0.668   4.844   7.093
15216TIP3   OH245524   1.174   4.957   6.992
15216TIP3    H145525   1.180   4.918   6.903
15216TIP3    H245526   1.163   4.876   7.047
15217TIP3   OH245527   1.207   4.878   6.553
15217TIP3    H145528   1.119   4.917   6.563
15217TIP3    H245529   1.196   4.793   6.600
15218TIP3   OH245530   0.122   4.731   6.578
15218TIP3    H145531   0.125   4.714   6.483
15218TIP3    H245532   0.155   4.821   6.585
15219TIP3   OH245533   0.609   4.982   6.637
15219TIP3    H145534   0.669   4.934   6.697
15219TIP3    H245535   0.633   5.074   6.662
15220TIP3   OH245536   0.477   6.420   6.167
15220TIP3    H145537   0.563   6.414   6.120
15220TIP3    H245538   0.418   6.389   6.095
15221TIP3   OH245539   1.179   6.524   6.230
15221TIP3    H145540   1.172   6.426   6.217
15221TIP3    H245541   1.138   6.556   6.148
15222TIP3   OH245542   0.641   5.031   8.123
15222TIP3    H145543   0.725   5.024   8.076
15222TIP3    H245544   0.658   4.974   8.200
15223TIP3   OH245545   1.469   5.117   7.924
15223TIP3    H145546   1.491   5.086   8.015
15223TIP3    H245547   1.557   5.116   7.881
15224TIP3   OH245548   1.409   6.673   7.416
15224TIP3    H145549   1.330   6.638   7.371
15224TIP3    H245550   1.386   6.767   7.421
15225TIP3   OH245551   2.675   6.042   6.184
15225TIP3    H145552   2.645   6.133   6.163
15225TIP3    H245553   2.600   5.991   6.150
15226TIP3   OH245554   2.671   6.043   6.565
15226TIP3    H145555   2.704   6.010   6.650
15226TIP3    H245556   2.632   5.963   6.526
15227TIP3   OH245557   1.971   5.936   6.930
15227TIP3    H145558   2.001   5.868   6.993
15227TIP3    H245559   2.050   5.992   6.926
15228TIP3   OH245560   2.916   6.345   6.245
15228TIP3    H145561   2.902   6.272   6.307
15228TIP3    H245562   2.946   6.416   6.303
15229TIP3   OH245563   1.942   6.346   6.655
15229TIP3    H145564   1.934   6.248   6.657
15229TIP3    H245565   2.039   6.355   6.651
15230TIP3   OH245566   1.650   5.552   6.440
15230TIP3    H145567   1.600   5.634   6.452
15230TIP3    H245568   1.581   5.494   6.403
15231TIP3   OH245569   1.710   5.836   6.610
15231TIP3    H145570   1.757   5.759   6.648
15231TIP3    H245571   1.770   5.862   6.539
15232TIP3   OH245572   2.566   6.806   6.263
15232TIP3    H145573   2.611   6.736   6.211
15232TIP3    H245574   2.562   6.765   6.351
15233TIP3   OH245575   2.472   6.269   6.611
15233TIP3    H145576   2.508   6.190   6.567
15233TIP3    H245577   2.557   6.312   6.634
15234TIP3   OH245578   3.482   5.583   6.609
15234TIP3    H145579   3.509   5.666   6.652
15234TIP3    H245580   3.508   5.599   6.517
15235TIP3   OH245581   2.885   5.768   6.645
15235TIP3    H145582   2.928   5.683   6.663
15235TIP3    H245583   2.853   5.754   6.554
15236TIP3   OH245584   2.221   5.429   6.610
15236TIP3    H145585   2.201   5.501   6.547
15236TIP3    H245586   2.174   5.354   6.566
15237TIP3   OH245587   2.915   5.522   6.232
15237TIP3    H145588   2.987   5.504   6.297
15237TIP3    H245589   2.968   5.553   6.157
15238TIP3   OH245590   1.856   5.631   6.716
15238TIP3    H145591   1.939   5.611   6.764
15238TIP3    H245592   1.869   5.574   6.637
15239TIP3   OH245593   2.297   5.829   6.510
15239TIP3    H145594   2.390   5.803   6.523
15239TIP3    H245595   2.258   5.745   6.478
15240TIP3   OH245596   3.547   5.783   6.799
15240TIP3    H145597   3.470   5.838   6.771
15240TIP3    H245598   3.586   5.836   6.870
15241TIP3   OH245599   2.219   5.411   7.043
15241TIP3    H145600   2.157   5.448   6.978
15241TIP3    H245601   2.168   5.426   7.126
15242TIP3   OH245602   2.566   6.263   6.055
15242TIP3    H145603   2.524   6.238   5.971
15242TIP3    H245604   2.520   6.347   6.076
15243TIP3   OH245605   2.326   6.187   6.840
15243TIP3    H145606   2.262   6.251   6.879
15243TIP3    H245607   2.367   6.240   6.768
15244TIP3   OH245608   3.125   5.523   6.403
15244TIP3    H145609   3.131   5.460   6.475
15244TIP3    H245610   3.184   5.595   6.432
15245TIP3   OH245611   2.088   5.527   6.829
15245TIP3    H145612   2.152   5.598   6.853
15245TIP3    H245613   2.137   5.486   6.754
15246TIP3   OH245614   2.152   6.379   6.938
15246TIP3    H145615   2.124   6.465   6.900
15246TIP3    H245616   2.074   6.362   6.996
15247TIP3   OH245617   1.547   6.070   6.173
15247TIP3    H145618   1.508   6.096   6.088
15247TIP3    H245619   1.580   6.154   6.209
15248TIP3   OH245620   2.988   6.587   6.416
15248TIP3    H145621   2.897   6.577   6.454
15248TIP3    H245622   2.979   6.672   6.369
15249TIP3   OH245623   3.265   5.503   6.782
15249TIP3    H145624   3.180   5.510   6.735
15249TIP3    H245625   3.330   5.524   6.712
15250TIP3   OH245626   2.576   5.131   6.757
15250TIP3    H145627   2.563   5.036   6.775
15250TIP3    H245628   2.498   5.168   6.805
15251TIP3   OH245629   2.688   6.635   6.087
15251TIP3    H145630   2.737   6.551   6.068
15251TIP3    H245631   2.751   6.699   6.046
15252TIP3   OH245632   2.830   6.420   5.994
15252TIP3    H145633   2.798   6.340   5.951
15252TIP3    H245634   2.866   6.384   6.078
15253TIP3   OH245635   3.214   6.500   6.756
15253TIP3    H145636   3.202   6.422   6.699
15253TIP3    H245637   3.197   6.574   6.694
15254TIP3   OH245638   2.506   5.896   6.013
15254TIP3    H145639   2.425   5.944   5.987
15254TIP3    H245640   2.553   5.887   5.928
15255TIP3   OH245641   2.462   5.678   5.732
15255TIP3    H145642   2.533   5.727   5.778
15255TIP3    H245643   2.517   5.612   5.684
15256TIP3   OH245644   3.410   6.138   6.604
15256TIP3    H145645   3.325   6.188   6.608
15256TIP3    H245646   3.437   6.159   6.512
15257TIP3   OH245647   2.852   5.977   5.985
15257TIP3    H145648   2.798   6.000   6.064
15257TIP3    H245649   2.936   5.949   6.029
15258TIP3   OH245650   3.091   6.019   6.883
15258TIP3    H145651   3.087   6.096   6.941
15258TIP3    H245652   2.999   6.013   6.853
15259TIP3   OH245653   2.086   5.975   6.402
15259TIP3    H145654   2.043   5.917   6.337
15259TIP3    H245655   2.162   5.921   6.432
15260TIP3   OH245656   2.216   6.388   6.550
15260TIP3    H145657   2.193   6.341   6.468
15260TIP3    H245658   2.305   6.353   6.569
15261TIP3   OH245659   2.220   5.945   6.756
15261TIP3    H145660   2.254   5.922   6.668
15261TIP3    H245661   2.265   6.029   6.776
15262TIP3   OH245662   2.744   6.584   6.533
15262TIP3    H145663   2.734   6.661   6.592
15262TIP3    H245664   2.732   6.508   6.594
15263TIP3   OH245665   2.358   6.504   7.078
15263TIP3    H145666   2.298   6.564   7.128
15263TIP3    H245667   2.293   6.448   7.032
15264TIP3   OH245668   2.691   5.837   5.811
15264TIP3    H145669   2.752   5.894   5.863
15264TIP3    H245670   2.718   5.860   5.719
15265TIP3   OH245671   2.111   6.064   7.174
15265TIP3    H145672   2.116   6.145   7.228
15265TIP3    H245673   2.018   6.038   7.191
15266TIP3   OH245674   2.434   6.515   6.088
15266TIP3    H145675   2.515   6.567   6.105
15266TIP3    H245676   2.375   6.580   6.047
15267TIP3   OH245677   2.151   6.673   7.168
15267TIP3    H145678   2.117   6.666   7.077
15267TIP3    H245679   2.072   6.650   7.222
15268TIP3   OH245680   3.213   5.076   5.859
15268TIP3    H145681   3.127   5.085   5.906
15268TIP3    H245682   3.216   5.160   5.809
15269TIP3   OH245683   1.949   5.818   6.211
15269TIP3    H145684   1.883   5.858   6.151
15269TIP3    H245685   1.916   5.728   6.220
15270TIP3   OH245686   3.007   6.443   5.409
15270TIP3    H145687   3.017   6.539   5.394
15270TIP3    H245688   3.100   6.412   5.395
15271TIP3   OH245689   1.733   6.200   7.114
15271TIP3    H145690   1.670   6.172   7.045
15271TIP3    H245691   1.772   6.114   7.143
15272TIP3   OH245692   1.586   6.396   6.742
15272TIP3    H145693   1.681   6.380   6.735
15272TIP3    H245694   1.583   6.470   6.805
15273TIP3   OH245695   3.451   6.844   6.801
15273TIP3    H145696   3.450   6.747   6.814
15273TIP3    H245697   3.367   6.868   6.848
15274TIP3   OH245698   2.555   6.633   6.936
15274TIP3    H145699   2.554   6.724   6.970
15274TIP3    H245700   2.484   6.592   6.991
15275TIP3   OH245701   2.314   6.759   5.890
15275TIP3    H145702   2.271   6.739   5.805
15275TIP3    H245703   2.284   6.849   5.909
15276TIP3   OH245704   1.754   6.610   6.274
15276TIP3    H145705   1.803   6.599   6.359
15276TIP3    H245706   1.702   6.528   6.273
15277TIP3   OH245707   2.518   6.660   5.530
15277TIP3    H145708   2.577   6.591   5.493
15277TIP3    H245709   2.553   6.669   5.621
15278TIP3   OH245710   2.568   6.709   5.801
15278TIP3    H145711   2.480   6.717   5.844
15278TIP3    H245712   2.619   6.665   5.870
15279TIP3   OH245713   1.935   6.387   7.106
15279TIP3    H145714   1.988   6.366   7.186
15279TIP3    H245715   1.864   6.320   7.112
15280TIP3   OH245716   2.336   5.207   6.886
15280TIP3    H145717   2.247   5.176   6.860
15280TIP3    H245718   2.311   5.288   6.934
15281TIP3   OH245719   2.870   5.323   7.081
15281TIP3    H145720   2.937   5.295   7.146
15281TIP3    H245721   2.785   5.302   7.126
15282TIP3   OH245722   2.769   5.887   5.557
15282TIP3    H145723   2.735   5.856   5.471
15282TIP3    H245724   2.853   5.929   5.530
15283TIP3   OH245725   2.479   5.265   5.856
15283TIP3    H145726   2.447   5.255   5.948
15283TIP3    H245727   2.469   5.174   5.825
15284TIP3   OH245728   2.267   5.722   6.906
15284TIP3    H145729   2.219   5.743   6.988
15284TIP3    H245730   2.251   5.803   6.853
15285TIP3   OH245731   2.151   5.610   6.420
15285TIP3    H145732   2.059   5.581   6.437
15285TIP3    H245733   2.166   5.569   6.331
15286TIP3   OH245734   2.644   5.696   6.149
15286TIP3    H145735   2.591   5.765   6.104
15286TIP3    H245736   2.698   5.662   6.075
15287TIP3   OH245737   2.805   5.972   7.226
15287TIP3    H145738   2.780   5.903   7.292
15287TIP3    H245739   2.891   6.001   7.258
15288TIP3   OH245740   2.801   5.725   6.385
15288TIP3    H145741   2.739   5.750   6.314
15288TIP3    H245742   2.836   5.642   6.344
15289TIP3   OH245743   2.085   5.751   7.116
15289TIP3    H145744   2.117   5.809   7.187
15289TIP3    H245745   2.075   5.666   7.164
15290TIP3   OH245746   2.138   5.227   5.822
15290TIP3    H145747   2.134   5.223   5.920
15290TIP3    H245748   2.057   5.276   5.801
15291TIP3   OH245749   1.680   5.276   6.694
15291TIP3    H145750   1.756   5.305   6.748
15291TIP3    H245751   1.721   5.239   6.614
15292TIP3   OH245752   1.654   5.253   6.215
15292TIP3    H145753   1.701   5.291   6.137
15292TIP3    H245754   1.594   5.328   6.235
15293TIP3   OH245755   2.812   5.971   6.808
15293TIP3    H145756   2.846   5.898   6.750
15293TIP3    H245757   2.782   5.918   6.885
15294TIP3   OH245758   2.480   5.436   6.483
15294TIP3    H145759   2.398   5.429   6.535
15294TIP3    H245760   2.548   5.427   6.551
15295TIP3   OH245761   1.914   5.485   6.489
15295TIP3    H145762   1.820   5.490   6.462
15295TIP3    H245763   1.939   5.394   6.467
15296TIP3   OH245764   2.182   5.485   6.178
15296TIP3    H145765   2.278   5.495   6.159
15296TIP3    H245766   2.139   5.506   6.092
15297TIP3   OH245767   2.976   5.506   6.689
15297TIP3    H145768   2.933   5.517   6.777
15297TIP3    H245769   2.915   5.445   6.645
15298TIP3   OH245770   2.021   5.520   5.955
15298TIP3    H145771   1.951   5.472   5.907
15298TIP3    H245772   2.074   5.553   5.880
15299TIP3   OH245773   3.140   7.196   6.901
15299TIP3    H145774   3.139   7.217   6.806
15299TIP3    H245775   3.219   7.244   6.932
15300TIP3   OH245776   2.098   6.311   7.322
15300TIP3    H145777   2.178   6.335   7.373
15300TIP3    H245778   2.035   6.300   7.396
15301TIP3   OH245779   2.562   5.760   6.580
15301TIP3    H145780   2.631   5.717   6.528
15301TIP3    H245781   2.570   5.716   6.666
15302TIP3   OH245782   2.085   5.247   6.455
15302TIP3    H145783   2.053   5.168   6.502
15302TIP3    H245784   2.141   5.209   6.386
15303TIP3   OH245785   2.538   5.656   6.864
15303TIP3    H145786   2.448   5.690   6.880
15303TIP3    H245787   2.594   5.717   6.916
15304TIP3   OH245788   2.272   6.049   5.961
15304TIP3    H145789   2.202   5.981   5.952
15304TIP3    H245790   2.257   6.080   6.053
15305TIP3   OH245791   3.177   6.283   6.593
15305TIP3    H145792   3.199   6.331   6.511
15305TIP3    H245793   3.092   6.239   6.569
15306TIP3   OH245794   2.731   5.366   5.816
15306TIP3    H145795   2.636   5.344   5.831
15306TIP3    H245796   2.740   5.457   5.852
15307TIP3   OH245797   2.681   6.368   6.959
15307TIP3    H145798   2.695   6.336   7.049
15307TIP3    H245799   2.636   6.452   6.972
15308TIP3   OH245800   2.803   5.608   5.932
15308TIP3    H145801   2.900   5.609   5.945
15308TIP3    H245802   2.788   5.685   5.874
15309TIP3   OH245803   1.968   6.070   6.639
15309TIP3    H145804   2.007   6.039   6.555
15309TIP3    H245805   2.007   6.007   6.702
15310TIP3   OH245806   2.420   6.196   5.782
15310TIP3    H145807   2.373   6.282   5.791
15310TIP3    H245808   2.367   6.140   5.843
15311TIP3   OH245809   1.848   5.992   7.254
15311TIP3    H145810   1.874   5.979   7.347
15311TIP3    H245811   1.783   5.920   7.242
15312TIP3   OH245812   2.567   6.105   7.269
15312TIP3    H145813   2.506   6.041   7.229
15312TIP3    H245814   2.653   6.069   7.238
15313TIP3   OH245815   2.836   6.633   6.851
15313TIP3    H145816   2.741   6.621   6.866
15313TIP3    H245817   2.863   6.679   6.933
15314TIP3   OH245818   3.247   5.695   5.764
15314TIP3    H145819   3.184   5.649   5.703
15314TIP3    H245820   3.243   5.783   5.722
15315TIP3   OH245821   3.464   6.555   6.844
15315TIP3    H145822   3.366   6.548   6.837
15315TIP3    H245823   3.490   6.523   6.754
15316TIP3   OH245824   2.945   6.514   5.673
15316TIP3    H145825   2.922   6.443   5.734
15316TIP3    H245826   2.958   6.468   5.588
15317TIP3   OH245827   2.942   6.145   6.511
15317TIP3    H145828   2.849   6.118   6.525
15317TIP3    H245829   2.977   6.064   6.467
15318TIP3   OH245830   2.068   6.372   6.266
15318TIP3    H145831   2.069   6.452   6.210
15318TIP3    H245832   1.974   6.353   6.270
15319TIP3   OH245833   1.630   5.677   5.964
15319TIP3    H145834   1.679   5.759   5.987
15319TIP3    H245835   1.555   5.681   6.028
15320TIP3   OH245836   2.208   6.138   6.208
15320TIP3    H145837   2.173   6.227   6.229
15320TIP3    H245838   2.174   6.086   6.283
15321TIP3   OH245839   2.337   6.716   6.734
15321TIP3    H145840   2.382   6.786   6.682
15321TIP3    H245841   2.413   6.679   6.782
15322TIP3   OH245842   1.987   6.612   6.115
15322TIP3    H145843   1.902   6.619   6.163
15322TIP3    H245844   2.018   6.705   6.119
15323TIP3   OH245845   2.729   6.351   6.690
15323TIP3    H145846   2.720   6.348   6.788
15323TIP3    H245847   2.804   6.292   6.676
15324TIP3   OH245848   2.700   6.245   5.575
15324TIP3    H145849   2.754   6.219   5.653
15324TIP3    H245850   2.613   6.213   5.604
15325TIP3   OH245851   2.975   6.886   6.745
15325TIP3    H145852   2.899   6.825   6.740
15325TIP3    H245853   2.957   6.947   6.671
15326TIP3   OH245854   3.041   6.718   5.394
15326TIP3    H145855   3.079   6.791   5.342
15326TIP3    H245856   2.960   6.763   5.427
15327TIP3   OH245857   2.062   5.492   7.259
15327TIP3    H145858   1.969   5.502   7.283
15327TIP3    H245859   2.096   5.440   7.334
15328TIP3   OH245860   2.860   6.181   5.793
15328TIP3    H145861   2.849   6.112   5.862
15328TIP3    H245862   2.957   6.175   5.779
15329TIP3   OH245863   1.776   6.580   6.894
15329TIP3    H145864   1.826   6.500   6.916
15329TIP3    H245865   1.808   6.639   6.964
15330TIP3   OH245866   2.065   6.224   5.574
15330TIP3    H145867   2.082   6.133   5.544
15330TIP3    H245868   2.047   6.209   5.669
15331TIP3   OH245869   2.010   6.228   5.848
15331TIP3    H145870   2.085   6.197   5.902
15331TIP3    H245871   2.019   6.326   5.856
15332TIP3   OH245872   1.748   5.920   6.048
15332TIP3    H145873   1.682   5.965   6.106
15332TIP3    H245874   1.765   5.990   5.983
15333TIP3   OH245875   2.895   5.561   6.952
15333TIP3    H145876   2.970   5.580   7.009
15333TIP3    H245877   2.866   5.475   6.990
15334TIP3   OH245878   2.752   5.325   6.108
15334TIP3    H145879   2.761   5.331   6.011
15334TIP3    H245880   2.809   5.398   6.139
15335TIP3   OH245881   2.278   6.426   5.796
15335TIP3    H145882   2.191   6.455   5.831
15335TIP3    H245883   2.294   6.494   5.730
15336TIP3   OH245884   2.463   5.491   6.209
15336TIP3    H145885   2.532   5.557   6.190
15336TIP3    H245886   2.471   5.482   6.307
15337TIP3   OH245887   2.731   5.808   7.010
15337TIP3    H145888   2.746   5.860   7.092
15337TIP3    H245889   2.783   5.728   7.025
15338TIP3   OH245890   2.612   5.217   6.314
15338TIP3    H145891   2.607   5.295   6.372
15338TIP3    H245892   2.667   5.253   6.241
15339TIP3   OH245893   2.021   6.502   5.861
15339TIP3    H145894   1.990   6.572   5.799
15339TIP3    H245895   2.005   6.545   5.948
15340TIP3   OH245896   2.122   5.214   6.099
15340TIP3    H145897   2.121   5.304   6.138
15340TIP3    H245898   2.218   5.194   6.108
15341TIP3   OH245899   3.324   5.703   7.010
15341TIP3    H145900   3.262   5.654   6.954
15341TIP3    H245901   3.398   5.711   6.946
15342TIP3   OH245902   3.027   5.903   6.385
15342TIP3    H145903   2.951   5.843   6.395
15342TIP3    H245904   3.098   5.855   6.433
15343TIP3   OH245905   1.739   6.134   5.854
15343TIP3    H145906   1.809   6.201   5.864
15343TIP3    H245907   1.784   6.076   5.788
15344TIP3   OH245908   1.684   5.407   5.991
15344TIP3    H145909   1.682   5.505   5.983
15344TIP3    H245910   1.605   5.381   5.943
15345TIP3   OH245911   2.994   6.859   6.335
15345TIP3    H145912   2.952   6.907   6.260
15345TIP3    H245913   3.089   6.877   6.315
15346TIP3   OH245914   2.070   5.128   6.863
15346TIP3    H145915   2.040   5.093   6.776
15346TIP3    H245916   2.061   5.049   6.921
15347TIP3   OH245917   1.616   6.353   6.245
15347TIP3    H145918   1.538   6.378   6.297
15347TIP3    H245919   1.590   6.387   6.157
15348TIP3   OH245920   1.767   6.885   7.313
15348TIP3    H145921   1.853   6.881   7.359
15348TIP3    H245922   1.744   6.791   7.311
15349TIP3   OH245923   2.251   6.857   7.352
15349TIP3    H145924   2.343   6.829   7.366
15349TIP3    H245925   2.224   6.795   7.282
15350TIP3   OH245926   2.231   6.427   5.489
15350TIP3    H145927   2.174   6.355   5.526
15350TIP3    H245928   2.306   6.375   5.456
15351TIP3   OH245929   2.887   6.759   7.092
15351TIP3    H145930   2.877   6.688   7.160
15351TIP3    H245931   2.966   6.807   7.123
15352TIP3   OH245932   2.667   6.469   5.398
15352TIP3    H145933   2.709   6.404   5.457
15352TIP3    H245934   2.724   6.467   5.319
15353TIP3   OH245935   1.899   6.295   7.514
15353TIP3    H145936   1.918   6.201   7.528
15353TIP3    H245937   1.811   6.291   7.470
15354TIP3   OH245938   1.874   5.945   5.708
15354TIP3    H145939   1.928   5.908   5.780
15354TIP3    H245940   1.941   5.949   5.636
15355TIP3   OH245941   2.507   6.379   7.287
15355TIP3    H145942   2.463   6.390   7.201
15355TIP3    H245943   2.536   6.285   7.283
15356TIP3   OH245944   2.380   6.142   5.514
15356TIP3    H145945   2.386   6.154   5.611
15356TIP3    H245946   2.384   6.044   5.508
15357TIP3   OH245947   3.000   6.384   6.899
15357TIP3    H145948   3.072   6.431   6.852
15357TIP3    H245949   2.925   6.444   6.883
15358TIP3   OH245950   2.020   6.029   7.492
15358TIP3    H145951   2.078   5.951   7.489
15358TIP3    H245952   2.040   6.057   7.584
15359TIP3   OH245953   2.083   5.847   5.930
15359TIP3    H145954   2.059   5.802   6.013
15359TIP3    H245955   2.120   5.773   5.877
15360TIP3   OH245956   2.351   5.913   7.156
15360TIP3    H145957   2.274   5.972   7.160
15360TIP3    H245958   2.400   5.947   7.078
15361TIP3   OH245959   2.183   5.642   5.771
15361TIP3    H145960   2.158   5.641   5.676
15361TIP3    H245961   2.281   5.645   5.764
15362TIP3   OH245962   2.868   6.316   7.292
15362TIP3    H145963   2.952   6.298   7.248
15362TIP3    H245964   2.868   6.249   7.363
15363TIP3   OH245965   3.005   5.974   5.433
15363TIP3    H145966   2.985   5.925   5.350
15363TIP3    H245967   2.972   6.063   5.406
15364TIP3   OH245968   2.475   5.699   7.285
15364TIP3    H145969   2.475   5.618   7.231
15364TIP3    H245970   2.429   5.763   7.226
15365TIP3   OH245971   2.477   5.486   7.089
15365TIP3    H145972   2.503   5.526   7.003
15365TIP3    H245973   2.383   5.463   7.073
15366TIP3   OH245974   2.507   6.024   6.963
15366TIP3    H145975   2.589   6.027   6.911
15366TIP3    H245976   2.451   6.090   6.918
15367TIP3   OH245977   3.131   6.240   7.085
15367TIP3    H145978   3.070   6.290   7.026
15367TIP3    H245979   3.216   6.260   7.041
15368TIP3   OH245980   2.346   5.824   7.504
15368TIP3    H145981   2.277   5.759   7.527
15368TIP3    H245982   2.387   5.783   7.426
15369TIP3   OH245983   2.613   5.252   7.154
15369TIP3    H145984   2.562   5.334   7.136
15369TIP3    H245985   2.543   5.184   7.148
15370TIP3   OH245986   2.736   5.761   7.369
15370TIP3    H145987   2.740   5.723   7.460
15370TIP3    H245988   2.644   5.734   7.348
15371TIP3   OH245989   3.007   5.710   7.247
15371TIP3    H145990   2.913   5.732   7.265
15371TIP3    H245991   3.012   5.646   7.324
15372TIP3   OH245992   3.244   5.642   7.379
15372TIP3    H145993   3.225   5.546   7.395
15372TIP3    H245994   3.196   5.677   7.458
15373TIP3   OH245995   2.196   5.593   7.561
15373TIP3    H145996   2.201   5.499   7.534
15373TIP3    H245997   2.223   5.587   7.655
15374TIP3   OH245998   2.672   5.232   7.428
15374TIP3    H145999   2.761   5.194   7.424
15374TIP3    H246000   2.654   5.244   7.333
15375TIP3   OH246001   1.991   6.707   5.676
15375TIP3    H146002   2.086   6.700   5.657
15375TIP3    H246003   1.961   6.753   5.595
15376TIP3   OH246004   1.471   6.085   5.891
15376TIP3    H146005   1.566   6.107   5.877
15376TIP3    H246006   1.465   5.996   5.851
15377TIP3   OH246007   1.383   6.698   6.305
15377TIP3    H146008   1.317   6.634   6.269
15377TIP3    H246009   1.429   6.642   6.371
15378TIP3   OH246010   1.518   6.553   6.494
15378TIP3    H146011   1.512   6.475   6.552
15378TIP3    H246012   1.571   6.611   6.550
15379TIP3   OH246013   3.246   6.953   6.290
15379TIP3    H146014   3.276   6.984   6.378
15379TIP3    H246015   3.312   6.992   6.231
15380TIP3   OH246016   3.278   6.970   6.573
15380TIP3    H146017   3.233   6.883   6.568
15380TIP3    H246018   3.353   6.946   6.630
15381TIP3   OH246019   3.324   6.647   7.146
15381TIP3    H146020   3.250   6.654   7.211
15381TIP3    H246021   3.364   6.735   7.151
15382TIP3   OH246022   3.139   6.161   5.767
15382TIP3    H146023   3.210   6.222   5.738
15382TIP3    H246024   3.181   6.120   5.846
15383TIP3   OH246025   3.266   6.029   5.970
15383TIP3    H146026   3.201   5.984   6.028
15383TIP3    H246027   3.331   6.064   6.034
15384TIP3   OH246028   3.322   6.419   6.402
15384TIP3    H146029   3.374   6.352   6.353
15384TIP3    H246030   3.313   6.491   6.337
15385TIP3   OH246031   3.154   6.721   6.597
15385TIP3    H146032   3.082   6.759   6.650
15385TIP3    H246033   3.105   6.671   6.528
15386TIP3   OH246034   3.206   5.936   5.617
15386TIP3    H146035   3.134   5.936   5.549
15386TIP3    H246036   3.177   6.011   5.672
15387TIP3   OH246037   3.075   5.608   5.572
15387TIP3    H146038   3.034   5.638   5.490
15387TIP3    H246039   3.050   5.513   5.570
15388TIP3   OH246040   3.082   5.882   6.116
15388TIP3    H146041   3.089   5.785   6.108
15388TIP3    H246042   3.069   5.894   6.212
15389TIP3   OH246043   1.708   5.963   6.860
15389TIP3    H146044   1.708   5.928   6.769
15389TIP3    H246045   1.804   5.960   6.880
15390TIP3   OH246046   3.371   6.310   6.974
15390TIP3    H146047   3.442   6.242   6.967
15390TIP3    H246048   3.398   6.376   6.908
15391TIP3   OH246049   3.541   6.103   7.007
15391TIP3    H146050   3.477   6.032   7.015
15391TIP3    H246051   3.625   6.054   7.017
15392TIP3   OH246052   3.016   5.343   5.567
15392TIP3    H146053   3.096   5.309   5.612
15392TIP3    H246054   2.954   5.269   5.577
15393TIP3   OH246055   3.079   5.599   6.012
15393TIP3    H146056   3.117   5.510   6.029
15393TIP3    H246057   3.138   5.628   5.940
15394TIP3   OH246058   3.241   5.777   6.508
15394TIP3    H146059   3.327   5.802   6.468
15394TIP3    H246060   3.255   5.812   6.598
15395TIP3   OH246061   3.313   5.919   6.747
15395TIP3    H146062   3.232   5.951   6.794
15395TIP3    H246063   3.338   5.999   6.696
15396TIP3   OH246064   1.926   5.642   7.520
15396TIP3    H146065   2.022   5.646   7.538
15396TIP3    H246066   1.902   5.562   7.571
15397TIP3   OH246067   3.756   5.506   7.291
15397TIP3    H146068   3.818   5.440   7.254
15397TIP3    H246069   3.739   5.564   7.214
15398TIP3   OH246070   3.184   5.350   6.051
15398TIP3    H146071   3.233   5.329   6.134
15398TIP3    H246072   3.124   5.272   6.046
15399TIP3   OH246073   1.886   5.336   6.869
15399TIP3    H146074   1.947   5.260   6.879
15399TIP3    H246075   1.949   5.409   6.863
15400TIP3   OH246076   1.687   5.611   6.938
15400TIP3    H146077   1.739   5.603   6.856
15400TIP3    H246078   1.725   5.690   6.977
15401TIP3   OH246079   3.628   5.652   7.092
15401TIP3    H146080   3.544   5.676   7.135
15401TIP3    H246081   3.603   5.573   7.040
15402TIP3   OH246082   3.272   5.286   5.677
15402TIP3    H146083   3.314   5.214   5.625
15402TIP3    H246084   3.339   5.356   5.671
15403TIP3   OH246085   1.673   5.116   6.445
15403TIP3    H146086   1.579   5.111   6.468
15403TIP3    H246087   1.672   5.172   6.365
15404TIP3   OH246088   2.831   6.818   5.948
15404TIP3    H146089   2.880   6.800   5.865
15404TIP3    H246090   2.890   6.881   5.993
15405TIP3   OH246091   1.891   5.188   7.255
15405TIP3    H146092   1.847   5.190   7.341
15405TIP3    H246093   1.824   5.229   7.198
15406TIP3   OH246094   1.931   6.628   7.337
15406TIP3    H146095   1.843   6.590   7.317
15406TIP3    H246096   1.947   6.593   7.426
15407TIP3   OH246097   2.109   6.651   6.882
15407TIP3    H146098   2.064   6.728   6.842
15407TIP3    H246099   2.197   6.663   6.839
15408TIP3   OH246100   2.556   6.900   7.021
15408TIP3    H146101   2.599   6.897   7.109
15408TIP3    H246102   2.623   6.948   6.969
15409TIP3   OH246103   2.735   7.050   6.876
15409TIP3    H146104   2.804   6.996   6.835
15409TIP3    H246105   2.788   7.105   6.938
15410TIP3   OH246106   3.528   5.410   6.980
15410TIP3    H146107   3.438   5.394   6.946
15410TIP3    H246108   3.566   5.319   6.970
15411TIP3   OH246109   1.788   6.922   6.897
15411TIP3    H146110   1.695   6.949   6.883
15411TIP3    H246111   1.796   6.932   6.992
15412TIP3   OH246112   2.026   6.891   6.764
15412TIP3    H146113   1.939   6.903   6.807
15412TIP3    H246114   2.006   6.917   6.672
15413TIP3   OH246115   2.450   6.918   6.561
15413TIP3    H146116   2.382   6.938   6.494
15413TIP3    H246117   2.463   7.005   6.603
15414TIP3   OH246118   2.719   6.859   6.614
15414TIP3    H146119   2.625   6.873   6.591
15414TIP3    H246120   2.762   6.933   6.568
15415TIP3   OH246121   2.927   7.049   6.527
15415TIP3    H146122   2.913   7.133   6.478
15415TIP3    H246123   2.953   6.988   6.455
15416TIP3   OH246124   1.700   6.704   6.653
15416TIP3    H146125   1.728   6.676   6.743
15416TIP3    H246126   1.770   6.659   6.600
15417TIP3   OH246127   1.892   6.575   6.508
15417TIP3    H146128   1.907   6.489   6.554
15417TIP3    H246129   1.983   6.610   6.502
15418TIP3   OH246130   2.160   6.670   6.510
15418TIP3    H146131   2.190   6.579   6.495
15418TIP3    H246132   2.205   6.688   6.594
15419TIP3   OH246133   2.735   5.326   6.598
15419TIP3    H146134   2.691   5.256   6.649
15419TIP3    H246135   2.804   5.277   6.550
15420TIP3   OH246136   3.258   5.224   6.515
15420TIP3    H146137   3.296   5.262   6.433
15420TIP3    H246138   3.163   5.220   6.495
15421TIP3   OH246139   3.354   5.306   6.270
15421TIP3    H146140   3.425   5.254   6.226
15421TIP3    H246141   3.386   5.397   6.252
15422TIP3   OH246142   1.983   5.035   6.614
15422TIP3    H146143   1.891   5.001   6.615
15422TIP3    H246144   2.033   4.950   6.611
15423TIP3   OH246145   1.766   4.904   6.262
15423TIP3    H146146   1.801   4.959   6.189
15423TIP3    H246147   1.742   4.970   6.329
15424TIP3   OH246148   2.423   5.071   6.495
15424TIP3    H146149   2.484   5.113   6.433
15424TIP3    H246150   2.453   5.105   6.580
15425TIP3   OH246151   2.978   5.211   6.473
15425TIP3    H146152   2.973   5.172   6.384
15425TIP3    H246153   2.962   5.132   6.530
15426TIP3   OH246154   3.006   5.135   6.038
15426TIP3    H146155   2.914   5.145   6.009
15426TIP3    H246156   2.995   5.054   6.093
15427TIP3   OH246157   1.486   6.474   6.042
15427TIP3    H146158   1.402   6.439   6.006
15427TIP3    H246159   1.475   6.568   6.023
15428TIP3   OH246160   1.887   5.065   6.024
15428TIP3    H146161   1.933   5.000   5.969
15428TIP3    H246162   1.962   5.117   6.060
15429TIP3   OH246163   2.399   5.239   6.124
15429TIP3    H146164   2.460   5.189   6.182
15429TIP3    H246165   2.424   5.330   6.149
15430TIP3   OH246166   2.258   6.665   5.622
15430TIP3    H146167   2.348   6.686   5.587
15430TIP3    H246168   2.237   6.589   5.564
15431TIP3   OH246169   2.976   6.781   5.716
15431TIP3    H146170   2.969   6.683   5.704
15431TIP3    H246171   2.933   6.813   5.635
15432TIP3   OH246172   2.195   5.314   7.499
15432TIP3    H146173   2.157   5.248   7.560
15432TIP3    H246174   2.288   5.315   7.529
15433TIP3   OH246175   2.443   5.313   7.620
15433TIP3    H146176   2.525   5.294   7.571
15433TIP3    H246177   2.439   5.239   7.683
15434TIP3   OH246178   1.565   6.503   5.681
15434TIP3    H146179   1.566   6.523   5.775
15434TIP3    H246180   1.652   6.459   5.668
15435TIP3   OH246181   3.268   5.368   7.402
15435TIP3    H146182   3.279   5.349   7.498
15435TIP3    H246183   3.361   5.365   7.371
15436TIP3   OH246184   3.205   6.927   6.904
15436TIP3    H146185   3.126   6.894   6.856
15436TIP3    H246186   3.184   7.022   6.907
15437TIP3   OH246187   4.471   6.299   5.670
15437TIP3    H146188   4.441   6.390   5.650
15437TIP3    H246189   4.396   6.248   5.637
15438TIP3   OH246190   4.468   6.299   6.051
15438TIP3    H146191   4.500   6.267   6.138
15438TIP3    H246192   4.428   6.219   6.014
15439TIP3   OH246193   3.768   6.196   6.419
15439TIP3    H146194   3.800   6.127   6.480
15439TIP3    H246195   3.851   6.244   6.402
15440TIP3   OH246196   4.713   6.601   5.731
15440TIP3    H146197   4.698   6.529   5.794
15440TIP3    H246198   4.741   6.673   5.789
15441TIP3   OH246199   3.740   6.604   6.143
15441TIP3    H146200   3.731   6.506   6.145
15441TIP3    H246201   3.837   6.612   6.135
15442TIP3   OH246202   3.447   5.810   5.927
15442TIP3    H146203   3.394   5.891   5.938
15442TIP3    H246204   3.379   5.750   5.892
15443TIP3   OH246205   3.507   6.094   6.098
15443TIP3    H146206   3.554   6.016   6.135
15443TIP3    H246207   3.563   6.116   6.022
15444TIP3   OH246208   4.362   7.063   5.749
15444TIP3    H146209   4.408   6.992   5.699
15444TIP3    H246210   4.355   7.024   5.837
15445TIP3   OH246211   4.268   6.524   6.099
15445TIP3    H146212   4.304   6.446   6.054
15445TIP3    H246213   4.353   6.568   6.122
15446TIP3   OH246214   5.278   5.845   6.096
15446TIP3    H146215   5.310   5.927   6.139
15446TIP3    H246216   5.303   5.862   6.004
15447TIP3   OH246217   4.683   6.027   6.132
15447TIP3    H146218   4.722   5.940   6.152
15447TIP3    H246219   4.648   6.011   6.042
15448TIP3   OH246220   4.013   5.685   6.099
15448TIP3    H146221   3.997   5.755   6.032
15448TIP3    H246222   3.972   5.608   6.054
15449TIP3   OH246223   4.714   5.776   5.722
15449TIP3    H146224   4.789   5.759   5.784
15449TIP3    H246225   4.762   5.809   5.644
15450TIP3   OH246226   3.652   5.887   6.203
15450TIP3    H146227   3.735   5.865   6.250
15450TIP3    H246228   3.663   5.830   6.124
15451TIP3   OH246229   4.092   6.085   5.999
15451TIP3    H146230   4.186   6.059   6.010
15451TIP3    H246231   4.053   6.001   5.966
15452TIP3   OH246232   5.355   6.052   6.265
15452TIP3    H146233   5.271   6.099   6.248
15452TIP3    H246234   5.367   6.071   6.360
15453TIP3   OH246235   4.016   5.670   6.532
15453TIP3    H146236   3.955   5.703   6.463
15453TIP3    H246237   3.963   5.687   6.612
15454TIP3   OH246238   4.364   6.521   5.540
15454TIP3    H146239   4.320   6.496   5.458
15454TIP3    H246240   4.318   6.604   5.562
15455TIP3   OH246241   4.123   6.444   6.327
15455TIP3    H146242   4.059   6.508   6.365
15455TIP3    H246243   4.163   6.495   6.254
15456TIP3   OH246244   4.927   5.770   5.899
15456TIP3    H146245   4.908   5.748   5.991
15456TIP3    H246246   4.979   5.851   5.909
15457TIP3   OH246247   3.885   5.783   6.317
15457TIP3    H146248   3.950   5.854   6.338
15457TIP3    H246249   3.931   5.741   6.240
15458TIP3   OH246250   3.949   6.637   6.425
15458TIP3    H146251   3.922   6.722   6.385
15458TIP3    H246252   3.870   6.621   6.481
15459TIP3   OH246253   3.345   6.327   5.660
15459TIP3    H146254   3.303   6.353   5.576
15459TIP3    H246255   3.375   6.412   5.696
15460TIP3   OH246256   4.785   6.844   5.902
15460TIP3    H146257   4.694   6.834   5.941
15460TIP3    H246258   4.775   6.929   5.855
15461TIP3   OH246259   5.073   5.743   6.260
15461TIP3    H146260   4.987   5.777   6.233
15461TIP3    H246261   5.133   5.778   6.191
15462TIP3   OH246262   4.383   5.387   6.254
15462TIP3    H146263   4.361   5.292   6.266
15462TIP3    H246264   4.297   5.427   6.281
15463TIP3   OH246265   4.486   6.890   5.575
15463TIP3    H146266   4.535   6.807   5.555
15463TIP3    H246267   4.547   6.955   5.533
15464TIP3   OH246268   4.628   6.676   5.480
15464TIP3    H146269   4.591   6.596   5.440
15464TIP3    H246270   4.664   6.640   5.564
15465TIP3   OH246271   5.010   6.757   6.243
15465TIP3    H146272   4.998   6.678   6.185
15465TIP3    H246273   4.993   6.830   6.180
15466TIP3   OH246274   4.302   6.152   5.500
15466TIP3    H146275   4.221   6.201   5.476
15466TIP3    H246276   4.348   6.145   5.415
15467TIP3   OH246277   4.258   5.935   5.218
15467TIP3    H146278   4.328   5.984   5.265
15467TIP3    H246279   4.314   5.869   5.171
15468TIP3   OH246280   5.205   6.395   6.089
15468TIP3    H146281   5.121   6.446   6.095
15468TIP3    H246282   5.233   6.416   5.998
15469TIP3   OH246283   4.649   6.233   5.472
15469TIP3    H146284   4.594   6.257   5.551
15469TIP3    H246285   4.732   6.205   5.516
15470TIP3   OH246286   4.884   6.273   6.383
15470TIP3    H146287   4.880   6.356   6.434
15470TIP3    H246288   4.797   6.275   6.338
15471TIP3   OH246289   3.881   6.232   5.889
15471TIP3    H146290   3.838   6.173   5.823
15471TIP3    H246291   3.957   6.176   5.918
15472TIP3   OH246292   4.011   6.642   6.038
15472TIP3    H146293   3.989   6.599   5.954
15472TIP3    H246294   4.101   6.608   6.056
15473TIP3   OH246295   4.015   6.202   6.245
15473TIP3    H146296   4.048   6.177   6.156
15473TIP3    H246297   4.061   6.287   6.263
15474TIP3   OH246298   4.542   6.840   6.020
15474TIP3    H146299   4.529   6.918   6.077
15474TIP3    H246300   4.528   6.765   6.082
15475TIP3   OH246301   4.154   6.761   6.567
15475TIP3    H146302   4.093   6.822   6.614
15475TIP3    H246303   4.090   6.706   6.518
15476TIP3   OH246304   4.487   6.094   5.297
15476TIP3    H146305   4.547   6.151   5.350
15476TIP3    H246306   4.514   6.117   5.205
15477TIP3   OH246307   3.911   6.317   6.670
15477TIP3    H146308   3.912   6.403   6.715
15477TIP3    H246309   3.815   6.297   6.672
15478TIP3   OH246310   4.231   6.771   5.575
15478TIP3    H146311   4.310   6.825   5.592
15478TIP3    H246312   4.170   6.834   5.534
15479TIP3   OH246313   3.948   6.932   6.656
15479TIP3    H146314   3.915   6.927   6.564
15479TIP3    H246315   3.869   6.907   6.708
15480TIP3   OH246316   5.011   5.340   5.351
15480TIP3    H146317   4.921   5.310   5.327
15480TIP3    H246318   5.018   5.418   5.292
15481TIP3   OH246319   3.746   6.075   5.697
15481TIP3    H146320   3.679   6.116   5.638
15481TIP3    H246321   3.710   5.986   5.707
15482TIP3   OH246322   4.803   6.699   4.895
15482TIP3    H146323   4.812   6.796   4.880
15482TIP3    H246324   4.896   6.669   4.882
15483TIP3   OH246325   3.528   6.459   6.600
15483TIP3    H146326   3.463   6.435   6.531
15483TIP3    H246327   3.564   6.371   6.626
15484TIP3   OH246328   3.382   6.651   6.233
15484TIP3    H146329   3.478   6.640   6.223
15484TIP3    H246330   3.376   6.729   6.290
15485TIP3   OH246331   5.246   7.100   6.288
15485TIP3    H146332   5.246   7.003   6.302
15485TIP3    H246333   5.164   7.124   6.335
15486TIP3   OH246334   4.353   6.888   6.424
15486TIP3    H146335   4.351   6.980   6.457
15486TIP3    H246336   4.281   6.848   6.478
15487TIP3   OH246337   4.113   7.016   5.376
15487TIP3    H146338   4.067   6.997   5.292
15487TIP3    H246339   4.080   7.106   5.398
15488TIP3   OH246340   3.551   6.866   5.760
15488TIP3    H146341   3.599   6.856   5.845
15488TIP3    H246342   3.496   6.785   5.761
15489TIP3   OH246343   4.315   6.917   5.016
15489TIP3    H146344   4.374   6.848   4.980
15489TIP3    H246345   4.349   6.926   5.108
15490TIP3   OH246346   4.365   6.965   5.287
15490TIP3    H146347   4.276   6.975   5.329
15490TIP3    H246348   4.415   6.922   5.358
15491TIP3   OH246349   5.137   6.234   6.562
15491TIP3    H146350   5.055   6.243   6.511
15491TIP3    H246351   5.154   6.138   6.555
15492TIP3   OH246352   3.733   6.642   6.592
15492TIP3    H146353   3.783   6.621   6.674
15492TIP3    H246354   3.659   6.577   6.597
15493TIP3   OH246355   4.133   5.463   6.374
15493TIP3    H146356   4.046   5.431   6.343
15493TIP3    H246357   4.106   5.545   6.418
15494TIP3   OH246358   4.666   5.582   6.570
15494TIP3    H146359   4.734   5.551   6.632
15494TIP3    H246360   4.583   5.558   6.615
15495TIP3   OH246361   4.906   6.008   6.486
15495TIP3    H146362   4.857   6.003   6.572
15495TIP3    H246363   4.880   6.095   6.451
15496TIP3   OH246364   4.567   6.141   5.043
15496TIP3    H146365   4.532   6.112   4.957
15496TIP3    H246366   4.648   6.187   5.016
15497TIP3   OH246367   4.272   5.521   5.342
15497TIP3    H146368   4.246   5.517   5.436
15497TIP3    H246369   4.246   5.432   5.313
15498TIP3   OH246370   4.065   5.979   6.393
15498TIP3    H146371   4.013   6.000   6.474
15498TIP3    H246372   4.048   6.059   6.339
15499TIP3   OH246373   3.947   5.867   5.906
15499TIP3    H146374   3.855   5.837   5.924
15499TIP3    H246375   3.961   5.825   5.818
15500TIP3   OH246376   4.439   5.952   5.637
15500TIP3    H146377   4.386   6.022   5.592
15500TIP3    H246378   4.494   5.920   5.563
15501TIP3   OH246379   4.614   6.232   6.723
15501TIP3    H146380   4.591   6.157   6.783
15501TIP3    H246381   4.708   6.242   6.743
15502TIP3   OH246382   4.598   5.981   5.872
15502TIP3    H146383   4.536   6.008   5.802
15502TIP3    H246384   4.630   5.898   5.830
15503TIP3   OH246385   3.882   6.009   6.602
15503TIP3    H146386   3.918   6.068   6.669
15503TIP3    H246387   3.874   5.925   6.652
15504TIP3   OH246388   3.934   5.481   5.309
15504TIP3    H146389   3.927   5.481   5.406
15504TIP3    H246390   3.856   5.535   5.285
15505TIP3   OH246391   3.474   5.533   6.184
15505TIP3    H146392   3.555   5.559   6.232
15505TIP3    H246393   3.508   5.495   6.101
15506TIP3   OH246394   3.452   5.511   5.701
15506TIP3    H146395   3.498   5.548   5.623
15506TIP3    H246396   3.390   5.584   5.721
15507TIP3   OH246397   4.608   6.226   6.297
15507TIP3    H146398   4.640   6.154   6.238
15507TIP3    H246399   4.578   6.173   6.374
15508TIP3   OH246400   4.280   5.705   5.968
15508TIP3    H146401   4.198   5.673   6.010
15508TIP3    H246402   4.345   5.686   6.038
15509TIP3   OH246403   3.710   5.741   5.976
15509TIP3    H146404   3.616   5.746   5.949
15509TIP3    H246405   3.735   5.649   5.954
15510TIP3   OH246406   3.980   5.742   5.665
15510TIP3    H146407   4.075   5.753   5.644
15510TIP3    H246408   3.934   5.762   5.580
15511TIP3   OH246409   4.765   5.759   6.167
15511TIP3    H146410   4.735   5.774   6.260
15511TIP3    H246411   4.691   5.703   6.135
15512TIP3   OH246412   3.819   5.776   5.444
15512TIP3    H146413   3.747   5.729   5.398
15512TIP3    H246414   3.870   5.809   5.367
15513TIP3   OH246415   4.936   7.452   6.388
15513TIP3    H146416   4.934   7.475   6.293
15513TIP3    H246417   5.015   7.501   6.419
15514TIP3   OH246418   3.894   6.563   6.811
15514TIP3    H146419   3.975   6.592   6.859
15514TIP3    H246420   3.829   6.561   6.884
15515TIP3   OH246421   4.361   6.020   6.068
15515TIP3    H146422   4.424   5.971   6.013
15515TIP3    H246423   4.366   5.972   6.152
15516TIP3   OH246424   3.883   5.500   5.942
15516TIP3    H146425   3.852   5.421   5.990
15516TIP3    H246426   3.954   5.464   5.888
15517TIP3   OH246427   4.336   5.912   6.354
15517TIP3    H146428   4.246   5.946   6.368
15517TIP3    H246429   4.392   5.972   6.406
15518TIP3   OH246430   4.070   6.305   5.449
15518TIP3    H146431   3.999   6.237   5.439
15518TIP3    H246432   4.053   6.337   5.541
15519TIP3   OH246433   4.972   6.539   6.080
15519TIP3    H146434   4.995   6.588   5.998
15519TIP3    H246435   4.887   6.496   6.056
15520TIP3   OH246436   4.521   5.639   5.300
15520TIP3    H146437   4.430   5.604   5.312
15520TIP3    H246438   4.522   5.725   5.345
15521TIP3   OH246439   4.475   6.623   6.446
15521TIP3    H146440   4.493   6.595   6.536
15521TIP3    H246441   4.432   6.709   6.457
15522TIP3   OH246442   4.599   5.871   5.426
15522TIP3    H146443   4.696   5.867   5.433
15522TIP3    H246444   4.585   5.946   5.364
15523TIP3   OH246445   3.766   6.327   6.126
15523TIP3    H146446   3.801   6.297   6.039
15523TIP3    H246447   3.803   6.261   6.186
15524TIP3   OH246448   4.217   6.452   5.270
15524TIP3    H146449   4.169   6.539   5.277
15524TIP3    H246450   4.163   6.397   5.330
15525TIP3   OH246451   3.643   6.250   6.741
15525TIP3    H146452   3.670   6.232   6.833
15525TIP3    H246453   3.576   6.180   6.724
15526TIP3   OH246454   4.370   6.360   6.758
15526TIP3    H146455   4.312   6.300   6.708
15526TIP3    H246456   4.458   6.325   6.732
15527TIP3   OH246457   4.633   6.886   6.341
15527TIP3    H146458   4.537   6.878   6.354
15527TIP3    H246459   4.658   6.936   6.422
15528TIP3   OH246460   5.045   5.950   5.250
15528TIP3    H146461   4.983   5.902   5.191
15528TIP3    H246462   5.039   6.038   5.208
15529TIP3   OH246463   5.260   6.811   6.331
15529TIP3    H146464   5.162   6.804   6.324
15529TIP3    H246465   5.285   6.780   6.241
15530TIP3   OH246466   4.743   6.771   5.160
15530TIP3    H146467   4.716   6.701   5.221
15530TIP3    H246468   4.754   6.724   5.075
15531TIP3   OH246469   4.738   6.401   5.999
15531TIP3    H146470   4.645   6.374   6.012
15531TIP3    H246471   4.772   6.321   5.954
15532TIP3   OH246472   3.864   6.629   5.753
15532TIP3    H146473   3.865   6.709   5.697
15532TIP3    H246474   3.770   6.610   5.758
15533TIP3   OH246475   3.427   5.933   5.453
15533TIP3    H146476   3.474   6.016   5.475
15533TIP3    H246477   3.351   5.937   5.515
15534TIP3   OH246478   4.005   6.395   5.696
15534TIP3    H146479   3.969   6.484   5.715
15534TIP3    H246480   3.969   6.343   5.769
15535TIP3   OH246481   4.133   6.973   6.221
15535TIP3    H146482   4.175   7.044   6.169
15535TIP3    H246483   4.211   6.936   6.267
15536TIP3   OH246484   3.784   6.868   5.603
15536TIP3    H146485   3.698   6.875   5.649
15536TIP3    H246486   3.815   6.961   5.606
15537TIP3   OH246487   4.525   6.608   6.177
15537TIP3    H146488   4.515   6.604   6.275
15537TIP3    H246489   4.601   6.550   6.163
15538TIP3   OH246490   4.496   6.500   5.061
15538TIP3    H146491   4.549   6.475   5.140
15538TIP3    H246492   4.408   6.471   5.090
15539TIP3   OH246493   4.771   7.142   6.231
15539TIP3    H146494   4.694   7.083   6.224
15539TIP3    H246495   4.754   7.205   6.157
15540TIP3   OH246496   4.837   6.975   4.881
15540TIP3    H146497   4.875   7.047   4.828
15540TIP3    H246498   4.757   7.020   4.914
15541TIP3   OH246499   3.856   5.753   6.750
15541TIP3    H146500   3.760   5.744   6.760
15541TIP3    H246501   3.888   5.690   6.817
15542TIP3   OH246502   4.657   6.435   5.279
15542TIP3    H146503   4.645   6.368   5.349
15542TIP3    H246504   4.754   6.431   5.266
15543TIP3   OH246505   3.572   6.836   6.380
15543TIP3    H146506   3.623   6.758   6.407
15543TIP3    H246507   3.604   6.902   6.443
15544TIP3   OH246508   3.862   6.480   5.061
15544TIP3    H146509   3.877   6.389   5.031
15544TIP3    H246510   3.843   6.466   5.156
15545TIP3   OH246511   3.808   6.485   5.334
15545TIP3    H146512   3.880   6.455   5.390
15545TIP3    H246513   3.814   6.582   5.341
15546TIP3   OH246514   3.545   6.178   5.536
15546TIP3    H146515   3.479   6.222   5.593
15546TIP3    H246516   3.559   6.248   5.469
15547TIP3   OH246517   4.694   5.816   6.427
15547TIP3    H146518   4.773   5.852   6.469
15547TIP3    H246519   4.677   5.735   6.481
15548TIP3   OH246520   4.552   5.578   5.586
15548TIP3    H146521   4.557   5.590   5.489
15548TIP3    H246522   4.606   5.652   5.619
15549TIP3   OH246523   4.074   6.683   5.283
15549TIP3    H146524   3.988   6.710   5.318
15549TIP3    H246525   4.090   6.752   5.217
15550TIP3   OH246526   4.263   5.744   5.695
15550TIP3    H146527   4.329   5.814   5.677
15550TIP3    H246528   4.266   5.741   5.794
15551TIP3   OH246529   4.533   6.066   6.504
15551TIP3    H146530   4.553   6.117   6.585
15551TIP3    H246531   4.586   5.985   6.516
15552TIP3   OH246532   4.417   5.476   5.801
15552TIP3    H146533   4.399   5.555   5.854
15552TIP3    H246534   4.470   5.515   5.727
15553TIP3   OH246535   3.818   6.759   5.349
15553TIP3    H146536   3.787   6.828   5.286
15553TIP3    H246537   3.801   6.801   5.435
15554TIP3   OH246538   3.920   5.472   5.583
15554TIP3    H146539   3.915   5.559   5.627
15554TIP3    H246540   4.014   5.452   5.597
15555TIP3   OH246541   5.173   5.967   6.481
15555TIP3    H146542   5.075   5.965   6.491
15555TIP3    H246543   5.183   5.920   6.397
15556TIP3   OH246544   4.823   6.160   5.871
15556TIP3    H146545   4.747   6.100   5.883
15556TIP3    H246546   4.894   6.113   5.920
15557TIP3   OH246547   3.535   6.390   5.341
15557TIP3    H146548   3.604   6.458   5.351
15557TIP3    H246549   3.580   6.333   5.275
15558TIP3   OH246550   3.482   5.663   5.473
15558TIP3    H146551   3.476   5.761   5.469
15558TIP3    H246552   3.398   5.636   5.434
15559TIP3   OH246553   4.791   7.116   5.822
15559TIP3    H146554   4.748   7.162   5.747
15559TIP3    H246555   4.885   7.133   5.801
15560TIP3   OH246556   3.865   5.385   6.351
15560TIP3    H146557   3.841   5.347   6.263
15560TIP3    H246558   3.856   5.306   6.408
15561TIP3   OH246559   3.411   6.607   5.732
15561TIP3    H146560   3.334   6.634   5.784
15561TIP3    H246561   3.386   6.643   5.644
15562TIP3   OH246562   3.562   7.141   6.802
15562TIP3    H146563   3.649   7.137   6.846
15562TIP3    H246564   3.539   7.047   6.798
15563TIP3   OH246565   4.056   7.111   6.843
15563TIP3    H146566   4.145   7.074   6.849
15563TIP3    H246567   4.020   7.057   6.770
15564TIP3   OH246568   4.027   6.684   4.975
15564TIP3    H146569   3.970   6.612   5.012
15564TIP3    H246570   4.102   6.631   4.942
15565TIP3   OH246571   4.679   7.018   6.583
15565TIP3    H146572   4.672   6.944   6.648
15565TIP3    H246573   4.761   7.063   6.610
15566TIP3   OH246574   4.463   6.726   4.885
15566TIP3    H146575   4.506   6.660   4.944
15566TIP3    H246576   4.520   6.723   4.806
15567TIP3   OH246577   3.694   6.550   7.000
15567TIP3    H146578   3.707   6.454   7.010
15567TIP3    H246579   3.606   6.552   6.957
15568TIP3   OH246580   3.671   6.202   5.194
15568TIP3    H146581   3.724   6.165   5.266
15568TIP3    H246582   3.738   6.205   5.123
15569TIP3   OH246583   4.301   6.634   6.774
15569TIP3    H146584   4.260   6.647   6.687
15569TIP3    H246585   4.333   6.541   6.769
15570TIP3   OH246586   4.179   6.399   5.001
15570TIP3    H146587   4.182   6.411   5.098
15570TIP3    H246588   4.180   6.301   4.995
15571TIP3   OH246589   4.795   6.642   6.382
15571TIP3    H146590   4.869   6.688   6.336
15571TIP3    H246591   4.722   6.704   6.366
15572TIP3   OH246592   3.807   6.272   6.984
15572TIP3    H146593   3.888   6.225   6.961
15572TIP3    H246594   3.833   6.310   7.071
15573TIP3   OH246595   3.881   6.103   5.417
15573TIP3    H146596   3.853   6.060   5.500
15573TIP3    H246597   3.916   6.028   5.366
15574TIP3   OH246598   4.146   6.167   6.645
15574TIP3    H146599   4.070   6.229   6.647
15574TIP3    H246600   4.196   6.201   6.567
15575TIP3   OH246601   3.979   5.898   5.257
15575TIP3    H146602   3.953   5.900   5.162
15575TIP3    H246603   4.077   5.903   5.250
15576TIP3   OH246604   4.667   6.572   6.780
15576TIP3    H146605   4.745   6.545   6.730
15576TIP3    H246606   4.662   6.503   6.849
15577TIP3   OH246607   4.802   6.230   4.919
15577TIP3    H146608   4.781   6.182   4.836
15577TIP3    H246609   4.769   6.319   4.894
15578TIP3   OH246610   4.269   5.956   6.773
15578TIP3    H146611   4.272   5.875   6.717
15578TIP3    H246612   4.227   6.021   6.713
15579TIP3   OH246613   4.274   5.745   6.579
15579TIP3    H146614   4.302   5.782   6.493
15579TIP3    H246615   4.181   5.719   6.560
15580TIP3   OH246616   4.302   6.280   6.454
15580TIP3    H146617   4.384   6.282   6.402
15580TIP3    H246618   4.246   6.346   6.407
15581TIP3   OH246619   4.883   6.246   6.833
15581TIP3    H146620   4.929   6.161   6.848
15581TIP3    H246621   4.955   6.300   6.798
15582TIP3   OH246622   4.925   6.499   6.570
15582TIP3    H146623   4.867   6.552   6.510
15582TIP3    H246624   5.012   6.517   6.530
15583TIP3   OH246625   4.145   6.072   6.999
15583TIP3    H146626   4.078   6.001   7.014
15583TIP3    H246627   4.183   6.044   6.913
15584TIP3   OH246628   4.406   5.507   6.644
15584TIP3    H146629   4.357   5.589   6.621
15584TIP3    H246630   4.338   5.438   6.631
15585TIP3   OH246631   4.531   6.014   6.861
15585TIP3    H146632   4.523   5.998   6.957
15585TIP3    H246633   4.441   5.986   6.833
15586TIP3   OH246634   4.772   5.962   6.716
15586TIP3    H146635   4.697   5.960   6.778
15586TIP3    H246636   4.845   5.929   6.772
15587TIP3   OH246637   4.998   5.899   6.866
15587TIP3    H146638   5.013   5.804   6.885
15587TIP3    H246639   4.996   5.939   6.956
15588TIP3   OH246640   3.987   5.851   7.054
15588TIP3    H146641   3.994   5.760   7.018
15588TIP3    H246642   4.025   5.837   7.143
15589TIP3   OH246643   4.500   5.517   6.902
15589TIP3    H146644   4.568   5.447   6.897
15589TIP3    H246645   4.461   5.509   6.812
15590TIP3   OH246646   4.567   5.732   7.060
15590TIP3    H146647   4.545   5.660   6.997
15590TIP3    H246648   4.488   5.790   7.053
15591TIP3   OH246649   3.787   6.962   5.162
15591TIP3    H146650   3.882   6.957   5.142
15591TIP3    H246651   3.756   7.009   5.082
15592TIP3   OH246652   3.267   6.342   5.378
15592TIP3    H146653   3.361   6.363   5.364
15592TIP3    H246654   3.261   6.253   5.337
15593TIP3   OH246655   3.179   6.955   5.792
15593TIP3    H146656   3.113   6.891   5.756
15593TIP3    H246657   3.225   6.898   5.858
15594TIP3   OH246658   3.315   6.808   5.979
15594TIP3    H146659   3.306   6.732   6.038
15594TIP3    H246660   3.368   6.868   6.036
15595TIP3   OH246661   5.044   7.205   5.778
15595TIP3    H146662   5.070   7.239   5.865
15595TIP3    H246663   5.105   7.252   5.719
15596TIP3   OH246664   5.075   7.226   6.060
15596TIP3    H146665   5.030   7.139   6.054
15596TIP3    H246666   5.147   7.203   6.120
15597TIP3   OH246667   5.119   6.904   6.631
15597TIP3    H146668   5.047   6.911   6.697
15597TIP3    H246669   5.161   6.992   6.638
15598TIP3   OH246670   4.936   6.416   5.253
15598TIP3    H146671   5.006   6.479   5.225
15598TIP3    H246672   4.978   6.376   5.333
15599TIP3   OH246673   5.063   6.285   5.458
15599TIP3    H146674   4.997   6.240   5.515
15599TIP3    H246675   5.127   6.322   5.522
15600TIP3   OH246676   5.118   6.675   5.890
15600TIP3    H146677   5.171   6.609   5.841
15600TIP3    H246678   5.108   6.747   5.824
15601TIP3   OH246679   4.950   6.977   6.083
15601TIP3    H146680   4.878   7.016   6.136
15601TIP3    H246681   4.901   6.928   6.014
15602TIP3   OH246682   5.001   6.191   5.103
15602TIP3    H146683   4.930   6.195   5.035
15602TIP3    H246684   4.974   6.266   5.159
15603TIP3   OH246685   4.875   5.857   5.058
15603TIP3    H146686   4.833   5.902   4.983
15603TIP3    H246687   4.842   5.767   5.049
15604TIP3   OH246688   4.879   6.139   5.602
15604TIP3    H146689   4.884   6.042   5.594
15604TIP3    H246690   4.865   6.151   5.699
15605TIP3   OH246691   3.504   6.213   6.350
15605TIP3    H146692   3.503   6.182   6.257
15605TIP3    H246693   3.601   6.216   6.367
15606TIP3   OH246694   5.168   6.564   6.460
15606TIP3    H146695   5.239   6.497   6.452
15606TIP3    H246696   5.196   6.632   6.397
15607TIP3   OH246697   5.354   6.372   6.478
15607TIP3    H146698   5.279   6.320   6.516
15607TIP3    H246699   5.427   6.307   6.492
15608TIP3   OH246700   4.875   5.857   5.500
15608TIP3    H146701   4.913   5.768   5.516
15608TIP3    H246702   4.934   5.886   5.428
15609TIP3   OH246703   5.036   6.030   5.992
15609TIP3    H146704   5.122   6.056   5.952
15609TIP3    H246705   5.049   6.066   6.082
15610TIP3   OH246706   5.104   6.173   6.225
15610TIP3    H146707   5.026   6.207   6.274
15610TIP3    H246708   5.137   6.255   6.181
15611TIP3   OH246709   3.720   5.901   7.022
15611TIP3    H146710   3.818   5.896   7.024
15611TIP3    H246711   3.698   5.814   7.061
15612TIP3   OH246712   5.551   5.761   6.780
15612TIP3    H146713   5.613   5.697   6.740
15612TIP3    H246714   5.530   5.819   6.704
15613TIP3   OH246715   4.984   5.611   5.540
15613TIP3    H146716   5.031   5.587   5.622
15613TIP3    H246717   4.927   5.531   5.529
15614TIP3   OH246718   3.683   5.593   6.362
15614TIP3    H146719   3.743   5.515   6.366
15614TIP3    H246720   3.747   5.665   6.350
15615TIP3   OH246721   3.489   5.868   6.431
15615TIP3    H146722   3.534   5.852   6.346
15615TIP3    H246723   3.521   5.956   6.453
15616TIP3   OH246724   5.430   5.908   6.583
15616TIP3    H146725   5.342   5.944   6.609
15616TIP3    H246726   5.401   5.832   6.529
15617TIP3   OH246727   5.090   5.543   5.169
15617TIP3    H146728   5.119   5.473   5.107
15617TIP3    H246729   5.150   5.617   5.150
15618TIP3   OH246730   3.468   5.382   5.938
15618TIP3    H146731   3.373   5.366   5.954
15618TIP3    H246732   3.466   5.431   5.853
15619TIP3   OH246733   4.628   7.073   5.435
15619TIP3    H146734   4.679   7.057   5.352
15619TIP3    H246735   4.684   7.138   5.480
15620TIP3   OH246736   3.691   5.455   6.747
15620TIP3    H146737   3.636   5.445   6.827
15620TIP3    H246738   3.624   5.486   6.683
15621TIP3   OH246739   3.729   6.880   6.824
15621TIP3    H146740   3.639   6.849   6.803
15621TIP3    H246741   3.738   6.853   6.916
15622TIP3   OH246742   3.907   6.909   6.371
15622TIP3    H146743   3.859   6.984   6.330
15622TIP3    H246744   3.993   6.922   6.326
15623TIP3   OH246745   4.354   7.154   6.510
15623TIP3    H146746   4.399   7.155   6.597
15623TIP3    H246747   4.419   7.203   6.455
15624TIP3   OH246748   4.531   7.304   6.365
15624TIP3    H146749   4.601   7.253   6.321
15624TIP3    H246750   4.585   7.361   6.425
15625TIP3   OH246751   5.327   5.667   6.465
15625TIP3    H146752   5.235   5.658   6.434
15625TIP3    H246753   5.359   5.574   6.455
15626TIP3   OH246754   3.584   7.167   6.390
15626TIP3    H146755   3.496   7.202   6.366
15626TIP3    H246756   3.590   7.198   6.481
15627TIP3   OH246757   3.821   7.145   6.249
15627TIP3    H146758   3.734   7.158   6.294
15627TIP3    H246759   3.801   7.177   6.159
15628TIP3   OH246760   4.246   7.174   6.047
15628TIP3    H146761   4.177   7.193   5.981
15628TIP3    H246762   4.259   7.261   6.089
15629TIP3   OH246763   4.514   7.115   6.100
15629TIP3    H146764   4.420   7.130   6.079
15629TIP3    H246765   4.557   7.190   6.055
15630TIP3   OH246766   4.725   7.306   6.015
15630TIP3    H146767   4.709   7.390   5.966
15630TIP3    H246768   4.749   7.245   5.942
15631TIP3   OH246769   3.495   6.960   6.138
15631TIP3    H146770   3.523   6.933   6.229
15631TIP3    H246771   3.566   6.916   6.087
15632TIP3   OH246772   3.688   6.831   5.994
15632TIP3    H146773   3.704   6.747   6.042
15632TIP3    H246774   3.779   6.867   5.988
15633TIP3   OH246775   3.955   6.926   5.995
15633TIP3    H146776   3.986   6.835   5.982
15633TIP3    H246777   3.999   6.946   6.080
15634TIP3   OH246778   4.534   5.588   6.090
15634TIP3    H146779   4.484   5.521   6.140
15634TIP3    H246780   4.594   5.533   6.036
15635TIP3   OH246781   5.045   5.466   5.986
15635TIP3    H146782   5.105   5.506   5.918
15635TIP3    H246783   4.973   5.529   5.980
15636TIP3   OH246784   5.154   5.563   5.759
15636TIP3    H146785   5.224   5.512   5.712
15636TIP3    H246786   5.184   5.655   5.739
15637TIP3   OH246787   3.793   5.279   6.105
15637TIP3    H146788   3.702   5.242   6.104
15637TIP3    H246789   3.846   5.201   6.079
15638TIP3   OH246790   3.569   5.159   5.743
15638TIP3    H146791   3.593   5.222   5.673
15638TIP3    H246792   3.538   5.218   5.813
15639TIP3   OH246793   4.202   5.403   5.977
15639TIP3    H146794   4.288   5.394   5.933
15639TIP3    H246795   4.191   5.315   6.017
15640TIP3   OH246796   4.750   5.437   5.961
15640TIP3    H146797   4.777   5.457   5.870
15640TIP3    H246798   4.830   5.403   6.002
15641TIP3   OH246799   4.796   5.405   5.558
15641TIP3    H146800   4.722   5.424   5.499
15641TIP3    H246801   4.787   5.310   5.573
15642TIP3   OH246802   3.283   6.730   5.528
15642TIP3    H146803   3.199   6.696   5.494
15642TIP3    H246804   3.271   6.825   5.510
15643TIP3   OH246805   3.678   5.334   5.516
15643TIP3    H146806   3.725   5.271   5.458
15643TIP3    H246807   3.753   5.384   5.554
15644TIP3   OH246808   4.199   5.493   5.610
15644TIP3    H146809   4.246   5.446   5.681
15644TIP3    H246810   4.222   5.585   5.634
15645TIP3   OH246811   4.055   6.922   5.109
15645TIP3    H146812   4.144   6.942   5.074
15645TIP3    H246813   4.033   6.846   5.050
15646TIP3   OH246814   4.774   7.038   5.203
15646TIP3    H146815   4.766   6.940   5.191
15646TIP3    H246816   4.729   7.070   5.122
15647TIP3   OH246817   3.986   5.573   6.994
15647TIP3    H146818   3.955   5.499   7.049
15647TIP3    H246819   4.082   5.573   7.018
15648TIP3   OH246820   4.237   5.569   7.110
15648TIP3    H146821   4.321   5.543   7.071
15648TIP3    H246822   4.225   5.499   7.178
15649TIP3   OH246823   3.361   6.760   5.167
15649TIP3    H146824   3.360   6.781   5.262
15649TIP3    H246825   3.448   6.716   5.156
15650TIP3   OH246826   5.061   5.630   6.899
15650TIP3    H146827   5.080   5.597   6.990
15650TIP3    H246828   5.150   5.625   6.858
15651TIP3   OH246829   5.001   7.184   6.391
15651TIP3    H146830   4.922   7.151   6.342
15651TIP3    H246831   4.980   7.279   6.394
15652TIP3   OH246832   6.264   6.554   5.159
15652TIP3    H146833   6.237   6.646   5.137
15652TIP3    H246834   6.190   6.504   5.122
15653TIP3   OH246835   6.207   6.564   5.560
15653TIP3    H146836   6.285   6.547   5.616
15653TIP3    H246837   6.213   6.490   5.498
15654TIP3   OH246838   5.564   6.449   5.902
15654TIP3    H146839   5.592   6.381   5.967
15654TIP3    H246840   5.644   6.502   5.896
15655TIP3   OH246841   6.508   6.860   5.223
15655TIP3    H146842   6.510   6.780   5.278
15655TIP3    H246843   6.547   6.925   5.283
15656TIP3   OH246844   5.537   6.861   5.627
15656TIP3    H146845   5.524   6.763   5.629
15656TIP3    H246846   5.633   6.865   5.628
15657TIP3   OH246847   5.244   6.067   5.414
15657TIP3    H146848   5.190   6.147   5.426
15657TIP3    H246849   5.177   6.006   5.379
15658TIP3   OH246850   5.305   6.352   5.585
15658TIP3    H146851   5.351   6.273   5.622
15658TIP3    H246852   5.358   6.369   5.506
15659TIP3   OH246853   6.157   7.321   5.234
15659TIP3    H146854   6.202   7.247   5.187
15659TIP3    H246855   6.153   7.287   5.324
15660TIP3   OH246856   6.080   6.803   5.616
15660TIP3    H146857   6.085   6.712   5.576
15660TIP3    H246858   6.175   6.824   5.599
15661TIP3   OH246859   7.079   6.100   5.585
15661TIP3    H146860   7.107   6.185   5.625
15661TIP3    H246861   7.094   6.119   5.491
15662TIP3   OH246862   6.475   6.285   5.621
15662TIP3    H146863   6.520   6.201   5.642
15662TIP3    H246864   6.443   6.266   5.530
15663TIP3   OH246865   5.812   5.942   5.584
15663TIP3    H146866   5.793   6.014   5.521
15663TIP3    H246867   5.766   5.868   5.540
15664TIP3   OH246868   6.507   6.033   5.207
15664TIP3    H146869   6.579   6.016   5.272
15664TIP3    H246870   6.559   6.069   5.134
15665TIP3   OH246871   5.448   6.144   5.690
15665TIP3    H146872   5.531   6.122   5.738
15665TIP3    H246873   5.459   6.087   5.611
15666TIP3   OH246874   5.889   6.341   5.488
15666TIP3    H146875   5.983   6.315   5.498
15666TIP3    H246876   5.850   6.258   5.453
15667TIP3   OH246877   7.152   6.311   5.753
15667TIP3    H146878   7.068   6.358   5.731
15667TIP3    H246879   7.158   6.330   5.847
15668TIP3   OH246880   5.812   5.925   6.017
15668TIP3    H146881   5.750   5.960   5.951
15668TIP3    H246882   5.760   5.941   6.099
15669TIP3   OH246883   6.158   6.777   5.028
15669TIP3    H146884   6.116   6.753   4.944
15669TIP3    H246885   6.112   6.860   5.049
15670TIP3   OH246886   5.930   6.712   5.819
15670TIP3    H146887   5.849   6.758   5.853
15670TIP3    H246888   5.928   6.738   5.725
15671TIP3   OH246889   6.719   6.034   5.378
15671TIP3    H146890   6.713   5.985   5.461
15671TIP3    H246891   6.770   6.113   5.404
15672TIP3   OH246892   5.681   6.041   5.803
15672TIP3    H146893   5.746   6.111   5.826
15672TIP3    H246894   5.729   5.998   5.727
15673TIP3   OH246895   5.734   6.885   5.898
15673TIP3    H146896   5.708   6.974   5.867
15673TIP3    H246897   5.660   6.868   5.961
15674TIP3   OH246898   5.141   6.583   5.146
15674TIP3    H146899   5.099   6.609   5.063
15674TIP3    H246900   5.171   6.669   5.182
15675TIP3   OH246901   6.575   7.110   5.390
15675TIP3    H146902   6.483   7.090   5.417
15675TIP3    H246903   6.564   7.197   5.346
15676TIP3   OH246904   6.870   6.003   5.751
15676TIP3    H146905   6.782   6.029   5.719
15676TIP3    H246906   6.928   6.033   5.678
15677TIP3   OH246907   6.168   5.644   5.731
15677TIP3    H146908   6.156   5.549   5.749
15677TIP3    H246909   6.091   5.681   5.778
15678TIP3   OH246910   6.280   7.147   5.060
15678TIP3    H146911   6.330   7.064   5.042
15678TIP3    H246912   6.341   7.211   5.018
15679TIP3   OH246913   6.424   6.932   4.970
15679TIP3    H146914   6.389   6.852   4.928
15679TIP3    H246915   6.458   6.898   5.055
15680TIP3   OH246916   6.814   7.003   5.712
15680TIP3    H146917   6.768   6.930   5.664
15680TIP3    H246918   6.796   7.078   5.654
15681TIP3   OH246919   6.097   6.408   4.986
15681TIP3    H146920   6.017   6.458   4.960
15681TIP3    H246921   6.145   6.402   4.901
15682TIP3   OH246922   6.055   6.191   4.706
15682TIP3    H146923   6.124   6.240   4.753
15682TIP3    H246924   6.112   6.127   4.657
15683TIP3   OH246925   6.981   6.662   5.573
15683TIP3    H146926   6.892   6.701   5.567
15683TIP3    H246927   7.017   6.681   5.483
15684TIP3   OH246928   6.444   6.491   4.960
15684TIP3    H146929   6.391   6.512   5.040
15684TIP3    H246930   6.528   6.462   5.000
15685TIP3   OH246931   6.681   6.527   5.868
15685TIP3    H146932   6.678   6.612   5.915
15685TIP3    H246933   6.614   6.544   5.800
15686TIP3   OH246934   5.678   6.488   5.376
15686TIP3    H146935   5.635   6.430   5.310
15686TIP3    H246936   5.754   6.432   5.405
15687TIP3   OH246937   5.813   6.898   5.525
15687TIP3    H146938   5.775   6.867   5.441
15687TIP3    H246939   5.904   6.864   5.521
15688TIP3   OH246940   5.815   6.457   5.732
15688TIP3    H146941   5.845   6.428   5.643
15688TIP3    H246942   5.867   6.537   5.748
15689TIP3   OH246943   6.324   7.095   5.506
15689TIP3    H146944   6.330   7.179   5.554
15689TIP3    H246945   6.339   7.028   5.575
15690TIP3   OH246946   5.955   7.005   6.013
15690TIP3    H146947   5.925   7.076   6.073
15690TIP3    H246948   5.870   6.959   5.996
15691TIP3   OH246949   6.285   6.348   4.786
15691TIP3    H146950   6.344   6.406   4.838
15691TIP3    H246951   6.312   6.372   4.694
15692TIP3   OH246952   5.705   6.578   6.149
15692TIP3    H146953   5.707   6.660   6.202
15692TIP3    H246954   5.611   6.552   6.162
15693TIP3   OH246955   6.025   7.030   5.065
15693TIP3    H146956   6.107   7.081   5.078
15693TIP3    H246957   5.967   7.092   5.020
15694TIP3   OH246958   5.746   7.182   6.141
15694TIP3    H146959   5.705   7.173   6.053
15694TIP3    H246960   5.670   7.161   6.200
15695TIP3   OH246961   6.803   5.586   4.845
15695TIP3    H146962   6.716   5.611   4.882
15695TIP3    H246963   6.812   5.651   4.773
15696TIP3   OH246964   5.542   6.332   5.184
15696TIP3    H146965   5.476   6.373   5.125
15696TIP3    H246966   5.506   6.243   5.195
15697TIP3   OH246967   6.600   6.955   4.383
15697TIP3    H146968   6.609   7.052   4.367
15697TIP3    H246969   6.692   6.924   4.369
15698TIP3   OH246970   5.326   6.714   6.087
15698TIP3    H146971   5.259   6.690   6.019
15698TIP3    H246972   5.362   6.627   6.113
15699TIP3   OH246973   5.177   6.907   5.719
15699TIP3    H146974   5.273   6.901   5.712
15699TIP3    H246975   5.165   6.986   5.774
15700TIP3   OH246976   7.043   7.357   5.773
15700TIP3    H146977   7.043   7.260   5.785
15700TIP3    H246978   6.961   7.381   5.821
15701TIP3   OH246979   5.909   7.273   4.862
15701TIP3    H146980   5.863   7.252   4.779
15701TIP3    H246981   5.876   7.362   4.884
15702TIP3   OH246982   5.347   7.123   5.245
15702TIP3    H146983   5.392   7.112   5.332
15702TIP3    H246984   5.291   7.043   5.245
15703TIP3   OH246985   6.112   7.175   4.503
15703TIP3    H146986   6.170   7.104   4.467
15703TIP3    H246987   6.145   7.182   4.595
15704TIP3   OH246988   6.162   7.223   4.773
15704TIP3    H146989   6.073   7.232   4.815
15704TIP3    H246990   6.211   7.179   4.844
15705TIP3   OH246991   6.933   6.490   6.049
15705TIP3    H146992   6.852   6.502   5.998
15705TIP3    H246993   6.948   6.394   6.038
15706TIP3   OH246994   5.531   6.896   6.077
15706TIP3    H146995   5.580   6.879   6.160
15706TIP3    H246996   5.457   6.831   6.084
15707TIP3   OH246997   5.929   5.720   5.859
15707TIP3    H146998   5.839   5.689   5.834
15707TIP3    H246999   5.904   5.802   5.906
15708TIP3   OH247000   6.462   5.837   6.055
15708TIP3    H147001   6.530   5.807   6.119
15708TIP3    H247002   6.378   5.815   6.100
15709TIP3   OH247003   6.704   6.265   5.975
15709TIP3    H147004   6.653   6.262   6.059
15709TIP3    H247005   6.678   6.351   5.937
15710TIP3   OH247006   6.362   6.398   4.531
15710TIP3    H147007   6.327   6.369   4.444
15710TIP3    H247008   6.444   6.443   4.504
15711TIP3   OH247009   6.069   5.776   4.830
15711TIP3    H147010   6.042   5.776   4.924
15711TIP3    H247011   6.054   5.683   4.808
15712TIP3   OH247012   5.860   6.235   5.881
15712TIP3    H147013   5.809   6.255   5.962
15712TIP3    H247014   5.841   6.315   5.826
15713TIP3   OH247015   5.743   6.123   5.393
15713TIP3    H147016   5.651   6.094   5.411
15713TIP3    H247017   5.758   6.081   5.305
15714TIP3   OH247018   6.234   6.207   5.119
15714TIP3    H147019   6.182   6.278   5.076
15714TIP3    H247020   6.290   6.175   5.046
15715TIP3   OH247021   6.408   6.489   6.210
15715TIP3    H147022   6.387   6.414   6.270
15715TIP3    H247023   6.503   6.500   6.228
15716TIP3   OH247024   6.380   6.232   5.367
15716TIP3    H147025   6.329   6.263   5.290
15716TIP3    H247026   6.423   6.154   5.325
15717TIP3   OH247027   5.679   6.265   6.089
15717TIP3    H147028   5.708   6.323   6.160
15717TIP3    H247029   5.666   6.180   6.136
15718TIP3   OH247030   5.729   5.738   4.797
15718TIP3    H147031   5.723   5.739   4.894
15718TIP3    H247032   5.651   5.793   4.773
15719TIP3   OH247033   5.269   5.791   5.672
15719TIP3    H147034   5.351   5.816   5.719
15719TIP3    H247035   5.300   5.754   5.587
15720TIP3   OH247036   5.257   5.772   5.188
15720TIP3    H147037   5.298   5.813   5.109
15720TIP3    H247038   5.191   5.840   5.211
15721TIP3   OH247039   6.380   6.484   5.781
15721TIP3    H147040   6.424   6.419   5.722
15721TIP3    H247041   6.368   6.429   5.861
15722TIP3   OH247042   6.069   5.942   5.454
15722TIP3    H147043   5.989   5.941   5.509
15722TIP3    H247044   6.139   5.946   5.521
15723TIP3   OH247045   5.506   5.998   5.463
15723TIP3    H147046   5.411   6.005   5.436
15723TIP3    H247047   5.529   5.906   5.441
15724TIP3   OH247048   5.776   5.997   5.152
15724TIP3    H147049   5.870   6.010   5.133
15724TIP3    H247050   5.731   6.019   5.067
15725TIP3   OH247051   6.564   6.020   5.659
15725TIP3    H147052   6.527   6.031   5.749
15725TIP3    H247053   6.501   5.959   5.619
15726TIP3   OH247054   5.616   6.031   4.931
15726TIP3    H147055   5.543   5.986   4.885
15726TIP3    H247056   5.667   6.066   4.854
15727TIP3   OH247057   6.731   7.709   5.874
15727TIP3    H147058   6.732   7.731   5.779
15727TIP3    H247059   6.806   7.761   5.907
15728TIP3   OH247060   5.692   6.821   6.298
15728TIP3    H147061   5.771   6.849   6.348
15728TIP3    H247062   5.626   6.816   6.370
15729TIP3   OH247063   6.149   6.259   5.547
15729TIP3    H147064   6.228   6.232   5.496
15729TIP3    H247065   6.169   6.224   5.635
15730TIP3   OH247066   5.679   5.760   5.430
15730TIP3    H147067   5.643   5.681   5.476
15730TIP3    H247068   5.733   5.719   5.361
15731TIP3   OH247069   6.132   6.165   5.844
15731TIP3    H147070   6.043   6.202   5.857
15731TIP3    H247071   6.190   6.225   5.894
15732TIP3   OH247072   5.865   6.562   4.935
15732TIP3    H147073   5.795   6.494   4.926
15732TIP3    H247074   5.849   6.594   5.028
15733TIP3   OH247075   6.319   5.885   4.772
15733TIP3    H147076   6.228   5.858   4.793
15733TIP3    H247077   6.331   5.970   4.818
15734TIP3   OH247078   6.228   6.902   5.948
15734TIP3    H147079   6.267   6.824   5.994
15734TIP3    H247080   6.270   6.974   6.002
15735TIP3   OH247081   6.394   6.117   4.904
15735TIP3    H147082   6.491   6.119   4.920
15735TIP3    H247083   6.380   6.197   4.849
15736TIP3   OH247084   5.567   6.587   5.613
15736TIP3    H147085   5.599   6.553   5.527
15736TIP3    H247086   5.595   6.517   5.674
15737TIP3   OH247087   6.013   6.709   4.757
15737TIP3    H147088   5.966   6.796   4.764
15737TIP3    H247089   5.959   6.653   4.817
15738TIP3   OH247090   5.441   6.503   6.226
15738TIP3    H147091   5.462   6.488   6.320
15738TIP3    H247092   5.373   6.436   6.209
15739TIP3   OH247093   6.167   6.618   6.243
15739TIP3    H147094   6.108   6.554   6.199
15739TIP3    H247095   6.255   6.581   6.219
15740TIP3   OH247096   6.421   7.138   5.831
15740TIP3    H147097   6.338   7.187   5.833
15740TIP3    H247098   6.467   7.180   5.907
15741TIP3   OH247099   6.840   6.206   4.736
15741TIP3    H147100   6.778   6.158   4.676
15741TIP3    H247101   6.835   6.294   4.694
15742TIP3   OH247102   7.054   7.070   5.817
15742TIP3    H147103   6.957   7.058   5.805
15742TIP3    H247104   7.084   7.037   5.729
15743TIP3   OH247105   6.538   7.029   4.647
15743TIP3    H147106   6.513   6.958   4.709
15743TIP3    H247107   6.550   6.981   4.563
15744TIP3   OH247108   5.662   6.889   5.250
15744TIP3    H147109   5.663   6.966   5.189
15744TIP3    H247110   5.569   6.865   5.246
15745TIP3   OH247111   5.224   6.190   4.940
15745TIP3    H147112   5.270   6.273   4.962
15745TIP3    H247113   5.147   6.194   5.001
15746TIP3   OH247114   5.800   6.654   5.183
15746TIP3    H147115   5.765   6.742   5.205
15746TIP3    H247116   5.764   6.600   5.256
15747TIP3   OH247117   5.581   7.123   5.091
15747TIP3    H147118   5.495   7.131   5.136
15747TIP3    H247119   5.612   7.216   5.093
15748TIP3   OH247120   6.335   6.859   5.677
15748TIP3    H147121   6.372   6.838   5.763
15748TIP3    H247122   6.413   6.831   5.623
15749TIP3   OH247123   6.292   6.758   4.548
15749TIP3    H147124   6.346   6.732   4.627
15749TIP3    H247125   6.205   6.727   4.576
15750TIP3   OH247126   6.565   7.401   5.719
15750TIP3    H147127   6.485   7.347   5.703
15750TIP3    H247128   6.557   7.466   5.646
15751TIP3   OH247129   6.633   7.231   4.368
15751TIP3    H147130   6.672   7.304   4.318
15751TIP3    H247131   6.552   7.275   4.400
15752TIP3   OH247132   5.653   6.009   6.234
15752TIP3    H147133   5.557   6.011   6.249
15752TIP3    H247134   5.682   5.949   6.304
15753TIP3   OH247135   6.453   6.692   4.766
15753TIP3    H147136   6.441   6.624   4.836
15753TIP3    H247137   6.550   6.687   4.753
15754TIP3   OH247138   5.372   7.093   5.866
15754TIP3    H147139   5.418   7.014   5.899
15754TIP3    H247140   5.391   7.156   5.936
15755TIP3   OH247141   5.659   6.737   4.548
15755TIP3    H147142   5.673   6.646   4.517
15755TIP3    H247143   5.639   6.723   4.642
15756TIP3   OH247144   5.604   6.741   4.821
15756TIP3    H147145   5.678   6.712   4.876
15756TIP3    H247146   5.611   6.839   4.828
15757TIP3   OH247147   5.341   6.435   5.022
15757TIP3    H147148   5.275   6.479   5.079
15757TIP3    H247149   5.355   6.504   4.955
15758TIP3   OH247150   6.486   6.075   5.918
15758TIP3    H147151   6.570   6.109   5.954
15758TIP3    H247152   6.473   5.992   5.970
15759TIP3   OH247153   6.358   5.830   5.074
15759TIP3    H147154   6.359   5.851   4.980
15759TIP3    H247155   6.405   5.907   5.112
15760TIP3   OH247156   5.871   6.940   4.771
15760TIP3    H147157   5.784   6.968   4.805
15760TIP3    H247158   5.885   7.006   4.702
15761TIP3   OH247159   6.056   6.003   5.182
15761TIP3    H147160   6.124   6.072   5.164
15761TIP3    H247161   6.063   5.994   5.279
15762TIP3   OH247162   6.327   6.320   5.992
15762TIP3    H147163   6.350   6.371   6.072
15762TIP3    H247164   6.383   6.240   6.001
15763TIP3   OH247165   6.204   5.730   5.284
15763TIP3    H147166   6.200   5.806   5.346
15763TIP3    H247167   6.262   5.768   5.214
15764TIP3   OH247168   5.614   7.015   4.835
15764TIP3    H147169   5.583   7.084   4.772
15764TIP3    H247170   5.597   7.058   4.922
15765TIP3   OH247171   5.717   5.728   5.072
15765TIP3    H147172   5.712   5.817   5.112
15765TIP3    H247173   5.812   5.710   5.084
15766TIP3   OH247174   6.971   6.222   5.968
15766TIP3    H147175   6.873   6.221   5.979
15766TIP3    H247176   6.977   6.178   5.882
15767TIP3   OH247177   6.627   6.394   5.337
15767TIP3    H147178   6.545   6.365   5.378
15767TIP3    H247179   6.695   6.364   5.401
15768TIP3   OH247180   5.332   6.646   4.828
15768TIP3    H147181   5.399   6.715   4.837
15768TIP3    H247182   5.376   6.589   4.761
15769TIP3   OH247183   5.279   5.921   4.960
15769TIP3    H147184   5.274   6.019   4.956
15769TIP3    H247185   5.195   5.895   4.921
15770TIP3   OH247186   6.584   7.377   5.309
15770TIP3    H147187   6.544   7.424   5.232
15770TIP3    H247188   6.679   7.393   5.289
15771TIP3   OH247189   5.663   5.640   5.837
15771TIP3    H147190   5.633   5.606   5.750
15771TIP3    H247191   5.653   5.562   5.894
15772TIP3   OH247192   5.207   6.864   5.218
15772TIP3    H147193   5.131   6.890   5.272
15772TIP3    H247194   5.180   6.900   5.131
15773TIP3   OH247195   5.359   7.399   6.288
15773TIP3    H147196   5.445   7.398   6.334
15773TIP3    H247197   5.338   7.304   6.286
15774TIP3   OH247198   5.843   7.368   6.330
15774TIP3    H147199   5.936   7.345   6.341
15774TIP3    H247200   5.818   7.308   6.256
15775TIP3   OH247201   5.824   6.940   4.463
15775TIP3    H147202   5.767   6.868   4.499
15775TIP3    H247203   5.898   6.887   4.428
15776TIP3   OH247204   6.485   7.267   6.063
15776TIP3    H147205   6.475   7.200   6.134
15776TIP3    H247206   6.560   7.320   6.095
15777TIP3   OH247207   6.260   6.983   4.373
15777TIP3    H147208   6.301   6.916   4.431
15777TIP3    H247209   6.316   6.979   4.293
15778TIP3   OH247210   5.490   6.807   6.487
15778TIP3    H147211   5.508   6.711   6.495
15778TIP3    H247212   5.402   6.807   6.443
15779TIP3   OH247213   5.467   6.459   4.681
15779TIP3    H147214   5.521   6.422   4.753
15779TIP3    H247215   5.534   6.462   4.609
15780TIP3   OH247216   6.096   6.890   6.257
15780TIP3    H147217   6.061   6.894   6.166
15780TIP3    H247218   6.132   6.799   6.261
15781TIP3   OH247219   5.975   6.656   4.488
15781TIP3    H147220   5.979   6.667   4.585
15781TIP3    H247221   5.977   6.557   4.482
15782TIP3   OH247222   6.584   6.916   5.894
15782TIP3    H147223   6.645   6.901   5.820
15782TIP3    H247224   6.529   6.988   5.857
15783TIP3   OH247225   5.612   6.541   6.467
15783TIP3    H147226   5.682   6.476   6.452
15783TIP3    H247227   5.635   6.573   6.557
15784TIP3   OH247228   5.678   6.360   4.905
15784TIP3    H147229   5.650   6.316   4.987
15784TIP3    H247230   5.713   6.284   4.853
15785TIP3   OH247231   5.944   6.426   6.131
15785TIP3    H147232   5.867   6.486   6.134
15785TIP3    H247233   5.995   6.460   6.054
15786TIP3   OH247234   5.775   6.154   4.744
15786TIP3    H147235   5.750   6.157   4.649
15786TIP3    H247236   5.873   6.159   4.736
15787TIP3   OH247237   6.462   6.827   6.262
15787TIP3    H147238   6.544   6.803   6.218
15787TIP3    H247239   6.458   6.760   6.334
15788TIP3   OH247240   6.598   6.487   4.406
15788TIP3    H147241   6.578   6.439   4.323
15788TIP3    H247242   6.565   6.576   4.380
15789TIP3   OH247243   6.067   6.212   6.259
15789TIP3    H147244   6.068   6.131   6.204
15789TIP3    H247245   6.023   6.277   6.200
15790TIP3   OH247246   6.070   6.000   6.067
15790TIP3    H147247   6.098   6.039   5.982
15790TIP3    H247248   5.976   5.976   6.047
15791TIP3   OH247249   6.108   6.542   5.941
15791TIP3    H147250   6.182   6.523   5.882
15791TIP3    H247251   6.049   6.599   5.888
15792TIP3   OH247252   6.679   6.503   6.320
15792TIP3    H147253   6.726   6.419   6.331
15792TIP3    H247254   6.749   6.559   6.282
15793TIP3   OH247255   6.723   6.754   6.060
15793TIP3    H147256   6.666   6.814   6.007
15793TIP3    H247257   6.810   6.772   6.018
15794TIP3   OH247258   5.942   6.328   6.484
15794TIP3    H147259   5.875   6.259   6.502
15794TIP3    H247260   5.979   6.298   6.400
15795TIP3   OH247261   6.203   5.763   6.130
15795TIP3    H147262   6.153   5.845   6.109
15795TIP3    H247263   6.133   5.695   6.120
15796TIP3   OH247264   6.327   6.270   6.348
15796TIP3    H147265   6.317   6.255   6.444
15796TIP3    H247266   6.238   6.243   6.319
15797TIP3   OH247267   6.568   6.220   6.205
15797TIP3    H147268   6.492   6.218   6.266
15797TIP3    H247269   6.641   6.186   6.261
15798TIP3   OH247270   6.801   6.158   6.354
15798TIP3    H147271   6.810   6.062   6.373
15798TIP3    H247272   6.794   6.197   6.443
15799TIP3   OH247273   5.786   6.107   6.539
15799TIP3    H147274   5.791   6.015   6.506
15799TIP3    H247275   5.822   6.094   6.630
15800TIP3   OH247276   6.298   5.774   6.387
15800TIP3    H147277   6.364   5.702   6.383
15800TIP3    H247278   6.258   5.766   6.299
15801TIP3   OH247279   6.364   5.990   6.545
15801TIP3    H147280   6.341   5.917   6.483
15801TIP3    H247281   6.285   6.047   6.541
15802TIP3   OH247282   5.583   7.220   4.649
15802TIP3    H147283   5.678   7.214   4.629
15802TIP3    H247284   5.552   7.265   4.569
15803TIP3   OH247285   5.063   6.598   4.865
15803TIP3    H147286   5.158   6.620   4.851
15803TIP3    H247287   5.057   6.509   4.824
15804TIP3   OH247288   4.977   7.211   5.278
15804TIP3    H147289   4.910   7.149   5.242
15804TIP3    H247290   5.021   7.154   5.344
15805TIP3   OH247291   5.112   7.065   5.466
15805TIP3    H147292   5.101   6.989   5.525
15805TIP3    H247293   5.162   7.125   5.524
15806TIP3   OH247294   6.835   7.472   5.264
15806TIP3    H147295   6.868   7.496   5.352
15806TIP3    H247296   6.907   7.503   5.206
15807TIP3   OH247297   6.871   7.483   5.547
15807TIP3    H147298   6.826   7.396   5.541
15807TIP3    H247299   6.945   7.458   5.604
15808TIP3   OH247300   6.917   7.161   6.121
15808TIP3    H147301   6.844   7.169   6.184
15808TIP3    H247302   6.955   7.251   6.120
15809TIP3   OH247303   6.732   6.673   4.740
15809TIP3    H147304   6.802   6.735   4.712
15809TIP3    H247305   6.773   6.633   4.820
15810TIP3   OH247306   6.861   6.544   4.942
15810TIP3    H147307   6.795   6.496   4.998
15810TIP3    H247308   6.923   6.579   5.009
15811TIP3   OH247309   6.946   6.951   5.381
15811TIP3    H147310   6.967   6.866   5.338
15811TIP3    H247311   6.885   6.993   5.319
15812TIP3   OH247312   6.748   7.235   5.568
15812TIP3    H147313   6.676   7.268   5.624
15812TIP3    H247314   6.699   7.182   5.501
15813TIP3   OH247315   6.798   6.448   4.590
15813TIP3    H147316   6.726   6.452   4.522
15813TIP3    H247317   6.770   6.523   4.646
15814TIP3   OH247318   6.672   6.107   4.542
15814TIP3    H147319   6.629   6.155   4.470
15814TIP3    H247320   6.637   6.018   4.530
15815TIP3   OH247321   6.676   6.392   5.075
15815TIP3    H147322   6.682   6.295   5.070
15815TIP3    H247323   6.663   6.404   5.173
15816TIP3   OH247324   5.300   6.472   5.835
15816TIP3    H147325   5.299   6.439   5.743
15816TIP3    H247326   5.397   6.471   5.853
15817TIP3   OH247327   6.964   6.821   5.949
15817TIP3    H147328   7.036   6.755   5.937
15817TIP3    H247329   6.984   6.886   5.879
15818TIP3   OH247330   7.150   6.627   5.965
15818TIP3    H147331   7.074   6.578   6.002
15818TIP3    H247332   7.222   6.562   5.979
15819TIP3   OH247333   6.668   6.112   4.983
15819TIP3    H147334   6.707   6.022   5.002
15819TIP3    H247335   6.730   6.141   4.915
15820TIP3   OH247336   6.835   6.284   5.486
15820TIP3    H147337   6.920   6.312   5.444
15820TIP3    H247338   6.847   6.326   5.573
15821TIP3   OH247339   6.903   6.435   5.713
15821TIP3    H147340   6.822   6.464   5.760
15821TIP3    H247341   6.928   6.517   5.666
15822TIP3   OH247342   5.520   6.160   6.513
15822TIP3    H147343   5.617   6.151   6.515
15822TIP3    H247344   5.494   6.074   6.552
15823TIP3   OH247345   7.357   6.024   6.269
15823TIP3    H147346   7.412   5.956   6.225
15823TIP3    H247347   7.325   6.076   6.192
15824TIP3   OH247348   6.775   5.865   5.028
15824TIP3    H147349   6.825   5.846   5.109
15824TIP3    H247350   6.720   5.784   5.020
15825TIP3   OH247351   5.480   5.849   5.845
15825TIP3    H147352   5.541   5.773   5.853
15825TIP3    H247353   5.543   5.922   5.837
15826TIP3   OH247354   5.281   6.123   5.915
15826TIP3    H147355   5.330   6.112   5.831
15826TIP3    H247356   5.317   6.207   5.946
15827TIP3   OH247357   7.224   6.161   6.075
15827TIP3    H147358   7.137   6.201   6.095
15827TIP3    H247359   7.196   6.089   6.015
15828TIP3   OH247360   6.891   5.779   4.664
15828TIP3    H147361   6.842   5.735   4.593
15828TIP3    H247362   6.930   5.857   4.622
15829TIP3   OH247363   5.263   5.641   5.427
15829TIP3    H147364   5.169   5.621   5.438
15829TIP3    H247365   5.264   5.687   5.341
15830TIP3   OH247366   6.423   7.330   4.921
15830TIP3    H147367   6.476   7.313   4.840
15830TIP3    H247368   6.481   7.392   4.970
15831TIP3   OH247369   5.486   5.709   6.231
15831TIP3    H147370   5.436   5.700   6.314
15831TIP3    H247371   5.418   5.744   6.171
15832TIP3   OH247372   5.525   7.135   6.308
15832TIP3    H147373   5.434   7.105   6.292
15832TIP3    H247374   5.538   7.111   6.401
15833TIP3   OH247375   5.698   7.159   5.853
15833TIP3    H147376   5.638   7.226   5.815
15833TIP3    H247377   5.783   7.201   5.838
15834TIP3   OH247378   6.143   7.419   5.992
15834TIP3    H147379   6.187   7.405   6.078
15834TIP3    H247380   6.215   7.461   5.940
15835TIP3   OH247381   6.332   7.560   5.850
15835TIP3    H147382   6.406   7.512   5.810
15835TIP3    H247383   6.379   7.618   5.913
15836TIP3   OH247384   7.122   5.924   5.952
15836TIP3    H147385   7.031   5.919   5.918
15836TIP3    H247386   7.152   5.831   5.940
15837TIP3   OH247387   5.384   7.425   5.877
15837TIP3    H147388   5.294   7.457   5.853
15837TIP3    H247389   5.389   7.457   5.968
15838TIP3   OH247390   5.618   7.396   5.732
15838TIP3    H147391   5.533   7.412   5.780
15838TIP3    H247392   5.597   7.434   5.645
15839TIP3   OH247393   6.057   7.440   5.516
15839TIP3    H147394   5.977   7.455   5.463
15839TIP3    H247395   6.060   7.520   5.571
15840TIP3   OH247396   6.315   7.365   5.588
15840TIP3    H147397   6.221   7.382   5.565
15840TIP3    H247398   6.357   7.442   5.547
15841TIP3   OH247399   6.520   7.563   5.503
15841TIP3    H147400   6.505   7.646   5.454
15841TIP3    H247401   6.545   7.502   5.430
15842TIP3   OH247402   5.292   7.218   5.625
15842TIP3    H147403   5.319   7.191   5.716
15842TIP3    H247404   5.361   7.172   5.573
15843TIP3   OH247405   5.480   7.087   5.480
15843TIP3    H147406   5.498   7.003   5.528
15843TIP3    H247407   5.571   7.121   5.467
15844TIP3   OH247408   5.744   7.185   5.468
15844TIP3    H147409   5.784   7.097   5.458
15844TIP3    H247410   5.769   7.210   5.557
15845TIP3   OH247411   6.326   5.838   5.569
15845TIP3    H147412   6.284   5.769   5.622
15845TIP3    H247413   6.400   5.790   5.526
15846TIP3   OH247414   6.851   5.724   5.480
15846TIP3    H147415   6.888   5.772   5.403
15846TIP3    H247416   6.756   5.737   5.469
15847TIP3   OH247417   6.947   5.820   5.242
15847TIP3    H147418   7.020   5.770   5.199
15847TIP3    H247419   6.978   5.912   5.225
15848TIP3   OH247420   5.576   5.548   5.588
15848TIP3    H147421   5.484   5.516   5.587
15848TIP3    H247422   5.625   5.463   5.584
15849TIP3   OH247423   5.379   5.414   5.235
15849TIP3    H147424   5.389   5.476   5.161
15849TIP3    H247425   5.328   5.468   5.298
15850TIP3   OH247426   6.017   5.582   5.467
15850TIP3    H147427   6.078   5.631   5.408
15850TIP3    H247428   6.041   5.617   5.554
15851TIP3   OH247429   6.567   5.726   5.451
15851TIP3    H147430   6.567   5.690   5.362
15851TIP3    H247431   6.553   5.645   5.505
15852TIP3   OH247432   6.596   5.650   5.021
15852TIP3    H147433   6.505   5.681   5.014
15852TIP3    H247434   6.585   5.568   5.074
15853TIP3   OH247435   5.080   6.987   5.015
15853TIP3    H147436   4.995   6.952   4.981
15853TIP3    H247437   5.067   7.081   4.997
15854TIP3   OH247438   5.477   5.586   4.995
15854TIP3    H147439   5.529   5.519   4.949
15854TIP3    H247440   5.547   5.639   5.038
15855TIP3   OH247441   5.994   5.751   5.097
15855TIP3    H147442   6.054   5.705   5.158
15855TIP3    H247443   6.015   5.844   5.123
15856TIP3   OH247444   5.851   7.179   4.595
15856TIP3    H147445   5.940   7.199   4.560
15856TIP3    H247446   5.829   7.103   4.537
15857TIP3   OH247447   6.571   7.295   4.689
15857TIP3    H147448   6.564   7.197   4.679
15857TIP3    H247449   6.526   7.325   4.608
15858TIP3   OH247450   5.784   5.830   6.479
15858TIP3    H147451   5.749   5.759   6.535
15858TIP3    H247452   5.878   5.829   6.506
15859TIP3   OH247453   6.033   5.825   6.597
15859TIP3    H147454   6.118   5.796   6.560
15859TIP3    H247455   6.019   5.757   6.666
15860TIP3   OH247456   5.157   7.017   4.654
15860TIP3    H147457   5.155   7.037   4.748
15860TIP3    H247458   5.245   6.973   4.643
15861TIP3   OH247459   6.857   5.886   6.385
15861TIP3    H147460   6.876   5.855   6.477
15861TIP3    H247461   6.946   5.880   6.344
15862TIP3   OH247462   6.798   7.441   5.876
15862TIP3    H147463   6.719   7.407   5.829
15862TIP3    H247464   6.776   7.536   5.880
15863TIP3   OH247465   8.063   6.811   4.644
15863TIP3    H147466   8.035   6.903   4.624
15863TIP3    H247467   7.986   6.762   4.611
15864TIP3   OH247468   8.063   6.810   5.023
15864TIP3    H147469   8.093   6.782   5.111
15864TIP3    H247470   8.019   6.731   4.990
15865TIP3   OH247471   7.364   6.707   5.386
15865TIP3    H147472   7.392   6.639   5.449
15865TIP3    H247473   7.441   6.766   5.386
15866TIP3   OH247474   8.305   7.113   4.706
15866TIP3    H147475   8.290   7.043   4.771
15866TIP3    H247476   8.333   7.188   4.761
15867TIP3   OH247477   7.333   7.118   5.115
15867TIP3    H147478   7.323   7.020   5.118
15867TIP3    H247479   7.430   7.125   5.111
15868TIP3   OH247480   7.042   6.325   4.900
15868TIP3    H147481   6.987   6.405   4.913
15868TIP3    H247482   6.974   6.263   4.868
15869TIP3   OH247483   7.102   6.608   5.069
15869TIP3    H147484   7.147   6.530   5.108
15869TIP3    H247485   7.157   6.627   4.992
15870TIP3   OH247486   7.955   7.577   4.722
15870TIP3    H147487   8.000   7.506   4.673
15870TIP3    H247488   7.947   7.539   4.810
15871TIP3   OH247489   7.861   7.038   5.072
15871TIP3    H147490   7.897   6.961   5.025
15871TIP3    H247491   7.945   7.081   5.096
15872TIP3   OH247492   8.875   6.357   5.070
15872TIP3    H147493   8.902   6.440   5.115
15872TIP3    H247494   8.891   6.381   4.977
15873TIP3   OH247495   8.276   6.540   5.106
15873TIP3    H147496   8.314   6.453   5.126
15873TIP3    H247497   8.242   6.525   5.015
15874TIP3   OH247498   7.612   6.198   5.069
15874TIP3    H147499   7.588   6.270   5.007
15874TIP3    H247500   7.564   6.123   5.028
15875TIP3   OH247501   8.305   6.289   4.695
15875TIP3    H147502   8.378   6.273   4.759
15875TIP3    H247503   8.355   6.327   4.620
15876TIP3   OH247504   7.244   6.401   5.177
15876TIP3    H147505   7.326   6.379   5.225
15876TIP3    H247506   7.254   6.343   5.098
15877TIP3   OH247507   7.685   6.598   4.967
15877TIP3    H147508   7.778   6.571   4.983
15877TIP3    H247509   7.645   6.514   4.937
15878TIP3   OH247510   8.947   6.565   5.241
15878TIP3    H147511   8.863   6.612   5.221
15878TIP3    H247512   8.962   6.592   5.332
15879TIP3   OH247513   7.608   6.182   5.505
15879TIP3    H147514   7.547   6.217   5.438
15879TIP3    H247515   7.556   6.199   5.586
15880TIP3   OH247516   7.957   7.033   4.513
15880TIP3    H147517   7.912   7.010   4.430
15880TIP3    H247518   7.911   7.117   4.536
15881TIP3   OH247519   7.715   6.957   5.302
15881TIP3    H147520   7.650   7.021   5.340
15881TIP3    H247521   7.755   7.009   5.230
15882TIP3   OH247522   8.517   6.291   4.864
15882TIP3    H147523   8.502   6.244   4.947
15882TIP3    H247524   8.569   6.368   4.893
15883TIP3   OH247525   7.479   6.296   5.289
15883TIP3    H147526   7.542   6.368   5.312
15883TIP3    H247527   7.527   6.255   5.214
15884TIP3   OH247528   7.541   7.149   5.398
15884TIP3    H147529   7.514   7.235   5.359
15884TIP3    H247530   7.462   7.133   5.455
15885TIP3   OH247531   6.938   6.839   4.633
15885TIP3    H147532   6.895   6.866   4.550
15885TIP3    H247533   6.968   6.924   4.670
15886TIP3   OH247534   8.377   7.356   4.875
15886TIP3    H147535   8.287   7.347   4.914
15886TIP3    H247536   8.367   7.442   4.829
15887TIP3   OH247537   8.666   6.258   5.237
15887TIP3    H147538   8.578   6.286   5.207
15887TIP3    H247539   8.724   6.289   5.164
15888TIP3   OH247540   7.966   5.900   5.220
15888TIP3    H147541   7.950   5.805   5.239
15888TIP3    H247542   7.887   5.939   5.264
15889TIP3   OH247543   8.079   7.404   4.549
15889TIP3    H147544   8.128   7.321   4.528
15889TIP3    H247545   8.140   7.469   4.506
15890TIP3   OH247546   8.221   7.189   4.454
15890TIP3    H147547   8.181   7.110   4.414
15890TIP3    H247548   8.256   7.153   4.538
15891TIP3   OH247549   8.602   7.270   5.217
15891TIP3    H147550   8.591   7.192   5.158
15891TIP3    H247551   8.585   7.344   5.155
15892TIP3   OH247552   7.893   6.663   4.474
15892TIP3    H147553   7.812   6.714   4.453
15892TIP3    H247554   7.938   6.661   4.388
15893TIP3   OH247555   7.853   6.446   4.192
15893TIP3    H147556   7.921   6.498   4.240
15893TIP3    H247557   7.911   6.383   4.144
15894TIP3   OH247558   8.797   6.904   5.061
15894TIP3    H147559   8.714   6.957   5.067
15894TIP3    H247560   8.827   6.930   4.971
15895TIP3   OH247561   8.241   6.745   4.446
15895TIP3    H147562   8.186   6.770   4.524
15895TIP3    H247563   8.325   6.720   4.491
15896TIP3   OH247564   8.476   6.786   5.357
15896TIP3    H147565   8.473   6.869   5.407
15896TIP3    H247566   8.389   6.789   5.312
15897TIP3   OH247567   7.473   6.744   4.861
15897TIP3    H147568   7.431   6.686   4.795
15897TIP3    H247569   7.550   6.690   4.890
15898TIP3   OH247570   7.605   7.158   5.010
15898TIP3    H147571   7.581   7.111   4.929
15898TIP3    H247572   7.694   7.122   5.028
15899TIP3   OH247573   7.617   6.712   5.218
15899TIP3    H147574   7.644   6.694   5.126
15899TIP3    H247575   7.655   6.801   5.236
15900TIP3   OH247576   8.135   7.352   4.994
15900TIP3    H147577   8.122   7.431   5.049
15900TIP3    H247578   8.120   7.278   5.057
15901TIP3   OH247579   7.747   7.272   5.540
15901TIP3    H147580   7.687   7.334   5.587
15901TIP3    H247581   7.681   7.218   5.492
15902TIP3   OH247582   8.083   6.602   4.272
15902TIP3    H147583   8.141   6.662   4.324
15902TIP3    H247584   8.109   6.626   4.180
15903TIP3   OH247585   7.500   6.828   5.640
15903TIP3    H147586   7.504   6.914   5.686
15903TIP3    H247587   7.405   6.807   5.651
15904TIP3   OH247588   7.824   7.283   4.548
15904TIP3    H147589   7.902   7.338   4.566
15904TIP3    H247590   7.763   7.345   4.507
15905TIP3   OH247591   7.541   7.441   5.628
15905TIP3    H147592   7.506   7.437   5.537
15905TIP3    H247593   7.462   7.418   5.681
15906TIP3   OH247594   8.598   5.844   4.323
15906TIP3    H147595   8.519   5.864   4.376
15906TIP3    H247596   8.611   5.927   4.274
15907TIP3   OH247597   7.340   6.586   4.667
15907TIP3    H147598   7.273   6.629   4.610
15907TIP3    H247599   7.299   6.500   4.683
15908TIP3   OH247600   8.396   7.212   3.869
15908TIP3    H147601   8.404   7.309   3.854
15908TIP3    H247602   8.488   7.182   3.856
15909TIP3   OH247603   7.129   6.973   5.579
15909TIP3    H147604   7.059   6.962   5.510
15909TIP3    H247605   7.156   6.880   5.596
15910TIP3   OH247606   6.976   7.183   5.182
15910TIP3    H147607   7.064   7.146   5.195
15910TIP3    H247608   6.966   7.239   5.260
15911TIP3   OH247609   8.839   7.613   5.261
15911TIP3    H147610   8.838   7.517   5.276
15911TIP3    H247611   8.756   7.639   5.308
15912TIP3   OH247612   7.945   7.401   5.397
15912TIP3    H147613   7.944   7.493   5.430
15912TIP3    H247614   7.873   7.361   5.452
15913TIP3   OH247615   7.705   7.529   4.350
15913TIP3    H147616   7.660   7.508   4.265
15913TIP3    H247617   7.672   7.619   4.370
15914TIP3   OH247618   7.143   7.380   4.734
15914TIP3    H147619   7.191   7.370   4.820
15914TIP3    H247620   7.090   7.298   4.734
15915TIP3   OH247621   7.908   7.431   3.990
15915TIP3    H147622   7.966   7.361   3.954
15915TIP3    H247623   7.942   7.439   4.082
15916TIP3   OH247624   7.957   7.479   4.261
15916TIP3    H147625   7.868   7.488   4.302
15916TIP3    H247626   8.006   7.435   4.332
15917TIP3   OH247627   8.730   6.745   5.538
15917TIP3    H147628   8.648   6.759   5.487
15917TIP3    H247629   8.743   6.649   5.527
15918TIP3   OH247630   7.327   7.156   5.566
15918TIP3    H147631   7.376   7.135   5.647
15918TIP3    H247632   7.253   7.091   5.570
15919TIP3   OH247633   7.726   5.979   5.344
15919TIP3    H147634   7.638   5.945   5.319
15919TIP3    H247635   7.698   6.058   5.393
15920TIP3   OH247636   8.257   6.092   5.541
15920TIP3    H147637   8.324   6.064   5.607
15920TIP3    H247638   8.172   6.072   5.586
15921TIP3   OH247639   8.501   6.523   5.462
15921TIP3    H147640   8.449   6.518   5.545
15921TIP3    H247641   8.473   6.608   5.425
15922TIP3   OH247642   8.159   6.650   4.017
15922TIP3    H147643   8.124   6.625   3.930
15922TIP3    H247644   8.239   6.701   3.991
15923TIP3   OH247645   7.872   6.024   4.318
15923TIP3    H147646   7.839   6.025   4.411
15923TIP3    H247647   7.833   5.941   4.287
15924TIP3   OH247648   7.659   6.491   5.368
15924TIP3    H147649   7.605   6.511   5.447
15924TIP3    H247650   7.643   6.571   5.313
15925TIP3   OH247651   7.539   6.378   4.879
15925TIP3    H147652   7.447   6.351   4.898
15925TIP3    H247653   7.552   6.337   4.791
15926TIP3   OH247654   8.032   6.465   4.607
15926TIP3    H147655   7.977   6.536   4.567
15926TIP3    H247656   8.085   6.435   4.531
15927TIP3   OH247657   8.205   6.743   5.695
15927TIP3    H147658   8.183   6.670   5.756
15927TIP3    H247659   8.299   6.757   5.716
15928TIP3   OH247660   8.190   6.494   4.847
15928TIP3    H147661   8.129   6.525   4.777
15928TIP3    H247662   8.221   6.411   4.804
15929TIP3   OH247663   7.478   6.521   5.574
15929TIP3    H147664   7.495   6.584   5.645
15929TIP3    H247665   7.463   6.438   5.624
15930TIP3   OH247666   7.530   5.998   4.285
15930TIP3    H147667   7.517   5.998   4.382
15930TIP3    H247668   7.450   6.048   4.257
15931TIP3   OH247669   7.065   6.049   5.158
15931TIP3    H147670   7.148   6.072   5.205
15931TIP3    H247671   7.094   6.010   5.073
15932TIP3   OH247672   7.056   6.033   4.675
15932TIP3    H147673   7.094   6.074   4.595
15932TIP3    H247674   6.989   6.098   4.699
15933TIP3   OH247675   8.201   6.740   5.270
15933TIP3    H147676   8.233   6.667   5.212
15933TIP3    H247677   8.170   6.687   5.347
15934TIP3   OH247678   7.869   6.202   4.941
15934TIP3    H147679   7.783   6.196   4.987
15934TIP3    H247680   7.931   6.204   5.017
15935TIP3   OH247681   7.303   6.255   4.948
15935TIP3    H147682   7.208   6.264   4.922
15935TIP3    H247683   7.322   6.162   4.928
15936TIP3   OH247684   7.574   6.254   4.637
15936TIP3    H147685   7.667   6.270   4.611
15936TIP3    H247686   7.524   6.275   4.555
15937TIP3   OH247687   8.357   6.274   5.140
15937TIP3    H147688   8.327   6.287   5.233
15937TIP3    H247689   8.288   6.213   5.108
15938TIP3   OH247690   7.414   6.286   4.419
15938TIP3    H147691   7.340   6.241   4.375
15938TIP3    H247692   7.463   6.320   4.341
15939TIP3   OH247693   8.528   7.965   5.362
15939TIP3    H147694   8.528   7.988   5.268
15939TIP3    H247695   8.609   8.011   5.394
15940TIP3   OH247696   7.487   7.076   5.783
15940TIP3    H147697   7.566   7.105   5.833
15940TIP3    H247698   7.422   7.071   5.856
15941TIP3   OH247699   7.951   6.529   5.041
15941TIP3    H147700   8.022   6.485   4.992
15941TIP3    H247701   7.957   6.487   5.129
15942TIP3   OH247702   7.478   6.014   4.918
15942TIP3    H147703   7.438   5.938   4.966
15942TIP3    H247704   7.531   5.969   4.851
15943TIP3   OH247705   7.928   6.426   5.325
15943TIP3    H147706   7.838   6.459   5.341
15943TIP3    H247707   7.984   6.486   5.379
15944TIP3   OH247708   7.665   6.816   4.424
15944TIP3    H147709   7.593   6.750   4.413
15944TIP3    H247710   7.646   6.849   4.515
15945TIP3   OH247711   8.566   7.052   5.053
15945TIP3    H147712   8.589   7.101   4.972
15945TIP3    H247713   8.480   7.010   5.029
15946TIP3   OH247714   8.123   6.128   4.284
15946TIP3    H147715   8.026   6.113   4.292
15946TIP3    H247716   8.133   6.223   4.307
15947TIP3   OH247717   8.068   7.136   5.420
15947TIP3    H147718   8.084   7.110   5.511
15947TIP3    H247719   8.025   7.223   5.429
15948TIP3   OH247720   8.193   6.375   4.388
15948TIP3    H147721   8.289   6.383   4.404
15948TIP3    H247722   8.172   6.455   4.336
15949TIP3   OH247723   7.361   6.843   5.101
15949TIP3    H147724   7.396   6.809   5.016
15949TIP3    H247725   7.388   6.774   5.163
15950TIP3   OH247726   7.810   6.966   4.246
15950TIP3    H147727   7.762   7.052   4.252
15950TIP3    H247728   7.755   6.910   4.305
15951TIP3   OH247729   7.237   6.752   5.711
15951TIP3    H147730   7.252   6.740   5.807
15951TIP3    H247731   7.162   6.692   5.695
15952TIP3   OH247732   7.961   6.872   5.733
15952TIP3    H147733   7.900   6.813   5.686
15952TIP3    H247734   8.048   6.838   5.703
15953TIP3   OH247735   8.225   7.397   5.314
15953TIP3    H147736   8.129   7.392   5.328
15953TIP3    H247737   8.252   7.446   5.394
15954TIP3   OH247738   8.635   6.465   4.225
15954TIP3    H147739   8.572   6.421   4.163
15954TIP3    H247740   8.632   6.554   4.184
15955TIP3   OH247741   8.852   7.322   5.306
15955TIP3    H147742   8.754   7.318   5.298
15955TIP3    H247743   8.878   7.293   5.216
15956TIP3   OH247744   8.336   7.285   4.134
15956TIP3    H147745   8.309   7.214   4.194
15956TIP3    H247746   8.347   7.239   4.049
15957TIP3   OH247747   8.330   6.914   4.973
15957TIP3    H147748   8.237   6.888   4.986
15957TIP3    H247749   8.364   6.835   4.927
15958TIP3   OH247750   7.457   7.141   4.724
15958TIP3    H147751   7.456   7.222   4.670
15958TIP3    H247752   7.363   7.123   4.734
15959TIP3   OH247753   7.021   6.446   4.429
15959TIP3    H147754   7.066   6.530   4.450
15959TIP3    H247755   6.943   6.451   4.489
15960TIP3   OH247756   7.598   6.908   4.669
15960TIP3    H147757   7.562   6.997   4.688
15960TIP3    H247758   7.561   6.856   4.743
15961TIP3   OH247759   7.726   7.486   5.194
15961TIP3    H147760   7.768   7.557   5.143
15961TIP3    H247761   7.802   7.450   5.243
15962TIP3   OH247762   7.376   7.381   4.577
15962TIP3    H147763   7.290   7.388   4.624
15962TIP3    H247764   7.406   7.474   4.580
15963TIP3   OH247765   8.116   7.119   5.151
15963TIP3    H147766   8.107   7.118   5.249
15963TIP3    H247767   8.195   7.065   5.139
15964TIP3   OH247768   8.089   7.012   4.034
15964TIP3    H147769   8.140   6.987   4.114
15964TIP3    H247770   8.000   6.985   4.062
15965TIP3   OH247771   8.364   7.654   5.204
15965TIP3    H147772   8.285   7.595   5.198
15965TIP3    H247773   8.346   7.717   5.131
15966TIP3   OH247774   8.429   7.487   3.854
15966TIP3    H147775   8.464   7.557   3.797
15966TIP3    H247776   8.349   7.533   3.888
15967TIP3   OH247777   7.448   6.265   5.721
15967TIP3    H147778   7.351   6.268   5.733
15967TIP3    H247779   7.473   6.202   5.791
15968TIP3   OH247780   8.249   6.947   4.252
15968TIP3    H147781   8.239   6.880   4.323
15968TIP3    H247782   8.346   6.944   4.239
15969TIP3   OH247783   7.164   7.350   5.355
15969TIP3    H147784   7.213   7.270   5.379
15969TIP3    H247785   7.196   7.412   5.421
15970TIP3   OH247786   7.456   6.993   4.034
15970TIP3    H147787   7.469   6.902   4.004
15970TIP3    H247788   7.436   6.979   4.129
15971TIP3   OH247789   7.400   6.998   4.308
15971TIP3    H147790   7.472   6.970   4.366
15971TIP3    H247791   7.406   7.096   4.314
15972TIP3   OH247792   7.138   6.692   4.510
15972TIP3    H147793   7.071   6.735   4.567
15972TIP3    H247794   7.151   6.762   4.443
15973TIP3   OH247795   8.288   6.326   5.400
15973TIP3    H147796   8.365   6.365   5.445
15973TIP3    H247797   8.270   6.246   5.454
15974TIP3   OH247798   8.177   6.080   4.563
15974TIP3    H147799   8.153   6.104   4.471
15974TIP3    H247800   8.207   6.165   4.600
15975TIP3   OH247801   7.668   7.196   4.257
15975TIP3    H147802   7.580   7.223   4.291
15975TIP3    H247803   7.682   7.263   4.189
15976TIP3   OH247804   7.862   6.255   4.669
15976TIP3    H147805   7.922   6.331   4.652
15976TIP3    H247806   7.860   6.253   4.767
15977TIP3   OH247807   8.125   6.579   5.477
15977TIP3    H147808   8.142   6.634   5.556
15977TIP3    H247809   8.179   6.500   5.494
15978TIP3   OH247810   8.007   5.996   4.783
15978TIP3    H147811   7.983   6.079   4.829
15978TIP3    H247812   8.063   6.029   4.709
15979TIP3   OH247813   7.410   7.271   4.322
15979TIP3    H147814   7.380   7.340   4.259
15979TIP3    H247815   7.394   7.314   4.409
15980TIP3   OH247816   7.512   5.984   4.559
15980TIP3    H147817   7.505   6.072   4.600
15980TIP3    H247818   7.607   5.967   4.572
15981TIP3   OH247819   8.766   6.477   5.457
15981TIP3    H147820   8.668   6.476   5.466
15981TIP3    H247821   8.775   6.439   5.369
15982TIP3   OH247822   8.416   6.672   4.845
15982TIP3    H147823   8.339   6.614   4.858
15982TIP3    H247824   8.487   6.625   4.894
15983TIP3   OH247825   7.128   6.903   4.315
15983TIP3    H147826   7.195   6.972   4.324
15983TIP3    H247827   7.172   6.846   4.248
15984TIP3   OH247828   7.076   6.179   4.444
15984TIP3    H147829   7.070   6.276   4.442
15984TIP3    H247830   6.990   6.153   4.408
15985TIP3   OH247831   8.383   7.629   4.796
15985TIP3    H147832   8.341   7.675   4.720
15985TIP3    H247833   8.478   7.648   4.775
15986TIP3   OH247834   7.462   5.897   5.323
15986TIP3    H147835   7.430   5.863   5.236
15986TIP3    H247836   7.451   5.818   5.380
15987TIP3   OH247837   7.005   7.122   4.705
15987TIP3    H147838   6.930   7.147   4.761
15987TIP3    H247839   6.975   7.157   4.618
15988TIP3   OH247840   7.154   7.650   5.774
15988TIP3    H147841   7.241   7.646   5.817
15988TIP3    H247842   7.130   7.556   5.771
15989TIP3   OH247843   7.638   7.621   5.817
15989TIP3    H147844   7.732   7.602   5.826
15989TIP3    H247845   7.614   7.561   5.744
15990TIP3   OH247846   7.620   7.197   3.950
15990TIP3    H147847   7.563   7.125   3.985
15990TIP3    H247848   7.694   7.145   3.913
15991TIP3   OH247849   8.277   7.527   5.551
15991TIP3    H147850   8.268   7.457   5.620
15991TIP3    H247851   8.355   7.577   5.583
15992TIP3   OH247852   8.056   7.239   3.859
15992TIP3    H147853   8.100   7.174   3.916
15992TIP3    H247854   8.110   7.238   3.778
15993TIP3   OH247855   7.285   7.063   5.973
15993TIP3    H147856   7.302   6.967   5.979
15993TIP3    H247857   7.197   7.065   5.930
15994TIP3   OH247858   7.263   6.716   4.167
15994TIP3    H147859   7.317   6.679   4.239
15994TIP3    H247860   7.330   6.719   4.095
15995TIP3   OH247861   7.894   7.147   5.748
15995TIP3    H147862   7.851   7.162   5.662
15995TIP3    H247863   7.924   7.054   5.742
15996TIP3   OH247864   7.773   6.913   3.975
15996TIP3    H147865   7.775   6.925   4.072
15996TIP3    H247866   7.772   6.815   3.969
15997TIP3   OH247867   8.387   7.154   5.354
15997TIP3    H147868   8.460   7.201   5.310
15997TIP3    H247869   8.314   7.217   5.342
15998TIP3   OH247870   7.406   6.800   5.956
15998TIP3    H147871   7.475   6.736   5.937
15998TIP3    H247872   7.431   6.831   6.046
15999TIP3   OH247873   7.475   6.616   4.392
15999TIP3    H147874   7.444   6.575   4.474
15999TIP3    H247875   7.508   6.539   4.341
16000TIP3   OH247876   7.743   6.685   5.622
16000TIP3    H147877   7.662   6.740   5.622
16000TIP3    H247878   7.788   6.716   5.541
16001TIP3   OH247879   7.571   6.409   4.230
16001TIP3    H147880   7.544   6.413   4.136
16001TIP3    H247881   7.668   6.416   4.222
16002TIP3   OH247882   8.257   7.084   5.753
16002TIP3    H147883   8.338   7.061   5.705
16002TIP3    H247884   8.254   7.016   5.823
16003TIP3   OH247885   8.396   6.742   3.893
16003TIP3    H147886   8.373   6.696   3.810
16003TIP3    H247887   8.363   6.832   3.870
16004TIP3   OH247888   7.866   6.470   5.744
16004TIP3    H147889   7.863   6.389   5.689
16004TIP3    H247890   7.820   6.536   5.687
16005TIP3   OH247891   7.866   6.257   5.551
16005TIP3    H147892   7.892   6.296   5.465
16005TIP3    H247893   7.773   6.232   5.534
16006TIP3   OH247894   7.896   6.793   5.425
16006TIP3    H147895   7.977   6.800   5.372
16006TIP3    H247896   7.838   6.859   5.381
16007TIP3   OH247897   8.477   6.759   5.808
16007TIP3    H147898   8.525   6.675   5.814
16007TIP3    H247899   8.544   6.819   5.773
16008TIP3   OH247900   8.518   7.011   5.542
16008TIP3    H147901   8.459   7.064   5.483
16008TIP3    H247902   8.605   7.031   5.501
16009TIP3   OH247903   7.743   6.582   5.975
16009TIP3    H147904   7.674   6.514   5.989
16009TIP3    H247905   7.776   6.558   5.886
16010TIP3   OH247906   7.999   6.020   5.617
16010TIP3    H147907   7.948   6.102   5.595
16010TIP3    H247908   7.929   5.952   5.607
16011TIP3   OH247909   8.125   6.525   5.835
16011TIP3    H147910   8.110   6.512   5.930
16011TIP3    H247911   8.035   6.500   5.802
16012TIP3   OH247912   8.363   6.472   5.689
16012TIP3    H147913   8.287   6.475   5.750
16012TIP3    H247914   8.436   6.442   5.747
16013TIP3   OH247915   8.595   6.416   5.841
16013TIP3    H147916   8.605   6.320   5.857
16013TIP3    H247917   8.589   6.453   5.932
16014TIP3   OH247918   7.582   6.363   6.026
16014TIP3    H147919   7.585   6.272   5.991
16014TIP3    H247920   7.616   6.348   6.117
16015TIP3   OH247921   8.095   6.031   5.874
16015TIP3    H147922   8.160   5.958   5.869
16015TIP3    H247923   8.053   6.024   5.786
16016TIP3   OH247924   8.159   6.244   6.035
16016TIP3    H147925   8.137   6.173   5.971
16016TIP3    H247926   8.081   6.303   6.028
16017TIP3   OH247927   7.379   7.476   4.138
16017TIP3    H147928   7.474   7.470   4.118
16017TIP3    H247929   7.349   7.521   4.057
16018TIP3   OH247930   6.859   6.855   4.351
16018TIP3    H147931   6.954   6.876   4.337
16018TIP3    H247932   6.853   6.766   4.310
16019TIP3   OH247933   6.773   7.470   4.764
16019TIP3    H147934   6.706   7.406   4.730
16019TIP3    H247935   6.818   7.414   4.831
16020TIP3   OH247936   6.906   7.325   4.952
16020TIP3    H147937   6.903   7.248   5.013
16020TIP3    H247938   6.959   7.383   5.009
16021TIP3   OH247939   8.634   7.725   4.750
16021TIP3    H147940   8.664   7.751   4.839
16021TIP3    H247941   8.704   7.761   4.693
16022TIP3   OH247942   8.668   7.740   5.032
16022TIP3    H147943   8.623   7.652   5.029
16022TIP3    H247944   8.742   7.717   5.091
16023TIP3   OH247945   8.712   7.415   5.606
16023TIP3    H147946   8.639   7.425   5.670
16023TIP3    H247947   8.754   7.504   5.610
16024TIP3   OH247948   8.528   6.929   4.227
16024TIP3    H147949   8.597   6.993   4.198
16024TIP3    H247950   8.572   6.889   4.306
16025TIP3   OH247951   8.657   6.795   4.429
16025TIP3    H147952   8.591   6.754   4.489
16025TIP3    H247953   8.721   6.834   4.492
16026TIP3   OH247954   8.710   7.188   4.862
16026TIP3    H147955   8.763   7.124   4.811
16026TIP3    H247956   8.701   7.262   4.799
16027TIP3   OH247957   8.542   7.490   5.057
16027TIP3    H147958   8.471   7.530   5.110
16027TIP3    H247959   8.492   7.441   4.988
16028TIP3   OH247960   8.595   6.703   4.078
16028TIP3    H147961   8.523   6.706   4.010
16028TIP3    H247962   8.567   6.780   4.133
16029TIP3   OH247963   8.468   6.376   4.031
16029TIP3    H147964   8.423   6.418   3.957
16029TIP3    H247965   8.440   6.283   4.020
16030TIP3   OH247966   8.471   6.653   4.577
16030TIP3    H147967   8.478   6.556   4.572
16030TIP3    H247968   8.457   6.668   4.674
16031TIP3   OH247969   7.096   6.717   5.325
16031TIP3    H147970   7.095   6.692   5.230
16031TIP3    H247971   7.193   6.723   5.340
16032TIP3   OH247972   8.760   7.078   5.433
16032TIP3    H147973   8.833   7.012   5.424
16032TIP3    H247974   8.787   7.148   5.372
16033TIP3   OH247975   8.945   6.883   5.450
16033TIP3    H147976   8.870   6.833   5.490
16033TIP3    H247977   9.018   6.819   5.464
16034TIP3   OH247978   8.410   6.110   4.018
16034TIP3    H147979   8.482   6.079   4.076
16034TIP3    H247980   8.334   6.053   4.041
16035TIP3   OH247981   8.467   6.370   4.473
16035TIP3    H147982   8.507   6.281   4.486
16035TIP3    H247983   8.524   6.404   4.402
16036TIP3   OH247984   8.629   6.542   4.967
16036TIP3    H147985   8.715   6.569   4.927
16036TIP3    H247986   8.641   6.579   5.056
16037TIP3   OH247987   8.697   6.686   5.199
16037TIP3    H147988   8.618   6.720   5.247
16037TIP3    H247989   8.728   6.767   5.154
16038TIP3   OH247990   7.315   6.415   6.003
16038TIP3    H147991   7.413   6.406   6.001
16038TIP3    H247992   7.290   6.329   6.041
16039TIP3   OH247993   9.150   6.278   5.756
16039TIP3    H147994   9.208   6.212   5.712
16039TIP3    H247995   9.120   6.333   5.680
16040TIP3   OH247996   8.575   6.118   4.509
16040TIP3    H147997   8.624   6.108   4.594
16040TIP3    H247998   8.516   6.041   4.512
16041TIP3   OH247999   7.277   6.104   5.328
16041TIP3    H148000   7.339   6.029   5.338
16041TIP3    H248001   7.340   6.178   5.323
16042TIP3   OH248002   7.081   6.380   5.405
16042TIP3    H148003   7.127   6.369   5.320
16042TIP3    H248004   7.105   6.471   5.427
16043TIP3   OH248005   9.021   6.418   5.562
16043TIP3    H148006   8.935   6.459   5.585
16043TIP3    H248007   8.990   6.347   5.502
16044TIP3   OH248008   8.659   6.052   4.145
16044TIP3    H148009   8.696   5.982   4.088
16044TIP3    H248010   8.723   6.125   4.134
16045TIP3   OH248011   7.060   5.903   4.915
16045TIP3    H148012   6.967   5.875   4.923
16045TIP3    H248013   7.062   5.942   4.826
16046TIP3   OH248014   8.221   7.587   4.409
16046TIP3    H148015   8.270   7.569   4.326
16046TIP3    H248016   8.280   7.649   4.455
16047TIP3   OH248017   7.283   5.964   5.719
16047TIP3    H148018   7.230   5.957   5.800
16047TIP3    H248019   7.217   6.001   5.658
16048TIP3   OH248020   7.321   7.393   5.798
16048TIP3    H148021   7.232   7.361   5.776
16048TIP3    H248022   7.330   7.366   5.890
16049TIP3   OH248023   7.499   7.421   5.343
16049TIP3    H148024   7.450   7.496   5.303
16049TIP3    H248025   7.585   7.435   5.298
16050TIP3   OH248026   7.945   7.668   5.480
16050TIP3    H148027   7.987   7.667   5.568
16050TIP3    H248028   8.012   7.718   5.428
16051TIP3   OH248029   8.124   7.818   5.337
16051TIP3    H148030   8.196   7.766   5.298
16051TIP3    H248031   8.175   7.875   5.399
16052TIP3   OH248032   8.920   6.181   5.438
16052TIP3    H148033   8.828   6.178   5.406
16052TIP3    H248034   8.947   6.087   5.426
16053TIP3   OH248035   7.178   7.684   5.362
16053TIP3    H148036   7.088   7.717   5.341
16053TIP3    H248037   7.184   7.708   5.455
16054TIP3   OH248038   7.414   7.659   5.223
16054TIP3    H148039   7.328   7.671   5.268
16054TIP3    H248040   7.393   7.689   5.133
16055TIP3   OH248041   7.839   7.688   5.020
16055TIP3    H148042   7.769   7.707   4.955
16055TIP3    H248043   7.851   7.774   5.064
16056TIP3   OH248044   8.107   7.627   5.072
16056TIP3    H148045   8.013   7.642   5.052
16056TIP3    H248046   8.149   7.704   5.031
16057TIP3   OH248047   8.318   7.820   4.989
16057TIP3    H148048   8.302   7.903   4.939
16057TIP3    H248049   8.342   7.758   4.916
16058TIP3   OH248050   7.089   7.476   5.112
16058TIP3    H148051   7.114   7.445   5.202
16058TIP3    H248052   7.157   7.428   5.061
16059TIP3   OH248053   7.280   7.345   4.967
16059TIP3    H148054   7.294   7.260   5.016
16059TIP3    H248055   7.372   7.379   4.963
16060TIP3   OH248056   7.549   7.440   4.969
16060TIP3    H148057   7.578   7.348   4.956
16060TIP3    H248058   7.592   7.459   5.054
16061TIP3   OH248059   8.126   6.098   5.068
16061TIP3    H148060   8.075   6.033   5.120
16061TIP3    H248061   8.181   6.041   5.012
16062TIP3   OH248062   8.652   5.976   4.967
16062TIP3    H148063   8.686   6.019   4.886
16062TIP3    H248064   8.555   5.987   4.956
16063TIP3   OH248065   8.741   6.075   4.724
16063TIP3    H148066   8.817   6.027   4.685
16063TIP3    H248067   8.772   6.168   4.714
16064TIP3   OH248068   7.374   5.806   5.075
16064TIP3    H148069   7.281   5.774   5.074
16064TIP3    H248070   7.421   5.720   5.071
16065TIP3   OH248071   7.176   5.669   4.713
16065TIP3    H148072   7.186   5.738   4.646
16065TIP3    H248073   7.112   5.713   4.773
16066TIP3   OH248074   7.813   5.855   4.947
16066TIP3    H148075   7.885   5.902   4.903
16066TIP3    H248076   7.830   5.873   5.040
16067TIP3   OH248077   8.374   5.976   4.933
16067TIP3    H148078   8.325   5.956   4.852
16067TIP3    H248079   8.365   5.892   4.984
16068TIP3   OH248080   8.381   5.901   4.505
16068TIP3    H148081   8.313   5.969   4.524
16068TIP3    H248082   8.325   5.822   4.511
16069TIP3   OH248083   6.876   7.241   4.500
16069TIP3    H148084   6.792   7.205   4.465
16069TIP3    H248085   6.860   7.336   4.487
16070TIP3   OH248086   7.272   5.841   4.478
16070TIP3    H148087   7.324   5.774   4.432
16070TIP3    H248088   7.341   5.892   4.524
16071TIP3   OH248089   7.791   6.006   4.583
16071TIP3    H148090   7.839   5.956   4.650
16071TIP3    H248091   7.813   6.098   4.610
16072TIP3   OH248092   7.647   7.435   4.084
16072TIP3    H148093   7.735   7.457   4.047
16072TIP3    H248094   7.625   7.360   4.024
16073TIP3   OH248095   8.367   7.552   4.177
16073TIP3    H148096   8.360   7.454   4.165
16073TIP3    H248097   8.321   7.583   4.096
16074TIP3   OH248098   7.580   6.088   5.968
16074TIP3    H148099   7.545   6.015   6.022
16074TIP3    H248100   7.674   6.087   5.994
16075TIP3   OH248101   7.830   6.084   6.086
16075TIP3    H148102   7.913   6.054   6.044
16075TIP3    H248103   7.815   6.013   6.152
16076TIP3   OH248104   6.956   7.275   4.144
16076TIP3    H148105   6.956   7.284   4.240
16076TIP3    H248106   7.042   7.230   4.127
16077TIP3   OH248107   8.652   6.146   5.864
16077TIP3    H148108   8.668   6.113   5.955
16077TIP3    H248109   8.741   6.140   5.825
16078TIP3   OH248110   8.594   7.697   5.363
16078TIP3    H148111   8.514   7.664   5.317
16078TIP3    H248112   8.573   7.792   5.368
16079TIP3   OH248113   9.865   7.063   4.116
16079TIP3    H148114   9.865   7.159   4.138
16079TIP3    H248115   9.770   7.051   4.103
16080TIP3   OH248116   9.807   7.062   4.530
16080TIP3    H148117   9.880   7.047   4.593
16080TIP3    H248118   9.823   6.996   4.462
16081TIP3   OH248119   9.158   6.965   4.877
16081TIP3    H148120   9.191   6.898   4.940
16081TIP3    H248121   9.236   7.021   4.866
16082TIP3   OH248122   9.129   7.372   4.603
16082TIP3    H148123   9.121   7.274   4.605
16082TIP3    H248124   9.225   7.381   4.592
16083TIP3   OH248125   8.835   6.575   4.387
16083TIP3    H148126   8.789   6.659   4.403
16083TIP3    H248127   8.763   6.523   4.347
16084TIP3   OH248128   8.895   6.864   4.556
16084TIP3    H148129   8.945   6.787   4.594
16084TIP3    H248130   8.957   6.898   4.491
16085TIP3   OH248131   9.743   7.819   4.224
16085TIP3    H148132   9.787   7.748   4.173
16085TIP3    H248133   9.740   7.778   4.312
16086TIP3   OH248134   9.648   7.299   4.566
16086TIP3    H148135   9.687   7.222   4.522
16086TIP3    H248136   9.730   7.351   4.579
16087TIP3   OH248137  10.076   6.816   4.593
16087TIP3    H148138  10.071   6.721   4.612
16087TIP3    H248139  10.056   6.814   4.497
16088TIP3   OH248140   9.406   6.455   4.560
16088TIP3    H148141   9.386   6.529   4.498
16088TIP3    H248142   9.358   6.382   4.514
16089TIP3   OH248143  10.089   6.541   4.199
16089TIP3    H148144  10.168   6.518   4.249
16089TIP3    H248145  10.127   6.604   4.136
16090TIP3   OH248146   9.040   6.657   4.665
16090TIP3    H148147   9.123   6.639   4.712
16090TIP3    H248148   9.053   6.602   4.585
16091TIP3   OH248149   9.481   6.853   4.457
16091TIP3    H148150   9.575   6.828   4.469
16091TIP3    H248151   9.443   6.769   4.424
16092TIP3   OH248152   9.403   6.437   4.992
16092TIP3    H148153   9.344   6.477   4.925
16092TIP3    H248154   9.351   6.455   5.073
16093TIP3   OH248155   9.511   7.211   4.790
16093TIP3    H148156   9.450   7.281   4.823
16093TIP3    H248157   9.555   7.257   4.715
16094TIP3   OH248158   9.274   6.554   4.778
16094TIP3    H148159   9.335   6.628   4.800
16094TIP3    H248160   9.322   6.514   4.702
16095TIP3   OH248161   9.338   7.407   4.886
16095TIP3    H148162   9.313   7.491   4.844
16095TIP3    H248163   9.258   7.393   4.942
16096TIP3   OH248164   8.733   7.096   4.121
16096TIP3    H148165   8.692   7.123   4.036
16096TIP3    H248166   8.763   7.182   4.157
16097TIP3   OH248167   9.756   6.156   4.716
16097TIP3    H148168   9.736   6.062   4.732
16097TIP3    H248169   9.677   6.198   4.756
16098TIP3   OH248170   9.930   7.684   4.056
16098TIP3    H148171   9.902   7.594   4.082
16098TIP3    H248172   9.898   7.690   3.966
16099TIP3   OH248173   9.672   6.899   3.945
16099TIP3    H148174   9.595   6.960   3.944
16099TIP3    H248175   9.725   6.936   3.874
16100TIP3   OH248176   9.645   6.703   3.674
16100TIP3    H148177   9.697   6.746   3.744
16100TIP3    H248178   9.712   6.645   3.632
16101TIP3   OH248179   9.266   6.998   4.354
16101TIP3    H148180   9.229   6.942   4.283
16101TIP3    H248181   9.346   6.948   4.381
16102TIP3   OH248182   9.396   7.409   4.500
16102TIP3    H148183   9.384   7.370   4.412
16102TIP3    H248184   9.488   7.380   4.521
16103TIP3   OH248185   9.406   6.972   4.703
16103TIP3    H148186   9.441   6.952   4.614
16103TIP3    H248187   9.450   7.057   4.724
16104TIP3   OH248188   9.891   7.634   4.488
16104TIP3    H148189   9.939   7.692   4.549
16104TIP3    H248190   9.908   7.546   4.526
16105TIP3   OH248191   9.541   7.526   5.034
16105TIP3    H148192   9.479   7.590   5.075
16105TIP3    H248193   9.479   7.473   4.980
16106TIP3   OH248194   9.897   6.866   3.767
16106TIP3    H148195   9.929   6.933   3.830
16106TIP3    H248196   9.911   6.910   3.682
16107TIP3   OH248197   9.298   7.082   5.131
16107TIP3    H148198   9.303   7.170   5.174
16107TIP3    H248199   9.202   7.065   5.138
16108TIP3   OH248200   9.656   7.601   3.995
16108TIP3    H148201   9.683   7.522   4.049
16108TIP3    H248202   9.564   7.611   4.020
16109TIP3   OH248203   9.337   7.697   5.114
16109TIP3    H148204   9.303   7.696   5.023
16109TIP3    H248205   9.257   7.675   5.167
16110TIP3   OH248206   9.137   6.840   4.152
16110TIP3    H148207   9.073   6.889   4.096
16110TIP3    H248208   9.089   6.757   4.166
16111TIP3   OH248209   8.917   7.226   5.062
16111TIP3    H148210   8.852   7.204   4.992
16111TIP3    H248211   8.954   7.139   5.086
16112TIP3   OH248212   8.772   7.420   4.694
16112TIP3    H148213   8.867   7.410   4.683
16112TIP3    H248214   8.766   7.497   4.751
16113TIP3   OH248215   9.741   7.654   4.888
16113TIP3    H148216   9.740   7.748   4.916
16113TIP3    H248217   9.669   7.617   4.943
16114TIP3   OH248218   9.492   7.806   3.821
16114TIP3    H148219   9.445   7.776   3.741
16114TIP3    H248220   9.451   7.892   3.843
16115TIP3   OH248221   8.939   7.637   4.221
16115TIP3    H148222   8.988   7.626   4.306
16115TIP3    H248223   8.885   7.556   4.222
16116TIP3   OH248224   9.709   7.690   3.496
16116TIP3    H148225   9.776   7.628   3.467
16116TIP3    H248226   9.737   7.707   3.589
16117TIP3   OH248227   9.744   7.732   3.768
16117TIP3    H148228   9.654   7.756   3.798
16117TIP3    H248229   9.755   7.656   3.828
16118TIP3   OH248230   9.121   7.410   5.052
16118TIP3    H148231   9.172   7.393   5.134
16118TIP3    H248232   9.047   7.346   5.059
16119TIP3   OH248233   9.521   6.234   4.832
16119TIP3    H148234   9.430   6.204   4.809
16119TIP3    H248235   9.498   6.318   4.876
16120TIP3   OH248236  10.045   6.345   5.035
16120TIP3    H148237  10.087   6.342   5.121
16120TIP3    H248238   9.952   6.326   5.060
16121TIP3   OH248239   9.675   6.282   3.808
16121TIP3    H148240   9.639   6.282   3.899
16121TIP3    H248241   9.630   6.203   3.772
16122TIP3   OH248242   9.453   6.749   4.851
16122TIP3    H148243   9.403   6.772   4.932
16122TIP3    H248244   9.438   6.830   4.797
16123TIP3   OH248245   9.338   6.631   4.367
16123TIP3    H148246   9.244   6.610   4.383
16123TIP3    H248247   9.350   6.592   4.277
16124TIP3   OH248248   9.819   6.712   4.084
16124TIP3    H148249   9.766   6.787   4.051
16124TIP3    H248250   9.884   6.700   4.013
16125TIP3   OH248251  10.003   6.996   5.177
16125TIP3    H148252   9.976   6.928   5.243
16125TIP3    H248253  10.094   7.015   5.206
16126TIP3   OH248254   9.962   6.749   4.350
16126TIP3    H148255   9.938   6.803   4.274
16126TIP3    H248256   9.999   6.670   4.304
16127TIP3   OH248257   9.274   6.778   5.061
16127TIP3    H148258   9.295   6.845   5.129
16127TIP3    H248259   9.260   6.698   5.115
16128TIP3   OH248260   9.324   6.255   3.772
16128TIP3    H148261   9.312   6.254   3.869
16128TIP3    H248262   9.246   6.307   3.745
16129TIP3   OH248263   8.864   6.299   4.643
16129TIP3    H148264   8.939   6.333   4.697
16129TIP3    H248265   8.906   6.273   4.560
16130TIP3   OH248266   8.841   6.283   4.163
16130TIP3    H148267   8.883   6.321   4.083
16130TIP3    H248268   8.778   6.354   4.184
16131TIP3   OH248269   9.976   7.003   4.758
16131TIP3    H148270  10.028   6.943   4.700
16131TIP3    H248271   9.958   6.943   4.833
16132TIP3   OH248272   9.660   6.439   4.432
16132TIP3    H148273   9.576   6.452   4.480
16132TIP3    H248274   9.722   6.483   4.491
16133TIP3   OH248275   9.097   6.513   4.437
16133TIP3    H148276   9.002   6.523   4.410
16133TIP3    H248277   9.117   6.421   4.411
16134TIP3   OH248278   9.367   6.505   4.124
16134TIP3    H148279   9.461   6.526   4.106
16134TIP3    H248280   9.321   6.532   4.042
16135TIP3   OH248281  10.068   6.547   4.632
16135TIP3    H148282  10.064   6.550   4.730
16135TIP3    H248283  10.017   6.466   4.611
16136TIP3   OH248284   9.210   6.538   3.904
16136TIP3    H148285   9.136   6.497   3.855
16136TIP3    H248286   9.261   6.577   3.830
16137TIP3   OH248287   9.284   7.331   5.270
16137TIP3    H148288   9.363   7.363   5.318
16137TIP3    H248289   9.219   7.330   5.344
16138TIP3   OH248290   9.738   6.748   4.516
16138TIP3    H148291   9.821   6.748   4.463
16138TIP3    H248292   9.770   6.742   4.607
16139TIP3   OH248293   9.278   6.271   4.403
16139TIP3    H148294   9.238   6.191   4.444
16139TIP3    H248295   9.306   6.239   4.317
16140TIP3   OH248296   9.725   6.674   4.831
16140TIP3    H148297   9.636   6.715   4.827
16140TIP3    H248298   9.779   6.745   4.872
16141TIP3   OH248299   9.461   7.069   3.912
16141TIP3    H148300   9.385   7.008   3.900
16141TIP3    H248301   9.441   7.107   4.001
16142TIP3   OH248302   9.920   6.398   3.762
16142TIP3    H148303   9.827   6.376   3.787
16142TIP3    H248304   9.934   6.487   3.801
16143TIP3   OH248305   9.859   7.384   4.916
16143TIP3    H148306   9.872   7.379   5.011
16143TIP3    H248307   9.828   7.476   4.904
16144TIP3   OH248308  10.013   6.638   3.862
16144TIP3    H148309  10.101   6.672   3.880
16144TIP3    H248310   9.973   6.714   3.813
16145TIP3   OH248311   9.149   7.091   4.588
16145TIP3    H148312   9.188   7.066   4.501
16145TIP3    H248313   9.197   7.032   4.648
16146TIP3   OH248314   9.596   7.214   3.719
16146TIP3    H148315   9.562   7.304   3.737
16146TIP3    H248316   9.555   7.165   3.794
16147TIP3   OH248317   9.033   7.015   5.199
16147TIP3    H148318   9.053   7.002   5.294
16147TIP3    H248319   8.963   6.948   5.185
16148TIP3   OH248320   9.757   7.127   5.220
16148TIP3    H148321   9.696   7.072   5.168
16148TIP3    H248322   9.844   7.097   5.185
16149TIP3   OH248323  10.027   7.649   4.809
16149TIP3    H148324   9.931   7.647   4.802
16149TIP3    H248325  10.040   7.706   4.886
16150TIP3   OH248326   9.254   7.401   4.214
16150TIP3    H148327   9.255   7.481   4.159
16150TIP3    H248328   9.160   7.380   4.217
16151TIP3   OH248329   8.818   6.701   3.915
16151TIP3    H148330   8.863   6.786   3.934
16151TIP3    H248331   8.740   6.708   3.975
16152TIP3   OH248332   9.382   7.159   4.151
16152TIP3    H148333   9.364   7.252   4.173
16152TIP3    H248334   9.353   7.114   4.232
16153TIP3   OH248335   9.523   7.742   4.680
16153TIP3    H148336   9.566   7.812   4.627
16153TIP3    H248337   9.600   7.702   4.723
16154TIP3   OH248338   9.172   7.639   4.063
16154TIP3    H148339   9.086   7.645   4.110
16154TIP3    H248340   9.202   7.732   4.067
16155TIP3   OH248341   9.906   7.386   4.639
16155TIP3    H148342   9.907   7.378   4.736
16155TIP3    H248343   9.976   7.325   4.612
16156TIP3   OH248344   9.246   6.519   5.209
16156TIP3    H148345   9.149   6.526   5.223
16156TIP3    H248346   9.272   6.460   5.281
16157TIP3   OH248347   8.960   7.606   4.841
16157TIP3    H148348   9.013   7.529   4.865
16157TIP3    H248349   8.992   7.671   4.904
16158TIP3   OH248350   9.249   7.251   3.522
16158TIP3    H148351   9.266   7.159   3.492
16158TIP3    H248352   9.235   7.237   3.618
16159TIP3   OH248353   9.197   7.254   3.796
16159TIP3    H148354   9.273   7.228   3.851
16159TIP3    H248355   9.201   7.352   3.800
16160TIP3   OH248356   8.934   6.948   3.997
16160TIP3    H148357   8.867   6.993   4.053
16160TIP3    H248358   8.949   7.017   3.930
16161TIP3   OH248359  10.123   6.581   4.915
16161TIP3    H148360  10.145   6.631   4.996
16161TIP3    H248361  10.077   6.504   4.954
16162TIP3   OH248362   9.934   6.351   4.057
16162TIP3    H148363   9.953   6.360   3.963
16162TIP3    H248364   9.992   6.419   4.097
16163TIP3   OH248365   9.460   7.451   3.742
16163TIP3    H148366   9.374   7.481   3.777
16163TIP3    H248367   9.479   7.522   3.679
16164TIP3   OH248368   9.646   6.513   4.156
16164TIP3    H148369   9.712   6.583   4.134
16164TIP3    H248370   9.654   6.509   4.253
16165TIP3   OH248371   9.920   6.830   4.966
16165TIP3    H148372   9.930   6.896   5.037
16165TIP3    H248373   9.988   6.765   4.990
16166TIP3   OH248374   9.795   6.248   4.264
16166TIP3    H148375   9.777   6.329   4.316
16166TIP3    H248376   9.850   6.286   4.191
16167TIP3   OH248377   9.202   7.527   3.809
16167TIP3    H148378   9.174   7.598   3.746
16167TIP3    H248379   9.188   7.571   3.895
16168TIP3   OH248380   9.308   6.240   4.052
16168TIP3    H148381   9.305   6.334   4.081
16168TIP3    H248382   9.404   6.224   4.057
16169TIP3   OH248383   8.924   7.159   3.803
16169TIP3    H148384   8.991   7.229   3.812
16169TIP3    H248385   8.969   7.104   3.735
16170TIP3   OH248386   8.868   6.432   3.936
16170TIP3    H148387   8.868   6.530   3.932
16170TIP3    H248388   8.785   6.411   3.892
16171TIP3   OH248389   9.260   6.153   4.809
16171TIP3    H148390   9.224   6.121   4.723
16171TIP3    H248391   9.246   6.075   4.867
16172TIP3   OH248392   8.799   7.376   4.192
16172TIP3    H148393   8.722   7.404   4.243
16172TIP3    H248394   8.775   7.413   4.104
16173TIP3   OH248395   8.952   7.912   5.259
16173TIP3    H148396   9.038   7.911   5.307
16173TIP3    H248397   8.931   7.817   5.259
16174TIP3   OH248398   9.433   7.876   5.308
16174TIP3    H148399   9.529   7.870   5.306
16174TIP3    H248400   9.408   7.818   5.233
16175TIP3   OH248401   9.415   7.454   3.437
16175TIP3    H148402   9.358   7.383   3.475
16175TIP3    H248403   9.487   7.401   3.401
16176TIP3   OH248404  10.075   7.784   5.048
16176TIP3    H148405  10.057   7.710   5.110
16176TIP3    H248406  10.153   7.824   5.087
16177TIP3   OH248407   9.083   7.318   5.461
16177TIP3    H148408   9.098   7.222   5.466
16177TIP3    H248409   8.994   7.321   5.418
16178TIP3   OH248410   9.059   6.970   3.655
16178TIP3    H148411   9.116   6.940   3.728
16178TIP3    H248412   9.126   6.976   3.583
16179TIP3   OH248413   9.692   7.404   5.234
16179TIP3    H148414   9.648   7.422   5.148
16179TIP3    H248415   9.720   7.311   5.225
16180TIP3   OH248416   9.563   7.167   3.455
16180TIP3    H148417   9.575   7.186   3.551
16180TIP3    H248418   9.557   7.069   3.458
16181TIP3   OH248419   9.200   7.052   5.444
16181TIP3    H148420   9.276   6.996   5.424
16181TIP3    H248421   9.225   7.086   5.532
16182TIP3   OH248422   9.263   6.873   3.876
16182TIP3    H148423   9.240   6.834   3.961
16182TIP3    H248424   9.301   6.796   3.827
16183TIP3   OH248425   9.540   6.939   5.104
16183TIP3    H148426   9.460   6.997   5.107
16183TIP3    H248427   9.586   6.973   5.024
16184TIP3   OH248428   9.366   6.664   3.718
16184TIP3    H148429   9.338   6.670   3.624
16184TIP3    H248430   9.463   6.676   3.708
16185TIP3   OH248431  10.044   7.341   5.246
16185TIP3    H148432  10.121   7.320   5.191
16185TIP3    H248433  10.046   7.271   5.314
16186TIP3   OH248434   9.664   6.728   5.229
16186TIP3    H148435   9.658   6.647   5.174
16186TIP3    H248436   9.619   6.795   5.173
16187TIP3   OH248437   9.662   6.506   5.041
16187TIP3    H148438   9.687   6.557   4.961
16187TIP3    H248439   9.567   6.487   5.022
16188TIP3   OH248440   9.697   7.049   4.909
16188TIP3    H148441   9.776   7.060   4.854
16188TIP3    H248442   9.637   7.115   4.868
16189TIP3   OH248443  10.283   7.018   5.297
16189TIP3    H148444  10.321   6.929   5.298
16189TIP3    H248445  10.361   7.073   5.281
16190TIP3   OH248446   9.538   6.837   5.459
16190TIP3    H148447   9.468   6.770   5.474
16190TIP3    H248448   9.571   6.812   5.371
16191TIP3   OH248449   9.792   6.273   5.098
16191TIP3    H148450   9.742   6.356   5.080
16191TIP3    H248451   9.721   6.206   5.090
16192TIP3   OH248452   9.924   6.778   5.319
16192TIP3    H148453   9.906   6.769   5.415
16192TIP3    H248454   9.833   6.758   5.286
16193TIP3   OH248455  10.152   6.695   5.169
16193TIP3    H148456  10.074   6.722   5.222
16193TIP3    H248457  10.220   6.689   5.238
16194TIP3   OH248458  10.367   6.665   5.352
16194TIP3    H148459  10.415   6.592   5.392
16194TIP3    H248460  10.369   6.729   5.427
16195TIP3   OH248461   9.377   6.619   5.513
16195TIP3    H148462   9.383   6.527   5.480
16195TIP3    H248463   9.411   6.608   5.604
16196TIP3   OH248464   9.900   6.292   5.352
16196TIP3    H148465   9.953   6.211   5.353
16196TIP3    H248466   9.849   6.281   5.269
16197TIP3   OH248467   9.960   6.505   5.517
16197TIP3    H148468   9.934   6.435   5.454
16197TIP3    H248469   9.881   6.564   5.516
16198TIP3   OH248470   9.176   7.733   3.625
16198TIP3    H148471   9.270   7.726   3.603
16198TIP3    H248472   9.144   7.777   3.544
16199TIP3   OH248473   8.656   7.111   3.840
16199TIP3    H148474   8.750   7.133   3.825
16199TIP3    H248475   8.650   7.023   3.798
16200TIP3   OH248476   8.567   7.727   4.253
16200TIP3    H148477   8.502   7.663   4.216
16200TIP3    H248478   8.613   7.670   4.318
16201TIP3   OH248479   8.703   7.580   4.440
16201TIP3    H148480   8.694   7.502   4.497
16201TIP3    H248481   8.757   7.638   4.497
16202TIP3   OH248482   8.893   6.982   4.810
16202TIP3    H148483   8.892   6.953   4.717
16202TIP3    H248484   8.991   6.985   4.827
16203TIP3   OH248485   9.110   6.669   5.482
16203TIP3    H148486   9.207   6.663   5.486
16203TIP3    H248487   9.086   6.584   5.526
16204TIP3   OH248488   9.073   6.360   4.813
16204TIP3    H148489   9.138   6.288   4.826
16204TIP3    H248490   9.133   6.438   4.809
16205TIP3   OH248491   8.876   6.634   4.890
16205TIP3    H148492   8.924   6.631   4.805
16205TIP3    H248493   8.900   6.722   4.923
16206TIP3   OH248494   8.858   6.137   4.389
16206TIP3    H148495   8.764   6.137   4.415
16206TIP3    H248496   8.857   6.197   4.311
16207TIP3   OH248497   9.078   6.215   5.202
16207TIP3    H148498   9.029   6.212   5.286
16207TIP3    H248499   9.012   6.257   5.143
16208TIP3   OH248500   9.117   7.647   5.283
16208TIP3    H148501   9.026   7.617   5.265
16208TIP3    H248502   9.127   7.627   5.377
16209TIP3   OH248503   9.296   7.679   4.829
16209TIP3    H148504   9.250   7.755   4.789
16209TIP3    H248505   9.383   7.691   4.786
16210TIP3   OH248506   9.742   7.923   4.970
16210TIP3    H148507   9.783   7.929   5.059
16210TIP3    H248508   9.807   7.975   4.918
16211TIP3   OH248509   9.919   8.075   4.825
16211TIP3    H148510   9.947   8.011   4.756
16211TIP3    H248511  10.003   8.124   4.837
16212TIP3   OH248512   8.971   7.939   4.849
16212TIP3    H148513   8.882   7.974   4.830
16212TIP3    H248514   8.982   7.965   4.941
16213TIP3   OH248515   9.208   7.914   4.710
16213TIP3    H148516   9.121   7.928   4.754
16213TIP3    H248517   9.189   7.945   4.620
16214TIP3   OH248518   9.632   7.938   4.507
16214TIP3    H148519   9.564   7.963   4.442
16214TIP3    H248520   9.650   8.024   4.552
16215TIP3   OH248521   9.905   7.909   4.589
16215TIP3    H148522   9.818   7.894   4.548
16215TIP3    H248523   9.948   7.965   4.522
16216TIP3   OH248524   8.885   7.730   4.599
16216TIP3    H148525   8.913   7.705   4.689
16216TIP3    H248526   8.956   7.686   4.547
16217TIP3   OH248527   9.077   7.601   4.455
16217TIP3    H148528   9.093   7.516   4.502
16217TIP3    H248529   9.168   7.637   4.450
16218TIP3   OH248530   9.343   7.696   4.458
16218TIP3    H148531   9.378   7.607   4.440
16218TIP3    H248532   9.390   7.715   4.542
16219TIP3   OH248533   9.928   6.319   4.545
16219TIP3    H148534   9.864   6.260   4.590
16219TIP3    H248535   9.951   6.267   4.467
16220TIP3   OH248536   9.169   6.059   4.559
16220TIP3    H148537   9.076   6.030   4.559
16220TIP3    H248538   9.216   5.973   4.557
16221TIP3   OH248539   8.966   5.930   4.213
16221TIP3    H148540   8.988   5.986   4.136
16221TIP3    H248541   8.926   5.995   4.274
16222TIP3   OH248542   9.659   6.077   4.454
16222TIP3    H148543   9.675   6.141   4.382
16222TIP3    H248544   9.623   6.136   4.522
16223TIP3   OH248545   8.671   7.501   3.990
16223TIP3    H148546   8.586   7.466   3.955
16223TIP3    H248547   8.661   7.594   3.966
16224TIP3   OH248548   9.071   6.087   3.976
16224TIP3    H148549   9.120   6.028   3.915
16224TIP3    H248550   9.142   6.143   4.010
16225TIP3   OH248551   9.585   6.263   4.071
16225TIP3    H148552   9.652   6.221   4.128
16225TIP3    H248553   9.602   6.357   4.095
16226TIP3   OH248554   9.441   7.693   3.566
16226TIP3    H148555   9.529   7.715   3.530
16226TIP3    H248556   9.420   7.617   3.508
16227TIP3   OH248557   9.377   6.340   5.451
16227TIP3    H148558   9.341   6.271   5.509
16227TIP3    H248559   9.471   6.341   5.480
16228TIP3   OH248560   9.625   6.337   5.572
16228TIP3    H148561   9.712   6.307   5.540
16228TIP3    H248562   9.608   6.269   5.641
16229TIP3   OH248563   8.749   7.527   3.628
16229TIP3    H148564   8.751   7.552   3.721
16229TIP3    H248565   8.837   7.485   3.615
16230TIP3   OH248566   0.818   7.891   6.390
16230TIP3    H148567   0.864   7.837   6.456
16230TIP3    H248568   0.851   7.980   6.410
16231TIP3   OH248569   1.324   7.149   6.759
16231TIP3    H148570   1.356   7.232   6.800
16231TIP3    H248571   1.349   7.164   6.666
16232TIP3   OH248572   0.801   7.326   6.788
16232TIP3    H148573   0.832   7.235   6.808
16232TIP3    H248574   0.774   7.312   6.696
16233TIP3   OH248575   0.752   7.079   6.386
16233TIP3    H148576   0.828   7.061   6.447
16233TIP3    H248577   0.801   7.106   6.306
16234TIP3   OH248578   1.398   7.362   6.917
16234TIP3    H148579   1.310   7.404   6.907
16234TIP3    H248580   1.403   7.354   7.013
16235TIP3   OH248581   0.969   7.080   6.550
16235TIP3    H148582   0.955   7.033   6.634
16235TIP3    H248583   1.028   7.153   6.577
16236TIP3   OH248584   1.128   7.049   6.932
16236TIP3    H148585   1.040   7.079   6.907
16236TIP3    H248586   1.183   7.078   6.856
16237TIP3   OH248587   0.661   7.954   6.160
16237TIP3    H148588   0.667   7.895   6.083
16237TIP3    H248589   0.741   7.931   6.210
16238TIP3   OH248590   1.069   8.063   6.913
16238TIP3    H148591   1.033   7.982   6.872
16238TIP3    H248592   1.040   8.130   6.848
16239TIP3   OH248593   1.271   7.688   6.752
16239TIP3    H148594   1.183   7.731   6.759
16239TIP3    H248595   1.293   7.711   6.659
16240TIP3   OH248596   0.702   7.540   6.148
16240TIP3    H148597   0.649   7.470   6.190
16240TIP3    H248598   0.793   7.509   6.171
16241TIP3   OH248599   0.949   7.587   7.029
16241TIP3    H148600   0.940   7.657   7.097
16241TIP3    H248601   0.861   7.588   6.990
16242TIP3   OH248602   0.600   7.361   5.951
16242TIP3    H148603   0.595   7.445   6.000
16242TIP3    H248604   0.590   7.391   5.859
16243TIP3   OH248605   1.051   6.634   6.009
16243TIP3    H148606   0.970   6.654   6.061
16243TIP3    H248607   1.063   6.717   5.959
16244TIP3   OH248608   0.850   8.003   5.560
16244TIP3    H148609   0.862   8.099   5.545
16244TIP3    H248610   0.942   7.971   5.546
16245TIP3   OH248611   1.307   8.393   6.951
16245TIP3    H148612   1.304   8.298   6.971
16245TIP3    H248613   1.214   8.419   6.971
16246TIP3   OH248614   1.190   7.539   7.215
16246TIP3    H148615   1.100   7.546   7.179
16246TIP3    H248616   1.200   7.442   7.222
16247TIP3   OH248617   0.726   6.885   7.253
16247TIP3    H148618   0.802   6.829   7.282
16247TIP3    H248619   0.651   6.826   7.275
16248TIP3   OH248620   0.968   7.302   7.162
16248TIP3    H148621   0.946   7.318   7.255
16248TIP3    H248622   0.918   7.377   7.122
16249TIP3   OH248623   0.602   7.458   5.692
16249TIP3    H148624   0.581   7.409   5.609
16249TIP3    H248625   0.694   7.486   5.674
16250TIP3   OH248626   0.652   7.285   6.542
16250TIP3    H148627   0.565   7.295   6.500
16250TIP3    H248628   0.683   7.203   6.497
16251TIP3   OH248629   0.823   7.053   6.806
16251TIP3    H148630   0.823   7.052   6.904
16251TIP3    H248631   0.750   6.991   6.788
16252TIP3   OH248632   1.041   7.824   6.742
16252TIP3    H148633   1.064   7.881   6.665
16252TIP3    H248634   0.945   7.840   6.749
16253TIP3   OH248635   0.536   6.919   5.973
16253TIP3    H148636   0.457   6.974   5.973
16253TIP3    H248637   0.603   6.990   5.991
16254TIP3   OH248638   0.676   7.127   6.064
16254TIP3    H148639   0.764   7.159   6.091
16254TIP3    H248640   0.637   7.209   6.026
16255TIP3   OH248641   1.086   7.253   5.916
16255TIP3    H148642   1.024   7.208   5.854
16255TIP3    H248643   1.085   7.341   5.873
16256TIP3   OH248644   1.315   8.110   6.998
16256TIP3    H148645   1.217   8.106   6.991
16256TIP3    H248646   1.339   8.079   6.908
16257TIP3   OH248647   0.790   8.071   5.824
16257TIP3    H148648   0.763   7.995   5.878
16257TIP3    H248649   0.808   8.032   5.737
16258TIP3   OH248650   0.772   7.705   6.628
16258TIP3    H148651   0.713   7.666   6.693
16258TIP3    H248652   0.820   7.626   6.595
16259TIP3   OH248653   0.877   8.280   5.544
16259TIP3    H148654   0.931   8.347   5.499
16259TIP3    H248655   0.789   8.319   5.529
16260TIP3   OH248656   0.708   7.757   5.957
16260TIP3    H148657   0.693   7.680   6.014
16260TIP3    H248658   0.801   7.742   5.931
16261TIP3   OH248659   0.829   7.072   7.070
16261TIP3    H148660   0.869   7.151   7.112
16261TIP3    H248661   0.805   7.017   7.146
16262TIP3   OH248662   0.630   6.857   6.244
16262TIP3    H148663   0.600   6.896   6.161
16262TIP3    H248664   0.651   6.937   6.297
16263TIP3   OH248665   1.233   7.262   7.134
16263TIP3    H148666   1.136   7.268   7.149
16263TIP3    H248667   1.233   7.204   7.056
16264TIP3   OH248668   0.872   7.464   6.529
16264TIP3    H148669   0.799   7.400   6.534
16264TIP3    H248670   0.944   7.418   6.579
16265TIP3   OH248671   0.900   8.356   6.466
16265TIP3    H148672   0.809   8.390   6.451
16265TIP3    H248673   0.948   8.437   6.482
16266TIP3   OH248674   0.845   7.533   5.583
16266TIP3    H148675   0.832   7.482   5.501
16266TIP3    H248676   0.821   7.622   5.550
16267TIP3   OH248677   0.959   7.508   7.453
16267TIP3    H148678   0.980   7.463   7.537
16267TIP3    H248679   0.980   7.600   7.476
16268TIP3   OH248680   0.972   7.793   7.210
16268TIP3    H148681   0.916   7.861   7.172
16268TIP3    H248682   1.061   7.816   7.174
16269TIP3   OH248683   0.786   7.193   7.421
16269TIP3    H148684   0.768   7.284   7.384
16269TIP3    H248685   0.877   7.210   7.457
16270TIP3   OH248686   1.034   7.194   7.531
16270TIP3    H148687   1.062   7.104   7.559
16270TIP3    H248688   1.023   7.242   7.616
16271TIP3   OH248689   1.154   8.600   6.448
16271TIP3    H148690   1.118   8.566   6.531
16271TIP3    H248691   1.097   8.566   6.378
16272TIP3   OH248692   1.100   8.514   6.705
16272TIP3    H148693   1.085   8.421   6.730
16272TIP3    H248694   1.181   8.533   6.755
16273TIP3   OH248695   1.162   8.208   7.286
16273TIP3    H148696   1.108   8.207   7.366
16273TIP3    H248697   1.208   8.295   7.292
16274TIP3   OH248698   0.980   7.720   5.916
16274TIP3    H148699   1.050   7.781   5.886
16274TIP3    H248700   1.023   7.679   5.994
16275TIP3   OH248701   1.106   7.589   6.120
16275TIP3    H148702   1.045   7.540   6.179
16275TIP3    H248703   1.174   7.622   6.182
16276TIP3   OH248704   1.149   7.975   6.540
16276TIP3    H148705   1.211   7.911   6.500
16276TIP3    H248706   1.164   8.056   6.487
16277TIP3   OH248707   0.964   8.258   6.741
16277TIP3    H148708   0.911   8.329   6.780
16277TIP3    H248709   0.944   8.269   6.646
16278TIP3   OH248710   1.047   7.493   5.768
16278TIP3    H148711   0.976   7.494   5.700
16278TIP3    H248712   1.019   7.570   5.822
16279TIP3   OH248713   0.919   7.167   5.719
16279TIP3    H148714   0.881   7.200   5.637
16279TIP3    H248715   0.893   7.073   5.716
16280TIP3   OH248716   0.928   7.434   6.262
16280TIP3    H148717   0.938   7.337   6.253
16280TIP3    H248718   0.919   7.445   6.360
16281TIP3   OH248719   1.215   7.868   7.122
16281TIP3    H148720   1.285   7.799   7.113
16281TIP3    H248721   1.243   7.935   7.058
16282TIP3   OH248722   1.405   7.676   7.136
16282TIP3    H148723   1.328   7.625   7.171
16282TIP3    H248724   1.476   7.612   7.156
16283TIP3   OH248725   0.859   6.903   5.717
16283TIP3    H148726   0.942   6.872   5.760
16283TIP3    H248727   0.796   6.832   5.737
16284TIP3   OH248728   0.934   7.164   6.169
16284TIP3    H148729   0.969   7.074   6.186
16284TIP3    H248730   0.987   7.189   6.092
16285TIP3   OH248731   1.082   7.332   6.651
16285TIP3    H148732   1.170   7.358   6.615
16285TIP3    H248733   1.092   7.367   6.742
16286TIP3   OH248734   1.150   7.471   6.882
16286TIP3    H148735   1.076   7.510   6.935
16286TIP3    H248736   1.188   7.551   6.841
16287TIP3   OH248737   1.598   7.063   7.444
16287TIP3    H148738   1.658   6.997   7.404
16287TIP3    H248739   1.576   7.120   7.367
16288TIP3   OH248740   1.027   6.908   6.200
16288TIP3    H148741   1.076   6.890   6.283
16288TIP3    H248742   0.967   6.831   6.197
16289TIP3   OH248743   1.481   7.214   7.248
16289TIP3    H148744   1.392   7.246   7.270
16289TIP3    H248745   1.458   7.139   7.190
16290TIP3   OH248746   1.109   6.843   5.828
16290TIP3    H148747   1.149   6.769   5.779
16290TIP3    H248748   1.179   6.911   5.823
16291TIP3   OH248749   1.374   6.966   7.129
16291TIP3    H148750   1.283   6.957   7.096
16291TIP3    H248751   1.406   6.873   7.118
16292TIP3   OH248752   0.623   6.855   6.769
16292TIP3    H148753   0.613   6.775   6.824
16292TIP3    H248754   0.696   6.826   6.710
16293TIP3   OH248755   1.102   6.769   6.655
16293TIP3    H148756   1.139   6.818   6.578
16293TIP3    H248757   1.006   6.783   6.643
16294TIP3   OH248758   1.194   6.865   6.416
16294TIP3    H148759   1.267   6.813   6.377
16294TIP3    H248760   1.228   6.957   6.401
16295TIP3   OH248761   0.827   6.761   6.616
16295TIP3    H148762   0.836   6.722   6.528
16295TIP3    H248763   0.812   6.681   6.671
16296TIP3   OH248764   0.846   6.694   6.187
16296TIP3    H148765   0.762   6.741   6.204
16296TIP3    H248766   0.831   6.609   6.234
16297TIP3   OH248767   0.822   8.342   5.850
16297TIP3    H148768   0.814   8.245   5.861
16297TIP3    H248769   0.778   8.353   5.765
16298TIP3   OH248770   1.107   6.929   7.565
16298TIP3    H148771   1.128   6.897   7.656
16298TIP3    H248772   1.196   6.926   7.522
16299TIP3   OH248773   1.051   8.473   6.997
16299TIP3    H148774   0.966   8.439   7.028
16299TIP3    H248775   1.056   8.553   7.051
16300TIP3   OH248776   2.310   7.854   5.823
16300TIP3    H148777   2.282   7.946   5.803
16300TIP3    H248778   2.235   7.806   5.786
16301TIP3   OH248779   2.306   7.858   6.202
16301TIP3    H148780   2.340   7.826   6.287
16301TIP3    H248781   2.271   7.777   6.162
16302TIP3   OH248782   1.611   7.761   6.567
16302TIP3    H148783   1.647   7.740   6.653
16302TIP3    H248784   1.684   7.810   6.526
16303TIP3   OH248785   2.551   8.158   5.883
16303TIP3    H148786   2.542   8.087   5.948
16303TIP3    H248787   2.584   8.232   5.936
16304TIP3   OH248788   1.583   8.157   6.295
16304TIP3    H148789   1.576   8.059   6.296
16304TIP3    H248790   1.679   8.168   6.285
16305TIP3   OH248791   1.287   7.366   6.079
16305TIP3    H148792   1.236   7.449   6.088
16305TIP3    H248793   1.219   7.308   6.041
16306TIP3   OH248794   1.346   7.652   6.248
16306TIP3    H148795   1.395   7.574   6.284
16306TIP3    H248796   1.403   7.679   6.175
16307TIP3   OH248797   2.202   8.621   5.899
16307TIP3    H148798   2.248   8.550   5.849
16307TIP3    H248799   2.198   8.582   5.987
16308TIP3   OH248800   2.109   8.080   6.252
16308TIP3    H148801   2.148   8.004   6.205
16308TIP3    H248802   2.192   8.127   6.275
16309TIP3   OH248803   3.120   7.402   6.246
16309TIP3    H148804   3.150   7.484   6.289
16309TIP3    H248805   3.146   7.419   6.153
16310TIP3   OH248806   2.517   7.584   6.284
16310TIP3    H148807   2.564   7.500   6.303
16310TIP3    H248808   2.490   7.568   6.192
16311TIP3   OH248809   1.856   7.242   6.249
16311TIP3    H148810   1.839   7.314   6.184
16311TIP3    H248811   1.811   7.167   6.203
16312TIP3   OH248812   2.552   7.335   5.870
16312TIP3    H148813   2.624   7.319   5.935
16312TIP3    H248814   2.605   7.369   5.795
16313TIP3   OH248815   1.494   7.446   6.353
16313TIP3    H148816   1.576   7.423   6.399
16313TIP3    H248817   1.503   7.389   6.273
16314TIP3   OH248818   1.933   7.641   6.152
16314TIP3    H148819   2.027   7.617   6.160
16314TIP3    H248820   1.894   7.558   6.116
16315TIP3   OH248821   3.195   7.607   6.418
16315TIP3    H148822   3.112   7.656   6.399
16315TIP3    H248823   3.214   7.638   6.508
16316TIP3   OH248824   1.853   7.233   6.690
16316TIP3    H148825   1.791   7.266   6.622
16316TIP3    H248826   1.794   7.185   6.751
16317TIP3   OH248827   2.199   8.074   5.694
16317TIP3    H148828   2.164   8.057   5.605
16317TIP3    H248829   2.158   8.160   5.715
16318TIP3   OH248830   1.964   8.000   6.479
16318TIP3    H148831   1.902   8.068   6.514
16318TIP3    H248832   2.008   8.049   6.406
16319TIP3   OH248833   2.762   7.337   6.041
16319TIP3    H148834   2.764   7.281   6.120
16319TIP3    H248835   2.820   7.411   6.067
16320TIP3   OH248836   1.726   7.339   6.467
16320TIP3    H148837   1.790   7.410   6.487
16320TIP3    H248838   1.771   7.297   6.390
16321TIP3   OH248839   1.790   8.195   6.574
16321TIP3    H148840   1.766   8.280   6.533
16321TIP3    H248841   1.711   8.181   6.630
16322TIP3   OH248842   1.183   7.885   5.811
16322TIP3    H148843   1.147   7.911   5.725
16322TIP3    H248844   1.215   7.971   5.847
16323TIP3   OH248845   2.624   8.400   6.052
16323TIP3    H148846   2.533   8.393   6.089
16323TIP3    H248847   2.617   8.486   6.005
16324TIP3   OH248848   2.914   7.304   6.413
16324TIP3    H148849   2.827   7.332   6.381
16324TIP3    H248850   2.975   7.334   6.342
16325TIP3   OH248851   2.212   6.944   6.393
16325TIP3    H148852   2.204   6.848   6.412
16325TIP3    H248853   2.134   6.979   6.441
16326TIP3   OH248854   2.325   8.448   5.724
16326TIP3    H148855   2.374   8.366   5.704
16326TIP3    H248856   2.387   8.514   5.683
16327TIP3   OH248857   2.465   8.233   5.632
16327TIP3    H148858   2.441   8.153   5.583
16327TIP3    H248859   2.501   8.196   5.715
16328TIP3   OH248860   2.849   8.314   6.395
16328TIP3    H148861   2.841   8.237   6.334
16328TIP3    H248862   2.835   8.389   6.333
16329TIP3   OH248863   2.142   7.708   5.650
16329TIP3    H148864   2.063   7.760   5.627
16329TIP3    H248865   2.190   7.704   5.566
16330TIP3   OH248866   2.101   7.491   5.369
16330TIP3    H148867   2.169   7.542   5.416
16330TIP3    H248868   2.158   7.428   5.321
16331TIP3   OH248869   3.044   7.948   6.238
16331TIP3    H148870   2.963   8.003   6.243
16331TIP3    H248871   3.076   7.973   6.148
16332TIP3   OH248872   2.488   7.789   5.624
16332TIP3    H148873   2.435   7.814   5.703
16332TIP3    H248874   2.573   7.764   5.666
16333TIP3   OH248875   2.725   7.830   6.535
16333TIP3    H148876   2.723   7.913   6.585
16333TIP3    H248877   2.640   7.836   6.487
16334TIP3   OH248878   1.720   7.789   6.042
16334TIP3    H148879   1.678   7.731   5.974
16334TIP3    H248880   1.797   7.735   6.069
16335TIP3   OH248881   1.848   8.194   6.191
16335TIP3    H148882   1.831   8.158   6.103
16335TIP3    H248883   1.940   8.163   6.208
16336TIP3   OH248884   1.856   7.762   6.394
16336TIP3    H148885   1.889   7.738   6.304
16336TIP3    H248886   1.902   7.847   6.411
16337TIP3   OH248887   2.380   8.398   6.170
16337TIP3    H148888   2.369   8.477   6.225
16337TIP3    H248889   2.368   8.324   6.234
16338TIP3   OH248890   1.996   8.315   6.720
16338TIP3    H148891   1.935   8.379   6.764
16338TIP3    H248892   1.931   8.263   6.669
16339TIP3   OH248893   2.329   7.649   5.449
16339TIP3    H148894   2.389   7.707   5.501
16339TIP3    H248895   2.356   7.672   5.356
16340TIP3   OH248896   1.743   7.866   6.824
16340TIP3    H148897   1.755   7.956   6.863
16340TIP3    H248898   1.647   7.854   6.842
16341TIP3   OH248899   2.071   8.330   5.727
16341TIP3    H148900   2.152   8.382   5.741
16341TIP3    H248901   2.012   8.394   5.684
16342TIP3   OH248902   1.791   8.485   6.803
16342TIP3    H148903   1.755   8.486   6.713
16342TIP3    H248904   1.713   8.462   6.857
16343TIP3   OH248905   2.846   6.890   5.496
16343TIP3    H148906   2.765   6.909   5.548
16343TIP3    H248907   2.858   6.973   5.447
16344TIP3   OH248908   1.585   7.632   5.850
16344TIP3    H148909   1.522   7.676   5.789
16344TIP3    H248910   1.550   7.542   5.853
16345TIP3   OH248911   2.646   8.257   5.045
16345TIP3    H148912   2.655   8.354   5.032
16345TIP3    H248913   2.738   8.229   5.021
16346TIP3   OH248914   1.371   8.010   6.754
16346TIP3    H148915   1.308   7.990   6.682
16346TIP3    H248916   1.407   7.922   6.776
16347TIP3   OH248917   1.233   8.206   6.397
16347TIP3    H148918   1.322   8.189   6.365
16347TIP3    H248919   1.250   8.285   6.451
16348TIP3   OH248920   3.085   8.657   6.438
16348TIP3    H148921   3.086   8.560   6.451
16348TIP3    H248922   3.002   8.681   6.485
16349TIP3   OH248923   2.195   8.445   6.575
16349TIP3    H148924   2.194   8.538   6.607
16349TIP3    H248925   2.123   8.405   6.630
16350TIP3   OH248926   1.953   8.573   5.527
16350TIP3    H148927   1.908   8.555   5.442
16350TIP3    H248928   1.921   8.662   5.550
16351TIP3   OH248929   1.391   8.424   5.909
16351TIP3    H148930   1.445   8.412   5.991
16351TIP3    H248931   1.333   8.347   5.915
16352TIP3   OH248932   2.156   8.475   5.166
16352TIP3    H148933   2.215   8.405   5.129
16352TIP3    H248934   2.191   8.483   5.257
16353TIP3   OH248935   2.206   8.525   5.436
16353TIP3    H148936   2.118   8.533   5.480
16353TIP3    H248937   2.258   8.482   5.506
16354TIP3   OH248938   2.975   7.788   6.717
16354TIP3    H148939   2.898   7.801   6.659
16354TIP3    H248940   2.993   7.692   6.704
16355TIP3   OH248941   1.575   8.195   6.741
16355TIP3    H148942   1.624   8.181   6.824
16355TIP3    H248943   1.500   8.133   6.750
16356TIP3   OH248944   1.974   7.021   6.521
16356TIP3    H148945   1.884   6.989   6.498
16356TIP3    H248946   1.952   7.108   6.557
16357TIP3   OH248947   2.508   7.139   6.718
16357TIP3    H148948   2.578   7.108   6.780
16357TIP3    H248949   2.426   7.114   6.765
16358TIP3   OH248950   2.744   7.563   6.634
16358TIP3    H148951   2.698   7.562   6.721
16358TIP3    H248952   2.725   7.653   6.601
16359TIP3   OH248953   2.405   7.697   5.193
16359TIP3    H148954   2.373   7.670   5.105
16359TIP3    H248955   2.487   7.744   5.169
16360TIP3   OH248956   2.118   7.072   5.494
16360TIP3    H148957   2.086   7.068   5.587
16360TIP3    H248958   2.081   6.987   5.461
16361TIP3   OH248959   1.903   7.538   6.539
16361TIP3    H148960   1.900   7.585   6.624
16361TIP3    H248961   1.888   7.613   6.476
16362TIP3   OH248962   1.789   7.423   6.057
16362TIP3    H148963   1.696   7.396   6.073
16362TIP3    H248964   1.804   7.383   5.969
16363TIP3   OH248965   2.280   7.509   5.784
16363TIP3    H148966   2.227   7.580   5.741
16363TIP3    H248967   2.335   7.478   5.709
16364TIP3   OH248968   2.456   7.790   6.872
16364TIP3    H148969   2.436   7.715   6.933
16364TIP3    H248970   2.551   7.802   6.891
16365TIP3   OH248971   2.435   7.538   6.024
16365TIP3    H148972   2.378   7.567   5.950
16365TIP3    H248973   2.470   7.456   5.982
16366TIP3   OH248974   1.773   7.043   5.461
16366TIP3    H148975   1.767   7.039   5.558
16366TIP3    H248976   1.693   7.094   5.439
16367TIP3   OH248977   1.316   7.091   6.332
16367TIP3    H148978   1.394   7.118   6.384
16367TIP3    H248979   1.354   7.054   6.250
16368TIP3   OH248980   1.292   7.068   5.853
16368TIP3    H148981   1.337   7.105   5.774
16368TIP3    H248982   1.230   7.142   5.872
16369TIP3   OH248983   2.443   7.782   6.448
16369TIP3    H148984   2.477   7.711   6.389
16369TIP3    H248985   2.418   7.729   6.526
16370TIP3   OH248986   2.116   7.251   6.119
16370TIP3    H148987   2.036   7.243   6.173
16370TIP3    H248988   2.187   7.240   6.185
16371TIP3   OH248989   1.550   7.299   6.128
16371TIP3    H148990   1.456   7.304   6.099
16371TIP3    H248991   1.575   7.208   6.103
16372TIP3   OH248992   1.820   7.300   5.815
16372TIP3    H148993   1.915   7.311   5.794
16372TIP3    H248994   1.776   7.321   5.730
16373TIP3   OH248995   2.608   7.323   6.324
16373TIP3    H148996   2.568   7.332   6.413
16373TIP3    H248997   2.548   7.259   6.283
16374TIP3   OH248998   1.659   7.332   5.593
16374TIP3    H148999   1.589   7.287   5.544
16374TIP3    H249000   1.712   7.368   5.518
16375TIP3   OH249001   2.777   9.010   6.538
16375TIP3    H149002   2.776   9.031   6.443
16375TIP3    H249003   2.857   9.057   6.567
16376TIP3   OH249004   1.737   8.115   6.961
16376TIP3    H149005   1.817   8.148   7.006
16376TIP3    H249006   1.672   8.121   7.034
16377TIP3   OH249007   2.200   7.572   6.215
16377TIP3    H149008   2.271   7.536   6.158
16377TIP3    H249009   2.217   7.526   6.299
16378TIP3   OH249010   1.724   7.061   6.092
16378TIP3    H149011   1.691   6.981   6.138
16378TIP3    H249012   1.777   7.023   6.021
16379TIP3   OH249013   2.179   7.462   6.509
16379TIP3    H149014   2.092   7.504   6.512
16379TIP3    H249015   2.238   7.525   6.555
16380TIP3   OH249016   1.911   7.862   5.599
16380TIP3    H149017   1.839   7.796   5.589
16380TIP3    H249018   1.895   7.894   5.691
16381TIP3   OH249019   2.813   8.098   6.230
16381TIP3    H149020   2.839   8.146   6.149
16381TIP3    H249021   2.729   8.056   6.204
16382TIP3   OH249022   2.371   7.173   5.463
16382TIP3    H149023   2.274   7.157   5.470
16382TIP3    H249024   2.381   7.267   5.486
16383TIP3   OH249025   2.304   8.174   6.601
16383TIP3    H149026   2.343   8.163   6.688
16383TIP3    H249027   2.275   8.266   6.601
16384TIP3   OH249028   2.441   7.421   5.566
16384TIP3    H149029   2.537   7.425   5.581
16384TIP3    H249030   2.424   7.500   5.511
16385TIP3   OH249031   1.605   7.879   6.277
16385TIP3    H149032   1.639   7.858   6.187
16385TIP3    H249033   1.649   7.811   6.329
16386TIP3   OH249034   2.058   8.010   5.420
16386TIP3    H149035   2.011   8.096   5.427
16386TIP3    H249036   2.004   7.955   5.481
16387TIP3   OH249037   1.487   7.794   6.892
16387TIP3    H149038   1.491   7.776   6.988
16387TIP3    H249039   1.413   7.735   6.865
16388TIP3   OH249040   2.212   7.911   6.904
16388TIP3    H149041   2.171   7.875   6.824
16388TIP3    H249042   2.305   7.883   6.889
16389TIP3   OH249043   2.472   8.434   6.496
16389TIP3    H149044   2.376   8.438   6.506
16389TIP3    H249045   2.500   8.489   6.572
16390TIP3   OH249046   2.883   7.510   5.402
16390TIP3    H149047   2.820   7.465   5.341
16390TIP3    H249048   2.880   7.599   5.361
16391TIP3   OH249049   3.100   8.367   6.483
16391TIP3    H149050   3.002   8.361   6.473
16391TIP3    H249051   3.127   8.338   6.393
16392TIP3   OH249052   2.567   8.331   5.304
16392TIP3    H149053   2.566   8.259   5.368
16392TIP3    H249054   2.598   8.288   5.222
16393TIP3   OH249055   2.578   7.958   6.151
16393TIP3    H149056   2.484   7.933   6.161
16393TIP3    H249057   2.614   7.880   6.105
16394TIP3   OH249058   1.707   8.186   5.903
16394TIP3    H149059   1.711   8.267   5.849
16394TIP3    H249060   1.612   8.173   5.910
16395TIP3   OH249061   1.270   7.490   5.604
16395TIP3    H149062   1.316   7.574   5.624
16395TIP3    H249063   1.193   7.496   5.665
16396TIP3   OH249064   1.844   7.951   5.846
16396TIP3    H149065   1.811   8.041   5.863
16396TIP3    H249066   1.808   7.902   5.922
16397TIP3   OH249067   1.975   8.530   6.371
16397TIP3    H149068   2.014   8.603   6.320
16397TIP3    H249069   2.053   8.496   6.418
16398TIP3   OH249070   1.627   8.425   5.754
16398TIP3    H149071   1.540   8.435   5.799
16398TIP3    H249072   1.660   8.517   5.756
16399TIP3   OH249073   2.364   8.165   6.329
16399TIP3    H149074   2.356   8.159   6.427
16399TIP3    H249075   2.444   8.113   6.313
16400TIP3   OH249076   2.336   8.055   5.213
16400TIP3    H149077   2.391   8.033   5.291
16400TIP3    H249078   2.249   8.029   5.244
16401TIP3   OH249079   2.610   8.700   6.381
16401TIP3    H149080   2.532   8.644   6.369
16401TIP3    H249081   2.598   8.765   6.307
16402TIP3   OH249082   2.670   8.533   5.028
16402TIP3    H149083   2.724   8.606   4.994
16402TIP3    H249084   2.590   8.582   5.055
16403TIP3   OH249085   2.497   7.994   5.432
16403TIP3    H149086   2.488   7.924   5.501
16403TIP3    H249087   2.593   7.989   5.415
16404TIP3   OH249088   1.406   8.382   6.537
16404TIP3    H149089   1.474   8.320   6.569
16404TIP3    H249090   1.434   8.465   6.577
16405TIP3   OH249091   1.703   8.039   5.211
16405TIP3    H149092   1.720   7.947   5.181
16405TIP3    H249093   1.684   8.025   5.306
16406TIP3   OH249094   1.648   8.042   5.486
16406TIP3    H149095   1.724   8.016   5.540
16406TIP3    H249096   1.653   8.140   5.491
16407TIP3   OH249097   1.385   7.736   5.686
16407TIP3    H149098   1.320   7.782   5.743
16407TIP3    H249099   1.402   7.804   5.619
16408TIP3   OH249100   2.526   7.380   6.585
16408TIP3    H149101   2.613   7.412   6.613
16408TIP3    H249102   2.518   7.296   6.636
16409TIP3   OH249103   2.410   7.127   5.743
16409TIP3    H149104   2.400   7.148   5.649
16409TIP3    H249105   2.452   7.208   5.779
16410TIP3   OH249106   1.914   8.239   5.433
16410TIP3    H149107   1.828   8.269   5.468
16410TIP3    H249108   1.932   8.310   5.369
16411TIP3   OH249109   2.102   7.304   5.846
16411TIP3    H149110   2.168   7.374   5.827
16411TIP3    H249111   2.109   7.297   5.943
16412TIP3   OH249112   2.369   7.621   6.658
16412TIP3    H149113   2.400   7.671   6.736
16412TIP3    H249114   2.426   7.542   6.660
16413TIP3   OH249115   2.248   7.032   5.948
16413TIP3    H149116   2.247   7.108   6.009
16413TIP3    H249117   2.308   7.067   5.878
16414TIP3   OH249118   1.657   8.315   5.499
16414TIP3    H149119   1.628   8.385   5.436
16414TIP3    H249120   1.642   8.360   5.585
16415TIP3   OH249121   1.759   7.029   5.738
16415TIP3    H149122   1.758   7.119   5.774
16415TIP3    H249123   1.854   7.008   5.746
16416TIP3   OH249124   3.013   7.523   6.635
16416TIP3    H149125   2.915   7.519   6.639
16416TIP3    H249126   3.028   7.483   6.549
16417TIP3   OH249127   2.663   7.718   6.024
16417TIP3    H149128   2.590   7.656   6.034
16417TIP3    H249129   2.737   7.672   6.070
16418TIP3   OH249130   1.375   7.947   5.493
16418TIP3    H149131   1.441   8.018   5.501
16418TIP3    H249132   1.421   7.892   5.425
16419TIP3   OH249133   1.320   7.221   5.628
16419TIP3    H149134   1.320   7.318   5.621
16419TIP3    H249135   1.241   7.196   5.579
16420TIP3   OH249136   2.632   8.673   5.973
16420TIP3    H149137   2.590   8.720   5.897
16420TIP3    H249138   2.726   8.692   5.953
16421TIP3   OH249139   1.707   6.944   6.502
16421TIP3    H149140   1.678   6.908   6.415
16421TIP3    H249141   1.699   6.864   6.559
16422TIP3   OH249142   1.247   8.159   5.885
16422TIP3    H149143   1.168   8.194   5.929
16422TIP3    H249144   1.235   8.197   5.795
16423TIP3   OH249145   1.402   8.695   6.955
16423TIP3    H149146   1.490   8.700   6.999
16423TIP3    H249147   1.390   8.599   6.948
16424TIP3   OH249148   1.888   8.663   6.999
16424TIP3    H149149   1.983   8.645   6.999
16424TIP3    H249150   1.860   8.608   6.923
16425TIP3   OH249151   1.868   8.242   5.125
16425TIP3    H149152   1.812   8.170   5.162
16425TIP3    H249153   1.943   8.190   5.091
16426TIP3   OH249154   2.522   8.574   6.731
16426TIP3    H149155   2.516   8.502   6.799
16426TIP3    H249156   2.602   8.623   6.759
16427TIP3   OH249157   2.304   8.283   5.035
16427TIP3    H149158   2.351   8.224   5.096
16427TIP3    H249159   2.363   8.282   4.957
16428TIP3   OH249160   1.538   8.109   7.154
16428TIP3    H149161   1.549   8.013   7.161
16428TIP3    H249162   1.452   8.115   7.108
16429TIP3   OH249163   1.511   7.759   5.345
16429TIP3    H149164   1.567   7.725   5.417
16429TIP3    H249165   1.577   7.764   5.273
16430TIP3   OH249166   2.141   8.190   6.926
16430TIP3    H149167   2.103   8.210   6.838
16430TIP3    H249168   2.175   8.099   6.915
16431TIP3   OH249169   2.017   7.956   5.151
16431TIP3    H149170   2.023   7.969   5.248
16431TIP3    H249171   2.019   7.858   5.146
16432TIP3   OH249172   2.634   8.201   6.531
16432TIP3    H149173   2.711   8.241   6.486
16432TIP3    H249174   2.567   8.271   6.515
16433TIP3   OH249175   1.676   7.822   7.135
16433TIP3    H149176   1.764   7.785   7.149
16433TIP3    H249177   1.667   7.869   7.221
16434TIP3   OH249178   1.720   7.661   5.567
16434TIP3    H149179   1.696   7.615   5.649
16434TIP3    H249180   1.757   7.588   5.514
16435TIP3   OH249181   1.953   7.699   6.773
16435TIP3    H149182   1.896   7.777   6.788
16435TIP3    H249183   2.024   7.740   6.718
16436TIP3   OH249184   1.820   7.455   5.408
16436TIP3    H149185   1.795   7.458   5.314
16436TIP3    H249186   1.918   7.460   5.401
16437TIP3   OH249187   2.504   8.126   6.929
16437TIP3    H149188   2.585   8.107   6.880
16437TIP3    H249189   2.508   8.060   7.000
16438TIP3   OH249190   2.640   7.787   5.070
16438TIP3    H149191   2.621   7.741   4.986
16438TIP3    H249192   2.611   7.878   5.046
16439TIP3   OH249193   2.100   7.506   6.924
16439TIP3    H149194   2.115   7.423   6.874
16439TIP3    H249195   2.082   7.568   6.852
16440TIP3   OH249196   2.114   7.304   6.733
16440TIP3    H149197   2.146   7.339   6.647
16440TIP3    H249198   2.021   7.281   6.713
16441TIP3   OH249199   2.135   7.835   6.620
16441TIP3    H149200   2.219   7.833   6.571
16441TIP3    H249201   2.084   7.901   6.568
16442TIP3   OH249202   2.725   7.805   6.984
16442TIP3    H149203   2.771   7.720   6.993
16442TIP3    H249204   2.795   7.860   6.947
16443TIP3   OH249205   2.764   8.057   6.719
16443TIP3    H149206   2.708   8.111   6.659
16443TIP3    H249207   2.853   8.076   6.680
16444TIP3   OH249208   1.927   7.640   7.099
16444TIP3    H149209   1.918   7.572   7.172
16444TIP3    H249210   2.018   7.614   7.063
16445TIP3   OH249211   2.248   7.065   6.794
16445TIP3    H149212   2.197   7.146   6.773
16445TIP3    H249213   2.180   6.995   6.783
16446TIP3   OH249214   2.372   7.572   7.013
16446TIP3    H149215   2.374   7.560   7.109
16446TIP3    H249216   2.283   7.537   6.993
16447TIP3   OH249217   2.615   7.524   6.868
16447TIP3    H149218   2.540   7.517   6.930
16447TIP3    H249219   2.689   7.490   6.922
16448TIP3   OH249220   2.838   7.458   7.018
16448TIP3    H149221   2.853   7.362   7.035
16448TIP3    H249222   2.837   7.496   7.108
16449TIP3   OH249223   1.838   7.400   7.192
16449TIP3    H149224   1.831   7.305   7.166
16449TIP3    H249225   1.872   7.388   7.284
16450TIP3   OH249226   2.342   7.076   7.051
16450TIP3    H149227   2.410   7.006   7.049
16450TIP3    H249228   2.303   7.066   6.962
16451TIP3   OH249229   2.409   7.289   7.209
16451TIP3    H149230   2.389   7.216   7.147
16451TIP3    H249231   2.329   7.345   7.201
16452TIP3   OH249232   1.627   8.516   5.311
16452TIP3    H149233   1.723   8.514   5.292
16452TIP3    H249234   1.597   8.566   5.233
16453TIP3   OH249235   1.107   7.898   5.531
16453TIP3    H149236   1.201   7.922   5.515
16453TIP3    H249237   1.104   7.809   5.489
16454TIP3   OH249238   1.029   8.508   5.933
16454TIP3    H149239   0.959   8.449   5.898
16454TIP3    H249240   1.066   8.454   6.005
16455TIP3   OH249241   1.148   8.365   6.132
16455TIP3    H149242   1.151   8.290   6.193
16455TIP3    H249243   1.215   8.424   6.173
16456TIP3   OH249244   2.882   8.769   5.929
16456TIP3    H149245   2.916   8.801   6.014
16456TIP3    H249246   2.948   8.802   5.866
16457TIP3   OH249247   2.914   8.786   6.213
16457TIP3    H149248   2.872   8.698   6.205
16457TIP3    H249249   2.993   8.761   6.265
16458TIP3   OH249250   2.960   8.461   6.783
16458TIP3    H149251   2.888   8.470   6.848
16458TIP3    H249252   3.002   8.549   6.787
16459TIP3   OH249253   2.775   7.977   5.402
16459TIP3    H149254   2.834   8.050   5.379
16459TIP3    H249255   2.822   7.937   5.479
16460TIP3   OH249256   2.904   7.843   5.605
16460TIP3    H149257   2.840   7.801   5.666
16460TIP3    H249258   2.971   7.880   5.667
16461TIP3   OH249259   2.956   8.230   6.038
16461TIP3    H149260   3.011   8.167   5.988
16461TIP3    H249261   2.954   8.307   5.977
16462TIP3   OH249262   2.791   8.533   6.235
16462TIP3    H149263   2.719   8.574   6.285
16462TIP3    H249264   2.743   8.485   6.164
16463TIP3   OH249265   2.841   7.747   5.255
16463TIP3    H149266   2.770   7.751   5.187
16463TIP3    H249267   2.816   7.826   5.308
16464TIP3   OH249268   2.712   7.422   5.210
16464TIP3    H149269   2.673   7.461   5.131
16464TIP3    H249270   2.687   7.328   5.200
16465TIP3   OH249271   2.718   7.697   5.754
16465TIP3    H149272   2.728   7.601   5.748
16465TIP3    H249273   2.706   7.711   5.851
16466TIP3   OH249274   1.344   7.777   6.498
16466TIP3    H149275   1.341   7.743   6.406
16466TIP3    H249276   1.442   7.778   6.512
16467TIP3   OH249277   3.007   8.122   6.610
16467TIP3    H149278   3.080   8.056   6.603
16467TIP3    H249279   3.036   8.191   6.548
16468TIP3   OH249280   3.190   7.928   6.633
16468TIP3    H149281   3.117   7.874   6.671
16468TIP3    H249282   3.265   7.866   6.644
16469TIP3   OH249283   2.657   7.156   5.195
16469TIP3    H149284   2.734   7.126   5.248
16469TIP3    H249285   2.586   7.095   5.220
16470TIP3   OH249286   2.715   7.413   5.649
16470TIP3    H149287   2.755   7.324   5.664
16470TIP3    H249288   2.774   7.446   5.579
16471TIP3   OH249289   2.877   7.591   6.143
16471TIP3    H149290   2.963   7.616   6.102
16471TIP3    H249291   2.892   7.625   6.233
16472TIP3   OH249292   2.946   7.731   6.377
16472TIP3    H149293   2.867   7.767   6.423
16472TIP3    H249294   2.979   7.811   6.330
16473TIP3   OH249295   1.577   7.467   7.175
16473TIP3    H149296   1.669   7.442   7.194
16473TIP3    H249297   1.532   7.385   7.204
16474TIP3   OH249298   3.399   7.323   6.933
16474TIP3    H149299   3.457   7.256   6.889
16474TIP3    H249300   3.370   7.377   6.856
16475TIP3   OH249301   2.823   7.163   5.687
16475TIP3    H149302   2.873   7.147   5.770
16475TIP3    H249303   2.764   7.085   5.686
16476TIP3   OH249304   1.522   7.150   6.509
16476TIP3    H149305   1.582   7.073   6.516
16476TIP3    H249306   1.587   7.222   6.498
16477TIP3   OH249307   1.327   7.425   6.576
16477TIP3    H149308   1.377   7.414   6.493
16477TIP3    H249309   1.359   7.510   6.607
16478TIP3   OH249310   3.268   7.462   6.739
16478TIP3    H149311   3.180   7.501   6.756
16478TIP3    H249312   3.242   7.389   6.678
16479TIP3   OH249313   2.905   7.099   5.317
16479TIP3    H149314   2.945   7.026   5.267
16479TIP3    H249315   2.974   7.169   5.311
16480TIP3   OH249316   1.310   6.934   6.085
16480TIP3    H149317   1.215   6.926   6.106
16480TIP3    H249318   1.308   6.988   6.003
16481TIP3   OH249319   2.467   8.632   5.585
16481TIP3    H149320   2.518   8.614   5.503
16481TIP3    H249321   2.527   8.694   5.631
16482TIP3   OH249322   1.529   7.008   6.892
16482TIP3    H149323   1.482   7.000   6.976
16482TIP3    H249324   1.460   7.045   6.834
16483TIP3   OH249325   1.578   8.428   6.972
16483TIP3    H149326   1.485   8.404   6.954
16483TIP3    H249327   1.582   8.420   7.068
16484TIP3   OH249328   1.747   8.465   6.518
16484TIP3    H149329   1.700   8.542   6.479
16484TIP3    H249330   1.834   8.480   6.474
16485TIP3   OH249331   2.194   8.711   6.657
16485TIP3    H149332   2.236   8.714   6.745
16485TIP3    H249333   2.260   8.762   6.604
16486TIP3   OH249334   2.372   8.862   6.515
16486TIP3    H149335   2.443   8.812   6.471
16486TIP3    H249336   2.425   8.919   6.576
16487TIP3   OH249337   3.167   7.224   6.616
16487TIP3    H149338   3.076   7.216   6.582
16487TIP3    H249339   3.199   7.131   6.604
16488TIP3   OH249340   1.426   8.716   6.544
16488TIP3    H149341   1.338   8.740   6.509
16488TIP3    H249342   1.426   8.769   6.625
16489TIP3   OH249343   1.661   8.700   6.399
16489TIP3    H149344   1.576   8.714   6.445
16489TIP3    H249345   1.642   8.736   6.310
16490TIP3   OH249346   2.086   8.731   6.199
16490TIP3    H149347   2.019   8.751   6.131
16490TIP3    H249348   2.099   8.819   6.239
16491TIP3   OH249349   2.355   8.671   6.251
16491TIP3    H149350   2.262   8.688   6.229
16491TIP3    H249351   2.399   8.745   6.206
16492TIP3   OH249352   2.563   8.863   6.165
16492TIP3    H149353   2.549   8.947   6.116
16492TIP3    H249354   2.590   8.803   6.092
16493TIP3   OH249355   1.344   8.506   6.258
16493TIP3    H149356   1.352   8.507   6.355
16493TIP3    H249357   1.426   8.460   6.230
16494TIP3   OH249358   1.544   8.375   6.130
16494TIP3    H149359   1.561   8.295   6.184
16494TIP3    H249360   1.632   8.418   6.129
16495TIP3   OH249361   1.799   8.485   6.146
16495TIP3    H149362   1.834   8.396   6.132
16495TIP3    H249363   1.841   8.507   6.231
16496TIP3   OH249364   2.367   7.139   6.230
16496TIP3    H149365   2.328   7.068   6.284
16496TIP3    H249366   2.443   7.093   6.188
16497TIP3   OH249367   2.895   7.024   6.142
16497TIP3    H149368   2.932   7.072   6.065
16497TIP3    H249369   2.799   7.038   6.131
16498TIP3   OH249370   2.989   7.121   5.904
16498TIP3    H149371   3.062   7.068   5.864
16498TIP3    H249372   3.024   7.212   5.889
16499TIP3   OH249373   1.621   6.849   6.254
16499TIP3    H149374   1.529   6.816   6.253
16499TIP3    H249375   1.670   6.765   6.250
16500TIP3   OH249376   1.405   6.718   5.898
16500TIP3    H149377   1.438   6.774   5.825
16500TIP3    H249378   1.380   6.784   5.965
16501TIP3   OH249379   2.061   6.886   6.132
16501TIP3    H149380   2.121   6.931   6.071
16501TIP3    H249381   2.094   6.916   6.218
16502TIP3   OH249382   2.610   7.028   6.115
16502TIP3    H149383   2.612   6.989   6.027
16502TIP3    H249384   2.597   6.947   6.171
16503TIP3   OH249385   2.641   6.949   5.677
16503TIP3    H149386   2.553   6.989   5.686
16503TIP3    H249387   2.628   6.864   5.724
16504TIP3   OH249388   1.123   8.287   5.681
16504TIP3    H149389   1.037   8.259   5.648
16504TIP3    H249390   1.117   8.383   5.664
16505TIP3   OH249391   1.524   6.879   5.662
16505TIP3    H149392   1.572   6.814   5.606
16505TIP3    H249393   1.598   6.932   5.698
16506TIP3   OH249394   2.035   7.054   5.761
16506TIP3    H149395   2.095   7.005   5.819
16506TIP3    H249396   2.060   7.145   5.786
16507TIP3   OH249397   1.897   8.479   5.260
16507TIP3    H149398   1.986   8.500   5.225
16507TIP3    H249399   1.874   8.404   5.201
16508TIP3   OH249400   2.610   8.595   5.351
16508TIP3    H149401   2.603   8.497   5.341
16508TIP3    H249402   2.571   8.623   5.267
16509TIP3   OH249403   1.833   7.130   7.157
16509TIP3    H149404   1.798   7.053   7.205
16509TIP3    H249405   1.928   7.125   7.181
16510TIP3   OH249406   2.086   7.128   7.263
16510TIP3    H149407   2.168   7.095   7.223
16510TIP3    H249408   2.070   7.060   7.332
16511TIP3   OH249409   1.199   8.311   5.318
16511TIP3    H149410   1.205   8.346   5.408
16511TIP3    H249411   1.289   8.271   5.305
16512TIP3   OH249412   2.902   7.189   7.049
16512TIP3    H149413   2.921   7.156   7.140
16512TIP3    H249414   2.990   7.182   7.007
16513TIP3   OH249415   2.839   8.741   6.544
16513TIP3    H149416   2.762   8.709   6.493
16513TIP3    H249417   2.821   8.837   6.544
16514TIP3   OH249418   4.108   8.113   5.307
16514TIP3    H149419   4.080   8.205   5.287
16514TIP3    H249420   4.031   8.064   5.276
16515TIP3   OH249421   4.108   8.112   5.687
16515TIP3    H149422   4.138   8.083   5.775
16515TIP3    H249423   4.064   8.032   5.653
16516TIP3   OH249424   3.405   8.009   6.055
16516TIP3    H149425   3.437   7.941   6.118
16516TIP3    H249426   3.484   8.064   6.045
16517TIP3   OH249427   4.350   8.415   5.369
16517TIP3    H149428   4.335   8.345   5.434
16517TIP3    H249429   4.378   8.489   5.424
16518TIP3   OH249430   3.375   8.416   5.781
16518TIP3    H149431   3.368   8.318   5.782
16518TIP3    H249432   3.472   8.426   5.775
16519TIP3   OH249433   3.083   7.620   5.565
16519TIP3    H149434   3.037   7.705   5.577
16519TIP3    H249435   3.013   7.567   5.525
16520TIP3   OH249436   3.142   7.908   5.734
16520TIP3    H149437   3.193   7.831   5.770
16520TIP3    H249438   3.202   7.941   5.666
16521TIP3   OH249439   3.999   8.878   5.385
16521TIP3    H149440   4.046   8.806   5.338
16521TIP3    H249441   3.991   8.841   5.474
16522TIP3   OH249442   3.906   8.339   5.735
16522TIP3    H149443   3.943   8.262   5.688
16522TIP3    H249444   3.989   8.383   5.760
16523TIP3   OH249445   4.919   7.659   5.734
16523TIP3    H149446   4.947   7.742   5.777
16523TIP3    H249447   4.939   7.678   5.641
16524TIP3   OH249448   4.318   7.840   5.770
16524TIP3    H149449   4.360   7.755   5.789
16524TIP3    H249450   4.287   7.825   5.678
16525TIP3   OH249451   3.655   7.499   5.734
16525TIP3    H149452   3.635   7.571   5.672
16525TIP3    H249453   3.607   7.425   5.690
16526TIP3   OH249454   4.349   7.590   5.357
16526TIP3    H149455   4.421   7.574   5.422
16526TIP3    H249456   4.401   7.626   5.283
16527TIP3   OH249457   3.289   7.701   5.841
16527TIP3    H149458   3.372   7.682   5.888
16527TIP3    H249459   3.302   7.646   5.761
16528TIP3   OH249460   3.731   7.899   5.633
16528TIP3    H149461   3.824   7.873   5.647
16528TIP3    H249462   3.691   7.815   5.601
16529TIP3   OH249463   4.992   7.866   5.903
16529TIP3    H149464   4.908   7.914   5.884
16529TIP3    H249465   5.004   7.890   5.996
16530TIP3   OH249466   3.652   7.483   6.168
16530TIP3    H149467   3.592   7.520   6.101
16530TIP3    H249468   3.601   7.501   6.249
16531TIP3   OH249469   4.004   8.336   5.174
16531TIP3    H149470   3.953   8.310   5.096
16531TIP3    H249471   3.958   8.419   5.199
16532TIP3   OH249472   3.759   8.257   5.965
16532TIP3    H149473   3.695   8.321   6.004
16532TIP3    H249474   3.799   8.310   5.894
16533TIP3   OH249475   4.561   7.592   5.527
16533TIP3    H149476   4.550   7.542   5.609
16533TIP3    H249477   4.614   7.669   5.556
16534TIP3   OH249478   3.522   7.597   5.953
16534TIP3    H149479   3.584   7.670   5.976
16534TIP3    H249480   3.571   7.557   5.878
16535TIP3   OH249481   3.583   8.448   6.061
16535TIP3    H149482   3.561   8.536   6.024
16535TIP3    H249483   3.506   8.436   6.120
16536TIP3   OH249484   4.421   8.657   5.537
16536TIP3    H149485   4.332   8.648   5.578
16536TIP3    H249486   4.412   8.743   5.493
16537TIP3   OH249487   4.711   7.560   5.901
16537TIP3    H149488   4.623   7.588   5.870
16537TIP3    H249489   4.769   7.591   5.828
16538TIP3   OH249490   4.009   7.202   5.882
16538TIP3    H149491   3.996   7.107   5.899
16538TIP3    H249492   3.931   7.239   5.928
16539TIP3   OH249493   4.126   8.705   5.213
16539TIP3    H149494   4.175   8.622   5.192
16539TIP3    H249495   4.186   8.770   5.170
16540TIP3   OH249496   4.268   8.489   5.116
16540TIP3    H149497   4.219   8.413   5.083
16540TIP3    H249498   4.303   8.455   5.201
16541TIP3   OH249499   4.648   8.572   5.881
16541TIP3    H149500   4.635   8.493   5.822
16541TIP3    H249501   4.630   8.645   5.819
16542TIP3   OH249502   3.940   7.962   5.138
16542TIP3    H149503   3.859   8.014   5.120
16542TIP3    H249504   3.984   7.962   5.051
16543TIP3   OH249505   3.896   7.750   4.852
16543TIP3    H149506   3.963   7.799   4.904
16543TIP3    H249507   3.954   7.685   4.807
16544TIP3   OH249508   4.842   8.207   5.725
16544TIP3    H149509   4.759   8.259   5.731
16544TIP3    H249510   4.871   8.231   5.635
16545TIP3   OH249511   4.286   8.047   5.109
16545TIP3    H149512   4.230   8.072   5.187
16545TIP3    H249513   4.369   8.021   5.154
16546TIP3   OH249514   4.521   8.087   6.020
16546TIP3    H149515   4.517   8.171   6.070
16546TIP3    H249516   4.434   8.090   5.975
16547TIP3   OH249517   3.518   8.046   5.527
16547TIP3    H149518   3.475   7.989   5.460
16547TIP3    H249519   3.595   7.991   5.554
16548TIP3   OH249520   3.646   8.457   5.675
16548TIP3    H149521   3.624   8.415   5.591
16548TIP3    H249522   3.736   8.422   5.692
16549TIP3   OH249523   3.654   8.016   5.880
16549TIP3    H149524   3.686   7.995   5.790
16549TIP3    H249525   3.697   8.102   5.901
16550TIP3   OH249526   4.180   8.653   5.658
16550TIP3    H149527   4.166   8.733   5.713
16550TIP3    H249528   4.165   8.580   5.721
16551TIP3   OH249529   3.791   8.593   6.191
16551TIP3    H149530   3.732   8.642   6.251
16551TIP3    H249531   3.732   8.522   6.160
16552TIP3   OH249532   4.129   7.904   4.935
16552TIP3    H149533   4.186   7.964   4.988
16552TIP3    H249534   4.154   7.929   4.843
16553TIP3   OH249535   3.546   8.129   6.307
16553TIP3    H149536   3.553   8.216   6.351
16553TIP3    H249537   3.450   8.113   6.315
16554TIP3   OH249538   3.871   8.582   5.212
16554TIP3    H149539   3.946   8.641   5.231
16554TIP3    H249540   3.806   8.642   5.172
16555TIP3   OH249541   3.582   8.750   6.292
16555TIP3    H149542   3.551   8.740   6.200
16555TIP3    H249543   3.504   8.724   6.344
16556TIP3   OH249544   4.642   7.146   4.984
16556TIP3    H149545   4.561   7.165   5.035
16556TIP3    H249546   4.654   7.230   4.934
16557TIP3   OH249547   3.387   7.886   5.335
16557TIP3    H149548   3.322   7.932   5.278
16557TIP3    H249549   3.344   7.800   5.345
16558TIP3   OH249550   4.440   8.513   4.530
16558TIP3    H149551   4.449   8.610   4.517
16558TIP3    H249552   4.533   8.483   4.519
16559TIP3   OH249553   3.165   8.272   6.238
16559TIP3    H149554   3.103   8.248   6.167
16559TIP3    H249555   3.202   8.186   6.265
16560TIP3   OH249556   3.021   8.459   5.880
16560TIP3    H149557   3.115   8.453   5.859
16560TIP3    H249558   3.017   8.543   5.928
16561TIP3   OH249559   4.884   8.915   5.926
16561TIP3    H149560   4.883   8.818   5.940
16561TIP3    H249561   4.801   8.940   5.972
16562TIP3   OH249562   3.994   8.705   6.056
16562TIP3    H149563   3.991   8.796   6.091
16562TIP3    H249564   3.920   8.664   6.107
16563TIP3   OH249565   3.753   8.834   5.011
16563TIP3    H149566   3.700   8.811   4.932
16563TIP3    H249567   3.717   8.921   5.036
16564TIP3   OH249568   3.186   8.680   5.387
16564TIP3    H149569   3.222   8.656   5.475
16564TIP3    H249570   3.129   8.605   5.366
16565TIP3   OH249571   3.952   8.733   4.653
16565TIP3    H149572   4.011   8.662   4.618
16565TIP3    H249573   3.984   8.741   4.745
16566TIP3   OH249574   4.003   8.779   4.922
16566TIP3    H149575   3.914   8.790   4.963
16566TIP3    H249576   4.051   8.736   4.995
16567TIP3   OH249577   4.774   8.047   6.201
16567TIP3    H149578   4.693   8.060   6.150
16567TIP3    H249579   4.789   7.951   6.189
16568TIP3   OH249580   3.370   8.456   6.232
16568TIP3    H149581   3.423   8.435   6.312
16568TIP3    H249582   3.298   8.391   6.238
16569TIP3   OH249583   3.770   7.278   6.010
16569TIP3    H149584   3.680   7.247   5.984
16569TIP3    H249585   3.745   7.360   6.055
16570TIP3   OH249586   4.303   7.393   6.205
16570TIP3    H149587   4.371   7.365   6.269
16570TIP3    H249588   4.219   7.373   6.251
16571TIP3   OH249589   4.545   7.824   6.124
16571TIP3    H149590   4.494   7.818   6.208
16571TIP3    H249591   4.518   7.910   6.088
16572TIP3   OH249592   4.199   7.952   4.676
16572TIP3    H149593   4.170   7.925   4.588
16572TIP3    H249594   4.281   8.001   4.655
16573TIP3   OH249595   3.915   7.328   4.981
16573TIP3    H149596   3.883   7.325   5.073
16573TIP3    H249597   3.877   7.244   4.948
16574TIP3   OH249598   3.700   7.792   6.028
16574TIP3    H149599   3.655   7.817   6.111
16574TIP3    H249600   3.685   7.873   5.974
16575TIP3   OH249601   3.586   7.679   5.544
16575TIP3    H149602   3.493   7.654   5.561
16575TIP3    H249603   3.599   7.639   5.455
16576TIP3   OH249604   4.077   7.765   5.272
16576TIP3    H149605   4.023   7.836   5.230
16576TIP3    H249606   4.131   7.735   5.196
16577TIP3   OH249607   4.259   8.043   6.351
16577TIP3    H149608   4.227   7.977   6.417
16577TIP3    H249609   4.351   8.055   6.381
16578TIP3   OH249610   4.234   7.794   5.510
16578TIP3    H149611   4.173   7.824   5.439
16578TIP3    H249612   4.266   7.712   5.468
16579TIP3   OH249613   3.516   7.822   6.238
16579TIP3    H149614   3.557   7.886   6.300
16579TIP3    H249615   3.509   7.742   6.293
16580TIP3   OH249616   3.569   7.299   4.947
16580TIP3    H149617   3.564   7.296   5.045
16580TIP3    H249618   3.490   7.352   4.926
16581TIP3   OH249619   3.113   7.345   5.820
16581TIP3    H149620   3.190   7.376   5.872
16581TIP3    H249621   3.153   7.313   5.738
16582TIP3   OH249622   3.087   7.325   5.338
16582TIP3    H149623   3.133   7.363   5.260
16582TIP3    H249624   3.027   7.399   5.359
16583TIP3   OH249625   4.245   8.041   5.934
16583TIP3    H149626   4.277   7.968   5.876
16583TIP3    H249627   4.215   7.989   6.011
16584TIP3   OH249628   3.912   7.503   5.605
16584TIP3    H149629   3.829   7.500   5.657
16584TIP3    H249630   3.979   7.501   5.675
16585TIP3   OH249631   3.347   7.557   5.614
16585TIP3    H149632   3.252   7.563   5.587
16585TIP3    H249633   3.370   7.465   5.590
16586TIP3   OH249634   3.617   7.553   5.302
16586TIP3    H149635   3.711   7.569   5.280
16586TIP3    H249636   3.570   7.576   5.218
16587TIP3   OH249637   4.405   7.577   5.805
16587TIP3    H149638   4.371   7.589   5.897
16587TIP3    H249639   4.339   7.515   5.770
16588TIP3   OH249640   3.458   7.584   5.081
16588TIP3    H149641   3.383   7.544   5.033
16588TIP3    H249642   3.508   7.622   5.006
16589TIP3   OH249643   4.573   9.266   6.025
16589TIP3    H149644   4.573   9.289   5.930
16589TIP3    H249645   4.653   9.314   6.056
16590TIP3   OH249646   3.538   8.375   6.448
16590TIP3    H149647   3.626   8.397   6.486
16590TIP3    H249648   3.484   8.380   6.528
16591TIP3   OH249649   3.996   7.829   5.703
16591TIP3    H149650   4.068   7.789   5.652
16591TIP3    H249651   4.006   7.787   5.790
16592TIP3   OH249652   3.519   7.318   5.580
16592TIP3    H149653   3.486   7.238   5.626
16592TIP3    H249654   3.571   7.280   5.508
16593TIP3   OH249655   3.972   7.725   5.994
16593TIP3    H149656   3.883   7.762   6.006
16593TIP3    H249657   4.030   7.787   6.044
16594TIP3   OH249658   3.716   8.114   5.091
16594TIP3    H149659   3.640   8.053   5.076
16594TIP3    H249660   3.693   8.151   5.179
16595TIP3   OH249661   4.610   8.353   5.717
16595TIP3    H149662   4.633   8.403   5.635
16595TIP3    H249663   4.525   8.312   5.693
16596TIP3   OH249664   4.166   7.432   4.944
16596TIP3    H149665   4.070   7.413   4.956
16596TIP3    H249666   4.176   7.525   4.973
16597TIP3   OH249667   4.115   8.439   6.083
16597TIP3    H149668   4.117   8.405   6.173
16597TIP3    H249669   4.066   8.522   6.093
16598TIP3   OH249670   4.237   7.676   5.052
16598TIP3    H149671   4.333   7.682   5.069
16598TIP3    H249672   4.219   7.757   5.000
16599TIP3   OH249673   3.400   8.138   5.764
16599TIP3    H149674   3.437   8.112   5.677
16599TIP3    H249675   3.444   8.075   5.823
16600TIP3   OH249676   3.851   8.266   4.906
16600TIP3    H149677   3.806   8.354   4.914
16600TIP3    H249678   3.797   8.212   4.967
16601TIP3   OH249679   3.278   8.064   6.379
16601TIP3    H149680   3.306   8.049   6.472
16601TIP3    H249681   3.215   7.992   6.364
16602TIP3   OH249682   4.005   8.143   6.408
16602TIP3    H149683   3.948   8.123   6.333
16602TIP3    H249684   4.094   8.134   6.370
16603TIP3   OH249685   4.270   8.700   5.976
16603TIP3    H149686   4.174   8.692   5.991
16603TIP3    H249687   4.296   8.749   6.057
16604TIP3   OH249688   4.680   7.766   4.888
16604TIP3    H149689   4.617   7.721   4.827
16604TIP3    H249690   4.677   7.855   4.848
16605TIP3   OH249691   4.898   8.624   5.970
16605TIP3    H149692   4.800   8.619   5.962
16605TIP3    H249693   4.923   8.594   5.879
16606TIP3   OH249694   4.379   8.586   4.796
16606TIP3    H149695   4.353   8.518   4.860
16606TIP3    H249696   4.390   8.536   4.713
16607TIP3   OH249697   4.375   8.215   5.636
16607TIP3    H149698   4.282   8.190   5.649
16607TIP3    H249699   4.409   8.135   5.590
16608TIP3   OH249700   3.498   8.441   5.388
16608TIP3    H149701   3.495   8.524   5.336
16608TIP3    H249702   3.408   8.409   5.378
16609TIP3   OH249703   3.062   7.742   5.088
16609TIP3    H149704   3.112   7.825   5.108
16609TIP3    H249705   2.986   7.752   5.150
16610TIP3   OH249706   3.642   8.211   5.333
16610TIP3    H149707   3.606   8.300   5.352
16610TIP3    H249708   3.604   8.159   5.407
16611TIP3   OH249709   3.770   8.786   5.858
16611TIP3    H149710   3.813   8.858   5.807
16611TIP3    H249711   3.845   8.751   5.908
16612TIP3   OH249712   3.423   8.681   5.240
16612TIP3    H149713   3.336   8.685   5.284
16612TIP3    H249714   3.450   8.775   5.243
16613TIP3   OH249715   4.161   8.420   5.815
16613TIP3    H149716   4.152   8.421   5.913
16613TIP3    H249717   4.241   8.367   5.803
16614TIP3   OH249718   4.133   8.313   4.697
16614TIP3    H149719   4.186   8.288   4.777
16614TIP3    H249720   4.044   8.288   4.727
16615TIP3   OH249721   4.409   8.955   5.867
16615TIP3    H149722   4.331   8.896   5.862
16615TIP3    H249723   4.391   9.018   5.794
16616TIP3   OH249724   4.474   8.789   4.518
16616TIP3    H149725   4.516   8.864   4.472
16616TIP3    H249726   4.393   8.834   4.550
16617TIP3   OH249727   3.494   7.565   6.386
16617TIP3    H149728   3.398   7.568   6.397
16617TIP3    H249729   3.521   7.503   6.455
16618TIP3   OH249730   4.294   8.245   4.911
16618TIP3    H149731   4.283   8.182   4.985
16618TIP3    H249732   4.391   8.244   4.902
16619TIP3   OH249733   3.208   8.652   6.019
16619TIP3    H149734   3.260   8.573   6.042
16619TIP3    H249735   3.247   8.717   6.079
16620TIP3   OH249736   3.503   8.293   4.689
16620TIP3    H149737   3.515   8.199   4.666
16620TIP3    H249738   3.491   8.286   4.786
16621TIP3   OH249739   3.471   8.296   4.957
16621TIP3    H149740   3.491   8.265   5.046
16621TIP3    H249741   3.449   8.390   4.973
16622TIP3   OH249742   3.193   7.972   5.164
16622TIP3    H149743   3.142   8.042   5.211
16622TIP3    H249744   3.227   8.029   5.093
16623TIP3   OH249745   4.331   7.628   6.064
16623TIP3    H149746   4.409   7.667   6.106
16623TIP3    H249747   4.315   7.548   6.119
16624TIP3   OH249748   4.209   7.382   5.229
16624TIP3    H149749   4.197   7.406   5.136
16624TIP3    H249750   4.249   7.464   5.266
16625TIP3   OH249751   3.718   8.502   4.918
16625TIP3    H149752   3.628   8.515   4.955
16625TIP3    H249753   3.723   8.576   4.856
16626TIP3   OH249754   3.901   7.560   5.332
16626TIP3    H149755   3.965   7.632   5.316
16626TIP3    H249756   3.905   7.553   5.430
16627TIP3   OH249757   4.168   7.879   6.140
16627TIP3    H149758   4.189   7.935   6.218
16627TIP3    H249759   4.224   7.801   6.156
16628TIP3   OH249760   4.044   7.289   5.436
16628TIP3    H149761   4.037   7.366   5.495
16628TIP3    H249762   4.105   7.324   5.366
16629TIP3   OH249763   3.456   8.572   4.984
16629TIP3    H149764   3.423   8.642   4.924
16629TIP3    H249765   3.437   8.610   5.072
16630TIP3   OH249766   3.556   7.285   5.224
16630TIP3    H149767   3.553   7.376   5.260
16630TIP3    H249768   3.651   7.266   5.233
16631TIP3   OH249769   4.811   7.779   6.120
16631TIP3    H149770   4.713   7.779   6.129
16631TIP3    H249771   4.819   7.736   6.033
16632TIP3   OH249772   4.461   7.973   5.508
16632TIP3    H149773   4.384   7.914   5.521
16632TIP3    H249774   4.532   7.926   5.557
16633TIP3   OH249775   3.118   7.476   5.112
16633TIP3    H149776   3.118   7.574   5.108
16633TIP3    H249777   3.034   7.455   5.070
16634TIP3   OH249778   4.428   8.929   5.459
16634TIP3    H149779   4.386   8.976   5.384
16634TIP3    H249780   4.523   8.948   5.438
16635TIP3   OH249781   3.504   7.198   5.987
16635TIP3    H149782   3.474   7.164   5.900
16635TIP3    H249783   3.494   7.119   6.044
16636TIP3   OH249784   3.199   8.956   6.442
16636TIP3    H149785   3.287   8.954   6.484
16636TIP3    H249786   3.181   8.860   6.435
16637TIP3   OH249787   3.682   8.928   6.481
16637TIP3    H149788   3.774   8.899   6.495
16637TIP3    H249789   3.655   8.868   6.408
16638TIP3   OH249790   3.663   8.498   4.610
16638TIP3    H149791   3.603   8.430   4.648
16638TIP3    H249792   3.739   8.442   4.586
16639TIP3   OH249793   4.321   8.829   6.215
16639TIP3    H149794   4.311   8.759   6.283
16639TIP3    H249795   4.399   8.879   6.247
16640TIP3   OH249796   4.100   8.539   4.522
16640TIP3    H149797   4.142   8.475   4.582
16640TIP3    H249798   4.159   8.538   4.444
16641TIP3   OH249799   3.329   8.366   6.641
16641TIP3    H149800   3.351   8.271   6.642
16641TIP3    H249801   3.244   8.366   6.593
16642TIP3   OH249802   3.310   7.990   4.819
16642TIP3    H149803   3.358   7.988   4.903
16642TIP3    H249804   3.383   8.011   4.757
16643TIP3   OH249805   3.820   8.214   4.636
16643TIP3    H149806   3.818   8.227   4.733
16643TIP3    H249807   3.813   8.116   4.632
16644TIP3   OH249808   4.433   8.453   6.018
16644TIP3    H149809   4.504   8.504   5.974
16644TIP3    H249810   4.358   8.514   6.008
16645TIP3   OH249811   3.448   8.093   6.619
16645TIP3    H149812   3.531   8.052   6.591
16645TIP3    H249813   3.474   8.129   6.707
16646TIP3   OH249814   3.520   7.919   5.057
16646TIP3    H149815   3.489   7.878   5.139
16646TIP3    H249816   3.551   7.842   5.005
16647TIP3   OH249817   3.776   7.970   6.274
16647TIP3    H149818   3.709   8.040   6.286
16647TIP3    H249819   3.832   8.009   6.203
16648TIP3   OH249820   3.615   7.709   4.895
16648TIP3    H149821   3.588   7.715   4.801
16648TIP3    H249822   3.713   7.718   4.887
16649TIP3   OH249823   4.305   8.388   6.417
16649TIP3    H149824   4.383   8.357   6.368
16649TIP3    H249825   4.295   8.320   6.485
16650TIP3   OH249826   4.439   8.044   4.556
16650TIP3    H149827   4.418   7.997   4.473
16650TIP3    H249828   4.406   8.133   4.532
16651TIP3   OH249829   3.910   7.770   6.408
16651TIP3    H149830   3.909   7.691   6.351
16651TIP3    H249831   3.866   7.836   6.351
16652TIP3   OH249832   3.911   7.556   6.215
16652TIP3    H149833   3.938   7.599   6.131
16652TIP3    H249834   3.817   7.534   6.196
16653TIP3   OH249835   3.938   8.094   6.093
16653TIP3    H149836   4.019   8.100   6.041
16653TIP3    H249837   3.880   8.159   6.048
16654TIP3   OH249838   4.524   8.058   6.472
16654TIP3    H149839   4.574   7.975   6.473
16654TIP3    H249840   4.589   8.120   6.436
16655TIP3   OH249841   4.563   8.312   6.207
16655TIP3    H149842   4.504   8.365   6.148
16655TIP3    H249843   4.649   8.333   6.166
16656TIP3   OH249844   3.785   7.881   6.640
16656TIP3    H149845   3.717   7.811   6.648
16656TIP3    H249846   3.818   7.866   6.549
16657TIP3   OH249847   4.043   7.322   6.284
16657TIP3    H149848   3.994   7.403   6.260
16657TIP3    H249849   3.975   7.253   6.271
16658TIP3   OH249850   4.171   7.826   6.495
16658TIP3    H149851   4.153   7.832   6.591
16658TIP3    H249852   4.081   7.804   6.463
16659TIP3   OH249853   4.409   7.771   6.351
16659TIP3    H149854   4.332   7.778   6.412
16659TIP3    H249855   4.480   7.742   6.411
16660TIP3   OH249856   4.639   7.716   6.505
16660TIP3    H149857   4.651   7.620   6.523
16660TIP3    H249858   4.637   7.754   6.596
16661TIP3   OH249859   3.622   7.663   6.690
16661TIP3    H149860   3.629   7.572   6.655
16661TIP3    H249861   3.657   7.650   6.780
16662TIP3   OH249862   4.140   7.332   6.540
16662TIP3    H149863   4.206   7.260   6.533
16662TIP3    H249864   4.099   7.326   6.452
16663TIP3   OH249865   4.199   7.545   6.705
16663TIP3    H149866   4.183   7.475   6.638
16663TIP3    H249867   4.123   7.605   6.690
16664TIP3   OH249868   3.424   8.781   4.800
16664TIP3    H149869   3.519   8.773   4.780
16664TIP3    H249870   3.394   8.825   4.718
16665TIP3   OH249871   2.899   8.176   4.969
16665TIP3    H149872   2.958   8.200   5.045
16665TIP3    H249873   2.915   8.080   4.962
16666TIP3   OH249874   2.813   8.770   5.427
16666TIP3    H149875   2.749   8.702   5.394
16666TIP3    H249876   2.863   8.716   5.492
16667TIP3   OH249877   2.948   8.635   5.618
16667TIP3    H149878   2.943   8.548   5.660
16667TIP3    H249879   3.007   8.683   5.680
16668TIP3   OH249880   4.680   9.022   5.414
16668TIP3    H149881   4.707   9.054   5.502
16668TIP3    H249882   4.743   9.067   5.356
16669TIP3   OH249883   4.711   9.041   5.696
16669TIP3    H149884   4.667   8.953   5.693
16669TIP3    H249885   4.786   9.019   5.754
16670TIP3   OH249886   4.758   8.717   6.270
16670TIP3    H149887   4.684   8.725   6.334
16670TIP3    H249888   4.798   8.806   6.275
16671TIP3   OH249889   4.574   8.231   4.890
16671TIP3    H149890   4.643   8.294   4.863
16671TIP3    H249891   4.616   8.191   4.970
16672TIP3   OH249892   4.701   8.098   5.094
16672TIP3    H149893   4.635   8.055   5.153
16672TIP3    H249894   4.765   8.136   5.157
16673TIP3   OH249895   4.755   8.489   5.526
16673TIP3    H149896   4.808   8.425   5.476
16673TIP3    H249897   4.746   8.563   5.463
16674TIP3   OH249898   4.587   8.790   5.721
16674TIP3    H149899   4.515   8.832   5.773
16674TIP3    H249900   4.536   8.742   5.652
16675TIP3   OH249901   4.639   8.006   4.740
16675TIP3    H149902   4.567   8.008   4.673
16675TIP3    H249903   4.612   8.081   4.796
16676TIP3   OH249904   4.510   7.679   4.696
16676TIP3    H149905   4.468   7.716   4.617
16676TIP3    H249906   4.485   7.584   4.687
16677TIP3   OH249907   4.516   7.954   5.240
16677TIP3    H149908   4.523   7.857   5.235
16677TIP3    H249909   4.502   7.968   5.337
16678TIP3   OH249910   3.141   8.027   5.988
16678TIP3    H149911   3.140   7.998   5.894
16678TIP3    H249912   3.238   8.030   6.004
16679TIP3   OH249913   4.805   8.379   6.097
16679TIP3    H149914   4.877   8.313   6.088
16679TIP3    H249915   4.831   8.448   6.035
16680TIP3   OH249916   4.990   8.185   6.114
16680TIP3    H149917   4.915   8.135   6.154
16680TIP3    H249918   5.063   8.120   6.129
16681TIP3   OH249919   4.454   7.413   4.681
16681TIP3    H149920   4.529   7.382   4.735
16681TIP3    H249921   4.381   7.353   4.707
16682TIP3   OH249922   4.511   7.670   5.136
16682TIP3    H149923   4.551   7.581   5.152
16682TIP3    H249924   4.570   7.702   5.066
16683TIP3   OH249925   4.674   7.845   5.630
16683TIP3    H149926   4.760   7.871   5.591
16683TIP3    H249927   4.686   7.881   5.720
16684TIP3   OH249928   4.742   7.988   5.863
16684TIP3    H149929   4.663   8.022   5.911
16684TIP3    H249930   4.774   8.069   5.818
16685TIP3   OH249931   3.355   7.714   6.661
16685TIP3    H149932   3.453   7.709   6.661
16685TIP3    H249933   3.333   7.628   6.703
16686TIP3   OH249934   5.193   7.578   6.419
16686TIP3    H149935   5.252   7.513   6.376
16686TIP3    H249936   5.165   7.633   6.342
16687TIP3   OH249937   4.620   7.420   5.173
16687TIP3    H149938   4.668   7.404   5.257
16687TIP3    H249939   4.560   7.343   5.172
16688TIP3   OH249940   3.319   7.407   5.996
16688TIP3    H149941   3.382   7.331   6.003
16688TIP3    H249942   3.382   7.481   5.987
16689TIP3   OH249943   3.123   7.681   6.066
16689TIP3    H149944   3.172   7.672   5.981
16689TIP3    H249945   3.155   7.767   6.096
16690TIP3   OH249946   5.065   7.719   6.224
16690TIP3    H149947   4.978   7.759   6.244
16690TIP3    H249948   5.037   7.647   6.165
16691TIP3   OH249949   4.702   7.356   4.804
16691TIP3    H149950   4.741   7.282   4.753
16691TIP3    H249951   4.770   7.425   4.798
16692TIP3   OH249952   3.106   7.187   5.568
16692TIP3    H149953   3.012   7.182   5.592
16692TIP3    H249954   3.105   7.244   5.488
16693TIP3   OH249955   4.265   8.888   5.071
16693TIP3    H149956   4.318   8.873   4.990
16693TIP3    H249957   4.319   8.952   5.119
16694TIP3   OH249958   3.327   7.267   6.383
16694TIP3    H149959   3.275   7.258   6.464
16694TIP3    H249960   3.260   7.302   6.321
16695TIP3   OH249961   3.362   8.700   6.457
16695TIP3    H149962   3.274   8.661   6.442
16695TIP3    H249963   3.385   8.667   6.546
16696TIP3   OH249964   3.541   8.721   6.006
16696TIP3    H149965   3.497   8.799   5.965
16696TIP3    H249966   3.629   8.732   5.965
16697TIP3   OH249967   3.990   8.970   6.146
16697TIP3    H149968   4.033   8.969   6.234
16697TIP3    H249969   4.057   9.019   6.093
16698TIP3   OH249970   4.169   9.120   6.001
16698TIP3    H149971   4.239   9.067   5.961
16698TIP3    H249972   4.221   9.176   6.062
16699TIP3   OH249973   4.963   7.481   6.102
16699TIP3    H149974   4.872   7.475   6.069
16699TIP3    H249975   4.994   7.388   6.090
16700TIP3   OH249976   3.221   8.982   6.026
16700TIP3    H149977   3.132   9.017   6.004
16700TIP3    H249978   3.229   9.012   6.118
16701TIP3   OH249979   3.459   8.959   5.886
16701TIP3    H149980   3.372   8.972   5.931
16701TIP3    H249981   3.439   8.991   5.796
16702TIP3   OH249982   3.885   8.989   5.683
16702TIP3    H149983   3.814   9.008   5.619
16702TIP3    H249984   3.896   9.076   5.726
16703TIP3   OH249985   4.152   8.928   5.735
16703TIP3    H149986   4.058   8.944   5.715
16703TIP3    H249987   4.194   9.005   5.694
16704TIP3   OH249988   4.361   9.120   5.652
16704TIP3    H149989   4.347   9.204   5.603
16704TIP3    H249990   4.386   9.059   5.579
16705TIP3   OH249991   3.132   8.774   5.778
16705TIP3    H149992   3.162   8.749   5.868
16705TIP3    H249993   3.203   8.731   5.725
16706TIP3   OH249994   3.321   8.644   5.631
16706TIP3    H149995   3.341   8.560   5.677
16706TIP3    H249996   3.411   8.682   5.622
16707TIP3   OH249997   3.592   8.742   5.632
16707TIP3    H149998   3.621   8.650   5.618
16707TIP3    H249999   3.636   8.761   5.718
16708TIP3   OH250000   4.168   7.397   5.721
16708TIP3    H150001   4.124   7.327   5.773
16708TIP3    H250002   4.239   7.347   5.676
16709TIP3   OH250003   4.693   7.279   5.628
16709TIP3    H150004   4.728   7.330   5.551
16709TIP3    H250005   4.597   7.294   5.620
16710TIP3   OH250006   4.787   7.378   5.390
16710TIP3    H150007   4.860   7.326   5.350
16710TIP3    H250008   4.820   7.470   5.375
16711TIP3   OH250009   3.417   7.105   5.738
16711TIP3    H150010   3.324   7.072   5.739
16711TIP3    H250011   3.466   7.020   5.735
16712TIP3   OH250012   3.201   6.975   5.385
16712TIP3    H150013   3.233   7.032   5.313
16712TIP3    H250014   3.175   7.040   5.452
16713TIP3   OH250015   3.859   7.139   5.618
16713TIP3    H150016   3.918   7.188   5.559
16713TIP3    H250017   3.882   7.175   5.704
16714TIP3   OH250018   4.410   7.284   5.601
16714TIP3    H150019   4.406   7.246   5.513
16714TIP3    H250020   4.395   7.204   5.657
16715TIP3   OH250021   4.437   7.206   5.164
16715TIP3    H150022   4.349   7.247   5.175
16715TIP3    H250023   4.423   7.121   5.211
16716TIP3   OH250024   2.928   8.582   5.150
16716TIP3    H150025   2.871   8.504   5.149
16716TIP3    H250026   2.866   8.654   5.163
16717TIP3   OH250027   3.320   7.135   5.148
16717TIP3    H150028   3.369   7.072   5.093
16717TIP3    H250029   3.393   7.189   5.185
16718TIP3   OH250030   3.833   7.310   5.247
16718TIP3    H150031   3.892   7.261   5.307
16718TIP3    H250032   3.855   7.402   5.273
16719TIP3   OH250033   3.690   8.736   4.744
16719TIP3    H150034   3.780   8.756   4.710
16719TIP3    H250035   3.669   8.660   4.686
16720TIP3   OH250036   4.412   8.853   4.839
16720TIP3    H150037   4.403   8.755   4.828
16720TIP3    H250038   4.366   8.884   4.758
16721TIP3   OH250039   3.625   7.386   6.631
16721TIP3    H150040   3.592   7.314   6.687
16721TIP3    H250041   3.719   7.387   6.656
16722TIP3   OH250042   3.875   7.387   6.750
16722TIP3    H150043   3.956   7.357   6.705
16722TIP3    H250044   3.861   7.315   6.815
16723TIP3   OH250045   3.001   8.579   4.815
16723TIP3    H150046   2.997   8.576   4.912
16723TIP3    H250047   3.085   8.533   4.797
16724TIP3   OH250048   4.699   7.445   6.536
16724TIP3    H150049   4.720   7.412   6.626
16724TIP3    H250050   4.786   7.440   6.492
16725TIP3   OH250051   4.638   8.998   6.028
16725TIP3    H150052   4.559   8.965   5.980
16725TIP3    H250053   4.618   9.093   6.031
16726TIP3   OH250054   5.905   8.370   4.792
16726TIP3    H150055   5.876   8.462   4.773
16726TIP3    H250056   5.827   8.321   4.762
16727TIP3   OH250057   5.904   8.368   5.173
16727TIP3    H150058   5.934   8.340   5.262
16727TIP3    H250059   5.861   8.287   5.141
16728TIP3   OH250060   5.203   8.265   5.539
16728TIP3    H150061   5.234   8.197   5.602
16728TIP3    H250062   5.280   8.323   5.535
16729TIP3   OH250063   6.147   8.670   4.856
16729TIP3    H150064   6.131   8.602   4.922
16729TIP3    H250065   6.173   8.746   4.911
16730TIP3   OH250066   5.173   8.674   5.265
16730TIP3    H150067   5.164   8.576   5.268
16730TIP3    H250068   5.269   8.683   5.261
16731TIP3   OH250069   4.881   7.879   5.051
16731TIP3    H150070   4.831   7.962   5.065
16731TIP3    H250071   4.811   7.823   5.014
16732TIP3   OH250072   4.940   8.165   5.221
16732TIP3    H150073   4.988   8.088   5.258
16732TIP3    H250074   4.999   8.192   5.149
16733TIP3   OH250075   5.793   9.133   4.871
16733TIP3    H150076   5.842   9.061   4.825
16733TIP3    H250077   5.786   9.099   4.961
16734TIP3   OH250078   5.702   8.595   5.222
16734TIP3    H150079   5.739   8.518   5.176
16734TIP3    H250080   5.785   8.639   5.247
16735TIP3   OH250081   6.713   7.916   5.220
16735TIP3    H150082   6.743   7.997   5.266
16735TIP3    H250083   6.736   7.937   5.128
16736TIP3   OH250084   6.115   8.098   5.256
16736TIP3    H150085   6.156   8.012   5.276
16736TIP3    H250086   6.083   8.082   5.165
16737TIP3   OH250087   5.452   7.756   5.221
16737TIP3    H150088   5.430   7.828   5.159
16737TIP3    H250089   5.404   7.682   5.177
16738TIP3   OH250090   6.144   7.846   4.845
16738TIP3    H150091   6.216   7.830   4.910
16738TIP3    H250092   6.197   7.882   4.771
16739TIP3   OH250093   5.085   7.959   5.327
16739TIP3    H150094   5.168   7.938   5.375
16739TIP3    H250095   5.097   7.902   5.248
16740TIP3   OH250096   5.526   8.156   5.119
16740TIP3    H150097   5.620   8.130   5.134
16740TIP3    H250098   5.487   8.072   5.088
16741TIP3   OH250099   6.787   8.123   5.389
16741TIP3    H150100   6.703   8.170   5.372
16741TIP3    H250101   6.801   8.147   5.482
16742TIP3   OH250102   5.449   7.739   5.655
16742TIP3    H150103   5.388   7.776   5.588
16742TIP3    H250104   5.397   7.757   5.737
16743TIP3   OH250105   5.800   8.593   4.661
16743TIP3    H150106   5.751   8.569   4.581
16743TIP3    H250107   5.754   8.676   4.686
16744TIP3   OH250108   5.555   8.514   5.452
16744TIP3    H150109   5.492   8.579   5.490
16744TIP3    H250110   5.596   8.567   5.380
16745TIP3   OH250111   6.358   7.849   5.013
16745TIP3    H150112   6.346   7.798   5.094
16745TIP3    H250113   6.409   7.926   5.044
16746TIP3   OH250114   5.319   7.854   5.440
16746TIP3    H150115   5.381   7.927   5.463
16746TIP3    H250116   5.368   7.813   5.365
16747TIP3   OH250117   5.382   8.707   5.547
16747TIP3    H150118   5.356   8.794   5.509
16747TIP3    H250119   5.303   8.692   5.604
16748TIP3   OH250120   4.779   8.398   4.784
16748TIP3    H150121   4.736   8.426   4.701
16748TIP3    H250122   4.809   8.483   4.821
16749TIP3   OH250123   6.218   8.914   5.023
16749TIP3    H150124   6.129   8.904   5.064
16749TIP3    H250125   6.208   9.000   4.979
16750TIP3   OH250126   6.507   7.817   5.388
16750TIP3    H150127   6.419   7.844   5.357
16750TIP3    H250128   6.566   7.847   5.316
16751TIP3   OH250129   5.806   7.462   5.367
16751TIP3    H150130   5.793   7.366   5.379
16751TIP3    H250131   5.727   7.497   5.415
16752TIP3   OH250132   5.922   8.960   4.700
16752TIP3    H150133   5.972   8.878   4.678
16752TIP3    H250134   5.982   9.026   4.658
16753TIP3   OH250135   6.064   8.744   4.603
16753TIP3    H150136   6.015   8.668   4.570
16753TIP3    H250137   6.100   8.710   4.688
16754TIP3   OH250138   6.443   8.828   5.367
16754TIP3    H150139   6.431   8.750   5.309
16754TIP3    H250140   6.425   8.902   5.306
16755TIP3   OH250141   5.734   8.220   4.624
16755TIP3    H150142   5.653   8.271   4.604
16755TIP3    H250143   5.778   8.218   4.537
16756TIP3   OH250144   5.692   8.006   4.343
16756TIP3    H150145   5.761   8.055   4.391
16756TIP3    H250146   5.748   7.940   4.295
16757TIP3   OH250147   6.638   8.464   5.211
16757TIP3    H150148   6.555   8.515   5.218
16757TIP3    H250149   6.667   8.488   5.121
16758TIP3   OH250150   6.083   8.304   4.597
16758TIP3    H150151   6.027   8.328   4.674
16758TIP3    H250152   6.166   8.278   4.643
16759TIP3   OH250153   6.317   8.343   5.507
16759TIP3    H150154   6.314   8.427   5.558
16759TIP3    H250155   6.230   8.347   5.463
16760TIP3   OH250156   5.314   8.302   5.013
16760TIP3    H150157   5.272   8.244   4.946
16760TIP3    H250158   5.391   8.248   5.041
16761TIP3   OH250159   5.444   8.713   5.161
16761TIP3    H150160   5.423   8.669   5.078
16761TIP3    H250161   5.534   8.679   5.180
16762TIP3   OH250162   5.453   8.271   5.368
16762TIP3    H150163   5.484   8.252   5.277
16762TIP3    H250164   5.494   8.358   5.387
16763TIP3   OH250165   5.978   8.909   5.144
16763TIP3    H150166   5.962   8.990   5.197
16763TIP3    H250167   5.962   8.837   5.208
16764TIP3   OH250168   5.588   8.829   5.691
16764TIP3    H150169   5.529   8.891   5.738
16764TIP3    H250170   5.522   8.776   5.642
16765TIP3   OH250171   5.925   8.160   4.423
16765TIP3    H150172   5.981   8.222   4.475
16765TIP3    H250173   5.951   8.184   4.331
16766TIP3   OH250174   5.342   8.386   5.791
16766TIP3    H150175   5.346   8.473   5.837
16766TIP3    H250176   5.247   8.366   5.802
16767TIP3   OH250177   5.666   8.841   4.697
16767TIP3    H150178   5.742   8.897   4.718
16767TIP3    H250179   5.603   8.903   4.659
16768TIP3   OH250180   5.383   8.997   5.778
16768TIP3    H150181   5.347   8.996   5.687
16768TIP3    H250182   5.304   8.976   5.832
16769TIP3   OH250183   6.437   7.404   4.470
16769TIP3    H150184   6.356   7.417   4.523
16769TIP3    H250185   6.444   7.490   4.425
16770TIP3   OH250186   5.180   8.144   4.818
16770TIP3    H150187   5.114   8.188   4.761
16770TIP3    H250188   5.140   8.058   4.831
16771TIP3   OH250189   6.236   8.770   4.016
16771TIP3    H150190   6.244   8.867   4.004
16771TIP3    H250191   6.329   8.742   4.007
16772TIP3   OH250192   4.962   8.528   5.725
16772TIP3    H150193   4.896   8.505   5.656
16772TIP3    H250194   4.998   8.440   5.749
16773TIP3   OH250195   4.815   8.722   5.356
16773TIP3    H150196   4.912   8.715   5.349
16773TIP3    H250197   4.805   8.800   5.412
16774TIP3   OH250198   6.681   9.170   5.412
16774TIP3    H150199   6.679   9.074   5.429
16774TIP3    H250200   6.598   9.197   5.458
16775TIP3   OH250201   5.786   8.958   5.548
16775TIP3    H150202   5.786   9.050   5.580
16775TIP3    H250203   5.715   8.919   5.603
16776TIP3   OH250204   5.547   9.088   4.499
16776TIP3    H150205   5.500   9.069   4.416
16776TIP3    H250206   5.514   9.176   4.523
16777TIP3   OH250207   4.984   8.937   4.884
16777TIP3    H150208   5.033   8.928   4.969
16777TIP3    H250209   4.927   8.858   4.888
16778TIP3   OH250210   5.748   8.989   4.140
16778TIP3    H150211   5.808   8.919   4.104
16778TIP3    H250212   5.781   8.998   4.231
16779TIP3   OH250213   5.798   9.035   4.410
16779TIP3    H150214   5.709   9.046   4.452
16779TIP3    H250215   5.848   8.995   4.484
16780TIP3   OH250216   6.571   8.304   5.687
16780TIP3    H150217   6.489   8.316   5.637
16780TIP3    H250218   6.586   8.208   5.677
16781TIP3   OH250219   5.167   8.710   5.714
16781TIP3    H150220   5.216   8.694   5.797
16781TIP3    H250221   5.092   8.647   5.722
16782TIP3   OH250222   5.566   7.534   5.498
16782TIP3    H150223   5.477   7.503   5.472
16782TIP3    H250224   5.541   7.617   5.543
16783TIP3   OH250225   6.099   7.650   5.693
16783TIP3    H150226   6.167   7.620   5.756
16783TIP3    H250227   6.015   7.627   5.739
16784TIP3   OH250228   6.341   8.080   5.612
16784TIP3    H150229   6.290   8.075   5.696
16784TIP3    H250230   6.315   8.166   5.575
16785TIP3   OH250231   6.005   8.204   4.168
16785TIP3    H150232   5.965   8.181   4.082
16785TIP3    H250233   6.077   8.263   4.141
16786TIP3   OH250234   5.713   7.583   4.469
16786TIP3    H150235   5.679   7.580   4.560
16786TIP3    H250236   5.673   7.500   4.434
16787TIP3   OH250237   5.498   8.049   5.517
16787TIP3    H150238   5.447   8.071   5.598
16787TIP3    H250239   5.482   8.130   5.463
16788TIP3   OH250240   5.381   7.936   5.030
16788TIP3    H150241   5.288   7.910   5.048
16788TIP3    H250242   5.394   7.895   4.942
16789TIP3   OH250243   5.873   8.023   4.758
16789TIP3    H150244   5.818   8.094   4.717
16789TIP3    H250245   5.925   7.991   4.682
16790TIP3   OH250246   6.046   8.300   5.844
16790TIP3    H150247   6.024   8.228   5.907
16790TIP3    H250248   6.140   8.315   5.866
16791TIP3   OH250249   6.030   8.051   4.997
16791TIP3    H150250   5.969   8.080   4.926
16791TIP3    H250251   6.062   7.969   4.955
16792TIP3   OH250252   5.317   8.079   5.725
16792TIP3    H150253   5.341   8.143   5.793
16792TIP3    H250254   5.305   7.997   5.777
16793TIP3   OH250255   5.368   7.557   4.434
16793TIP3    H150256   5.359   7.553   4.532
16793TIP3    H250257   5.287   7.607   4.411
16794TIP3   OH250258   4.909   7.603   5.305
16794TIP3    H150259   4.986   7.632   5.358
16794TIP3    H250260   4.949   7.567   5.224
16795TIP3   OH250261   4.884   7.582   4.825
16795TIP3    H150262   4.930   7.620   4.747
16795TIP3    H250263   4.823   7.655   4.846
16796TIP3   OH250264   6.041   8.298   5.420
16796TIP3    H150265   6.073   8.225   5.362
16796TIP3    H250266   6.011   8.245   5.498
16797TIP3   OH250267   5.708   7.761   5.092
16797TIP3    H150268   5.625   7.757   5.144
16797TIP3    H250269   5.776   7.756   5.162
16798TIP3   OH250270   5.143   7.813   5.100
16798TIP3    H150271   5.049   7.821   5.073
16798TIP3    H250272   5.166   7.721   5.077
16799TIP3   OH250273   5.413   7.811   4.788
16799TIP3    H150274   5.507   7.825   4.766
16799TIP3    H250275   5.366   7.833   4.704
16800TIP3   OH250276   6.200   7.834   5.292
16800TIP3    H150277   6.166   7.846   5.384
16800TIP3    H250278   6.135   7.771   5.257
16801TIP3   OH250279   5.253   7.844   4.568
16801TIP3    H150280   5.180   7.799   4.521
16801TIP3    H250281   5.304   7.879   4.492
16802TIP3   OH250282   6.370   9.522   5.512
16802TIP3    H150283   6.368   9.547   5.418
16802TIP3    H250284   6.449   9.570   5.544
16803TIP3   OH250285   5.328   8.632   5.934
16803TIP3    H150286   5.408   8.663   5.982
16803TIP3    H250287   5.263   8.632   6.007
16804TIP3   OH250288   5.792   8.087   5.190
16804TIP3    H150289   5.863   8.044   5.140
16804TIP3    H250290   5.800   8.044   5.277
16805TIP3   OH250291   5.317   7.574   5.067
16805TIP3    H150292   5.281   7.495   5.113
16805TIP3    H250293   5.366   7.534   4.994
16806TIP3   OH250294   5.769   7.982   5.479
16806TIP3    H150295   5.679   8.019   5.493
16806TIP3    H250296   5.826   8.043   5.530
16807TIP3   OH250297   5.505   8.374   4.574
16807TIP3    H150298   5.433   8.308   4.563
16807TIP3    H250299   5.487   8.407   4.665
16808TIP3   OH250300   6.406   8.609   5.204
16808TIP3    H150301   6.429   8.659   5.122
16808TIP3    H250302   6.320   8.568   5.180
16809TIP3   OH250303   5.962   7.687   4.433
16809TIP3    H150304   5.866   7.667   4.443
16809TIP3    H250305   5.969   7.781   4.460
16810TIP3   OH250306   5.906   8.693   5.570
16810TIP3    H150307   5.927   8.670   5.662
16810TIP3    H250308   5.866   8.781   5.579
16811TIP3   OH250309   6.032   7.933   4.539
16811TIP3    H150310   6.127   7.941   4.558
16811TIP3    H250311   6.012   8.015   4.489
16812TIP3   OH250312   5.198   8.396   5.250
16812TIP3    H150313   5.236   8.367   5.165
16812TIP3    H250314   5.235   8.332   5.312
16813TIP3   OH250315   5.651   8.523   4.395
16813TIP3    H150316   5.603   8.610   4.401
16813TIP3    H250317   5.596   8.468   4.455
16814TIP3   OH250318   5.078   8.316   5.863
16814TIP3    H150319   5.097   8.302   5.957
16814TIP3    H250320   5.008   8.250   5.847
16815TIP3   OH250321   5.803   8.429   5.884
16815TIP3    H150322   5.743   8.371   5.834
16815TIP3    H250323   5.890   8.396   5.855
16816TIP3   OH250324   6.066   8.952   5.465
16816TIP3    H150325   5.969   8.950   5.479
16816TIP3    H250326   6.094   9.003   5.544
16817TIP3   OH250327   6.490   8.015   4.365
16817TIP3    H150328   6.424   7.969   4.310
16817TIP3    H250329   6.484   8.105   4.327
16818TIP3   OH250330   6.693   8.880   5.456
16818TIP3    H150331   6.595   8.875   5.449
16818TIP3    H250332   6.718   8.850   5.366
16819TIP3   OH250333   6.179   8.841   4.284
16819TIP3    H150334   6.148   8.774   4.346
16819TIP3    H250335   6.188   8.793   4.200
16820TIP3   OH250336   6.171   8.472   5.122
16820TIP3    H150337   6.078   8.446   5.136
16820TIP3    H250338   6.205   8.392   5.077
16821TIP3   OH250339   5.298   8.698   4.873
16821TIP3    H150340   5.298   8.781   4.820
16821TIP3    H250341   5.203   8.684   4.885
16822TIP3   OH250342   4.861   8.004   4.576
16822TIP3    H150343   4.907   8.087   4.598
16822TIP3    H250344   4.784   8.009   4.638
16823TIP3   OH250345   5.439   8.466   4.820
16823TIP3    H150346   5.402   8.555   4.837
16823TIP3    H250347   5.402   8.415   4.894
16824TIP3   OH250348   5.567   9.043   5.344
16824TIP3    H150349   5.608   9.116   5.294
16824TIP3    H250350   5.643   9.009   5.393
16825TIP3   OH250351   5.218   8.938   4.727
16825TIP3    H150352   5.132   8.947   4.773
16825TIP3    H250353   5.250   9.031   4.730
16826TIP3   OH250354   5.957   8.677   5.302
16826TIP3    H150355   5.947   8.676   5.400
16826TIP3    H250356   6.037   8.624   5.291
16827TIP3   OH250357   5.929   8.569   4.184
16827TIP3    H150358   5.981   8.544   4.264
16827TIP3    H250359   5.840   8.544   4.211
16828TIP3   OH250360   6.206   9.210   5.352
16828TIP3    H150361   6.126   9.154   5.346
16828TIP3    H250362   6.188   9.275   5.280
16829TIP3   OH250363   6.271   9.045   4.006
16829TIP3    H150364   6.309   9.116   3.952
16829TIP3    H250365   6.191   9.092   4.039
16830TIP3   OH250366   5.290   7.822   5.872
16830TIP3    H150367   5.193   7.826   5.885
16830TIP3    H250368   5.317   7.761   5.943
16831TIP3   OH250369   6.090   8.501   4.399
16831TIP3    H150370   6.079   8.438   4.473
16831TIP3    H250371   6.187   8.501   4.389
16832TIP3   OH250372   5.006   8.906   5.503
16832TIP3    H150373   5.058   8.831   5.535
16832TIP3    H250374   5.034   8.975   5.564
16833TIP3   OH250375   5.298   8.551   4.184
16833TIP3    H150376   5.309   8.459   4.155
16833TIP3    H250377   5.278   8.538   4.279
16834TIP3   OH250378   5.242   8.556   4.457
16834TIP3    H150379   5.312   8.528   4.517
16834TIP3    H250380   5.246   8.654   4.464
16835TIP3   OH250381   4.978   8.249   4.660
16835TIP3    H150382   4.912   8.294   4.717
16835TIP3    H250383   4.992   8.319   4.593
16836TIP3   OH250384   6.126   7.885   5.552
16836TIP3    H150385   6.206   7.922   5.593
16836TIP3    H250386   6.111   7.805   5.606
16837TIP3   OH250387   6.006   7.638   4.716
16837TIP3    H150388   5.991   7.661   4.623
16837TIP3    H250389   6.044   7.720   4.753
16838TIP3   OH250390   5.508   8.753   4.406
16838TIP3    H150391   5.421   8.781   4.442
16838TIP3    H250392   5.523   8.823   4.341
16839TIP3   OH250393   5.697   7.817   4.819
16839TIP3    H150394   5.762   7.889   4.803
16839TIP3    H250395   5.701   7.809   4.917
16840TIP3   OH250396   5.966   8.136   5.627
16840TIP3    H150397   5.985   8.190   5.706
16840TIP3    H250398   6.020   8.057   5.642
16841TIP3   OH250399   5.840   7.545   4.923
16841TIP3    H150400   5.835   7.622   4.983
16841TIP3    H250401   5.901   7.580   4.853
16842TIP3   OH250402   5.251   8.829   4.473
16842TIP3    H150403   5.220   8.898   4.410
16842TIP3    H250404   5.235   8.872   4.559
16843TIP3   OH250405   5.351   7.541   4.711
16843TIP3    H150406   5.350   7.632   4.748
16843TIP3    H250407   5.447   7.522   4.719
16844TIP3   OH250408   6.608   8.036   5.607
16844TIP3    H150409   6.510   8.035   5.616
16844TIP3    H250410   6.617   7.991   5.521
16845TIP3   OH250411   6.257   8.230   4.995
16845TIP3    H150412   6.180   8.172   5.009
16845TIP3    H250413   6.328   8.183   5.043
16846TIP3   OH250414   4.968   8.460   4.466
16846TIP3    H150415   5.034   8.531   4.475
16846TIP3    H250416   5.014   8.405   4.399
16847TIP3   OH250417   4.915   7.735   4.600
16847TIP3    H150418   4.912   7.832   4.594
16847TIP3    H250419   4.832   7.710   4.557
16848TIP3   OH250420   6.227   9.185   4.945
16848TIP3    H150421   6.183   9.232   4.870
16848TIP3    H250422   6.321   9.201   4.923
16849TIP3   OH250423   5.302   7.455   5.473
16849TIP3    H150424   5.270   7.421   5.386
16849TIP3    H250425   5.290   7.376   5.531
16850TIP3   OH250426   4.842   8.673   4.855
16850TIP3    H150427   4.768   8.704   4.910
16850TIP3    H250428   4.817   8.712   4.768
16851TIP3   OH250429   4.996   9.213   5.925
16851TIP3    H150430   5.082   9.213   5.972
16851TIP3    H250431   4.976   9.118   5.924
16852TIP3   OH250432   5.478   9.180   5.969
16852TIP3    H150433   5.573   9.162   5.977
16852TIP3    H250434   5.454   9.121   5.895
16853TIP3   OH250435   5.461   8.756   4.100
16853TIP3    H150436   5.405   8.683   4.136
16853TIP3    H250437   5.535   8.704   4.063
16854TIP3   OH250438   6.120   9.084   5.701
16854TIP3    H150439   6.109   9.015   5.771
16854TIP3    H250440   6.195   9.135   5.733
16855TIP3   OH250441   5.899   8.796   4.010
16855TIP3    H150442   5.942   8.732   4.069
16855TIP3    H250443   5.961   8.800   3.934
16856TIP3   OH250444   5.127   8.620   6.125
16856TIP3    H150445   5.144   8.524   6.130
16856TIP3    H250446   5.039   8.623   6.082
16857TIP3   OH250447   5.103   8.272   4.317
16857TIP3    H150448   5.158   8.238   4.390
16857TIP3    H250449   5.171   8.277   4.246
16858TIP3   OH250450   5.735   8.705   5.898
16858TIP3    H150451   5.693   8.721   5.812
16858TIP3    H250452   5.766   8.612   5.891
16859TIP3   OH250453   5.616   8.471   4.124
16859TIP3    H150454   5.615   8.484   4.221
16859TIP3    H250455   5.614   8.373   4.119
16860TIP3   OH250456   6.228   8.712   5.504
16860TIP3    H150457   6.301   8.760   5.461
16860TIP3    H250458   6.155   8.776   5.493
16861TIP3   OH250459   5.246   8.354   6.107
16861TIP3    H150460   5.320   8.296   6.087
16861TIP3    H250461   5.271   8.388   6.195
16862TIP3   OH250462   5.314   8.175   4.542
16862TIP3    H150463   5.286   8.132   4.624
16862TIP3    H250464   5.349   8.099   4.490
16863TIP3   OH250465   5.582   8.240   5.770
16863TIP3    H150466   5.503   8.299   5.772
16863TIP3    H250467   5.630   8.273   5.690
16864TIP3   OH250468   5.412   7.968   4.381
16864TIP3    H150469   5.385   7.970   4.287
16864TIP3    H250470   5.509   7.974   4.373
16865TIP3   OH250471   6.097   8.641   5.902
16865TIP3    H150472   6.180   8.620   5.857
16865TIP3    H250473   6.095   8.574   5.974
16866TIP3   OH250474   6.241   8.300   4.040
16866TIP3    H150475   6.213   8.255   3.958
16866TIP3    H250476   6.207   8.391   4.020
16867TIP3   OH250477   5.705   8.027   5.895
16867TIP3    H150478   5.704   7.947   5.839
16867TIP3    H250479   5.661   8.093   5.837
16868TIP3   OH250480   5.707   7.814   5.701
16868TIP3    H150481   5.734   7.855   5.617
16868TIP3    H250482   5.613   7.791   5.683
16869TIP3   OH250483   5.735   8.350   5.575
16869TIP3    H150484   5.818   8.358   5.525
16869TIP3    H250485   5.678   8.417   5.531
16870TIP3   OH250486   6.318   8.315   5.959
16870TIP3    H150487   6.367   8.232   5.959
16870TIP3    H250488   6.385   8.377   5.927
16871TIP3   OH250489   6.358   8.568   5.691
16871TIP3    H150490   6.300   8.622   5.633
16871TIP3    H250491   6.445   8.589   5.651
16872TIP3   OH250492   5.583   8.140   6.125
16872TIP3    H150493   5.513   8.072   6.139
16872TIP3    H250494   5.617   8.115   6.037
16873TIP3   OH250495   5.837   7.578   5.768
16873TIP3    H150496   5.792   7.662   5.746
16873TIP3    H250497   5.766   7.513   5.756
16874TIP3   OH250498   5.965   8.082   5.985
16874TIP3    H150499   5.952   8.070   6.081
16874TIP3    H250500   5.876   8.058   5.954
16875TIP3   OH250501   6.205   8.031   5.840
16875TIP3    H150502   6.129   8.032   5.901
16875TIP3    H250503   6.278   8.000   5.898
16876TIP3   OH250504   6.434   7.974   5.996
16876TIP3    H150505   6.446   7.877   6.009
16876TIP3    H250506   6.431   8.008   6.088
16877TIP3   OH250507   5.422   7.920   6.177
16877TIP3    H150508   5.428   7.829   6.142
16877TIP3    H250509   5.458   7.907   6.267
16878TIP3   OH250510   5.931   7.589   6.027
16878TIP3    H150511   6.001   7.521   6.022
16878TIP3    H250512   5.894   7.582   5.937
16879TIP3   OH250513   6.000   7.803   6.184
16879TIP3    H150514   5.978   7.731   6.121
16879TIP3    H250515   5.922   7.861   6.177
16880TIP3   OH250516   5.219   9.031   4.285
16880TIP3    H150517   5.315   9.027   4.266
16880TIP3    H250518   5.190   9.079   4.206
16881TIP3   OH250519   4.700   8.413   4.501
16881TIP3    H150520   4.795   8.435   4.488
16881TIP3    H250521   4.695   8.324   4.461
16882TIP3   OH250522   4.614   9.025   4.915
16882TIP3    H150523   4.547   8.963   4.880
16882TIP3    H250524   4.659   8.969   4.982
16883TIP3   OH250525   4.750   8.878   5.102
16883TIP3    H150526   4.739   8.804   5.163
16883TIP3    H250527   4.801   8.939   5.158
16884TIP3   OH250528   6.487   9.269   4.902
16884TIP3    H150529   6.500   9.303   4.992
16884TIP3    H250530   6.514   9.344   4.848
16885TIP3   OH250531   6.507   9.296   5.181
16885TIP3    H150532   6.464   9.208   5.181
16885TIP3    H250533   6.579   9.278   5.244
16886TIP3   OH250534   6.553   8.974   5.756
16886TIP3    H150535   6.480   8.982   5.820
16886TIP3    H250536   6.594   9.062   5.761
16887TIP3   OH250537   6.371   8.483   4.375
16887TIP3    H150538   6.438   8.549   4.348
16887TIP3    H250539   6.413   8.446   4.456
16888TIP3   OH250540   6.497   8.352   4.580
16888TIP3    H150541   6.431   8.311   4.641
16888TIP3    H250542   6.562   8.392   4.643
16889TIP3   OH250543   6.551   8.746   5.014
16889TIP3    H150544   6.605   8.681   4.964
16889TIP3    H250545   6.534   8.815   4.948
16890TIP3   OH250546   6.383   9.047   5.207
16890TIP3    H150547   6.313   9.089   5.261
16890TIP3    H250548   6.331   8.999   5.139
16891TIP3   OH250549   6.431   8.253   4.229
16891TIP3    H150550   6.362   8.266   4.159
16891TIP3    H250551   6.409   8.330   4.286
16892TIP3   OH250552   6.352   7.919   4.138
16892TIP3    H150553   6.277   7.975   4.113
16892TIP3    H250554   6.303   7.835   4.158
16893TIP3   OH250555   6.312   8.209   4.728
16893TIP3    H150556   6.317   8.112   4.727
16893TIP3    H250557   6.298   8.227   4.824
16894TIP3   OH250558   4.938   8.284   5.473
16894TIP3    H150559   4.936   8.254   5.380
16894TIP3    H250560   5.035   8.285   5.490
16895TIP3   OH250561   6.601   8.635   5.583
16895TIP3    H150562   6.673   8.569   5.575
16895TIP3    H250563   6.629   8.706   5.523
16896TIP3   OH250564   6.787   8.441   5.600
16896TIP3    H150565   6.712   8.391   5.640
16896TIP3    H250566   6.859   8.376   5.615
16897TIP3   OH250567   6.241   7.680   4.183
16897TIP3    H150568   6.316   7.633   4.225
16897TIP3    H250569   6.167   7.617   4.192
16898TIP3   OH250570   6.306   7.924   4.625
16898TIP3    H150571   6.344   7.834   4.640
16898TIP3    H250572   6.372   7.958   4.563
16899TIP3   OH250573   6.469   8.101   5.117
16899TIP3    H150574   6.556   8.128   5.077
16899TIP3    H250575   6.482   8.137   5.207
16900TIP3   OH250576   6.537   8.244   5.349
16900TIP3    H150577   6.459   8.278   5.398
16900TIP3    H250578   6.569   8.326   5.305
16901TIP3   OH250579   5.155   7.972   6.150
16901TIP3    H150580   5.253   7.964   6.150
16901TIP3    H250581   5.131   7.886   6.190
16902TIP3   OH250582   7.002   7.833   5.909
16902TIP3    H150583   7.056   7.769   5.859
16902TIP3    H250584   6.967   7.889   5.836
16903TIP3   OH250585   6.420   7.675   4.657
16903TIP3    H150586   6.464   7.660   4.743
16903TIP3    H250587   6.357   7.600   4.656
16904TIP3   OH250588   5.117   7.662   5.479
16904TIP3    H150589   5.179   7.588   5.489
16904TIP3    H250590   5.179   7.737   5.473
16905TIP3   OH250591   4.920   7.937   5.553
16905TIP3    H150592   4.969   7.930   5.468
16905TIP3    H250593   4.949   8.023   5.584
16906TIP3   OH250594   6.862   7.972   5.719
16906TIP3    H150595   6.775   8.013   5.736
16906TIP3    H250596   6.834   7.903   5.656
16907TIP3   OH250597   6.502   7.613   4.276
16907TIP3    H150598   6.520   7.528   4.232
16907TIP3    H250599   6.592   7.640   4.301
16908TIP3   OH250600   4.903   7.444   5.056
16908TIP3    H150601   4.809   7.438   5.080
16908TIP3    H250602   4.900   7.500   4.975
16909TIP3   OH250603   6.063   9.142   4.559
16909TIP3    H150604   6.113   9.129   4.476
16909TIP3    H250605   6.112   9.213   4.603
16910TIP3   OH250606   5.124   7.520   5.868
16910TIP3    H150607   5.073   7.514   5.951
16910TIP3    H250608   5.057   7.558   5.808
16911TIP3   OH250609   5.163   8.947   5.945
16911TIP3    H150610   5.071   8.919   5.928
16911TIP3    H250611   5.172   8.929   6.039
16912TIP3   OH250612   5.340   8.978   5.492
16912TIP3    H150613   5.292   9.054   5.453
16912TIP3    H250614   5.426   8.993   5.448
16913TIP3   OH250615   5.787   9.224   5.629
16913TIP3    H150616   5.827   9.225   5.718
16913TIP3    H250617   5.853   9.276   5.578
16914TIP3   OH250618   5.966   9.376   5.488
16914TIP3    H150619   6.038   9.324   5.449
16914TIP3    H250620   6.016   9.433   5.550
16915TIP3   OH250621   6.760   7.737   5.589
16915TIP3    H150622   6.669   7.729   5.555
16915TIP3    H250623   6.791   7.644   5.577
16916TIP3   OH250624   5.017   9.236   5.515
16916TIP3    H150625   4.928   9.271   5.492
16916TIP3    H250626   5.027   9.272   5.604
16917TIP3   OH250627   5.254   9.214   5.373
16917TIP3    H150628   5.167   9.228   5.418
16917TIP3    H250629   5.234   9.249   5.284
16918TIP3   OH250630   5.680   9.245   5.170
16918TIP3    H150631   5.610   9.265   5.105
16918TIP3    H250632   5.692   9.332   5.213
16919TIP3   OH250633   5.948   9.183   5.220
16919TIP3    H150634   5.853   9.200   5.202
16919TIP3    H250635   5.989   9.262   5.182
16920TIP3   OH250636   6.158   9.377   5.139
16920TIP3    H150637   6.142   9.462   5.091
16920TIP3    H250638   6.180   9.316   5.065
16921TIP3   OH250639   4.929   9.031   5.261
16921TIP3    H150640   4.955   9.005   5.352
16921TIP3    H250641   5.001   8.986   5.210
16922TIP3   OH250642   5.122   8.902   5.116
16922TIP3    H150643   5.138   8.818   5.166
16922TIP3    H250644   5.213   8.939   5.113
16923TIP3   OH250645   5.388   8.997   5.120
16923TIP3    H150646   5.420   8.905   5.109
16923TIP3    H250647   5.431   9.019   5.204
16924TIP3   OH250648   5.964   7.653   5.205
16924TIP3    H150649   5.921   7.585   5.261
16924TIP3    H250650   6.036   7.604   5.163
16925TIP3   OH250651   6.487   7.536   5.112
16925TIP3    H150652   6.522   7.587   5.036
16925TIP3    H250653   6.391   7.550   5.105
16926TIP3   OH250654   6.582   7.637   4.876
16926TIP3    H150655   6.656   7.583   4.841
16926TIP3    H250656   6.618   7.727   4.862
16927TIP3   OH250657   5.213   7.362   5.225
16927TIP3    H150658   5.120   7.329   5.226
16927TIP3    H250659   5.261   7.277   5.221
16928TIP3   OH250660   4.999   7.231   4.872
16928TIP3    H150661   5.029   7.289   4.800
16928TIP3    H250662   4.971   7.296   4.939
16929TIP3   OH250663   5.656   7.395   5.104
16929TIP3    H150664   5.715   7.444   5.045
16929TIP3    H250665   5.677   7.434   5.190
16930TIP3   OH250666   6.206   7.541   5.087
16930TIP3    H150667   6.202   7.500   4.999
16930TIP3    H250668   6.191   7.462   5.145
16931TIP3   OH250669   6.234   7.464   4.651
16931TIP3    H150670   6.146   7.504   4.662
16931TIP3    H250671   6.221   7.379   4.698
16932TIP3   OH250672   4.718   8.800   4.652
16932TIP3    H150673   4.633   8.767   4.617
16932TIP3    H250674   4.704   8.895   4.640
16933TIP3   OH250675   5.116   7.392   4.635
16933TIP3    H150676   5.164   7.328   4.579
16933TIP3    H250677   5.189   7.445   4.671
16934TIP3   OH250678   5.629   7.567   4.734
16934TIP3    H150679   5.687   7.518   4.794
16934TIP3    H250680   5.652   7.658   4.760
16935TIP3   OH250681   5.488   8.993   4.233
16935TIP3    H150682   5.576   9.015   4.198
16935TIP3    H250683   5.466   8.917   4.175
16936TIP3   OH250684   6.207   9.109   4.327
16936TIP3    H150685   6.199   9.011   4.313
16936TIP3    H250686   6.162   9.142   4.246
16937TIP3   OH250687   5.421   7.643   6.116
16937TIP3    H150688   5.387   7.573   6.173
16937TIP3    H250689   5.516   7.643   6.143
16938TIP3   OH250690   5.671   7.640   6.235
16938TIP3    H150691   5.755   7.613   6.195
16938TIP3    H250692   5.657   7.570   6.302
16939TIP3   OH250693   4.793   8.829   4.292
16939TIP3    H150694   4.795   8.850   4.386
16939TIP3    H250695   4.881   8.787   4.278
16940TIP3   OH250696   6.493   7.703   6.022
16940TIP3    H150697   6.512   7.670   6.112
16940TIP3    H250698   6.582   7.695   5.980
16941TIP3   OH250699   6.436   9.255   5.511
16941TIP3    H150700   6.356   9.222   5.466
16941TIP3    H250701   6.415   9.350   5.518
16942TIP3   OH250702   7.700   8.626   4.282
16942TIP3    H150703   7.669   8.716   4.260
16942TIP3    H250704   7.627   8.573   4.244
16943TIP3   OH250705   7.696   8.628   4.663
16943TIP3    H150706   7.729   8.596   4.749
16943TIP3    H250707   7.658   8.547   4.625
16944TIP3   OH250708   6.998   8.522   5.025
16944TIP3    H150709   7.027   8.453   5.089
16944TIP3    H250710   7.077   8.578   5.023
16945TIP3   OH250711   7.948   8.924   4.343
16945TIP3    H150712   7.926   8.856   4.408
16945TIP3    H250713   7.967   9.001   4.399
16946TIP3   OH250714   6.679   8.133   4.537
16946TIP3    H150715   6.629   8.216   4.553
16946TIP3    H250716   6.610   8.078   4.496
16947TIP3   OH250717   6.736   8.420   4.707
16947TIP3    H150718   6.785   8.344   4.746
16947TIP3    H250719   6.796   8.448   4.637
16948TIP3   OH250720   7.585   9.388   4.357
16948TIP3    H150721   7.633   9.318   4.308
16948TIP3    H250722   7.591   9.358   4.448
16949TIP3   OH250723   7.496   8.852   4.707
16949TIP3    H150724   7.535   8.773   4.666
16949TIP3    H250725   7.580   8.897   4.732
16950TIP3   OH250726   8.507   8.172   4.709
16950TIP3    H150727   8.539   8.252   4.756
16950TIP3    H250728   8.535   8.189   4.618
16951TIP3   OH250729   7.913   8.355   4.741
16951TIP3    H150730   7.951   8.269   4.763
16951TIP3    H250731   7.879   8.338   4.651
16952TIP3   OH250732   7.246   8.012   4.707
16952TIP3    H150733   7.227   8.085   4.644
16952TIP3    H250734   7.198   7.939   4.664
16953TIP3   OH250735   7.943   8.106   4.333
16953TIP3    H150736   8.018   8.088   4.394
16953TIP3    H250737   7.990   8.139   4.255
16954TIP3   OH250738   6.882   8.216   4.814
16954TIP3    H150739   6.964   8.196   4.863
16954TIP3    H250740   6.896   8.159   4.735
16955TIP3   OH250741   7.322   8.414   4.606
16955TIP3    H150742   7.416   8.388   4.620
16955TIP3    H250743   7.283   8.330   4.575
16956TIP3   OH250744   8.582   8.383   4.871
16956TIP3    H150745   8.495   8.427   4.860
16956TIP3    H250746   8.593   8.391   4.967
16957TIP3   OH250747   7.245   7.996   5.141
16957TIP3    H150748   7.183   8.033   5.075
16957TIP3    H250749   7.194   8.012   5.223
16958TIP3   OH250750   7.587   8.845   4.155
16958TIP3    H150751   7.555   8.826   4.065
16958TIP3    H250752   7.546   8.931   4.173
16959TIP3   OH250753   7.351   8.771   4.937
16959TIP3    H150754   7.288   8.835   4.977
16959TIP3    H250755   7.397   8.825   4.870
16960TIP3   OH250756   8.161   8.104   4.501
16960TIP3    H150757   8.140   8.053   4.580
16960TIP3    H250758   8.203   8.184   4.537
16961TIP3   OH250759   7.114   8.111   4.926
16961TIP3    H150760   7.177   8.183   4.950
16961TIP3    H250761   7.163   8.070   4.852
16962TIP3   OH250762   7.177   8.965   5.031
16962TIP3    H150763   7.152   9.056   5.003
16962TIP3    H250764   7.100   8.946   5.089
16963TIP3   OH250765   6.573   8.653   4.270
16963TIP3    H150766   6.532   8.678   4.185
16963TIP3    H250767   6.602   8.740   4.306
16964TIP3   OH250768   8.014   9.169   4.513
16964TIP3    H150769   7.925   9.158   4.554
16964TIP3    H250770   8.001   9.254   4.466
16965TIP3   OH250771   8.302   8.076   4.877
16965TIP3    H150772   8.213   8.100   4.845
16965TIP3    H250773   8.360   8.104   4.803
16966TIP3   OH250774   7.601   7.715   4.854
16966TIP3    H150775   7.589   7.620   4.874
16966TIP3    H250776   7.523   7.752   4.902
16967TIP3   OH250777   7.714   9.216   4.186
16967TIP3    H150778   7.763   9.133   4.163
16967TIP3    H250779   7.776   9.282   4.145
16968TIP3   OH250780   7.854   9.001   4.093
16968TIP3    H150781   7.832   8.922   4.041
16968TIP3    H250782   7.892   8.962   4.175
16969TIP3   OH250783   8.237   9.086   4.852
16969TIP3    H150784   8.224   9.007   4.796
16969TIP3    H250785   8.219   9.159   4.790
16970TIP3   OH250786   7.532   8.480   4.112
16970TIP3    H150787   7.452   8.529   4.082
16970TIP3    H250788   7.580   8.468   4.028
16971TIP3   OH250789   7.487   8.258   3.829
16971TIP3    H150790   7.559   8.309   3.870
16971TIP3    H250791   7.541   8.190   3.782
16972TIP3   OH250792   8.435   8.722   4.699
16972TIP3    H150793   8.351   8.773   4.707
16972TIP3    H250794   8.456   8.738   4.605
16973TIP3   OH250795   7.880   8.562   4.084
16973TIP3    H150796   7.824   8.585   4.162
16973TIP3    H250797   7.962   8.534   4.128
16974TIP3   OH250798   8.114   8.601   4.993
16974TIP3    H150799   8.109   8.683   5.046
16974TIP3    H250800   8.026   8.603   4.949
16975TIP3   OH250801   7.116   8.564   4.495
16975TIP3    H150802   7.069   8.505   4.432
16975TIP3    H250803   7.190   8.507   4.526
16976TIP3   OH250804   7.221   8.936   4.604
16976TIP3    H150805   7.250   8.845   4.584
16976TIP3    H250806   7.296   8.960   4.663
16977TIP3   OH250807   7.248   8.528   4.854
16977TIP3    H150808   7.282   8.506   4.765
16977TIP3    H250809   7.291   8.613   4.874
16978TIP3   OH250810   7.773   9.166   4.632
16978TIP3    H150811   7.759   9.246   4.684
16978TIP3    H250812   7.758   9.094   4.696
16979TIP3   OH250813   7.384   9.087   5.176
16979TIP3    H150814   7.325   9.148   5.225
16979TIP3    H250815   7.317   9.031   5.131
16980TIP3   OH250816   7.713   8.420   3.912
16980TIP3    H150817   7.776   8.476   3.962
16980TIP3    H250818   7.741   8.440   3.819
16981TIP3   OH250819   7.137   8.646   5.275
16981TIP3    H150820   7.142   8.731   5.324
16981TIP3    H250821   7.043   8.623   5.289
16982TIP3   OH250822   7.456   9.103   4.196
16982TIP3    H150823   7.539   9.154   4.203
16982TIP3    H250824   7.400   9.162   4.143
16983TIP3   OH250825   7.178   9.253   5.265
16983TIP3    H150826   7.139   9.253   5.176
16983TIP3    H250827   7.100   9.233   5.322
16984TIP3   OH250828   8.236   7.659   3.959
16984TIP3    H150829   8.153   7.678   4.007
16984TIP3    H250830   8.247   7.741   3.907
16985TIP3   OH250831   6.974   8.404   4.312
16985TIP3    H150832   6.910   8.446   4.249
16985TIP3    H250833   6.937   8.316   4.319
16986TIP3   OH250834   8.031   9.027   3.507
16986TIP3    H150835   8.033   9.122   3.483
16986TIP3    H250836   8.123   9.000   3.488
16987TIP3   OH250837   6.758   8.784   5.211
16987TIP3    H150838   6.691   8.760   5.145
16987TIP3    H250839   6.795   8.697   5.238
16988TIP3   OH250840   6.606   8.984   4.842
16988TIP3    H150841   6.699   8.980   4.866
16988TIP3    H250842   6.575   9.061   4.893
16989TIP3   OH250843   8.464   9.418   4.889
16989TIP3    H150844   8.472   9.324   4.913
16989TIP3    H250845   8.385   9.444   4.941
16990TIP3   OH250846   7.581   9.215   5.032
16990TIP3    H150847   7.582   9.307   5.067
16990TIP3    H250848   7.511   9.175   5.089
16991TIP3   OH250849   7.342   9.344   3.988
16991TIP3    H150850   7.298   9.326   3.903
16991TIP3    H250851   7.310   9.433   4.011
16992TIP3   OH250852   6.783   9.189   4.376
16992TIP3    H150853   6.754   9.216   4.464
16992TIP3    H250854   6.725   9.112   4.359
16993TIP3   OH250855   7.544   9.244   3.627
16993TIP3    H150856   7.603   9.175   3.589
16993TIP3    H250857   7.579   9.253   3.718
16994TIP3   OH250858   7.594   9.290   3.898
16994TIP3    H150859   7.505   9.302   3.940
16994TIP3    H250860   7.644   9.252   3.971
16995TIP3   OH250861   8.369   8.564   5.170
16995TIP3    H150862   8.283   8.571   5.125
16995TIP3    H250863   8.385   8.468   5.167
16996TIP3   OH250864   6.961   8.968   5.198
16996TIP3    H150865   7.011   8.955   5.282
16996TIP3    H250866   6.889   8.902   5.208
16997TIP3   OH250867   7.361   7.792   4.983
16997TIP3    H150868   7.272   7.760   4.958
16997TIP3    H250869   7.336   7.873   5.031
16998TIP3   OH250870   7.895   7.907   5.178
16998TIP3    H150871   7.964   7.879   5.243
16998TIP3    H250872   7.812   7.886   5.225
16999TIP3   OH250873   8.138   8.338   5.100
16999TIP3    H150874   8.087   8.330   5.184
16999TIP3    H250875   8.108   8.424   5.064
17000TIP3   OH250876   7.804   8.479   3.667
17000TIP3    H150877   7.760   8.452   3.583
17000TIP3    H250878   7.885   8.519   3.631
17001TIP3   OH250879   7.508   7.837   3.957
17001TIP3    H150880   7.473   7.833   4.048
17001TIP3    H250881   7.468   7.757   3.919
17002TIP3   OH250882   7.293   8.306   5.004
17002TIP3    H150883   7.243   8.327   5.085
17002TIP3    H250884   7.277   8.387   4.950
17003TIP3   OH250885   7.178   8.194   4.516
17003TIP3    H150886   7.086   8.167   4.534
17003TIP3    H250887   7.192   8.154   4.428
17004TIP3   OH250888   7.668   8.279   4.246
17004TIP3    H150889   7.616   8.349   4.202
17004TIP3    H250890   7.724   8.248   4.171
17005TIP3   OH250891   7.843   8.557   5.330
17005TIP3    H150892   7.820   8.485   5.393
17005TIP3    H250893   7.936   8.573   5.354
17006TIP3   OH250894   7.826   8.309   4.482
17006TIP3    H150895   7.764   8.336   4.411
17006TIP3    H250896   7.860   8.227   4.441
17007TIP3   OH250897   7.111   8.335   5.212
17007TIP3    H150898   7.140   8.397   5.281
17007TIP3    H250899   7.101   8.252   5.263
17008TIP3   OH250900   7.165   7.814   3.921
17008TIP3    H150901   7.157   7.812   4.018
17008TIP3    H250902   7.084   7.861   3.895
17009TIP3   OH250903   6.711   7.858   4.784
17009TIP3    H150904   6.777   7.892   4.848
17009TIP3    H250905   6.767   7.818   4.717
17010TIP3   OH250906   7.838   8.554   4.907
17010TIP3    H150907   7.870   8.481   4.849
17010TIP3    H250908   7.809   8.502   4.985
17011TIP3   OH250909   7.505   8.020   4.580
17011TIP3    H150910   7.423   8.013   4.633
17011TIP3    H250911   7.574   8.011   4.649
17012TIP3   OH250912   6.942   8.071   4.588
17012TIP3    H150913   6.847   8.077   4.561
17012TIP3    H250914   6.966   7.979   4.565
17013TIP3   OH250915   7.208   8.069   4.273
17013TIP3    H150916   7.304   8.079   4.256
17013TIP3    H250917   7.167   8.090   4.187
17014TIP3   OH250918   7.997   8.091   4.778
17014TIP3    H150919   7.964   8.102   4.871
17014TIP3    H250920   7.932   8.028   4.744
17015TIP3   OH250921   7.046   8.099   4.045
17015TIP3    H150922   6.984   8.054   3.984
17015TIP3    H250923   7.106   8.141   3.980
17016TIP3   OH250924   8.164   9.775   4.992
17016TIP3    H150925   8.162   9.793   4.895
17016TIP3    H250926   8.215   9.851   5.023
17017TIP3   OH250927   7.125   8.891   5.420
17017TIP3    H150928   7.204   8.920   5.469
17017TIP3    H250929   7.059   8.889   5.492
17018TIP3   OH250930   7.588   8.345   4.677
17018TIP3    H150931   7.656   8.301   4.625
17018TIP3    H250932   7.595   8.301   4.764
17019TIP3   OH250933   7.108   7.831   4.553
17019TIP3    H150934   7.078   7.750   4.600
17019TIP3    H250935   7.167   7.794   4.486
17020TIP3   OH250936   7.565   8.241   4.963
17020TIP3    H150937   7.475   8.275   4.980
17020TIP3    H250938   7.622   8.299   5.016
17021TIP3   OH250939   7.298   8.631   4.054
17021TIP3    H150940   7.227   8.564   4.044
17021TIP3    H250941   7.284   8.661   4.147
17022TIP3   OH250942   8.201   8.865   4.692
17022TIP3    H150943   8.221   8.914   4.610
17022TIP3    H250944   8.115   8.822   4.670
17023TIP3   OH250945   7.761   7.936   3.935
17023TIP3    H150946   7.664   7.918   3.932
17023TIP3    H250947   7.766   8.032   3.920
17024TIP3   OH250948   7.702   8.949   5.058
17024TIP3    H150949   7.724   8.923   5.148
17024TIP3    H250950   7.662   9.037   5.069
17025TIP3   OH250951   7.831   8.198   4.036
17025TIP3    H150952   7.928   8.199   4.035
17025TIP3    H250953   7.808   8.262   3.966
17026TIP3   OH250954   6.993   8.651   4.731
17026TIP3    H150955   7.035   8.616   4.650
17026TIP3    H250956   7.029   8.593   4.800
17027TIP3   OH250957   7.449   8.782   3.883
17027TIP3    H150958   7.400   8.867   3.888
17027TIP3    H250959   7.394   8.725   3.940
17028TIP3   OH250960   6.874   8.574   5.350
17028TIP3    H150961   6.895   8.560   5.444
17028TIP3    H250962   6.805   8.506   5.335
17029TIP3   OH250963   7.600   8.688   5.368
17029TIP3    H150964   7.541   8.626   5.321
17029TIP3    H250965   7.688   8.653   5.342
17030TIP3   OH250966   7.861   9.208   4.950
17030TIP3    H150967   7.765   9.206   4.964
17030TIP3    H250968   7.889   9.259   5.029
17031TIP3   OH250969   8.273   8.276   3.857
17031TIP3    H150970   8.211   8.234   3.792
17031TIP3    H250971   8.270   8.367   3.822
17032TIP3   OH250972   8.486   9.134   4.944
17032TIP3    H150973   8.388   9.129   4.933
17032TIP3    H250974   8.514   9.107   4.853
17033TIP3   OH250975   7.975   9.095   3.771
17033TIP3    H150976   7.943   9.022   3.827
17033TIP3    H250977   7.983   9.053   3.684
17034TIP3   OH250978   7.968   8.728   4.610
17034TIP3    H150979   7.874   8.703   4.624
17034TIP3    H250980   8.001   8.648   4.564
17035TIP3   OH250981   6.649   8.262   4.058
17035TIP3    H150982   6.704   8.340   4.081
17035TIP3    H250983   6.579   8.268   4.125
17036TIP3   OH250984   7.240   8.720   4.302
17036TIP3    H150985   7.225   8.813   4.323
17036TIP3    H250986   7.196   8.672   4.375
17037TIP3   OH250987   7.364   9.296   4.825
17037TIP3    H150988   7.403   9.373   4.779
17037TIP3    H250989   7.440   9.267   4.879
17038TIP3   OH250990   7.020   9.193   4.222
17038TIP3    H150991   6.932   9.201   4.263
17038TIP3    H250992   7.052   9.285   4.223
17039TIP3   OH250993   7.751   8.934   4.789
17039TIP3    H150994   7.742   8.932   4.887
17039TIP3    H250995   7.830   8.879   4.777
17040TIP3   OH250996   7.726   8.828   3.673
17040TIP3    H150997   7.778   8.803   3.752
17040TIP3    H250998   7.639   8.796   3.698
17041TIP3   OH250999   8.003   9.468   4.838
17041TIP3    H151000   7.923   9.412   4.832
17041TIP3    H251001   7.986   9.533   4.767
17042TIP3   OH251002   8.049   9.299   3.481
17042TIP3    H151003   8.083   9.360   3.414
17042TIP3    H251004   7.974   9.353   3.517
17043TIP3   OH251005   7.086   8.079   5.357
17043TIP3    H151006   6.990   8.082   5.372
17043TIP3    H251007   7.115   8.018   5.428
17044TIP3   OH251008   7.885   8.770   3.896
17044TIP3    H151009   7.874   8.696   3.959
17044TIP3    H251010   7.981   8.761   3.876
17045TIP3   OH251011   6.813   9.153   4.992
17045TIP3    H151012   6.856   9.088   5.051
17045TIP3    H251013   6.822   9.234   5.044
17046TIP3   OH251014   7.091   8.808   3.671
17046TIP3    H151015   7.109   8.717   3.641
17046TIP3    H251016   7.071   8.793   3.766
17047TIP3   OH251017   7.038   8.811   3.945
17047TIP3    H151018   7.117   8.785   3.994
17047TIP3    H251019   7.042   8.909   3.951
17048TIP3   OH251020   6.774   8.505   4.146
17048TIP3    H151021   6.709   8.551   4.202
17048TIP3    H251022   6.790   8.573   4.078
17049TIP3   OH251023   7.923   8.142   5.038
17049TIP3    H151024   8.001   8.179   5.082
17049TIP3    H251025   7.906   8.061   5.092
17050TIP3   OH251026   7.799   7.896   4.207
17050TIP3    H151027   7.784   7.915   4.111
17050TIP3    H251028   7.837   7.980   4.238
17051TIP3   OH251029   7.303   9.010   3.896
17051TIP3    H151030   7.216   9.040   3.928
17051TIP3    H251031   7.321   9.078   3.829
17052TIP3   OH251032   7.490   8.074   4.307
17052TIP3    H151033   7.556   8.143   4.286
17052TIP3    H251034   7.498   8.067   4.404
17053TIP3   OH251035   7.763   8.393   5.114
17053TIP3    H151036   7.782   8.446   5.194
17053TIP3    H251037   7.816   8.313   5.130
17054TIP3   OH251038   7.637   7.802   4.410
17054TIP3    H151039   7.632   7.879   4.468
17054TIP3    H251040   7.697   7.836   4.339
17055TIP3   OH251041   7.046   9.085   3.961
17055TIP3    H151042   7.017   9.154   3.897
17055TIP3    H251043   7.033   9.130   4.047
17056TIP3   OH251044   7.145   7.799   4.199
17056TIP3    H151045   7.149   7.890   4.235
17056TIP3    H251046   7.240   7.775   4.206
17057TIP3   OH251047   8.403   8.293   5.086
17057TIP3    H151048   8.306   8.295   5.102
17057TIP3    H251049   8.405   8.237   5.008
17058TIP3   OH251050   8.052   8.486   4.482
17058TIP3    H151051   7.974   8.429   4.493
17058TIP3    H251052   8.121   8.437   4.532
17059TIP3   OH251053   6.764   8.716   3.953
17059TIP3    H151054   6.829   8.788   3.961
17059TIP3    H251055   6.810   8.661   3.886
17060TIP3   OH251056   8.007   9.437   4.431
17060TIP3    H151057   7.963   9.484   4.358
17060TIP3    H251058   8.100   9.450   4.404
17061TIP3   OH251059   7.096   7.712   4.960
17061TIP3    H151060   7.066   7.675   4.874
17061TIP3    H251061   7.088   7.634   5.019
17062TIP3   OH251062   6.640   8.931   4.344
17062TIP3    H151063   6.565   8.960   4.397
17062TIP3    H251064   6.615   8.966   4.256
17063TIP3   OH251065   6.793   9.470   5.410
17063TIP3    H151066   6.878   9.471   5.459
17063TIP3    H251067   6.772   9.376   5.412
17064TIP3   OH251068   7.278   9.437   5.454
17064TIP3    H151069   7.371   9.412   5.463
17064TIP3    H251070   7.251   9.379   5.381
17065TIP3   OH251071   7.257   9.011   3.586
17065TIP3    H151072   7.201   8.938   3.622
17065TIP3    H251073   7.332   8.960   3.550
17066TIP3   OH251074   7.917   9.340   5.183
17066TIP3    H151075   7.903   9.270   5.251
17066TIP3    H251076   7.989   9.393   5.223
17067TIP3   OH251077   7.692   9.053   3.495
17067TIP3    H151078   7.737   8.987   3.552
17067TIP3    H251079   7.746   9.053   3.414
17068TIP3   OH251080   6.924   8.877   5.610
17068TIP3    H151081   6.940   8.781   5.619
17068TIP3    H251082   6.836   8.879   5.569
17069TIP3   OH251083   6.899   8.528   3.805
17069TIP3    H151084   6.956   8.495   3.877
17069TIP3    H251085   6.964   8.531   3.732
17070TIP3   OH251086   7.533   8.962   5.384
17070TIP3    H151087   7.490   8.975   5.298
17070TIP3    H251088   7.564   8.869   5.380
17071TIP3   OH251089   7.407   8.725   3.613
17071TIP3    H151090   7.413   8.737   3.710
17071TIP3    H251091   7.415   8.627   3.607
17072TIP3   OH251092   8.024   8.968   4.991
17072TIP3    H151093   8.097   9.017   4.948
17072TIP3    H251094   7.951   9.031   4.980
17073TIP3   OH251095   7.044   8.610   5.592
17073TIP3    H151096   7.118   8.550   5.576
17073TIP3    H251097   7.067   8.644   5.681
17074TIP3   OH251098   7.109   8.431   4.027
17074TIP3    H151099   7.085   8.385   4.109
17074TIP3    H251100   7.147   8.359   3.973
17075TIP3   OH251101   7.376   8.495   5.255
17075TIP3    H151102   7.300   8.556   5.258
17075TIP3    H251103   7.426   8.529   5.177
17076TIP3   OH251104   7.210   8.226   3.870
17076TIP3    H151105   7.188   8.222   3.775
17076TIP3    H251106   7.308   8.227   3.864
17077TIP3   OH251107   7.894   8.896   5.388
17077TIP3    H151108   7.976   8.870   5.345
17077TIP3    H251109   7.889   8.832   5.462
17078TIP3   OH251110   8.035   8.556   3.527
17078TIP3    H151111   8.007   8.507   3.447
17078TIP3    H251112   8.000   8.645   3.502
17079TIP3   OH251113   7.500   8.284   5.383
17079TIP3    H151114   7.501   8.203   5.327
17079TIP3    H251115   7.456   8.349   5.324
17080TIP3   OH251116   7.503   8.071   5.188
17080TIP3    H151117   7.530   8.110   5.103
17080TIP3    H251118   7.410   8.047   5.171
17081TIP3   OH251119   7.531   8.605   5.061
17081TIP3    H151120   7.614   8.611   5.013
17081TIP3    H251121   7.476   8.672   5.017
17082TIP3   OH251122   8.113   8.573   5.441
17082TIP3    H151123   8.158   8.490   5.467
17082TIP3    H251124   8.187   8.627   5.410
17083TIP3   OH251125   8.155   8.826   5.180
17083TIP3    H151126   8.096   8.879   5.121
17083TIP3    H251127   8.242   8.845   5.138
17084TIP3   OH251128   7.375   8.398   5.610
17084TIP3    H151129   7.308   8.329   5.626
17084TIP3    H251130   7.413   8.369   5.524
17085TIP3   OH251131   7.636   7.834   5.254
17085TIP3    H151132   7.586   7.916   5.233
17085TIP3    H251133   7.566   7.766   5.244
17086TIP3   OH251134   7.762   8.340   5.472
17086TIP3    H151135   7.754   8.327   5.568
17086TIP3    H251136   7.671   8.314   5.445
17087TIP3   OH251137   8.000   8.285   5.325
17087TIP3    H151138   7.925   8.288   5.388
17087TIP3    H251139   8.074   8.255   5.382
17088TIP3   OH251140   8.228   8.225   5.474
17088TIP3    H151141   8.241   8.130   5.496
17088TIP3    H251142   8.223   8.267   5.562
17089TIP3   OH251143   7.216   8.178   5.663
17089TIP3    H151144   7.224   8.086   5.629
17089TIP3    H251145   7.256   8.166   5.752
17090TIP3   OH251146   7.730   7.844   5.512
17090TIP3    H151147   7.797   7.774   5.508
17090TIP3    H251148   7.690   7.837   5.423
17091TIP3   OH251149   7.796   8.059   5.672
17091TIP3    H151150   7.773   7.988   5.608
17091TIP3    H251151   7.718   8.118   5.666
17092TIP3   OH251152   7.016   9.283   3.771
17092TIP3    H151153   7.111   9.284   3.753
17092TIP3    H251154   6.985   9.336   3.695
17093TIP3   OH251155   6.497   8.668   3.992
17093TIP3    H151156   6.591   8.692   3.976
17093TIP3    H251157   6.492   8.581   3.948
17094TIP3   OH251158   6.410   9.277   4.402
17094TIP3    H151159   6.342   9.217   4.365
17094TIP3    H251160   6.454   9.219   4.468
17095TIP3   OH251161   6.555   9.134   4.588
17095TIP3    H151162   6.533   9.060   4.647
17095TIP3    H251163   6.602   9.192   4.651
17096TIP3   OH251164   8.266   9.519   4.379
17096TIP3    H151165   8.278   9.553   4.469
17096TIP3    H251166   8.289   9.595   4.323
17097TIP3   OH251167   8.323   9.544   4.658
17097TIP3    H151168   8.270   9.462   4.660
17097TIP3    H251169   8.386   9.522   4.728
17098TIP3   OH251170   8.349   9.238   5.241
17098TIP3    H151171   8.275   9.237   5.306
17098TIP3    H251172   8.386   9.326   5.251
17099TIP3   OH251173   8.162   8.746   3.862
17099TIP3    H151174   8.233   8.807   3.833
17099TIP3    H251175   8.204   8.705   3.940
17100TIP3   OH251176   8.289   8.614   4.066
17100TIP3    H151177   8.219   8.560   4.109
17100TIP3    H251178   8.349   8.629   4.139
17101TIP3   OH251179   8.348   9.000   4.503
17101TIP3    H151180   8.384   8.938   4.439
17101TIP3    H251181   8.329   9.079   4.448
17102TIP3   OH251182   8.179   9.306   4.691
17102TIP3    H151183   8.110   9.348   4.746
17102TIP3    H251184   8.126   9.257   4.625
17103TIP3   OH251185   8.232   8.521   3.713
17103TIP3    H151186   8.161   8.519   3.644
17103TIP3    H251187   8.200   8.596   3.766
17104TIP3   OH251188   8.105   8.190   3.664
17104TIP3    H151189   8.051   8.230   3.594
17104TIP3    H251190   8.077   8.096   3.657
17105TIP3   OH251191   8.114   8.463   4.213
17105TIP3    H151192   8.110   8.367   4.203
17105TIP3    H251193   8.095   8.475   4.309
17106TIP3   OH251194   6.734   8.542   4.959
17106TIP3    H151195   6.733   8.511   4.866
17106TIP3    H251196   6.831   8.543   4.977
17107TIP3   OH251197   8.396   8.890   5.066
17107TIP3    H151198   8.469   8.825   5.060
17107TIP3    H251199   8.428   8.962   5.009
17108TIP3   OH251200   8.586   8.700   5.087
17108TIP3    H151201   8.510   8.650   5.124
17108TIP3    H251202   8.657   8.634   5.100
17109TIP3   OH251203   8.048   7.924   3.655
17109TIP3    H151204   8.116   7.889   3.716
17109TIP3    H251205   7.968   7.872   3.676
17110TIP3   OH251206   8.112   8.187   4.112
17110TIP3    H151207   8.146   8.095   4.124
17110TIP3    H251208   8.166   8.215   4.036
17111TIP3   OH251209   8.266   8.357   4.603
17111TIP3    H151210   8.348   8.391   4.561
17111TIP3    H251211   8.277   8.392   4.694
17112TIP3   OH251212   8.331   8.501   4.833
17112TIP3    H151213   8.255   8.532   4.886
17112TIP3    H251214   8.364   8.585   4.795
17113TIP3   OH251215   6.950   8.226   5.635
17113TIP3    H151216   7.048   8.220   5.637
17113TIP3    H251217   6.927   8.141   5.679
17114TIP3   OH251218   8.783   8.087   5.389
17114TIP3    H151219   8.845   8.022   5.348
17114TIP3    H251220   8.760   8.144   5.312
17115TIP3   OH251221   8.211   7.933   4.149
17115TIP3    H151222   8.256   7.911   4.232
17115TIP3    H251223   8.148   7.857   4.142
17116TIP3   OH251224   6.911   7.919   4.963
17116TIP3    H151225   6.972   7.844   4.976
17116TIP3    H251226   6.974   7.993   4.960
17117TIP3   OH251227   6.715   8.193   5.038
17117TIP3    H151228   6.766   8.189   4.955
17117TIP3    H251229   6.746   8.278   5.074
17118TIP3   OH251230   8.659   8.234   5.195
17118TIP3    H151231   8.573   8.272   5.222
17118TIP3    H251232   8.628   8.159   5.140
17119TIP3   OH251233   8.300   7.866   3.785
17119TIP3    H151234   8.332   7.794   3.726
17119TIP3    H251235   8.362   7.938   3.766
17120TIP3   OH251236   6.684   7.700   4.512
17120TIP3    H151237   6.606   7.686   4.569
17120TIP3    H251238   6.674   7.792   4.487
17121TIP3   OH251239   7.863   9.395   4.050
17121TIP3    H151240   7.907   9.381   3.963
17121TIP3    H251241   7.911   9.471   4.084
17122TIP3   OH251242   6.920   7.782   5.357
17122TIP3    H151243   6.869   7.770   5.438
17122TIP3    H251244   6.851   7.814   5.295
17123TIP3   OH251245   6.959   9.201   5.431
17123TIP3    H151246   6.866   9.176   5.416
17123TIP3    H251247   6.969   9.186   5.526
17124TIP3   OH251248   7.138   9.232   4.973
17124TIP3    H151249   7.089   9.310   4.940
17124TIP3    H251250   7.225   9.250   4.932
17125TIP3   OH251251   7.583   9.479   5.117
17125TIP3    H151252   7.624   9.481   5.206
17125TIP3    H251253   7.648   9.532   5.065
17126TIP3   OH251254   7.761   9.631   4.976
17126TIP3    H151255   7.833   9.583   4.935
17126TIP3    H251256   7.811   9.691   5.036
17127TIP3   OH251257   8.556   7.994   5.075
17127TIP3    H151258   8.464   7.984   5.045
17127TIP3    H251259   8.588   7.901   5.065
17128TIP3   OH251260   6.812   9.487   5.004
17128TIP3    H151261   6.723   9.523   4.981
17128TIP3    H251262   6.825   9.531   5.090
17129TIP3   OH251263   7.042   9.460   4.852
17129TIP3    H151264   6.962   9.482   4.904
17129TIP3    H251265   7.027   9.513   4.771
17130TIP3   OH251266   7.475   9.500   4.659
17130TIP3    H151267   7.410   9.525   4.590
17130TIP3    H251268   7.490   9.588   4.701
17131TIP3   OH251269   7.744   9.441   4.707
17131TIP3    H151270   7.648   9.457   4.691
17131TIP3    H251271   7.783   9.519   4.667
17132TIP3   OH251272   7.956   9.634   4.623
17132TIP3    H151273   7.942   9.720   4.577
17132TIP3    H251274   7.969   9.573   4.549
17133TIP3   OH251275   6.743   9.281   4.744
17133TIP3    H151276   6.737   9.250   4.837
17133TIP3    H251277   6.836   9.305   4.740
17134TIP3   OH251278   7.160   9.214   4.614
17134TIP3    H151279   7.252   9.202   4.585
17134TIP3    H251280   7.173   9.279   4.685
17135TIP3   OH251281   7.759   7.910   4.694
17135TIP3    H151282   7.716   7.840   4.747
17135TIP3    H251283   7.830   7.860   4.649
17136TIP3   OH251284   8.285   7.793   4.601
17136TIP3    H151285   8.319   7.845   4.525
17136TIP3    H251286   8.189   7.806   4.592
17137TIP3   OH251287   8.382   7.898   4.364
17137TIP3    H151288   8.454   7.844   4.323
17137TIP3    H251289   8.413   7.988   4.349
17138TIP3   OH251290   7.007   7.617   4.710
17138TIP3    H151291   6.917   7.579   4.717
17138TIP3    H251292   7.060   7.535   4.708
17139TIP3   OH251293   6.788   7.487   4.359
17139TIP3    H151294   6.833   7.540   4.291
17139TIP3    H251295   6.766   7.555   4.427
17140TIP3   OH251296   7.448   7.656   4.592
17140TIP3    H151297   7.510   7.701   4.532
17140TIP3    H251298   7.478   7.687   4.679
17141TIP3   OH251299   8.004   7.798   4.574
17141TIP3    H151300   7.996   7.759   4.486
17141TIP3    H251301   7.988   7.718   4.631
17142TIP3   OH251302   8.030   7.720   4.138
17142TIP3    H151303   7.941   7.760   4.144
17142TIP3    H251304   8.015   7.635   4.185
17143TIP3   OH251305   6.512   9.060   4.145
17143TIP3    H151306   6.429   9.024   4.109
17143TIP3    H251307   6.501   9.153   4.121
17144TIP3   OH251308   6.913   7.651   4.129
17144TIP3    H151309   6.957   7.584   4.073
17144TIP3    H251310   6.991   7.702   4.160
17145TIP3   OH251311   7.422   7.823   4.224
17145TIP3    H151312   7.483   7.774   4.280
17145TIP3    H251313   7.447   7.914   4.247
17146TIP3   OH251314   7.285   9.248   3.722
17146TIP3    H151315   7.373   9.271   3.685
17146TIP3    H251316   7.263   9.174   3.662
17147TIP3   OH251317   7.997   9.362   3.812
17147TIP3    H151318   7.990   9.264   3.798
17147TIP3    H251319   7.956   9.396   3.730
17148TIP3   OH251320   7.217   7.902   5.603
17148TIP3    H151321   7.183   7.830   5.658
17148TIP3    H251322   7.311   7.902   5.629
17149TIP3   OH251323   7.467   7.898   5.718
17149TIP3    H151324   7.552   7.872   5.679
17149TIP3    H251325   7.455   7.828   5.786
17150TIP3   OH251326   6.588   9.081   3.778
17150TIP3    H151327   6.590   9.117   3.867
17150TIP3    H251328   6.678   9.043   3.767
17151TIP3   OH251329   8.290   7.956   5.509
17151TIP3    H151330   8.309   7.925   5.601
17151TIP3    H251331   8.379   7.952   5.468
17152TIP3   OH251332   8.227   9.507   5.008
17152TIP3    H151333   8.150   9.476   4.956
17152TIP3    H251334   8.211   9.604   5.004
17153TIP3   OH251335   8.792   8.773   4.515
17153TIP3    H151336   8.820   8.704   4.579
17153TIP3    H251337   8.860   8.840   4.531
17154TIP3   OH251338   8.755   9.220   4.270
17154TIP3    H151339   8.739   9.124   4.258
17154TIP3    H251340   8.853   9.222   4.271
17155TIP3   OH251341   8.598   8.595   4.173
17155TIP3    H151342   8.613   8.647   4.256
17155TIP3    H251343   8.600   8.669   4.109
17156TIP3   OH251344   9.031   8.271   4.201
17156TIP3    H151345   9.022   8.338   4.130
17156TIP3    H251346   8.997   8.192   4.152
17157TIP3   OH251347   9.119   8.684   4.099
17157TIP3    H151348   9.214   8.661   4.088
17157TIP3    H251349   9.077   8.601   4.072
17158TIP3   OH251350   9.037   8.253   4.625
17158TIP3    H151351   8.974   8.290   4.561
17158TIP3    H251352   8.989   8.267   4.709
17159TIP3   OH251353   8.900   8.372   4.414
17159TIP3    H151354   8.963   8.444   4.436
17159TIP3    H251355   8.950   8.330   4.339
17160TIP3   OH251356   8.372   8.906   3.756
17160TIP3    H151357   8.320   8.935   3.679
17160TIP3    H251358   8.391   8.992   3.800
17161TIP3   OH251359   9.389   7.960   4.346
17161TIP3    H151360   9.383   7.866   4.370
17161TIP3    H251361   9.312   7.996   4.396
17162TIP3   OH251362   8.877   8.797   4.007
17162TIP3    H151363   8.839   8.755   3.927
17162TIP3    H251364   8.969   8.769   4.000
17163TIP3   OH251365   9.035   8.802   4.333
17163TIP3    H151366   9.050   8.759   4.246
17163TIP3    H251367   9.064   8.893   4.317
17164TIP3   OH251368   8.929   8.902   4.751
17164TIP3    H151369   8.935   8.986   4.802
17164TIP3    H251370   8.838   8.876   4.774
17165TIP3   OH251371   8.760   8.654   3.797
17165TIP3    H151372   8.705   8.709   3.738
17165TIP3    H251373   8.731   8.566   3.771
17166TIP3   OH251374   8.547   9.034   4.698
17166TIP3    H151375   8.475   9.011   4.636
17166TIP3    H251376   8.581   8.947   4.727
17167TIP3   OH251377   8.398   9.226   4.338
17167TIP3    H151378   8.494   9.226   4.333
17167TIP3    H251379   8.377   9.309   4.383
17168TIP3   OH251380   8.752   9.210   4.681
17168TIP3    H151381   8.788   9.203   4.772
17168TIP3    H251382   8.681   9.142   4.685
17169TIP3   OH251383   9.154   8.045   4.472
17169TIP3    H151384   9.064   8.017   4.446
17169TIP3    H251385   9.132   8.129   4.517
17170TIP3   OH251386   9.692   8.156   4.657
17170TIP3    H151387   9.761   8.141   4.725
17170TIP3    H251388   9.609   8.145   4.707
17171TIP3   OH251389   9.294   8.082   3.446
17171TIP3    H151390   9.256   8.086   3.535
17171TIP3    H251391   9.248   8.002   3.411
17172TIP3   OH251392   9.079   8.571   4.486
17172TIP3    H151393   9.032   8.582   4.571
17172TIP3    H251394   9.057   8.654   4.439
17173TIP3   OH251395   8.959   8.440   3.998
17173TIP3    H151396   8.903   8.369   3.963
17173TIP3    H251397   9.016   8.449   3.919
17174TIP3   OH251398   8.904   8.590   4.702
17174TIP3    H151399   8.936   8.648   4.773
17174TIP3    H251400   8.897   8.505   4.749
17175TIP3   OH251401   8.952   8.065   3.414
17175TIP3    H151402   8.943   8.061   3.511
17175TIP3    H251403   8.871   8.112   3.388
17176TIP3   OH251404   8.550   8.186   4.230
17176TIP3    H151405   8.591   8.151   4.313
17176TIP3    H251406   8.533   8.100   4.182
17177TIP3   OH251407   8.482   8.098   3.806
17177TIP3    H151408   8.522   8.136   3.724
17177TIP3    H251409   8.414   8.166   3.823
17178TIP3   OH251410   9.281   8.298   4.072
17178TIP3    H151411   9.213   8.269   4.134
17178TIP3    H251412   9.362   8.262   4.116
17179TIP3   OH251413   9.004   8.319   3.757
17179TIP3    H151414   9.099   8.340   3.743
17179TIP3    H251415   8.962   8.345   3.673
17180TIP3   OH251416   8.836   8.356   3.543
17180TIP3    H151417   8.760   8.304   3.512
17180TIP3    H251418   8.874   8.382   3.458
17181TIP3   OH251419   8.915   9.137   4.899
17181TIP3    H151420   8.988   9.186   4.940
17181TIP3    H251421   8.850   9.138   4.973
17182TIP3   OH251422   8.920   8.087   4.038
17182TIP3    H151423   8.879   8.011   4.083
17182TIP3    H251424   8.964   8.045   3.963
17183TIP3   OH251425   9.356   8.473   4.468
17183TIP3    H151426   9.273   8.524   4.458
17183TIP3    H251427   9.424   8.541   4.478
17184TIP3   OH251428   8.771   8.903   4.233
17184TIP3    H151429   8.804   8.872   4.146
17184TIP3    H251430   8.831   8.855   4.293
17185TIP3   OH251431   8.671   8.827   4.835
17185TIP3    H151432   8.695   8.814   4.929
17185TIP3    H251433   8.601   8.761   4.823
17186TIP3   OH251434   8.455   8.516   3.553
17186TIP3    H151435   8.498   8.603   3.569
17186TIP3    H251436   8.376   8.523   3.611
17187TIP3   OH251437   8.881   8.336   4.842
17187TIP3    H151438   8.786   8.340   4.863
17187TIP3    H251439   8.914   8.278   4.913
17188TIP3   OH251440   8.651   9.380   4.492
17188TIP3    H151441   8.665   9.308   4.558
17188TIP3    H251442   8.689   9.452   4.547
17189TIP3   OH251443   8.576   8.764   3.628
17189TIP3    H151444   8.511   8.819   3.677
17189TIP3    H251445   8.637   8.831   3.592
17190TIP3   OH251446   9.285   8.327   3.799
17190TIP3    H151447   9.374   8.361   3.782
17190TIP3    H251448   9.285   8.323   3.897
17191TIP3   OH251449   9.425   8.069   3.900
17191TIP3    H151450   9.427   8.117   3.985
17191TIP3    H251451   9.493   8.120   3.852
17192TIP3   OH251452   8.941   8.053   3.690
17192TIP3    H151453   8.945   8.145   3.723
17192TIP3    H251454   9.036   8.030   3.695
17193TIP3   OH251455   8.507   8.248   3.576
17193TIP3    H151456   8.500   8.345   3.569
17193TIP3    H251457   8.429   8.219   3.529
17194TIP3   OH251458   8.884   7.971   4.449
17194TIP3    H151459   8.861   7.933   4.362
17194TIP3    H251460   8.882   7.891   4.507
17195TIP3   OH251461   8.404   9.165   3.842
17195TIP3    H151462   8.331   9.220   3.872
17195TIP3    H251463   8.413   9.197   3.750
17196TIP3   OH251464   8.722   9.122   5.088
17196TIP3    H151465   8.731   9.026   5.092
17196TIP3    H251466   8.631   9.135   5.056
17197TIP3   OH251467   8.843   8.858   5.076
17197TIP3    H151468   8.923   8.805   5.066
17197TIP3    H251469   8.840   8.872   5.171
17198TIP3   OH251470   8.896   8.655   3.493
17198TIP3    H151471   8.862   8.614   3.573
17198TIP3    H251472   8.965   8.591   3.465
17199TIP3   OH251473   9.166   8.745   4.735
17199TIP3    H151474   9.095   8.809   4.755
17199TIP3    H251475   9.181   8.760   4.641
17200TIP3   OH251476   9.289   8.534   4.875
17200TIP3    H151477   9.296   8.454   4.817
17200TIP3    H251478   9.257   8.602   4.812
17201TIP3   OH251479   9.293   8.323   4.686
17201TIP3    H151480   9.326   8.364   4.603
17201TIP3    H251481   9.202   8.299   4.661
17202TIP3   OH251482   9.153   8.662   5.080
17202TIP3    H151483   9.096   8.587   5.104
17202TIP3    H251484   9.202   8.625   5.003
17203TIP3   OH251485   9.430   8.090   4.741
17203TIP3    H151486   9.380   8.172   4.722
17203TIP3    H251487   9.362   8.021   4.730
17204TIP3   OH251488   9.547   8.617   4.950
17204TIP3    H151489   9.541   8.604   5.046
17204TIP3    H251490   9.460   8.584   4.922
17205TIP3   OH251491   9.014   8.433   5.146
17205TIP3    H151492   9.020   8.341   5.112
17205TIP3    H251493   9.049   8.420   5.237
17206TIP3   OH251494   9.524   8.094   4.996
17206TIP3    H151495   9.595   8.027   4.991
17206TIP3    H251496   9.488   8.089   4.905
17207TIP3   OH251497   9.559   8.299   5.170
17207TIP3    H151498   9.555   8.235   5.095
17207TIP3    H251499   9.525   8.380   5.131
17208TIP3   OH251500   8.291   8.924   3.470
17208TIP3    H151501   8.385   8.945   3.461
17208TIP3    H251502   8.286   8.834   3.432
17209TIP3   OH251503   8.190   9.534   3.900
17209TIP3    H151504   8.130   9.469   3.858
17209TIP3    H251505   8.257   9.477   3.941
17210TIP3   OH251506   8.347   9.384   4.072
17210TIP3    H151507   8.322   9.313   4.134
17210TIP3    H251508   8.344   9.462   4.128
17211TIP3   OH251509   8.536   8.783   4.429
17211TIP3    H151510   8.548   8.835   4.348
17211TIP3    H251511   8.627   8.786   4.466
17212TIP3   OH251512   8.749   8.487   5.123
17212TIP3    H151513   8.847   8.479   5.125
17212TIP3    H251514   8.723   8.402   5.163
17213TIP3   OH251515   8.706   8.183   4.461
17213TIP3    H151516   8.763   8.103   4.467
17213TIP3    H251517   8.777   8.250   4.449
17214TIP3   OH251518   8.513   8.458   4.505
17214TIP3    H151519   8.592   8.405   4.489
17214TIP3    H251520   8.547   8.532   4.556
17215TIP3   OH251521   8.486   7.977   4.049
17215TIP3    H151522   8.393   7.950   4.050
17215TIP3    H251523   8.494   8.018   3.960
17216TIP3   OH251524   8.715   8.038   4.844
17216TIP3    H151525   8.666   8.026   4.927
17216TIP3    H251526   8.644   8.069   4.784
17217TIP3   OH251527   8.746   9.427   4.919
17217TIP3    H151528   8.651   9.437   4.902
17217TIP3    H251529   8.752   9.439   5.014
17218TIP3   OH251530   9.488   8.154   4.165
17218TIP3    H151531   9.478   8.088   4.236
17218TIP3    H251532   9.585   8.160   4.153
17219TIP3   OH251533   8.804   7.876   4.199
17219TIP3    H151534   8.713   7.840   4.198
17219TIP3    H251535   8.856   7.793   4.195
17220TIP3   OH251536   8.598   7.742   3.846
17220TIP3    H151537   8.625   7.798   3.770
17220TIP3    H251538   8.561   7.807   3.907
17221TIP3   OH251539   9.244   7.913   4.083
17221TIP3    H151540   9.307   7.955   4.022
17221TIP3    H251541   9.279   7.939   4.169
17222TIP3   OH251542   9.859   7.988   4.036
17222TIP3    H151543   9.791   7.971   3.970
17222TIP3    H251544   9.836   7.920   4.103
17223TIP3   OH251545   8.277   9.307   3.635
17223TIP3    H151546   8.202   9.256   3.601
17223TIP3    H251547   8.255   9.394   3.594
17224TIP3   OH251548   8.708   7.903   3.610
17224TIP3    H151549   8.756   7.840   3.553
17224TIP3    H251550   8.782   7.955   3.648
17225TIP3   OH251551   9.214   8.078   3.712
17225TIP3    H151552   9.277   8.032   3.770
17225TIP3    H251553   9.237   8.170   3.737
17226TIP3   OH251554   9.014   8.158   5.089
17226TIP3    H151555   8.980   8.086   5.145
17226TIP3    H251556   9.109   8.157   5.115
17227TIP3   OH251557   9.263   8.156   5.211
17227TIP3    H151558   9.349   8.135   5.171
17227TIP3    H251559   9.253   8.083   5.275
17228TIP3   OH251560   0.984   8.975   6.399
17228TIP3    H151561   0.942   9.060   6.417
17228TIP3    H251562   0.991   8.980   6.303
17229TIP3   OH251563   1.244   8.880   7.087
17229TIP3    H151564   1.299   8.814   7.040
17229TIP3    H251565   1.204   8.930   7.013
17230TIP3   OH251566   1.105   9.019   6.894
17230TIP3    H151567   1.016   9.056   6.895
17230TIP3    H251568   1.094   8.945   6.831
17231TIP3   OH251569   0.745   8.663   5.471
17231TIP3    H151570   0.783   8.587   5.423
17231TIP3    H251571   0.814   8.731   5.461
17232TIP3   OH251572   1.010   8.784   6.759
17232TIP3    H151573   0.918   8.787   6.731
17232TIP3    H251574   1.030   8.688   6.752
17233TIP3   OH251575   0.825   8.664   6.036
17233TIP3    H151576   0.910   8.629   6.003
17233TIP3    H251577   0.845   8.760   6.038
17234TIP3   OH251578   0.909   9.178   5.712
17234TIP3    H151579   0.894   9.267   5.747
17234TIP3    H251580   0.851   9.126   5.768
17235TIP3   OH251581   2.756   9.215   5.882
17235TIP3    H151582   2.789   9.296   5.926
17235TIP3    H251583   2.782   9.232   5.790
17236TIP3   OH251584   2.159   9.400   5.912
17236TIP3    H151585   2.200   9.314   5.935
17236TIP3    H251586   2.122   9.379   5.825
17237TIP3   OH251587   1.497   9.057   5.885
17237TIP3    H151588   1.478   9.130   5.822
17237TIP3    H251589   1.448   8.984   5.840
17238TIP3   OH251590   2.189   9.143   5.509
17238TIP3    H151591   2.262   9.129   5.573
17238TIP3    H251592   2.239   9.182   5.435
17239TIP3   OH251593   1.118   9.241   5.994
17239TIP3    H151594   1.202   9.238   6.042
17239TIP3    H251595   1.143   9.203   5.908
17240TIP3   OH251596   1.585   9.461   5.769
17240TIP3    H151597   1.670   9.422   5.799
17240TIP3    H251598   1.534   9.383   5.740
17241TIP3   OH251599   2.843   9.415   6.056
17241TIP3    H151600   2.764   9.464   6.025
17241TIP3    H251601   2.850   9.450   6.147
17242TIP3   OH251602   1.494   9.041   6.319
17242TIP3    H151603   1.431   9.073   6.251
17242TIP3    H251604   1.441   9.058   6.401
17243TIP3   OH251605   2.401   9.152   5.676
17243TIP3    H151606   2.398   9.099   5.756
17243TIP3    H251607   2.452   9.231   5.704
17244TIP3   OH251608   1.364   9.151   6.105
17244TIP3    H151609   1.424   9.227   6.119
17244TIP3    H251610   1.409   9.109   6.028
17245TIP3   OH251611   2.552   9.118   6.051
17245TIP3    H151612   2.465   9.145   6.019
17245TIP3    H251613   2.612   9.148   5.980
17246TIP3   OH251614   1.851   8.761   6.033
17246TIP3    H151615   1.837   8.666   6.048
17246TIP3    H251616   1.774   8.799   6.079
17247TIP3   OH251617   1.761   9.264   5.065
17247TIP3    H151618   1.794   9.353   5.078
17247TIP3    H251619   1.788   9.247   4.973
17248TIP3   OH251620   2.388   9.642   6.159
17248TIP3    H151621   2.400   9.726   6.112
17248TIP3    H251622   2.297   9.618   6.129
17249TIP3   OH251623   2.476   8.706   5.129
17249TIP3    H151624   2.399   8.713   5.189
17249TIP3    H251625   2.491   8.799   5.107
17250TIP3   OH251626   2.610   9.606   6.345
17250TIP3    H151627   2.530   9.600   6.289
17250TIP3    H251628   2.637   9.512   6.348
17251TIP3   OH251629   1.613   8.835   6.161
17251TIP3    H151630   1.523   8.804   6.137
17251TIP3    H251631   1.588   8.919   6.204
17252TIP3   OH251632   2.144   8.953   6.355
17252TIP3    H151633   2.212   8.923   6.419
17252TIP3    H251634   2.060   8.931   6.400
17253TIP3   OH251635   2.386   9.368   6.275
17253TIP3    H151636   2.338   9.364   6.361
17253TIP3    H251637   2.357   9.452   6.239
17254TIP3   OH251638   1.764   8.878   5.132
17254TIP3    H151639   1.727   8.883   5.222
17254TIP3    H251640   1.720   8.797   5.100
17255TIP3   OH251641   1.535   9.362   6.169
17255TIP3    H151642   1.477   9.370   6.247
17255TIP3    H251643   1.509   9.439   6.115
17256TIP3   OH251644   1.428   9.236   5.695
17256TIP3    H151645   1.334   9.212   5.708
17256TIP3    H251646   1.443   9.200   5.605
17257TIP3   OH251647   1.929   9.325   5.422
17257TIP3    H151648   1.846   9.375   5.402
17257TIP3    H251649   1.963   9.305   5.333
17258TIP3   OH251650   2.098   9.588   6.513
17258TIP3    H151651   2.094   9.506   6.566
17258TIP3    H251652   2.190   9.616   6.530
17259TIP3   OH251653   2.065   9.340   5.662
17259TIP3    H151654   2.006   9.358   5.585
17259TIP3    H251655   2.109   9.261   5.626
17260TIP3   OH251656   1.379   9.382   6.413
17260TIP3    H151657   1.326   9.424   6.482
17260TIP3    H251658   1.352   9.289   6.427
17261TIP3   OH251659   1.414   8.856   5.100
17261TIP3    H151660   1.405   8.858   5.197
17261TIP3    H251661   1.337   8.910   5.073
17262TIP3   OH251662   0.957   8.900   5.951
17262TIP3    H151663   1.018   8.936   6.019
17262TIP3    H251664   1.018   8.856   5.891
17263TIP3   OH251665   0.928   8.897   5.497
17263TIP3    H151666   0.967   8.920   5.409
17263TIP3    H251667   0.895   8.985   5.520
17264TIP3   OH251668   2.132   9.585   6.106
17264TIP3    H151669   2.134   9.519   6.033
17264TIP3    H251670   2.061   9.547   6.160
17265TIP3   OH251671   1.753   9.052   5.755
17265TIP3    H151672   1.669   9.056   5.804
17265TIP3    H251673   1.817   9.068   5.825
17266TIP3   OH251674   1.185   9.118   5.754
17266TIP3    H151675   1.091   9.115   5.726
17266TIP3    H251676   1.216   9.027   5.739
17267TIP3   OH251677   1.463   9.112   5.453
17267TIP3    H151678   1.554   9.134   5.425
17267TIP3    H251679   1.409   9.134   5.374
17268TIP3   OH251680   2.242   9.137   5.959
17268TIP3    H151681   2.205   9.147   6.049
17268TIP3    H251682   2.179   9.073   5.921
17269TIP3   OH251683   1.283   9.120   5.240
17269TIP3    H151684   1.223   9.087   5.170
17269TIP3    H251685   1.330   9.191   5.190
17270TIP3   OH251686   1.831   9.364   5.847
17270TIP3    H151687   1.915   9.346   5.802
17270TIP3    H251688   1.853   9.352   5.940
17271TIP3   OH251689   1.358   8.878   5.731
17271TIP3    H151690   1.327   8.796   5.775
17271TIP3    H251691   1.407   8.843   5.655
17272TIP3   OH251692   1.811   9.276   6.152
17272TIP3    H151693   1.724   9.318   6.144
17272TIP3    H251694   1.866   9.344   6.194
17273TIP3   OH251695   2.004   9.003   5.091
17273TIP3    H151696   1.910   8.976   5.106
17273TIP3    H251697   2.004   9.097   5.119
17274TIP3   OH251698   2.080   9.258   5.183
17274TIP3    H151699   2.171   9.247   5.219
17274TIP3    H251700   2.081   9.350   5.152
17275TIP3   OH251701   1.843   9.603   6.627
17275TIP3    H151702   1.776   9.629   6.562
17275TIP3    H251703   1.918   9.576   6.572
17276TIP3   OH251704   2.511   9.320   5.048
17276TIP3    H151705   2.453   9.287   4.976
17276TIP3    H251706   2.531   9.409   5.016
17277TIP3   OH251707   1.342   9.121   6.540
17277TIP3    H151708   1.247   9.122   6.557
17277TIP3    H251709   1.368   9.049   6.599
17278TIP3   OH251710   2.165   9.193   6.220
17278TIP3    H151711   2.252   9.223   6.252
17278TIP3    H251712   2.152   9.109   6.270
17279TIP3   OH251713   2.054   8.937   5.377
17279TIP3    H151714   2.034   8.966   5.286
17279TIP3    H251715   2.091   9.018   5.418
17280TIP3   OH251716   1.750   9.115   5.484
17280TIP3    H151717   1.815   9.187   5.470
17280TIP3    H251718   1.747   9.109   5.581
17281TIP3   OH251719   2.000   9.434   6.291
17281TIP3    H151720   2.031   9.483   6.370
17281TIP3    H251721   2.054   9.353   6.294
17282TIP3   OH251722   1.885   8.845   5.587
17282TIP3    H151723   1.872   8.923   5.644
17282TIP3    H251724   1.945   8.883   5.519
17283TIP3   OH251725   1.396   8.842   5.377
17283TIP3    H151726   1.391   8.935   5.405
17283TIP3    H251727   1.493   8.827   5.385
17284TIP3   OH251728   2.655   9.340   6.274
17284TIP3    H151729   2.558   9.331   6.281
17284TIP3    H251730   2.670   9.300   6.187
17285TIP3   OH251731   2.292   9.516   5.641
17285TIP3    H151732   2.223   9.457   5.673
17285TIP3    H251733   2.369   9.491   5.697
17286TIP3   OH251734   0.948   9.036   5.266
17286TIP3    H151735   0.969   9.128   5.246
17286TIP3    H251736   0.878   9.013   5.202
17287TIP3   OH251737   1.350   8.754   6.136
17287TIP3    H151738   1.316   8.726   6.049
17287TIP3    H251739   1.337   8.672   6.189
17288TIP3   OH251740   1.313   9.649   6.764
17288TIP3    H151741   1.334   9.555   6.765
17288TIP3    H251742   1.294   9.666   6.857
17289TIP3   OH251743   1.640   9.487   6.397
17289TIP3    H151744   1.545   9.469   6.414
17289TIP3    H251745   1.643   9.485   6.300
17290TIP3   OH251746   1.442   9.271   5.084
17290TIP3    H151747   1.417   9.225   5.000
17290TIP3    H251748   1.538   9.278   5.074
17291TIP3   OH251749   1.756   9.305   6.568
17291TIP3    H151750   1.758   9.224   6.514
17291TIP3    H251751   1.717   9.369   6.504
17292TIP3   OH251752   1.753   9.108   6.367
17292TIP3    H151753   1.779   9.156   6.286
17292TIP3    H251754   1.658   9.089   6.349
17293TIP3   OH251755   2.370   9.625   6.615
17293TIP3    H151756   2.390   9.532   6.636
17293TIP3    H251757   2.458   9.656   6.591
17294TIP3   OH251758   1.616   9.444   6.783
17294TIP3    H151759   1.558   9.366   6.791
17294TIP3    H251760   1.666   9.423   6.702
17295TIP3   OH251761   1.885   8.877   6.432
17295TIP3    H151762   1.837   8.959   6.409
17295TIP3    H251763   1.816   8.809   6.420
17296TIP3   OH251764   2.019   9.362   6.645
17296TIP3    H151765   2.007   9.359   6.742
17296TIP3    H251766   1.927   9.342   6.619
17297TIP3   OH251767   2.257   9.335   6.509
17297TIP3    H151768   2.178   9.321   6.565
17297TIP3    H251769   2.329   9.299   6.565
17298TIP3   OH251770   2.484   9.272   6.656
17298TIP3    H151771   2.495   9.177   6.674
17298TIP3    H251772   2.478   9.311   6.746
17299TIP3   OH251773   1.470   9.221   6.844
17299TIP3    H151774   1.471   9.133   6.801
17299TIP3    H251775   1.505   9.200   6.932
17300TIP3   OH251776   1.977   8.887   6.690
17300TIP3    H151777   2.046   8.817   6.684
17300TIP3    H251778   1.938   8.882   6.601
17301TIP3   OH251779   2.045   9.102   6.850
17301TIP3    H151780   2.022   9.031   6.785
17301TIP3    H251781   1.968   9.162   6.842
17302TIP3   OH251782   2.367   9.222   4.821
17302TIP3    H151783   2.334   9.298   4.770
17302TIP3    H251784   2.284   9.179   4.850
17303TIP3   OH251785   2.385   9.491   5.390
17303TIP3    H151786   2.386   9.395   5.406
17303TIP3    H251787   2.362   9.523   5.480
17304TIP3   OH251788   2.819   9.766   6.281
17304TIP3    H151789   2.746   9.706   6.303
17304TIP3    H251790   2.895   9.704   6.280
17305TIP3   OH251791   2.293   8.956   4.837
17305TIP3    H151792   2.335   8.900   4.905
17305TIP3    H251793   2.202   8.917   4.839
17306TIP3   OH251794   2.343   9.216   5.285
17306TIP3    H151795   2.386   9.128   5.297
17306TIP3    H251796   2.408   9.260   5.229
17307TIP3   OH251797   2.512   9.399   5.770
17307TIP3    H151798   2.597   9.428   5.729
17307TIP3    H251799   2.529   9.434   5.860
17308TIP3   OH251800   2.590   9.526   6.002
17308TIP3    H151801   2.515   9.558   6.054
17308TIP3    H251802   2.640   9.610   5.987
17309TIP3   OH251803   1.205   9.278   6.807
17309TIP3    H151804   1.302   9.268   6.816
17309TIP3    H251805   1.175   9.194   6.844
17310TIP3   OH251806   3.035   9.136   6.570
17310TIP3    H151807   3.094   9.069   6.527
17310TIP3    H251808   3.009   9.191   6.493
17311TIP3   OH251809   2.465   8.972   5.317
17311TIP3    H151810   2.513   8.962   5.402
17311TIP3    H251811   2.401   8.898   5.324
17312TIP3   OH251812   1.157   8.954   6.132
17312TIP3    H151813   1.225   8.887   6.150
17312TIP3    H251814   1.209   9.036   6.134
17313TIP3   OH251815   0.996   9.241   6.244
17313TIP3    H151816   1.024   9.234   6.151
17313TIP3    H251817   0.960   9.331   6.246
17314TIP3   OH251818   2.907   9.279   6.375
17314TIP3    H151819   2.816   9.314   6.387
17314TIP3    H251820   2.887   9.205   6.315
17315TIP3   OH251821   2.568   8.947   4.891
17315TIP3    H151822   2.600   8.854   4.894
17315TIP3    H251823   2.644   8.991   4.937
17316TIP3   OH251824   0.952   8.730   5.704
17316TIP3    H151825   0.874   8.759   5.753
17316TIP3    H251826   0.953   8.794   5.629
17317TIP3   OH251827   1.186   8.878   6.562
17317TIP3    H151828   1.123   8.837   6.624
17317TIP3    H251829   1.126   8.901   6.488
17318TIP3   OH251830   2.803   9.039   6.254
17318TIP3    H151831   2.713   9.031   6.218
17318TIP3    H251832   2.836   8.947   6.242
17319TIP3   OH251833   2.016   8.956   5.876
17319TIP3    H151834   1.966   8.888   5.923
17319TIP3    H251835   2.082   8.905   5.826
17320TIP3   OH251836   2.533   8.837   5.779
17320TIP3    H151837   2.569   8.887   5.702
17320TIP3    H251838   2.437   8.852   5.769
17321TIP3   OH251839   2.625   8.938   5.539
17321TIP3    H151840   2.698   8.883   5.503
17321TIP3    H251841   2.663   9.028   5.525
17322TIP3   OH251842   1.258   8.664   5.887
17322TIP3    H151843   1.167   8.627   5.888
17322TIP3    H251844   1.309   8.580   5.885
17323TIP3   OH251845   1.047   8.527   5.535
17323TIP3    H151846   1.076   8.584   5.462
17323TIP3    H251847   1.016   8.593   5.601
17324TIP3   OH251848   1.702   8.694   5.769
17324TIP3    H151849   1.759   8.745   5.709
17324TIP3    H251850   1.719   8.736   5.854
17325TIP3   OH251851   2.251   8.841   5.750
17325TIP3    H151852   2.248   8.802   5.662
17325TIP3    H251853   2.236   8.762   5.807
17326TIP3   OH251854   2.277   8.764   5.314
17326TIP3    H151855   2.190   8.806   5.328
17326TIP3    H251856   2.264   8.679   5.361
17327TIP3   OH251857   1.161   8.689   5.304
17327TIP3    H151858   1.210   8.630   5.244
17327TIP3    H251859   1.233   8.746   5.338
17328TIP3   OH251860   1.673   8.868   5.397
17328TIP3    H151861   1.733   8.822   5.458
17328TIP3    H251862   1.694   8.961   5.422
17329TIP3   OH251863   1.466   8.945   6.778
17329TIP3    H151864   1.431   8.875   6.836
17329TIP3    H251865   1.560   8.946   6.806
17330TIP3   OH251866   1.713   8.940   6.898
17330TIP3    H151867   1.799   8.921   6.857
17330TIP3    H251868   1.706   8.867   6.962
17331TIP3   OH251869   2.539   9.001   6.686
17331TIP3    H151870   2.560   8.970   6.777
17331TIP3    H251871   2.628   8.997   6.643
17332TIP3   OH251872   2.721   9.450   5.198
17332TIP3    H151873   2.686   9.527   5.246
17332TIP3    H251874   2.645   9.391   5.198
17333TIP3   OH251875   4.554   9.472   5.369
17333TIP3    H151876   4.585   9.553   5.415
17333TIP3    H251877   4.576   9.493   5.277
17334TIP3   OH251878   3.955   9.654   5.397
17334TIP3    H151879   3.996   9.569   5.421
17334TIP3    H251880   3.917   9.632   5.310
17335TIP3   OH251881   3.292   9.312   5.371
17335TIP3    H151882   3.274   9.386   5.309
17335TIP3    H251883   3.244   9.239   5.326
17336TIP3   OH251884   3.986   9.400   4.995
17336TIP3    H151885   4.059   9.385   5.060
17336TIP3    H251886   4.038   9.439   4.922
17337TIP3   OH251887   2.916   9.497   5.487
17337TIP3    H151888   3.003   9.488   5.529
17337TIP3    H251889   2.935   9.463   5.398
17338TIP3   OH251890   3.380   9.716   5.256
17338TIP3    H151891   3.465   9.679   5.286
17338TIP3    H251892   3.330   9.638   5.228
17339TIP3   OH251893   4.639   9.673   5.543
17339TIP3    H151894   4.560   9.722   5.513
17339TIP3    H251895   4.648   9.707   5.633
17340TIP3   OH251896   3.289   9.298   5.806
17340TIP3    H151897   3.228   9.330   5.737
17340TIP3    H251898   3.237   9.316   5.887
17341TIP3   OH251899   4.198   9.408   5.163
17341TIP3    H151900   4.190   9.359   5.246
17341TIP3    H251901   4.248   9.487   5.191
17342TIP3   OH251902   3.158   9.405   5.590
17342TIP3    H151903   3.216   9.482   5.607
17342TIP3    H251904   3.207   9.364   5.515
17343TIP3   OH251905   4.348   9.373   5.537
17343TIP3    H151906   4.261   9.404   5.506
17343TIP3    H251907   4.408   9.406   5.466
17344TIP3   OH251908   3.646   9.016   5.518
17344TIP3    H151909   3.634   8.921   5.537
17344TIP3    H251910   3.569   9.054   5.565
17345TIP3   OH251911   3.524   9.533   4.519
17345TIP3    H151912   3.575   9.604   4.561
17345TIP3    H251913   3.588   9.499   4.454
17346TIP3   OH251914   4.183   9.899   5.648
17346TIP3    H151915   4.195   9.984   5.603
17346TIP3    H251916   4.091   9.877   5.620
17347TIP3   OH251917   4.278   8.961   4.619
17347TIP3    H151918   4.197   8.977   4.672
17347TIP3    H251919   4.288   9.047   4.574
17348TIP3   OH251920   4.406   9.862   5.833
17348TIP3    H151921   4.327   9.856   5.777
17348TIP3    H251922   4.434   9.768   5.836
17349TIP3   OH251923   3.407   9.092   5.646
17349TIP3    H151924   3.317   9.061   5.621
17349TIP3    H251925   3.383   9.175   5.692
17350TIP3   OH251926   3.940   9.209   5.842
17350TIP3    H151927   4.008   9.180   5.906
17350TIP3    H251928   3.856   9.187   5.887
17351TIP3   OH251929   4.182   9.625   5.762
17351TIP3    H151930   4.134   9.619   5.848
17351TIP3    H251931   4.153   9.711   5.728
17352TIP3   OH251932   3.557   9.140   4.619
17352TIP3    H151933   3.523   9.140   4.711
17352TIP3    H251934   3.517   9.057   4.587
17353TIP3   OH251935   3.329   9.611   5.643
17353TIP3    H151936   3.296   9.625   5.734
17353TIP3    H251937   3.319   9.698   5.602
17354TIP3   OH251938   3.224   9.493   5.181
17354TIP3    H151939   3.131   9.467   5.197
17354TIP3    H251940   3.238   9.455   5.092
17355TIP3   OH251941   3.725   9.582   4.910
17355TIP3    H151942   3.642   9.632   4.889
17355TIP3    H251943   3.762   9.564   4.822
17356TIP3   OH251944   3.902   9.846   5.999
17356TIP3    H151945   3.895   9.761   6.050
17356TIP3    H251946   3.993   9.871   6.012
17357TIP3   OH251947   3.860   9.596   5.149
17357TIP3    H151948   3.802   9.613   5.072
17357TIP3    H251949   3.905   9.517   5.112
17358TIP3   OH251950   3.152   9.638   5.899
17358TIP3    H151951   3.131   9.676   5.985
17358TIP3    H251952   3.135   9.544   5.917
17359TIP3   OH251953   3.211   9.113   4.586
17359TIP3    H151954   3.207   9.112   4.684
17359TIP3    H251955   3.131   9.164   4.565
17360TIP3   OH251956   2.752   9.161   5.449
17360TIP3    H151957   2.822   9.194   5.510
17360TIP3    H251958   2.804   9.119   5.378
17361TIP3   OH251959   2.733   9.147   4.982
17361TIP3    H151960   2.778   9.180   4.902
17361TIP3    H251961   2.678   9.224   5.002
17362TIP3   OH251962   3.928   9.840   5.588
17362TIP3    H151963   3.929   9.771   5.518
17362TIP3    H251964   3.856   9.804   5.645
17363TIP3   OH251965   3.549   9.312   5.240
17363TIP3    H151966   3.466   9.313   5.292
17363TIP3    H251967   3.615   9.323   5.310
17364TIP3   OH251968   2.985   9.375   5.246
17364TIP3    H151969   2.890   9.377   5.219
17364TIP3    H251970   3.011   9.283   5.227
17365TIP3   OH251971   3.258   9.367   4.940
17365TIP3    H151972   3.351   9.388   4.918
17365TIP3    H251973   3.209   9.394   4.860
17366TIP3   OH251974   4.038   9.393   5.444
17366TIP3    H151975   4.004   9.404   5.535
17366TIP3    H251976   3.974   9.329   5.408
17367TIP3   OH251977   3.077   9.381   4.719
17367TIP3    H151978   3.020   9.349   4.648
17367TIP3    H251979   3.124   9.454   4.674
17368TIP3   OH251980   3.627   9.623   5.333
17368TIP3    H151981   3.711   9.603   5.289
17368TIP3    H251982   3.648   9.609   5.427
17369TIP3   OH251983   3.152   9.133   5.217
17369TIP3    H151984   3.122   9.052   5.264
17369TIP3    H251985   3.209   9.096   5.148
17370TIP3   OH251986   3.608   9.531   5.636
17370TIP3    H151987   3.521   9.574   5.629
17370TIP3    H251988   3.663   9.598   5.680
17371TIP3   OH251989   3.800   9.258   4.577
17371TIP3    H151990   3.706   9.232   4.595
17371TIP3    H251991   3.804   9.351   4.607
17372TIP3   OH251992   3.873   9.515   4.670
17372TIP3    H151993   3.963   9.499   4.706
17372TIP3    H251994   3.880   9.607   4.638
17373TIP3   OH251995   3.631   9.844   6.108
17373TIP3    H151996   3.590   9.911   6.050
17373TIP3    H251997   3.722   9.844   6.073
17374TIP3   OH251998   4.312   9.570   4.526
17374TIP3    H151999   4.255   9.532   4.459
17374TIP3    H252000   4.312   9.664   4.504
17375TIP3   OH252001   3.127   9.377   6.021
17375TIP3    H152002   3.030   9.376   6.034
17375TIP3    H252003   3.157   9.316   6.091
17376TIP3   OH252004   3.963   9.447   5.704
17376TIP3    H152005   4.047   9.480   5.741
17376TIP3    H252006   3.949   9.365   5.756
17377TIP3   OH252007   3.849   9.195   4.865
17377TIP3    H152008   3.835   9.223   4.773
17377TIP3    H252009   3.888   9.276   4.906
17378TIP3   OH252010   3.543   9.374   4.971
17378TIP3    H152011   3.611   9.443   4.959
17378TIP3    H252012   3.542   9.365   5.069
17379TIP3   OH252013   3.795   9.688   5.774
17379TIP3    H152014   3.825   9.740   5.851
17379TIP3    H252015   3.849   9.608   5.779
17380TIP3   OH252016   3.681   9.103   5.074
17380TIP3    H152017   3.672   9.180   5.134
17380TIP3    H252018   3.741   9.140   5.005
17381TIP3   OH252019   3.192   9.099   4.861
17381TIP3    H152020   3.191   9.191   4.895
17381TIP3    H252021   3.288   9.079   4.872
17382TIP3   OH252022   4.451   9.596   5.761
17382TIP3    H152023   4.353   9.588   5.767
17382TIP3    H252024   4.464   9.557   5.673
17383TIP3   OH252025   4.089   9.771   5.126
17383TIP3    H152026   4.019   9.715   5.163
17383TIP3    H252027   4.165   9.750   5.184
17384TIP3   OH252028   2.740   9.301   4.755
17384TIP3    H152029   2.782   9.388   4.743
17384TIP3    H252030   2.674   9.299   4.685
17385TIP3   OH252031   3.141   9.012   5.624
17385TIP3    H152032   3.111   8.977   5.537
17385TIP3    H252033   3.132   8.933   5.681
17386TIP3   OH252034   3.122   9.893   6.228
17386TIP3    H152035   3.176   9.820   6.261
17386TIP3    H252036   3.114   9.953   6.306
17387TIP3   OH252037   3.430   9.726   5.880
17387TIP3    H152038   3.341   9.758   5.902
17387TIP3    H252039   3.445   9.757   5.790
17388TIP3   OH252040   3.242   9.536   4.564
17388TIP3    H152041   3.216   9.485   4.484
17388TIP3    H252042   3.339   9.530   4.562
17389TIP3   OH252043   3.547   9.556   6.059
17389TIP3    H152044   3.553   9.477   6.002
17389TIP3    H252045   3.510   9.621   5.996
17390TIP3   OH252046   3.549   9.364   5.853
17390TIP3    H152047   3.576   9.412   5.772
17390TIP3    H252048   3.455   9.345   5.835
17391TIP3   OH252049   4.170   9.883   6.103
17391TIP3    H152050   4.190   9.791   6.124
17391TIP3    H252051   4.258   9.916   6.079
17392TIP3   OH252052   3.400   9.708   6.271
17392TIP3    H152053   3.352   9.623   6.276
17392TIP3    H252054   3.456   9.694   6.192
17393TIP3   OH252055   3.682   9.133   5.918
17393TIP3    H152056   3.632   9.215   5.896
17393TIP3    H252057   3.612   9.065   5.907
17394TIP3   OH252058   3.817   9.621   6.132
17394TIP3    H152059   3.806   9.620   6.228
17394TIP3    H252060   3.724   9.607   6.106
17395TIP3   OH252061   4.053   9.584   5.993
17395TIP3    H152062   3.974   9.574   6.051
17395TIP3    H252063   4.124   9.550   6.051
17396TIP3   OH252064   4.279   9.531   6.146
17396TIP3    H152065   4.290   9.435   6.163
17396TIP3    H252066   4.274   9.569   6.236
17397TIP3   OH252067   3.258   9.478   6.329
17397TIP3    H152068   3.268   9.389   6.290
17397TIP3    H252069   3.298   9.465   6.417
17398TIP3   OH252070   3.775   9.146   6.176
17398TIP3    H152071   3.841   9.075   6.172
17398TIP3    H252072   3.735   9.138   6.086
17399TIP3   OH252073   3.842   9.360   6.334
17399TIP3    H152074   3.819   9.289   6.270
17399TIP3    H252075   3.763   9.418   6.328
17400TIP3   OH252076   4.173   9.496   4.261
17400TIP3    H152077   4.081   9.526   4.262
17400TIP3    H252078   4.158   9.403   4.293
17401TIP3   OH252079   4.179   9.748   4.875
17401TIP3    H152080   4.183   9.653   4.891
17401TIP3    H252081   4.156   9.779   4.966
17402TIP3   OH252082   4.616  10.020   5.762
17402TIP3    H152083   4.543   9.962   5.790
17402TIP3    H252084   4.691   9.958   5.765
17403TIP3   OH252085   4.089   9.248   4.332
17403TIP3    H152086   4.166   9.204   4.376
17403TIP3    H252087   4.018   9.183   4.346
17404TIP3   OH252088   4.137   9.472   4.769
17404TIP3    H152089   4.180   9.384   4.784
17404TIP3    H252090   4.203   9.513   4.712
17405TIP3   OH252091   4.309   9.655   5.257
17405TIP3    H152092   4.393   9.684   5.216
17405TIP3    H252093   4.324   9.691   5.346
17406TIP3   OH252094   4.386   9.784   5.488
17406TIP3    H152095   4.310   9.815   5.541
17406TIP3    H252096   4.435   9.868   5.474
17407TIP3   OH252097   2.990   9.540   6.304
17407TIP3    H152098   3.088   9.529   6.301
17407TIP3    H252099   2.967   9.453   6.343
17408TIP3   OH252100   4.828   9.391   6.055
17408TIP3    H152101   4.889   9.327   6.013
17408TIP3    H252102   4.803   9.448   5.980
17409TIP3   OH252103   4.259   9.231   4.808
17409TIP3    H152104   4.307   9.218   4.893
17409TIP3    H252105   4.198   9.155   4.810
17410TIP3   OH252106   2.951   9.216   5.634
17410TIP3    H152107   3.017   9.143   5.641
17410TIP3    H252108   3.011   9.292   5.622
17411TIP3   OH252109   2.758   9.502   5.710
17411TIP3    H152110   2.807   9.491   5.625
17411TIP3    H252111   2.783   9.593   5.732
17412TIP3   OH252112   4.704   9.536   5.860
17412TIP3    H152113   4.615   9.572   5.878
17412TIP3    H252114   4.679   9.462   5.802
17413TIP3   OH252115   4.337   9.174   4.433
17413TIP3    H152116   4.378   9.096   4.391
17413TIP3    H252117   4.412   9.237   4.436
17414TIP3   OH252118   2.744   8.996   5.205
17414TIP3    H152119   2.653   9.000   5.238
17414TIP3    H252120   2.743   9.059   5.130
17415TIP3   OH252121   2.964   9.082   6.021
17415TIP3    H152122   2.911   9.074   6.101
17415TIP3    H252123   2.898   9.115   5.958
17416TIP3   OH252124   4.600   9.296   5.739
17416TIP3    H152125   4.509   9.289   5.706
17416TIP3    H252126   4.632   9.203   5.728
17417TIP3   OH252127   3.809   9.211   5.359
17417TIP3    H152128   3.761   9.144   5.410
17417TIP3    H252129   3.878   9.159   5.314
17418TIP3   OH252130   4.330   9.090   5.262
17418TIP3    H152131   4.365   9.144   5.188
17418TIP3    H252132   4.234   9.108   5.257
17419TIP3   OH252133   4.424   9.194   5.026
17419TIP3    H152134   4.498   9.142   4.988
17419TIP3    H252135   4.458   9.285   5.012
17420TIP3   OH252136   3.052   8.919   5.376
17420TIP3    H152137   2.961   8.882   5.378
17420TIP3    H252138   3.104   8.835   5.370
17421TIP3   OH252139   2.797   8.806   5.007
17421TIP3    H152140   2.868   8.841   4.950
17421TIP3    H252141   2.806   8.860   5.088
17422TIP3   OH252142   3.494   8.956   5.254
17422TIP3    H152143   3.555   9.006   5.197
17422TIP3    H252144   3.518   8.989   5.342
17423TIP3   OH252145   4.048   9.098   5.238
17423TIP3    H152146   4.042   9.058   5.150
17423TIP3    H252147   4.033   9.019   5.295
17424TIP3   OH252148   4.074   9.020   4.801
17424TIP3    H152149   3.987   9.061   4.815
17424TIP3    H252150   4.062   8.935   4.848
17425TIP3   OH252151   2.958   8.957   4.779
17425TIP3    H152152   3.006   8.886   4.732
17425TIP3    H252153   3.032   9.007   4.819
17426TIP3   OH252154   3.470   9.126   4.883
17426TIP3    H152155   3.527   9.076   4.944
17426TIP3    H252156   3.492   9.217   4.911
17427TIP3   OH252157   3.261   9.201   6.268
17427TIP3    H152158   3.229   9.129   6.324
17427TIP3    H252159   3.356   9.202   6.292
17428TIP3   OH252160   3.511   9.199   6.385
17428TIP3    H152161   3.595   9.175   6.343
17428TIP3    H252162   3.501   9.126   6.450
17429TIP3   OH252163   4.336   9.259   6.173
17429TIP3    H152164   4.355   9.227   6.263
17429TIP3    H252165   4.424   9.254   6.131
17430TIP3   OH252166   4.517   9.706   4.684
17430TIP3    H152167   4.484   9.782   4.734
17430TIP3    H252168   4.442   9.646   4.684
17431TIP3   OH252169   6.352   9.727   4.857
17431TIP3    H152170   6.381   9.811   4.899
17431TIP3    H252171   6.374   9.746   4.763
17432TIP3   OH252172   5.750   9.911   4.885
17432TIP3    H152173   5.792   9.826   4.908
17432TIP3    H252174   5.714   9.889   4.797
17433TIP3   OH252175   5.089   9.568   4.858
17433TIP3    H152176   5.071   9.643   4.796
17433TIP3    H252177   5.039   9.497   4.812
17434TIP3   OH252178   5.783   9.657   4.482
17434TIP3    H152179   5.857   9.642   4.546
17434TIP3    H252180   5.833   9.695   4.408
17435TIP3   OH252181   4.712   9.753   4.973
17435TIP3    H152182   4.799   9.747   5.015
17435TIP3    H252183   4.733   9.720   4.884
17436TIP3   OH252184   5.177   9.973   4.742
17436TIP3    H152185   5.262   9.935   4.772
17436TIP3    H252186   5.126   9.894   4.714
17437TIP3   OH252187   6.435   9.929   5.031
17437TIP3    H152188   6.357   9.978   4.999
17437TIP3    H252189   6.444   9.966   5.121
17438TIP3   OH252190   5.086   9.554   5.293
17438TIP3    H152191   5.024   9.587   5.224
17438TIP3    H252192   5.033   9.571   5.374
17439TIP3   OH252193   5.995   9.662   4.651
17439TIP3    H152194   5.984   9.618   4.736
17439TIP3    H252195   6.045   9.743   4.676
17440TIP3   OH252196   4.955   9.662   5.077
17440TIP3    H152197   5.013   9.739   5.094
17440TIP3    H252198   5.004   9.621   5.002
17441TIP3   OH252199   6.145   9.628   5.022
17441TIP3    H152200   6.057   9.660   4.993
17441TIP3    H252201   6.204   9.662   4.952
17442TIP3   OH252202   5.443   9.273   5.006
17442TIP3    H152203   5.429   9.178   5.023
17442TIP3    H252204   5.366   9.312   5.052
17443TIP3   OH252205   5.320   9.793   4.005
17443TIP3    H152206   5.371   9.863   4.047
17443TIP3    H252207   5.384   9.756   3.942
17444TIP3   OH252208   5.980  10.155   5.134
17444TIP3    H152209   5.991  10.241   5.089
17444TIP3    H252210   5.888  10.132   5.105
17445TIP3   OH252211   6.075   9.217   4.107
17445TIP3    H152212   5.994   9.237   4.158
17445TIP3    H252213   6.089   9.301   4.059
17446TIP3   OH252214   6.203  10.119   5.318
17446TIP3    H152215   6.123  10.113   5.264
17446TIP3    H252216   6.229  10.025   5.324
17447TIP3   OH252217   5.204   9.349   5.134
17447TIP3    H152218   5.114   9.319   5.109
17447TIP3    H252219   5.181   9.432   5.179
17448TIP3   OH252220   5.737   9.465   5.328
17448TIP3    H152221   5.804   9.438   5.394
17448TIP3    H252222   5.652   9.444   5.374
17449TIP3   OH252223   5.978   9.882   5.249
17449TIP3    H152224   5.931   9.876   5.335
17449TIP3    H252225   5.949   9.967   5.214
17450TIP3   OH252226   5.351   9.397   4.105
17450TIP3    H152227   5.317   9.397   4.197
17450TIP3    H252228   5.312   9.313   4.073
17451TIP3   OH252229   5.126   9.869   5.133
17451TIP3    H152230   5.087   9.882   5.221
17451TIP3    H252231   5.113   9.955   5.090
17452TIP3   OH252232   5.021   9.749   4.668
17452TIP3    H152233   4.928   9.724   4.683
17452TIP3    H252234   5.035   9.712   4.578
17453TIP3   OH252235   5.519   9.837   4.396
17453TIP3    H152236   5.439   9.888   4.373
17453TIP3    H252237   5.561   9.822   4.309
17454TIP3   OH252238   5.696  10.096   5.477
17454TIP3    H152239   5.695  10.016   5.535
17454TIP3    H252240   5.782  10.135   5.501
17455TIP3   OH252241   5.657   9.852   4.636
17455TIP3    H152242   5.598   9.871   4.559
17455TIP3    H252243   5.701   9.774   4.598
17456TIP3   OH252244   4.956   9.893   5.387
17456TIP3    H152245   4.919   9.936   5.465
17456TIP3    H252246   4.935   9.800   5.407
17457TIP3   OH252247   5.007   9.369   4.073
17457TIP3    H152248   5.002   9.371   4.170
17457TIP3    H252249   4.928   9.420   4.050
17458TIP3   OH252250   4.547   9.419   4.935
17458TIP3    H152251   4.617   9.451   4.996
17458TIP3    H252252   4.597   9.378   4.864
17459TIP3   OH252253   4.521   9.391   4.458
17459TIP3    H152254   4.584   9.427   4.392
17459TIP3    H252255   4.473   9.471   4.486
17460TIP3   OH252256   5.725  10.097   5.077
17460TIP3    H152257   5.726  10.028   5.006
17460TIP3    H252258   5.652  10.062   5.133
17461TIP3   OH252259   5.345   9.564   4.728
17461TIP3    H152260   5.262   9.569   4.779
17461TIP3    H252261   5.410   9.584   4.797
17462TIP3   OH252262   4.780   9.632   4.731
17462TIP3    H152263   4.686   9.634   4.706
17462TIP3    H252264   4.807   9.540   4.714
17463TIP3   OH252265   5.055   9.623   4.426
17463TIP3    H152266   5.148   9.645   4.405
17463TIP3    H252267   5.006   9.652   4.347
17464TIP3   OH252268   5.835   9.648   4.930
17464TIP3    H152269   5.801   9.660   5.022
17464TIP3    H252270   5.770   9.586   4.895
17465TIP3   OH252271   4.873   9.631   4.208
17465TIP3    H152272   4.808   9.605   4.141
17465TIP3    H252273   4.918   9.706   4.163
17466TIP3   OH252274   5.423   9.875   4.819
17466TIP3    H152275   5.508   9.861   4.775
17466TIP3    H252276   5.445   9.866   4.913
17467TIP3   OH252277   4.948   9.390   4.703
17467TIP3    H152278   4.919   9.309   4.750
17467TIP3    H252279   5.003   9.355   4.632
17468TIP3   OH252280   5.404   9.788   5.125
17468TIP3    H152281   5.317   9.831   5.117
17468TIP3    H252282   5.459   9.856   5.168
17469TIP3   OH252283   5.599   9.511   4.072
17469TIP3    H152284   5.503   9.490   4.082
17469TIP3    H252285   5.604   9.606   4.093
17470TIP3   OH252286   5.669   9.770   4.159
17470TIP3    H152287   5.761   9.754   4.191
17470TIP3    H252288   5.679   9.856   4.115
17471TIP3   OH252289   5.441  10.125   5.580
17471TIP3    H152290   5.403  10.157   5.497
17471TIP3    H252291   5.524  10.083   5.550
17472TIP3   OH252292   6.105   9.827   4.020
17472TIP3    H152293   6.042   9.791   3.952
17472TIP3    H252294   6.115   9.917   3.987
17473TIP3   OH252295   4.923   9.631   5.507
17473TIP3    H152296   4.827   9.634   5.523
17473TIP3    H252297   4.954   9.575   5.580
17474TIP3   OH252298   5.760   9.703   5.191
17474TIP3    H152299   5.843   9.737   5.228
17474TIP3    H252300   5.745   9.621   5.243
17475TIP3   OH252301   5.645   9.451   4.352
17475TIP3    H152302   5.631   9.477   4.259
17475TIP3    H252303   5.684   9.533   4.391
17476TIP3   OH252304   5.339   9.630   4.457
17476TIP3    H152305   5.407   9.699   4.443
17476TIP3    H252306   5.339   9.622   4.555
17477TIP3   OH252307   5.591   9.946   5.263
17477TIP3    H152308   5.625   9.999   5.338
17477TIP3    H252309   5.646   9.866   5.267
17478TIP3   OH252310   5.478   9.359   4.560
17478TIP3    H152311   5.466   9.436   4.619
17478TIP3    H252312   5.538   9.397   4.492
17479TIP3   OH252313   4.989   9.355   4.349
17479TIP3    H152314   4.986   9.448   4.379
17479TIP3    H252315   5.085   9.338   4.359
17480TIP3   OH252316   6.247   9.852   5.248
17480TIP3    H152317   6.149   9.844   5.255
17480TIP3    H252318   6.260   9.817   5.159
17481TIP3   OH252319   5.884  10.028   4.615
17481TIP3    H152320   5.815   9.969   4.649
17481TIP3    H252321   5.961  10.005   4.671
17482TIP3   OH252322   4.565   9.548   4.234
17482TIP3    H152323   4.570   9.644   4.236
17482TIP3    H252324   4.472   9.528   4.235
17483TIP3   OH252325   4.939   9.269   5.110
17483TIP3    H152326   4.907   9.235   5.024
17483TIP3    H252327   4.929   9.190   5.168
17484TIP3   OH252328   4.920  10.150   5.715
17484TIP3    H152329   4.968  10.076   5.755
17484TIP3    H252330   4.907  10.211   5.791
17485TIP3   OH252331   5.229   9.988   5.370
17485TIP3    H152332   5.135   9.998   5.390
17485TIP3    H252333   5.236  10.016   5.278
17486TIP3   OH252334   5.034   9.793   4.057
17486TIP3    H152335   5.008   9.744   3.976
17486TIP3    H252336   5.131   9.791   4.054
17487TIP3   OH252337   5.349   9.817   5.544
17487TIP3    H152338   5.352   9.735   5.490
17487TIP3    H252339   5.307   9.878   5.480
17488TIP3   OH252340   5.345   9.620   5.341
17488TIP3    H152341   5.372   9.669   5.260
17488TIP3    H252342   5.251   9.602   5.322
17489TIP3   OH252343   5.965  10.140   5.589
17489TIP3    H152344   5.985  10.049   5.615
17489TIP3    H252345   6.053  10.172   5.566
17490TIP3   OH252346   5.204   9.961   5.754
17490TIP3    H152347   5.146   9.883   5.766
17490TIP3    H252348   5.253   9.937   5.674
17491TIP3   OH252349   5.478   9.389   5.404
17491TIP3    H152350   5.429   9.472   5.382
17491TIP3    H252351   5.407   9.322   5.394
17492TIP3   OH252352   5.611   9.881   5.621
17492TIP3    H152353   5.601   9.876   5.718
17492TIP3    H252354   5.519   9.858   5.595
17493TIP3   OH252355   5.848   9.838   5.480
17493TIP3    H152356   5.770   9.831   5.539
17493TIP3    H252357   5.920   9.808   5.539
17494TIP3   OH252358   6.075   9.786   5.632
17494TIP3    H152359   6.086   9.691   5.651
17494TIP3    H252360   6.069   9.826   5.721
17495TIP3   OH252361   5.056   9.735   5.813
17495TIP3    H152362   5.065   9.644   5.779
17495TIP3    H252363   5.093   9.725   5.903
17496TIP3   OH252364   5.571   9.402   5.662
17496TIP3    H152365   5.638   9.331   5.657
17496TIP3    H252366   5.531   9.395   5.573
17497TIP3   OH252367   5.638   9.616   5.822
17497TIP3    H152368   5.614   9.546   5.758
17497TIP3    H252369   5.559   9.675   5.818
17498TIP3   OH252370   5.938   9.755   3.815
17498TIP3    H152371   5.918   9.776   3.723
17498TIP3    H252372   5.916   9.659   3.817
17499TIP3   OH252373   5.977  10.005   4.363
17499TIP3    H152374   5.979   9.909   4.374
17499TIP3    H252375   5.954  10.033   4.454
17500TIP3   OH252376   6.413  10.278   5.250
17500TIP3    H152377   6.339  10.219   5.275
17500TIP3    H252378   6.488  10.215   5.252
17501TIP3   OH252379   5.886   9.490   3.808
17501TIP3    H152380   5.963   9.456   3.858
17501TIP3    H252381   5.815   9.427   3.831
17502TIP3   OH252382   5.935   9.730   4.257
17502TIP3    H152383   5.979   9.643   4.270
17502TIP3    H252384   5.995   9.770   4.192
17503TIP3   OH252385   6.105   9.910   4.745
17503TIP3    H152386   6.189   9.940   4.703
17503TIP3    H252387   6.121   9.948   4.834
17504TIP3   OH252388   6.183  10.040   4.975
17504TIP3    H152389   6.107  10.072   5.028
17504TIP3    H252390   6.232  10.124   4.960
17505TIP3   OH252391   4.787   9.794   5.787
17505TIP3    H152392   4.885   9.787   5.788
17505TIP3    H252393   4.764   9.709   5.828
17506TIP3   OH252394   6.622   9.645   5.541
17506TIP3    H152395   6.684   9.583   5.498
17506TIP3    H252396   6.598   9.705   5.467
17507TIP3   OH252397   6.055   9.488   4.297
17507TIP3    H152398   6.103   9.474   4.381
17507TIP3    H252399   5.994   9.412   4.297
17508TIP3   OH252400   4.749   9.472   5.117
17508TIP3    H152401   4.816   9.401   5.127
17508TIP3    H252402   4.806   9.550   5.108
17509TIP3   OH252403   4.555   9.758   5.196
17509TIP3    H152404   4.604   9.749   5.111
17509TIP3    H252405   4.576   9.849   5.220
17510TIP3   OH252406   6.501   9.792   5.347
17510TIP3    H152407   6.413   9.830   5.367
17510TIP3    H252408   6.473   9.719   5.289
17511TIP3   OH252409   6.134   9.427   3.926
17511TIP3    H152410   6.176   9.355   3.876
17511TIP3    H252411   6.203   9.497   3.925
17512TIP3   OH252412   4.539   9.250   4.687
17512TIP3    H152413   4.448   9.250   4.720
17512TIP3    H252414   4.534   9.309   4.609
17513TIP3   OH252415   4.760   9.334   5.505
17513TIP3    H152416   4.709   9.329   5.587
17513TIP3    H252417   4.693   9.373   5.444
17514TIP3   OH252418   6.397   9.554   5.225
17514TIP3    H152419   6.306   9.550   5.193
17514TIP3    H252420   6.426   9.460   5.213
17515TIP3   OH252421   5.608   9.469   4.848
17515TIP3    H152422   5.558   9.402   4.898
17515TIP3    H252423   5.674   9.416   4.801
17516TIP3   OH252424   6.128   9.346   4.750
17516TIP3    H152425   6.162   9.400   4.675
17516TIP3    H252426   6.032   9.365   4.746
17517TIP3   OH252427   6.221   9.446   4.514
17517TIP3    H152428   6.294   9.396   4.471
17517TIP3    H252429   6.254   9.538   4.499
17518TIP3   OH252430   4.850   9.176   4.861
17518TIP3    H152431   4.758   9.141   4.864
17518TIP3    H252432   4.900   9.091   4.859
17519TIP3   OH252433   4.628   9.046   4.505
17519TIP3    H152434   4.667   9.104   4.437
17519TIP3    H252435   4.607   9.110   4.577
17520TIP3   OH252436   5.293   9.209   4.742
17520TIP3    H152437   5.351   9.260   4.684
17520TIP3    H252438   5.313   9.248   4.828
17521TIP3   OH252439   5.846   9.354   4.726
17521TIP3    H152440   5.836   9.319   4.636
17521TIP3    H252441   5.829   9.274   4.780
17522TIP3   OH252442   5.870   9.276   4.288
17522TIP3    H152443   5.784   9.320   4.300
17522TIP3    H252444   5.855   9.192   4.335
17523TIP3   OH252445   4.753   9.210   4.271
17523TIP3    H152446   4.801   9.144   4.216
17523TIP3    H252447   4.828   9.262   4.307
17524TIP3   OH252448   5.267   9.381   4.371
17524TIP3    H152449   5.326   9.335   4.432
17524TIP3    H252450   5.286   9.474   4.396
17525TIP3   OH252451   5.057   9.456   5.752
17525TIP3    H152452   5.024   9.386   5.810
17525TIP3    H252453   5.152   9.458   5.779
17526TIP3   OH252454   5.306   9.454   5.871
17526TIP3    H152455   5.392   9.430   5.832
17526TIP3    H252456   5.295   9.384   5.938
17527TIP3   OH252457   6.131   9.514   5.660
17527TIP3    H152458   6.150   9.484   5.751
17527TIP3    H252459   6.220   9.510   5.619
17528TIP3   OH252460   6.309   9.966   4.164
17528TIP3    H152461   6.272  10.039   4.216
17528TIP3    H252462   6.234   9.905   4.157
17529TIP3   OH252463   7.550  10.180   4.379
17529TIP3    H152464   7.586  10.091   4.394
17529TIP3    H252465   7.517  10.170   4.287
17530TIP3   OH252466   6.860   9.823   4.355
17530TIP3    H152467   6.917   9.857   4.282
17530TIP3    H252468   6.804   9.764   4.301
17531TIP3   OH252469   7.577   9.907   3.977
17531TIP3    H152470   7.652   9.891   4.037
17531TIP3    H252471   7.622   9.958   3.909
17532TIP3   OH252472   6.507  10.013   4.468
17532TIP3    H152473   6.597  10.009   4.504
17532TIP3    H252474   6.522   9.970   4.381
17533TIP3   OH252475   6.958  10.208   4.255
17533TIP3    H152476   7.054  10.198   4.274
17533TIP3    H252477   6.944  10.136   4.193
17534TIP3   OH252478   6.881   9.808   4.783
17534TIP3    H152479   6.823   9.844   4.712
17534TIP3    H252480   6.826   9.829   4.862
17535TIP3   OH252481   7.798   9.914   4.141
17535TIP3    H152482   7.769   9.870   4.222
17535TIP3    H252483   7.877   9.963   4.170
17536TIP3   OH252484   6.749   9.924   4.574
17536TIP3    H152485   6.812   9.998   4.584
17536TIP3    H252486   6.784   9.884   4.490
17537TIP3   OH252487   7.940   9.889   4.499
17537TIP3    H152488   7.845   9.910   4.491
17537TIP3    H252489   7.974   9.921   4.414
17538TIP3   OH252490   7.247   9.539   4.499
17538TIP3    H152491   7.219   9.448   4.484
17538TIP3    H252492   7.166   9.578   4.538
17539TIP3   OH252493   7.115  10.038   3.493
17539TIP3    H152494   7.160  10.106   3.544
17539TIP3    H252495   7.183  10.010   3.429
17540TIP3   OH252496   7.865   9.471   3.590
17540TIP3    H152497   7.786   9.488   3.647
17540TIP3    H252498   7.879   9.559   3.551
17541TIP3   OH252499   7.002   9.601   4.621
17541TIP3    H152500   6.910   9.578   4.596
17541TIP3    H252501   6.987   9.692   4.651
17542TIP3   OH252502   7.533   9.720   4.814
17542TIP3    H152503   7.599   9.696   4.882
17542TIP3    H252504   7.448   9.702   4.859
17543TIP3   OH252505   7.787  10.153   4.737
17543TIP3    H152506   7.737  10.141   4.821
17543TIP3    H252507   7.736  10.222   4.693
17544TIP3   OH252508   7.144   9.656   3.591
17544TIP3    H152509   7.113   9.662   3.683
17544TIP3    H252510   7.105   9.570   3.565
17545TIP3   OH252511   6.925  10.130   4.630
17545TIP3    H152512   6.863  10.147   4.703
17545TIP3    H252513   6.909  10.205   4.570
17546TIP3   OH252514   7.340  10.131   3.878
17546TIP3    H152515   7.244  10.148   3.870
17546TIP3    H252516   7.356  10.071   3.803
17547TIP3   OH252517   7.489  10.356   4.968
17547TIP3    H152518   7.488  10.273   5.022
17547TIP3    H252519   7.579  10.387   4.979
17548TIP3   OH252520   7.452  10.114   4.126
17548TIP3    H152521   7.403  10.137   4.044
17548TIP3    H252522   7.495  10.033   4.092
17549TIP3   OH252523   6.761  10.154   4.874
17549TIP3    H152524   6.719  10.195   4.951
17549TIP3    H252525   6.734  10.061   4.888
17550TIP3   OH252526   6.800   9.625   3.557
17550TIP3    H152527   6.800   9.627   3.655
17550TIP3    H252528   6.724   9.683   3.540
17551TIP3   OH252529   6.346   9.669   4.428
17551TIP3    H152530   6.414   9.711   4.485
17551TIP3    H252531   6.394   9.654   4.346
17552TIP3   OH252532   6.318   9.649   3.948
17552TIP3    H152533   6.366   9.686   3.871
17552TIP3    H252534   6.261   9.725   3.971
17553TIP3   OH252535   7.489  10.370   4.573
17553TIP3    H152536   7.517  10.309   4.501
17553TIP3    H252537   7.433  10.310   4.626
17554TIP3   OH252538   6.562   9.875   4.243
17554TIP3    H152539   6.483   9.888   4.188
17554TIP3    H252540   6.614   9.808   4.195
17555TIP3   OH252541   7.636   9.901   4.420
17555TIP3    H152542   7.597   9.919   4.508
17555TIP3    H252543   7.567   9.842   4.384
17556TIP3   OH252544   6.670   9.869   3.690
17556TIP3    H152545   6.610   9.862   3.614
17556TIP3    H252546   6.707   9.958   3.679
17557TIP3   OH252547   7.222  10.155   4.307
17557TIP3    H152548   7.293  10.118   4.253
17557TIP3    H252549   7.242  10.123   4.395
17558TIP3   OH252550   6.732   9.654   4.179
17558TIP3    H152551   6.733   9.562   4.211
17558TIP3    H252552   6.815   9.662   4.127
17559TIP3   OH252553   7.198  10.042   4.621
17559TIP3    H152554   7.114  10.086   4.602
17559TIP3    H252555   7.254  10.114   4.655
17560TIP3   OH252556   7.394   9.760   3.564
17560TIP3    H152557   7.298   9.738   3.570
17560TIP3    H252558   7.398   9.855   3.582
17561TIP3   OH252559   7.470  10.016   3.640
17561TIP3    H152560   7.563   9.995   3.653
17561TIP3    H252561   7.474  10.092   3.580
17562TIP3   OH252562   7.234  10.388   5.065
17562TIP3    H152563   7.184  10.388   4.982
17562TIP3    H252564   7.316  10.344   5.037
17563TIP3   OH252565   6.718   9.888   4.994
17563TIP3    H152566   6.622   9.894   5.010
17563TIP3    H252567   6.748   9.834   5.070
17564TIP3   OH252568   7.560   9.962   4.680
17564TIP3    H152569   7.640   9.993   4.725
17564TIP3    H252570   7.540   9.879   4.728
17565TIP3   OH252571   7.442   9.701   3.841
17565TIP3    H152572   7.426   9.728   3.748
17565TIP3    H252573   7.482   9.782   3.880
17566TIP3   OH252574   7.385  10.198   4.756
17566TIP3    H152575   7.422  10.254   4.827
17566TIP3    H252576   7.444  10.120   4.756
17567TIP3   OH252577   7.277   9.621   4.051
17567TIP3    H152578   7.252   9.706   4.092
17567TIP3    H252579   7.335   9.653   3.978
17568TIP3   OH252580   6.786   9.610   3.832
17568TIP3    H152581   6.768   9.702   3.860
17568TIP3    H252582   6.883   9.605   3.848
17569TIP3   OH252583   8.061  10.105   4.712
17569TIP3    H152584   7.969  10.125   4.740
17569TIP3    H252585   8.044  10.067   4.626
17570TIP3   OH252586   6.339   9.804   3.718
17570TIP3    H152587   6.360   9.898   3.716
17570TIP3    H252588   6.248   9.799   3.688
17571TIP3   OH252589   6.738   9.524   4.598
17571TIP3    H152590   6.703   9.501   4.509
17571TIP3    H252591   6.709   9.449   4.652
17572TIP3   OH252592   6.716  10.405   5.201
17572TIP3    H152593   6.762  10.332   5.243
17572TIP3    H252594   6.702  10.467   5.276
17573TIP3   OH252595   7.029  10.256   4.861
17573TIP3    H152596   6.933  10.245   4.874
17573TIP3    H252597   7.037  10.253   4.764
17574TIP3   OH252598   6.828  10.065   3.534
17574TIP3    H152599   6.797   9.993   3.478
17574TIP3    H252600   6.923  10.048   3.542
17575TIP3   OH252601   7.146  10.074   5.028
17575TIP3    H152602   7.147   9.993   4.973
17575TIP3    H252603   7.106  10.138   4.965
17576TIP3   OH252604   7.141   9.874   4.830
17576TIP3    H152605   7.167   9.927   4.751
17576TIP3    H252606   7.046   9.858   4.811
17577TIP3   OH252607   7.005  10.215   5.240
17577TIP3    H152608   6.941  10.142   5.253
17577TIP3    H252609   7.048  10.189   5.157
17578TIP3   OH252610   7.274   9.645   4.893
17578TIP3    H152611   7.227   9.729   4.870
17578TIP3    H252612   7.202   9.580   4.879
17579TIP3   OH252613   7.406  10.138   5.105
17579TIP3    H152614   7.393  10.128   5.201
17579TIP3    H252615   7.315  10.114   5.076
17580TIP3   OH252616   7.643  10.097   4.961
17580TIP3    H152617   7.566  10.088   5.020
17580TIP3    H252618   7.717  10.077   5.023
17581TIP3   OH252619   7.850  10.043   5.132
17581TIP3    H152620   7.873   9.948   5.139
17581TIP3    H252621   7.825  10.065   5.223
17582TIP3   OH252622   6.851   9.991   5.298
17582TIP3    H152623   6.862   9.901   5.264
17582TIP3    H252624   6.887   9.982   5.388
17583TIP3   OH252625   7.369   9.658   5.149
17583TIP3    H152626   7.435   9.587   5.143
17583TIP3    H252627   7.328   9.653   5.060
17584TIP3   OH252628   7.431   9.871   5.312
17584TIP3    H152629   7.410   9.801   5.247
17584TIP3    H252630   7.353   9.931   5.304
17585TIP3   OH252631   7.668   9.771   3.314
17585TIP3    H152632   7.758   9.743   3.340
17585TIP3    H252633   7.617   9.690   3.314
17586TIP3   OH252634   6.582  10.051   5.273
17586TIP3    H152635   6.680  10.045   5.274
17586TIP3    H252636   6.560   9.965   5.315
17587TIP3   OH252637   7.813   9.760   3.809
17587TIP3    H152638   7.880   9.738   3.876
17587TIP3    H252639   7.768   9.675   3.796
17588TIP3   OH252640   6.547   9.730   4.614
17588TIP3    H152641   6.618   9.664   4.615
17588TIP3    H252642   6.599   9.811   4.598
17589TIP3   OH252643   6.351  10.014   4.687
17589TIP3    H152644   6.399  10.004   4.601
17589TIP3    H252645   6.370  10.107   4.706
17590TIP3   OH252646   6.334   9.499   4.171
17590TIP3    H152647   6.243   9.508   4.203
17590TIP3    H252648   6.336   9.564   4.097
17591TIP3   OH252649   6.553   9.582   4.987
17591TIP3    H152650   6.506   9.586   5.072
17591TIP3    H252651   6.491   9.631   4.929
17592TIP3   OH252652   8.198   9.806   4.717
17592TIP3    H152653   8.112   9.829   4.677
17592TIP3    H252654   8.213   9.715   4.686
17593TIP3   OH252655   7.426   9.727   4.349
17593TIP3    H152656   7.354   9.673   4.386
17593TIP3    H252657   7.465   9.668   4.282
17594TIP3   OH252658   7.929   9.610   4.238
17594TIP3    H152659   7.960   9.662   4.161
17594TIP3    H252660   7.831   9.619   4.229
17595TIP3   OH252661   8.021   9.718   4.001
17595TIP3    H152662   8.087   9.656   3.960
17595TIP3    H252663   8.061   9.803   3.979
17596TIP3   OH252664   6.644   9.429   4.360
17596TIP3    H152665   6.549   9.404   4.352
17596TIP3    H252666   6.687   9.347   4.330
17597TIP3   OH252667   6.435   9.300   3.996
17597TIP3    H152668   6.465   9.359   3.925
17597TIP3    H252669   6.403   9.365   4.062
17598TIP3   OH252670   7.098   9.459   4.237
17598TIP3    H152671   7.140   9.510   4.166
17598TIP3    H252672   7.091   9.526   4.306
17599TIP3   OH252673   7.656   9.605   4.207
17599TIP3    H152674   7.628   9.579   4.119
17599TIP3    H252675   7.627   9.528   4.262
17600TIP3   OH252676   7.663   9.527   3.772
17600TIP3    H152677   7.578   9.574   3.785
17600TIP3    H252678   7.645   9.443   3.819
17601TIP3   OH252679   6.549   9.461   3.761
17601TIP3    H152680   6.600   9.402   3.702
17601TIP3    H252681   6.620   9.518   3.796
17602TIP3   OH252682   7.065   9.650   3.854
17602TIP3    H152683   7.128   9.615   3.918
17602TIP3    H252684   7.037   9.729   3.907
17603TIP3   OH252685   6.854   9.709   5.235
17603TIP3    H152686   6.820   9.642   5.297
17603TIP3    H252687   6.948   9.713   5.265
17604TIP3   OH252688   7.101   9.709   5.357
17604TIP3    H152689   7.188   9.686   5.321
17604TIP3    H252690   7.090   9.640   5.425
17605TIP3   OH252691   7.927   9.773   5.146
17605TIP3    H152692   7.947   9.744   5.238
17605TIP3    H252693   8.015   9.765   5.103
17606TIP3   OH252694   2.740   1.191   8.795
17606TIP3    H152695   2.749   1.284   8.771
17606TIP3    H252696   2.828   1.155   8.771
17607TIP3   OH252697   2.762   1.472   8.772
17607TIP3    H152698   2.798   1.544   8.716
17607TIP3    H252699   2.675   1.509   8.791
17608TIP3   OH252700   2.424   1.251   8.770
17608TIP3    H152701   2.465   1.185   8.827
17608TIP3    H252702   2.465   1.228   8.684
17609TIP3   OH252703   4.078   1.021   9.067
17609TIP3    H152704   4.080   1.109   9.021
17609TIP3    H252705   4.061   0.966   8.987
17610TIP3   OH252706   4.432   1.326   9.110
17610TIP3    H152707   4.440   1.262   9.182
17610TIP3    H252708   4.463   1.408   9.151
17611TIP3   OH252709   4.085   1.790   9.131
17611TIP3    H152710   4.146   1.731   9.082
17611TIP3    H252711   4.124   1.792   9.220
17612TIP3   OH252712   4.074   1.249   8.933
17612TIP3    H152713   4.063   1.238   8.836
17612TIP3    H252714   4.052   1.344   8.941
17613TIP3   OH252715   4.245   1.639   8.977
17613TIP3    H152716   4.274   1.553   8.938
17613TIP3    H252717   4.298   1.701   8.920
17614TIP3   OH252718   4.346   1.413   8.858
17614TIP3    H152719   4.352   1.342   8.791
17614TIP3    H252720   4.389   1.372   8.935
17615TIP3   OH252721   4.031   0.887   8.843
17615TIP3    H152722   3.942   0.917   8.814
17615TIP3    H252723   4.077   0.877   8.758
17616TIP3   OH252724   3.997   0.681   8.603
17616TIP3    H152725   4.080   0.721   8.634
17616TIP3    H252726   4.033   0.606   8.552
17617TIP3   OH252727   4.384   0.974   8.856
17617TIP3    H152728   4.349   0.979   8.946
17617TIP3    H252729   4.475   0.944   8.877
17618TIP3   OH252730   4.237   0.822   8.672
17618TIP3    H152731   4.293   0.883   8.724
17618TIP3    H252732   4.261   0.848   8.580
17619TIP3   OH252733   3.983   1.505   8.948
17619TIP3    H152734   4.037   1.579   8.979
17619TIP3    H252735   3.904   1.550   8.914
17620TIP3   OH252736   4.542   1.444   8.278
17620TIP3    H152737   4.550   1.540   8.258
17620TIP3    H252738   4.634   1.414   8.264
17621TIP3   OH252739   3.854   1.763   8.754
17621TIP3    H152740   3.803   1.742   8.674
17621TIP3    H252741   3.818   1.850   8.781
17622TIP3   OH252742   4.051   1.661   8.397
17622TIP3    H152743   4.110   1.592   8.358
17622TIP3    H252744   4.089   1.671   8.486
17623TIP3   OH252745   4.104   1.711   8.668
17623TIP3    H152746   4.014   1.724   8.705
17623TIP3    H252747   4.143   1.652   8.733
17624TIP3   OH252748   4.308   0.884   8.421
17624TIP3    H152749   4.266   0.860   8.336
17624TIP3    H252750   4.387   0.932   8.390
17625TIP3   OH252751   4.195   0.700   8.973
17625TIP3    H152752   4.145   0.758   8.912
17625TIP3    H252753   4.246   0.647   8.908
17626TIP3   OH252754   3.526   0.530   8.814
17626TIP3    H152755   3.483   0.472   8.748
17626TIP3    H252756   3.606   0.555   8.764
17627TIP3   OH252757   3.795   1.045   8.824
17627TIP3    H152758   3.729   0.981   8.790
17627TIP3    H252759   3.780   1.033   8.919
17628TIP3   OH252760   4.336   0.574   8.775
17628TIP3    H152761   4.431   0.589   8.792
17628TIP3    H252762   4.315   0.647   8.714
17629TIP3   OH252763   3.960   1.200   8.661
17629TIP3    H152764   3.912   1.286   8.662
17629TIP3    H252765   3.898   1.144   8.713
17630TIP3   OH252766   4.778   0.694   8.631
17630TIP3    H152767   4.720   0.645   8.567
17630TIP3    H252768   4.776   0.781   8.587
17631TIP3   OH252769   4.473   1.512   8.537
17631TIP3    H152770   4.462   1.431   8.589
17631TIP3    H252771   4.494   1.477   8.448
17632TIP3   OH252772   3.503   1.612   8.965
17632TIP3    H152773   3.437   1.622   9.035
17632TIP3    H252774   3.550   1.698   8.974
17633TIP3   OH252775   4.234   1.242   8.442
17633TIP3    H152776   4.282   1.220   8.525
17633TIP3    H252777   4.144   1.214   8.464
17634TIP3   OH252778   4.571   1.718   8.260
17634TIP3    H152779   4.614   1.788   8.207
17634TIP3    H252780   4.492   1.768   8.289
17635TIP3   OH252781   4.396   1.192   8.674
17635TIP3    H152782   4.384   1.114   8.731
17635TIP3    H252783   4.490   1.181   8.648
17636TIP3   OH252784   3.603   1.223   8.438
17636TIP3    H152785   3.611   1.130   8.408
17636TIP3    H252786   3.578   1.210   8.532
17637TIP3   OH252787   3.543   1.230   8.709
17637TIP3    H152788   3.612   1.200   8.769
17637TIP3    H252789   3.550   1.328   8.716
17638TIP3   OH252790   3.815   1.429   8.666
17638TIP3    H152791   3.725   1.454   8.695
17638TIP3    H252792   3.827   1.493   8.594
17639TIP3   OH252793   3.557   1.502   8.722
17639TIP3    H152794   3.523   1.571   8.661
17639TIP3    H252795   3.533   1.542   8.809
17640TIP3   OH252796   3.267   1.147   8.711
17640TIP3    H152797   3.342   1.208   8.724
17640TIP3    H252798   3.312   1.077   8.661
17641TIP3   OH252799   4.548   1.955   9.136
17641TIP3    H152800   4.474   1.897   9.109
17641TIP3    H252801   4.594   1.894   9.198
17642TIP3   OH252802   3.765   1.428   8.356
17642TIP3    H152803   3.709   1.355   8.390
17642TIP3    H252804   3.839   1.377   8.317
17643TIP3   OH252805   4.199   1.471   8.264
17643TIP3    H152806   4.250   1.410   8.320
17643TIP3    H252807   4.252   1.472   8.182
17644TIP3   OH252808   3.408   0.946   8.575
17644TIP3    H152809   3.462   0.913   8.649
17644TIP3    H252810   3.476   0.949   8.505
17645TIP3   OH252811   3.921   1.147   8.384
17645TIP3    H152812   3.917   1.157   8.481
17645TIP3    H252813   3.922   1.049   8.377
17646TIP3   OH252814   3.604   0.858   8.767
17646TIP3    H152815   3.611   0.825   8.859
17646TIP3    H252816   3.635   0.778   8.718
17647TIP3   OH252817   3.717   0.645   8.640
17647TIP3    H152818   3.692   0.637   8.545
17647TIP3    H252819   3.815   0.644   8.633
17648TIP3   OH252820   4.540   0.972   8.299
17648TIP3    H152821   4.519   0.929   8.214
17648TIP3    H252822   4.510   1.064   8.276
17649TIP3   OH252823   3.523   1.708   8.538
17649TIP3    H152824   3.619   1.700   8.525
17649TIP3    H252825   3.500   1.754   8.455
17650TIP3   OH252826   2.995   1.095   8.723
17650TIP3    H152827   3.089   1.116   8.739
17650TIP3    H252828   2.999   0.999   8.704
17651TIP3   OH252829   4.669   1.162   8.632
17651TIP3    H152830   4.737   1.225   8.599
17651TIP3    H252831   4.716   1.124   8.709
17652TIP3   OH252832   4.798   1.031   8.833
17652TIP3    H152833   4.741   0.985   8.898
17652TIP3    H252834   4.873   1.063   8.887
17653TIP3   OH252835   4.837   1.411   9.197
17653TIP3    H152836   4.914   1.351   9.188
17653TIP3    H252837   4.871   1.492   9.154
17654TIP3   OH252838   4.735   0.931   8.485
17654TIP3    H152839   4.667   0.941   8.415
17654TIP3    H252840   4.714   1.010   8.540
17655TIP3   OH252841   4.616   0.601   8.431
17655TIP3    H152842   4.575   0.673   8.383
17655TIP3    H252843   4.575   0.524   8.391
17656TIP3   OH252844   4.613   0.881   8.985
17656TIP3    H152845   4.617   0.785   8.971
17656TIP3    H252846   4.598   0.889   9.080
17657TIP3   OH252847   4.599   0.611   8.834
17657TIP3    H152848   4.643   0.568   8.911
17657TIP3    H252849   4.674   0.633   8.775
17658TIP3   OH252850   4.380   1.818   8.824
17658TIP3    H152851   4.408   1.782   8.737
17658TIP3    H252852   4.427   1.901   8.820
17659TIP3   OH252853   2.985   1.430   8.922
17659TIP3    H152854   2.908   1.410   8.866
17659TIP3    H252855   3.004   1.521   8.895
17660TIP3   OH252856   3.791   1.666   8.488
17660TIP3    H152857   3.880   1.688   8.453
17660TIP3    H252858   3.770   1.590   8.429
17661TIP3   OH252859   4.499   1.779   8.583
17661TIP3    H152860   4.497   1.682   8.565
17661TIP3    H252861   4.466   1.815   8.498
17662TIP3   OH252862   3.105   1.521   8.543
17662TIP3    H152863   3.097   1.523   8.640
17662TIP3    H252864   3.186   1.467   8.530
17663TIP3   OH252865   6.001   1.298   8.541
17663TIP3    H152866   5.980   1.392   8.520
17663TIP3    H252867   5.921   1.255   8.508
17664TIP3   OH252868   6.008   1.299   8.912
17664TIP3    H152869   6.032   1.268   9.001
17664TIP3    H252870   5.958   1.225   8.876
17665TIP3   OH252871   5.308   1.227   9.288
17665TIP3    H152872   5.320   1.168   9.364
17665TIP3    H252873   5.396   1.226   9.245
17666TIP3   OH252874   6.242   1.599   8.599
17666TIP3    H152875   6.232   1.531   8.667
17666TIP3    H252876   6.275   1.675   8.649
17667TIP3   OH252877   5.277   1.604   9.024
17667TIP3    H152878   5.267   1.506   9.019
17667TIP3    H252879   5.369   1.611   8.992
17668TIP3   OH252880   4.971   0.789   8.804
17668TIP3    H152881   4.936   0.880   8.812
17668TIP3    H252882   4.906   0.751   8.741
17669TIP3   OH252883   5.041   1.086   8.950
17669TIP3    H152884   5.090   1.015   8.998
17669TIP3    H252885   5.112   1.122   8.893
17670TIP3   OH252886   5.891   2.059   8.617
17670TIP3    H152887   5.947   1.997   8.564
17670TIP3    H252888   5.898   2.019   8.704
17671TIP3   OH252889   5.798   1.525   8.977
17671TIP3    H152890   5.825   1.458   8.911
17671TIP3    H252891   5.886   1.564   8.995
17672TIP3   OH252892   6.205   1.035   9.000
17672TIP3    H152893   6.261   0.960   9.021
17672TIP3    H252894   6.184   1.020   8.906
17673TIP3   OH252895   5.184   0.891   9.076
17673TIP3    H152896   5.259   0.868   9.133
17673TIP3    H252897   5.202   0.834   8.998
17674TIP3   OH252898   5.629   1.087   8.879
17674TIP3    H152899   5.721   1.055   8.881
17674TIP3    H252900   5.582   1.010   8.840
17675TIP3   OH252901   6.863   1.031   9.140
17675TIP3    H152902   6.795   1.099   9.123
17675TIP3    H252903   6.890   1.053   9.231
17676TIP3   OH252904   5.910   1.523   8.402
17676TIP3    H152905   5.841   1.487   8.344
17676TIP3    H252906   5.867   1.608   8.425
17677TIP3   OH252907   5.658   1.447   9.202
17677TIP3    H152908   5.594   1.515   9.229
17677TIP3    H252909   5.703   1.490   9.126
17678TIP3   OH252910   5.436   0.808   9.175
17678TIP3    H152911   5.512   0.859   9.141
17678TIP3    H252912   5.433   0.736   9.111
17679TIP3   OH252913   5.468   1.639   9.310
17679TIP3    H152914   5.459   1.711   9.245
17679TIP3    H252915   5.388   1.655   9.362
17680TIP3   OH252916   4.870   1.328   8.529
17680TIP3    H152917   4.841   1.356   8.440
17680TIP3    H252918   4.905   1.411   8.567
17681TIP3   OH252919   6.316   1.844   8.772
17681TIP3    H152920   6.224   1.836   8.806
17681TIP3    H252921   6.310   1.927   8.720
17682TIP3   OH252922   6.043   1.899   8.463
17682TIP3    H152923   6.079   1.814   8.430
17682TIP3    H252924   6.093   1.961   8.405
17683TIP3   OH252925   6.161   1.678   8.346
17683TIP3    H152926   6.098   1.609   8.321
17683TIP3    H252927   6.199   1.641   8.429
17684TIP3   OH252928   6.541   1.757   9.110
17684TIP3    H152929   6.532   1.680   9.049
17684TIP3    H252930   6.525   1.832   9.049
17685TIP3   OH252931   5.835   1.146   8.368
17685TIP3    H152932   5.753   1.196   8.349
17685TIP3    H252933   5.881   1.152   8.282
17686TIP3   OH252934   5.789   0.933   8.087
17686TIP3    H152935   5.858   0.985   8.133
17686TIP3    H252936   5.845   0.876   8.033
17687TIP3   OH252937   6.739   1.394   8.959
17687TIP3    H152938   6.655   1.445   8.961
17687TIP3    H252939   6.768   1.415   8.868
17688TIP3   OH252940   6.176   1.232   8.339
17688TIP3    H152941   6.123   1.260   8.418
17688TIP3    H252942   6.259   1.202   8.383
17689TIP3   OH252943   6.415   1.274   9.256
17689TIP3    H152944   6.420   1.359   9.305
17689TIP3    H252945   6.334   1.288   9.203
17690TIP3   OH252946   5.388   1.207   8.777
17690TIP3    H152947   5.364   1.176   8.688
17690TIP3    H252948   5.484   1.192   8.777
17691TIP3   OH252949   5.535   1.627   8.894
17691TIP3    H152950   5.529   1.587   8.805
17691TIP3    H252951   5.627   1.602   8.918
17692TIP3   OH252952   5.536   1.217   9.104
17692TIP3    H152953   5.566   1.193   9.013
17692TIP3    H252954   5.589   1.298   9.122
17693TIP3   OH252955   6.070   1.842   8.886
17693TIP3    H152956   6.064   1.920   8.943
17693TIP3    H252957   6.061   1.767   8.949
17694TIP3   OH252958   5.692   1.773   9.446
17694TIP3    H152959   5.622   1.833   9.479
17694TIP3    H252960   5.638   1.708   9.398
17695TIP3   OH252961   6.028   1.079   8.166
17695TIP3    H152962   6.083   1.141   8.220
17695TIP3    H252963   6.053   1.107   8.075
17696TIP3   OH252964   5.785   1.783   8.402
17696TIP3    H152965   5.833   1.837   8.466
17696TIP3    H252966   5.694   1.812   8.411
17697TIP3   OH252967   5.469   1.917   9.511
17697TIP3    H152968   5.445   1.926   9.416
17697TIP3    H252969   5.389   1.878   9.549
17698TIP3   OH252970   5.282   1.075   8.550
17698TIP3    H152971   5.212   1.116   8.494
17698TIP3    H252972   5.248   0.986   8.563
17699TIP3   OH252973   6.336   1.700   7.755
17699TIP3    H152974   6.345   1.797   7.746
17699TIP3    H252975   6.428   1.671   7.739
17700TIP3   OH252976   4.928   1.659   9.106
17700TIP3    H152977   5.013   1.637   9.067
17700TIP3    H252978   4.951   1.738   9.157
17701TIP3   OH252979   6.785   2.102   9.155
17701TIP3    H152980   6.782   2.005   9.167
17701TIP3    H252981   6.699   2.128   9.197
17702TIP3   OH252982   5.891   1.883   9.291
17702TIP3    H152983   5.888   1.979   9.311
17702TIP3    H252984   5.817   1.849   9.346
17703TIP3   OH252985   5.636   2.021   8.240
17703TIP3    H152986   5.597   2.004   8.152
17703TIP3    H252987   5.610   2.113   8.258
17704TIP3   OH252988   5.078   1.866   8.631
17704TIP3    H152989   5.135   1.856   8.710
17704TIP3    H252990   5.032   1.781   8.632
17705TIP3   OH252991   5.847   1.917   7.884
17705TIP3    H152992   5.907   1.848   7.848
17705TIP3    H252993   5.882   1.927   7.975
17706TIP3   OH252994   5.893   1.967   8.156
17706TIP3    H152995   5.806   1.970   8.202
17706TIP3    H252996   5.943   1.913   8.219
17707TIP3   OH252997   6.681   1.247   9.418
17707TIP3    H152998   6.590   1.262   9.387
17707TIP3    H252999   6.683   1.154   9.442
17708TIP3   OH253000   6.322   1.073   9.419
17708TIP3    H153001   6.385   1.072   9.495
17708TIP3    H253002   6.352   1.151   9.369
17709TIP3   OH253003   6.099   1.126   7.907
17709TIP3    H153004   6.067   1.112   7.816
17709TIP3    H253005   6.169   1.192   7.892
17710TIP3   OH253006   5.647   0.989   9.206
17710TIP3    H153007   5.584   1.004   9.278
17710TIP3    H253008   5.624   1.064   9.147
17711TIP3   OH253009   5.479   0.880   8.773
17711TIP3    H153010   5.394   0.840   8.798
17711TIP3    H253011   5.494   0.839   8.685
17712TIP3   OH253012   5.977   0.952   8.496
17712TIP3    H153013   5.924   1.026   8.460
17712TIP3    H253014   6.026   0.923   8.418
17713TIP3   OH253015   6.131   0.982   8.740
17713TIP3    H153016   6.074   1.022   8.671
17713TIP3    H253017   6.166   0.906   8.690
17714TIP3   OH253018   6.138   1.236   9.165
17714TIP3    H153019   6.171   1.167   9.102
17714TIP3    H253020   6.103   1.179   9.236
17715TIP3   OH253021   5.237   0.742   8.848
17715TIP3    H153022   5.143   0.758   8.824
17715TIP3    H253023   5.249   0.651   8.818
17716TIP3   OH253024   5.525   0.757   8.530
17716TIP3    H153025   5.612   0.738   8.493
17716TIP3    H253026   5.467   0.752   8.452
17717TIP3   OH253027   5.339   0.774   8.308
17717TIP3    H153028   5.286   0.722   8.245
17717TIP3    H253029   5.404   0.812   8.246
17718TIP3   OH253030   6.472   2.453   9.253
17718TIP3    H153031   6.469   2.476   9.158
17718TIP3    H253032   6.552   2.502   9.281
17719TIP3   OH253033   5.895   1.018   8.928
17719TIP3    H153034   5.969   0.981   8.877
17719TIP3    H253035   5.901   0.967   9.011
17720TIP3   OH253036   5.907   0.891   9.183
17720TIP3    H153037   5.813   0.920   9.188
17720TIP3    H253038   5.950   0.954   9.245
17721TIP3   OH253039   5.613   1.293   8.307
17721TIP3    H153040   5.529   1.243   8.304
17721TIP3    H253041   5.597   1.352   8.385
17722TIP3   OH253042   6.506   1.539   8.948
17722TIP3    H153043   6.533   1.588   8.866
17722TIP3    H253044   6.421   1.498   8.920
17723TIP3   OH253045   6.000   1.616   9.311
17723TIP3    H153046   6.016   1.592   9.403
17723TIP3    H253047   5.969   1.708   9.316
17724TIP3   OH253048   6.124   0.835   8.271
17724TIP3    H153049   6.221   0.846   8.282
17724TIP3    H253050   6.101   0.916   8.222
17725TIP3   OH253051   5.290   1.331   8.993
17725TIP3    H153052   5.321   1.302   8.904
17725TIP3    H253053   5.343   1.272   9.048
17726TIP3   OH253054   5.749   1.450   8.127
17726TIP3    H153055   5.704   1.537   8.139
17726TIP3    H253056   5.698   1.394   8.189
17727TIP3   OH253057   6.164   1.873   9.198
17727TIP3    H153058   6.068   1.875   9.216
17727TIP3    H253059   6.197   1.928   9.273
17728TIP3   OH253060   6.580   0.947   8.114
17728TIP3    H153061   6.519   0.903   8.051
17728TIP3    H253062   6.576   1.039   8.079
17729TIP3   OH253063   6.792   1.808   9.198
17729TIP3    H153064   6.694   1.805   9.188
17729TIP3    H253065   6.818   1.781   9.107
17730TIP3   OH253066   6.257   1.771   8.018
17730TIP3    H153067   6.283   1.715   8.092
17730TIP3    H253068   6.295   1.724   7.942
17731TIP3   OH253069   6.271   1.402   8.871
17731TIP3    H153070   6.177   1.376   8.878
17731TIP3    H253071   6.306   1.324   8.822
17732TIP3   OH253072   4.960   0.930   8.320
17732TIP3    H153073   5.012   1.012   8.336
17732TIP3    H253074   4.886   0.941   8.382
17733TIP3   OH253075   5.667   1.972   9.088
17733TIP3    H153076   5.703   2.046   9.035
17733TIP3    H253077   5.748   1.938   9.128
17734TIP3   OH253078   5.301   1.885   8.445
17734TIP3    H153079   5.230   1.878   8.511
17734TIP3    H253080   5.338   1.973   8.464
17735TIP3   OH253081   6.057   1.607   9.042
17735TIP3    H153082   6.052   1.602   9.140
17735TIP3    H253083   6.137   1.555   9.025
17736TIP3   OH253084   6.025   1.490   7.927
17736TIP3    H153085   6.084   1.470   8.003
17736TIP3    H253086   5.938   1.477   7.969
17737TIP3   OH253087   6.303   2.144   9.096
17737TIP3    H153088   6.224   2.088   9.083
17737TIP3    H253089   6.291   2.209   9.023
17738TIP3   OH253090   6.368   1.977   7.748
17738TIP3    H153091   6.414   2.052   7.707
17738TIP3    H253092   6.287   2.022   7.778
17739TIP3   OH253093   6.190   1.423   8.137
17739TIP3    H153094   6.182   1.363   8.213
17739TIP3    H253095   6.280   1.458   8.148
17740TIP3   OH253096   5.093   1.844   9.233
17740TIP3    H153097   5.160   1.775   9.228
17740TIP3    H253098   5.138   1.909   9.289
17741TIP3   OH253099   5.391   1.483   7.930
17741TIP3    H153100   5.414   1.392   7.903
17741TIP3    H253101   5.382   1.472   8.027
17742TIP3   OH253102   5.345   1.485   8.208
17742TIP3    H153103   5.409   1.468   8.279
17742TIP3    H253104   5.346   1.584   8.208
17743TIP3   OH253105   5.071   1.175   8.400
17743TIP3    H153106   5.012   1.226   8.459
17743TIP3    H253107   5.099   1.244   8.337
17744TIP3   OH253108   5.604   1.680   8.139
17744TIP3    H153109   5.523   1.705   8.187
17744TIP3    H253110   5.625   1.763   8.094
17745TIP3   OH253111   5.820   0.739   8.563
17745TIP3    H153112   5.863   0.823   8.537
17745TIP3    H253113   5.774   0.764   8.644
17746TIP3   OH253114   6.056   1.060   9.362
17746TIP3    H153115   6.059   1.114   9.443
17746TIP3    H253116   6.152   1.037   9.355
17747TIP3   OH253117   5.343   1.756   8.210
17747TIP3    H153118   5.318   1.831   8.151
17747TIP3    H253119   5.331   1.797   8.299
17748TIP3   OH253120   6.357   1.166   8.744
17748TIP3    H153121   6.287   1.099   8.753
17748TIP3    H253122   6.434   1.121   8.787
17749TIP3   OH253123   5.069   1.395   8.208
17749TIP3    H153124   5.138   1.462   8.222
17749TIP3    H253125   5.116   1.339   8.142
17750TIP3   OH253126   4.990   0.639   8.325
17750TIP3    H153127   5.039   0.724   8.327
17750TIP3    H253128   4.905   0.668   8.361
17751TIP3   OH253129   6.324   2.117   8.690
17751TIP3    H153130   6.281   2.164   8.614
17751TIP3    H253131   6.418   2.135   8.668
17752TIP3   OH253132   4.937   1.608   8.612
17752TIP3    H153133   4.849   1.649   8.614
17752TIP3    H253134   4.960   1.630   8.520
17753TIP3   OH253135   5.557   1.686   7.836
17753TIP3    H153136   5.502   1.618   7.882
17753TIP3    H253137   5.635   1.634   7.813
17754TIP3   OH253138   6.224   2.014   9.422
17754TIP3    H153139   6.224   1.972   9.510
17754TIP3    H253140   6.298   2.079   9.435
17755TIP3   OH253141   5.996   1.725   7.750
17755TIP3    H153142   6.047   1.674   7.815
17755TIP3    H253143   6.057   1.728   7.674
17756TIP3   OH253144   5.203   1.200   8.064
17756TIP3    H153145   5.260   1.169   8.136
17756TIP3    H253146   5.270   1.207   7.992
17757TIP3   OH253147   5.702   1.401   7.863
17757TIP3    H153148   5.713   1.417   7.960
17757TIP3    H253149   5.707   1.303   7.863
17758TIP3   OH253150   6.326   1.647   9.246
17758TIP3    H153151   6.402   1.688   9.199
17758TIP3    H253152   6.256   1.712   9.227
17759TIP3   OH253153   5.397   1.100   8.275
17759TIP3    H153154   5.386   1.069   8.367
17759TIP3    H253155   5.441   1.025   8.232
17760TIP3   OH253156   5.516   0.887   8.125
17760TIP3    H153157   5.489   0.904   8.032
17760TIP3    H253158   5.611   0.906   8.121
17761TIP3   OH253159   6.338   1.230   7.786
17761TIP3    H153160   6.313   1.189   7.701
17761TIP3    H253161   6.308   1.322   7.768
17762TIP3   OH253162   5.845   1.274   9.319
17762TIP3    H153163   5.920   1.294   9.261
17762TIP3    H253164   5.779   1.339   9.287
17763TIP3   OH253165   6.467   1.492   9.418
17763TIP3    H153166   6.407   1.551   9.367
17763TIP3    H253167   6.554   1.519   9.382
17764TIP3   OH253168   5.319   1.964   8.026
17764TIP3    H153169   5.415   1.955   8.011
17764TIP3    H253170   5.294   2.013   7.945
17765TIP3   OH253171   4.802   1.342   8.248
17765TIP3    H153172   4.896   1.367   8.231
17765TIP3    H253173   4.798   1.254   8.205
17766TIP3   OH253174   4.693   1.963   8.673
17766TIP3    H153175   4.634   1.897   8.631
17766TIP3    H253176   4.742   1.907   8.737
17767TIP3   OH253177   4.829   1.819   8.859
17767TIP3    H153178   4.855   1.732   8.892
17767TIP3    H253179   4.895   1.877   8.903
17768TIP3   OH253180   6.575   2.209   8.646
17768TIP3    H153181   6.611   2.248   8.728
17768TIP3    H253182   6.636   2.243   8.578
17769TIP3   OH253183   6.606   2.230   8.931
17769TIP3    H153184   6.564   2.142   8.919
17769TIP3    H253185   6.684   2.205   8.981
17770TIP3   OH253186   6.657   1.908   9.492
17770TIP3    H153187   6.568   1.921   9.525
17770TIP3    H253188   6.695   1.998   9.493
17771TIP3   OH253189   6.611   1.253   8.325
17771TIP3    H153190   6.525   1.247   8.370
17771TIP3    H253191   6.621   1.349   8.313
17772TIP3   OH253192   6.649   1.674   8.758
17772TIP3    H153193   6.699   1.610   8.704
17772TIP3    H253194   6.648   1.752   8.699
17773TIP3   OH253195   6.484   1.977   8.952
17773TIP3    H153196   6.411   2.020   9.000
17773TIP3    H253197   6.437   1.929   8.881
17774TIP3   OH253198   6.537   1.192   7.980
17774TIP3    H153199   6.466   1.215   7.917
17774TIP3    H253200   6.543   1.275   8.032
17775TIP3   OH253201   6.414   0.855   7.914
17775TIP3    H153202   6.373   0.937   7.881
17775TIP3    H253203   6.362   0.787   7.868
17776TIP3   OH253204   6.393   1.137   8.475
17776TIP3    H153205   6.431   1.049   8.480
17776TIP3    H253206   6.390   1.163   8.570
17777TIP3   OH253207   5.053   1.252   9.179
17777TIP3    H153208   5.054   1.204   9.094
17777TIP3    H253209   5.146   1.242   9.207
17778TIP3   OH253210   6.713   1.562   9.321
17778TIP3    H153211   6.787   1.499   9.307
17778TIP3    H253212   6.737   1.636   9.262
17779TIP3   OH253213   6.912   1.363   9.344
17779TIP3    H153214   6.824   1.331   9.374
17779TIP3    H253215   6.966   1.295   9.386
17780TIP3   OH253216   6.393   0.848   8.311
17780TIP3    H153217   6.440   0.820   8.394
17780TIP3    H253218   6.464   0.895   8.263
17781TIP3   OH253219   6.575   1.056   8.865
17781TIP3    H153220   6.663   1.069   8.823
17781TIP3    H253221   6.595   1.085   8.955
17782TIP3   OH253222   6.634   1.181   9.103
17782TIP3    H153223   6.555   1.222   9.144
17782TIP3    H253224   6.671   1.256   9.052
17783TIP3   OH253225   6.160   2.080   8.299
17783TIP3    H153226   6.206   2.057   8.216
17783TIP3    H253227   6.224   2.138   8.341
17784TIP3   OH253228   5.438   1.910   9.233
17784TIP3    H153229   5.395   1.988   9.192
17784TIP3    H253230   5.526   1.922   9.190
17785TIP3   OH253231   5.881   2.151   9.348
17785TIP3    H153232   5.929   2.142   9.434
17785TIP3    H253233   5.947   2.203   9.296
17786TIP3   OH253234   6.063   2.304   9.220
17786TIP3    H153235   6.135   2.254   9.179
17786TIP3    H253236   6.114   2.365   9.278
17787TIP3   OH253237   5.122   2.161   9.258
17787TIP3    H153238   5.036   2.195   9.226
17787TIP3    H253239   5.122   2.194   9.349
17788TIP3   OH253240   5.355   2.143   9.115
17788TIP3    H153241   5.268   2.158   9.158
17788TIP3    H253242   5.337   2.176   9.024
17789TIP3   OH253243   5.776   2.173   8.918
17789TIP3    H153244   5.713   2.193   8.846
17789TIP3    H253245   5.791   2.262   8.956
17790TIP3   OH253246   6.047   2.115   8.968
17790TIP3    H153247   5.954   2.130   8.945
17790TIP3    H253248   6.092   2.186   8.921
17791TIP3   OH253249   6.255   2.306   8.881
17791TIP3    H153250   6.241   2.391   8.832
17791TIP3    H253251   6.282   2.246   8.808
17792TIP3   OH253252   5.024   1.961   8.993
17792TIP3    H153253   5.046   1.944   9.086
17792TIP3    H253254   5.100   1.918   8.948
17793TIP3   OH253255   5.223   1.832   8.862
17793TIP3    H153256   5.246   1.745   8.900
17793TIP3    H253257   5.312   1.872   8.852
17794TIP3   OH253258   5.486   1.930   8.861
17794TIP3    H153259   5.521   1.843   8.832
17794TIP3    H253260   5.535   1.943   8.944
17795TIP3   OH253261   4.806   1.733   8.405
17795TIP3    H153262   4.724   1.703   8.362
17795TIP3    H253263   4.805   1.826   8.377
17796TIP3   OH253264   5.587   1.923   7.975
17796TIP3    H153265   5.677   1.943   7.941
17796TIP3    H253266   5.566   1.846   7.917
17797TIP3   OH253267   6.300   2.034   8.067
17797TIP3    H153268   6.289   1.937   8.053
17797TIP3    H253269   6.260   2.069   7.985
17798TIP3   OH253270   4.891   1.754   8.035
17798TIP3    H153271   4.902   1.788   8.125
17798TIP3    H253272   4.980   1.715   8.018
17799TIP3   OH253273   6.538   2.186   9.249
17799TIP3    H153274   6.459   2.153   9.201
17799TIP3    H253275   6.518   2.282   9.251
17800TIP3   OH253276   7.798   1.557   8.027
17800TIP3    H153277   7.772   1.649   8.003
17800TIP3    H253278   7.723   1.508   7.990
17801TIP3   OH253279   7.803   1.548   8.409
17801TIP3    H153280   7.801   1.486   8.483
17801TIP3    H253281   7.759   1.493   8.342
17802TIP3   OH253282   7.098   1.462   8.768
17802TIP3    H153283   7.133   1.387   8.819
17802TIP3    H253284   7.181   1.506   8.743
17803TIP3   OH253285   8.042   1.856   8.086
17803TIP3    H153286   8.027   1.789   8.154
17803TIP3    H253287   8.070   1.932   8.138
17804TIP3   OH253288   7.072   1.863   8.501
17804TIP3    H153289   7.063   1.765   8.502
17804TIP3    H253290   7.168   1.870   8.486
17805TIP3   OH253291   6.776   1.040   8.290
17805TIP3    H153292   6.730   1.124   8.313
17805TIP3    H253293   6.711   1.004   8.226
17806TIP3   OH253294   6.860   1.366   8.465
17806TIP3    H153295   6.897   1.278   8.486
17806TIP3    H253296   6.878   1.375   8.371
17807TIP3   OH253297   7.693   2.322   8.100
17807TIP3    H153298   7.741   2.250   8.054
17807TIP3    H253299   7.675   2.284   8.186
17808TIP3   OH253300   7.595   1.783   8.454
17808TIP3    H153301   7.626   1.706   8.403
17808TIP3    H253302   7.682   1.825   8.472
17809TIP3   OH253303   6.983   1.135   8.559
17809TIP3    H153304   7.063   1.110   8.610
17809TIP3    H253305   7.001   1.085   8.477
17810TIP3   OH253306   7.424   1.343   8.356
17810TIP3    H153307   7.514   1.308   8.370
17810TIP3    H253308   7.377   1.262   8.323
17811TIP3   OH253309   7.696   1.779   7.892
17811TIP3    H153310   7.647   1.755   7.812
17811TIP3    H253311   7.651   1.863   7.916
17812TIP3   OH253312   7.456   1.701   8.685
17812TIP3    H153313   7.389   1.763   8.721
17812TIP3    H253314   7.490   1.750   8.607
17813TIP3   OH253315   7.222   1.041   8.654
17813TIP3    H153316   7.283   1.110   8.686
17813TIP3    H253317   7.267   1.010   8.575
17814TIP3   OH253318   7.279   1.896   8.780
17814TIP3    H153319   7.250   1.977   8.735
17814TIP3    H253320   7.199   1.879   8.835
17815TIP3   OH253321   8.116   2.099   8.251
17815TIP3    H153322   8.026   2.090   8.290
17815TIP3    H253323   8.107   2.187   8.209
17816TIP3   OH253324   7.820   2.146   7.932
17816TIP3    H153325   7.869   2.064   7.907
17816TIP3    H253326   7.879   2.213   7.889
17817TIP3   OH253327   7.961   1.931   7.832
17817TIP3    H153328   7.912   1.855   7.798
17817TIP3    H253329   7.995   1.895   7.917
17818TIP3   OH253330   7.633   1.409   7.855
17818TIP3    H153331   7.549   1.457   7.836
17818TIP3    H253332   7.673   1.405   7.766
17819TIP3   OH253333   7.585   1.196   7.575
17819TIP3    H153334   7.661   1.241   7.617
17819TIP3    H253335   7.631   1.127   7.524
17820TIP3   OH253336   7.976   1.491   7.826
17820TIP3    H153337   7.922   1.516   7.905
17820TIP3    H253338   8.059   1.464   7.870
17821TIP3   OH253339   7.212   1.488   8.240
17821TIP3    H153340   7.168   1.432   8.173
17821TIP3    H253341   7.285   1.431   8.270
17822TIP3   OH253342   7.337   1.896   8.393
17822TIP3    H153343   7.314   1.858   8.306
17822TIP3    H253344   7.428   1.861   8.406
17823TIP3   OH253345   7.349   1.455   8.604
17823TIP3    H153346   7.375   1.434   8.512
17823TIP3    H253347   7.391   1.542   8.618
17824TIP3   OH253348   7.874   2.099   8.371
17824TIP3    H153349   7.856   2.178   8.424
17824TIP3    H253350   7.858   2.025   8.433
17825TIP3   OH253351   7.483   2.017   8.915
17825TIP3    H153352   7.426   2.084   8.960
17825TIP3    H253353   7.416   1.973   8.858
17826TIP3   OH253354   7.824   1.336   7.654
17826TIP3    H153355   7.880   1.397   7.707
17826TIP3    H253356   7.849   1.364   7.562
17827TIP3   OH253357   7.234   1.572   9.022
17827TIP3    H153358   7.236   1.658   9.069
17827TIP3    H253359   7.137   1.556   9.022
17828TIP3   OH253360   7.562   2.027   7.927
17828TIP3    H153361   7.637   2.086   7.947
17828TIP3    H253362   7.497   2.088   7.889
17829TIP3   OH253363   7.280   2.180   9.008
17829TIP3    H153364   7.244   2.183   8.917
17829TIP3    H253365   7.200   2.160   9.061
17830TIP3   OH253366   7.078   1.338   8.039
17830TIP3    H153367   7.004   1.380   7.990
17830TIP3    H253368   7.041   1.252   8.061
17831TIP3   OH253369   8.131   1.956   7.246
17831TIP3    H153370   8.140   2.053   7.234
17831TIP3    H253371   8.225   1.928   7.236
17832TIP3   OH253372   6.856   1.715   8.953
17832TIP3    H153373   6.792   1.696   8.881
17832TIP3    H253374   6.894   1.626   8.971
17833TIP3   OH253375   6.713   1.900   8.606
17833TIP3    H153376   6.803   1.899   8.573
17833TIP3    H253377   6.703   1.990   8.639
17834TIP3   OH253378   7.686   2.140   8.782
17834TIP3    H153379   7.676   2.235   8.804
17834TIP3    H253380   7.609   2.103   8.831
17835TIP3   OH253381   7.447   2.273   7.729
17835TIP3    H153382   7.393   2.263   7.649
17835TIP3    H253383   7.418   2.361   7.762
17836TIP3   OH253384   6.887   2.135   8.108
17836TIP3    H153385   6.928   2.123   8.196
17836TIP3    H253386   6.832   2.054   8.103
17837TIP3   OH253387   7.644   2.176   7.368
17837TIP3    H153388   7.704   2.106   7.334
17837TIP3    H253389   7.677   2.186   7.461
17838TIP3   OH253390   7.696   2.222   7.638
17838TIP3    H153391   7.606   2.235   7.677
17838TIP3    H253392   7.742   2.181   7.712
17839TIP3   OH253393   7.058   1.899   8.941
17839TIP3    H153394   7.107   1.878   9.023
17839TIP3    H253395   6.984   1.835   8.945
17840TIP3   OH253396   7.898   1.387   7.395
17840TIP3    H153397   7.861   1.369   7.307
17840TIP3    H253398   7.970   1.448   7.374
17841TIP3   OH253399   7.401   1.227   8.745
17841TIP3    H153400   7.348   1.253   8.824
17841TIP3    H253401   7.390   1.308   8.690
17842TIP3   OH253402   7.266   1.144   8.254
17842TIP3    H153403   7.189   1.094   8.285
17842TIP3    H253404   7.287   1.097   8.171
17843TIP3   OH253405   7.771   1.212   7.984
17843TIP3    H153406   7.718   1.285   7.945
17843TIP3    H253407   7.818   1.178   7.906
17844TIP3   OH253408   7.941   1.246   8.207
17844TIP3    H153409   7.876   1.271   8.138
17844TIP3    H253410   7.942   1.150   8.196
17845TIP3   OH253411   7.205   1.271   8.939
17845TIP3    H153412   7.211   1.342   9.005
17845TIP3    H253413   7.153   1.202   8.982
17846TIP3   OH253414   7.039   0.997   8.328
17846TIP3    H153415   6.945   1.017   8.306
17846TIP3    H253416   7.043   0.903   8.306
17847TIP3   OH253417   7.322   1.013   8.017
17847TIP3    H153418   7.407   0.994   7.975
17847TIP3    H253419   7.261   1.011   7.941
17848TIP3   OH253420   7.138   1.030   7.796
17848TIP3    H153421   7.082   0.980   7.735
17848TIP3    H253422   7.202   1.068   7.732
17849TIP3   OH253423   8.319   2.718   8.738
17849TIP3    H153424   8.282   2.710   8.647
17849TIP3    H253425   8.338   2.814   8.735
17850TIP3   OH253426   7.214   1.818   9.153
17850TIP3    H153427   7.298   1.856   9.184
17850TIP3    H253428   7.158   1.821   9.234
17851TIP3   OH253429   7.698   1.276   8.433
17851TIP3    H153430   7.755   1.216   8.384
17851TIP3    H253431   7.688   1.230   8.518
17852TIP3   OH253432   7.671   1.169   8.707
17852TIP3    H153433   7.577   1.192   8.717
17852TIP3    H253434   7.709   1.213   8.786
17853TIP3   OH253435   7.404   1.559   7.806
17853TIP3    H153436   7.331   1.495   7.793
17853TIP3    H253437   7.383   1.594   7.896
17854TIP3   OH253438   8.300   1.769   8.422
17854TIP3    H153439   8.333   1.826   8.350
17854TIP3    H253440   8.211   1.745   8.391
17855TIP3   OH253441   7.836   1.896   8.796
17855TIP3    H153442   7.811   1.831   8.863
17855TIP3    H253443   7.767   1.965   8.803
17856TIP3   OH253444   7.918   1.092   7.758
17856TIP3    H153445   8.016   1.106   7.766
17856TIP3    H253446   7.892   1.172   7.708
17857TIP3   OH253447   7.105   1.591   8.480
17857TIP3    H153448   7.130   1.558   8.391
17857TIP3    H253449   7.123   1.514   8.535
17858TIP3   OH253450   7.546   1.710   7.624
17858TIP3    H153451   7.498   1.797   7.630
17858TIP3    H253452   7.491   1.655   7.684
17859TIP3   OH253453   6.968   1.496   9.090
17859TIP3    H153454   6.976   1.475   9.184
17859TIP3    H253455   6.894   1.438   9.062
17860TIP3   OH253456   7.949   2.154   8.680
17860TIP3    H153457   7.854   2.134   8.691
17860TIP3    H253458   7.954   2.245   8.710
17861TIP3   OH253459   8.378   1.207   7.597
17861TIP3    H153460   8.318   1.159   7.536
17861TIP3    H253461   8.370   1.297   7.559
17862TIP3   OH253462   8.076   2.029   7.513
17862TIP3    H153463   8.045   1.962   7.576
17862TIP3    H253464   8.083   1.980   7.430
17863TIP3   OH253465   8.050   1.662   8.342
17863TIP3    H153466   7.960   1.627   8.360
17863TIP3    H253467   8.093   1.584   8.304
17864TIP3   OH253468   7.193   1.886   8.106
17864TIP3    H153469   7.190   1.968   8.052
17864TIP3    H253470   7.098   1.867   8.113
17865TIP3   OH253471   6.757   1.189   7.807
17865TIP3    H153472   6.804   1.273   7.825
17865TIP3    H253473   6.682   1.198   7.869
17866TIP3   OH253474   7.337   1.655   8.050
17866TIP3    H153475   7.298   1.743   8.068
17866TIP3    H253476   7.297   1.602   8.122
17867TIP3   OH253477   7.461   2.232   8.572
17867TIP3    H153478   7.494   2.306   8.518
17867TIP3    H253479   7.542   2.204   8.616
17868TIP3   OH253480   7.119   2.118   7.957
17868TIP3    H153481   7.033   2.135   8.000
17868TIP3    H253482   7.160   2.208   7.964
17869TIP3   OH253483   7.854   1.865   8.525
17869TIP3    H153484   7.855   1.865   8.623
17869TIP3    H253485   7.924   1.802   8.502
17870TIP3   OH253486   7.825   1.754   7.413
17870TIP3    H153487   7.877   1.730   7.493
17870TIP3    H253488   7.735   1.732   7.443
17871TIP3   OH253489   8.087   2.403   8.592
17871TIP3    H153490   8.012   2.353   8.555
17871TIP3    H253491   8.097   2.470   8.520
17872TIP3   OH253492   8.166   2.232   7.235
17872TIP3    H153493   8.201   2.304   7.180
17872TIP3    H253494   8.086   2.277   7.269
17873TIP3   OH253495   7.983   1.688   7.628
17873TIP3    H153496   7.975   1.624   7.702
17873TIP3    H253497   8.080   1.690   7.615
17874TIP3   OH253498   6.901   2.098   8.735
17874TIP3    H153499   6.948   2.016   8.757
17874TIP3    H253500   6.939   2.159   8.799
17875TIP3   OH253501   7.194   1.736   7.410
17875TIP3    H153502   7.207   1.643   7.385
17875TIP3    H253503   7.176   1.728   7.507
17876TIP3   OH253504   7.144   1.743   7.681
17876TIP3    H153505   7.203   1.715   7.751
17876TIP3    H253506   7.144   1.841   7.691
17877TIP3   OH253507   6.861   1.441   7.898
17877TIP3    H153508   6.792   1.478   7.958
17877TIP3    H253509   6.869   1.514   7.833
17878TIP3   OH253510   7.405   1.942   7.633
17878TIP3    H153511   7.318   1.965   7.671
17878TIP3    H253512   7.420   2.019   7.577
17879TIP3   OH253513   7.618   0.994   8.050
17879TIP3    H153514   7.657   1.082   8.031
17879TIP3    H253515   7.568   1.011   8.131
17880TIP3   OH253516   7.147   2.014   7.702
17880TIP3    H153517   7.116   2.084   7.640
17880TIP3    H253518   7.130   2.056   7.789
17881TIP3   OH253519   8.156   1.412   8.232
17881TIP3    H153520   8.072   1.362   8.227
17881TIP3    H253521   8.209   1.355   8.292
17882TIP3   OH253522   6.867   1.644   7.704
17882TIP3    H153523   6.923   1.723   7.710
17882TIP3    H253524   6.913   1.595   7.633
17883TIP3   OH253525   6.784   0.898   7.811
17883TIP3    H153526   6.830   0.985   7.811
17883TIP3    H253527   6.705   0.922   7.861
17884TIP3   OH253528   8.119   2.372   8.177
17884TIP3    H153529   8.077   2.420   8.101
17884TIP3    H253530   8.214   2.388   8.155
17885TIP3   OH253531   6.747   1.897   8.100
17885TIP3    H153532   6.695   1.822   8.133
17885TIP3    H253533   6.715   1.903   8.008
17886TIP3   OH253534   6.891   2.400   9.157
17886TIP3    H153535   6.978   2.398   9.202
17886TIP3    H253536   6.871   2.305   9.153
17887TIP3   OH253537   7.372   2.374   9.187
17887TIP3    H153538   7.461   2.344   9.211
17887TIP3    H253539   7.350   2.309   9.117
17888TIP3   OH253540   7.355   1.941   7.324
17888TIP3    H153541   7.297   1.872   7.365
17888TIP3    H253542   7.431   1.886   7.298
17889TIP3   OH253543   7.792   1.982   7.238
17889TIP3    H153544   7.837   1.919   7.296
17889TIP3    H253545   7.849   1.982   7.158
17890TIP3   OH253546   7.023   1.815   9.349
17890TIP3    H153547   7.040   1.721   9.368
17890TIP3    H253548   6.936   1.812   9.306
17891TIP3   OH253549   7.000   1.458   7.543
17891TIP3    H153550   7.051   1.428   7.620
17891TIP3    H253551   7.071   1.462   7.476
17892TIP3   OH253552   7.506   1.830   9.115
17892TIP3    H153553   7.484   1.881   9.034
17892TIP3    H253554   7.550   1.750   9.077
17893TIP3   OH253555   7.510   1.660   7.354
17893TIP3    H153556   7.510   1.673   7.451
17893TIP3    H253557   7.509   1.562   7.350
17894TIP3   OH253558   7.152   1.541   9.345
17894TIP3    H153559   7.149   1.445   9.343
17894TIP3    H253560   7.129   1.560   9.438
17895TIP3   OH253561   7.212   1.363   7.772
17895TIP3    H153562   7.179   1.326   7.856
17895TIP3    H253563   7.243   1.283   7.725
17896TIP3   OH253564   7.461   1.415   8.993
17896TIP3    H153565   7.393   1.486   8.992
17896TIP3    H253566   7.520   1.443   8.921
17897TIP3   OH253567   7.308   1.153   7.615
17897TIP3    H153568   7.283   1.158   7.521
17897TIP3    H253569   7.406   1.161   7.608
17898TIP3   OH253570   8.134   1.485   7.270
17898TIP3    H153571   8.109   1.442   7.186
17898TIP3    H253572   8.102   1.577   7.251
17899TIP3   OH253573   7.633   1.505   8.770
17899TIP3    H153574   7.719   1.541   8.745
17899TIP3    H253575   7.571   1.574   8.738
17900TIP3   OH253576   7.114   2.215   7.512
17900TIP3    H153577   7.211   2.213   7.495
17900TIP3    H253578   7.085   2.267   7.435
17901TIP3   OH253579   6.588   1.614   7.678
17901TIP3    H153580   6.674   1.634   7.719
17901TIP3    H253581   6.591   1.517   7.673
17902TIP3   OH253582   6.500   2.210   8.140
17902TIP3    H153583   6.437   2.141   8.109
17902TIP3    H253584   6.549   2.160   8.210
17903TIP3   OH253585   6.627   2.085   8.342
17903TIP3    H153586   6.639   1.992   8.364
17903TIP3    H253587   6.696   2.128   8.397
17904TIP3   OH253588   8.376   2.456   8.133
17904TIP3    H153589   8.396   2.499   8.218
17904TIP3    H253590   8.422   2.512   8.069
17905TIP3   OH253591   8.407   2.488   8.416
17905TIP3    H153592   8.360   2.401   8.412
17905TIP3    H253593   8.494   2.459   8.448
17906TIP3   OH253594   8.258   1.682   7.590
17906TIP3    H153595   8.332   1.742   7.571
17906TIP3    H253596   8.290   1.638   7.672
17907TIP3   OH253597   8.354   1.540   7.792
17907TIP3    H153598   8.306   1.491   7.861
17907TIP3    H253599   8.436   1.570   7.838
17908TIP3   OH253600   8.437   1.921   8.230
17908TIP3    H153601   8.482   1.886   8.153
17908TIP3    H253602   8.409   2.008   8.197
17909TIP3   OH253603   8.281   2.246   8.433
17909TIP3    H153604   8.205   2.259   8.490
17909TIP3    H253605   8.245   2.180   8.369
17910TIP3   OH253606   8.329   1.446   7.457
17910TIP3    H153607   8.260   1.455   7.388
17910TIP3    H253608   8.305   1.522   7.514
17911TIP3   OH253609   8.212   1.114   7.400
17911TIP3    H153610   8.166   1.189   7.360
17911TIP3    H253611   8.163   1.039   7.364
17912TIP3   OH253612   8.200   1.394   7.963
17912TIP3    H153613   8.207   1.298   7.959
17912TIP3    H253614   8.192   1.411   8.060
17913TIP3   OH253615   6.832   1.465   8.712
17913TIP3    H153616   6.830   1.437   8.618
17913TIP3    H253617   6.930   1.475   8.723
17914TIP3   OH253618   8.188   1.118   7.788
17914TIP3    H153619   8.228   1.088   7.872
17914TIP3    H253620   8.265   1.155   7.740
17915TIP3   OH253621   6.826   1.127   8.784
17915TIP3    H153622   6.871   1.117   8.698
17915TIP3    H253623   6.844   1.220   8.802
17916TIP3   OH253624   7.963   2.324   7.790
17916TIP3    H153625   8.012   2.314   7.705
17916TIP3    H253626   8.007   2.401   7.830
17917TIP3   OH253627   7.063   2.131   9.182
17917TIP3    H153628   6.972   2.104   9.161
17917TIP3    H253629   7.067   2.114   9.277
17918TIP3   OH253630   7.237   2.168   8.724
17918TIP3    H153631   7.186   2.242   8.684
17918TIP3    H253632   7.321   2.183   8.676
17919TIP3   OH253633   7.666   2.409   8.827
17919TIP3    H153634   7.699   2.398   8.919
17919TIP3    H253635   7.736   2.464   8.787
17920TIP3   OH253636   7.863   2.558   8.716
17920TIP3    H153637   7.932   2.518   8.661
17920TIP3    H253638   7.915   2.614   8.777
17921TIP3   OH253639   6.915   2.426   8.745
17921TIP3    H153640   6.827   2.459   8.717
17921TIP3    H253641   6.917   2.458   8.836
17922TIP3   OH253642   7.152   2.402   8.603
17922TIP3    H153643   7.064   2.416   8.646
17922TIP3    H253644   7.134   2.433   8.512
17923TIP3   OH253645   7.580   2.429   8.404
17923TIP3    H153646   7.507   2.443   8.338
17923TIP3    H253647   7.589   2.521   8.438
17924TIP3   OH253648   7.845   2.371   8.456
17924TIP3    H153649   7.750   2.385   8.436
17924TIP3    H253650   7.885   2.443   8.404
17925TIP3   OH253651   8.059   2.563   8.370
17925TIP3    H153652   8.038   2.645   8.321
17925TIP3    H253653   8.078   2.500   8.296
17926TIP3   OH253654   6.823   2.216   8.494
17926TIP3    H153655   6.854   2.191   8.584
17926TIP3    H253656   6.895   2.176   8.440
17927TIP3   OH253657   7.015   2.090   8.349
17927TIP3    H153658   7.034   2.006   8.395
17927TIP3    H253659   7.105   2.128   8.340
17928TIP3   OH253660   7.278   2.178   8.349
17928TIP3    H153661   7.314   2.088   8.336
17928TIP3    H253662   7.324   2.204   8.430
17929TIP3   OH253663   6.623   1.980   7.863
17929TIP3    H153664   6.535   1.946   7.839
17929TIP3    H253665   6.604   2.073   7.876
17930TIP3   OH253666   7.383   2.178   7.461
17930TIP3    H153667   7.472   2.201   7.426
17930TIP3    H253668   7.362   2.102   7.402
17931TIP3   OH253669   8.106   2.297   7.555
17931TIP3    H153670   8.097   2.199   7.543
17931TIP3    H253671   8.057   2.329   7.476
17932TIP3   OH253672   6.688   2.020   7.523
17932TIP3    H153673   6.683   2.032   7.619
17932TIP3    H253674   6.776   1.976   7.512
17933TIP3   OH253675   8.530   1.297   7.817
17933TIP3    H153676   8.514   1.391   7.799
17933TIP3    H253677   8.503   1.258   7.732
17934TIP3   OH253678   8.604   1.596   7.869
17934TIP3    H153679   8.665   1.555   7.934
17934TIP3    H253680   8.666   1.652   7.822
17935TIP3   OH253681   9.391   2.042   7.438
17935TIP3    H153682   9.385   2.016   7.345
17935TIP3    H253683   9.384   2.140   7.429
17936TIP3   OH253684   8.473   1.843   7.499
17936TIP3    H153685   8.428   1.867   7.416
17936TIP3    H253686   8.499   1.930   7.535
17937TIP3   OH253687   9.385   1.455   7.045
17937TIP3    H153688   9.443   1.492   7.113
17937TIP3    H253689   9.406   1.361   7.045
17938TIP3   OH253690   9.367   2.314   7.413
17938TIP3    H153691   9.398   2.388   7.466
17938TIP3    H253692   9.298   2.355   7.358
17939TIP3   OH253693   8.880   1.596   7.531
17939TIP3    H153694   8.805   1.628   7.477
17939TIP3    H253695   8.855   1.505   7.549
17940TIP3   OH253696   8.503   2.168   8.074
17940TIP3    H153697   8.599   2.178   8.080
17940TIP3    H253698   8.473   2.242   8.129
17941TIP3   OH253699   9.239   2.536   7.217
17941TIP3    H153700   9.191   2.509   7.137
17941TIP3    H253701   9.199   2.623   7.238
17942TIP3   OH253702   8.677   2.381   7.597
17942TIP3    H153703   8.720   2.373   7.685
17942TIP3    H253704   8.615   2.305   7.600
17943TIP3   OH253705   9.443   2.436   6.857
17943TIP3    H153706   9.501   2.365   6.821
17943TIP3    H253707   9.475   2.440   6.949
17944TIP3   OH253708   9.492   2.481   7.127
17944TIP3    H153709   9.403   2.488   7.169
17944TIP3    H253710   9.546   2.446   7.200
17945TIP3   OH253711   9.681   1.658   6.877
17945TIP3    H153712   9.659   1.621   6.790
17945TIP3    H253713   9.753   1.717   6.857
17946TIP3   OH253714   8.902   1.309   7.271
17946TIP3    H153715   8.865   1.243   7.209
17946TIP3    H253716   8.987   1.327   7.227
17947TIP3   OH253717   9.175   1.843   7.289
17947TIP3    H153718   9.127   1.758   7.276
17947TIP3    H253719   9.173   1.852   7.386
17948TIP3   OH253720   9.335   1.966   7.102
17948TIP3    H153721   9.294   2.054   7.118
17948TIP3    H253722   9.284   1.911   7.165
17949TIP3   OH253723   9.897   2.273   6.929
17949TIP3    H153724   9.891   2.263   7.027
17949TIP3    H253725   9.820   2.221   6.902
17950TIP3   OH253726   8.989   2.142   7.568
17950TIP3    H153727   8.984   2.229   7.523
17950TIP3    H253728   8.896   2.126   7.587
17951TIP3   OH253729   8.551   1.447   7.291
17951TIP3    H153730   8.603   1.526   7.313
17951TIP3    H253731   8.477   1.453   7.355
17952TIP3   OH253732   9.129   1.902   7.567
17952TIP3    H153733   9.104   1.995   7.551
17952TIP3    H253734   9.058   1.875   7.625
17953TIP3   OH253735   8.913   2.383   7.445
17953TIP3    H153736   8.825   2.391   7.488
17953TIP3    H253737   8.943   2.476   7.448
17954TIP3   OH253738   9.614   2.024   6.916
17954TIP3    H153739   9.652   1.984   6.996
17954TIP3    H253740   9.522   1.996   6.926
17955TIP3   OH253741   8.706   2.338   8.210
17955TIP3    H153742   8.758   2.260   8.234
17955TIP3    H253743   8.763   2.406   8.250
17956TIP3   OH253744   8.990   1.994   6.901
17956TIP3    H153745   9.001   1.903   6.870
17956TIP3    H253746   8.968   1.980   6.995
17957TIP3   OH253747   8.934   1.998   7.173
17957TIP3    H153748   9.011   1.965   7.223
17957TIP3    H253749   8.942   2.095   7.184
17958TIP3   OH253750   8.669   1.692   7.375
17958TIP3    H153751   8.603   1.737   7.432
17958TIP3    H253752   8.683   1.761   7.307
17959TIP3   OH253753   9.204   2.203   7.132
17959TIP3    H153754   9.114   2.227   7.159
17959TIP3    H253755   9.214   2.255   7.052
17960TIP3   OH253756   8.945   2.273   7.189
17960TIP3    H153757   8.913   2.341   7.126
17960TIP3    H253758   8.926   2.317   7.275
17961TIP3   OH253759   8.660   1.903   7.182
17961TIP3    H153760   8.727   1.974   7.190
17961TIP3    H253761   8.706   1.848   7.115
17962TIP3   OH253762   8.580   1.154   7.294
17962TIP3    H153763   8.631   1.237   7.298
17962TIP3    H253764   8.503   1.179   7.348
17963TIP3   OH253765   8.535   2.119   7.572
17963TIP3    H153766   8.461   2.148   7.627
17963TIP3    H253767   8.509   2.156   7.485
17964TIP3   OH253768   9.155   2.198   6.821
17964TIP3    H153769   9.097   2.125   6.852
17964TIP3    H253770   9.227   2.147   6.779
17965TIP3   OH253771   9.589   2.239   6.736
17965TIP3    H153772   9.624   2.157   6.778
17965TIP3    H253773   9.628   2.238   6.646
17966TIP3   OH253774   8.795   1.717   7.033
17966TIP3    H153775   8.847   1.678   7.105
17966TIP3    H253776   8.863   1.720   6.962
17967TIP3   OH253777   9.307   1.912   6.838
17967TIP3    H153778   9.307   1.925   6.935
17967TIP3    H253779   9.303   1.814   6.833
17968TIP3   OH253780   9.018   1.615   7.264
17968TIP3    H153781   8.975   1.573   7.340
17968TIP3    H253782   9.042   1.537   7.210
17969TIP3   OH253783   9.106   1.409   7.099
17969TIP3    H153784   9.074   1.414   7.006
17969TIP3    H253785   9.201   1.426   7.085
17970TIP3   OH253786   8.914   2.480   7.008
17970TIP3    H153787   9.008   2.474   6.984
17970TIP3    H253788   8.880   2.521   6.926
17971TIP3   OH253789   8.392   1.856   7.219
17971TIP3    H153790   8.487   1.878   7.205
17971TIP3    H253791   8.387   1.767   7.178
17972TIP3   OH253792   8.309   2.468   7.629
17972TIP3    H153793   8.240   2.408   7.594
17972TIP3    H253794   8.351   2.410   7.696
17973TIP3   OH253795   8.445   2.320   7.816
17973TIP3    H153796   8.424   2.249   7.879
17973TIP3    H253797   8.493   2.382   7.875
17974TIP3   OH253798   9.727   2.586   7.307
17974TIP3    H153799   9.766   2.560   7.220
17974TIP3    H253800   9.785   2.659   7.333
17975TIP3   OH253801   8.700   2.751   8.203
17975TIP3    H153802   8.602   2.757   8.194
17975TIP3    H253803   8.710   2.692   8.278
17976TIP3   OH253804   8.919   2.653   8.063
17976TIP3    H153805   8.847   2.709   8.099
17976TIP3    H253806   8.920   2.687   7.971
17977TIP3   OH253807   8.622   2.475   7.976
17977TIP3    H153808   8.642   2.444   8.067
17977TIP3    H253809   8.696   2.433   7.927
17978TIP3   OH253810   8.819   2.347   7.831
17978TIP3    H153811   8.853   2.260   7.855
17978TIP3    H253812   8.902   2.397   7.821
17979TIP3   OH253813   9.079   2.444   7.834
17979TIP3    H153814   9.129   2.361   7.829
17979TIP3    H253815   9.094   2.471   7.926
17980TIP3   OH253816   8.410   2.245   7.369
17980TIP3    H153817   8.325   2.211   7.336
17980TIP3    H253818   8.397   2.339   7.351
17981TIP3   OH253819   9.182   2.438   6.948
17981TIP3    H153820   9.271   2.455   6.912
17981TIP3    H253821   9.156   2.363   6.891
17982TIP3   OH253822   9.832   2.524   7.068
17982TIP3    H153823   9.873   2.447   7.025
17982TIP3    H253824   9.808   2.577   6.989
17983TIP3   OH253825   8.485   2.272   7.006
17983TIP3    H153826   8.481   2.298   7.099
17983TIP3    H253827   8.574   2.231   6.999
17984TIP3   OH253828   2.280   2.940   8.979
17984TIP3    H153829   2.194   2.915   8.943
17984TIP3    H253830   2.257   2.976   9.065
17985TIP3   OH253831   1.844   2.242   8.747
17985TIP3    H153832   1.910   2.291   8.800
17985TIP3    H253833   1.902   2.179   8.700
17986TIP3   OH253834   2.073   2.392   8.834
17986TIP3    H153835   2.127   2.451   8.888
17986TIP3    H253836   2.098   2.419   8.743
17987TIP3   OH253837   2.382   3.002   8.428
17987TIP3    H153838   2.389   3.099   8.411
17987TIP3    H253839   2.474   2.973   8.414
17988TIP3   OH253840   1.677   3.308   8.911
17988TIP3    H153841   1.647   3.297   8.818
17988TIP3    H253842   1.659   3.403   8.927
17989TIP3   OH253843   1.893   3.216   8.546
17989TIP3    H153844   1.954   3.149   8.507
17989TIP3    H253845   1.933   3.229   8.634
17990TIP3   OH253846   1.937   3.272   8.817
17990TIP3    H153847   1.852   3.273   8.865
17990TIP3    H253848   1.999   3.238   8.884
17991TIP3   OH253849   2.142   2.443   8.575
17991TIP3    H153850   2.110   2.415   8.487
17991TIP3    H253851   2.224   2.490   8.549
17992TIP3   OH253852   3.968   3.796  -0.607
17992TIP3    H153853   3.892   3.804  -0.549
17992TIP3    H253854   4.019   3.875  -0.578
17993TIP3   OH253855   2.183   2.144   8.899
17993TIP3    H153856   2.270   2.147   8.940
17993TIP3    H253857   2.158   2.238   8.888
17994TIP3   OH253858   1.805   2.754   8.790
17994TIP3    H153859   1.758   2.840   8.793
17994TIP3    H253860   1.740   2.693   8.824
17995TIP3   OH253861   2.638   2.259   8.765
17995TIP3    H153862   2.567   2.208   8.720
17995TIP3    H253863   2.618   2.347   8.726
17996TIP3   OH253864   2.306   3.072   8.689
17996TIP3    H153865   2.315   3.001   8.754
17996TIP3    H253866   2.330   3.029   8.605
17997TIP3   OH253867   2.071   2.798   8.588
17997TIP3    H153868   2.130   2.767   8.660
17997TIP3    H253869   1.985   2.773   8.623
17998TIP3   OH253870   2.414   3.276   8.412
17998TIP3    H153871   2.453   3.347   8.357
17998TIP3    H253872   2.334   3.324   8.442
17999TIP3   OH253873   2.229   2.715   8.796
17999TIP3    H153874   2.223   2.701   8.891
17999TIP3    H253875   2.327   2.725   8.785
18000TIP3   OH253876   1.448   2.780   8.598
18000TIP3    H153877   1.465   2.702   8.543
18000TIP3    H253878   1.401   2.741   8.672
18001TIP3   OH253879   1.639   2.978   8.788
18001TIP3    H153880   1.548   3.009   8.773
18001TIP3    H253881   1.683   3.026   8.716
18002TIP3   OH253882   1.365   3.082   8.883
18002TIP3    H153883   1.353   3.130   8.798
18002TIP3    H253884   1.326   3.148   8.943
18003TIP3   OH253885   1.609   2.987   8.502
18003TIP3    H153886   1.557   2.910   8.534
18003TIP3    H253887   1.680   2.942   8.451
18004TIP3   OH253888   2.041   3.028   8.412
18004TIP3    H153889   2.093   2.969   8.469
18004TIP3    H253890   2.094   3.031   8.330
18005TIP3   OH253891   1.247   2.498   8.713
18005TIP3    H153892   1.290   2.445   8.781
18005TIP3    H253893   1.317   2.502   8.644
18006TIP3   OH253894   1.751   2.696   8.524
18006TIP3    H153895   1.769   2.710   8.619
18006TIP3    H253896   1.756   2.597   8.520
18007TIP3   OH253897   1.561   2.191   8.786
18007TIP3    H153898   1.532   2.202   8.694
18007TIP3    H253899   1.656   2.210   8.781
18008TIP3   OH253900   2.380   2.530   8.450
18008TIP3    H153901   2.359   2.485   8.366
18008TIP3    H253902   2.349   2.621   8.427
18009TIP3   OH253903   1.364   3.253   8.677
18009TIP3    H153904   1.459   3.268   8.663
18009TIP3    H253905   1.328   3.309   8.605
18010TIP3   OH253906   2.508   2.725   8.776
18010TIP3    H153907   2.578   2.788   8.746
18010TIP3    H253908   2.555   2.681   8.851
18011TIP3   OH253909   2.642   2.589   8.966
18011TIP3    H153910   2.592   2.556   9.042
18011TIP3    H253911   2.725   2.622   9.006
18012TIP3   OH253912   2.580   2.495   8.632
18012TIP3    H153913   2.508   2.497   8.565
18012TIP3    H253914   2.552   2.572   8.686
18013TIP3   OH253915   2.453   2.167   8.589
18013TIP3    H153916   2.407   2.205   8.514
18013TIP3    H253917   2.428   2.072   8.581
18014TIP3   OH253918   2.393   1.902   8.572
18014TIP3    H153919   2.473   1.875   8.622
18014TIP3    H253920   2.325   1.839   8.601
18015TIP3   OH253921   2.642   1.857   8.681
18015TIP3    H153922   2.687   1.774   8.660
18015TIP3    H253923   2.717   1.920   8.685
18016TIP3   OH253924   2.206   3.379   8.964
18016TIP3    H153925   2.256   3.368   8.879
18016TIP3    H253926   2.257   3.451   9.005
18017TIP3   OH253927   1.636   3.230   8.637
18017TIP3    H153928   1.725   3.251   8.602
18017TIP3    H253929   1.611   3.161   8.572
18018TIP3   OH253930   2.350   3.339   8.731
18018TIP3    H153931   2.339   3.243   8.715
18018TIP3    H253932   2.310   3.376   8.649
18019TIP3   OH253933   0.937   3.043   8.707
18019TIP3    H153934   0.945   3.102   8.784
18019TIP3    H253935   1.030   3.016   8.691
18020TIP3   OH253936   3.845   2.855   8.688
18020TIP3    H153937   3.819   2.948   8.670
18020TIP3    H253938   3.765   2.809   8.657
18021TIP3   OH253939   3.835   2.858   9.048
18021TIP3    H153940   3.857   2.833   9.140
18021TIP3    H253941   3.793   2.777   9.015
18022TIP3   OH253942   4.085   3.159   8.749
18022TIP3    H153943   4.074   3.093   8.817
18022TIP3    H253944   4.117   3.236   8.799
18023TIP3   OH253945   3.133   3.143   9.194
18023TIP3    H153946   3.117   3.055   9.153
18023TIP3    H253947   3.221   3.167   9.158
18024TIP3   OH253948   2.828   2.359   8.933
18024TIP3    H153949   2.793   2.447   8.951
18024TIP3    H253950   2.761   2.325   8.870
18025TIP3   OH253951   2.902   2.641   9.033
18025TIP3    H153952   2.952   2.595   9.101
18025TIP3    H253953   2.971   2.687   8.984
18026TIP3   OH253954   3.732   3.619   8.762
18026TIP3    H153955   3.781   3.548   8.716
18026TIP3    H253956   3.729   3.588   8.853
18027TIP3   OH253957   3.642   3.076   9.097
18027TIP3    H153958   3.689   3.002   9.054
18027TIP3    H253959   3.720   3.123   9.133
18028TIP3   OH253960   4.671   2.405   9.099
18028TIP3    H153961   4.691   2.485   9.153
18028TIP3    H253962   4.702   2.435   9.012
18029TIP3   OH253963   4.072   2.577   9.156
18029TIP3    H153964   4.106   2.485   9.158
18029TIP3    H253965   4.036   2.580   9.066
18030TIP3   OH253966   3.429   2.237   9.062
18030TIP3    H153967   3.377   2.314   9.033
18030TIP3    H253968   3.373   2.204   9.137
18031TIP3   OH253969   4.093   2.334   8.741
18031TIP3    H153970   4.168   2.314   8.801
18031TIP3    H253971   4.141   2.371   8.665
18032TIP3   OH253972   3.477   2.646   8.966
18032TIP3    H153973   3.566   2.611   8.985
18032TIP3    H253974   3.426   2.564   8.948
18033TIP3   OH253975   4.737   2.612   9.265
18033TIP3    H153976   4.652   2.660   9.254
18033TIP3    H253977   4.755   2.627   9.359
18034TIP3   OH253978   3.736   3.077   8.557
18034TIP3    H153979   3.694   3.061   8.472
18034TIP3    H253980   3.695   3.162   8.582
18035TIP3   OH253981   4.306   2.322   8.917
18035TIP3    H153982   4.275   2.302   9.007
18035TIP3    H253983   4.355   2.405   8.931
18036TIP3   OH253984   2.717   2.886   8.676
18036TIP3    H153985   2.679   2.913   8.591
18036TIP3    H253986   2.747   2.972   8.713
18037TIP3   OH253987   4.158   3.400   8.913
18037TIP3    H153988   4.068   3.395   8.952
18037TIP3    H253989   4.154   3.487   8.868
18038TIP3   OH253990   4.453   2.258   9.173
18038TIP3    H153991   4.390   2.277   9.247
18038TIP3    H253992   4.499   2.345   9.166
18039TIP3   OH253993   3.861   3.447   8.592
18039TIP3    H153994   3.912   3.365   8.569
18039TIP3    H253995   3.921   3.514   8.551
18040TIP3   OH253996   4.003   3.232   8.496
18040TIP3    H153997   3.964   3.152   8.458
18040TIP3    H253998   4.038   3.198   8.581
18041TIP3   OH253999   4.377   3.312   9.266
18041TIP3    H154000   4.371   3.237   9.203
18041TIP3    H254001   4.363   3.388   9.205
18042TIP3   OH254002   3.674   2.705   8.517
18042TIP3    H154003   3.595   2.760   8.496
18042TIP3    H254004   3.722   2.708   8.432
18043TIP3   OH254005   3.633   2.491   8.235
18043TIP3    H154006   3.699   2.543   8.285
18043TIP3    H254007   3.693   2.431   8.187
18044TIP3   OH254008   4.579   2.947   9.101
18044TIP3    H154009   4.496   3.000   9.112
18044TIP3    H254010   4.608   2.977   9.012
18045TIP3   OH254011   4.021   2.789   8.489
18045TIP3    H154012   3.968   2.815   8.568
18045TIP3    H254013   4.106   2.766   8.532
18046TIP3   OH254014   4.307   2.902   9.323
18046TIP3    H154015   4.318   2.921   9.418
18046TIP3    H254016   4.219   2.864   9.318
18047TIP3   OH254017   3.248   2.787   8.905
18047TIP3    H154018   3.211   2.731   8.833
18047TIP3    H254019   3.332   2.739   8.926
18048TIP3   OH254020   3.376   3.190   9.056
18048TIP3    H154021   3.370   3.157   8.965
18048TIP3    H254022   3.465   3.159   9.082
18049TIP3   OH254023   3.443   2.779   9.207
18049TIP3    H154024   3.479   2.749   9.121
18049TIP3    H254025   3.520   2.813   9.254
18050TIP3   OH254026   3.917   3.402   9.032
18050TIP3    H154027   3.895   3.481   9.083
18050TIP3    H254028   3.893   3.328   9.092
18051TIP3   OH254029   3.863   2.648   8.315
18051TIP3    H154030   3.922   2.708   8.368
18051TIP3    H254031   3.890   2.673   8.223
18052TIP3   OH254032   3.605   3.330   8.591
18052TIP3    H154033   3.685   3.383   8.609
18052TIP3    H254034   3.545   3.395   8.553
18053TIP3   OH254035   4.379   1.892   8.362
18053TIP3    H154036   4.298   1.914   8.412
18053TIP3    H254037   4.394   1.975   8.311
18054TIP3   OH254038   3.120   2.635   8.707
18054TIP3    H154039   3.051   2.678   8.651
18054TIP3    H254040   3.080   2.549   8.724
18055TIP3   OH254041   4.176   3.256   7.907
18055TIP3    H154042   4.186   3.353   7.898
18055TIP3    H254043   4.270   3.228   7.898
18056TIP3   OH254044   4.627   3.660   9.301
18056TIP3    H154045   4.624   3.565   9.320
18056TIP3    H254046   4.542   3.689   9.342
18057TIP3   OH254047   3.728   3.482   9.424
18057TIP3    H154048   3.694   3.569   9.452
18057TIP3    H254049   3.655   3.423   9.449
18058TIP3   OH254050   3.486   3.574   8.394
18058TIP3    H154051   3.442   3.559   8.309
18058TIP3    H254052   3.457   3.664   8.418
18059TIP3   OH254053   2.925   3.424   8.777
18059TIP3    H154054   2.976   3.416   8.860
18059TIP3    H254055   2.856   3.359   8.792
18060TIP3   OH254056   3.687   3.476   8.034
18060TIP3    H154057   3.749   3.407   8.000
18060TIP3    H254058   3.722   3.489   8.125
18061TIP3   OH254059   3.737   3.523   8.303
18061TIP3    H154060   3.650   3.533   8.347
18061TIP3    H254061   3.792   3.489   8.375
18062TIP3   OH254062   3.935   2.695   8.057
18062TIP3    H154063   3.909   2.669   7.967
18062TIP3    H254064   4.017   2.744   8.038
18063TIP3   OH254065   3.640   2.077   8.357
18063TIP3    H154066   3.620   2.071   8.453
18063TIP3    H254067   3.616   1.986   8.330
18064TIP3   OH254068   3.305   2.439   8.913
18064TIP3    H154069   3.219   2.400   8.940
18064TIP3    H254070   3.321   2.390   8.829
18065TIP3   OH254071   3.814   2.508   8.649
18065TIP3    H154072   3.760   2.581   8.610
18065TIP3    H254073   3.869   2.482   8.572
18066TIP3   OH254074   3.975   2.540   8.894
18066TIP3    H154075   3.914   2.574   8.825
18066TIP3    H254076   4.004   2.458   8.848
18067TIP3   OH254077   3.278   2.018   8.331
18067TIP3    H154078   3.314   2.057   8.415
18067TIP3    H254079   3.226   2.096   8.297
18068TIP3   OH254080   2.831   2.066   8.702
18068TIP3    H154081   2.872   2.113   8.627
18068TIP3    H254082   2.768   2.134   8.732
18069TIP3   OH254083   3.924   2.770   9.289
18069TIP3    H154084   3.994   2.711   9.256
18069TIP3    H254085   3.971   2.821   9.359
18070TIP3   OH254086   3.678   2.243   8.963
18070TIP3    H154087   3.586   2.241   9.000
18070TIP3    H254088   3.732   2.250   9.043
18071TIP3   OH254089   3.090   2.293   8.995
18071TIP3    H154090   2.997   2.304   8.964
18071TIP3    H254091   3.111   2.200   8.970
18072TIP3   OH254092   3.355   2.295   8.683
18072TIP3    H154093   3.450   2.312   8.667
18072TIP3    H254094   3.312   2.319   8.599
18073TIP3   OH254095   4.137   2.312   9.168
18073TIP3    H154096   4.111   2.303   9.262
18073TIP3    H254097   4.070   2.253   9.128
18074TIP3   OH254098   3.197   2.322   8.456
18074TIP3    H154099   3.121   2.288   8.408
18074TIP3    H254100   3.246   2.369   8.385
18075TIP3   OH254101   4.306   4.017   9.397
18075TIP3    H154102   4.316   4.033   9.301
18075TIP3    H254103   4.386   4.061   9.431
18076TIP3   OH254104   3.726   2.576   9.051
18076TIP3    H154105   3.808   2.535   9.019
18076TIP3    H254106   3.729   2.558   9.147
18077TIP3   OH254107   3.227   2.042   8.926
18077TIP3    H154108   3.238   1.962   8.981
18077TIP3    H254109   3.318   2.072   8.916
18078TIP3   OH254110   3.447   2.861   8.466
18078TIP3    H154111   3.373   2.799   8.455
18078TIP3    H254112   3.429   2.896   8.557
18079TIP3   OH254113   4.351   3.104   9.093
18079TIP3    H154114   4.373   3.151   9.010
18079TIP3    H254115   4.267   3.059   9.072
18080TIP3   OH254116   3.901   2.172   8.332
18080TIP3    H154117   3.804   2.164   8.334
18080TIP3    H254118   3.917   2.267   8.351
18081TIP3   OH254119   3.975   2.420   8.429
18081TIP3    H154120   4.071   2.428   8.446
18081TIP3    H254121   3.956   2.501   8.378
18082TIP3   OH254122   3.103   2.873   9.123
18082TIP3    H154123   3.157   2.852   9.043
18082TIP3    H254124   3.152   2.825   9.192
18083TIP3   OH254125   3.589   3.011   8.282
18083TIP3    H154126   3.543   3.097   8.291
18083TIP3    H254127   3.537   2.956   8.346
18084TIP3   OH254128   3.999   3.407   9.398
18084TIP3    H154129   3.911   3.445   9.381
18084TIP3    H254130   4.052   3.486   9.417
18085TIP3   OH254131   4.414   2.512   8.270
18085TIP3    H154132   4.352   2.467   8.208
18085TIP3    H254133   4.413   2.600   8.228
18086TIP3   OH254134   4.626   3.367   9.352
18086TIP3    H154135   4.529   3.365   9.336
18086TIP3    H254136   4.658   3.341   9.263
18087TIP3   OH254137   4.107   3.330   8.171
18087TIP3    H154138   4.095   3.262   8.239
18087TIP3    H254139   4.130   3.280   8.091
18088TIP3   OH254140   4.106   2.959   9.020
18088TIP3    H154141   4.011   2.934   9.020
18088TIP3    H254142   4.145   2.883   8.974
18089TIP3   OH254143   3.238   3.186   8.765
18089TIP3    H154144   3.244   3.269   8.714
18089TIP3    H254145   3.143   3.177   8.775
18090TIP3   OH254146   2.806   2.488   8.474
18090TIP3    H154147   2.850   2.574   8.491
18090TIP3    H254148   2.727   2.496   8.533
18091TIP3   OH254149   3.376   2.952   8.710
18091TIP3    H154150   3.342   3.042   8.728
18091TIP3    H254151   3.343   2.904   8.788
18092TIP3   OH254152   3.510   3.536   9.230
18092TIP3    H154153   3.543   3.613   9.179
18092TIP3    H254154   3.593   3.501   9.264
18093TIP3   OH254155   3.161   3.425   8.620
18093TIP3    H154156   3.074   3.435   8.665
18093TIP3    H254157   3.193   3.518   8.623
18094TIP3   OH254158   3.895   3.170   9.186
18094TIP3    H154159   3.905   3.185   9.282
18094TIP3    H254160   3.978   3.124   9.165
18095TIP3   OH254161   3.873   3.052   8.077
18095TIP3    H154162   3.926   3.030   8.157
18095TIP3    H254163   3.784   3.032   8.108
18096TIP3   OH254164   4.130   3.692   9.244
18096TIP3    H154165   4.045   3.657   9.209
18096TIP3    H254166   4.140   3.769   9.184
18097TIP3   OH254167   4.208   3.531   7.898
18097TIP3    H154168   4.250   3.600   7.845
18097TIP3    H254169   4.131   3.581   7.931
18098TIP3   OH254170   4.031   2.989   8.294
18098TIP3    H154171   4.022   2.924   8.367
18098TIP3    H254172   4.128   2.990   8.283
18099TIP3   OH254173   3.239   3.039   8.078
18099TIP3    H154174   3.251   2.947   8.049
18099TIP3    H254175   3.219   3.028   8.173
18100TIP3   OH254176   3.185   3.043   8.350
18100TIP3    H154177   3.255   3.020   8.412
18100TIP3    H254178   3.185   3.141   8.355
18101TIP3   OH254179   2.916   2.737   8.551
18101TIP3    H154180   2.851   2.783   8.609
18101TIP3    H254181   2.931   2.806   8.484
18102TIP3   OH254182   3.948   2.128   8.609
18102TIP3    H154183   3.933   2.150   8.515
18102TIP3    H254184   3.986   2.211   8.644
18103TIP3   OH254185   3.447   3.241   8.296
18103TIP3    H154186   3.361   3.268   8.334
18103TIP3    H254187   3.467   3.318   8.242
18104TIP3   OH254188   3.637   2.305   8.703
18104TIP3    H154189   3.700   2.378   8.684
18104TIP3    H254190   3.650   2.295   8.799
18105TIP3   OH254191   3.786   2.034   8.817
18105TIP3    H154192   3.765   2.115   8.868
18105TIP3    H254193   3.846   2.071   8.748
18106TIP3   OH254194   3.189   3.315   8.366
18106TIP3    H154195   3.161   3.384   8.302
18106TIP3    H254196   3.175   3.360   8.452
18107TIP3   OH254197   3.293   2.022   8.593
18107TIP3    H154198   3.280   2.105   8.645
18107TIP3    H254199   3.387   2.006   8.618
18108TIP3   OH254200   4.198   2.719   8.890
18108TIP3    H154201   4.124   2.657   8.899
18108TIP3    H254202   4.271   2.673   8.938
18109TIP3   OH254203   2.908   2.947   8.360
18109TIP3    H154204   2.969   3.023   8.369
18109TIP3    H254205   2.956   2.896   8.292
18110TIP3   OH254206   2.855   2.217   8.468
18110TIP3    H154207   2.854   2.315   8.477
18110TIP3    H254208   2.761   2.198   8.456
18111TIP3   OH254209   4.166   3.670   8.838
18111TIP3    H154210   4.124   3.718   8.763
18111TIP3    H254211   4.260   3.692   8.819
18112TIP3   OH254212   2.777   3.149   8.749
18112TIP3    H154213   2.708   3.192   8.800
18112TIP3    H254214   2.766   3.195   8.663
18113TIP3   OH254215   3.402   3.240   7.988
18113TIP3    H154216   3.338   3.177   8.029
18113TIP3    H254217   3.477   3.180   7.977
18114TIP3   OH254218   3.835   3.283   7.907
18114TIP3    H154219   3.884   3.225   7.969
18114TIP3    H254220   3.899   3.293   7.834
18115TIP3   OH254221   3.046   2.759   8.211
18115TIP3    H154222   3.102   2.731   8.285
18115TIP3    H254223   3.112   2.765   8.139
18116TIP3   OH254224   3.555   2.966   8.008
18116TIP3    H154225   3.557   2.978   8.105
18116TIP3    H254226   3.550   2.868   8.005
18117TIP3   OH254227   4.144   3.169   9.387
18117TIP3    H154228   4.234   3.190   9.357
18117TIP3    H254229   4.109   3.260   9.395
18118TIP3   OH254230   3.252   2.663   8.431
18118TIP3    H154231   3.229   2.626   8.518
18118TIP3    H254232   3.289   2.586   8.384
18119TIP3   OH254233   3.353   2.451   8.274
18119TIP3    H154234   3.328   2.461   8.180
18119TIP3    H254235   3.451   2.461   8.268
18120TIP3   OH254236   4.170   2.792   7.937
18120TIP3    H154237   4.156   2.744   7.854
18120TIP3    H254238   4.142   2.882   7.909
18121TIP3   OH254239   3.159   3.514   8.176
18121TIP3    H154240   3.255   3.515   8.159
18121TIP3    H254241   3.129   3.566   8.100
18122TIP3   OH254242   2.641   2.899   8.398
18122TIP3    H154243   2.735   2.922   8.382
18122TIP3    H254244   2.635   2.811   8.354
18123TIP3   OH254245   2.557   3.511   8.803
18123TIP3    H154246   2.490   3.449   8.769
18123TIP3    H254247   2.601   3.457   8.872
18124TIP3   OH254248   2.694   3.369   8.991
18124TIP3    H154249   2.669   3.307   9.060
18124TIP3    H254250   2.736   3.438   9.046
18125TIP3   OH254251   4.417   3.764   8.794
18125TIP3    H154252   4.444   3.800   8.881
18125TIP3    H254253   4.477   3.810   8.734
18126TIP3   OH254254   4.445   3.785   9.075
18126TIP3    H154255   4.411   3.694   9.072
18126TIP3    H254256   4.520   3.773   9.134
18127TIP3   OH254257   4.310   2.976   8.269
18127TIP3    H154258   4.378   3.040   8.240
18127TIP3    H254259   4.354   2.937   8.348
18128TIP3   OH254260   4.437   2.843   8.471
18128TIP3    H154261   4.373   2.802   8.533
18128TIP3    H254262   4.505   2.880   8.532
18129TIP3   OH254263   4.490   3.234   8.898
18129TIP3    H154264   4.546   3.172   8.849
18129TIP3    H254265   4.488   3.312   8.839
18130TIP3   OH254266   4.324   3.531   9.104
18130TIP3    H154267   4.253   3.578   9.151
18130TIP3    H254268   4.275   3.486   9.031
18131TIP3   OH254269   4.374   2.749   8.121
18131TIP3    H154270   4.302   2.754   8.054
18131TIP3    H254271   4.351   2.826   8.176
18132TIP3   OH254272   4.243   2.425   8.078
18132TIP3    H154273   4.211   2.462   7.996
18132TIP3    H254274   4.219   2.330   8.067
18133TIP3   OH254275   4.250   2.700   8.620
18133TIP3    H154276   4.263   2.604   8.615
18133TIP3    H254277   4.239   2.715   8.717
18134TIP3   OH254278   4.539   3.114   9.456
18134TIP3    H154279   4.591   3.056   9.398
18134TIP3    H254280   4.550   3.201   9.414
18135TIP3   OH254281   4.722   2.899   9.436
18135TIP3    H154282   4.663   2.869   9.505
18135TIP3    H254283   4.809   2.874   9.471
18136TIP3   OH254284   4.190   2.159   8.063
18136TIP3    H154285   4.268   2.128   8.113
18136TIP3    H254286   4.121   2.095   8.086
18137TIP3   OH254287   4.247   2.416   8.516
18137TIP3    H154288   4.290   2.328   8.529
18137TIP3    H254289   4.305   2.451   8.446
18138TIP3   OH254290   4.409   2.584   9.010
18138TIP3    H154291   4.494   2.610   8.966
18138TIP3    H254292   4.426   2.626   9.097
18139TIP3   OH254293   4.488   2.727   9.236
18139TIP3    H154294   4.415   2.777   9.279
18139TIP3    H254295   4.527   2.803   9.186
18140TIP3   OH254296   4.358   2.167   8.551
18140TIP3    H154297   4.418   2.150   8.625
18140TIP3    H254298   4.299   2.088   8.552
18141TIP3   OH254299   4.438   2.100   8.184
18141TIP3    H154300   4.480   2.028   8.132
18141TIP3    H254301   4.505   2.171   8.180
18142TIP3   OH254302   2.867   1.974   8.962
18142TIP3    H154303   2.800   1.905   8.972
18142TIP3    H254304   2.859   1.999   8.868
18143TIP3   OH254305   4.001   3.629   8.452
18143TIP3    H154306   4.054   3.618   8.370
18143TIP3    H254307   4.051   3.698   8.498
18144TIP3   OH254308   3.261   3.452   9.340
18144TIP3    H154309   3.228   3.541   9.319
18144TIP3    H254310   3.354   3.461   9.318
18145TIP3   OH254311   3.893   3.846   9.397
18145TIP3    H154312   3.963   3.808   9.342
18145TIP3    H254313   3.939   3.924   9.434
18146TIP3   OH254314   3.190   3.706   9.263
18146TIP3    H154315   3.116   3.743   9.313
18146TIP3    H254316   3.173   3.739   9.173
18147TIP3   OH254317   3.626   3.732   9.057
18147TIP3    H154318   3.552   3.749   8.996
18147TIP3    H254319   3.634   3.820   9.099
18148TIP3   OH254320   3.889   3.670   9.116
18148TIP3    H154321   3.795   3.690   9.095
18148TIP3    H254322   3.934   3.744   9.071
18149TIP3   OH254323   4.093   3.861   9.032
18149TIP3    H154324   4.080   3.948   8.987
18149TIP3    H254325   4.123   3.805   8.958
18150TIP3   OH254326   2.873   3.526   9.141
18150TIP3    H154327   2.871   3.499   9.233
18150TIP3    H254328   2.947   3.473   9.105
18151TIP3   OH254329   3.067   3.384   9.009
18151TIP3    H154330   3.089   3.307   9.065
18151TIP3    H254331   3.154   3.429   9.003
18152TIP3   OH254332   3.326   3.486   9.011
18152TIP3    H154333   3.362   3.397   9.001
18152TIP3    H254334   3.361   3.509   9.099
18153TIP3   OH254335   3.914   2.145   9.104
18153TIP3    H154336   3.884   2.072   9.158
18153TIP3    H254337   3.981   2.102   9.046
18154TIP3   OH254338   2.914   1.722   8.742
18154TIP3    H154339   2.990   1.783   8.743
18154TIP3    H254340   2.885   1.728   8.835
18155TIP3   OH254341   3.595   1.881   8.987
18155TIP3    H154342   3.658   1.943   8.949
18155TIP3    H254343   3.590   1.907   9.080
18156TIP3   OH254344   4.131   2.023   8.985
18156TIP3    H154345   4.147   2.001   8.892
18156TIP3    H254346   4.120   1.936   9.027
18157TIP3   OH254347   4.175   1.952   8.547
18157TIP3    H154348   4.088   1.995   8.554
18157TIP3    H254349   4.157   1.866   8.589
18158TIP3   OH254350   2.656   3.291   8.549
18158TIP3    H154351   2.572   3.260   8.511
18158TIP3    H254352   2.649   3.386   8.529
18159TIP3   OH254353   3.571   2.051   8.625
18159TIP3    H154354   3.625   2.004   8.690
18159TIP3    H254355   3.593   2.144   8.651
18160TIP3   OH254356   3.429   3.479   8.128
18160TIP3    H154357   3.517   3.503   8.092
18160TIP3    H254358   3.407   3.405   8.067
18161TIP3   OH254359   4.145   3.596   8.219
18161TIP3    H154360   4.135   3.499   8.204
18161TIP3    H254361   4.103   3.632   8.138
18162TIP3   OH254362   2.731   3.311   8.184
18162TIP3    H154363   2.734   3.349   8.273
18162TIP3    H254364   2.821   3.274   8.174
18163TIP3   OH254365   4.381   3.743   9.384
18163TIP3    H154366   4.292   3.713   9.358
18163TIP3    H254367   4.361   3.831   9.420
18164TIP3   OH254368   5.640   3.113   8.174
18164TIP3    H154369   5.613   3.205   8.155
18164TIP3    H254370   5.563   3.065   8.140
18165TIP3   OH254371   5.639   3.114   8.553
18165TIP3    H154372   5.670   3.084   8.640
18165TIP3    H254373   5.599   3.034   8.517
18166TIP3   OH254374   4.939   3.011   8.921
18166TIP3    H154375   4.972   2.944   8.983
18166TIP3    H254376   5.017   3.068   8.911
18167TIP3   OH254377   5.883   3.415   8.235
18167TIP3    H154378   5.869   3.347   8.303
18167TIP3    H254379   5.910   3.491   8.288
18168TIP3   OH254380   4.909   3.416   8.645
18168TIP3    H154381   4.902   3.319   8.648
18168TIP3    H254382   5.006   3.427   8.638
18169TIP3   OH254383   4.616   2.620   8.431
18169TIP3    H154384   4.571   2.705   8.445
18169TIP3    H254385   4.544   2.568   8.390
18170TIP3   OH254386   4.675   2.908   8.598
18170TIP3    H154387   4.726   2.832   8.636
18170TIP3    H254388   4.739   2.944   8.535
18171TIP3   OH254389   5.527   3.875   8.249
18171TIP3    H154390   5.577   3.804   8.203
18171TIP3    H254391   5.525   3.843   8.340
18172TIP3   OH254392   5.439   3.338   8.604
18172TIP3    H154393   5.478   3.263   8.556
18172TIP3    H254394   5.522   3.384   8.627
18173TIP3   OH254395   6.450   2.659   8.600
18173TIP3    H154396   6.480   2.742   8.641
18173TIP3    H254397   6.477   2.673   8.507
18174TIP3   OH254398   5.848   2.840   8.637
18174TIP3    H154399   5.894   2.756   8.655
18174TIP3    H254400   5.820   2.826   8.545
18175TIP3   OH254401   5.186   2.500   8.602
18175TIP3    H154402   5.169   2.572   8.539
18175TIP3    H254403   5.140   2.426   8.556
18176TIP3   OH254404   5.881   2.592   8.223
18176TIP3    H154405   5.953   2.576   8.289
18176TIP3    H254406   5.934   2.626   8.148
18177TIP3   OH254407   4.821   2.702   8.708
18177TIP3    H154408   4.905   2.684   8.754
18177TIP3    H254409   4.835   2.647   8.627
18178TIP3   OH254410   5.263   2.900   8.501
18178TIP3    H154411   5.358   2.875   8.512
18178TIP3    H254412   5.225   2.816   8.467
18179TIP3   OH254413   6.525   2.866   8.771
18179TIP3    H154414   6.442   2.914   8.750
18179TIP3    H254415   6.539   2.894   8.863
18180TIP3   OH254416   5.184   2.483   9.034
18180TIP3    H154417   5.127   2.520   8.964
18180TIP3    H254418   5.131   2.504   9.113
18181TIP3   OH254419   5.533   3.335   8.043
18181TIP3    H154420   5.490   3.316   7.959
18181TIP3    H254421   5.490   3.420   8.068
18182TIP3   OH254422   5.292   3.258   8.831
18182TIP3    H154423   5.229   3.325   8.868
18182TIP3    H254424   5.334   3.309   8.759
18183TIP3   OH254425   6.090   2.595   8.394
18183TIP3    H154426   6.094   2.538   8.471
18183TIP3    H254427   6.148   2.669   8.420
18184TIP3   OH254428   5.054   2.598   8.820
18184TIP3    H154429   5.116   2.671   8.842
18184TIP3    H254430   5.102   2.558   8.744
18185TIP3   OH254431   5.120   3.452   8.926
18185TIP3    H154432   5.095   3.539   8.888
18185TIP3    H254433   5.041   3.438   8.983
18186TIP3   OH254434   4.513   3.143   8.165
18186TIP3    H154435   4.477   3.172   8.079
18186TIP3    H254436   4.545   3.228   8.203
18187TIP3   OH254437   5.955   3.658   8.403
18187TIP3    H154438   5.865   3.650   8.443
18187TIP3    H254439   5.947   3.744   8.358
18188TIP3   OH254440   6.244   2.561   8.768
18188TIP3    H154441   6.157   2.588   8.735
18188TIP3    H254442   6.304   2.591   8.696
18189TIP3   OH254443   5.542   2.203   8.746
18189TIP3    H154444   5.530   2.108   8.763
18189TIP3    H254445   5.464   2.240   8.793
18190TIP3   OH254446   5.658   3.703   8.079
18190TIP3    H154447   5.708   3.622   8.056
18190TIP3    H254448   5.718   3.770   8.038
18191TIP3   OH254449   5.800   3.488   7.982
18191TIP3    H154450   5.758   3.410   7.945
18191TIP3    H254451   5.835   3.454   8.068
18192TIP3   OH254452   6.180   3.571   8.748
18192TIP3    H154453   6.169   3.495   8.688
18192TIP3    H254454   6.162   3.647   8.688
18193TIP3   OH254455   5.471   2.965   8.004
18193TIP3    H154456   5.391   3.018   7.981
18193TIP3    H254457   5.518   2.963   7.918
18194TIP3   OH254458   5.430   2.749   7.722
18194TIP3    H154459   5.497   2.800   7.770
18194TIP3    H254460   5.487   2.686   7.674
18195TIP3   OH254461   6.375   3.208   8.592
18195TIP3    H154462   6.292   3.261   8.597
18195TIP3    H254463   6.404   3.231   8.502
18196TIP3   OH254464   5.818   3.047   7.977
18196TIP3    H154465   5.764   3.072   8.055
18196TIP3    H254466   5.902   3.022   8.020
18197TIP3   OH254467   6.054   3.088   8.887
18197TIP3    H154468   6.051   3.173   8.935
18197TIP3    H254469   5.968   3.091   8.841
18198TIP3   OH254470   5.050   3.046   8.395
18198TIP3    H154471   5.010   2.989   8.326
18198TIP3    H254472   5.128   2.993   8.422
18199TIP3   OH254473   5.179   3.453   8.544
18199TIP3    H154474   5.161   3.415   8.456
18199TIP3    H254475   5.270   3.422   8.561
18200TIP3   OH254476   5.187   3.017   8.747
18200TIP3    H154477   5.221   2.996   8.657
18200TIP3    H254478   5.230   3.103   8.766
18201TIP3   OH254479   5.714   3.654   8.524
18201TIP3    H154480   5.698   3.736   8.575
18201TIP3    H254481   5.697   3.583   8.589
18202TIP3   OH254482   5.325   3.571   9.074
18202TIP3    H154483   5.265   3.635   9.119
18202TIP3    H254484   5.260   3.520   9.022
18203TIP3   OH254485   5.660   2.906   7.802
18203TIP3    H154486   5.718   2.965   7.854
18203TIP3    H254487   5.686   2.930   7.710
18204TIP3   OH254488   5.083   3.130   9.174
18204TIP3    H154489   5.086   3.218   9.219
18204TIP3    H254490   4.986   3.115   9.175
18205TIP3   OH254491   5.401   3.587   8.078
18205TIP3    H154492   5.480   3.641   8.096
18205TIP3    H254493   5.341   3.651   8.038
18206TIP3   OH254494   5.121   3.740   9.158
18206TIP3    H154495   5.082   3.742   9.068
18206TIP3    H254496   5.043   3.720   9.214
18207TIP3   OH254497   6.173   2.149   7.848
18207TIP3    H154498   6.093   2.168   7.901
18207TIP3    H254499   6.186   2.233   7.800
18208TIP3   OH254500   4.917   2.889   8.199
18208TIP3    H154501   4.853   2.934   8.140
18208TIP3    H254502   4.876   2.802   8.208
18209TIP3   OH254503   5.972   3.515   7.397
18209TIP3    H154504   5.979   3.613   7.385
18209TIP3    H254505   6.066   3.489   7.383
18210TIP3   OH254506   4.693   3.276   9.107
18210TIP3    H154507   4.632   3.254   9.034
18210TIP3    H254508   4.736   3.190   9.127
18211TIP3   OH254509   4.553   3.464   8.742
18211TIP3    H154510   4.649   3.461   8.728
18211TIP3    H254511   4.544   3.546   8.793
18212TIP3   OH254512   6.418   3.916   8.794
18212TIP3    H154513   6.415   3.820   8.806
18212TIP3    H254514   6.334   3.942   8.838
18213TIP3   OH254515   5.524   3.701   8.929
18213TIP3    H154516   5.524   3.794   8.960
18213TIP3    H254517   5.452   3.663   8.984
18214TIP3   OH254518   5.282   3.831   7.881
18214TIP3    H154519   5.239   3.816   7.795
18214TIP3    H254520   5.254   3.921   7.904
18215TIP3   OH254521   4.720   3.681   8.263
18215TIP3    H154522   4.772   3.673   8.347
18215TIP3    H254523   4.657   3.608   8.274
18216TIP3   OH254524   5.485   3.732   7.520
18216TIP3    H154525   5.544   3.663   7.484
18216TIP3    H254526   5.519   3.743   7.611
18217TIP3   OH254527   5.534   3.779   7.790
18217TIP3    H154528   5.446   3.790   7.833
18217TIP3    H254529   5.586   3.744   7.864
18218TIP3   OH254530   6.306   3.047   9.069
18218TIP3    H154531   6.227   3.061   9.013
18218TIP3    H254532   6.322   2.951   9.056
18219TIP3   OH254533   4.905   3.452   9.093
18219TIP3    H154534   4.952   3.442   9.178
18219TIP3    H254535   4.828   3.393   9.104
18220TIP3   OH254536   5.303   2.276   8.879
18220TIP3    H154537   5.214   2.247   8.852
18220TIP3    H254538   5.280   2.361   8.920
18221TIP3   OH254539   5.836   2.395   9.070
18221TIP3    H154540   5.907   2.366   9.131
18221TIP3    H254541   5.754   2.374   9.118
18222TIP3   OH254542   6.076   2.822   8.988
18222TIP3    H154543   6.027   2.820   9.073
18222TIP3    H254544   6.053   2.910   8.953
18223TIP3   OH254545   5.735   2.953   7.546
18223TIP3    H154546   5.702   2.927   7.458
18223TIP3    H254547   5.814   3.004   7.522
18224TIP3   OH254548   5.447   2.330   7.848
18224TIP3    H154549   5.416   2.327   7.940
18224TIP3    H254550   5.411   2.245   7.815
18225TIP3   OH254551   5.232   2.794   8.895
18225TIP3    H154552   5.183   2.818   8.976
18225TIP3    H254553   5.218   2.875   8.840
18226TIP3   OH254554   5.119   2.680   8.411
18226TIP3    H154555   5.026   2.654   8.427
18226TIP3    H254556   5.133   2.640   8.322
18227TIP3   OH254557   5.609   2.766   8.137
18227TIP3    H154558   5.556   2.837   8.095
18227TIP3    H254559   5.664   2.736   8.062
18228TIP3   OH254560   5.785   3.048   9.225
18228TIP3    H154561   5.763   2.972   9.284
18228TIP3    H254562   5.880   3.057   9.242
18229TIP3   OH254563   5.765   2.795   8.377
18229TIP3    H154564   5.707   2.825   8.305
18229TIP3    H254565   5.799   2.714   8.335
18230TIP3   OH254566   5.052   2.826   9.104
18230TIP3    H154567   5.083   2.890   9.170
18230TIP3    H254568   5.044   2.744   9.155
18231TIP3   OH254569   5.101   2.299   7.814
18231TIP3    H154570   5.097   2.298   7.911
18231TIP3    H254571   5.023   2.354   7.792
18232TIP3   OH254572   4.636   2.337   8.693
18232TIP3    H154573   4.713   2.370   8.743
18232TIP3    H254574   4.676   2.294   8.616
18233TIP3   OH254575   4.619   2.326   8.205
18233TIP3    H154576   4.665   2.364   8.127
18233TIP3    H254577   4.560   2.401   8.226
18234TIP3   OH254578   5.776   3.041   8.801
18234TIP3    H154579   5.809   2.969   8.742
18234TIP3    H254580   5.747   2.988   8.878
18235TIP3   OH254581   5.445   2.507   8.472
18235TIP3    H154582   5.364   2.501   8.526
18235TIP3    H254583   5.515   2.502   8.539
18236TIP3   OH254584   4.880   2.557   8.481
18236TIP3    H154585   4.785   2.563   8.453
18236TIP3    H254586   4.905   2.467   8.456
18237TIP3   OH254587   5.149   2.555   8.168
18237TIP3    H154588   5.244   2.569   8.149
18237TIP3    H254589   5.105   2.578   8.083
18238TIP3   OH254590   5.939   2.579   8.677
18238TIP3    H154591   5.899   2.591   8.766
18238TIP3    H254592   5.876   2.517   8.635
18239TIP3   OH254593   4.989   2.588   7.945
18239TIP3    H154594   4.918   2.544   7.894
18239TIP3    H254595   5.042   2.626   7.872
18240TIP3   OH254596   6.108   4.266   8.891
18240TIP3    H154597   6.104   4.291   8.797
18240TIP3    H254598   6.184   4.318   8.922
18241TIP3   OH254599   5.063   3.376   9.319
18241TIP3    H154600   5.145   3.408   9.362
18241TIP3    H254601   5.001   3.385   9.393
18242TIP3   OH254602   5.529   2.830   8.567
18242TIP3    H154603   5.602   2.793   8.514
18242TIP3    H254604   5.544   2.787   8.653
18243TIP3   OH254605   5.053   2.320   8.444
18243TIP3    H154606   5.023   2.239   8.490
18243TIP3    H254607   5.111   2.285   8.375
18244TIP3   OH254608   5.505   2.722   8.866
18244TIP3    H154609   5.417   2.764   8.873
18244TIP3    H254610   5.563   2.787   8.911
18245TIP3   OH254611   5.242   3.118   7.953
18245TIP3    H154612   5.168   3.054   7.942
18245TIP3    H254613   5.224   3.152   8.044
18246TIP3   OH254614   6.143   3.354   8.583
18246TIP3    H154615   6.167   3.404   8.502
18246TIP3    H254616   6.057   3.313   8.558
18247TIP3   OH254617   5.700   2.432   7.813
18247TIP3    H154618   5.603   2.416   7.822
18247TIP3    H254619   5.711   2.526   7.839
18248TIP3   OH254620   5.640   3.435   8.952
18248TIP3    H154621   5.661   3.419   9.045
18248TIP3    H254622   5.603   3.525   8.954
18249TIP3   OH254623   5.770   2.677   7.918
18249TIP3    H154624   5.867   2.683   7.935
18249TIP3    H254625   5.753   2.758   7.865
18250TIP3   OH254626   4.930   3.134   8.630
18250TIP3    H154627   4.970   3.111   8.544
18250TIP3    H254628   4.979   3.076   8.691
18251TIP3   OH254629   5.388   3.268   7.774
18251TIP3    H154630   5.340   3.354   7.779
18251TIP3    H254631   5.333   3.213   7.835
18252TIP3   OH254632   4.817   3.065   9.229
18252TIP3    H154633   4.838   3.055   9.323
18252TIP3    H254634   4.752   2.994   9.215
18253TIP3   OH254635   5.540   3.171   9.266
18253TIP3    H154636   5.481   3.118   9.211
18253TIP3    H254637   5.628   3.140   9.235
18254TIP3   OH254638   5.803   3.690   8.849
18254TIP3    H154639   5.706   3.694   8.858
18254TIP3    H254640   5.830   3.746   8.924
18255TIP3   OH254641   6.212   2.767   7.756
18255TIP3    H154642   6.150   2.722   7.694
18255TIP3    H254643   6.208   2.856   7.714
18256TIP3   OH254644   6.431   3.624   8.836
18256TIP3    H154645   6.333   3.620   8.827
18256TIP3    H254646   6.457   3.595   8.746
18257TIP3   OH254647   5.917   3.586   7.664
18257TIP3    H154648   5.885   3.519   7.725
18257TIP3    H254649   5.923   3.539   7.579
18258TIP3   OH254650   5.908   3.216   8.504
18258TIP3    H154651   5.814   3.191   8.515
18258TIP3    H254652   5.942   3.137   8.457
18259TIP3   OH254653   5.036   3.443   8.254
18259TIP3    H154654   5.039   3.525   8.201
18259TIP3    H254655   4.940   3.432   8.263
18260TIP3   OH254656   4.598   2.749   7.955
18260TIP3    H154657   4.646   2.832   7.976
18260TIP3    H254658   4.523   2.755   8.018
18261TIP3   OH254659   5.174   3.209   8.199
18261TIP3    H154660   5.140   3.299   8.215
18261TIP3    H254661   5.137   3.161   8.275
18262TIP3   OH254662   5.304   3.788   8.723
18262TIP3    H154663   5.342   3.862   8.672
18262TIP3    H254664   5.382   3.756   8.771
18263TIP3   OH254665   4.957   3.682   8.108
18263TIP3    H154666   4.870   3.693   8.152
18263TIP3    H254667   4.990   3.775   8.110
18264TIP3   OH254668   5.693   3.421   8.683
18264TIP3    H154669   5.685   3.419   8.781
18264TIP3    H254670   5.774   3.370   8.668
18265TIP3   OH254671   5.667   3.312   7.564
18265TIP3    H154672   5.719   3.287   7.644
18265TIP3    H254673   5.578   3.290   7.594
18266TIP3   OH254674   5.942   3.956   8.731
18266TIP3    H154675   5.861   3.902   8.721
18266TIP3    H254676   5.928   4.022   8.660
18267TIP3   OH254677   6.007   3.790   7.385
18267TIP3    H154678   6.040   3.862   7.329
18267TIP3    H254679   5.927   3.835   7.420
18268TIP3   OH254680   5.026   2.568   9.246
18268TIP3    H154681   4.931   2.583   9.263
18268TIP3    H254682   5.053   2.517   9.323
18269TIP3   OH254683   5.826   3.247   7.781
18269TIP3    H154684   5.817   3.181   7.853
18269TIP3    H254685   5.924   3.246   7.770
18270TIP3   OH254686   4.741   3.650   8.884
18270TIP3    H154687   4.799   3.579   8.917
18270TIP3    H254688   4.768   3.724   8.941
18271TIP3   OH254689   5.035   3.295   7.565
18271TIP3    H154690   5.048   3.203   7.535
18271TIP3    H254691   5.015   3.283   7.660
18272TIP3   OH254692   4.978   3.299   7.838
18272TIP3    H154693   5.053   3.276   7.896
18272TIP3    H254694   4.981   3.397   7.842
18273TIP3   OH254695   4.713   2.993   8.040
18273TIP3    H154696   4.649   3.040   8.097
18273TIP3    H254697   4.731   3.062   7.973
18274TIP3   OH254698   5.859   2.635   8.935
18274TIP3    H154699   5.944   2.669   8.967
18274TIP3    H254700   5.849   2.552   8.987
18275TIP3   OH254701   5.739   2.385   8.096
18275TIP3    H154702   5.730   2.407   8.002
18275TIP3    H254703   5.781   2.466   8.132
18276TIP3   OH254704   5.243   3.497   7.785
18276TIP3    H154705   5.157   3.526   7.821
18276TIP3    H254706   5.263   3.570   7.725
18277TIP3   OH254707   5.431   2.562   8.199
18277TIP3    H154708   5.497   2.632   8.180
18277TIP3    H254709   5.438   2.554   8.296
18278TIP3   OH254710   5.700   2.879   9.007
18278TIP3    H154711   5.723   2.932   9.087
18278TIP3    H254712   5.758   2.801   9.017
18279TIP3   OH254713   5.576   2.292   8.301
18279TIP3    H154714   5.574   2.367   8.362
18279TIP3    H254715   5.637   2.326   8.232
18280TIP3   OH254716   4.985   3.571   7.853
18280TIP3    H154717   4.958   3.641   7.789
18280TIP3    H254718   4.972   3.617   7.938
18281TIP3   OH254719   5.087   2.287   8.090
18281TIP3    H154720   5.088   2.377   8.127
18281TIP3    H254721   5.183   2.266   8.099
18282TIP3   OH254722   6.343   2.781   8.987
18282TIP3    H154723   6.245   2.778   8.993
18282TIP3    H254724   6.355   2.740   8.900
18283TIP3   OH254725   5.993   2.975   8.376
18283TIP3    H154726   5.918   2.914   8.387
18283TIP3    H254727   6.066   2.928   8.423
18284TIP3   OH254728   4.703   3.204   7.846
18284TIP3    H154729   4.766   3.278   7.855
18284TIP3    H254730   4.751   3.152   7.778
18285TIP3   OH254731   4.649   2.479   7.981
18285TIP3    H154732   4.652   2.576   7.975
18285TIP3    H254733   4.570   2.458   7.931
18286TIP3   OH254734   5.962   3.928   8.325
18286TIP3    H154735   5.919   3.975   8.251
18286TIP3    H254736   6.056   3.948   8.303
18287TIP3   OH254737   5.036   2.201   8.854
18287TIP3    H154738   5.008   2.169   8.766
18287TIP3    H254739   5.025   2.120   8.909
18288TIP3   OH254740   4.575   3.409   8.235
18288TIP3    H154741   4.504   3.449   8.288
18288TIP3    H254742   4.559   3.453   8.149
18289TIP3   OH254743   4.732   3.959   9.309
18289TIP3    H154744   4.820   3.961   9.353
18289TIP3    H254745   4.715   3.863   9.304
18290TIP3   OH254746   5.216   3.926   9.346
18290TIP3    H154747   5.310   3.910   9.355
18290TIP3    H254748   5.192   3.865   9.274
18291TIP3   OH254749   5.197   3.500   7.477
18291TIP3    H154750   5.141   3.428   7.515
18291TIP3    H254751   5.271   3.448   7.443
18292TIP3   OH254752   5.855   3.830   9.081
18292TIP3    H154753   5.848   3.761   9.151
18292TIP3    H254754   5.931   3.883   9.112
18293TIP3   OH254755   5.633   3.540   7.388
18293TIP3    H154756   5.680   3.477   7.445
18293TIP3    H254757   5.688   3.542   7.307
18294TIP3   OH254758   4.856   3.356   9.505
18294TIP3    H154759   4.883   3.262   9.495
18294TIP3    H254760   4.770   3.359   9.459
18295TIP3   OH254761   4.840   3.015   7.698
18295TIP3    H154762   4.897   2.985   7.770
18295TIP3    H254763   4.906   3.021   7.626
18296TIP3   OH254764   5.481   3.450   9.274
18296TIP3    H154765   5.431   3.468   9.191
18296TIP3    H254766   5.504   3.356   9.266
18297TIP3   OH254767   5.350   3.214   7.505
18297TIP3    H154768   5.353   3.227   7.601
18297TIP3    H254769   5.349   3.116   7.500
18298TIP3   OH254770   5.965   3.457   8.885
18298TIP3    H154771   6.039   3.502   8.840
18298TIP3    H254772   5.894   3.524   8.872
18299TIP3   OH254773   4.964   3.104   9.495
18299TIP3    H154774   5.025   3.030   9.481
18299TIP3    H254775   5.003   3.140   9.577
18300TIP3   OH254776   5.048   2.919   7.920
18300TIP3    H154777   5.025   2.877   8.004
18300TIP3    H254778   5.085   2.845   7.868
18301TIP3   OH254779   5.318   2.981   9.148
18301TIP3    H154780   5.242   3.044   9.153
18301TIP3    H254781   5.367   3.016   9.070
18302TIP3   OH254782   5.149   2.712   7.762
18302TIP3    H154783   5.124   2.716   7.667
18302TIP3    H254784   5.247   2.718   7.754
18303TIP3   OH254785   5.837   3.386   9.286
18303TIP3    H154786   5.912   3.364   9.229
18303TIP3    H254787   5.836   3.312   9.349
18304TIP3   OH254788   5.974   3.045   7.422
18304TIP3    H154789   5.951   2.998   7.339
18304TIP3    H254790   5.940   3.135   7.399
18305TIP3   OH254791   5.443   2.770   9.273
18305TIP3    H154792   5.444   2.691   9.214
18305TIP3    H254793   5.401   2.837   9.215
18306TIP3   OH254794   5.442   2.557   9.083
18306TIP3    H154795   5.472   2.601   9.000
18306TIP3    H254796   5.349   2.536   9.062
18307TIP3   OH254797   5.472   3.095   8.956
18307TIP3    H154798   5.555   3.103   8.907
18307TIP3    H254799   5.415   3.162   8.912
18308TIP3   OH254800   6.055   3.062   9.336
18308TIP3    H154801   6.104   2.978   9.344
18308TIP3    H254802   6.122   3.119   9.297
18309TIP3   OH254803   6.094   3.315   9.073
18309TIP3    H154804   6.036   3.368   9.013
18309TIP3    H254805   6.182   3.334   9.033
18310TIP3   OH254806   5.316   2.882   9.492
18310TIP3    H154807   5.244   2.817   9.500
18310TIP3    H254808   5.352   2.859   9.404
18311TIP3   OH254809   5.574   2.324   9.149
18311TIP3    H154810   5.527   2.406   9.123
18311TIP3    H254811   5.506   2.255   9.132
18312TIP3   OH254812   5.705   2.826   9.362
18312TIP3    H154813   5.709   2.815   9.458
18312TIP3    H254814   5.612   2.802   9.341
18313TIP3   OH254815   5.942   2.779   9.218
18313TIP3    H154816   5.867   2.778   9.281
18313TIP3    H254817   6.017   2.748   9.274
18314TIP3   OH254818   6.169   2.719   9.363
18314TIP3    H154819   6.182   2.622   9.378
18314TIP3    H254820   6.167   2.755   9.454
18315TIP3   OH254821   5.167   2.652   9.532
18315TIP3    H154822   5.176   2.555   9.524
18315TIP3    H254823   5.195   2.669   9.624
18316TIP3   OH254824   5.678   2.325   9.398
18316TIP3    H154825   5.747   2.259   9.376
18316TIP3    H254826   5.629   2.326   9.313
18317TIP3   OH254827   5.708   2.530   9.577
18317TIP3    H154828   5.700   2.474   9.497
18317TIP3    H254829   5.642   2.600   9.560
18318TIP3   OH254830   4.955   3.770   7.664
18318TIP3    H154831   5.051   3.771   7.647
18318TIP3    H254832   4.925   3.822   7.587
18319TIP3   OH254833   4.436   3.156   7.883
18319TIP3    H154834   4.530   3.181   7.869
18319TIP3    H254835   4.434   3.068   7.840
18320TIP3   OH254836   4.350   3.768   8.295
18320TIP3    H154837   4.284   3.706   8.259
18320TIP3    H254838   4.395   3.711   8.361
18321TIP3   OH254839   4.489   3.620   8.480
18321TIP3    H154840   4.478   3.548   8.544
18321TIP3    H254841   4.540   3.684   8.534
18322TIP3   OH254842   6.216   4.017   8.281
18322TIP3    H154843   6.239   4.055   8.368
18322TIP3    H254844   6.269   4.071   8.221
18323TIP3   OH254845   6.243   4.042   8.563
18323TIP3    H154846   6.201   3.953   8.558
18323TIP3    H254847   6.319   4.021   8.619
18324TIP3   OH254848   6.292   3.718   9.137
18324TIP3    H154849   6.217   3.727   9.199
18324TIP3    H254850   6.332   3.807   9.140
18325TIP3   OH254851   6.107   3.232   7.757
18325TIP3    H154852   6.176   3.296   7.732
18325TIP3    H254853   6.148   3.192   7.837
18326TIP3   OH254854   6.233   3.101   7.961
18326TIP3    H154855   6.168   3.057   8.020
18326TIP3    H254856   6.298   3.137   8.024
18327TIP3   OH254857   6.288   3.490   8.393
18327TIP3    H154858   6.341   3.426   8.342
18327TIP3    H254859   6.280   3.565   8.331
18328TIP3   OH254860   6.120   3.790   8.589
18328TIP3    H154861   6.049   3.835   8.638
18328TIP3    H254862   6.070   3.744   8.518
18329TIP3   OH254863   6.173   3.007   7.607
18329TIP3    H154864   6.101   3.009   7.539
18329TIP3    H254865   6.144   3.082   7.663
18330TIP3   OH254866   6.043   2.681   7.561
18330TIP3    H154867   6.000   2.717   7.483
18330TIP3    H254868   6.018   2.586   7.553
18331TIP3   OH254869   6.048   2.955   8.107
18331TIP3    H154870   6.057   2.858   8.101
18331TIP3    H254871   6.035   2.969   8.203
18332TIP3   OH254872   4.675   3.028   8.853
18332TIP3    H154873   4.674   3.000   8.759
18332TIP3    H254874   4.772   3.030   8.870
18333TIP3   OH254875   6.337   3.380   8.965
18333TIP3    H154876   6.410   3.315   8.955
18333TIP3    H254877   6.362   3.449   8.901
18334TIP3   OH254878   6.522   3.186   8.984
18334TIP3    H154879   6.448   3.135   9.022
18334TIP3    H254880   6.595   3.122   8.997
18335TIP3   OH254881   5.987   2.415   7.548
18335TIP3    H154882   6.065   2.385   7.599
18335TIP3    H254883   5.917   2.353   7.575
18336TIP3   OH254884   6.044   2.671   8.002
18336TIP3    H154885   6.084   2.582   8.018
18336TIP3    H254886   6.103   2.703   7.932
18337TIP3   OH254887   6.206   2.848   8.497
18337TIP3    H154888   6.293   2.873   8.456
18337TIP3    H254889   6.221   2.883   8.587
18338TIP3   OH254890   6.276   2.990   8.731
18338TIP3    H154891   6.196   3.024   8.776
18338TIP3    H254892   6.308   3.070   8.684
18339TIP3   OH254893   4.889   2.658   9.509
18339TIP3    H154894   4.983   2.687   9.507
18339TIP3    H254895   4.856   2.709   9.586
18340TIP3   OH254896   6.723   2.579   9.284
18340TIP3    H154897   6.785   2.515   9.242
18340TIP3    H254898   6.698   2.635   9.208
18341TIP3   OH254899   6.152   2.421   8.041
18341TIP3    H154900   6.203   2.404   8.123
18341TIP3    H254901   6.093   2.343   8.040
18342TIP3   OH254902   4.851   2.406   8.867
18342TIP3    H154903   4.916   2.333   8.870
18342TIP3    H254904   4.911   2.482   8.854
18343TIP3   OH254905   4.654   2.678   8.930
18343TIP3    H154906   4.704   2.677   8.846
18343TIP3    H254907   4.681   2.763   8.967
18344TIP3   OH254908   6.597   2.722   9.090
18344TIP3    H154909   6.509   2.760   9.106
18344TIP3    H254910   6.572   2.648   9.030
18345TIP3   OH254911   6.233   2.359   7.668
18345TIP3    H154912   6.278   2.283   7.625
18345TIP3    H254913   6.304   2.427   7.666
18346TIP3   OH254914   4.640   2.181   8.430
18346TIP3    H154915   4.546   2.186   8.455
18346TIP3    H254916   4.643   2.242   8.353
18347TIP3   OH254917   5.801   3.884   7.940
18347TIP3    H154918   5.851   3.874   7.856
18347TIP3    H254919   5.847   3.958   7.982
18348TIP3   OH254920   4.866   2.251   9.230
18348TIP3    H154921   4.819   2.232   9.312
18348TIP3    H254922   4.810   2.320   9.189
18349TIP3   OH254923   4.903   3.689   9.321
18349TIP3    H154924   4.809   3.667   9.308
18349TIP3    H254925   4.912   3.674   9.418
18350TIP3   OH254926   5.077   3.722   8.870
18350TIP3    H154927   5.029   3.798   8.832
18350TIP3    H254928   5.163   3.737   8.826
18351TIP3   OH254929   5.524   3.966   9.009
18351TIP3    H154930   5.564   3.972   9.098
18351TIP3    H254931   5.589   4.019   8.957
18352TIP3   OH254932   5.702   4.119   8.869
18352TIP3    H154933   5.774   4.071   8.825
18352TIP3    H254934   5.753   4.178   8.929
18353TIP3   OH254935   6.495   2.483   8.970
18353TIP3    H154936   6.405   2.477   8.933
18353TIP3    H254937   6.527   2.390   8.957
18354TIP3   OH254938   4.753   3.977   8.898
18354TIP3    H154939   4.665   4.013   8.873
18354TIP3    H254940   4.767   4.022   8.982
18355TIP3   OH254941   4.990   3.957   8.753
18355TIP3    H154942   4.903   3.972   8.797
18355TIP3    H254943   4.972   3.994   8.664
18356TIP3   OH254944   5.416   3.988   8.551
18356TIP3    H154945   5.349   4.009   8.484
18356TIP3    H254946   5.429   4.077   8.592
18357TIP3   OH254947   5.685   3.928   8.602
18357TIP3    H154948   5.590   3.946   8.583
18357TIP3    H254949   5.727   4.004   8.560
18358TIP3   OH254950   5.894   4.121   8.518
18358TIP3    H154951   5.878   4.206   8.472
18358TIP3    H254952   5.918   4.062   8.443
18359TIP3   OH254953   4.664   3.773   8.639
18359TIP3    H154954   4.691   3.751   8.731
18359TIP3    H254955   4.738   3.732   8.589
18360TIP3   OH254956   4.858   3.646   8.496
18360TIP3    H154957   4.876   3.563   8.545
18360TIP3    H254958   4.948   3.685   8.491
18361TIP3   OH254959   5.122   3.741   8.500
18361TIP3    H154960   5.157   3.651   8.488
18361TIP3    H254961   5.166   3.765   8.584
18362TIP3   OH254962   5.700   2.398   8.585
18362TIP3    H154963   5.658   2.326   8.636
18362TIP3    H254964   5.773   2.351   8.540
18363TIP3   OH254965   6.224   2.285   8.499
18363TIP3    H154966   6.262   2.330   8.420
18363TIP3    H254967   6.129   2.295   8.483
18364TIP3   OH254968   6.319   2.380   8.259
18364TIP3    H154969   6.390   2.325   8.218
18364TIP3    H254970   6.355   2.470   8.242
18365TIP3   OH254971   4.949   2.108   8.608
18365TIP3    H154972   4.855   2.079   8.606
18365TIP3    H254973   4.996   2.022   8.603
18366TIP3   OH254974   4.734   1.974   8.251
18366TIP3    H154975   4.768   2.031   8.179
18366TIP3    H254976   4.708   2.041   8.318
18367TIP3   OH254977   5.388   2.151   8.488
18367TIP3    H154978   5.448   2.190   8.423
18367TIP3    H254979   5.426   2.182   8.571
18368TIP3   OH254980   5.938   2.283   8.468
18368TIP3    H154981   5.943   2.245   8.379
18368TIP3    H254982   5.925   2.202   8.523
18369TIP3   OH254983   5.970   2.206   8.031
18369TIP3    H154984   5.881   2.246   8.041
18369TIP3    H254985   5.957   2.122   8.080
18370TIP3   OH254986   4.451   3.547   8.036
18370TIP3    H154987   4.367   3.517   7.998
18370TIP3    H254988   4.445   3.642   8.016
18371TIP3   OH254989   4.853   2.134   8.016
18371TIP3    H154990   4.903   2.073   7.959
18371TIP3    H254991   4.926   2.190   8.052
18372TIP3   OH254992   5.365   2.311   8.114
18372TIP3    H154993   5.425   2.262   8.173
18372TIP3    H254994   5.388   2.403   8.139
18373TIP3   OH254995   5.225   3.736   7.615
18373TIP3    H154996   5.313   3.760   7.578
18373TIP3    H254997   5.204   3.662   7.555
18374TIP3   OH254998   5.945   3.855   7.706
18374TIP3    H154999   5.936   3.757   7.693
18374TIP3    H255000   5.898   3.888   7.627
18375TIP3   OH255001   5.176   2.379   9.508
18375TIP3    H155002   5.163   2.307   9.571
18375TIP3    H255003   5.271   2.372   9.492
18376TIP3   OH255004   4.527   3.565   7.672
18376TIP3    H155005   4.534   3.605   7.760
18376TIP3    H255006   4.617   3.528   7.658
18377TIP3   OH255007   6.225   2.452   9.379
18377TIP3    H155008   6.232   2.420   9.472
18377TIP3    H255009   6.317   2.444   9.347
18378TIP3   OH255010   6.171   3.998   8.895
18378TIP3    H155011   6.092   3.967   8.845
18378TIP3    H255012   6.152   4.094   8.896
18379TIP3   OH255013   7.439   3.371   7.662
18379TIP3    H155014   7.411   3.464   7.648
18379TIP3    H255015   7.362   3.325   7.627
18380TIP3   OH255016   7.431   3.369   8.042
18380TIP3    H155017   7.467   3.342   8.128
18380TIP3    H255018   7.394   3.286   8.009
18381TIP3   OH255019   6.735   3.268   8.407
18381TIP3    H155020   6.766   3.199   8.469
18381TIP3    H255021   6.816   3.320   8.396
18382TIP3   OH255022   7.676   3.673   7.723
18382TIP3    H155023   7.667   3.602   7.788
18382TIP3    H255024   7.708   3.747   7.777
18383TIP3   OH255025   6.706   3.675   8.130
18383TIP3    H155026   6.697   3.577   8.134
18383TIP3    H255027   6.803   3.684   8.132
18384TIP3   OH255028   6.414   2.882   7.917
18384TIP3    H155029   6.362   2.963   7.930
18384TIP3    H255030   6.345   2.823   7.881
18385TIP3   OH255031   6.474   3.165   8.087
18385TIP3    H155032   6.521   3.088   8.126
18385TIP3    H255033   6.532   3.187   8.014
18386TIP3   OH255034   7.326   4.134   7.737
18386TIP3    H155035   7.373   4.062   7.690
18386TIP3    H255036   7.322   4.100   7.827
18387TIP3   OH255037   7.235   3.595   8.087
18387TIP3    H155038   7.276   3.516   8.047
18387TIP3    H255039   7.318   3.642   8.112
18388TIP3   OH255040   8.245   2.919   8.085
18388TIP3    H155041   8.272   3.002   8.128
18388TIP3    H255042   8.264   2.939   7.991
18389TIP3   OH255043   7.652   3.099   8.123
18389TIP3    H155044   7.689   3.010   8.142
18389TIP3    H255045   7.615   3.084   8.034
18390TIP3   OH255046   7.679   2.849   7.709
18390TIP3    H155047   7.750   2.831   7.775
18390TIP3    H255048   7.732   2.884   7.636
18391TIP3   OH255049   6.619   2.961   8.197
18391TIP3    H155050   6.703   2.940   8.242
18391TIP3    H255051   6.630   2.904   8.117
18392TIP3   OH255052   7.060   3.158   7.989
18392TIP3    H155053   7.152   3.127   8.003
18392TIP3    H255054   7.017   3.076   7.954
18393TIP3   OH255055   8.321   3.123   8.260
18393TIP3    H155056   8.238   3.172   8.243
18393TIP3    H255057   8.348   3.162   8.346
18394TIP3   OH255058   6.981   2.744   8.521
18394TIP3    H155059   6.920   2.775   8.452
18394TIP3    H255060   6.928   2.762   8.602
18395TIP3   OH255061   7.319   3.590   7.539
18395TIP3    H155062   7.311   3.587   7.443
18395TIP3    H255063   7.284   3.679   7.559
18396TIP3   OH255064   7.088   3.516   8.318
18396TIP3    H155065   7.025   3.580   8.356
18396TIP3    H255066   7.131   3.568   8.247
18397TIP3   OH255067   7.891   2.849   7.879
18397TIP3    H155068   7.875   2.799   7.960
18397TIP3    H255069   7.942   2.926   7.911
18398TIP3   OH255070   6.858   2.850   8.293
18398TIP3    H155071   6.922   2.920   8.318
18398TIP3    H255072   6.902   2.812   8.215
18399TIP3   OH255073   6.915   3.709   8.413
18399TIP3    H155074   6.890   3.796   8.376
18399TIP3    H255075   6.836   3.693   8.470
18400TIP3   OH255076   6.315   3.399   7.649
18400TIP3    H155077   6.261   3.429   7.574
18400TIP3    H255078   6.341   3.485   7.690
18401TIP3   OH255079   7.749   3.914   7.891
18401TIP3    H155080   7.659   3.906   7.929
18401TIP3    H255081   7.742   4.001   7.845
18402TIP3   OH255082   8.040   2.814   8.254
18402TIP3    H155083   7.951   2.840   8.225
18402TIP3    H255084   8.096   2.848   8.181
18403TIP3   OH255085   7.352   2.464   8.255
18403TIP3    H155086   7.323   2.374   8.232
18403TIP3    H255087   7.266   2.503   8.282
18404TIP3   OH255088   7.451   3.961   7.564
18404TIP3    H155089   7.502   3.879   7.543
18404TIP3    H255090   7.512   4.027   7.524
18405TIP3   OH255091   7.590   3.744   7.471
18405TIP3    H155092   7.574   3.662   7.424
18405TIP3    H255093   7.628   3.712   7.556
18406TIP3   OH255094   7.975   3.829   8.234
18406TIP3    H155095   7.966   3.751   8.175
18406TIP3    H255096   7.959   3.903   8.172
18407TIP3   OH255097   7.265   3.231   7.485
18407TIP3    H155098   7.181   3.202   7.449
18407TIP3    H255099   7.325   3.220   7.408
18408TIP3   OH255100   7.228   3.011   7.212
18408TIP3    H155101   7.303   3.057   7.252
18408TIP3    H255102   7.276   2.940   7.164
18409TIP3   OH255103   8.171   3.462   8.077
18409TIP3    H155104   8.089   3.516   8.082
18409TIP3    H255105   8.203   3.488   7.987
18410TIP3   OH255106   7.615   3.304   7.463
18410TIP3    H155107   7.563   3.328   7.543
18410TIP3    H255108   7.699   3.277   7.506
18411TIP3   OH255109   7.850   3.344   8.373
18411TIP3    H155110   7.847   3.428   8.423
18411TIP3    H255111   7.763   3.347   8.328
18412TIP3   OH255112   6.857   3.307   7.876
18412TIP3    H155113   6.805   3.245   7.821
18412TIP3    H255114   6.927   3.248   7.912
18413TIP3   OH255115   6.981   3.716   8.028
18413TIP3    H155116   6.958   3.662   7.951
18413TIP3    H255117   7.071   3.684   8.049
18414TIP3   OH255118   6.982   3.274   8.234
18414TIP3    H155119   7.018   3.249   8.146
18414TIP3    H255120   7.028   3.359   8.253
18415TIP3   OH255121   7.507   3.911   8.010
18415TIP3    H155122   7.495   3.991   8.064
18415TIP3    H255123   7.494   3.838   8.074
18416TIP3   OH255124   7.121   3.830   8.558
18416TIP3    H155125   7.061   3.893   8.604
18416TIP3    H255126   7.055   3.777   8.509
18417TIP3   OH255127   7.453   3.166   7.291
18417TIP3    H155128   7.516   3.222   7.342
18417TIP3    H255129   7.480   3.188   7.198
18418TIP3   OH255130   6.876   3.387   8.660
18418TIP3    H155131   6.879   3.474   8.704
18418TIP3    H255132   6.781   3.368   8.666
18419TIP3   OH255133   7.197   3.843   7.560
18419TIP3    H155134   7.277   3.896   7.581
18419TIP3    H255135   7.136   3.910   7.526
18420TIP3   OH255136   6.916   3.999   8.644
18420TIP3    H155137   6.881   3.999   8.554
18420TIP3    H255138   6.836   3.977   8.698
18421TIP3   OH255139   7.971   2.403   7.337
18421TIP3    H155140   7.889   2.422   7.388
18421TIP3    H255141   7.983   2.488   7.289
18422TIP3   OH255142   6.710   3.166   7.689
18422TIP3    H155143   6.632   3.176   7.630
18422TIP3    H255144   6.714   3.069   7.700
18423TIP3   OH255145   7.770   3.771   6.885
18423TIP3    H155146   7.779   3.868   6.871
18423TIP3    H255147   7.863   3.742   6.872
18424TIP3   OH255148   6.495   3.529   8.592
18424TIP3    H155149   6.429   3.508   8.522
18424TIP3    H255150   6.531   3.442   8.615
18425TIP3   OH255151   6.348   3.721   8.226
18425TIP3    H155152   6.444   3.720   8.217
18425TIP3    H255153   6.334   3.803   8.277
18426TIP3   OH255154   8.213   4.172   8.279
18426TIP3    H155155   8.212   4.076   8.292
18426TIP3    H255156   8.129   4.197   8.325
18427TIP3   OH255157   7.320   3.959   8.415
18427TIP3    H155158   7.319   4.052   8.447
18427TIP3    H255159   7.248   3.920   8.469
18428TIP3   OH255160   7.079   4.087   7.368
18428TIP3    H155161   7.035   4.071   7.283
18428TIP3    H255162   7.048   4.177   7.392
18429TIP3   OH255163   6.518   3.937   7.749
18429TIP3    H155164   6.566   3.929   7.834
18429TIP3    H255165   6.451   3.868   7.759
18430TIP3   OH255166   7.282   3.989   7.006
18430TIP3    H155167   7.341   3.920   6.970
18430TIP3    H255168   7.316   3.999   7.098
18431TIP3   OH255169   7.331   4.037   7.277
18431TIP3    H155170   7.243   4.047   7.320
18431TIP3    H255171   7.384   4.001   7.350
18432TIP3   OH255172   8.105   3.301   8.548
18432TIP3    H155173   8.021   3.316   8.502
18432TIP3    H255174   8.116   3.204   8.539
18433TIP3   OH255175   6.700   3.711   8.580
18433TIP3    H155176   6.749   3.695   8.663
18433TIP3    H255177   6.626   3.648   8.588
18434TIP3   OH255178   7.099   2.533   8.366
18434TIP3    H155179   7.010   2.502   8.339
18434TIP3    H255180   7.074   2.618   8.408
18435TIP3   OH255181   7.630   2.656   8.560
18435TIP3    H155182   7.693   2.622   8.625
18435TIP3    H255183   7.543   2.632   8.599
18436TIP3   OH255184   7.877   3.082   8.480
18436TIP3    H155185   7.823   3.078   8.562
18436TIP3    H255186   7.850   3.167   8.440
18437TIP3   OH255187   7.532   3.211   7.035
18437TIP3    H155188   7.498   3.184   6.948
18437TIP3    H255189   7.613   3.258   7.009
18438TIP3   OH255190   7.246   2.587   7.333
18438TIP3    H155191   7.218   2.584   7.427
18438TIP3    H255192   7.206   2.503   7.302
18439TIP3   OH255193   7.028   3.049   8.381
18439TIP3    H155194   6.977   3.070   8.462
18439TIP3    H255195   7.013   3.131   8.328
18440TIP3   OH255196   6.902   2.960   7.885
18440TIP3    H155197   6.827   2.911   7.923
18440TIP3    H255198   6.943   2.890   7.831
18441TIP3   OH255199   7.413   3.034   7.628
18441TIP3    H155200   7.359   3.103   7.585
18441TIP3    H255201   7.461   2.995   7.552
18442TIP3   OH255202   7.580   3.303   8.712
18442TIP3    H155203   7.559   3.230   8.774
18442TIP3    H255204   7.675   3.317   8.731
18443TIP3   OH255205   7.567   3.054   7.863
18443TIP3    H155206   7.505   3.081   7.791
18443TIP3    H255207   7.598   2.970   7.824
18444TIP3   OH255208   6.848   3.081   8.591
18444TIP3    H155209   6.877   3.144   8.659
18444TIP3    H255210   6.839   2.998   8.643
18445TIP3   OH255211   6.901   2.558   7.300
18445TIP3    H155212   6.899   2.556   7.398
18445TIP3    H255213   6.819   2.607   7.281
18446TIP3   OH255214   6.443   2.604   8.172
18446TIP3    H155215   6.521   2.632   8.225
18446TIP3    H255216   6.483   2.565   8.093
18447TIP3   OH255217   6.416   2.582   7.690
18447TIP3    H155218   6.464   2.619   7.613
18447TIP3    H255219   6.357   2.657   7.710
18448TIP3   OH255220   7.574   3.298   8.285
18448TIP3    H155221   7.607   3.226   8.227
18448TIP3    H255222   7.543   3.246   8.362
18449TIP3   OH255223   6.677   2.814   7.974
18449TIP3    H155224   6.584   2.824   7.943
18449TIP3    H255225   6.699   2.725   7.943
18450TIP3   OH255226   6.943   2.808   7.639
18450TIP3    H155227   7.038   2.826   7.626
18450TIP3    H255228   6.900   2.843   7.559
18451TIP3   OH255229   7.732   2.833   8.161
18451TIP3    H155230   7.695   2.846   8.250
18451TIP3    H255231   7.667   2.768   8.126
18452TIP3   OH255232   6.768   2.864   7.425
18452TIP3    H155233   6.710   2.806   7.372
18452TIP3    H255234   6.828   2.899   7.356
18453TIP3   OH255235   7.903   4.524   8.378
18453TIP3    H155236   7.901   4.547   8.283
18453TIP3    H255237   7.982   4.573   8.408
18454TIP3   OH255238   6.861   3.634   8.801
18454TIP3    H155239   6.941   3.664   8.848
18454TIP3    H255240   6.796   3.634   8.874
18455TIP3   OH255241   7.328   3.089   8.060
18455TIP3    H155242   7.389   3.037   8.006
18455TIP3    H255243   7.329   3.039   8.143
18456TIP3   OH255244   7.301   2.984   8.351
18456TIP3    H155245   7.211   3.020   8.361
18456TIP3    H255246   7.358   3.048   8.398
18457TIP3   OH255247   7.940   3.611   8.070
18457TIP3    H155248   7.965   3.660   7.988
18457TIP3    H255249   7.855   3.570   8.044
18458TIP3   OH255250   7.494   2.693   7.293
18458TIP3    H155251   7.399   2.671   7.309
18458TIP3    H255252   7.503   2.784   7.326
18459TIP3   OH255253   7.437   3.693   8.437
18459TIP3    H155254   7.460   3.671   8.528
18459TIP3    H255255   7.399   3.782   8.445
18460TIP3   OH255256   7.566   2.935   7.405
18460TIP3    H155257   7.662   2.937   7.424
18460TIP3    H255258   7.552   3.015   7.351
18461TIP3   OH255259   6.732   3.397   8.115
18461TIP3    H155260   6.772   3.367   8.031
18461TIP3    H255261   6.769   3.334   8.178
18462TIP3   OH255262   7.188   3.525   7.251
18462TIP3    H155263   7.137   3.610   7.258
18462TIP3    H255264   7.163   3.481   7.332
18463TIP3   OH255265   6.610   3.318   8.730
18463TIP3    H155266   6.631   3.303   8.824
18463TIP3    H255267   6.542   3.251   8.713
18464TIP3   OH255268   7.336   3.430   8.750
18464TIP3    H155269   7.277   3.373   8.698
18464TIP3    H255270   7.424   3.397   8.721
18465TIP3   OH255271   7.598   3.953   8.333
18465TIP3    H155272   7.502   3.951   8.345
18465TIP3    H255273   7.626   4.005   8.411
18466TIP3   OH255274   8.008   3.024   7.241
18466TIP3    H155275   7.945   2.979   7.180
18466TIP3    H255276   8.005   3.113   7.201
18467TIP3   OH255277   8.226   3.881   8.323
18467TIP3    H155278   8.128   3.876   8.314
18467TIP3    H255279   8.252   3.851   8.233
18468TIP3   OH255280   7.703   3.844   7.148
18468TIP3    H155281   7.688   3.773   7.211
18468TIP3    H255282   7.721   3.798   7.064
18469TIP3   OH255283   7.704   3.473   7.988
18469TIP3    H155284   7.611   3.447   8.001
18469TIP3    H255285   7.739   3.393   7.944
18470TIP3   OH255286   6.821   3.697   7.726
18470TIP3    H155287   6.826   3.785   7.682
18470TIP3    H255288   6.734   3.702   7.766
18471TIP3   OH255289   6.393   3.006   7.443
18471TIP3    H155290   6.440   3.087   7.468
18471TIP3    H255291   6.316   3.008   7.504
18472TIP3   OH255292   6.931   3.459   7.655
18472TIP3    H155293   6.930   3.551   7.692
18472TIP3    H255294   6.939   3.409   7.740
18473TIP3   OH255295   7.100   4.045   8.211
18473TIP3    H155296   7.141   4.117   8.160
18473TIP3    H255297   7.177   4.010   8.259
18474TIP3   OH255298   6.753   3.939   7.595
18474TIP3    H155299   6.665   3.949   7.638
18474TIP3    H255300   6.785   4.032   7.596
18475TIP3   OH255301   7.489   3.679   8.168
18475TIP3    H155302   7.481   3.676   8.266
18475TIP3    H255303   7.569   3.626   8.155
18476TIP3   OH255304   7.464   3.568   7.053
18476TIP3    H155305   7.519   3.545   7.131
18476TIP3    H255306   7.376   3.544   7.084
18477TIP3   OH255307   7.737   4.214   8.220
18477TIP3    H155308   7.658   4.157   8.212
18477TIP3    H255309   7.722   4.278   8.147
18478TIP3   OH255310   7.802   4.047   6.871
18478TIP3    H155311   7.841   4.120   6.821
18478TIP3    H255312   7.722   4.092   6.904
18479TIP3   OH255313   6.822   2.825   8.739
18479TIP3    H155314   6.725   2.826   8.750
18479TIP3    H255315   6.849   2.761   8.807
18480TIP3   OH255316   7.622   3.508   7.274
18480TIP3    H155317   7.615   3.437   7.342
18480TIP3    H255318   7.719   3.504   7.257
18481TIP3   OH255319   6.541   3.907   8.369
18481TIP3    H155320   6.592   3.832   8.404
18481TIP3    H255321   6.567   3.978   8.429
18482TIP3   OH255322   6.832   3.552   7.043
18482TIP3    H155323   6.851   3.469   6.995
18482TIP3    H255324   6.807   3.518   7.130
18483TIP3   OH255325   6.513   3.259   7.520
18483TIP3    H155326   6.446   3.293   7.583
18483TIP3    H255327   6.511   3.331   7.454
18484TIP3   OH255328   7.657   2.893   8.422
18484TIP3    H155329   7.740   2.924   8.460
18484TIP3    H255330   7.641   2.810   8.471
18485TIP3   OH255331   7.549   2.639   7.576
18485TIP3    H155332   7.528   2.667   7.486
18485TIP3    H255333   7.582   2.722   7.617
18486TIP3   OH255334   7.032   3.744   7.273
18486TIP3    H155335   6.943   3.771   7.305
18486TIP3    H255336   7.054   3.821   7.219
18487TIP3   OH255337   7.223   2.826   7.665
18487TIP3    H155338   7.295   2.891   7.679
18487TIP3    H255339   7.202   2.798   7.757
18488TIP3   OH255340   7.498   3.139   8.493
18488TIP3    H155341   7.521   3.191   8.573
18488TIP3    H255342   7.551   3.059   8.503
18489TIP3   OH255343   7.396   2.541   7.792
18489TIP3    H155344   7.347   2.612   7.841
18489TIP3    H255345   7.440   2.591   7.721
18490TIP3   OH255346   6.777   3.824   7.339
18490TIP3    H155347   6.750   3.893   7.276
18490TIP3    H255348   6.764   3.869   7.425
18491TIP3   OH255349   6.883   2.543   7.575
18491TIP3    H155350   6.886   2.632   7.616
18491TIP3    H255351   6.975   2.515   7.594
18492TIP3   OH255352   8.142   3.029   8.479
18492TIP3    H155353   8.044   3.030   8.483
18492TIP3    H255354   8.156   3.007   8.386
18493TIP3   OH255355   7.790   3.232   7.863
18493TIP3    H155356   7.714   3.172   7.875
18493TIP3    H255357   7.861   3.184   7.911
18494TIP3   OH255358   6.517   3.474   7.347
18494TIP3    H155359   6.520   3.568   7.320
18494TIP3    H255360   6.562   3.430   7.271
18495TIP3   OH255361   6.446   2.734   7.463
18495TIP3    H155362   6.447   2.832   7.459
18495TIP3    H255363   6.358   2.713   7.428
18496TIP3   OH255364   7.757   4.186   7.812
18496TIP3    H155365   7.715   4.233   7.737
18496TIP3    H255366   7.851   4.206   7.792
18497TIP3   OH255367   6.832   2.459   8.347
18497TIP3    H155368   6.800   2.429   8.258
18497TIP3    H255369   6.822   2.378   8.400
18498TIP3   OH255370   6.370   3.667   7.719
18498TIP3    H155371   6.304   3.703   7.780
18498TIP3    H255372   6.345   3.713   7.636
18499TIP3   OH255373   6.529   4.214   8.792
18499TIP3    H155374   6.615   4.213   8.838
18499TIP3    H255375   6.508   4.119   8.789
18500TIP3   OH255376   7.013   4.180   8.837
18500TIP3    H155377   7.107   4.161   8.842
18500TIP3    H255378   6.986   4.123   8.762
18501TIP3   OH255379   6.996   3.759   6.962
18501TIP3    H155380   6.941   3.686   7.000
18501TIP3    H255381   7.070   3.708   6.924
18502TIP3   OH255382   7.649   4.087   8.570
18502TIP3    H155383   7.642   4.016   8.638
18502TIP3    H255384   7.728   4.137   8.599
18503TIP3   OH255385   7.429   3.796   6.874
18503TIP3    H155386   7.478   3.737   6.933
18503TIP3    H255387   7.485   3.798   6.794
18504TIP3   OH255388   6.660   3.621   8.992
18504TIP3    H155389   6.677   3.525   8.994
18504TIP3    H255390   6.572   3.624   8.947
18505TIP3   OH255391   6.669   3.292   7.204
18505TIP3    H155392   6.670   3.200   7.233
18505TIP3    H255393   6.726   3.286   7.124
18506TIP3   OH255394   7.268   3.706   8.765
18506TIP3    H155395   7.226   3.722   8.678
18506TIP3    H255396   7.299   3.613   8.757
18507TIP3   OH255397   7.139   3.468   6.986
18507TIP3    H155398   7.150   3.484   7.082
18507TIP3    H255399   7.146   3.370   6.983
18508TIP3   OH255400   7.761   3.714   8.372
18508TIP3    H155401   7.835   3.758   8.327
18508TIP3    H255402   7.690   3.780   8.358
18509TIP3   OH255403   6.778   3.355   8.974
18509TIP3    H155404   6.854   3.300   8.951
18509TIP3    H255405   6.804   3.388   9.062
18510TIP3   OH255406   7.114   3.240   8.637
18510TIP3    H155407   7.036   3.300   8.638
18510TIP3    H255408   7.163   3.273   8.558
18511TIP3   OH255409   6.944   2.972   7.245
18511TIP3    H155410   6.921   2.972   7.151
18511TIP3    H255411   7.041   2.977   7.241
18512TIP3   OH255412   7.631   3.643   8.770
18512TIP3    H155413   7.711   3.621   8.721
18512TIP3    H255414   7.630   3.574   8.839
18513TIP3   OH255415   7.767   3.301   6.910
18513TIP3    H155416   7.747   3.255   6.827
18513TIP3    H255417   7.736   3.391   6.886
18514TIP3   OH255418   7.239   3.028   8.762
18514TIP3    H155419   7.238   2.948   8.705
18514TIP3    H255420   7.195   3.094   8.703
18515TIP3   OH255421   7.240   2.816   8.570
18515TIP3    H155422   7.269   2.855   8.485
18515TIP3    H255423   7.147   2.792   8.550
18516TIP3   OH255424   7.268   3.352   8.444
18516TIP3    H155425   7.350   3.356   8.393
18516TIP3    H255426   7.212   3.419   8.398
18517TIP3   OH255427   7.850   3.322   8.819
18517TIP3    H155428   7.902   3.244   8.842
18517TIP3    H255429   7.921   3.383   8.792
18518TIP3   OH255430   7.891   3.570   8.559
18518TIP3    H155431   7.833   3.623   8.500
18518TIP3    H255432   7.979   3.590   8.519
18519TIP3   OH255433   7.117   3.140   8.992
18519TIP3    H155434   7.047   3.072   9.005
18519TIP3    H255435   7.150   3.117   8.903
18520TIP3   OH255436   7.372   2.581   8.636
18520TIP3    H155437   7.322   2.662   8.610
18520TIP3    H255438   7.304   2.511   8.620
18521TIP3   OH255439   7.499   3.083   8.851
18521TIP3    H155440   7.484   3.073   8.947
18521TIP3    H255441   7.410   3.058   8.818
18522TIP3   OH255442   7.737   3.032   8.707
18522TIP3    H155443   7.659   3.035   8.765
18522TIP3    H255444   7.807   3.003   8.767
18523TIP3   OH255445   7.987   2.969   8.860
18523TIP3    H155446   7.973   2.877   8.886
18523TIP3    H255447   7.967   3.021   8.942
18524TIP3   OH255448   6.954   2.922   9.044
18524TIP3    H155449   6.959   2.832   9.007
18524TIP3    H255450   6.990   2.908   9.134
18525TIP3   OH255451   7.466   2.591   8.891
18525TIP3    H155452   7.527   2.517   8.878
18525TIP3    H255453   7.421   2.590   8.804
18526TIP3   OH255454   7.535   2.803   9.053
18526TIP3    H155455   7.512   2.732   8.988
18526TIP3    H255456   7.457   2.862   9.046
18527TIP3   OH255457   6.751   4.024   7.147
18527TIP3    H155458   6.847   4.026   7.132
18527TIP3    H255459   6.722   4.079   7.073
18528TIP3   OH255460   6.235   3.416   7.362
18528TIP3    H155461   6.331   3.431   7.358
18528TIP3    H255462   6.227   3.326   7.323
18529TIP3   OH255463   6.151   4.024   7.779
18529TIP3    H155464   6.080   3.966   7.744
18529TIP3    H255465   6.192   3.967   7.847
18530TIP3   OH255466   6.288   3.875   7.966
18530TIP3    H155467   6.270   3.805   8.031
18530TIP3    H255468   6.335   3.939   8.022
18531TIP3   OH255469   8.007   4.282   7.768
18531TIP3    H155470   8.038   4.314   7.855
18531TIP3    H255471   8.074   4.317   7.708
18532TIP3   OH255472   8.040   4.299   8.051
18532TIP3    H155473   7.997   4.211   8.045
18532TIP3    H255474   8.117   4.276   8.106
18533TIP3   OH255475   8.086   3.976   8.622
18533TIP3    H155476   8.013   3.984   8.687
18533TIP3    H255477   8.127   4.064   8.627
18534TIP3   OH255478   7.900   3.490   7.242
18534TIP3    H155479   7.970   3.552   7.214
18534TIP3    H255480   7.943   3.449   7.321
18535TIP3   OH255481   8.027   3.354   7.443
18535TIP3    H155482   7.966   3.313   7.508
18535TIP3    H255483   8.099   3.390   7.499
18536TIP3   OH255484   8.084   3.745   7.878
18536TIP3    H155485   8.137   3.681   7.827
18536TIP3    H255486   8.078   3.821   7.817
18537TIP3   OH255487   7.916   4.048   8.074
18537TIP3    H155488   7.844   4.089   8.125
18537TIP3    H255489   7.867   4.000   8.005
18538TIP3   OH255490   7.969   3.263   7.094
18538TIP3    H155491   7.896   3.267   7.027
18538TIP3    H255492   7.943   3.339   7.150
18539TIP3   OH255493   7.839   2.936   7.048
18539TIP3    H155494   7.797   2.975   6.971
18539TIP3    H255495   7.813   2.841   7.038
18540TIP3   OH255496   7.842   3.211   7.594
18540TIP3    H155497   7.852   3.114   7.590
18540TIP3    H255498   7.830   3.226   7.691
18541TIP3   OH255499   6.471   3.284   8.340
18541TIP3    H155500   6.470   3.254   8.247
18541TIP3    H255501   6.568   3.287   8.357
18542TIP3   OH255502   8.133   3.636   8.449
18542TIP3    H155503   8.206   3.571   8.441
18542TIP3    H255504   8.161   3.706   8.387
18543TIP3   OH255505   8.320   3.445   8.471
18543TIP3    H155506   8.245   3.391   8.505
18543TIP3    H255507   8.393   3.381   8.486
18544TIP3   OH255508   7.784   2.669   7.033
18544TIP3    H155509   7.857   2.640   7.090
18544TIP3    H255510   7.709   2.612   7.060
18545TIP3   OH255511   7.839   2.926   7.488
18545TIP3    H155512   7.880   2.838   7.503
18545TIP3    H255513   7.899   2.960   7.419
18546TIP3   OH255514   8.003   3.102   7.984
18546TIP3    H155515   8.090   3.129   7.944
18546TIP3    H255516   8.016   3.139   8.073
18547TIP3   OH255517   8.072   3.245   8.218
18547TIP3    H155518   7.993   3.280   8.264
18547TIP3    H255519   8.104   3.325   8.170
18548TIP3   OH255520   6.688   2.974   9.018
18548TIP3    H155521   6.785   2.966   9.016
18548TIP3    H255522   6.664   2.887   9.057
18549TIP3   OH255523   7.950   2.677   7.525
18549TIP3    H155524   7.996   2.661   7.611
18549TIP3    H255525   7.888   2.601   7.525
18550TIP3   OH255526   6.648   2.666   8.353
18550TIP3    H155527   6.707   2.588   8.358
18550TIP3    H255528   6.713   2.737   8.337
18551TIP3   OH255529   6.452   2.940   8.420
18551TIP3    H155530   6.501   2.927   8.336
18551TIP3    H255531   6.484   3.026   8.448
18552TIP3   OH255532   8.386   2.962   8.606
18552TIP3    H155533   8.302   3.013   8.604
18552TIP3    H255534   8.369   2.900   8.533
18553TIP3   OH255535   8.031   2.614   7.159
18553TIP3    H155536   8.071   2.541   7.106
18553TIP3    H255537   8.099   2.684   7.152
18554TIP3   OH255538   6.434   2.446   7.922
18554TIP3    H155539   6.340   2.440   7.945
18554TIP3    H255540   6.433   2.501   7.841
18555TIP3   OH255541   7.594   4.143   7.425
18555TIP3    H155542   7.646   4.130   7.343
18555TIP3    H255543   7.647   4.210   7.472
18556TIP3   OH255544   6.657   2.525   8.738
18556TIP3    H155545   6.603   2.518   8.818
18556TIP3    H255546   6.591   2.559   8.674
18557TIP3   OH255547   6.696   3.947   8.811
18557TIP3    H155548   6.604   3.920   8.794
18557TIP3    H255549   6.704   3.931   8.906
18558TIP3   OH255550   6.874   3.979   8.359
18558TIP3    H155551   6.824   4.055   8.320
18558TIP3    H255552   6.960   3.995   8.314
18559TIP3   OH255553   7.320   4.225   8.497
18559TIP3    H155554   7.362   4.227   8.586
18559TIP3    H255555   7.385   4.276   8.444
18560TIP3   OH255556   7.498   4.376   8.355
18560TIP3    H155557   7.570   4.326   8.313
18560TIP3    H255558   7.550   4.434   8.416
18561TIP3   OH255559   8.283   2.732   8.462
18561TIP3    H155560   8.195   2.735   8.421
18561TIP3    H255561   8.313   2.641   8.438
18562TIP3   OH255562   6.551   4.237   8.383
18562TIP3    H155563   6.462   4.270   8.357
18562TIP3    H255564   6.558   4.275   8.471
18563TIP3   OH255565   6.786   4.215   8.239
18563TIP3    H155566   6.700   4.229   8.285
18563TIP3    H255567   6.767   4.250   8.150
18564TIP3   OH255568   7.213   4.246   8.037
18564TIP3    H155569   7.143   4.266   7.972
18564TIP3    H255570   7.225   4.333   8.080
18565TIP3   OH255571   7.481   4.185   8.089
18565TIP3    H155572   7.387   4.202   8.069
18565TIP3    H255573   7.524   4.261   8.047
18566TIP3   OH255574   7.690   4.377   8.005
18566TIP3    H155575   7.675   4.462   7.957
18566TIP3    H255576   7.715   4.317   7.932
18567TIP3   OH255577   6.463   4.032   8.125
18567TIP3    H155578   6.487   4.007   8.217
18567TIP3    H255579   6.535   3.987   8.076
18568TIP3   OH255580   6.656   3.901   7.981
18568TIP3    H155581   6.672   3.819   8.034
18568TIP3    H255582   6.746   3.940   7.980
18569TIP3   OH255583   6.920   3.996   7.987
18569TIP3    H155584   6.954   3.905   7.978
18569TIP3    H255585   6.963   4.022   8.070
18570TIP3   OH255586   7.527   2.656   8.093
18570TIP3    H155587   7.450   2.609   8.131
18570TIP3    H255588   7.550   2.597   8.019
18571TIP3   OH255589   8.029   2.537   7.982
18571TIP3    H155590   8.060   2.589   7.905
18571TIP3    H255591   7.932   2.546   7.974
18572TIP3   OH255592   8.117   2.633   7.742
18572TIP3    H155593   8.190   2.584   7.701
18572TIP3    H255594   8.148   2.726   7.729
18573TIP3   OH255595   6.733   2.366   8.113
18573TIP3    H155596   6.645   2.326   8.101
18573TIP3    H255597   6.792   2.291   8.092
18574TIP3   OH255598   6.514   2.236   7.730
18574TIP3    H155599   6.560   2.292   7.665
18574TIP3    H255600   6.502   2.297   7.805
18575TIP3   OH255601   7.201   2.379   7.984
18575TIP3    H155602   7.225   2.446   7.917
18575TIP3    H255603   7.156   2.439   8.045
18576TIP3   OH255604   7.760   2.536   7.946
18576TIP3    H155605   7.719   2.508   7.863
18576TIP3    H255606   7.731   2.464   8.007
18577TIP3   OH255607   7.766   2.464   7.516
18577TIP3    H155608   7.681   2.510   7.532
18577TIP3    H255609   7.750   2.380   7.564
18578TIP3   OH255610   6.252   3.801   7.516
18578TIP3    H155611   6.165   3.772   7.483
18578TIP3    H255612   6.242   3.897   7.501
18579TIP3   OH255613   6.650   2.398   7.499
18579TIP3    H155614   6.700   2.332   7.447
18579TIP3    H255615   6.723   2.451   7.537
18580TIP3   OH255616   7.167   2.561   7.595
18580TIP3    H155617   7.204   2.516   7.672
18580TIP3    H255618   7.175   2.654   7.625
18581TIP3   OH255619   7.023   3.993   7.103
18581TIP3    H155620   7.111   4.015   7.067
18581TIP3    H255621   7.001   3.918   7.043
18582TIP3   OH255622   7.739   4.110   7.193
18582TIP3    H155623   7.729   4.013   7.180
18582TIP3    H255624   7.695   4.144   7.112
18583TIP3   OH255625   6.953   2.646   8.985
18583TIP3    H155626   6.920   2.573   9.040
18583TIP3    H255627   7.048   2.646   9.009
18584TIP3   OH255628   7.204   2.642   9.104
18584TIP3    H155629   7.285   2.612   9.061
18584TIP3    H255630   7.190   2.571   9.170
18585TIP3   OH255631   6.324   3.827   7.157
18585TIP3    H155632   6.319   3.865   7.247
18585TIP3    H255633   6.415   3.791   7.153
18586TIP3   OH255634   8.033   2.695   8.892
18586TIP3    H155635   8.052   2.666   8.981
18586TIP3    H255636   8.120   2.697   8.848
18587TIP3   OH255637   7.966   4.255   8.383
18587TIP3    H155638   7.888   4.223   8.333
18587TIP3    H255639   7.947   4.351   8.384
18588TIP3   OH255640   9.233   3.623   7.146
18588TIP3    H155641   9.211   3.717   7.131
18588TIP3    H255642   9.150   3.582   7.117
18589TIP3   OH255643   9.249   3.616   7.514
18589TIP3    H155644   9.263   3.604   7.610
18589TIP3    H255645   9.184   3.547   7.496
18590TIP3   OH255646   8.530   3.526   7.905
18590TIP3    H155647   8.568   3.458   7.963
18590TIP3    H255648   8.608   3.579   7.883
18591TIP3   OH255649   9.478   3.926   7.209
18591TIP3    H155650   9.458   3.860   7.277
18591TIP3    H255651   9.500   4.004   7.263
18592TIP3   OH255652   8.212   3.130   7.403
18592TIP3    H155653   8.172   3.217   7.421
18592TIP3    H255654   8.135   3.083   7.365
18593TIP3   OH255655   8.268   3.420   7.564
18593TIP3    H155656   8.318   3.348   7.607
18593TIP3    H255657   8.341   3.481   7.540
18594TIP3   OH255658   9.125   4.394   7.225
18594TIP3    H155659   9.174   4.322   7.179
18594TIP3    H255660   9.111   4.355   7.313
18595TIP3   OH255661   9.046   3.834   7.602
18595TIP3    H155662   9.059   3.785   7.520
18595TIP3    H255663   9.129   3.884   7.608
18596TIP3   OH255664   9.449   3.364   7.608
18596TIP3    H155665   9.483   3.274   7.628
18596TIP3    H255666   9.414   3.348   7.519
18597TIP3   OH255667   8.779   3.013   7.575
18597TIP3    H155668   8.760   3.086   7.512
18597TIP3    H255669   8.730   2.941   7.531
18598TIP3   OH255670   9.459   3.102   7.200
18598TIP3    H155671   9.533   3.087   7.264
18598TIP3    H255672   9.511   3.123   7.121
18599TIP3   OH255673   8.412   3.214   7.683
18599TIP3    H155674   8.496   3.198   7.728
18599TIP3    H255675   8.426   3.162   7.601
18600TIP3   OH255676   8.857   3.409   7.473
18600TIP3    H155677   8.950   3.383   7.490
18600TIP3    H255678   8.817   3.326   7.442
18601TIP3   OH255679   8.780   3.000   8.006
18601TIP3    H155680   8.721   3.037   7.938
18601TIP3    H255681   8.726   3.015   8.086
18602TIP3   OH255682   9.130   3.849   7.014
18602TIP3    H155683   9.081   3.826   6.934
18602TIP3    H255684   9.087   3.934   7.038
18603TIP3   OH255685   8.882   3.769   7.808
18603TIP3    H155686   8.820   3.840   7.839
18603TIP3    H255687   8.923   3.812   7.729
18604TIP3   OH255688   9.680   3.098   7.353
18604TIP3    H155689   9.683   3.064   7.444
18604TIP3    H255690   9.742   3.172   7.363
18605TIP3   OH255691   8.648   3.112   7.793
18605TIP3    H155692   8.708   3.187   7.816
18605TIP3    H255693   8.698   3.073   7.718
18606TIP3   OH255694   8.714   3.965   7.909
18606TIP3    H155695   8.686   4.039   7.853
18606TIP3    H255696   8.633   3.954   7.963
18607TIP3   OH255697   8.107   3.655   7.138
18607TIP3    H155698   8.067   3.688   7.056
18607TIP3    H255699   8.139   3.738   7.180
18608TIP3   OH255700   9.548   4.170   7.374
18608TIP3    H155701   9.459   4.161   7.417
18608TIP3    H255702   9.537   4.257   7.330
18609TIP3   OH255703   9.125   2.719   7.698
18609TIP3    H155704   9.123   2.630   7.739
18609TIP3    H255705   9.056   2.764   7.752
18610TIP3   OH255706   9.256   4.221   7.058
18610TIP3    H155707   9.302   4.137   7.033
18610TIP3    H255708   9.314   4.285   7.011
18611TIP3   OH255709   9.394   4.004   6.957
18611TIP3    H155710   9.347   3.928   6.920
18611TIP3    H255711   9.429   3.968   7.041
18612TIP3   OH255712   9.758   4.086   7.721
18612TIP3    H155713   9.750   4.008   7.661
18612TIP3    H255714   9.746   4.161   7.659
18613TIP3   OH255715   9.059   3.478   6.978
18613TIP3    H155716   8.979   3.534   6.962
18613TIP3    H255717   9.105   3.486   6.892
18614TIP3   OH255718   9.062   3.214   6.762
18614TIP3    H155719   9.108   3.300   6.748
18614TIP3    H255720   9.067   3.179   6.670
18615TIP3   OH255721   9.945   3.699   7.541
18615TIP3    H155722   9.874   3.763   7.563
18615TIP3    H255723   9.990   3.746   7.468
18616TIP3   OH255724   9.410   3.557   6.949
18616TIP3    H155725   9.356   3.587   7.026
18616TIP3    H255726   9.495   3.536   6.993
18617TIP3   OH255727   9.610   3.590   7.825
18617TIP3    H155728   9.626   3.670   7.877
18617TIP3    H255729   9.514   3.596   7.810
18618TIP3   OH255730   8.658   3.552   7.336
18618TIP3    H155731   8.610   3.483   7.288
18618TIP3    H255732   8.723   3.503   7.389
18619TIP3   OH255733   8.776   3.533   7.720
18619TIP3    H155734   8.806   3.519   7.628
18619TIP3    H255735   8.819   3.619   7.742
18620TIP3   OH255736   9.309   4.169   7.497
18620TIP3    H155737   9.291   4.247   7.551
18620TIP3    H255738   9.294   4.094   7.559
18621TIP3   OH255739   8.919   4.088   8.046
18621TIP3    H155740   8.856   4.150   8.090
18621TIP3    H255741   8.855   4.033   7.996
18622TIP3   OH255742   9.255   3.411   6.776
18622TIP3    H155743   9.314   3.471   6.827
18622TIP3    H255744   9.280   3.437   6.684
18623TIP3   OH255745   8.674   3.640   8.149
18623TIP3    H155746   8.677   3.727   8.192
18623TIP3    H255747   8.578   3.623   8.151
18624TIP3   OH255748   9.001   4.095   7.041
18624TIP3    H155749   9.068   4.156   7.075
18624TIP3    H255750   8.928   4.153   7.017
18625TIP3   OH255751   8.712   4.257   8.131
18625TIP3    H155752   8.679   4.254   8.039
18625TIP3    H255753   8.632   4.234   8.183
18626TIP3   OH255754   9.779   2.682   6.854
18626TIP3    H155755   9.687   2.697   6.882
18626TIP3    H255756   9.787   2.740   6.776
18627TIP3   OH255757   8.515   3.384   7.152
18627TIP3    H155758   8.450   3.443   7.108
18627TIP3    H255759   8.456   3.319   7.192
18628TIP3   OH255760   9.565   4.029   6.370
18628TIP3    H155761   9.573   4.126   6.358
18628TIP3    H255762   9.658   4.001   6.358
18629TIP3   OH255763   8.290   3.786   8.078
18629TIP3    H155764   8.227   3.762   8.007
18629TIP3    H255765   8.329   3.699   8.103
18630TIP3   OH255766   8.140   3.976   7.716
18630TIP3    H155767   8.234   3.967   7.696
18630TIP3    H255768   8.139   4.058   7.768
18631TIP3   OH255769   9.991   4.457   7.738
18631TIP3    H155770  10.047   4.386   7.773
18631TIP3    H255771   9.914   4.452   7.797
18632TIP3   OH255772   9.117   4.216   7.902
18632TIP3    H155773   9.114   4.308   7.934
18632TIP3    H255774   9.044   4.176   7.955
18633TIP3   OH255775   8.878   4.350   6.849
18633TIP3    H155776   8.826   4.327   6.771
18633TIP3    H255777   8.841   4.436   6.876
18634TIP3   OH255778   8.310   4.193   7.237
18634TIP3    H155779   8.363   4.187   7.319
18634TIP3    H255780   8.260   4.110   7.243
18635TIP3   OH255781   9.078   4.247   6.493
18635TIP3    H155782   9.137   4.177   6.458
18635TIP3    H255783   9.110   4.255   6.586
18636TIP3   OH255784   9.128   4.293   6.763
18636TIP3    H155785   9.039   4.305   6.803
18636TIP3    H255786   9.174   4.247   6.835
18637TIP3   OH255787   8.492   3.972   8.069
18637TIP3    H155788   8.545   3.951   8.149
18637TIP3    H255789   8.420   3.905   8.075
18638TIP3   OH255790   8.894   2.801   7.837
18638TIP3    H155791   8.803   2.771   7.814
18638TIP3    H255792   8.872   2.884   7.884
18639TIP3   OH255793   9.331   3.470   6.525
18639TIP3    H155794   9.294   3.443   6.439
18639TIP3    H255795   9.412   3.515   6.497
18640TIP3   OH255796   8.826   3.309   7.867
18640TIP3    H155797   8.777   3.332   7.949
18640TIP3    H255798   8.811   3.390   7.813
18641TIP3   OH255799   8.711   3.188   7.379
18641TIP3    H155800   8.618   3.170   7.402
18641TIP3    H255801   8.719   3.142   7.294
18642TIP3   OH255802   9.168   3.252   7.067
18642TIP3    H155803   9.118   3.337   7.063
18642TIP3    H255804   9.259   3.284   7.061
18643TIP3   OH255805   9.361   3.310   7.355
18643TIP3    H155806   9.302   3.353   7.292
18643TIP3    H255807   9.385   3.227   7.309
18644TIP3   OH255808   8.650   3.338   8.079
18644TIP3    H155809   8.675   3.405   8.145
18644TIP3    H255810   8.640   3.258   8.133
18645TIP3   OH255811   8.703   2.825   6.787
18645TIP3    H155812   8.687   2.815   6.882
18645TIP3    H255813   8.621   2.871   6.760
18646TIP3   OH255814   8.239   2.858   7.660
18646TIP3    H155815   8.314   2.892   7.713
18646TIP3    H255816   8.279   2.829   7.577
18647TIP3   OH255817   8.214   2.840   7.178
18647TIP3    H155818   8.258   2.880   7.100
18647TIP3    H255819   8.153   2.913   7.201
18648TIP3   OH255820   9.338   3.552   7.770
18648TIP3    H155821   9.383   3.484   7.715
18648TIP3    H255822   9.324   3.502   7.853
18649TIP3   OH255823   9.035   2.984   7.453
18649TIP3    H155824   8.951   3.000   7.499
18649TIP3    H255825   9.099   3.017   7.518
18650TIP3   OH255826   8.472   3.073   7.453
18650TIP3    H155827   8.377   3.082   7.427
18650TIP3    H255828   8.491   2.980   7.431
18651TIP3   OH255829   8.755   3.063   7.130
18651TIP3    H155830   8.821   3.132   7.114
18651TIP3    H255831   8.689   3.082   7.058
18652TIP3   OH255832   9.500   3.094   7.620
18652TIP3    H155833   9.476   3.105   7.714
18652TIP3    H255834   9.429   3.033   7.592
18653TIP3   OH255835   8.584   3.096   6.924
18653TIP3    H155836   8.508   3.055   6.879
18653TIP3    H255837   8.632   3.134   6.847
18654TIP3   OH255838   9.698   4.778   7.862
18654TIP3    H155839   9.698   4.806   7.769
18654TIP3    H255840   9.768   4.833   7.900
18655TIP3   OH255841   8.654   3.892   8.284
18655TIP3    H155842   8.733   3.926   8.330
18655TIP3    H255843   8.591   3.887   8.359
18656TIP3   OH255844   9.121   3.337   7.542
18656TIP3    H155845   9.200   3.301   7.500
18656TIP3    H255846   9.129   3.304   7.634
18657TIP3   OH255847   8.644   2.831   7.421
18657TIP3    H155848   8.607   2.754   7.469
18657TIP3    H255849   8.697   2.790   7.352
18658TIP3   OH255850   9.097   3.241   7.832
18658TIP3    H155851   9.009   3.280   7.847
18658TIP3    H255852   9.157   3.297   7.884
18659TIP3   OH255853   8.836   3.631   6.934
18659TIP3    H155854   8.762   3.569   6.920
18659TIP3    H255855   8.812   3.672   7.021
18660TIP3   OH255856   9.731   3.871   7.555
18660TIP3    H155857   9.752   3.917   7.472
18660TIP3    H255858   9.646   3.827   7.533
18661TIP3   OH255859   9.249   3.955   7.922
18661TIP3    H155860   9.256   3.919   8.011
18661TIP3    H255861   9.193   4.034   7.934
18662TIP3   OH255862   9.351   3.165   6.877
18662TIP3    H155863   9.445   3.162   6.901
18662TIP3    H255864   9.351   3.238   6.811
18663TIP3   OH255865   8.496   3.589   7.597
18663TIP3    H155866   8.528   3.661   7.540
18663TIP3    H255867   8.574   3.574   7.653
18664TIP3   OH255868   8.978   3.780   6.749
18664TIP3    H155869   8.932   3.867   6.755
18664TIP3    H255870   8.923   3.727   6.810
18665TIP3   OH255871   8.405   3.576   8.217
18665TIP3    H155872   8.430   3.565   8.311
18665TIP3    H255873   8.338   3.507   8.204
18666TIP3   OH255874   9.134   3.696   8.225
18666TIP3    H155875   9.078   3.630   8.182
18666TIP3    H255876   9.220   3.652   8.228
18667TIP3   OH255877   9.396   4.218   7.814
18667TIP3    H155878   9.301   4.204   7.829
18667TIP3    H255879   9.421   4.265   7.897
18668TIP3   OH255880   9.798   3.273   6.741
18668TIP3    H155881   9.740   3.228   6.675
18668TIP3    H255882   9.822   3.349   6.684
18669TIP3   OH255883  10.010   4.140   7.796
18669TIP3    H155884   9.914   4.128   7.787
18669TIP3    H255885  10.040   4.103   7.711
18670TIP3   OH255886   9.505   4.101   6.637
18670TIP3    H155887   9.479   4.032   6.700
18670TIP3    H255888   9.517   4.052   6.554
18671TIP3   OH255889   9.501   3.729   7.475
18671TIP3    H155890   9.408   3.701   7.488
18671TIP3    H255891   9.537   3.649   7.432
18672TIP3   OH255892   8.191   3.262   6.931
18672TIP3    H155893   8.237   3.346   6.952
18672TIP3    H255894   8.114   3.267   6.992
18673TIP3   OH255895   8.761   3.741   7.172
18673TIP3    H155896   8.751   3.824   7.223
18673TIP3    H255897   8.723   3.679   7.238
18674TIP3   OH255898   8.895   4.301   7.701
18674TIP3    H155899   8.936   4.371   7.647
18674TIP3    H255900   8.973   4.263   7.745
18675TIP3   OH255901   8.534   4.208   7.056
18675TIP3    H155902   8.464   4.194   7.122
18675TIP3    H255903   8.565   4.297   7.078
18676TIP3   OH255904   9.297   3.938   7.654
18676TIP3    H155905   9.281   3.937   7.751
18676TIP3    H255906   9.370   3.876   7.646
18677TIP3   OH255907   9.259   3.829   6.537
18677TIP3    H155908   9.312   3.804   6.616
18677TIP3    H255909   9.171   3.801   6.565
18678TIP3   OH255910   9.535   4.469   7.706
18678TIP3    H155911   9.457   4.410   7.702
18678TIP3    H255912   9.516   4.532   7.633
18679TIP3   OH255913   9.599   4.305   6.358
18679TIP3    H155914   9.634   4.380   6.307
18679TIP3    H255915   9.518   4.347   6.393
18680TIP3   OH255916   8.611   3.079   8.218
18680TIP3    H155917   8.517   3.101   8.231
18680TIP3    H255918   8.618   3.000   8.273
18681TIP3   OH255919   9.417   3.762   6.754
18681TIP3    H155920   9.408   3.694   6.824
18681TIP3    H255921   9.514   3.760   6.741
18682TIP3   OH255922   8.333   4.164   7.860
18682TIP3    H155923   8.384   4.088   7.892
18682TIP3    H255924   8.368   4.234   7.917
18683TIP3   OH255925   8.625   3.809   6.537
18683TIP3    H155926   8.640   3.717   6.510
18683TIP3    H255927   8.609   3.798   6.633
18684TIP3   OH255928   8.573   3.812   6.809
18684TIP3    H155929   8.634   3.787   6.880
18684TIP3    H255930   8.575   3.910   6.816
18685TIP3   OH255931   8.307   3.508   7.014
18685TIP3    H155932   8.242   3.552   7.073
18685TIP3    H255933   8.321   3.579   6.949
18686TIP3   OH255934   9.412   3.140   7.871
18686TIP3    H155935   9.478   3.197   7.916
18686TIP3    H255936   9.413   3.063   7.930
18687TIP3   OH255937   8.838   4.011   6.757
18687TIP3    H155938   8.751   4.034   6.795
18687TIP3    H255939   8.851   4.086   6.697
18688TIP3   OH255940   9.297   3.399   7.994
18688TIP3    H155941   9.310   3.449   8.076
18688TIP3    H255942   9.370   3.336   7.999
18689TIP3   OH255943   9.185   2.826   7.280
18689TIP3    H155944   9.133   2.886   7.338
18689TIP3    H255945   9.261   2.883   7.262
18690TIP3   OH255946   8.580   4.084   6.820
18690TIP3    H155947   8.548   4.156   6.761
18690TIP3    H255948   8.563   4.125   6.909
18691TIP3   OH255949   8.675   2.797   7.064
18691TIP3    H155950   8.685   2.888   7.097
18691TIP3    H255951   8.761   2.759   7.084
18692TIP3   OH255952   9.587   3.486   7.347
18692TIP3    H155953   9.509   3.432   7.368
18692TIP3    H255954   9.659   3.437   7.393
18693TIP3   OH255955   8.297   3.718   6.819
18693TIP3    H155956   8.361   3.791   6.832
18693TIP3    H255957   8.345   3.666   6.752
18694TIP3   OH255958   8.245   2.993   6.952
18694TIP3    H155959   8.242   3.091   6.949
18694TIP3    H255960   8.160   2.970   6.912
18695TIP3   OH255961   9.554   4.444   7.299
18695TIP3    H155962   9.511   4.490   7.224
18695TIP3    H255963   9.648   4.463   7.277
18696TIP3   OH255964   8.632   2.713   7.824
18696TIP3    H155965   8.597   2.679   7.739
18696TIP3    H255966   8.619   2.636   7.883
18697TIP3   OH255967   8.162   3.926   7.211
18697TIP3    H155968   8.085   3.967   7.252
18697TIP3    H255969   8.157   3.965   7.121
18698TIP3   OH255970   8.324   4.471   8.280
18698TIP3    H155971   8.412   4.470   8.325
18698TIP3    H255972   8.305   4.376   8.276
18699TIP3   OH255973   8.806   4.435   8.325
18699TIP3    H155974   8.902   4.421   8.327
18699TIP3    H255975   8.781   4.377   8.250
18700TIP3   OH255976   8.789   4.012   6.450
18700TIP3    H155977   8.731   3.943   6.490
18700TIP3    H255978   8.864   3.957   6.421
18701TIP3   OH255979   9.449   4.343   8.056
18701TIP3    H155980   9.435   4.273   8.123
18701TIP3    H255981   9.525   4.392   8.092
18702TIP3   OH255982   9.226   4.054   6.363
18702TIP3    H155983   9.267   3.988   6.422
18702TIP3    H255984   9.284   4.051   6.284
18703TIP3   OH255985   8.456   3.881   8.479
18703TIP3    H155986   8.476   3.786   8.485
18703TIP3    H255987   8.369   3.879   8.434
18704TIP3   OH255988   8.433   3.530   6.669
18704TIP3    H155989   8.487   3.499   6.744
18704TIP3    H255990   8.502   3.535   6.599
18705TIP3   OH255991   9.065   3.965   8.253
18705TIP3    H155992   9.023   3.981   8.166
18705TIP3    H255993   9.096   3.872   8.243
18706TIP3   OH255994   8.943   3.729   6.479
18706TIP3    H155995   8.944   3.743   6.576
18706TIP3    H255996   8.946   3.631   6.476
18707TIP3   OH255997   9.555   3.965   7.863
18707TIP3    H155998   9.620   4.015   7.811
18707TIP3    H255999   9.475   4.019   7.851
18708TIP3   OH256000   8.572   3.617   8.458
18708TIP3    H156001   8.628   3.539   8.454
18708TIP3    H256002   8.592   3.646   8.550
18709TIP3   OH256003   8.643   3.433   6.895
18709TIP3    H156004   8.608   3.397   6.978
18709TIP3    H256005   8.673   3.353   6.847
18710TIP3   OH256006   8.916   3.496   8.125
18710TIP3    H156007   8.838   3.555   8.128
18710TIP3    H256008   8.963   3.530   8.045
18711TIP3   OH256009   8.739   3.221   6.735
18711TIP3    H156010   8.709   3.225   6.642
18711TIP3    H256011   8.835   3.221   6.724
18712TIP3   OH256012   9.417   3.883   8.223
18712TIP3    H156013   9.509   3.892   8.196
18712TIP3    H256014   9.426   3.889   8.319
18713TIP3   OH256015   9.566   3.559   6.395
18713TIP3    H156016   9.541   3.510   6.314
18713TIP3    H256017   9.531   3.648   6.371
18714TIP3   OH256018   9.004   3.262   8.248
18714TIP3    H156019   9.032   3.202   8.177
18714TIP3    H256020   8.984   3.344   8.197
18715TIP3   OH256021   9.040   3.070   8.051
18715TIP3    H156022   9.070   3.112   7.968
18715TIP3    H256023   8.946   3.051   8.032
18716TIP3   OH256024   9.065   3.605   7.925
18716TIP3    H156025   9.146   3.613   7.872
18716TIP3    H256026   9.008   3.673   7.884
18717TIP3   OH256027   9.705   3.846   8.051
18717TIP3    H156028   9.635   3.887   7.994
18717TIP3    H256029   9.765   3.815   7.980
18718TIP3   OH256030   8.920   3.402   8.478
18718TIP3    H156031   8.830   3.368   8.488
18718TIP3    H256032   8.944   3.374   8.388
18719TIP3   OH256033   9.120   2.825   8.164
18719TIP3    H156034   9.111   2.906   8.111
18719TIP3    H256035   9.077   2.759   8.108
18720TIP3   OH256036   8.737   3.178   8.494
18720TIP3    H156037   8.794   3.127   8.436
18720TIP3    H256038   8.768   3.153   8.583
18721TIP3   OH256039   8.549   4.292   6.637
18721TIP3    H156040   8.644   4.285   6.619
18721TIP3    H256041   8.520   4.340   6.557
18722TIP3   OH256042   8.028   3.672   6.852
18722TIP3    H156043   8.123   3.693   6.841
18722TIP3    H256044   8.024   3.582   6.813
18723TIP3   OH256045   7.942   4.284   7.267
18723TIP3    H156046   7.876   4.221   7.233
18723TIP3    H256047   7.988   4.228   7.334
18724TIP3   OH256048   8.076   4.139   7.456
18724TIP3    H156049   8.070   4.060   7.511
18724TIP3    H256050   8.130   4.197   7.512
18725TIP3   OH256051   9.807   4.535   7.253
18725TIP3    H156052   9.834   4.564   7.342
18725TIP3    H256053   9.872   4.579   7.197
18726TIP3   OH256054   9.835   4.554   7.531
18726TIP3    H156055   9.789   4.467   7.525
18726TIP3    H256056   9.903   4.529   7.596
18727TIP3   OH256057   9.692   3.748   6.728
18727TIP3    H156058   9.761   3.814   6.704
18727TIP3    H256059   9.735   3.705   6.806
18728TIP3   OH256060   9.813   3.611   6.930
18728TIP3    H156061   9.745   3.567   6.987
18728TIP3    H256062   9.873   3.649   6.996
18729TIP3   OH256063   9.883   4.002   7.364
18729TIP3    H156064   9.925   3.945   7.298
18729TIP3    H256065   9.866   4.083   7.312
18730TIP3   OH256066   9.710   4.304   7.558
18730TIP3    H156067   9.641   4.346   7.612
18730TIP3    H256068   9.657   4.256   7.490
18731TIP3   OH256069   9.770   3.528   6.574
18731TIP3    H156070   9.694   3.523   6.512
18731TIP3    H256071   9.738   3.599   6.633
18732TIP3   OH256072   9.626   3.195   6.546
18732TIP3    H156073   9.606   3.234   6.461
18732TIP3    H256074   9.601   3.101   6.531
18733TIP3   OH256075   9.639   3.467   7.081
18733TIP3    H156076   9.646   3.370   7.074
18733TIP3    H256077   9.625   3.480   7.178
18734TIP3   OH256078   8.269   3.540   7.825
18734TIP3    H156079   8.271   3.517   7.730
18734TIP3    H256080   8.366   3.543   7.844
18735TIP3   OH256081   9.574   2.930   6.527
18735TIP3    H156082   9.652   2.890   6.571
18735TIP3    H256083   9.501   2.868   6.546
18736TIP3   OH256084   9.627   3.183   6.971
18736TIP3    H156085   9.674   3.098   6.988
18736TIP3    H256086   9.683   3.219   6.899
18737TIP3   OH256087   9.807   3.351   7.450
18737TIP3    H156088   9.897   3.374   7.417
18737TIP3    H256089   9.809   3.397   7.537
18738TIP3   OH256090   9.828   3.490   7.683
18738TIP3    H156091   9.745   3.525   7.724
18738TIP3    H256092   9.866   3.568   7.637
18739TIP3   OH256093   8.465   3.213   8.488
18739TIP3    H156094   8.563   3.224   8.491
18739TIP3    H256095   8.454   3.141   8.551
18740TIP3   OH256096   9.735   2.937   7.024
18740TIP3    H156097   9.773   2.924   7.112
18740TIP3    H256098   9.681   2.856   7.014
18741TIP3   OH256099   8.446   2.920   7.833
18741TIP3    H156100   8.511   2.847   7.842
18741TIP3    H256101   8.505   2.997   7.826
18742TIP3   OH256102   8.251   3.194   7.909
18742TIP3    H156103   8.299   3.189   7.824
18742TIP3    H256104   8.274   3.284   7.937
18743TIP3   OH256105   9.825   2.853   6.636
18743TIP3    H156106   9.872   2.770   6.614
18743TIP3    H256107   9.877   2.916   6.580
18744TIP3   OH256108   8.232   2.697   7.406
18744TIP3    H156109   8.139   2.695   7.434
18744TIP3    H256110   8.229   2.757   7.328
18745TIP3   OH256111   9.391   4.402   6.911
18745TIP3    H156112   9.443   4.386   6.829
18745TIP3    H256113   9.447   4.467   6.958
18746TIP3   OH256114   8.431   2.774   8.225
18746TIP3    H156115   8.380   2.776   8.307
18746TIP3    H256116   8.368   2.816   8.163
18747TIP3   OH256117   8.491   4.208   8.300
18747TIP3    H156118   8.402   4.176   8.279
18747TIP3    H256119   8.500   4.184   8.393
18748TIP3   OH256120   8.667   4.241   7.850
18748TIP3    H156121   8.621   4.316   7.806
18748TIP3    H256122   8.753   4.249   7.804
18749TIP3   OH256123   9.116   4.483   7.985
18749TIP3    H156124   9.158   4.485   8.073
18749TIP3    H256125   9.181   4.533   7.932
18750TIP3   OH256126   9.293   4.633   7.840
18750TIP3    H156127   9.364   4.581   7.800
18750TIP3    H256128   9.345   4.691   7.900
18751TIP3   OH256129   8.347   4.496   7.867
18751TIP3    H156130   8.257   4.530   7.844
18751TIP3    H256131   8.355   4.527   7.958
18752TIP3   OH256132   8.584   4.477   7.727
18752TIP3    H156133   8.497   4.488   7.771
18752TIP3    H256134   8.564   4.505   7.636
18753TIP3   OH256135   9.011   4.504   7.522
18753TIP3    H156136   8.938   4.520   7.460
18753TIP3    H256137   9.020   4.591   7.566
18754TIP3   OH256138   9.278   4.443   7.575
18754TIP3    H156139   9.183   4.457   7.556
18754TIP3    H256140   9.318   4.521   7.534
18755TIP3   OH256141   9.489   4.635   7.492
18755TIP3    H156142   9.472   4.719   7.443
18755TIP3    H256143   9.511   4.573   7.420
18756TIP3   OH256144   8.253   4.289   7.619
18756TIP3    H156145   8.284   4.264   7.708
18756TIP3    H256146   8.325   4.247   7.565
18757TIP3   OH256147   8.447   4.177   7.469
18757TIP3    H156148   8.481   4.083   7.471
18757TIP3    H256149   8.535   4.220   7.465
18758TIP3   OH256150   8.720   4.263   7.463
18758TIP3    H156151   8.723   4.167   7.443
18758TIP3    H256152   8.763   4.262   7.551
18759TIP3   OH256153   9.302   2.910   7.565
18759TIP3    H156154   9.245   2.846   7.611
18759TIP3    H256155   9.369   2.852   7.522
18760TIP3   OH256156   9.799   2.793   7.484
18760TIP3    H156157   9.848   2.848   7.420
18760TIP3    H256158   9.708   2.822   7.468
18761TIP3   OH256159   9.899   2.894   7.250
18761TIP3    H156160   9.962   2.851   7.188
18761TIP3    H256161   9.922   2.989   7.235
18762TIP3   OH256162   8.542   2.620   7.576
18762TIP3    H156163   8.449   2.588   7.577
18762TIP3    H256164   8.590   2.535   7.572
18763TIP3   OH256165   8.332   2.489   7.226
18763TIP3    H156166   8.357   2.547   7.153
18763TIP3    H256167   8.299   2.553   7.292
18764TIP3   OH256168   8.984   2.650   7.459
18764TIP3    H156169   9.030   2.712   7.401
18764TIP3    H256170   9.011   2.684   7.546
18765TIP3   OH256171   9.521   2.774   7.447
18765TIP3    H156172   9.533   2.774   7.351
18765TIP3    H256173   9.558   2.688   7.471
18766TIP3   OH256174   9.553   2.723   7.011
18766TIP3    H156175   9.459   2.740   7.002
18766TIP3    H256176   9.551   2.635   7.056
18767TIP3   OH256177   8.046   4.059   7.003
18767TIP3    H156178   7.960   4.028   6.969
18767TIP3    H256179   8.035   4.154   6.990
18768TIP3   OH256180   8.442   2.647   6.988
18768TIP3    H156181   8.491   2.585   6.932
18768TIP3    H256182   8.513   2.703   7.025
18769TIP3   OH256183   8.817   4.250   6.585
18769TIP3    H156184   8.906   4.271   6.550
18769TIP3    H256185   8.795   4.173   6.526
18770TIP3   OH256186   9.539   4.367   6.679
18770TIP3    H156187   9.530   4.269   6.668
18770TIP3    H256188   9.491   4.398   6.600
18771TIP3   OH256189   8.122   4.088   6.645
18771TIP3    H156190   8.121   4.110   6.739
18771TIP3    H256191   8.211   4.046   6.634
18772TIP3   OH256192   9.750   4.507   7.878
18772TIP3    H156193   9.674   4.482   7.822
18772TIP3    H256194   9.743   4.605   7.875
18773TIP3   OH256195   9.981   3.387   6.914
18773TIP3    H156196   9.921   3.464   6.910
18773TIP3    H256197   9.933   3.326   6.855
18774TIP3   OH256198  10.045   3.675   7.064
18774TIP3    H156199  10.118   3.619   7.093
18774TIP3    H256200  10.069   3.681   6.970
18775TIP3   OH256201   9.896   3.919   6.649
18775TIP3    H156202   9.880   3.923   6.554
18775TIP3    H256203   9.929   4.008   6.668
18776TIP3   OH256204  10.084   4.013   7.558
18776TIP3    H156205  10.010   4.002   7.495
18776TIP3    H256206  10.127   3.925   7.554
18777TIP3   OH256207   9.946   4.236   7.200
18777TIP3    H156208  10.042   4.242   7.192
18777TIP3    H256209   9.925   4.316   7.251
18778TIP3   OH256210  10.076   4.458   6.744
18778TIP3    H156211  10.135   4.451   6.822
18778TIP3    H256212  10.034   4.370   6.745
18779TIP3   OH256213  10.232   4.242   7.569
18779TIP3    H156214  10.255   4.230   7.662
18779TIP3    H256215  10.162   4.175   7.560
18780TIP3   OH256216  10.006   3.130   7.167
18780TIP3    H156217  10.093   3.169   7.185
18780TIP3    H256218   9.990   3.159   7.076
18781TIP3   OH256219   9.966   3.590   6.393
18781TIP3    H156220  10.039   3.582   6.458
18781TIP3    H256221   9.890   3.567   6.450
18782TIP3   OH256222  10.126   4.426   7.348
18782TIP3    H156223  10.167   4.349   7.391
18782TIP3    H256224  10.150   4.496   7.409
18783TIP3   OH256225   9.964   4.189   6.697
18783TIP3    H156226   9.884   4.214   6.746
18783TIP3    H256227   9.944   4.229   6.609
18784TIP3   OH256228  10.099   4.709   7.747
18784TIP3    H156229  10.173   4.691   7.805
18784TIP3    H256230  10.061   4.618   7.738
18785TIP3   OH256231   9.823   3.934   6.334
18785TIP3    H156232   9.920   3.923   6.344
18785TIP3    H256233   9.803   3.850   6.286
18786TIP3   OH256234   9.738   4.542   6.755
18786TIP3    H156235   9.672   4.478   6.721
18786TIP3    H256236   9.784   4.485   6.821
18787TIP3   OH256237   9.867   4.392   6.948
18787TIP3    H156238   9.859   4.317   7.008
18787TIP3    H256239   9.924   4.452   7.001
18788TIP3   OH256240  10.081   3.794   7.310
18788TIP3    H156241  10.062   3.768   7.217
18788TIP3    H256242  10.170   3.831   7.302
18789TIP3   OH256243  10.054   3.460   7.368
18789TIP3    H156244  10.050   3.485   7.275
18789TIP3    H256245  10.046   3.545   7.414
18790TIP3   OH256246   9.978   3.002   6.877
18790TIP3    H156247   9.882   2.988   6.872
18790TIP3    H256248   9.998   3.027   6.785
18791TIP3   OH256249  10.135   4.752   7.354
18791TIP3    H156250  10.049   4.793   7.334
18791TIP3    H256251  10.138   4.761   7.450
18792TIP3   OH256252  10.388   4.742   7.228
18792TIP3    H156253  10.296   4.743   7.260
18792TIP3    H256254  10.378   4.764   7.134
18793TIP3   OH256255  10.057   4.543   7.099
18793TIP3    H156256  10.084   4.521   7.190
18793TIP3    H256257  10.134   4.508   7.049
18794TIP3   OH256258  10.261   4.433   6.944
18794TIP3    H156259  10.284   4.339   6.954
18794TIP3    H256260  10.350   4.474   6.954
18795TIP3   OH256261   9.843   4.312   6.490
18795TIP3    H156262   9.757   4.281   6.456
18795TIP3    H256263   9.831   4.408   6.481
18796TIP3   OH256264   9.943   4.362   6.145
18796TIP3    H156265   9.907   4.378   6.234
18796TIP3    H256266   9.995   4.281   6.160
18797TIP3   OH256267   1.681   4.411   8.838
18797TIP3    H156268   1.658   4.505   8.820
18797TIP3    H256269   1.604   4.368   8.798
18798TIP3   OH256270   1.691   4.414   9.164
18798TIP3    H156271   1.663   4.393   9.255
18798TIP3    H256272   1.651   4.343   9.112
18799TIP3   OH256273   1.919   4.719   8.898
18799TIP3    H156274   1.921   4.647   8.962
18799TIP3    H256275   1.966   4.790   8.946
18800TIP3   OH256276   1.572   5.180   8.909
18800TIP3    H156277   1.622   5.107   8.867
18800TIP3    H256278   1.561   5.149   9.000
18801TIP3   OH256279   1.504   4.608   9.205
18801TIP3    H156280   1.579   4.560   9.164
18801TIP3    H256281   1.549   4.665   9.268
18802TIP3   OH256282   2.489   3.939   9.251
18802TIP3    H156283   2.498   4.014   9.311
18802TIP3    H256284   2.520   3.976   9.167
18803TIP3   OH256285   1.930   3.883   8.888
18803TIP3    H156286   2.003   3.874   8.954
18803TIP3    H256287   1.977   3.928   8.816
18804TIP3   OH256288   1.576   4.633   8.706
18804TIP3    H156289   1.535   4.618   8.621
18804TIP3    H256290   1.536   4.719   8.731
18805TIP3   OH256291   2.144   3.893   9.061
18805TIP3    H156292   2.142   3.878   9.158
18805TIP3    H256293   2.200   3.973   9.059
18806TIP3   OH256294   0.619   4.475   8.778
18806TIP3    H156295   0.534   4.493   8.736
18806TIP3    H256296   0.606   4.512   8.867
18807TIP3   OH256297   1.997   4.957   9.075
18807TIP3    H156298   1.905   4.951   9.108
18807TIP3    H256299   1.995   5.038   9.021
18808TIP3   OH256300   1.704   5.006   8.745
18808TIP3    H156301   1.752   4.924   8.721
18808TIP3    H256302   1.763   5.072   8.702
18809TIP3   OH256303   1.841   4.792   8.645
18809TIP3    H156304   1.806   4.711   8.605
18809TIP3    H256305   1.875   4.758   8.731
18810TIP3   OH256306   2.223   4.880   9.400
18810TIP3    H156307   2.213   4.808   9.333
18810TIP3    H256308   2.204   4.958   9.343
18811TIP3   OH256309   1.514   4.266   8.666
18811TIP3    H156310   1.434   4.319   8.646
18811TIP3    H256311   1.561   4.267   8.581
18812TIP3   OH256312   1.476   4.049   8.386
18812TIP3    H156313   1.543   4.102   8.434
18812TIP3    H256314   1.535   3.988   8.338
18813TIP3   OH256315   2.435   4.527   9.258
18813TIP3    H156316   2.345   4.564   9.253
18813TIP3    H256317   2.459   4.528   9.163
18814TIP3   OH256318   1.862   4.347   8.641
18814TIP3    H156319   1.809   4.373   8.719
18814TIP3    H256320   1.947   4.323   8.683
18815TIP3   OH256321   1.083   4.331   9.047
18815TIP3    H156322   1.044   4.277   8.974
18815TIP3    H256323   1.160   4.279   9.071
18816TIP3   OH256324   1.272   4.804   9.111
18816TIP3    H156325   1.227   4.728   9.071
18816TIP3    H256326   1.332   4.761   9.175
18817TIP3   OH256327   1.754   4.952   9.200
18817TIP3    H156328   1.734   5.042   9.231
18817TIP3    H256329   1.747   4.897   9.278
18818TIP3   OH256330   1.705   4.205   8.466
18818TIP3    H156331   1.763   4.266   8.518
18818TIP3    H256332   1.731   4.230   8.373
18819TIP3   OH256333   1.448   4.885   8.734
18819TIP3    H156334   1.525   4.940   8.759
18819TIP3    H256335   1.383   4.951   8.705
18820TIP3   OH256336   2.220   3.449   8.513
18820TIP3    H156337   2.140   3.473   8.563
18820TIP3    H256338   2.236   3.531   8.462
18821TIP3   OH256339   0.968   4.180   8.846
18821TIP3    H156340   0.900   4.223   8.789
18821TIP3    H256341   0.912   4.125   8.903
18822TIP3   OH256342   2.018   4.816   8.062
18822TIP3    H156343   2.026   4.913   8.048
18822TIP3    H256344   2.111   4.788   8.049
18823TIP3   OH256345   2.454   5.249   9.436
18823TIP3    H156346   2.460   5.151   9.428
18823TIP3    H256347   2.364   5.257   9.471
18824TIP3   OH256348   1.325   5.132   8.543
18824TIP3    H156349   1.283   5.115   8.457
18824TIP3    H256350   1.295   5.223   8.564
18825TIP3   OH256351   0.799   4.972   8.867
18825TIP3    H156352   0.819   4.962   8.962
18825TIP3    H256353   0.710   4.933   8.856
18826TIP3   OH256354   1.528   5.032   8.184
18826TIP3    H156355   1.588   4.964   8.146
18826TIP3    H256356   1.565   5.042   8.274
18827TIP3   OH256357   1.578   5.080   8.455
18827TIP3    H156358   1.491   5.088   8.500
18827TIP3    H256359   1.631   5.041   8.526
18828TIP3   OH256360   1.779   4.251   8.209
18828TIP3    H156361   1.747   4.228   8.120
18828TIP3    H256362   1.858   4.304   8.187
18829TIP3   OH256363   1.494   3.627   8.512
18829TIP3    H156364   1.460   3.625   8.603
18829TIP3    H256365   1.452   3.547   8.476
18830TIP3   OH256366   1.128   3.985   9.054
18830TIP3    H156367   1.070   3.910   9.072
18830TIP3    H256368   1.161   3.957   8.966
18831TIP3   OH256369   1.650   4.063   8.793
18831TIP3    H156370   1.599   4.139   8.755
18831TIP3    H256371   1.710   4.042   8.719
18832TIP3   OH256372   1.823   4.105   9.029
18832TIP3    H156373   1.756   4.133   8.965
18832TIP3    H256374   1.846   4.017   8.995
18833TIP3   OH256375   1.149   3.601   8.479
18833TIP3    H156376   1.138   3.600   8.576
18833TIP3    H256377   1.071   3.654   8.452
18834TIP3   OH256378   0.690   3.641   8.879
18834TIP3    H156379   0.717   3.674   8.791
18834TIP3    H256380   0.622   3.704   8.901
18835TIP3   OH256381   1.203   3.853   8.821
18835TIP3    H156382   1.291   3.879   8.788
18835TIP3    H256383   1.144   3.875   8.745
18836TIP3   OH256384   1.037   3.884   8.610
18836TIP3    H156385   0.963   3.843   8.562
18836TIP3    H256386   1.087   3.924   8.536
18837TIP3   OH256387   2.131   5.632   9.522
18837TIP3    H156388   2.138   5.621   9.425
18837TIP3    H256389   2.224   5.655   9.544
18838TIP3   OH256390   1.287   4.420   8.619
18838TIP3    H156391   1.214   4.355   8.607
18838TIP3    H256392   1.270   4.452   8.711
18839TIP3   OH256393   2.184   4.655   9.240
18839TIP3    H156394   2.224   4.701   9.161
18839TIP3    H256395   2.105   4.613   9.200
18840TIP3   OH256396   1.748   3.730   8.481
18840TIP3    H156397   1.650   3.717   8.484
18840TIP3    H256398   1.759   3.826   8.500
18841TIP3   OH256399   1.816   3.978   8.580
18841TIP3    H156400   1.912   3.987   8.597
18841TIP3    H256401   1.797   4.059   8.528
18842TIP3   OH256402   1.432   4.568   8.437
18842TIP3    H156403   1.385   4.655   8.442
18842TIP3    H256404   1.377   4.514   8.499
18843TIP3   OH256405   2.256   4.069   8.419
18843TIP3    H156406   2.194   4.025   8.356
18843TIP3    H256407   2.253   4.159   8.379
18844TIP3   OH256408   2.477   4.979   9.448
18844TIP3    H156409   2.386   4.942   9.447
18844TIP3    H256410   2.516   4.922   9.377
18845TIP3   OH256411   1.951   4.889   8.325
18845TIP3    H156412   1.935   4.817   8.387
18845TIP3    H256413   1.969   4.842   8.241
18846TIP3   OH256414   1.949   4.516   9.171
18846TIP3    H156415   1.855   4.487   9.163
18846TIP3    H256416   1.992   4.439   9.127
18847TIP3   OH256417   1.071   4.731   8.894
18847TIP3    H156418   1.098   4.818   8.860
18847TIP3    H256419   0.978   4.746   8.911
18848TIP3   OH256420   0.643   4.055   8.625
18848TIP3    H156421   0.712   4.124   8.629
18848TIP3    H256422   0.578   4.097   8.685
18849TIP3   OH256423   1.223   4.504   8.869
18849TIP3    H156424   1.185   4.593   8.876
18849TIP3    H256425   1.174   4.457   8.940
18850TIP3   OH256426   1.040   4.990   8.754
18850TIP3    H156427   0.948   4.992   8.791
18850TIP3    H256428   1.062   5.085   8.761
18851TIP3   OH256429   1.711   4.611   8.229
18851TIP3    H156430   1.765   4.589   8.308
18851TIP3    H256431   1.622   4.590   8.261
18852TIP3   OH256432   1.986   5.250   9.385
18852TIP3    H156433   1.892   5.225   9.381
18852TIP3    H256434   1.986   5.329   9.328
18853TIP3   OH256435   2.051   5.090   8.051
18853TIP3    H156436   2.086   5.158   7.990
18853TIP3    H256437   1.971   5.138   8.080
18854TIP3   OH256438   1.871   4.548   8.446
18854TIP3    H156439   1.864   4.482   8.517
18854TIP3    H256440   1.968   4.548   8.432
18855TIP3   OH256441   1.077   4.597   8.227
18855TIP3    H156442   1.093   4.505   8.198
18855TIP3    H256443   1.060   4.584   8.323
18856TIP3   OH256444   1.026   4.601   8.502
18856TIP3    H156445   1.097   4.576   8.562
18856TIP3    H256446   1.029   4.699   8.506
18857TIP3   OH256447   0.781   4.285   8.678
18857TIP3    H156448   0.718   4.337   8.732
18857TIP3    H256449   0.799   4.353   8.611
18858TIP3   OH256450   1.795   3.680   8.754
18858TIP3    H156451   1.776   3.707   8.662
18858TIP3    H256452   1.831   3.763   8.792
18859TIP3   OH256453   1.288   4.797   8.447
18859TIP3    H156454   1.202   4.826   8.483
18859TIP3    H256455   1.308   4.871   8.388
18860TIP3   OH256456   1.494   3.855   8.866
18860TIP3    H156457   1.555   3.923   8.828
18860TIP3    H256458   1.474   3.898   8.950
18861TIP3   OH256459   1.638   3.579   8.954
18861TIP3    H156460   1.638   3.649   9.020
18861TIP3    H256461   1.691   3.622   8.882
18862TIP3   OH256462   1.029   4.872   8.510
18862TIP3    H156463   1.000   4.945   8.450
18862TIP3    H256464   1.029   4.918   8.597
18863TIP3   OH256465   1.137   3.583   8.756
18863TIP3    H156466   1.129   3.674   8.792
18863TIP3    H256467   1.233   3.570   8.766
18864TIP3   OH256468   2.036   4.283   9.043
18864TIP3    H156469   1.960   4.221   9.055
18864TIP3    H256470   2.109   4.233   9.086
18865TIP3   OH256471   0.760   4.514   8.498
18865TIP3    H156472   0.835   4.575   8.513
18865TIP3    H256473   0.801   4.456   8.431
18866TIP3   OH256474   0.692   3.784   8.644
18866TIP3    H156475   0.690   3.882   8.643
18866TIP3    H256476   0.624   3.761   8.580
18867TIP3   OH256477   2.005   5.232   8.991
18867TIP3    H156478   1.962   5.279   8.916
18867TIP3    H256479   2.099   5.254   8.970
18868TIP3   OH256480   0.642   4.704   8.941
18868TIP3    H156481   0.580   4.756   8.886
18868TIP3    H256482   0.708   4.682   8.874
18869TIP3   OH256483   1.241   4.801   8.140
18869TIP3    H156484   1.186   4.729   8.179
18869TIP3    H256485   1.317   4.750   8.108
18870TIP3   OH256486   1.676   4.841   8.051
18870TIP3    H156487   1.727   4.783   8.109
18870TIP3    H256488   1.733   4.845   7.971
18871TIP3   OH256489   0.889   4.317   8.361
18871TIP3    H156490   0.945   4.285   8.434
18871TIP3    H256491   0.955   4.322   8.289
18872TIP3   OH256492   1.392   4.515   8.168
18872TIP3    H156493   1.397   4.528   8.265
18872TIP3    H256494   1.392   4.417   8.163
18873TIP3   OH256495   1.096   4.221   8.584
18873TIP3    H156496   1.063   4.184   8.668
18873TIP3    H256497   1.129   4.142   8.538
18874TIP3   OH256498   1.194   4.010   8.425
18874TIP3    H156499   1.167   4.017   8.331
18874TIP3    H256500   1.291   4.020   8.417
18875TIP3   OH256501   2.017   4.345   8.087
18875TIP3    H156502   1.995   4.300   8.002
18875TIP3    H256503   1.986   4.436   8.064
18876TIP3   OH256504   1.001   5.078   8.328
18876TIP3    H156505   1.097   5.072   8.311
18876TIP3    H256506   0.974   5.126   8.247
18877TIP3   OH256507   0.493   4.476   8.488
18877TIP3    H156508   0.588   4.487   8.510
18877TIP3    H256509   0.488   4.379   8.476
18878TIP3   OH256510   2.249   5.342   8.939
18878TIP3    H156511   2.287   5.360   9.027
18878TIP3    H256512   2.323   5.362   8.880
18879TIP3   OH256513   2.287   5.348   9.220
18879TIP3    H156514   2.247   5.258   9.216
18879TIP3    H256515   2.369   5.327   9.268
18880TIP3   OH256516   2.149   4.534   8.417
18880TIP3    H156517   2.219   4.598   8.391
18880TIP3    H256518   2.191   4.494   8.497
18881TIP3   OH256519   2.268   4.397   8.617
18881TIP3    H156520   2.211   4.359   8.686
18881TIP3    H256521   2.345   4.432   8.667
18882TIP3   OH256522   2.170   5.100   9.250
18882TIP3    H156523   2.095   5.144   9.296
18882TIP3    H256524   2.126   5.051   9.178
18883TIP3   OH256525   2.217   4.306   8.271
18883TIP3    H156526   2.145   4.312   8.203
18883TIP3    H256527   2.192   4.383   8.327
18884TIP3   OH256528   2.088   3.979   8.225
18884TIP3    H156529   2.047   4.024   8.151
18884TIP3    H256530   2.061   3.886   8.210
18885TIP3   OH256531   2.088   4.256   8.774
18885TIP3    H156532   2.102   4.160   8.772
18885TIP3    H256533   2.076   4.273   8.870
18886TIP3   OH256534   2.033   3.712   8.209
18886TIP3    H156535   2.107   3.685   8.266
18886TIP3    H256536   1.959   3.656   8.237
18887TIP3   OH256537   2.088   3.972   8.666
18887TIP3    H156538   2.131   3.884   8.679
18887TIP3    H256539   2.146   4.009   8.597
18888TIP3   OH256540   2.254   4.152   9.149
18888TIP3    H156541   2.343   4.180   9.115
18888TIP3    H256542   2.260   4.182   9.240
18889TIP3   OH256543   2.200   3.723   8.701
18889TIP3    H156544   2.250   3.708   8.784
18889TIP3    H256545   2.139   3.646   8.702
18890TIP3   OH256546   2.279   3.657   8.337
18890TIP3    H156547   2.322   3.588   8.282
18890TIP3    H256548   2.344   3.730   8.331
18891TIP3   OH256549   1.842   5.191   8.602
18891TIP3    H156550   1.891   5.174   8.519
18891TIP3    H256551   1.899   5.255   8.646
18892TIP3   OH256552   1.480   5.297   9.179
18892TIP3    H156553   1.399   5.294   9.125
18892TIP3    H256554   1.464   5.379   9.229
18893TIP3   OH256555   1.727   5.223   9.273
18893TIP3    H156556   1.636   5.245   9.241
18893TIP3    H256557   1.779   5.288   9.223
18894TIP3   OH256558   1.929   5.423   9.179
18894TIP3    H156559   1.916   5.507   9.130
18894TIP3    H256560   1.961   5.363   9.109
18895TIP3   OH256561   0.896   4.964   9.122
18895TIP3    H156562   0.927   4.884   9.169
18895TIP3    H256563   0.981   5.013   9.119
18896TIP3   OH256564   1.162   5.056   9.146
18896TIP3    H156565   1.209   4.971   9.128
18896TIP3    H256566   1.180   5.069   9.241
18897TIP3   OH256567   2.269   3.593   9.151
18897TIP3    H156568   2.317   3.636   9.076
18897TIP3    H256569   2.179   3.625   9.135
18898TIP3   OH256570   2.367   3.675   8.914
18898TIP3    H156571   2.442   3.629   8.873
18898TIP3    H256572   2.398   3.769   8.904
18899TIP3   OH256573   1.997   3.586   9.087
18899TIP3    H156574   1.989   3.584   8.991
18899TIP3    H256575   2.027   3.497   9.108
18900TIP3   OH256576   2.015   3.510   8.694
18900TIP3    H156577   1.930   3.558   8.701
18900TIP3    H256578   1.992   3.425   8.737
18901TIP3   OH256579   0.902   3.451   8.654
18901TIP3    H156580   0.955   3.383   8.611
18901TIP3    H256581   0.968   3.498   8.708
18902TIP3   OH256582   1.415   3.608   8.781
18902TIP3    H156583   1.482   3.569   8.840
18902TIP3    H256584   1.430   3.702   8.803
18903TIP3   OH256585   1.269   5.038   8.277
18903TIP3    H156586   1.358   5.059   8.242
18903TIP3    H256587   1.248   4.963   8.218
18904TIP3   OH256588   1.986   5.155   8.371
18904TIP3    H156589   1.978   5.058   8.356
18904TIP3    H256590   1.946   5.189   8.288
18905TIP3   OH256591   0.592   4.879   8.379
18905TIP3    H156592   0.613   4.974   8.392
18905TIP3    H256593   0.674   4.842   8.341
18906TIP3   OH256594   3.481   4.670   8.325
18906TIP3    H156595   3.455   4.763   8.306
18906TIP3    H256596   3.403   4.623   8.291
18907TIP3   OH256597   3.480   4.671   8.703
18907TIP3    H156598   3.512   4.644   8.791
18907TIP3    H256599   3.438   4.590   8.670
18908TIP3   OH256600   2.798   4.588   9.083
18908TIP3    H156601   2.825   4.512   9.137
18908TIP3    H256602   2.880   4.613   9.038
18909TIP3   OH256603   3.722   4.973   8.386
18909TIP3    H156604   3.712   4.905   8.454
18909TIP3    H256605   3.753   5.049   8.438
18910TIP3   OH256606   2.763   4.987   8.804
18910TIP3    H156607   2.739   4.892   8.809
18910TIP3    H256608   2.857   4.980   8.780
18911TIP3   OH256609   2.461   4.171   8.580
18911TIP3    H156610   2.429   4.260   8.603
18911TIP3    H256611   2.381   4.132   8.540
18912TIP3   OH256612   2.515   4.447   8.712
18912TIP3    H156613   2.554   4.408   8.793
18912TIP3    H256614   2.585   4.507   8.684
18913TIP3   OH256615   3.373   5.437   8.402
18913TIP3    H156616   3.419   5.366   8.354
18913TIP3    H256617   3.366   5.400   8.491
18914TIP3   OH256618   3.280   4.894   8.756
18914TIP3    H156619   3.319   4.820   8.706
18914TIP3    H256620   3.363   4.941   8.780
18915TIP3   OH256621   4.290   4.217   8.751
18915TIP3    H156622   4.319   4.299   8.796
18915TIP3    H256623   4.315   4.237   8.659
18916TIP3   OH256624   3.688   4.398   8.787
18916TIP3    H156625   3.735   4.314   8.806
18916TIP3    H256626   3.661   4.383   8.695
18917TIP3   OH256627   3.028   4.058   8.752
18917TIP3    H156628   3.008   4.131   8.689
18917TIP3    H256629   2.980   3.985   8.707
18918TIP3   OH256630   3.723   4.148   8.374
18918TIP3    H156631   3.796   4.134   8.439
18918TIP3    H256632   3.774   4.185   8.299
18919TIP3   OH256633   2.665   4.257   8.861
18919TIP3    H156634   2.749   4.235   8.905
18919TIP3    H256635   2.675   4.210   8.777
18920TIP3   OH256636   3.103   4.457   8.654
18920TIP3    H156637   3.197   4.432   8.664
18920TIP3    H256638   3.064   4.374   8.619
18921TIP3   OH256639   4.361   4.420   8.926
18921TIP3    H156640   4.282   4.473   8.905
18921TIP3    H256641   4.389   4.460   9.010
18922TIP3   OH256642   3.026   4.038   9.189
18922TIP3    H156643   2.969   4.079   9.121
18922TIP3    H256644   2.968   4.038   9.266
18923TIP3   OH256645   3.374   4.892   8.193
18923TIP3    H156646   3.330   4.874   8.109
18923TIP3    H256647   3.332   4.977   8.218
18924TIP3   OH256648   3.130   4.820   8.984
18924TIP3    H156649   3.068   4.886   9.020
18924TIP3    H256650   3.173   4.869   8.911
18925TIP3   OH256651   3.934   4.150   8.546
18925TIP3    H156652   3.924   4.107   8.631
18925TIP3    H256653   3.989   4.228   8.569
18926TIP3   OH256654   2.900   4.153   8.973
18926TIP3    H156655   2.960   4.228   8.993
18926TIP3    H256656   2.946   4.114   8.895
18927TIP3   OH256657   2.949   5.007   9.091
18927TIP3    H156658   2.928   5.091   9.045
18927TIP3    H256659   2.861   4.975   9.114
18928TIP3   OH256660   2.357   4.700   8.314
18928TIP3    H156661   2.315   4.729   8.230
18928TIP3    H256662   2.387   4.785   8.352
18929TIP3   OH256663   3.794   5.215   8.553
18929TIP3    H156664   3.704   5.208   8.592
18929TIP3    H256665   3.787   5.302   8.508
18930TIP3   OH256666   4.085   4.111   8.915
18930TIP3    H156667   4.000   4.148   8.887
18930TIP3    H256668   4.146   4.147   8.847
18931TIP3   OH256669   3.385   3.760   8.900
18931TIP3    H156670   3.368   3.665   8.916
18931TIP3    H256671   3.309   3.800   8.946
18932TIP3   OH256672   3.498   5.263   8.229
18932TIP3    H156673   3.548   5.181   8.207
18932TIP3    H256674   3.558   5.329   8.187
18933TIP3   OH256675   3.640   5.048   8.133
18933TIP3    H156676   3.599   4.969   8.096
18933TIP3    H256677   3.675   5.013   8.218
18934TIP3   OH256678   4.018   5.130   8.898
18934TIP3    H156679   4.011   5.053   8.838
18934TIP3    H256680   4.005   5.205   8.836
18935TIP3   OH256681   3.311   4.522   8.154
18935TIP3    H156682   3.232   4.575   8.134
18935TIP3    H256683   3.358   4.523   8.069
18936TIP3   OH256684   3.271   4.307   7.872
18936TIP3    H156685   3.338   4.358   7.921
18936TIP3    H256686   3.330   4.244   7.824
18937TIP3   OH256687   4.214   4.761   8.739
18937TIP3    H156688   4.134   4.817   8.746
18937TIP3    H256689   4.247   4.788   8.651
18938TIP3   OH256690   3.658   4.604   8.127
18938TIP3    H156691   3.605   4.630   8.206
18938TIP3    H256692   3.743   4.580   8.170
18939TIP3   OH256693   3.894   4.645   9.039
18939TIP3    H156694   3.895   4.727   9.092
18939TIP3    H256695   3.810   4.655   8.991
18940TIP3   OH256696   2.892   4.602   8.542
18940TIP3    H156697   2.851   4.545   8.473
18940TIP3    H256698   2.969   4.549   8.570
18941TIP3   OH256699   3.024   5.009   8.691
18941TIP3    H156700   3.004   4.973   8.604
18941TIP3    H256701   3.115   4.977   8.707
18942TIP3   OH256702   3.031   4.574   8.904
18942TIP3    H156703   3.058   4.554   8.812
18942TIP3    H256704   3.071   4.663   8.918
18943TIP3   OH256705   3.553   5.212   8.674
18943TIP3    H156706   3.539   5.293   8.726
18943TIP3    H256707   3.538   5.140   8.739
18944TIP3   OH256708   3.165   5.132   9.220
18944TIP3    H156709   3.107   5.196   9.267
18944TIP3    H256710   3.097   5.079   9.174
18945TIP3   OH256711   3.502   4.462   7.952
18945TIP3    H156712   3.559   4.522   8.005
18945TIP3    H256713   3.528   4.487   7.860
18946TIP3   OH256714   3.243   5.143   8.229
18946TIP3    H156715   3.321   5.199   8.246
18946TIP3    H256716   3.182   5.206   8.187
18947TIP3   OH256717   2.963   5.302   9.308
18947TIP3    H156718   2.931   5.306   9.215
18947TIP3    H256719   2.883   5.272   9.356
18948TIP3   OH256720   4.015   3.704   7.999
18948TIP3    H156721   3.935   3.727   8.051
18948TIP3    H256722   4.031   3.788   7.950
18949TIP3   OH256723   2.761   4.444   8.344
18949TIP3    H156724   2.695   4.493   8.289
18949TIP3    H256725   2.711   4.364   8.365
18950TIP3   OH256726   3.814   5.072   7.547
18950TIP3    H156727   3.823   5.169   7.534
18950TIP3    H256728   3.907   5.043   7.536
18951TIP3   OH256729   2.560   4.799   9.265
18951TIP3    H156730   2.509   4.825   9.184
18951TIP3    H256731   2.542   4.704   9.259
18952TIP3   OH256732   4.256   5.473   8.941
18952TIP3    H156733   4.257   5.377   8.957
18952TIP3    H256734   4.174   5.498   8.989
18953TIP3   OH256735   3.366   5.260   9.078
18953TIP3    H156736   3.364   5.353   9.109
18953TIP3    H256737   3.293   5.221   9.131
18954TIP3   OH256738   3.126   5.388   8.034
18954TIP3    H156739   3.083   5.365   7.950
18954TIP3    H256740   3.091   5.477   8.053
18955TIP3   OH256741   2.562   5.240   8.413
18955TIP3    H156742   2.610   5.230   8.498
18955TIP3    H256743   2.502   5.163   8.417
18956TIP3   OH256744   3.334   5.301   7.662
18956TIP3    H156745   3.389   5.226   7.630
18956TIP3    H256746   3.357   5.303   7.757
18957TIP3   OH256747   3.376   5.338   7.939
18957TIP3    H156748   3.287   5.349   7.980
18957TIP3    H256749   3.424   5.297   8.012
18958TIP3   OH256750   4.148   4.603   9.221
18958TIP3    H156751   4.069   4.619   9.169
18958TIP3    H256752   4.162   4.506   9.209
18959TIP3   OH256753   3.145   3.837   9.024
18959TIP3    H156754   3.055   3.807   8.999
18959TIP3    H256755   3.122   3.923   9.063
18960TIP3   OH256756   3.697   3.955   9.216
18960TIP3    H156757   3.754   3.917   9.285
18960TIP3    H256758   3.606   3.932   9.245
18961TIP3   OH256759   3.912   4.379   9.132
18961TIP3    H156760   3.869   4.377   9.220
18961TIP3    H256761   3.895   4.471   9.103
18962TIP3   OH256762   3.575   4.509   7.696
18962TIP3    H156763   3.544   4.484   7.607
18962TIP3    H256764   3.654   4.561   7.674
18963TIP3   OH256765   3.290   3.885   7.999
18963TIP3    H156766   3.257   3.884   8.091
18963TIP3    H256767   3.249   3.803   7.966
18964TIP3   OH256768   3.077   4.350   9.048
18964TIP3    H156769   3.030   4.374   9.130
18964TIP3    H256770   3.063   4.431   8.994
18965TIP3   OH256771   2.961   4.237   8.560
18965TIP3    H156772   2.867   4.214   8.577
18965TIP3    H256773   2.972   4.197   8.471
18966TIP3   OH256774   3.449   4.323   8.286
18966TIP3    H156775   3.396   4.395   8.246
18966TIP3    H256776   3.504   4.295   8.211
18967TIP3   OH256777   3.628   4.614   9.365
18967TIP3    H156778   3.603   4.535   9.417
18967TIP3    H256779   3.722   4.625   9.390
18968TIP3   OH256780   3.606   4.352   8.528
18968TIP3    H156781   3.549   4.386   8.456
18968TIP3    H256782   3.638   4.271   8.484
18969TIP3   OH256783   2.894   4.384   9.257
18969TIP3    H156784   2.926   4.427   9.337
18969TIP3    H256785   2.826   4.324   9.292
18970TIP3   OH256786   2.943   3.857   7.965
18970TIP3    H156787   2.935   3.857   8.062
18970TIP3    H256788   2.867   3.912   7.940
18971TIP3   OH256789   2.487   3.900   8.836
18971TIP3    H156790   2.558   3.938   8.891
18971TIP3    H256791   2.532   3.880   8.753
18972TIP3   OH256792   2.460   3.885   8.355
18972TIP3    H156793   2.505   3.924   8.277
18972TIP3    H256794   2.401   3.959   8.378
18973TIP3   OH256795   3.612   4.600   8.948
18973TIP3    H156796   3.648   4.528   8.891
18973TIP3    H256797   3.588   4.548   9.027
18974TIP3   OH256798   3.285   4.056   8.621
18974TIP3    H156799   3.203   4.058   8.674
18974TIP3    H256800   3.353   4.063   8.690
18975TIP3   OH256801   2.722   4.117   8.629
18975TIP3    H156802   2.627   4.127   8.603
18975TIP3    H256803   2.742   4.025   8.604
18976TIP3   OH256804   2.992   4.111   8.318
18976TIP3    H156805   3.085   4.130   8.296
18976TIP3    H256806   2.944   4.135   8.235
18977TIP3   OH256807   3.778   4.135   8.822
18977TIP3    H156808   3.744   4.149   8.913
18977TIP3    H256809   3.711   4.075   8.786
18978TIP3   OH256810   2.833   4.141   8.097
18978TIP3    H156811   2.759   4.101   8.048
18978TIP3    H256812   2.884   4.181   8.023
18979TIP3   OH256813   3.947   5.826   9.042
18979TIP3    H156814   3.948   5.849   8.947
18979TIP3    H256815   4.027   5.872   9.074
18980TIP3   OH256816   3.370   4.384   8.716
18980TIP3    H156817   3.445   4.353   8.664
18980TIP3    H256818   3.387   4.346   8.804
18981TIP3   OH256819   2.895   3.877   8.596
18981TIP3    H156820   2.861   3.796   8.641
18981TIP3    H256821   2.943   3.841   8.521
18982TIP3   OH256822   3.346   4.277   9.022
18982TIP3    H156823   3.258   4.319   9.024
18982TIP3    H256824   3.405   4.343   9.062
18983TIP3   OH256825   3.085   4.675   8.105
18983TIP3    H156826   3.011   4.612   8.093
18983TIP3    H256827   3.065   4.710   8.196
18984TIP3   OH256828   3.985   4.913   8.733
18984TIP3    H156829   4.010   4.962   8.652
18984TIP3    H256830   3.899   4.872   8.708
18985TIP3   OH256831   3.542   3.988   7.963
18985TIP3    H156832   3.445   3.974   7.972
18985TIP3    H256833   3.554   4.083   7.988
18986TIP3   OH256834   3.474   4.989   9.105
18986TIP3    H156835   3.514   4.978   9.192
18986TIP3    H256836   3.446   5.082   9.106
18987TIP3   OH256837   3.612   4.234   8.067
18987TIP3    H156838   3.708   4.242   8.084
18987TIP3    H256839   3.593   4.315   8.016
18988TIP3   OH256840   2.782   4.702   8.778
18988TIP3    H156841   2.817   4.673   8.691
18988TIP3    H256842   2.805   4.629   8.836
18989TIP3   OH256843   3.228   4.826   7.924
18989TIP3    H156844   3.181   4.912   7.929
18989TIP3    H256845   3.173   4.772   7.985
18990TIP3   OH256846   3.379   4.727   9.400
18990TIP3    H156847   3.337   4.670   9.334
18990TIP3    H256848   3.474   4.706   9.383
18991TIP3   OH256849   3.642   5.248   9.001
18991TIP3    H156850   3.546   5.254   9.011
18991TIP3    H256851   3.672   5.304   9.075
18992TIP3   OH256852   4.052   4.326   7.907
18992TIP3    H156853   3.990   4.281   7.844
18992TIP3    H256854   4.050   4.415   7.865
18993TIP3   OH256855   4.269   5.180   8.988
18993TIP3    H156856   4.171   5.177   8.978
18993TIP3    H256857   4.296   5.153   8.897
18994TIP3   OH256858   3.753   5.145   7.812
18994TIP3    H156859   3.728   5.077   7.876
18994TIP3    H256860   3.765   5.096   7.729
18995TIP3   OH256861   3.749   4.774   8.654
18995TIP3    H156862   3.655   4.749   8.665
18995TIP3    H256863   3.783   4.696   8.607
18996TIP3   OH256864   2.877   5.001   8.404
18996TIP3    H156865   2.876   5.083   8.350
18996TIP3    H256866   2.782   4.987   8.417
18997TIP3   OH256867   2.440   4.306   8.108
18997TIP3    H156868   2.486   4.390   8.127
18997TIP3    H256869   2.363   4.312   8.168
18998TIP3   OH256870   3.016   4.768   8.350
18998TIP3    H156871   2.981   4.858   8.366
18998TIP3    H256872   2.977   4.719   8.424
18999TIP3   OH256873   3.145   5.345   8.876
18999TIP3    H156874   3.183   5.418   8.823
18999TIP3    H256875   3.223   5.312   8.922
19000TIP3   OH256876   2.797   5.239   8.258
19000TIP3    H156877   2.710   5.248   8.303
19000TIP3    H256878   2.829   5.332   8.260
19001TIP3   OH256879   3.533   4.979   8.834
19001TIP3    H156880   3.525   4.975   8.932
19001TIP3    H256881   3.616   4.931   8.819
19002TIP3   OH256882   3.508   4.870   7.714
19002TIP3    H156883   3.560   4.846   7.794
19002TIP3    H256884   3.419   4.847   7.744
19003TIP3   OH256885   3.781   5.514   8.883
19003TIP3    H156886   3.701   5.459   8.872
19003TIP3    H256887   3.768   5.580   8.811
19004TIP3   OH256888   3.848   5.349   7.534
19004TIP3    H156889   3.889   5.424   7.489
19004TIP3    H256890   3.767   5.393   7.567
19005TIP3   OH256891   3.668   4.804   7.931
19005TIP3    H156892   3.659   4.739   8.004
19005TIP3    H256893   3.765   4.804   7.919
19006TIP3   OH256894   2.580   5.230   9.027
19006TIP3    H156895   2.587   5.134   9.029
19006TIP3    H256896   2.628   5.259   9.105
19007TIP3   OH256897   2.878   4.850   7.714
19007TIP3    H156898   2.888   4.757   7.687
19007TIP3    H256899   2.856   4.841   7.809
19008TIP3   OH256900   2.822   4.857   7.986
19008TIP3    H156901   2.891   4.835   8.049
19008TIP3    H256902   2.822   4.956   7.990
19009TIP3   OH256903   2.556   4.552   8.190
19009TIP3    H156904   2.490   4.596   8.247
19009TIP3    H256905   2.569   4.622   8.123
19010TIP3   OH256906   3.703   4.194   9.080
19010TIP3    H156907   3.783   4.237   9.113
19010TIP3    H256908   3.699   4.112   9.134
19011TIP3   OH256909   3.586   3.939   8.246
19011TIP3    H156910   3.571   3.964   8.152
19011TIP3    H256911   3.624   4.022   8.283
19012TIP3   OH256912   3.086   5.056   7.936
19012TIP3    H156913   2.998   5.080   7.970
19012TIP3    H256914   3.102   5.132   7.878
19013TIP3   OH256915   3.275   4.117   8.348
19013TIP3    H156916   3.339   4.190   8.330
19013TIP3    H256917   3.279   4.112   8.446
19014TIP3   OH256918   3.540   4.437   9.155
19014TIP3    H156919   3.561   4.491   9.234
19014TIP3    H256920   3.598   4.360   9.166
19015TIP3   OH256921   3.419   3.846   8.452
19015TIP3    H156922   3.410   3.923   8.511
19015TIP3    H256923   3.479   3.884   8.383
19016TIP3   OH256924   2.828   5.131   8.000
19016TIP3    H156925   2.802   5.200   7.935
19016TIP3    H256926   2.811   5.176   8.085
19017TIP3   OH256927   2.930   3.844   8.242
19017TIP3    H156928   2.926   3.936   8.276
19017TIP3    H256929   3.026   3.827   8.250
19018TIP3   OH256930   4.179   4.335   9.141
19018TIP3    H156931   4.081   4.333   9.139
19018TIP3    H256932   4.200   4.312   9.050
19019TIP3   OH256933   3.834   4.533   8.526
19019TIP3    H156934   3.760   4.472   8.539
19019TIP3    H256935   3.907   4.487   8.573
19020TIP3   OH256936   2.545   4.761   7.997
19020TIP3    H156937   2.604   4.838   8.005
19020TIP3    H256938   2.593   4.710   7.928
19021TIP3   OH256939   2.491   4.036   8.129
19021TIP3    H156940   2.493   4.134   8.126
19021TIP3    H256941   2.406   4.018   8.088
19022TIP3   OH256942   3.802   5.487   8.476
19022TIP3    H156943   3.760   5.534   8.400
19022TIP3    H256944   3.897   5.507   8.456
19023TIP3   OH256945   2.881   3.761   9.001
19023TIP3    H156946   2.848   3.729   8.914
19023TIP3    H256947   2.868   3.682   9.057
19024TIP3   OH256948   2.419   4.973   8.383
19024TIP3    H156949   2.349   5.004   8.440
19024TIP3    H256950   2.393   5.015   8.298
19025TIP3   OH256951   2.578   5.515   9.429
19025TIP3    H156952   2.652   5.500   9.490
19025TIP3    H256953   2.530   5.431   9.436
19026TIP3   OH256954   3.061   5.471   9.509
19026TIP3    H156955   3.157   5.462   9.505
19026TIP3    H256956   3.034   5.419   9.431
19027TIP3   OH256957   3.036   5.056   7.626
19027TIP3    H156958   2.978   4.986   7.664
19027TIP3    H256959   3.110   5.003   7.595
19028TIP3   OH256960   3.694   5.390   9.234
19028TIP3    H156961   3.688   5.318   9.300
19028TIP3    H256962   3.774   5.438   9.262
19029TIP3   OH256963   3.475   5.096   7.539
19029TIP3    H156964   3.519   5.033   7.598
19029TIP3    H256965   3.533   5.096   7.460
19030TIP3   OH256966   2.682   4.574   7.847
19030TIP3    H156967   2.737   4.544   7.921
19030TIP3    H256968   2.749   4.579   7.776
19031TIP3   OH256969   3.323   5.003   9.410
19031TIP3    H156970   3.281   5.018   9.324
19031TIP3    H256971   3.350   4.909   9.405
19032TIP3   OH256972   3.194   4.772   7.654
19032TIP3    H156973   3.193   4.787   7.751
19032TIP3    H256974   3.189   4.675   7.650
19033TIP3   OH256975   3.803   5.016   9.033
19033TIP3    H156976   3.881   5.058   8.990
19033TIP3    H256977   3.737   5.086   9.020
19034TIP3   OH256978   2.891   4.477   8.071
19034TIP3    H156979   2.862   4.437   8.155
19034TIP3    H256980   2.926   4.400   8.022
19035TIP3   OH256981   3.163   4.530   9.295
19035TIP3    H156982   3.119   4.612   9.319
19035TIP3    H256983   3.215   4.559   9.216
19036TIP3   OH256984   2.990   4.268   7.912
19036TIP3    H156985   2.963   4.274   7.818
19036TIP3    H256986   3.087   4.276   7.904
19037TIP3   OH256987   3.673   4.942   9.425
19037TIP3    H156988   3.759   4.930   9.381
19037TIP3    H256989   3.681   4.879   9.499
19038TIP3   OH256990   3.813   4.602   7.573
19038TIP3    H156991   3.790   4.556   7.489
19038TIP3    H256992   3.781   4.692   7.550
19039TIP3   OH256993   3.264   4.310   9.433
19039TIP3    H156994   3.266   4.241   9.364
19039TIP3    H256995   3.222   4.385   9.385
19040TIP3   OH256996   3.284   4.110   9.236
19040TIP3    H156997   3.313   4.159   9.156
19040TIP3    H256998   3.190   4.092   9.214
19041TIP3   OH256999   3.313   4.653   9.107
19041TIP3    H157000   3.397   4.660   9.060
19041TIP3    H257001   3.259   4.721   9.062
19042TIP3   OH257002   3.902   4.607   9.477
19042TIP3    H157003   3.954   4.527   9.493
19042TIP3    H257004   3.970   4.671   9.453
19043TIP3   OH257005   3.935   4.870   9.218
19043TIP3    H157006   3.878   4.924   9.160
19043TIP3    H257007   4.023   4.892   9.180
19044TIP3   OH257008   3.437   3.878   9.238
19044TIP3    H157009   3.384   3.960   9.229
19044TIP3    H257010   3.370   3.815   9.270
19045TIP3   OH257011   3.526   4.386   9.467
19045TIP3    H157012   3.558   4.320   9.533
19045TIP3    H257013   3.431   4.360   9.458
19046TIP3   OH257014   3.789   4.327   9.365
19046TIP3    H157015   3.709   4.329   9.420
19046TIP3    H257016   3.859   4.318   9.432
19047TIP3   OH257017   4.001   4.316   9.551
19047TIP3    H157018   4.017   4.221   9.534
19047TIP3    H257019   3.996   4.319   9.647
19048TIP3   OH257020   3.589   3.777   9.499
19048TIP3    H157021   3.649   3.853   9.490
19048TIP3    H257022   3.502   3.818   9.483
19049TIP3   OH257023   2.797   5.331   7.806
19049TIP3    H157024   2.891   5.344   7.784
19049TIP3    H257025   2.756   5.376   7.731
19050TIP3   OH257026   2.277   4.715   8.032
19050TIP3    H157027   2.372   4.738   8.019
19050TIP3    H257028   2.273   4.627   7.990
19051TIP3   OH257029   2.190   5.328   8.446
19051TIP3    H157030   2.125   5.265   8.409
19051TIP3    H257031   2.236   5.271   8.511
19052TIP3   OH257032   2.329   5.179   8.629
19052TIP3    H157033   2.318   5.102   8.686
19052TIP3    H257034   2.379   5.239   8.687
19053TIP3   OH257035   4.053   5.584   8.431
19053TIP3    H157036   4.083   5.612   8.519
19053TIP3    H257037   4.120   5.622   8.373
19054TIP3   OH257038   4.085   5.600   8.714
19054TIP3    H157039   4.044   5.511   8.710
19054TIP3    H257040   4.162   5.579   8.770
19055TIP3   OH257041   4.131   5.276   9.286
19055TIP3    H157042   4.057   5.286   9.350
19055TIP3    H257043   4.174   5.363   9.291
19056TIP3   OH257044   3.947   4.789   7.906
19056TIP3    H157045   4.016   4.854   7.878
19056TIP3    H257046   3.990   4.750   7.986
19057TIP3   OH257047   4.074   4.657   8.109
19057TIP3    H157048   4.010   4.616   8.171
19057TIP3    H257049   4.142   4.694   8.169
19058TIP3   OH257050   4.126   5.046   8.540
19058TIP3    H157051   4.182   4.984   8.490
19058TIP3    H257052   4.121   5.123   8.479
19059TIP3   OH257053   3.961   5.349   8.738
19059TIP3    H157054   3.890   5.391   8.790
19059TIP3    H257055   3.910   5.301   8.668
19060TIP3   OH257056   4.013   4.563   7.758
19060TIP3    H157057   3.941   4.568   7.690
19060TIP3    H257058   3.987   4.640   7.814
19061TIP3   OH257059   3.883   4.237   7.713
19061TIP3    H157060   3.843   4.279   7.636
19061TIP3    H257061   3.858   4.143   7.701
19062TIP3   OH257062   3.888   4.513   8.258
19062TIP3    H157063   3.899   4.417   8.253
19062TIP3    H257064   3.876   4.529   8.354
19063TIP3   OH257065   2.534   4.523   9.004
19063TIP3    H157066   2.483   4.597   8.964
19063TIP3    H257067   2.619   4.566   9.023
19064TIP3   OH257068   4.177   4.938   9.112
19064TIP3    H157069   4.251   4.873   9.104
19064TIP3    H257070   4.207   5.010   9.054
19065TIP3   OH257071   4.361   4.743   9.131
19065TIP3    H157072   4.289   4.691   9.174
19065TIP3    H257073   4.437   4.683   9.144
19066TIP3   OH257074   3.828   3.971   7.698
19066TIP3    H157075   3.905   3.943   7.751
19066TIP3    H257076   3.756   3.912   7.727
19067TIP3   OH257077   3.885   4.228   8.153
19067TIP3    H157078   3.927   4.140   8.167
19067TIP3    H257079   3.943   4.264   8.083
19068TIP3   OH257080   4.047   4.404   8.647
19068TIP3    H157081   4.133   4.429   8.606
19068TIP3    H257082   4.061   4.441   8.736
19069TIP3   OH257083   4.114   4.546   8.880
19069TIP3    H157084   4.037   4.583   8.928
19069TIP3    H257085   4.148   4.626   8.833
19070TIP3   OH257086   4.559   4.140   9.426
19070TIP3    H157087   4.621   4.079   9.381
19070TIP3    H257088   4.534   4.201   9.354
19071TIP3   OH257089   3.994   3.979   8.190
19071TIP3    H157090   4.044   3.964   8.273
19071TIP3    H257091   3.934   3.902   8.190
19072TIP3   OH257092   2.693   3.965   9.005
19072TIP3    H157093   2.756   3.892   9.016
19072TIP3    H257094   2.754   4.041   8.999
19073TIP3   OH257095   2.503   4.242   9.086
19073TIP3    H157096   2.551   4.237   9.000
19073TIP3    H257097   2.511   4.338   9.101
19074TIP3   OH257098   4.438   4.284   9.234
19074TIP3    H157099   4.351   4.322   9.259
19074TIP3    H257100   4.407   4.210   9.178
19075TIP3   OH257101   4.075   3.914   7.822
19075TIP3    H157102   4.118   3.844   7.770
19075TIP3    H257103   4.141   3.986   7.818
19076TIP3   OH257104   2.479   3.736   8.578
19076TIP3    H157105   2.387   3.742   8.609
19076TIP3    H257106   2.479   3.799   8.503
19077TIP3   OH257107   3.640   5.445   8.089
19077TIP3    H157108   3.691   5.431   8.007
19077TIP3    H257109   3.694   5.511   8.136
19078TIP3   OH257110   2.739   5.225   9.471
19078TIP3    H157111   2.644   5.235   9.453
19078TIP3    H257112   2.748   5.264   9.559
19079TIP3   OH257113   2.919   5.280   9.026
19079TIP3    H157114   2.865   5.351   8.985
19079TIP3    H257115   3.003   5.297   8.980
19080TIP3   OH257116   3.364   5.526   9.157
19080TIP3    H157117   3.406   5.530   9.246
19080TIP3    H257118   3.429   5.577   9.104
19081TIP3   OH257119   3.544   5.677   9.018
19081TIP3    H157120   3.616   5.628   8.977
19081TIP3    H257121   3.594   5.735   9.079
19082TIP3   OH257122   4.338   4.042   9.118
19082TIP3    H157123   4.248   4.040   9.081
19082TIP3    H257124   4.368   3.949   9.104
19083TIP3   OH257125   2.601   5.549   9.045
19083TIP3    H157126   2.511   5.579   9.020
19083TIP3    H257127   2.605   5.582   9.135
19084TIP3   OH257128   2.833   5.516   8.902
19084TIP3    H157129   2.748   5.530   8.949
19084TIP3    H257130   2.812   5.549   8.813
19085TIP3   OH257131   3.257   5.547   8.701
19085TIP3    H157132   3.188   5.567   8.636
19085TIP3    H257133   3.270   5.634   8.743
19086TIP3   OH257134   3.526   5.485   8.753
19086TIP3    H157135   3.431   5.503   8.732
19086TIP3    H257136   3.569   5.561   8.711
19087TIP3   OH257137   3.734   5.679   8.668
19087TIP3    H157138   3.720   5.763   8.620
19087TIP3    H257139   3.760   5.618   8.595
19088TIP3   OH257140   2.500   5.333   8.789
19088TIP3    H157141   2.528   5.309   8.880
19088TIP3    H257142   2.573   5.289   8.739
19089TIP3   OH257143   2.698   5.204   8.648
19089TIP3    H157144   2.714   5.124   8.703
19089TIP3    H257145   2.788   5.242   8.643
19090TIP3   OH257146   2.965   5.300   8.649
19090TIP3    H157147   2.998   5.210   8.635
19090TIP3    H257148   3.008   5.321   8.734
19091TIP3   OH257149   3.543   3.956   8.738
19091TIP3    H157150   3.499   3.886   8.790
19091TIP3    H257151   3.615   3.909   8.694
19092TIP3   OH257152   4.065   3.831   8.642
19092TIP3    H157153   4.104   3.885   8.570
19092TIP3    H257154   3.971   3.856   8.638
19093TIP3   OH257155   4.160   3.935   8.407
19093TIP3    H157156   4.234   3.884   8.366
19093TIP3    H257157   4.194   4.026   8.393
19094TIP3   OH257158   2.792   3.665   8.754
19094TIP3    H157159   2.700   3.633   8.754
19094TIP3    H257160   2.841   3.580   8.750
19095TIP3   OH257161   2.579   3.533   8.401
19095TIP3    H157162   2.608   3.591   8.329
19095TIP3    H257163   2.547   3.598   8.467
19096TIP3   OH257164   3.236   3.694   8.635
19096TIP3    H157165   3.291   3.747   8.575
19096TIP3    H257166   3.254   3.736   8.720
19097TIP3   OH257167   3.780   3.844   8.620
19097TIP3    H157168   3.779   3.811   8.529
19097TIP3    H257169   3.766   3.761   8.672
19098TIP3   OH257170   3.810   3.765   8.180
19098TIP3    H157171   3.725   3.811   8.193
19098TIP3    H257172   3.794   3.681   8.227
19099TIP3   OH257173   2.294   5.106   8.184
19099TIP3    H157174   2.208   5.075   8.148
19099TIP3    H257175   2.287   5.200   8.160
19100TIP3   OH257176   2.694   3.690   8.168
19100TIP3    H157177   2.744   3.632   8.108
19100TIP3    H257178   2.765   3.748   8.203
19101TIP3   OH257179   3.207   3.867   8.265
19101TIP3    H157180   3.269   3.824   8.326
19101TIP3    H257181   3.226   3.961   8.288
19102TIP3   OH257182   3.071   5.290   7.774
19102TIP3    H157183   3.138   5.336   7.720
19102TIP3    H257184   3.047   5.218   7.711
19103TIP3   OH257185   3.785   5.412   7.856
19103TIP3    H157186   3.777   5.314   7.844
19103TIP3    H257187   3.740   5.444   7.776
19104TIP3   OH257188   2.367   5.125   7.821
19104TIP3    H157189   2.370   5.163   7.910
19104TIP3    H257190   2.457   5.087   7.811
19105TIP3   OH257191   4.054   4.047   9.501
19105TIP3    H157192   4.077   3.992   9.580
19105TIP3    H257193   4.141   4.043   9.456
19106TIP3   OH257194   4.011   5.557   9.044
19106TIP3    H157195   3.932   5.526   8.996
19106TIP3    H257196   3.993   5.653   9.048
19107TIP3   OH257197   5.273   4.924   7.818
19107TIP3    H157198   5.249   5.016   7.798
19107TIP3    H257199   5.205   4.877   7.767
19108TIP3   OH257200   5.317   4.895   8.182
19108TIP3    H157201   5.289   4.931   8.268
19108TIP3    H257202   5.233   4.884   8.136
19109TIP3   OH257203   4.577   4.827   8.558
19109TIP3    H157204   4.612   4.760   8.620
19109TIP3    H257205   4.654   4.885   8.549
19110TIP3   OH257206   5.520   5.233   7.872
19110TIP3    H157207   5.505   5.159   7.933
19110TIP3    H257208   5.549   5.303   7.933
19111TIP3   OH257209   4.543   5.230   8.282
19111TIP3    H157210   4.538   5.133   8.284
19111TIP3    H257211   4.640   5.243   8.285
19112TIP3   OH257212   4.253   4.433   8.068
19112TIP3    H157213   4.210   4.519   8.083
19112TIP3    H257214   4.180   4.384   8.027
19113TIP3   OH257215   4.312   4.721   8.235
19113TIP3    H157216   4.363   4.647   8.274
19113TIP3    H257217   4.378   4.762   8.176
19114TIP3   OH257218   5.168   5.694   7.889
19114TIP3    H157219   5.215   5.622   7.840
19114TIP3    H257220   5.161   5.656   7.977
19115TIP3   OH257221   6.092   4.472   8.239
19115TIP3    H157222   6.117   4.557   8.280
19115TIP3    H257223   6.103   4.494   8.144
19116TIP3   OH257224   5.485   4.650   8.280
19116TIP3    H157225   5.529   4.564   8.285
19116TIP3    H257226   5.453   4.650   8.188
19117TIP3   OH257227   4.823   4.314   8.239
19117TIP3    H157228   4.807   4.388   8.177
19117TIP3    H257229   4.775   4.242   8.192
19118TIP3   OH257230   5.519   4.401   7.864
19118TIP3    H157231   5.595   4.389   7.925
19118TIP3    H257232   5.566   4.444   7.789
19119TIP3   OH257233   4.458   4.516   8.345
19119TIP3    H157234   4.542   4.500   8.392
19119TIP3    H257235   4.473   4.462   8.265
19120TIP3   OH257236   4.898   4.713   8.140
19120TIP3    H157237   4.992   4.687   8.152
19120TIP3    H257238   4.860   4.629   8.106
19121TIP3   OH257239   6.162   4.681   8.409
19121TIP3    H157240   6.080   4.730   8.386
19121TIP3    H257241   6.176   4.712   8.500
19122TIP3   OH257242   4.821   4.297   8.672
19122TIP3    H157243   4.763   4.337   8.604
19122TIP3    H257244   4.770   4.318   8.753
19123TIP3   OH257245   5.170   5.149   7.686
19123TIP3    H157246   5.135   5.122   7.601
19123TIP3    H257247   5.123   5.233   7.702
19124TIP3   OH257248   5.736   4.401   8.034
19124TIP3    H157249   5.715   4.365   8.121
19124TIP3    H257250   5.783   4.484   8.056
19125TIP3   OH257251   4.692   4.413   8.458
19125TIP3    H157252   4.753   4.488   8.479
19125TIP3    H257253   4.741   4.374   8.382
19126TIP3   OH257254   4.749   5.266   8.577
19126TIP3    H157255   4.734   5.346   8.525
19126TIP3    H257256   4.667   5.260   8.629
19127TIP3   OH257257   4.151   4.957   7.801
19127TIP3    H157258   4.112   4.987   7.718
19127TIP3    H257259   4.184   5.042   7.839
19128TIP3   OH257260   5.593   5.473   8.044
19128TIP3    H157261   5.505   5.461   8.087
19128TIP3    H257262   5.580   5.558   7.998
19129TIP3   OH257263   5.881   4.373   8.404
19129TIP3    H157264   5.793   4.401   8.374
19129TIP3    H257265   5.939   4.406   8.332
19130TIP3   OH257266   5.181   4.017   8.386
19130TIP3    H157267   5.164   3.923   8.402
19130TIP3    H257268   5.103   4.057   8.432
19131TIP3   OH257269   5.293   5.521   7.715
19131TIP3    H157270   5.341   5.437   7.696
19131TIP3    H257271   5.355   5.584   7.673
19132TIP3   OH257272   5.434   5.305   7.620
19132TIP3    H157273   5.406   5.224   7.577
19132TIP3    H257274   5.470   5.270   7.705
19133TIP3   OH257275   5.818   5.386   8.385
19133TIP3    H157276   5.805   5.308   8.326
19133TIP3    H257277   5.800   5.460   8.323
19134TIP3   OH257278   5.114   4.786   7.641
19134TIP3    H157279   5.039   4.833   7.603
19134TIP3    H257280   5.151   4.738   7.564
19135TIP3   OH257281   6.013   5.023   8.230
19135TIP3    H157282   5.929   5.074   8.235
19135TIP3    H257283   6.042   5.048   8.139
19136TIP3   OH257284   5.464   4.889   7.618
19136TIP3    H157285   5.402   4.895   7.694
19136TIP3    H257286   5.535   4.835   7.655
19137TIP3   OH257287   5.698   4.902   8.524
19137TIP3    H157288   5.691   4.989   8.568
19137TIP3    H257289   5.607   4.898   8.484
19138TIP3   OH257290   4.687   4.859   8.032
19138TIP3    H157291   4.650   4.802   7.962
19138TIP3    H257292   4.766   4.809   8.061
19139TIP3   OH257293   4.819   5.285   8.184
19139TIP3    H157294   4.827   5.220   8.113
19139TIP3    H257295   4.892   5.254   8.244
19140TIP3   OH257296   4.835   4.848   8.384
19140TIP3    H157297   4.862   4.817   8.296
19140TIP3    H257298   4.887   4.931   8.392
19141TIP3   OH257299   5.354   5.462   8.172
19141TIP3    H157300   5.338   5.545   8.221
19141TIP3    H257301   5.314   5.395   8.228
19142TIP3   OH257302   4.966   5.385   8.712
19142TIP3    H157303   4.897   5.444   8.750
19142TIP3    H257304   4.911   5.326   8.656
19143TIP3   OH257305   4.717   4.938   8.815
19143TIP3    H157306   4.726   5.029   8.850
19143TIP3    H257307   4.621   4.926   8.820
19144TIP3   OH257308   5.037   5.402   7.709
19144TIP3    H157309   5.118   5.451   7.732
19144TIP3    H257310   4.978   5.471   7.678
19145TIP3   OH257311   4.754   5.560   8.793
19145TIP3    H157312   4.721   5.553   8.702
19145TIP3    H257313   4.675   5.537   8.847
19146TIP3   OH257314   5.812   3.960   7.487
19146TIP3    H157315   5.731   3.982   7.538
19146TIP3    H257316   5.827   4.044   7.440
19147TIP3   OH257317   4.556   4.701   7.832
19147TIP3    H157318   4.490   4.747   7.776
19147TIP3    H257319   4.513   4.616   7.847
19148TIP3   OH257320   5.610   5.330   7.033
19148TIP3    H157321   5.620   5.427   7.022
19148TIP3    H257322   5.702   5.299   7.022
19149TIP3   OH257323   4.333   5.086   8.743
19149TIP3    H157324   4.273   5.061   8.671
19149TIP3    H257325   4.373   5.000   8.769
19150TIP3   OH257326   4.191   5.279   8.376
19150TIP3    H157327   4.286   5.269   8.364
19150TIP3    H257328   4.187   5.357   8.433
19151TIP3   OH257329   6.055   5.733   8.434
19151TIP3    H157330   6.054   5.636   8.440
19151TIP3    H257331   5.971   5.756   8.477
19152TIP3   OH257332   5.156   5.534   8.543
19152TIP3    H157333   5.146   5.616   8.596
19152TIP3    H257334   5.109   5.469   8.599
19153TIP3   OH257335   4.917   5.647   7.516
19153TIP3    H157336   4.874   5.628   7.431
19153TIP3    H257337   4.886   5.737   7.537
19154TIP3   OH257338   4.358   5.496   7.902
19154TIP3    H157339   4.409   5.487   7.986
19154TIP3    H257340   4.302   5.417   7.907
19155TIP3   OH257341   5.122   5.546   7.157
19155TIP3    H157342   5.181   5.477   7.121
19155TIP3    H257343   5.156   5.555   7.249
19156TIP3   OH257344   5.171   5.596   7.428
19156TIP3    H157345   5.084   5.603   7.473
19156TIP3    H257346   5.223   5.551   7.497
19157TIP3   OH257347   5.942   4.861   8.706
19157TIP3    H157348   5.864   4.881   8.652
19157TIP3    H257349   5.954   4.765   8.690
19158TIP3   OH257350   4.532   5.277   8.739
19158TIP3    H157351   4.590   5.255   8.815
19158TIP3    H257352   4.463   5.207   8.744
19159TIP3   OH257353   4.940   4.091   8.515
19159TIP3    H157354   4.850   4.064   8.489
19159TIP3    H257355   4.919   4.177   8.557
19160TIP3   OH257356   5.474   4.208   8.708
19160TIP3    H157357   5.540   4.181   8.775
19160TIP3    H257358   5.389   4.190   8.753
19161TIP3   OH257359   5.715   4.637   8.628
19161TIP3    H157360   5.663   4.637   8.712
19161TIP3    H257361   5.690   4.723   8.588
19162TIP3   OH257362   5.338   4.815   7.143
19162TIP3    H157363   5.340   4.733   7.090
19162TIP3    H257364   5.431   4.824   7.170
19163TIP3   OH257365   5.087   4.135   7.479
19163TIP3    H157366   5.058   4.145   7.571
19163TIP3    H257367   5.045   4.050   7.455
19164TIP3   OH257368   4.867   4.614   8.527
19164TIP3    H157369   4.822   4.637   8.611
19164TIP3    H257370   4.858   4.698   8.477
19165TIP3   OH257371   4.756   4.492   8.047
19165TIP3    H157372   4.663   4.468   8.063
19165TIP3    H257373   4.770   4.453   7.958
19166TIP3   OH257374   5.246   4.578   7.767
19166TIP3    H157375   5.194   4.658   7.745
19166TIP3    H257376   5.270   4.554   7.675
19167TIP3   OH257377   5.421   4.861   8.862
19167TIP3    H157378   5.397   4.789   8.925
19167TIP3    H257379   5.516   4.868   8.877
19168TIP3   OH257380   5.403   4.609   8.015
19168TIP3    H157381   5.348   4.648   7.945
19168TIP3    H257382   5.432   4.528   7.968
19169TIP3   OH257383   4.690   4.639   8.742
19169TIP3    H157384   4.718   4.707   8.806
19169TIP3    H257385   4.683   4.559   8.798
19170TIP3   OH257386   4.738   4.112   7.451
19170TIP3    H157387   4.734   4.113   7.549
19170TIP3    H257388   4.661   4.168   7.429
19171TIP3   OH257389   4.284   4.157   8.324
19171TIP3    H157390   4.358   4.193   8.378
19171TIP3    H257391   4.328   4.132   8.241
19172TIP3   OH257392   4.256   4.140   7.842
19172TIP3    H157393   4.303   4.178   7.765
19172TIP3    H257394   4.197   4.215   7.863
19173TIP3   OH257395   5.436   4.853   8.454
19173TIP3    H157396   5.448   4.791   8.379
19173TIP3    H257397   5.388   4.796   8.517
19174TIP3   OH257398   5.082   4.304   8.110
19174TIP3    H157399   5.000   4.313   8.162
19174TIP3    H257400   5.149   4.332   8.174
19175TIP3   OH257401   4.516   4.372   8.118
19175TIP3    H157402   4.422   4.379   8.090
19175TIP3    H257403   4.542   4.282   8.092
19176TIP3   OH257404   4.788   4.367   7.804
19176TIP3    H157405   4.883   4.384   7.787
19176TIP3    H257406   4.744   4.393   7.720
19177TIP3   OH257407   5.579   4.387   8.311
19177TIP3    H157408   5.541   4.405   8.400
19177TIP3    H257409   5.509   4.331   8.273
19178TIP3   OH257410   4.625   4.399   7.583
19178TIP3    H157411   4.553   4.358   7.532
19178TIP3    H257412   4.677   4.439   7.510
19179TIP3   OH257413   5.744   6.082   8.529
19179TIP3    H157414   5.742   6.103   8.434
19179TIP3    H257415   5.824   6.130   8.558
19180TIP3   OH257416   4.700   5.191   8.950
19180TIP3    H157417   4.781   5.223   8.994
19180TIP3    H257418   4.638   5.193   9.026
19181TIP3   OH257419   5.155   4.620   8.199
19181TIP3    H157420   5.239   4.623   8.149
19181TIP3    H257421   5.186   4.602   8.289
19182TIP3   OH257422   4.687   4.135   8.081
19182TIP3    H157423   4.659   4.053   8.126
19182TIP3    H257424   4.742   4.102   8.009
19183TIP3   OH257425   5.140   4.534   8.509
19183TIP3    H157426   5.053   4.579   8.507
19183TIP3    H257427   5.199   4.600   8.550
19184TIP3   OH257428   4.874   4.936   7.584
19184TIP3    H157429   4.804   4.868   7.579
19184TIP3    H257430   4.863   4.967   7.678
19185TIP3   OH257431   5.781   5.168   8.222
19185TIP3    H157432   5.802   5.218   8.140
19185TIP3    H257433   5.696   5.125   8.198
19186TIP3   OH257434   5.339   4.253   7.456
19186TIP3    H157435   5.244   4.229   7.457
19186TIP3    H257436   5.330   4.351   7.446
19187TIP3   OH257437   4.562   4.945   8.266
19187TIP3    H157438   4.607   4.925   8.181
19187TIP3    H257439   4.618   4.898   8.329
19188TIP3   OH257440   5.019   5.081   7.403
19188TIP3    H157441   4.974   5.168   7.415
19188TIP3    H257442   4.971   5.026   7.468
19189TIP3   OH257443   4.449   4.877   8.881
19189TIP3    H157444   4.477   4.866   8.974
19189TIP3    H257445   4.383   4.807   8.871
19190TIP3   OH257446   5.175   4.985   8.903
19190TIP3    H157447   5.113   4.936   8.846
19190TIP3    H257448   5.261   4.954   8.869
19191TIP3   OH257449   5.433   5.510   8.481
19191TIP3    H157450   5.337   5.505   8.493
19191TIP3    H257451   5.459   5.561   8.560
19192TIP3   OH257452   5.857   4.580   7.384
19192TIP3    H157453   5.794   4.535   7.323
19192TIP3    H257454   5.847   4.672   7.350
19193TIP3   OH257455   6.068   5.440   8.473
19193TIP3    H157456   5.970   5.434   8.463
19193TIP3    H257457   6.095   5.409   8.384
19194TIP3   OH257458   5.546   5.400   7.299
19194TIP3    H157459   5.523   5.331   7.363
19194TIP3    H257460   5.559   5.351   7.217
19195TIP3   OH257461   5.559   5.030   8.132
19195TIP3    H157462   5.469   5.003   8.159
19195TIP3    H257463   5.585   4.949   8.084
19196TIP3   OH257464   4.669   5.254   7.881
19196TIP3    H157465   4.673   5.339   7.834
19196TIP3    H257466   4.575   5.246   7.901
19197TIP3   OH257467   4.233   4.563   7.591
19197TIP3    H157468   4.282   4.645   7.613
19197TIP3    H257469   4.159   4.568   7.654
19198TIP3   OH257470   4.809   5.021   7.833
19198TIP3    H157471   4.775   5.112   7.851
19198TIP3    H257472   4.778   4.974   7.912
19199TIP3   OH257473   4.938   5.603   8.360
19199TIP3    H157474   4.989   5.672   8.313
19199TIP3    H257475   5.010   5.557   8.407
19200TIP3   OH257476   4.589   5.500   7.741
19200TIP3    H157477   4.505   5.506   7.790
19200TIP3    H257478   4.621   5.593   7.746
19201TIP3   OH257479   5.303   5.138   7.202
19201TIP3    H157480   5.360   5.111   7.277
19201TIP3    H257481   5.220   5.095   7.230
19202TIP3   OH257482   5.577   5.771   8.373
19202TIP3    H157483   5.501   5.711   8.366
19202TIP3    H257484   5.560   5.833   8.298
19203TIP3   OH257485   5.645   5.606   7.021
19203TIP3    H157486   5.687   5.683   6.978
19203TIP3    H257487   5.563   5.649   7.053
19204TIP3   OH257488   4.666   4.379   8.890
19204TIP3    H157489   4.570   4.385   8.906
19204TIP3    H257490   4.695   4.322   8.962
19205TIP3   OH257491   5.464   5.072   7.415
19205TIP3    H157492   5.447   5.003   7.483
19205TIP3    H257493   5.561   5.061   7.407
19206TIP3   OH257494   4.378   5.465   8.522
19206TIP3    H157495   4.434   5.390   8.547
19206TIP3    H257496   4.412   5.533   8.582
19207TIP3   OH257497   4.667   5.111   7.201
19207TIP3    H157498   4.689   5.021   7.174
19207TIP3    H257499   4.652   5.099   7.297
19208TIP3   OH257500   4.615   5.114   7.475
19208TIP3    H157501   4.690   5.085   7.530
19208TIP3    H257502   4.622   5.212   7.483
19209TIP3   OH257503   4.350   4.806   7.676
19209TIP3    H157504   4.286   4.853   7.734
19209TIP3    H257505   4.369   4.876   7.611
19210TIP3   OH257506   5.499   4.447   8.570
19210TIP3    H157507   5.581   4.483   8.606
19210TIP3    H257508   5.486   4.365   8.623
19211TIP3   OH257509   5.382   4.196   7.731
19211TIP3    H157510   5.365   4.224   7.638
19211TIP3    H257511   5.419   4.279   7.769
19212TIP3   OH257512   4.878   5.312   7.421
19212TIP3    H157513   4.793   5.341   7.459
19212TIP3    H257514   4.899   5.386   7.363
19213TIP3   OH257515   5.069   4.375   7.834
19213TIP3    H157516   5.134   4.444   7.808
19213TIP3    H257517   5.080   4.374   7.931
19214TIP3   OH257518   5.329   4.693   8.647
19214TIP3    H157519   5.355   4.750   8.722
19214TIP3    H257520   5.390   4.618   8.655
19215TIP3   OH257521   5.216   4.103   7.938
19215TIP3    H157522   5.201   4.181   7.996
19215TIP3    H257523   5.276   4.142   7.870
19216TIP3   OH257524   4.621   5.388   7.489
19216TIP3    H157525   4.592   5.459   7.427
19216TIP3    H257526   4.607   5.430   7.576
19217TIP3   OH257527   4.726   4.101   7.729
19217TIP3    H157528   4.724   4.193   7.763
19217TIP3    H257529   4.822   4.083   7.737
19218TIP3   OH257530   5.981   4.593   8.626
19218TIP3    H157531   5.883   4.592   8.632
19218TIP3    H257532   5.991   4.561   8.535
19219TIP3   OH257533   5.633   4.784   8.009
19219TIP3    H157534   5.552   4.732   8.024
19219TIP3    H257535   5.700   4.735   8.060
19220TIP3   OH257536   4.342   5.021   7.481
19220TIP3    H157537   4.411   5.089   7.494
19220TIP3    H257538   4.389   4.965   7.415
19221TIP3   OH257539   4.287   4.294   7.618
19221TIP3    H157540   4.288   4.391   7.612
19221TIP3    H257541   4.205   4.272   7.572
19222TIP3   OH257542   5.602   5.749   7.963
19222TIP3    H157543   5.559   5.795   7.887
19222TIP3    H257544   5.696   5.765   7.941
19223TIP3   OH257545   4.674   4.014   8.491
19223TIP3    H157546   4.644   3.982   8.403
19223TIP3    H257547   4.664   3.935   8.547
19224TIP3   OH257548   4.215   5.232   7.872
19224TIP3    H157549   4.141   5.264   7.925
19224TIP3    H257550   4.193   5.271   7.784
19225TIP3   OH257551   4.370   5.773   8.942
19225TIP3    H157552   4.457   5.773   8.988
19225TIP3    H257553   4.352   5.677   8.939
19226TIP3   OH257554   4.854   5.745   8.978
19226TIP3    H157555   4.945   5.717   8.994
19226TIP3    H257556   4.827   5.683   8.908
19227TIP3   OH257557   4.833   5.314   7.114
19227TIP3    H157558   4.777   5.243   7.154
19227TIP3    H257559   4.910   5.261   7.087
19228TIP3   OH257560   5.489   5.649   8.718
19228TIP3    H157561   5.480   5.577   8.784
19228TIP3    H257562   5.570   5.695   8.749
19229TIP3   OH257563   5.270   5.355   7.025
19229TIP3    H157564   5.306   5.288   7.088
19229TIP3    H257565   5.334   5.351   6.952
19230TIP3   OH257566   4.500   5.177   9.142
19230TIP3    H157567   4.517   5.081   9.145
19230TIP3    H257568   4.412   5.180   9.098
19231TIP3   OH257569   4.477   4.830   7.336
19231TIP3    H157570   4.534   4.798   7.409
19231TIP3    H257571   4.545   4.835   7.264
19232TIP3   OH257572   5.110   5.266   8.917
19232TIP3    H157573   5.073   5.289   8.829
19232TIP3    H257574   5.140   5.173   8.903
19233TIP3   OH257575   4.979   5.025   7.138
19233TIP3    H157576   4.990   5.041   7.234
19233TIP3    H257577   4.984   4.928   7.135
19234TIP3   OH257578   5.606   5.275   8.534
19234TIP3    H157579   5.676   5.318   8.482
19234TIP3    H257580   5.528   5.325   8.505
19235TIP3   OH257581   4.617   4.906   9.121
19235TIP3    H157582   4.699   4.862   9.098
19235TIP3    H257583   4.640   4.942   9.210
19236TIP3   OH257584   4.680   4.734   7.556
19236TIP3    H157585   4.662   4.696   7.643
19236TIP3    H257586   4.718   4.657   7.507
19237TIP3   OH257587   4.959   4.799   8.776
19237TIP3    H157588   4.881   4.858   8.786
19237TIP3    H257589   5.004   4.840   8.698
19238TIP3   OH257590   4.780   4.525   7.397
19238TIP3    H157591   4.756   4.529   7.302
19238TIP3    H257592   4.877   4.527   7.393
19239TIP3   OH257593   5.500   5.208   8.931
19239TIP3    H157594   5.540   5.166   8.853
19239TIP3    H257595   5.478   5.131   8.987
19240TIP3   OH257596   5.619   4.860   7.054
19240TIP3    H157597   5.585   4.812   6.976
19240TIP3    H257598   5.579   4.948   7.037
19241TIP3   OH257599   5.078   4.588   8.910
19241TIP3    H157600   5.079   4.508   8.853
19241TIP3    H257601   5.038   4.655   8.850
19242TIP3   OH257602   5.080   4.368   8.721
19242TIP3    H157603   5.109   4.415   8.640
19242TIP3    H257604   4.987   4.349   8.700
19243TIP3   OH257605   5.102   4.929   8.584
19243TIP3    H157606   5.185   4.912   8.539
19243TIP3    H257607   5.073   5.009   8.533
19244TIP3   OH257608   5.709   4.881   8.983
19244TIP3    H157609   5.749   4.793   8.980
19244TIP3    H257610   5.760   4.928   8.915
19245TIP3   OH257611   5.727   5.116   8.714
19245TIP3    H157612   5.673   5.177   8.659
19245TIP3    H257613   5.817   5.145   8.687
19246TIP3   OH257614   4.957   4.698   9.141
19246TIP3    H157615   4.887   4.632   9.155
19246TIP3    H257616   4.991   4.674   9.053
19247TIP3   OH257617   5.214   4.135   8.786
19247TIP3    H157618   5.166   4.218   8.763
19247TIP3    H257619   5.144   4.069   8.773
19248TIP3   OH257620   5.339   4.641   9.001
19248TIP3    H157621   5.322   4.630   9.097
19248TIP3    H257622   5.250   4.619   8.968
19249TIP3   OH257623   5.581   4.598   8.860
19249TIP3    H157624   5.502   4.595   8.918
19249TIP3    H257625   5.651   4.562   8.918
19250TIP3   OH257626   5.812   4.533   9.013
19250TIP3    H157627   5.821   4.436   9.029
19250TIP3    H257628   5.807   4.570   9.103
19251TIP3   OH257629   4.794   4.479   9.194
19251TIP3    H157630   4.805   4.389   9.160
19251TIP3    H257631   4.831   4.469   9.284
19252TIP3   OH257632   5.309   4.146   9.043
19252TIP3    H157633   5.375   4.074   9.035
19252TIP3    H257634   5.268   4.141   8.954
19253TIP3   OH257635   5.375   4.363   9.200
19253TIP3    H157636   5.351   4.292   9.136
19253TIP3    H257637   5.297   4.422   9.195
19254TIP3   OH257638   4.594   5.593   7.302
19254TIP3    H157639   4.689   5.585   7.284
19254TIP3    H257640   4.566   5.640   7.221
19255TIP3   OH257641   4.074   4.973   7.518
19255TIP3    H157642   4.169   4.996   7.505
19255TIP3    H257643   4.071   4.884   7.478
19256TIP3   OH257644   3.988   5.585   7.932
19256TIP3    H157645   3.921   5.522   7.897
19256TIP3    H257646   4.033   5.528   7.999
19257TIP3   OH257647   4.123   5.438   8.119
19257TIP3    H157648   4.115   5.362   8.179
19257TIP3    H257649   4.177   5.498   8.175
19258TIP3   OH257650   5.853   5.845   7.912
19258TIP3    H157651   5.889   5.863   8.001
19258TIP3    H257652   5.911   5.897   7.855
19259TIP3   OH257653   5.879   5.858   8.201
19259TIP3    H157654   5.836   5.770   8.196
19259TIP3    H257655   5.963   5.832   8.243
19260TIP3   OH257656   5.937   5.530   8.780
19260TIP3    H157657   5.846   5.546   8.808
19260TIP3    H257658   5.975   5.621   8.777
19261TIP3   OH257659   5.746   5.046   7.392
19261TIP3    H157660   5.816   5.109   7.368
19261TIP3    H257661   5.783   5.005   7.473
19262TIP3   OH257662   5.873   4.912   7.595
19262TIP3    H157663   5.805   4.868   7.651
19262TIP3    H257664   5.931   4.953   7.662
19263TIP3   OH257665   5.928   5.307   8.032
19263TIP3    H157666   5.977   5.243   7.977
19263TIP3    H257667   5.916   5.382   7.970
19264TIP3   OH257668   5.757   5.606   8.226
19264TIP3    H157669   5.683   5.646   8.276
19264TIP3    H257670   5.709   5.557   8.156
19265TIP3   OH257671   5.811   4.821   7.243
19265TIP3    H157672   5.740   4.826   7.175
19265TIP3    H257673   5.783   4.895   7.301
19266TIP3   OH257674   5.696   4.485   7.187
19266TIP3    H157675   5.629   4.536   7.141
19266TIP3    H257676   5.662   4.394   7.175
19267TIP3   OH257677   5.694   4.765   7.742
19267TIP3    H157678   5.693   4.668   7.735
19267TIP3    H257679   5.674   4.779   7.837
19268TIP3   OH257680   4.313   4.842   8.491
19268TIP3    H157681   4.312   4.815   8.397
19268TIP3    H257682   4.410   4.846   8.508
19269TIP3   OH257683   5.972   5.194   8.608
19269TIP3    H157684   6.046   5.131   8.596
19269TIP3    H257685   5.992   5.263   8.542
19270TIP3   OH257686   6.159   4.999   8.621
19270TIP3    H157687   6.083   4.950   8.659
19270TIP3    H257688   6.231   4.934   8.634
19271TIP3   OH257689   5.630   4.216   7.174
19271TIP3    H157690   5.696   4.197   7.243
19271TIP3    H257691   5.547   4.180   7.210
19272TIP3   OH257692   5.691   4.488   7.667
19272TIP3    H157693   5.733   4.400   7.666
19272TIP3    H257694   5.705   4.518   7.576
19273TIP3   OH257695   5.846   4.655   8.137
19273TIP3    H157696   5.930   4.684   8.095
19273TIP3    H257697   5.856   4.698   8.224
19274TIP3   OH257698   5.913   4.804   8.367
19274TIP3    H157699   5.834   4.838   8.414
19274TIP3    H257700   5.944   4.885   8.321
19275TIP3   OH257701   4.528   4.531   9.157
19275TIP3    H157702   4.626   4.527   9.163
19275TIP3    H257703   4.505   4.447   9.201
19276TIP3   OH257704   6.366   4.395   8.923
19276TIP3    H157705   6.423   4.329   8.878
19276TIP3    H257706   6.334   4.449   8.848
19277TIP3   OH257707   5.799   4.230   7.671
19277TIP3    H157708   5.839   4.218   7.760
19277TIP3    H257709   5.731   4.159   7.672
19278TIP3   OH257710   4.490   4.222   8.498
19278TIP3    H157711   4.553   4.149   8.507
19278TIP3    H257712   4.550   4.298   8.490
19279TIP3   OH257713   4.293   4.495   8.569
19279TIP3    H157714   4.343   4.490   8.486
19279TIP3    H257715   4.320   4.582   8.602
19280TIP3   OH257716   6.234   4.533   8.731
19280TIP3    H157717   6.147   4.575   8.747
19280TIP3    H257718   6.207   4.463   8.669
19281TIP3   OH257719   5.875   4.170   7.313
19281TIP3    H157720   5.913   4.101   7.256
19281TIP3    H257721   5.937   4.244   7.303
19282TIP3   OH257722   4.276   3.994   8.067
19282TIP3    H157723   4.183   3.998   8.096
19282TIP3    H257724   4.276   4.056   7.991
19283TIP3   OH257725   5.433   5.706   7.574
19283TIP3    H157726   5.485   5.687   7.493
19283TIP3    H257727   5.493   5.765   7.623
19284TIP3   OH257728   4.495   4.074   8.882
19284TIP3    H157729   4.448   4.077   8.967
19284TIP3    H257730   4.431   4.117   8.823
19285TIP3   OH257731   4.536   5.513   8.963
19285TIP3    H157732   4.447   5.476   8.949
19285TIP3    H257733   4.555   5.488   9.054
19286TIP3   OH257734   4.711   5.539   8.510
19286TIP3    H157735   4.671   5.618   8.468
19286TIP3    H257736   4.799   5.545   8.468
19287TIP3   OH257737   5.157   5.795   8.654
19287TIP3    H157738   5.203   5.791   8.740
19287TIP3    H257739   5.226   5.837   8.598
19288TIP3   OH257740   5.339   5.936   8.502
19288TIP3    H157741   5.408   5.881   8.463
19288TIP3    H257742   5.391   5.991   8.564
19289TIP3   OH257743   6.133   4.298   8.606
19289TIP3    H157744   6.043   4.297   8.570
19289TIP3    H257745   6.161   4.205   8.592
19290TIP3   OH257746   4.390   5.798   8.528
19290TIP3    H157747   4.300   5.833   8.510
19290TIP3    H257748   4.402   5.825   8.620
19291TIP3   OH257749   4.628   5.778   8.391
19291TIP3    H157750   4.541   5.788   8.435
19291TIP3    H257751   4.608   5.807   8.300
19292TIP3   OH257752   5.057   5.807   8.184
19292TIP3    H157753   4.984   5.826   8.123
19292TIP3    H257754   5.067   5.893   8.231
19293TIP3   OH257755   5.324   5.743   8.236
19293TIP3    H157756   5.229   5.758   8.218
19293TIP3    H257757   5.364   5.821   8.195
19294TIP3   OH257758   5.532   5.937   8.156
19294TIP3    H157759   5.517   6.020   8.105
19294TIP3    H257760   5.558   5.875   8.085
19295TIP3   OH257761   4.303   5.589   8.278
19295TIP3    H157762   4.331   5.564   8.369
19295TIP3    H257763   4.376   5.545   8.228
19296TIP3   OH257764   4.498   5.460   8.134
19296TIP3    H157765   4.514   5.375   8.181
19296TIP3    H257766   4.589   5.496   8.130
19297TIP3   OH257767   4.764   5.557   8.137
19297TIP3    H157768   4.792   5.463   8.129
19297TIP3    H257769   4.810   5.577   8.221
19298TIP3   OH257770   5.346   4.215   8.231
19298TIP3    H157771   5.295   4.146   8.276
19298TIP3    H257772   5.411   4.164   8.180
19299TIP3   OH257773   5.863   4.090   8.131
19299TIP3    H157774   5.899   4.144   8.057
19299TIP3    H257775   5.768   4.111   8.126
19300TIP3   OH257776   5.959   4.189   7.895
19300TIP3    H157777   6.032   4.143   7.851
19300TIP3    H257778   5.987   4.283   7.881
19301TIP3   OH257779   4.588   3.921   8.242
19301TIP3    H157780   4.495   3.888   8.242
19301TIP3    H257781   4.637   3.836   8.237
19302TIP3   OH257782   4.371   3.789   7.887
19302TIP3    H157783   4.404   3.846   7.815
19302TIP3    H257784   4.344   3.855   7.954
19303TIP3   OH257785   5.031   3.951   8.123
19303TIP3    H157786   5.085   4.004   8.061
19303TIP3    H257787   5.051   3.995   8.207
19304TIP3   OH257788   5.583   4.099   8.107
19304TIP3    H157789   5.571   4.070   8.016
19304TIP3    H257790   5.564   4.016   8.157
19305TIP3   OH257791   5.607   4.022   7.667
19305TIP3    H157792   5.522   4.070   7.677
19305TIP3    H257793   5.587   3.939   7.714
19306TIP3   OH257794   4.091   5.359   7.668
19306TIP3    H157795   4.006   5.326   7.634
19306TIP3    H257796   4.078   5.454   7.657
19307TIP3   OH257797   4.491   3.947   7.657
19307TIP3    H157798   4.539   3.888   7.595
19307TIP3    H257799   4.563   4.003   7.690
19308TIP3   OH257800   5.003   4.124   7.752
19308TIP3    H157801   5.067   4.081   7.811
19308TIP3    H257802   5.023   4.218   7.774
19309TIP3   OH257803   4.862   5.552   7.249
19309TIP3    H157804   4.951   5.572   7.215
19309TIP3    H257805   4.840   5.475   7.191
19310TIP3   OH257806   5.580   5.666   7.343
19310TIP3    H157807   5.573   5.569   7.331
19310TIP3    H257808   5.536   5.697   7.261
19311TIP3   OH257809   4.795   4.197   9.129
19311TIP3    H157810   4.762   4.130   9.191
19311TIP3    H257811   4.889   4.201   9.157
19312TIP3   OH257812   5.042   4.198   9.250
19312TIP3    H157813   5.128   4.173   9.214
19312TIP3    H257814   5.031   4.131   9.322
19313TIP3   OH257815   4.167   5.388   7.308
19313TIP3    H157816   4.168   5.409   7.403
19313TIP3    H257817   4.255   5.346   7.295
19314TIP3   OH257818   5.869   4.260   9.038
19314TIP3    H157819   5.888   4.230   9.130
19314TIP3    H257820   5.957   4.256   8.997
19315TIP3   OH257821   5.802   5.813   8.538
19315TIP3    H157822   5.728   5.781   8.483
19315TIP3    H257823   5.788   5.909   8.532
19316TIP3   OH257824   7.075   5.186   7.297
19316TIP3    H157825   7.047   5.277   7.277
19316TIP3    H257826   6.996   5.137   7.266
19317TIP3   OH257827   7.078   5.183   7.675
19317TIP3    H157828   7.104   5.155   7.764
19317TIP3    H257829   7.030   5.105   7.642
19318TIP3   OH257830   6.375   5.080   8.040
19318TIP3    H157831   6.408   5.014   8.104
19318TIP3    H257832   6.447   5.144   8.040
19319TIP3   OH257833   7.318   5.486   7.359
19319TIP3    H157834   7.299   5.417   7.424
19319TIP3    H257835   7.342   5.562   7.414
19320TIP3   OH257836   6.342   5.478   7.807
19320TIP3    H157837   6.341   5.382   7.791
19320TIP3    H257838   6.426   5.503   7.766
19321TIP3   OH257839   6.052   4.694   7.555
19321TIP3    H157840   6.002   4.777   7.571
19321TIP3    H257841   5.980   4.638   7.520
19322TIP3   OH257842   6.111   4.982   7.727
19322TIP3    H157843   6.160   4.905   7.762
19322TIP3    H257844   6.167   5.010   7.653
19323TIP3   OH257845   6.966   5.952   7.374
19323TIP3    H157846   7.015   5.878   7.331
19323TIP3    H257847   6.947   5.916   7.462
19324TIP3   OH257848   6.873   5.409   7.726
19324TIP3    H157849   6.910   5.335   7.676
19324TIP3    H257850   6.956   5.454   7.751
19325TIP3   OH257851   7.884   4.731   7.724
19325TIP3    H157852   7.913   4.814   7.767
19325TIP3    H257853   7.905   4.750   7.631
19326TIP3   OH257854   7.285   4.912   7.760
19326TIP3    H157855   7.327   4.826   7.779
19326TIP3    H257856   7.253   4.898   7.669
19327TIP3   OH257857   6.623   4.571   7.724
19327TIP3    H157858   6.600   4.644   7.663
19327TIP3    H257859   6.574   4.498   7.681
19328TIP3   OH257860   7.315   4.661   7.347
19328TIP3    H157861   7.388   4.646   7.412
19328TIP3    H257862   7.367   4.698   7.273
19329TIP3   OH257863   6.255   4.773   7.831
19329TIP3    H157864   6.338   4.753   7.879
19329TIP3    H257865   6.266   4.717   7.752
19330TIP3   OH257866   6.697   4.971   7.620
19330TIP3    H157867   6.790   4.944   7.637
19330TIP3    H257868   6.657   4.887   7.590
19331TIP3   OH257869   7.958   4.939   7.893
19331TIP3    H157870   7.874   4.986   7.874
19331TIP3    H257871   7.970   4.962   7.987
19332TIP3   OH257872   6.618   4.554   8.159
19332TIP3    H157873   6.559   4.592   8.092
19332TIP3    H257874   6.566   4.574   8.240
19333TIP3   OH257875   6.972   5.409   7.164
19333TIP3    H157876   6.921   5.383   7.086
19333TIP3    H257877   6.927   5.493   7.188
19334TIP3   OH257878   6.726   5.330   7.956
19334TIP3    H157879   6.661   5.394   7.994
19334TIP3    H257880   6.763   5.382   7.882
19335TIP3   OH257881   7.527   4.664   7.518
19335TIP3    H157882   7.515   4.616   7.601
19335TIP3    H257883   7.580   4.741   7.545
19336TIP3   OH257884   6.490   4.669   7.944
19336TIP3    H157885   6.551   4.743   7.966
19336TIP3    H257886   6.539   4.630   7.868
19337TIP3   OH257887   6.557   5.522   8.055
19337TIP3    H157888   6.526   5.600   8.006
19337TIP3    H257889   6.476   5.507   8.110
19338TIP3   OH257890   5.952   5.210   7.286
19338TIP3    H157891   5.903   5.241   7.208
19338TIP3    H257892   5.979   5.296   7.327
19339TIP3   OH257893   7.390   5.730   7.527
19339TIP3    H157894   7.301   5.719   7.569
19339TIP3    H257895   7.379   5.816   7.483
19340TIP3   OH257896   7.677   4.631   7.891
19340TIP3    H157897   7.590   4.660   7.861
19340TIP3    H257898   7.736   4.663   7.819
19341TIP3   OH257899   6.977   4.276   7.874
19341TIP3    H157900   6.962   4.181   7.888
19341TIP3    H257901   6.899   4.314   7.919
19342TIP3   OH257902   7.096   5.776   7.207
19342TIP3    H157903   7.143   5.694   7.183
19342TIP3    H257904   7.154   5.842   7.162
19343TIP3   OH257905   7.235   5.560   7.106
19343TIP3    H157906   7.184   5.485   7.074
19343TIP3    H257907   7.271   5.525   7.190
19344TIP3   OH257908   7.614   5.644   7.870
19344TIP3    H157909   7.601   5.565   7.813
19344TIP3    H257910   7.595   5.718   7.809
19345TIP3   OH257911   6.905   5.035   7.128
19345TIP3    H157912   6.823   5.087   7.109
19345TIP3    H257913   6.949   5.035   7.041
19346TIP3   OH257914   6.864   4.821   6.845
19346TIP3    H157915   6.931   4.871   6.894
19346TIP3    H257916   6.921   4.757   6.797
19347TIP3   OH257917   7.809   5.281   7.716
19347TIP3    H157918   7.725   5.331   7.722
19347TIP3    H257919   7.837   5.304   7.625
19348TIP3   OH257920   7.252   5.119   7.100
19348TIP3    H157921   7.197   5.144   7.177
19348TIP3    H257922   7.335   5.094   7.145
19349TIP3   OH257923   7.488   5.159   8.011
19349TIP3    H157924   7.483   5.243   8.060
19349TIP3    H257925   7.400   5.161   7.966
19350TIP3   OH257926   6.485   5.116   7.514
19350TIP3    H157927   6.443   5.058   7.447
19350TIP3    H257928   6.562   5.062   7.542
19351TIP3   OH257929   6.608   5.522   7.669
19351TIP3    H157930   6.589   5.483   7.582
19351TIP3    H257931   6.700   5.494   7.684
19352TIP3   OH257932   6.629   5.085   7.871
19352TIP3    H157933   6.655   5.071   7.778
19352TIP3    H257934   6.664   5.175   7.891
19353TIP3   OH257935   7.151   5.724   7.649
19353TIP3    H157936   7.132   5.805   7.700
19353TIP3    H257937   7.132   5.652   7.712
19354TIP3   OH257938   6.759   5.644   8.197
19354TIP3    H157939   6.698   5.707   8.241
19354TIP3    H257940   6.693   5.592   8.145
19355TIP3   OH257941   7.095   4.975   6.926
19355TIP3    H157942   7.152   5.036   6.978
19355TIP3    H257943   7.121   5.000   6.834
19356TIP3   OH257944   6.513   5.199   8.296
19356TIP3    H157945   6.518   5.287   8.339
19356TIP3    H257946   6.417   5.181   8.305
19357TIP3   OH257947   6.839   5.654   7.196
19357TIP3    H157948   6.910   5.714   7.224
19357TIP3    H257949   6.770   5.714   7.165
19358TIP3   OH257950   6.554   5.814   8.282
19358TIP3    H157951   6.518   5.812   8.191
19358TIP3    H257952   6.475   5.790   8.335
19359TIP3   OH257953   7.608   4.218   6.974
19359TIP3    H157954   7.527   4.238   7.025
19359TIP3    H257955   7.621   4.302   6.925
19360TIP3   OH257956   6.353   4.957   7.317
19360TIP3    H157957   6.286   5.006   7.264
19360TIP3    H257958   6.305   4.876   7.337
19361TIP3   OH257959   7.406   5.586   6.521
19361TIP3    H157960   7.414   5.683   6.508
19361TIP3    H257961   7.499   5.556   6.509
19362TIP3   OH257962   6.132   5.343   8.230
19362TIP3    H157963   6.066   5.327   8.160
19362TIP3    H257964   6.167   5.254   8.249
19363TIP3   OH257965   5.990   5.543   7.860
19363TIP3    H157966   6.085   5.528   7.847
19363TIP3    H257967   5.992   5.617   7.923
19364TIP3   OH257968   7.852   5.987   7.915
19364TIP3    H157969   7.850   5.891   7.931
19364TIP3    H257970   7.769   6.013   7.961
19365TIP3   OH257971   6.959   5.771   8.054
19365TIP3    H157972   6.957   5.865   8.085
19365TIP3    H257973   6.885   5.733   8.106
19366TIP3   OH257974   6.720   5.907   7.000
19366TIP3    H157975   6.667   5.885   6.921
19366TIP3    H257976   6.682   5.992   7.029
19367TIP3   OH257977   6.181   5.734   7.397
19367TIP3    H157978   6.189   5.799   7.471
19367TIP3    H257979   6.094   5.697   7.415
19368TIP3   OH257980   6.919   5.805   6.644
19368TIP3    H157981   6.978   5.735   6.608
19368TIP3    H257982   6.951   5.813   6.736
19369TIP3   OH257983   6.970   5.851   6.913
19369TIP3    H157984   6.880   5.863   6.953
19369TIP3    H257985   7.015   5.807   6.987
19370TIP3   OH257986   7.741   5.119   8.191
19370TIP3    H157987   7.660   5.133   8.141
19370TIP3    H257988   7.755   5.023   8.179
19371TIP3   OH257989   6.342   5.522   8.220
19371TIP3    H157990   6.387   5.504   8.305
19371TIP3    H257991   6.263   5.464   8.225
19372TIP3   OH257992   6.737   4.350   8.000
19372TIP3    H157993   6.648   4.319   7.975
19372TIP3    H257994   6.713   4.433   8.045
19373TIP3   OH257995   7.269   4.465   8.195
19373TIP3    H157996   7.337   4.438   8.261
19373TIP3    H257997   7.185   4.445   8.241
19374TIP3   OH257998   7.511   4.896   8.115
19374TIP3    H157999   7.460   4.891   8.199
19374TIP3    H258000   7.484   4.982   8.078
19375TIP3   OH258001   7.169   5.024   6.670
19375TIP3    H158002   7.136   4.998   6.582
19375TIP3    H258003   7.248   5.075   6.645
19376TIP3   OH258004   6.883   4.398   6.972
19376TIP3    H158005   6.849   4.397   7.064
19376TIP3    H258006   6.842   4.316   6.938
19377TIP3   OH258007   6.670   4.864   8.021
19377TIP3    H158008   6.617   4.886   8.101
19377TIP3    H258009   6.655   4.945   7.966
19378TIP3   OH258010   6.552   4.750   7.534
19378TIP3    H158011   6.459   4.726   7.551
19378TIP3    H258012   6.564   4.710   7.445
19379TIP3   OH258013   7.043   4.838   7.261
19379TIP3    H158014   6.989   4.909   7.220
19379TIP3    H258015   7.096   4.808   7.185
19380TIP3   OH258016   7.217   5.116   8.348
19380TIP3    H158017   7.194   5.043   8.410
19380TIP3    H258018   7.310   5.130   8.370
19381TIP3   OH258019   7.200   4.867   7.501
19381TIP3    H158020   7.140   4.897   7.431
19381TIP3    H258021   7.232   4.784   7.458
19382TIP3   OH258022   6.491   4.895   8.228
19382TIP3    H158023   6.505   4.962   8.296
19382TIP3    H258024   6.475   4.814   8.282
19383TIP3   OH258025   6.537   4.371   6.938
19383TIP3    H158026   6.528   4.370   7.036
19383TIP3    H258027   6.459   4.424   6.913
19384TIP3   OH258028   6.081   4.413   7.811
19384TIP3    H158029   6.156   4.447   7.863
19384TIP3    H258030   6.119   4.388   7.727
19385TIP3   OH258031   6.058   4.399   7.327
19385TIP3    H158032   6.101   4.440   7.249
19385TIP3    H258033   5.994   4.470   7.350
19386TIP3   OH258034   7.214   5.113   7.925
19386TIP3    H158035   7.244   5.040   7.866
19386TIP3    H258036   7.181   5.061   8.001
19387TIP3   OH258037   6.878   4.571   7.595
19387TIP3    H158038   6.794   4.571   7.645
19387TIP3    H258039   6.944   4.575   7.667
19388TIP3   OH258040   6.313   4.630   7.603
19388TIP3    H158041   6.218   4.641   7.577
19388TIP3    H258042   6.332   4.538   7.579
19389TIP3   OH258043   6.584   4.624   7.291
19389TIP3    H158044   6.677   4.643   7.268
19389TIP3    H258045   6.535   4.648   7.210
19390TIP3   OH258046   7.371   4.648   7.796
19390TIP3    H158047   7.337   4.661   7.887
19390TIP3    H258048   7.304   4.588   7.760
19391TIP3   OH258049   6.425   4.656   7.072
19391TIP3    H158050   6.350   4.615   7.026
19391TIP3    H258051   6.475   4.693   6.996
19392TIP3   OH258052   7.540   6.337   8.016
19392TIP3    H158053   7.537   6.363   7.923
19392TIP3    H258054   7.618   6.386   8.049
19393TIP3   OH258055   6.500   5.444   8.441
19393TIP3    H158056   6.578   5.479   8.488
19393TIP3    H258057   6.433   5.447   8.512
19394TIP3   OH258058   6.962   4.900   7.693
19394TIP3    H158059   7.036   4.861   7.644
19394TIP3    H258060   6.972   4.860   7.781
19395TIP3   OH258061   6.489   4.389   7.571
19395TIP3    H158062   6.452   4.310   7.616
19395TIP3    H258063   6.533   4.350   7.494
19396TIP3   OH258064   6.939   4.797   7.984
19396TIP3    H158065   6.849   4.833   7.996
19396TIP3    H258066   6.995   4.860   8.033
19397TIP3   OH258067   6.678   5.189   7.079
19397TIP3    H158068   6.605   5.124   7.067
19397TIP3    H258069   6.658   5.223   7.169
19398TIP3   OH258070   7.576   5.425   7.708
19398TIP3    H158071   7.598   5.475   7.626
19398TIP3    H258072   7.490   5.383   7.684
19399TIP3   OH258073   7.134   4.502   6.937
19399TIP3    H158074   7.037   4.485   6.946
19399TIP3    H258075   7.143   4.596   6.962
19400TIP3   OH258076   7.082   5.511   8.074
19400TIP3    H158077   7.091   5.485   8.166
19400TIP3    H258078   7.035   5.597   8.080
19401TIP3   OH258079   7.204   4.748   7.042
19401TIP3    H158080   7.300   4.755   7.058
19401TIP3    H258081   7.184   4.828   6.990
19402TIP3   OH258082   6.369   5.206   7.753
19402TIP3    H158083   6.407   5.178   7.667
19402TIP3    H258084   6.404   5.141   7.814
19403TIP3   OH258085   6.820   5.339   6.898
19403TIP3    H158086   6.773   5.425   6.904
19403TIP3    H258087   6.765   5.284   6.958
19404TIP3   OH258088   6.250   5.126   8.365
19404TIP3    H158089   6.265   5.115   8.461
19404TIP3    H258090   6.175   5.066   8.349
19405TIP3   OH258091   6.972   5.244   8.388
19405TIP3    H158092   6.911   5.187   8.338
19405TIP3    H258093   7.059   5.211   8.356
19406TIP3   OH258094   7.237   5.769   7.968
19406TIP3    H158095   7.141   5.764   7.982
19406TIP3    H258096   7.264   5.819   8.048
19407TIP3   OH258097   7.647   4.838   6.878
19407TIP3    H158098   7.584   4.793   6.817
19407TIP3    H258099   7.643   4.927   6.838
19408TIP3   OH258100   7.864   5.696   7.959
19408TIP3    H158101   7.766   5.692   7.952
19408TIP3    H258102   7.889   5.666   7.869
19409TIP3   OH258103   7.351   5.658   6.789
19409TIP3    H158104   7.318   5.591   6.850
19409TIP3    H258105   7.357   5.609   6.704
19410TIP3   OH258106   7.343   5.287   7.627
19410TIP3    H158107   7.249   5.262   7.640
19410TIP3    H258108   7.375   5.207   7.580
19411TIP3   OH258109   6.466   5.512   7.370
19411TIP3    H158110   6.465   5.597   7.321
19411TIP3    H258111   6.373   5.505   7.396
19412TIP3   OH258112   6.032   4.819   7.081
19412TIP3    H158113   6.077   4.904   7.103
19412TIP3    H258114   5.954   4.824   7.142
19413TIP3   OH258115   6.611   5.282   7.323
19413TIP3    H158116   6.571   5.370   7.338
19413TIP3    H258117   6.572   5.231   7.397
19414TIP3   OH258118   6.738   5.861   7.865
19414TIP3    H158119   6.772   5.923   7.797
19414TIP3    H258120   6.820   5.827   7.904
19415TIP3   OH258121   6.392   5.752   7.225
19415TIP3    H158122   6.311   5.749   7.281
19415TIP3    H258123   6.415   5.847   7.230
19416TIP3   OH258124   7.128   5.492   7.806
19416TIP3    H158125   7.118   5.493   7.904
19416TIP3    H258126   7.207   5.438   7.795
19417TIP3   OH258127   7.099   5.386   6.687
19417TIP3    H158128   7.151   5.360   6.767
19417TIP3    H258129   7.010   5.360   6.716
19418TIP3   OH258130   7.376   6.025   7.856
19418TIP3    H158131   7.297   5.969   7.851
19418TIP3    H258132   7.358   6.090   7.784
19419TIP3   OH258133   7.440   5.861   6.508
19419TIP3    H158134   7.474   5.932   6.452
19419TIP3    H258135   7.361   5.905   6.544
19420TIP3   OH258136   6.459   4.636   8.376
19420TIP3    H158137   6.363   4.642   8.387
19420TIP3    H258138   6.484   4.576   8.447
19421TIP3   OH258139   7.260   5.317   6.902
19421TIP3    H158140   7.249   5.254   6.976
19421TIP3    H258141   7.357   5.316   6.893
19422TIP3   OH258142   6.156   5.709   8.041
19422TIP3    H158143   6.225   5.641   8.038
19422TIP3    H258144   6.207   5.788   8.061
19423TIP3   OH258145   6.468   5.366   6.687
19423TIP3    H158146   6.480   5.273   6.659
19423TIP3    H258147   6.450   5.356   6.782
19424TIP3   OH258148   6.415   5.371   6.958
19424TIP3    H158149   6.477   5.345   7.026
19424TIP3    H258150   6.416   5.469   6.966
19425TIP3   OH258151   6.150   5.066   7.163
19425TIP3    H158152   6.083   5.109   7.222
19425TIP3    H258153   6.161   5.137   7.097
19426TIP3   OH258154   7.298   4.700   8.054
19426TIP3    H158155   7.376   4.739   8.097
19426TIP3    H258156   7.282   4.620   8.109
19427TIP3   OH258157   7.178   4.452   7.219
19427TIP3    H158158   7.163   4.477   7.126
19427TIP3    H258159   7.216   4.535   7.256
19428TIP3   OH258160   6.679   5.570   6.908
19428TIP3    H158161   6.592   5.594   6.946
19428TIP3    H258162   6.692   5.644   6.847
19429TIP3   OH258163   6.869   4.630   7.322
19429TIP3    H158164   6.932   4.704   7.305
19429TIP3    H258165   6.871   4.625   7.420
19430TIP3   OH258166   7.135   4.952   8.130
19430TIP3    H158167   7.153   5.007   8.209
19430TIP3    H258168   7.190   4.873   8.147
19431TIP3   OH258169   7.012   4.360   7.426
19431TIP3    H158170   7.001   4.438   7.485
19431TIP3    H258171   7.072   4.397   7.357
19432TIP3   OH258172   6.422   5.644   6.975
19432TIP3    H158173   6.389   5.714   6.915
19432TIP3    H258174   6.405   5.685   7.063
19433TIP3   OH258175   6.523   4.357   7.215
19433TIP3    H158176   6.518   4.448   7.250
19433TIP3    H258177   6.619   4.341   7.224
19434TIP3   OH258178   7.778   4.851   8.110
19434TIP3    H158179   7.680   4.851   8.119
19434TIP3    H258180   7.786   4.809   8.024
19435TIP3   OH258181   7.427   5.045   7.498
19435TIP3    H158182   7.350   4.987   7.511
19435TIP3    H258183   7.498   4.998   7.547
19436TIP3   OH258184   6.138   5.275   6.970
19436TIP3    H158185   6.200   5.349   6.981
19436TIP3    H258186   6.187   5.223   6.902
19437TIP3   OH258187   6.083   4.549   7.097
19437TIP3    H158188   6.082   4.647   7.097
19437TIP3    H258189   5.992   4.529   7.073
19438TIP3   OH258190   7.396   6.002   7.449
19438TIP3    H158191   7.352   6.048   7.375
19438TIP3    H258192   7.490   6.018   7.426
19439TIP3   OH258193   6.474   4.270   7.976
19439TIP3    H158194   6.440   4.238   7.890
19439TIP3    H258195   6.461   4.191   8.033
19440TIP3   OH258196   6.002   5.468   7.359
19440TIP3    H158197   5.940   5.515   7.417
19440TIP3    H258198   5.995   5.522   7.277
19441TIP3   OH258199   6.165   6.029   8.429
19441TIP3    H158200   6.252   6.027   8.475
19441TIP3    H258201   6.143   5.934   8.426
19442TIP3   OH258202   6.651   5.996   8.471
19442TIP3    H158203   6.744   5.974   8.477
19442TIP3    H258204   6.622   5.937   8.399
19443TIP3   OH258205   6.630   5.570   6.600
19443TIP3    H158206   6.573   5.500   6.639
19443TIP3    H258207   6.705   5.516   6.570
19444TIP3   OH258208   7.290   5.900   8.204
19444TIP3    H158209   7.280   5.831   8.274
19444TIP3    H258210   7.366   5.952   8.238
19445TIP3   OH258211   7.067   5.612   6.513
19445TIP3    H158212   7.109   5.546   6.570
19445TIP3    H258213   7.123   5.610   6.433
19446TIP3   OH258214   6.297   5.432   8.628
19446TIP3    H158215   6.311   5.335   8.629
19446TIP3    H258216   6.209   5.438   8.585
19447TIP3   OH258217   6.275   5.089   6.819
19447TIP3    H158218   6.327   5.055   6.894
19447TIP3    H258219   6.344   5.092   6.750
19448TIP3   OH258220   6.908   5.521   8.400
19448TIP3    H158221   6.861   5.539   8.316
19448TIP3    H258222   6.934   5.427   8.392
19449TIP3   OH258223   6.786   5.286   6.628
19449TIP3    H158224   6.785   5.299   6.725
19449TIP3    H258225   6.782   5.188   6.623
19450TIP3   OH258226   7.399   5.526   8.009
19450TIP3    H158227   7.470   5.577   7.965
19450TIP3    H258228   7.324   5.587   7.998
19451TIP3   OH258229   6.415   5.166   8.613
19451TIP3    H158230   6.493   5.116   8.590
19451TIP3    H258231   6.441   5.204   8.700
19452TIP3   OH258232   6.486   4.991   7.046
19452TIP3    H158233   6.453   4.952   7.129
19452TIP3    H258234   6.518   4.912   6.997
19453TIP3   OH258235   6.754   5.057   8.275
19453TIP3    H158236   6.674   5.113   8.277
19453TIP3    H258237   6.799   5.090   8.194
19454TIP3   OH258238   6.582   4.781   6.885
19454TIP3    H158239   6.555   4.787   6.791
19454TIP3    H258240   6.679   4.790   6.877
19455TIP3   OH258241   7.268   5.457   8.408
19455TIP3    H158242   7.347   5.434   8.358
19455TIP3    H258243   7.265   5.388   8.476
19456TIP3   OH258244   7.408   5.116   6.546
19456TIP3    H158245   7.384   5.069   6.463
19456TIP3    H258246   7.374   5.206   6.523
19457TIP3   OH258247   6.877   4.843   8.397
19457TIP3    H158248   6.874   4.763   8.341
19457TIP3    H258249   6.832   4.910   8.341
19458TIP3   OH258250   6.877   4.628   8.205
19458TIP3    H158251   6.904   4.671   8.121
19458TIP3    H258252   6.783   4.606   8.187
19459TIP3   OH258253   6.907   5.167   8.079
19459TIP3    H158254   6.987   5.177   8.026
19459TIP3    H258255   6.847   5.232   8.036
19460TIP3   OH258256   7.489   5.132   8.462
19460TIP3    H158257   7.538   5.048   8.466
19460TIP3    H258258   7.555   5.192   8.426
19461TIP3   OH258259   7.529   5.385   8.197
19461TIP3    H158260   7.470   5.437   8.138
19461TIP3    H258261   7.615   5.405   8.156
19462TIP3   OH258262   6.755   4.954   8.630
19462TIP3    H158263   6.684   4.888   8.642
19462TIP3    H258264   6.787   4.932   8.540
19463TIP3   OH258265   7.009   4.393   8.272
19463TIP3    H158266   6.961   4.475   8.249
19463TIP3    H258267   6.939   4.326   8.260
19464TIP3   OH258268   7.136   4.897   8.488
19464TIP3    H158269   7.121   4.887   8.584
19464TIP3    H258270   7.046   4.874   8.456
19465TIP3   OH258271   7.375   4.846   8.343
19465TIP3    H158272   7.298   4.849   8.404
19465TIP3    H258273   7.447   4.815   8.402
19466TIP3   OH258274   7.607   4.788   8.496
19466TIP3    H158275   7.617   4.692   8.514
19466TIP3    H258276   7.601   4.826   8.586
19467TIP3   OH258277   6.591   4.736   8.681
19467TIP3    H158278   6.598   4.646   8.645
19467TIP3    H258279   6.626   4.723   8.771
19468TIP3   OH258280   7.104   4.402   8.530
19468TIP3    H158281   7.172   4.332   8.523
19468TIP3    H258282   7.064   4.397   8.441
19469TIP3   OH258283   7.170   4.617   8.689
19469TIP3    H158284   7.147   4.547   8.624
19469TIP3    H258285   7.092   4.677   8.682
19470TIP3   OH258286   6.390   5.848   6.788
19470TIP3    H158287   6.485   5.843   6.769
19470TIP3    H258288   6.360   5.896   6.708
19471TIP3   OH258289   5.868   5.231   6.999
19471TIP3    H158290   5.964   5.251   6.992
19471TIP3    H258291   5.865   5.140   6.962
19472TIP3   OH258292   5.781   5.841   7.421
19472TIP3    H158293   5.715   5.776   7.386
19472TIP3    H258294   5.829   5.785   7.486
19473TIP3   OH258295   5.928   5.694   7.599
19473TIP3    H158296   5.922   5.629   7.671
19473TIP3    H258297   5.985   5.761   7.639
19474TIP3   OH258298   7.652   6.087   7.404
19474TIP3    H158299   7.671   6.119   7.495
19474TIP3    H258300   7.702   6.149   7.350
19475TIP3   OH258301   7.680   6.111   7.684
19475TIP3    H158302   7.633   6.025   7.682
19475TIP3    H258303   7.748   6.090   7.750
19476TIP3   OH258304   7.724   5.788   8.260
19476TIP3    H158305   7.650   5.797   8.323
19476TIP3    H258306   7.765   5.877   8.264
19477TIP3   OH258307   7.541   5.302   6.881
19477TIP3    H158308   7.609   5.366   6.854
19477TIP3    H258309   7.582   5.262   6.961
19478TIP3   OH258310   7.668   5.170   7.085
19478TIP3    H158311   7.601   5.127   7.142
19478TIP3    H258312   7.729   5.209   7.150
19479TIP3   OH258313   7.723   5.563   7.519
19479TIP3    H158314   7.774   5.497   7.467
19479TIP3    H258315   7.708   5.633   7.453
19480TIP3   OH258316   7.553   5.864   7.711
19480TIP3    H158317   7.482   5.905   7.764
19480TIP3    H258318   7.502   5.815   7.643
19481TIP3   OH258319   7.606   5.078   6.731
19481TIP3    H158320   7.535   5.080   6.663
19481TIP3    H258321   7.577   5.153   6.786
19482TIP3   OH258322   7.479   4.750   6.684
19482TIP3    H158323   7.433   4.790   6.610
19482TIP3    H258324   7.452   4.656   6.675
19483TIP3   OH258325   7.483   5.026   7.231
19483TIP3    H158326   7.489   4.929   7.225
19483TIP3    H258327   7.468   5.040   7.327
19484TIP3   OH258328   6.109   5.094   7.980
19484TIP3    H158329   6.105   5.068   7.886
19484TIP3    H258330   6.206   5.099   7.993
19485TIP3   OH258331   7.771   5.451   8.088
19485TIP3    H158332   7.844   5.386   8.078
19485TIP3    H258333   7.796   5.520   8.025
19486TIP3   OH258334   7.957   5.257   8.104
19486TIP3    H158335   7.882   5.208   8.143
19486TIP3    H258336   8.030   5.192   8.119
19487TIP3   OH258337   7.421   4.484   6.671
19487TIP3    H158338   7.495   4.454   6.726
19487TIP3    H258339   7.347   4.426   6.697
19488TIP3   OH258340   7.478   4.742   7.127
19488TIP3    H158341   7.518   4.653   7.142
19488TIP3    H258342   7.536   4.775   7.056
19489TIP3   OH258343   7.640   4.916   7.621
19489TIP3    H158344   7.726   4.943   7.581
19489TIP3    H258345   7.652   4.953   7.711
19490TIP3   OH258346   7.708   5.060   7.853
19490TIP3    H158347   7.629   5.094   7.901
19490TIP3    H258348   7.740   5.142   7.809
19491TIP3   OH258349   6.324   4.785   8.653
19491TIP3    H158350   6.422   4.780   8.653
19491TIP3    H258351   6.301   4.700   8.694
19492TIP3   OH258352   8.159   4.651   8.410
19492TIP3    H158353   8.218   4.585   8.367
19492TIP3    H258354   8.132   4.705   8.333
19493TIP3   OH258355   7.587   4.492   7.163
19493TIP3    H158356   7.635   4.476   7.247
19493TIP3    H258357   7.526   4.415   7.162
19494TIP3   OH258358   6.289   4.477   7.981
19494TIP3    H158359   6.353   4.404   7.992
19494TIP3    H258360   6.349   4.554   7.977
19495TIP3   OH258361   6.093   4.751   8.060
19495TIP3    H158362   6.138   4.746   7.974
19495TIP3    H258363   6.112   4.842   8.086
19496TIP3   OH258364   8.032   4.792   8.215
19496TIP3    H158365   7.944   4.831   8.233
19496TIP3    H258366   8.004   4.719   8.156
19497TIP3   OH258367   7.668   4.428   6.795
19497TIP3    H158368   7.708   4.355   6.744
19497TIP3    H258369   7.736   4.498   6.789
19498TIP3   OH258370   6.073   4.254   7.556
19498TIP3    H158371   5.980   4.252   7.584
19498TIP3    H258372   6.069   4.314   7.478
19499TIP3   OH258373   7.233   5.958   7.062
19499TIP3    H158374   7.284   5.944   6.980
19499TIP3    H258375   7.285   6.027   7.107
19500TIP3   OH258376   6.293   4.333   8.371
19500TIP3    H158377   6.242   4.331   8.453
19500TIP3    H258378   6.228   4.375   8.310
19501TIP3   OH258379   6.335   5.762   8.453
19501TIP3    H158380   6.244   5.735   8.431
19501TIP3    H258381   6.338   5.743   8.548
19502TIP3   OH258382   6.505   5.797   7.998
19502TIP3    H158383   6.452   5.863   7.951
19502TIP3    H258384   6.593   5.815   7.956
19503TIP3   OH258385   6.958   6.039   8.133
19503TIP3    H158386   6.998   6.041   8.222
19503TIP3    H258387   7.022   6.091   8.082
19504TIP3   OH258388   7.135   6.192   7.991
19504TIP3    H158389   7.207   6.139   7.953
19504TIP3    H258390   7.186   6.249   8.053
19505TIP3   OH258391   7.929   4.553   8.093
19505TIP3    H158392   7.839   4.547   8.058
19505TIP3    H258393   7.960   4.461   8.081
19506TIP3   OH258394   6.200   6.053   8.028
19506TIP3    H158395   6.117   6.083   7.985
19506TIP3    H258396   6.182   6.078   8.119
19507TIP3   OH258397   6.412   6.038   7.850
19507TIP3    H158398   6.343   6.055   7.918
19507TIP3    H258399   6.354   6.020   7.773
19508TIP3   OH258400   6.856   6.061   7.670
19508TIP3    H158401   6.781   6.075   7.609
19508TIP3    H258402   6.861   6.148   7.715
19509TIP3   OH258403   7.120   6.000   7.725
19509TIP3    H158404   7.024   6.013   7.707
19509TIP3    H258405   7.158   6.079   7.685
19510TIP3   OH258406   7.333   6.195   7.643
19510TIP3    H158407   7.314   6.278   7.594
19510TIP3    H258408   7.352   6.132   7.570
19511TIP3   OH258409   6.590   5.833   7.602
19511TIP3    H158410   6.578   5.738   7.591
19511TIP3    H258411   6.578   5.841   7.698
19512TIP3   OH258412   7.137   4.470   7.713
19512TIP3    H158413   7.091   4.401   7.764
19512TIP3    H258414   7.207   4.420   7.667
19513TIP3   OH258415   7.658   4.348   7.616
19513TIP3    H158416   7.695   4.401   7.542
19513TIP3    H258417   7.563   4.367   7.610
19514TIP3   OH258418   7.753   4.451   7.380
19514TIP3    H158419   7.826   4.399   7.340
19514TIP3    H258420   7.786   4.542   7.366
19515TIP3   OH258421   6.384   4.178   7.728
19515TIP3    H158422   6.291   4.147   7.728
19515TIP3    H258423   6.432   4.092   7.723
19516TIP3   OH258424   6.175   4.047   7.376
19516TIP3    H158425   6.198   4.107   7.302
19516TIP3    H258426   6.139   4.109   7.441
19517TIP3   OH258427   6.829   4.206   7.608
19517TIP3    H158428   6.885   4.260   7.550
19517TIP3    H258429   6.842   4.250   7.693
19518TIP3   OH258430   7.376   4.356   7.592
19518TIP3    H158431   7.370   4.320   7.503
19518TIP3    H258432   7.361   4.275   7.647
19519TIP3   OH258433   7.403   4.279   7.154
19519TIP3    H158434   7.317   4.323   7.166
19519TIP3    H258435   7.388   4.194   7.201
19520TIP3   OH258436   5.892   5.616   7.153
19520TIP3    H158437   5.805   5.585   7.121
19520TIP3    H258438   5.879   5.712   7.149
19521TIP3   OH258439   6.286   4.205   7.140
19521TIP3    H158440   6.336   4.146   7.081
19521TIP3    H258441   6.356   4.261   7.177
19522TIP3   OH258442   6.800   4.380   7.238
19522TIP3    H158443   6.861   4.336   7.300
19522TIP3    H258444   6.820   4.474   7.262
19523TIP3   OH258445   6.658   5.808   6.735
19523TIP3    H158446   6.747   5.829   6.700
19523TIP3    H258447   6.636   5.732   6.677
19524TIP3   OH258448   7.381   5.926   6.830
19524TIP3    H158449   7.372   5.828   6.818
19524TIP3    H258450   7.332   5.957   6.751
19525TIP3   OH258451   6.591   4.458   8.619
19525TIP3    H158452   6.557   4.388   8.677
19525TIP3    H258453   6.685   4.459   8.646
19526TIP3   OH258454   6.840   4.456   8.739
19526TIP3    H158455   6.924   4.431   8.698
19526TIP3    H258456   6.828   4.384   8.804
19527TIP3   OH258457   5.964   5.648   6.796
19527TIP3    H158458   5.959   5.665   6.891
19527TIP3    H258459   6.051   5.605   6.786
19528TIP3   OH258460   7.665   4.517   8.526
19528TIP3    H158461   7.685   4.485   8.616
19528TIP3    H258462   7.753   4.512   8.483
19529TIP3   OH258463   7.607   6.070   8.014
19529TIP3    H158464   7.527   6.037   7.970
19529TIP3    H258465   7.585   6.165   8.021
19530TIP3   OH258466   8.871   5.445   6.783
19530TIP3    H158467   8.838   5.535   6.762
19530TIP3    H258468   8.794   5.392   6.756
19531TIP3   OH258469   8.870   5.441   7.164
19531TIP3    H158470   8.899   5.413   7.252
19531TIP3    H258471   8.828   5.360   7.130
19532TIP3   OH258472   8.169   5.336   7.528
19532TIP3    H158473   8.198   5.268   7.592
19532TIP3    H258474   8.247   5.394   7.527
19533TIP3   OH258475   9.118   5.725   6.842
19533TIP3    H158476   9.095   5.671   6.919
19533TIP3    H258477   9.151   5.807   6.883
19534TIP3   OH258478   8.140   5.745   7.256
19534TIP3    H158479   8.129   5.647   7.258
19534TIP3    H258480   8.237   5.750   7.253
19535TIP3   OH258481   7.848   4.953   7.041
19535TIP3    H158482   7.796   5.034   7.055
19535TIP3    H258483   7.778   4.895   7.005
19536TIP3   OH258484   7.909   5.238   7.212
19536TIP3    H158485   7.955   5.160   7.250
19536TIP3    H258486   7.962   5.258   7.135
19537TIP3   OH258487   8.775   6.172   6.847
19537TIP3    H158488   8.843   6.107   6.826
19537TIP3    H258489   8.783   6.176   6.944
19538TIP3   OH258490   8.670   5.669   7.211
19538TIP3    H158491   8.704   5.590   7.166
19538TIP3    H258492   8.756   5.709   7.236
19539TIP3   OH258493   9.667   4.998   7.201
19539TIP3    H158494   9.708   5.069   7.255
19539TIP3    H258495   9.721   4.999   7.120
19540TIP3   OH258496   9.092   5.178   7.238
19540TIP3    H158497   9.121   5.088   7.262
19540TIP3    H258498   9.056   5.161   7.148
19541TIP3   OH258499   8.417   4.828   7.211
19541TIP3    H158500   8.396   4.900   7.148
19541TIP3    H258501   8.370   4.754   7.168
19542TIP3   OH258502   9.111   4.921   6.833
19542TIP3    H158503   9.183   4.901   6.897
19542TIP3    H258504   9.164   4.959   6.760
19543TIP3   OH258505   8.052   5.030   7.318
19543TIP3    H158506   8.134   5.009   7.365
19543TIP3    H258507   8.063   4.973   7.239
19544TIP3   OH258508   8.493   5.228   7.109
19544TIP3    H158509   8.586   5.202   7.124
19544TIP3    H258510   8.453   5.144   7.079
19545TIP3   OH258511   9.750   5.196   7.374
19545TIP3    H158512   9.662   5.239   7.373
19545TIP3    H258513   9.783   5.227   7.462
19546TIP3   OH258514   8.415   4.812   7.645
19546TIP3    H158515   8.354   4.847   7.578
19546TIP3    H258516   8.364   4.828   7.727
19547TIP3   OH258517   8.764   5.666   6.653
19547TIP3    H158518   8.718   5.641   6.572
19547TIP3    H258519   8.726   5.755   6.671
19548TIP3   OH258520   8.523   5.586   7.441
19548TIP3    H158521   8.457   5.648   7.480
19548TIP3    H258522   8.562   5.641   7.371
19549TIP3   OH258523   9.322   4.912   7.003
19549TIP3    H158524   9.307   4.864   7.085
19549TIP3    H258525   9.373   4.989   7.031
19550TIP3   OH258526   8.285   4.926   7.430
19550TIP3    H158527   8.348   4.998   7.453
19550TIP3    H258528   8.334   4.885   7.355
19551TIP3   OH258529   8.346   5.773   7.540
19551TIP3    H158530   8.311   5.856   7.503
19551TIP3    H258531   8.271   5.752   7.600
19552TIP3   OH258532   7.746   5.469   6.774
19552TIP3    H158533   7.701   5.495   6.691
19552TIP3    H258534   7.773   5.556   6.810
19553TIP3   OH258535   9.195   5.977   7.062
19553TIP3    H158536   9.097   5.980   7.074
19553TIP3    H258537   9.205   6.006   6.968
19554TIP3   OH258538   9.472   4.888   7.378
19554TIP3    H158539   9.383   4.914   7.350
19554TIP3    H258540   9.528   4.920   7.304
19555TIP3   OH258541   8.772   4.529   7.359
19555TIP3    H158542   8.760   4.434   7.380
19555TIP3    H258543   8.694   4.567   7.406
19556TIP3   OH258544   8.930   6.057   6.529
19556TIP3    H158545   8.971   5.967   6.540
19556TIP3    H258546   8.989   6.110   6.585
19557TIP3   OH258547   9.038   5.816   6.589
19557TIP3    H158548   8.987   5.741   6.556
19557TIP3    H258549   9.065   5.783   6.677
19558TIP3   OH258550   9.405   5.906   7.360
19558TIP3    H158551   9.400   5.827   7.302
19558TIP3    H258552   9.394   5.979   7.296
19559TIP3   OH258553   8.701   5.294   6.613
19559TIP3    H158554   8.619   5.344   6.593
19559TIP3    H258555   8.744   5.290   6.526
19560TIP3   OH258556   8.660   5.078   6.332
19560TIP3    H158557   8.729   5.127   6.380
19560TIP3    H258558   8.715   5.012   6.285
19561TIP3   OH258559   9.599   5.529   7.189
19561TIP3    H158560   9.526   5.591   7.211
19561TIP3    H258561   9.644   5.576   7.116
19562TIP3   OH258562   9.046   5.374   6.590
19562TIP3    H158563   8.986   5.410   6.660
19562TIP3    H258564   9.106   5.324   6.645
19563TIP3   OH258565   9.283   5.414   7.496
19563TIP3    H158566   9.286   5.495   7.552
19563TIP3    H258567   9.193   5.421   7.459
19564TIP3   OH258568   8.282   5.375   7.001
19564TIP3    H158569   8.238   5.316   6.936
19564TIP3    H258570   8.357   5.319   7.031
19565TIP3   OH258571   8.412   5.781   7.164
19565TIP3    H158572   8.388   5.751   7.075
19565TIP3    H258573   8.503   5.746   7.173
19566TIP3   OH258574   8.421   5.342   7.358
19566TIP3    H158575   8.451   5.322   7.267
19566TIP3    H258576   8.462   5.429   7.376
19567TIP3   OH258577   8.932   5.984   7.131
19567TIP3    H158578   8.921   6.061   7.189
19567TIP3    H258579   8.924   5.909   7.194
19568TIP3   OH258580   8.551   5.909   7.674
19568TIP3    H158581   8.493   5.965   7.730
19568TIP3    H258582   8.485   5.849   7.634
19569TIP3   OH258583   8.891   5.233   6.411
19569TIP3    H158584   8.947   5.295   6.462
19569TIP3    H258585   8.916   5.257   6.318
19570TIP3   OH258586   8.307   5.462   7.779
19570TIP3    H158587   8.311   5.546   7.828
19570TIP3    H258588   8.213   5.439   7.791
19571TIP3   OH258589   8.644   5.929   6.686
19571TIP3    H158590   8.664   6.005   6.742
19571TIP3    H258591   8.568   5.960   6.635
19572TIP3   OH258592   8.344   6.074   7.773
19572TIP3    H158593   8.303   6.061   7.686
19572TIP3    H258594   8.269   6.051   7.833
19573TIP3   OH258595   9.404   4.475   6.461
19573TIP3    H158596   9.322   4.492   6.513
19573TIP3    H258597   9.414   4.559   6.413
19574TIP3   OH258598   8.146   5.217   6.809
19574TIP3    H158599   8.079   5.260   6.752
19574TIP3    H258600   8.107   5.130   6.822
19575TIP3   OH258601   9.203   5.842   6.008
19575TIP3    H158602   9.213   5.939   5.994
19575TIP3    H258603   9.296   5.812   6.000
19576TIP3   OH258604   7.929   5.600   7.714
19576TIP3    H158605   7.861   5.578   7.648
19576TIP3    H258606   7.965   5.512   7.739
19577TIP3   OH258607   7.780   5.796   7.343
19577TIP3    H158608   7.877   5.791   7.346
19577TIP3    H258609   7.761   5.873   7.399
19578TIP3   OH258610   8.761   6.027   7.543
19578TIP3    H158611   8.753   6.121   7.567
19578TIP3    H258612   8.683   5.989   7.589
19579TIP3   OH258613   8.481   6.155   6.503
19579TIP3    H158614   8.447   6.140   6.413
19579TIP3    H258615   8.468   6.251   6.515
19580TIP3   OH258616   7.953   6.010   6.874
19580TIP3    H158617   7.995   5.996   6.962
19580TIP3    H258618   7.894   5.933   6.871
19581TIP3   OH258619   8.709   6.058   6.113
19581TIP3    H158620   8.773   5.989   6.085
19581TIP3    H258621   8.732   6.070   6.208
19582TIP3   OH258622   8.723   6.120   6.375
19582TIP3    H158623   8.646   6.111   6.435
19582TIP3    H258624   8.796   6.085   6.432
19583TIP3   OH258625   9.548   5.380   7.652
19583TIP3    H158626   9.455   5.388   7.627
19583TIP3    H258627   9.558   5.284   7.666
19584TIP3   OH258628   8.132   5.783   7.706
19584TIP3    H158629   8.181   5.767   7.790
19584TIP3    H258630   8.059   5.718   7.713
19585TIP3   OH258631   8.532   4.608   7.486
19585TIP3    H158632   8.444   4.575   7.460
19585TIP3    H258633   8.505   4.688   7.534
19586TIP3   OH258634   9.065   4.724   7.682
19586TIP3    H158635   9.132   4.694   7.747
19586TIP3    H258636   8.981   4.702   7.727
19587TIP3   OH258637   9.307   5.152   7.602
19587TIP3    H158638   9.257   5.146   7.686
19587TIP3    H258639   9.279   5.239   7.567
19588TIP3   OH258640   8.967   5.281   6.157
19588TIP3    H158641   8.931   5.255   6.070
19588TIP3    H258642   9.046   5.332   6.131
19589TIP3   OH258643   8.680   4.656   6.459
19589TIP3    H158644   8.646   4.653   6.551
19589TIP3    H258645   8.640   4.573   6.425
19590TIP3   OH258646   8.465   5.121   7.508
19590TIP3    H158647   8.413   5.142   7.589
19590TIP3    H258648   8.449   5.201   7.454
19591TIP3   OH258649   8.347   5.010   7.020
19591TIP3    H158650   8.254   4.982   7.038
19591TIP3    H258651   8.360   4.968   6.932
19592TIP3   OH258652   8.840   5.097   6.747
19592TIP3    H158653   8.785   5.166   6.704
19592TIP3    H258654   8.891   5.062   6.671
19593TIP3   OH258655   9.012   5.373   7.834
19593TIP3    H158656   8.991   5.301   7.897
19593TIP3    H258657   9.105   5.390   7.856
19594TIP3   OH258658   8.982   5.115   6.992
19594TIP3    H158659   8.928   5.144   6.916
19594TIP3    H258660   9.027   5.039   6.949
19595TIP3   OH258661   8.283   5.151   7.715
19595TIP3    H158662   8.308   5.212   7.786
19595TIP3    H258663   8.270   5.067   7.765
19596TIP3   OH258664   8.334   4.629   6.424
19596TIP3    H158665   8.326   4.625   6.522
19596TIP3    H258666   8.254   4.679   6.401
19597TIP3   OH258667   7.876   4.675   7.294
19597TIP3    H158668   7.952   4.704   7.348
19597TIP3    H258669   7.917   4.638   7.215
19598TIP3   OH258670   7.851   4.655   6.815
19598TIP3    H158671   7.896   4.693   6.737
19598TIP3    H258672   7.789   4.727   6.836
19599TIP3   OH258673   9.010   5.371   7.409
19599TIP3    H158674   9.041   5.297   7.352
19599TIP3    H258675   8.979   5.320   7.487
19600TIP3   OH258676   8.675   4.835   7.082
19600TIP3    H158677   8.592   4.828   7.133
19600TIP3    H258678   8.742   4.828   7.152
19601TIP3   OH258679   8.110   4.885   7.090
19601TIP3    H158680   8.016   4.892   7.063
19601TIP3    H258681   8.133   4.793   7.068
19602TIP3   OH258682   8.380   4.884   6.779
19602TIP3    H158683   8.474   4.897   6.756
19602TIP3    H258684   8.332   4.905   6.695
19603TIP3   OH258685   9.167   4.908   7.281
19603TIP3    H158686   9.134   4.919   7.374
19603TIP3    H258687   9.101   4.846   7.247
19604TIP3   OH258688   8.219   4.918   6.559
19604TIP3    H158689   8.146   4.872   6.513
19604TIP3    H258690   8.270   4.951   6.482
19605TIP3   OH258691   8.296   5.707   7.925
19605TIP3    H158692   8.375   5.735   7.976
19605TIP3    H258693   8.230   5.703   7.997
19606TIP3   OH258694   8.759   5.162   7.182
19606TIP3    H158695   8.831   5.121   7.130
19606TIP3    H258696   8.765   5.116   7.267
19607TIP3   OH258697   8.282   4.645   7.057
19607TIP3    H158698   8.248   4.567   7.106
19607TIP3    H258699   8.338   4.604   6.991
19608TIP3   OH258700   8.736   5.057   7.465
19608TIP3    H158701   8.645   5.090   7.482
19608TIP3    H258702   8.791   5.116   7.519
19609TIP3   OH258703   8.471   5.447   6.565
19609TIP3    H158704   8.400   5.380   6.554
19609TIP3    H258705   8.452   5.480   6.656
19610TIP3   OH258706   9.375   5.682   7.189
19610TIP3    H158707   9.394   5.737   7.110
19610TIP3    H258708   9.283   5.653   7.174
19611TIP3   OH258709   8.929   4.760   6.421
19611TIP3    H158710   8.833   4.740   6.434
19611TIP3    H258711   8.936   4.853   6.451
19612TIP3   OH258712   8.873   5.765   7.561
19612TIP3    H158713   8.897   5.735   7.649
19612TIP3    H258714   8.833   5.852   7.576
19613TIP3   OH258715   8.997   5.005   6.529
19613TIP3    H158716   9.094   5.007   6.545
19613TIP3    H258717   8.982   5.085   6.475
19614TIP3   OH258718   8.167   5.471   7.241
19614TIP3    H158719   8.204   5.439   7.156
19614TIP3    H258720   8.198   5.405   7.304
19615TIP3   OH258721   8.616   5.597   6.387
19615TIP3    H158722   8.570   5.683   6.394
19615TIP3    H258723   8.562   5.541   6.446
19616TIP3   OH258724   8.045   5.388   7.852
19616TIP3    H158725   8.064   5.374   7.947
19616TIP3    H258726   7.975   5.323   7.836
19617TIP3   OH258727   8.770   5.503   7.873
19617TIP3    H158728   8.710   5.442   7.826
19617TIP3    H258729   8.857   5.469   7.845
19618TIP3   OH258730   9.028   6.033   7.447
19618TIP3    H158731   8.934   6.021   7.471
19618TIP3    H258732   9.063   6.074   7.529
19619TIP3   OH258733   9.446   5.099   6.362
19619TIP3    H158734   9.383   5.049   6.305
19619TIP3    H258735   9.437   5.185   6.317
19620TIP3   OH258736   9.662   5.940   7.455
19620TIP3    H158737   9.565   5.950   7.445
19620TIP3    H258738   9.686   5.922   7.363
19621TIP3   OH258739   9.145   5.916   6.275
19621TIP3    H158740   9.117   5.843   6.333
19621TIP3    H258741   9.158   5.871   6.189
19622TIP3   OH258742   9.133   5.534   7.110
19622TIP3    H158743   9.035   5.526   7.115
19622TIP3    H258744   9.156   5.441   7.124
19623TIP3   OH258745   8.263   5.774   6.868
19623TIP3    H158746   8.256   5.853   6.810
19623TIP3    H258747   8.170   5.747   6.874
19624TIP3   OH258748   7.828   5.076   6.568
19624TIP3    H158749   7.873   5.160   6.589
19624TIP3    H258750   7.750   5.081   6.628
19625TIP3   OH258751   8.405   5.541   6.811
19625TIP3    H158752   8.368   5.628   6.832
19625TIP3    H258753   8.370   5.487   6.884
19626TIP3   OH258754   8.187   6.010   6.720
19626TIP3    H158755   8.100   6.018   6.764
19626TIP3    H258756   8.221   6.101   6.724
19627TIP3   OH258757   8.926   5.750   7.294
19627TIP3    H158758   8.910   5.753   7.391
19627TIP3    H258759   9.008   5.698   7.291
19628TIP3   OH258760   8.897   5.641   6.174
19628TIP3    H158761   8.947   5.617   6.255
19628TIP3    H258762   8.807   5.614   6.201
19629TIP3   OH258763   9.155   6.296   7.352
19629TIP3    H158764   9.095   6.222   7.335
19629TIP3    H258765   9.144   6.354   7.274
19630TIP3   OH258766   9.235   6.118   5.995
19630TIP3    H158767   9.272   6.192   5.944
19630TIP3    H258768   9.155   6.163   6.029
19631TIP3   OH258769   8.256   4.895   7.862
19631TIP3    H158770   8.160   4.898   7.875
19631TIP3    H258771   8.284   4.834   7.932
19632TIP3   OH258772   9.054   5.576   6.393
19632TIP3    H158773   9.047   5.512   6.466
19632TIP3    H258774   9.150   5.574   6.377
19633TIP3   OH258775   7.978   5.979   7.492
19633TIP3    H158776   8.024   5.901   7.527
19633TIP3    H258777   7.989   6.042   7.564
19634TIP3   OH258778   8.265   5.623   6.174
19634TIP3    H158779   8.275   5.531   6.144
19634TIP3    H258780   8.244   5.609   6.269
19635TIP3   OH258781   8.209   5.628   6.446
19635TIP3    H158782   8.278   5.599   6.508
19635TIP3    H258783   8.214   5.726   6.454
19636TIP3   OH258784   7.945   5.322   6.650
19636TIP3    H158785   7.878   5.366   6.707
19636TIP3    H258786   7.957   5.392   6.582
19637TIP3   OH258787   9.094   4.958   7.541
19637TIP3    H158788   9.171   4.995   7.585
19637TIP3    H258789   9.076   4.877   7.595
19638TIP3   OH258790   8.974   4.711   6.706
19638TIP3    H158791   8.959   4.735   6.613
19638TIP3    H258792   9.012   4.793   6.743
19639TIP3   OH258793   8.477   5.830   6.402
19639TIP3    H158794   8.387   5.854   6.432
19639TIP3    H258795   8.490   5.894   6.332
19640TIP3   OH258796   8.665   4.889   6.810
19640TIP3    H158797   8.730   4.962   6.795
19640TIP3    H258798   8.667   4.881   6.908
19641TIP3   OH258799   8.934   5.211   7.616
19641TIP3    H158800   8.951   5.263   7.697
19641TIP3    H258801   8.986   5.130   7.633
19642TIP3   OH258802   8.808   4.619   6.914
19642TIP3    H158803   8.802   4.696   6.973
19642TIP3    H258804   8.868   4.654   6.844
19643TIP3   OH258805   8.219   5.901   6.463
19643TIP3    H158806   8.187   5.969   6.399
19643TIP3    H258807   8.201   5.945   6.548
19644TIP3   OH258808   8.318   4.614   6.700
19644TIP3    H158809   8.315   4.703   6.740
19644TIP3    H258810   8.413   4.594   6.710
19645TIP3   OH258811   9.571   5.101   7.595
19645TIP3    H158812   9.474   5.106   7.606
19645TIP3    H258813   9.577   5.060   7.508
19646TIP3   OH258814   7.935   5.531   6.457
19646TIP3    H158815   7.999   5.604   6.463
19646TIP3    H258816   7.981   5.477   6.389
19647TIP3   OH258817   7.881   4.807   6.588
19647TIP3    H158818   7.878   4.904   6.585
19647TIP3    H258819   7.796   4.783   6.550
19648TIP3   OH258820   9.187   6.278   6.931
19648TIP3    H158821   9.149   6.328   6.856
19648TIP3    H258822   9.283   6.292   6.916
19649TIP3   OH258823   8.267   4.527   7.464
19649TIP3    H158824   8.237   4.492   7.377
19649TIP3    H258825   8.257   4.448   7.522
19650TIP3   OH258826   7.811   5.752   6.845
19650TIP3    H158827   7.737   5.776   6.902
19650TIP3    H258828   7.780   5.787   6.758
19651TIP3   OH258829   7.965   6.284   7.907
19651TIP3    H158830   8.048   6.283   7.959
19651TIP3    H258831   7.939   6.190   7.913
19652TIP3   OH258832   8.463   6.253   7.953
19652TIP3    H158833   8.551   6.212   7.957
19652TIP3    H258834   8.420   6.197   7.886
19653TIP3   OH258835   8.428   5.827   6.091
19653TIP3    H158836   8.370   5.755   6.126
19653TIP3    H258837   8.502   5.775   6.055
19654TIP3   OH258838   9.108   6.142   7.687
19654TIP3    H158839   9.068   6.085   7.756
19654TIP3    H258840   9.157   6.205   7.741
19655TIP3   OH258841   8.866   5.865   5.998
19655TIP3    H158842   8.910   5.801   6.057
19655TIP3    H258843   8.924   5.865   5.919
19656TIP3   OH258844   8.095   5.692   8.113
19656TIP3    H158845   8.109   5.596   8.122
19656TIP3    H258846   8.006   5.694   8.071
19657TIP3   OH258847   8.071   5.346   6.307
19657TIP3    H158848   8.124   5.309   6.380
19657TIP3    H258849   8.138   5.349   6.236
19658TIP3   OH258850   8.702   5.777   7.887
19658TIP3    H158851   8.661   5.785   7.799
19658TIP3    H258852   8.736   5.684   7.885
19659TIP3   OH258853   8.583   5.543   6.116
19659TIP3    H158854   8.582   5.555   6.213
19659TIP3    H258855   8.580   5.445   6.110
19660TIP3   OH258856   9.191   5.782   7.488
19660TIP3    H158857   9.267   5.830   7.449
19660TIP3    H258858   9.121   5.848   7.480
19661TIP3   OH258859   8.215   5.426   8.096
19661TIP3    H158860   8.288   5.366   8.079
19661TIP3    H258861   8.238   5.460   8.185
19662TIP3   OH258862   8.283   5.247   6.534
19662TIP3    H158863   8.251   5.204   6.615
19662TIP3    H258864   8.316   5.170   6.482
19663TIP3   OH258865   8.547   5.313   7.761
19663TIP3    H158866   8.469   5.372   7.762
19663TIP3    H258867   8.596   5.345   7.681
19664TIP3   OH258868   8.378   5.040   6.371
19664TIP3    H158869   8.351   5.043   6.277
19664TIP3    H258870   8.475   5.046   6.363
19665TIP3   OH258871   9.065   5.714   7.890
19665TIP3    H158872   9.157   5.703   7.861
19665TIP3    H258873   9.060   5.648   7.961
19666TIP3   OH258874   9.205   5.372   6.032
19666TIP3    H158875   9.180   5.326   5.950
19666TIP3    H258876   9.173   5.462   6.010
19667TIP3   OH258877   8.671   5.099   7.886
19667TIP3    H158878   8.670   5.019   7.830
19667TIP3    H258879   8.626   5.165   7.828
19668TIP3   OH258880   8.673   4.887   7.691
19668TIP3    H158881   8.700   4.925   7.605
19668TIP3    H258882   8.580   4.863   7.674
19669TIP3   OH258883   8.702   5.422   7.566
19669TIP3    H158884   8.784   5.426   7.515
19669TIP3    H258885   8.645   5.488   7.521
19670TIP3   OH258886   9.294   5.390   7.956
19670TIP3    H158887   9.338   5.304   7.947
19670TIP3    H258888   9.365   5.451   7.929
19671TIP3   OH258889   9.326   5.631   7.670
19671TIP3    H158890   9.267   5.688   7.616
19671TIP3    H258891   9.413   5.654   7.630
19672TIP3   OH258892   8.544   5.214   8.112
19672TIP3    H158893   8.478   5.144   8.128
19672TIP3    H258894   8.583   5.186   8.027
19673TIP3   OH258895   8.806   4.651   7.757
19673TIP3    H158896   8.755   4.732   7.736
19673TIP3    H258897   8.737   4.581   7.747
19674TIP3   OH258898   8.932   5.155   7.974
19674TIP3    H158899   8.922   5.142   8.071
19674TIP3    H258900   8.841   5.130   7.946
19675TIP3   OH258901   9.172   5.103   7.830
19675TIP3    H158902   9.095   5.104   7.891
19675TIP3    H258903   9.243   5.072   7.890
19676TIP3   OH258904   9.390   5.044   7.992
19676TIP3    H158905   9.404   4.948   8.006
19676TIP3    H258906   9.389   5.079   8.083
19677TIP3   OH258907   8.389   4.993   8.168
19677TIP3    H158908   8.395   4.901   8.133
19677TIP3    H258909   8.425   4.980   8.258
19678TIP3   OH258910   8.900   4.660   8.016
19678TIP3    H158911   8.967   4.589   8.011
19678TIP3    H258912   8.860   4.653   7.927
19679TIP3   OH258913   8.969   4.877   8.172
19679TIP3    H158914   8.944   4.805   8.110
19679TIP3    H258915   8.890   4.935   8.168
19680TIP3   OH258916   8.186   6.106   6.278
19680TIP3    H158917   8.281   6.100   6.256
19680TIP3    H258918   8.153   6.150   6.198
19681TIP3   OH258919   7.666   5.485   6.493
19681TIP3    H158920   7.761   5.506   6.479
19681TIP3    H258921   7.660   5.396   6.451
19682TIP3   OH258922   7.583   6.098   6.904
19682TIP3    H158923   7.514   6.037   6.869
19682TIP3    H258924   7.625   6.040   6.971
19683TIP3   OH258925   7.718   5.951   7.093
19683TIP3    H158926   7.703   5.875   7.152
19683TIP3    H258927   7.762   6.012   7.154
19684TIP3   OH258928   9.446   6.349   6.882
19684TIP3    H158929   9.481   6.369   6.971
19684TIP3    H258930   9.522   6.368   6.824
19685TIP3   OH258931   9.499   6.366   7.159
19685TIP3    H158932   9.455   6.278   7.161
19685TIP3    H258933   9.512   6.380   7.254
19686TIP3   OH258934   9.327   5.556   6.367
19686TIP3    H158935   9.389   5.627   6.338
19686TIP3    H258936   9.367   5.531   6.453
19687TIP3   OH258937   9.448   5.440   6.588
19687TIP3    H158938   9.440   5.348   6.614
19687TIP3    H258939   9.535   5.466   6.625
19688TIP3   OH258940   9.510   5.809   6.992
19688TIP3    H158941   9.576   5.764   6.937
19688TIP3    H258942   9.504   5.896   6.947
19689TIP3   OH258943   9.358   6.136   7.210
19689TIP3    H158944   9.293   6.173   7.271
19689TIP3    H258945   9.301   6.084   7.148
19690TIP3   OH258946   9.402   5.335   6.221
19690TIP3    H158947   9.332   5.335   6.151
19690TIP3    H258948   9.372   5.413   6.272
19691TIP3   OH258949   9.277   5.006   6.172
19691TIP3    H158950   9.229   5.046   6.098
19691TIP3    H258951   9.250   4.912   6.164
19692TIP3   OH258952   7.904   5.356   7.463
19692TIP3    H158953   7.903   5.326   7.370
19692TIP3    H258954   8.001   5.357   7.480
19693TIP3   OH258955   9.558   5.702   7.555
19693TIP3    H158956   9.637   5.647   7.573
19693TIP3    H258957   9.600   5.788   7.534
19694TIP3   OH258958   9.763   5.528   7.587
19694TIP3    H158959   9.685   5.477   7.618
19694TIP3    H258960   9.833   5.469   7.621
19695TIP3   OH258961   9.216   4.742   6.158
19695TIP3    H158962   9.289   4.710   6.215
19695TIP3    H258963   9.141   4.684   6.183
19696TIP3   OH258964   9.269   4.993   6.603
19696TIP3    H158965   9.309   4.906   6.624
19696TIP3    H258966   9.334   5.027   6.540
19697TIP3   OH258967   9.433   5.243   7.077
19697TIP3    H158968   9.520   5.200   7.070
19697TIP3    H258969   9.417   5.232   7.173
19698TIP3   OH258970   9.498   5.314   7.337
19698TIP3    H158971   9.425   5.344   7.396
19698TIP3    H258972   9.534   5.399   7.306
19699TIP3   OH258973   8.122   5.044   8.140
19699TIP3    H158974   8.220   5.036   8.141
19699TIP3    H258975   8.097   4.959   8.180
19700TIP3   OH258976  10.007   4.941   7.871
19700TIP3    H158977  10.016   4.849   7.840
19700TIP3    H258978   9.940   4.977   7.809
19701TIP3   OH258979   9.384   4.748   6.649
19701TIP3    H158980   9.429   4.732   6.735
19701TIP3    H258981   9.321   4.672   6.649
19702TIP3   OH258982   8.083   4.735   7.469
19702TIP3    H158983   8.144   4.659   7.479
19702TIP3    H258984   8.146   4.809   7.464
19703TIP3   OH258985   7.886   5.009   7.543
19703TIP3    H158986   7.935   5.001   7.459
19703TIP3    H258987   7.916   5.095   7.575
19704TIP3   OH258988   9.816   5.035   7.708
19704TIP3    H158989   9.732   5.086   7.717
19704TIP3    H258990   9.787   4.971   7.640
19705TIP3   OH258991   9.465   4.685   6.282
19705TIP3    H158992   9.503   4.611   6.231
19705TIP3    H258993   9.534   4.754   6.273
19706TIP3   OH258994   7.869   4.515   7.045
19706TIP3    H158995   7.775   4.510   7.070
19706TIP3    H258996   7.866   4.572   6.965
19707TIP3   OH258997   9.134   6.227   6.601
19707TIP3    H158998   9.142   6.191   6.511
19707TIP3    H258999   9.130   6.322   6.581
19708TIP3   OH259000   8.090   4.596   7.860
19708TIP3    H159001   8.038   4.587   7.942
19708TIP3    H259002   8.023   4.630   7.799
19709TIP3   OH259003   8.130   6.018   7.939
19709TIP3    H159004   8.038   5.992   7.920
19709TIP3    H259005   8.137   5.997   8.033
19710TIP3   OH259006   8.291   6.043   7.496
19710TIP3    H159007   8.242   6.111   7.447
19710TIP3    H259008   8.380   6.053   7.463
19711TIP3   OH259009   8.745   6.301   7.600
19711TIP3    H159010   8.780   6.290   7.692
19711TIP3    H259011   8.822   6.346   7.559
19712TIP3   OH259012   8.946   6.443   7.474
19712TIP3    H159013   9.015   6.384   7.439
19712TIP3    H259014   8.999   6.526   7.477
19713TIP3   OH259015   9.725   4.807   7.574
19713TIP3    H159016   9.632   4.798   7.547
19713TIP3    H259017   9.756   4.714   7.566
19714TIP3   OH259018   7.994   6.314   7.502
19714TIP3    H159019   7.904   6.343   7.478
19714TIP3    H259020   7.995   6.340   7.595
19715TIP3   OH259021   8.222   6.279   7.355
19715TIP3    H159022   8.140   6.290   7.410
19715TIP3    H259023   8.190   6.317   7.271
19716TIP3   OH259024   8.876   6.272   7.192
19716TIP3    H159025   8.831   6.351   7.224
19716TIP3    H259026   8.959   6.314   7.160
19717TIP3   OH259027   9.085   6.434   7.125
19717TIP3    H159028   9.083   6.525   7.089
19717TIP3    H259029   9.121   6.384   7.049
19718TIP3   OH259030   7.901   6.107   7.251
19718TIP3    H159031   7.922   6.077   7.342
19718TIP3    H259032   7.969   6.057   7.201
19719TIP3   OH259033   8.090   5.966   7.110
19719TIP3    H159034   8.088   5.880   7.159
19719TIP3    H259035   8.185   5.977   7.102
19720TIP3   OH259036   8.929   4.724   7.198
19720TIP3    H159037   8.885   4.656   7.252
19720TIP3    H259038   9.000   4.673   7.154
19721TIP3   OH259039   9.456   4.607   7.104
19721TIP3    H159040   9.490   4.658   7.027
19721TIP3    H259041   9.359   4.620   7.096
19722TIP3   OH259042   9.550   4.710   6.867
19722TIP3    H159043   9.622   4.656   6.828
19722TIP3    H259044   9.584   4.800   6.851
19723TIP3   OH259045   8.180   4.434   7.215
19723TIP3    H159046   8.089   4.400   7.216
19723TIP3    H259047   8.230   4.349   7.212
19724TIP3   OH259048   7.961   4.304   6.860
19724TIP3    H159049   7.994   4.362   6.790
19724TIP3    H259050   7.936   4.368   6.929
19725TIP3   OH259051   8.618   4.478   7.095
19725TIP3    H159052   8.684   4.522   7.040
19725TIP3    H259053   8.646   4.503   7.184
19726TIP3   OH259054   9.176   4.613   7.078
19726TIP3    H159055   9.166   4.574   6.990
19726TIP3    H259056   9.160   4.534   7.135
19727TIP3   OH259057   9.200   4.535   6.641
19727TIP3    H159058   9.112   4.576   6.653
19727TIP3    H259059   9.186   4.450   6.689
19728TIP3   OH259060   7.684   5.874   6.642
19728TIP3    H159061   7.599   5.839   6.608
19728TIP3    H259062   7.670   5.968   6.622
19729TIP3   OH259063   8.082   4.465   6.624
19729TIP3    H159064   8.131   4.400   6.570
19729TIP3    H259065   8.155   4.518   6.662
19730TIP3   OH259066   8.596   4.639   6.723
19730TIP3    H159067   8.650   4.589   6.786
19730TIP3    H259068   8.620   4.731   6.751
19731TIP3   OH259069   8.452   6.066   6.225
19731TIP3    H159070   8.539   6.092   6.189
19731TIP3    H259071   8.433   5.990   6.165
19732TIP3   OH259072   9.176   6.183   6.321
19732TIP3    H159073   9.164   6.085   6.307
19732TIP3    H259074   9.128   6.217   6.243
19733TIP3   OH259075   8.387   4.717   8.107
19733TIP3    H159076   8.353   4.645   8.163
19733TIP3    H259077   8.481   4.716   8.133
19734TIP3   OH259078   8.636   4.712   8.224
19734TIP3    H159079   8.721   4.687   8.185
19734TIP3    H259080   8.624   4.641   8.291
19735TIP3   OH259081   7.760   5.903   6.281
19735TIP3    H159082   7.755   5.926   6.375
19735TIP3    H259083   7.848   5.860   6.273
19736TIP3   OH259084   9.459   4.775   8.008
19736TIP3    H159085   9.477   4.743   8.099
19736TIP3    H259086   9.548   4.769   7.966
19737TIP3   OH259087   9.956   5.572   7.003
19737TIP3    H159088   9.994   5.505   7.064
19737TIP3    H259089  10.001   5.652   7.038
19738TIP3   OH259090   9.930   5.999   6.747
19738TIP3    H159091   9.927   5.901   6.749
19738TIP3    H259092  10.025   6.014   6.736
19739TIP3   OH259093   9.627   5.205   6.541
19739TIP3    H159094   9.609   5.290   6.499
19739TIP3    H259095   9.566   5.146   6.494
19740TIP3   OH259096   9.696   5.485   6.692
19740TIP3    H159097   9.752   5.412   6.726
19740TIP3    H259098   9.756   5.528   6.630
19741TIP3   OH259099  10.402   5.928   6.666
19741TIP3    H159100  10.443   5.864   6.606
19741TIP3    H259101  10.467   5.932   6.739
19742TIP3   OH259102  10.195   5.088   6.709
19742TIP3    H159103  10.197   5.153   6.636
19742TIP3    H259104  10.167   5.008   6.661
19743TIP3   OH259105   9.850   5.287   6.799
19743TIP3    H159106   9.933   5.269   6.848
19743TIP3    H259107   9.865   5.231   6.720
19744TIP3   OH259108  10.250   5.503   6.576
19744TIP3    H159109  10.344   5.484   6.594
19744TIP3    H259110  10.217   5.414   6.553
19745TIP3   OH259111  10.199   5.065   7.132
19745TIP3    H159112  10.140   5.102   7.065
19745TIP3    H259113  10.147   5.081   7.213
19746TIP3   OH259114  10.268   5.845   6.938
19746TIP3    H159115  10.219   5.908   6.992
19746TIP3    H259116  10.348   5.897   6.915
19747TIP3   OH259117  10.068   5.182   6.922
19747TIP3    H159118  10.133   5.252   6.945
19747TIP3    H259119  10.116   5.141   6.846
19748TIP3   OH259120   9.512   5.737   6.276
19748TIP3    H159121   9.511   5.740   6.179
19748TIP3    H259122   9.581   5.802   6.299
19749TIP3   OH259123  10.046   5.650   6.473
19749TIP3    H159124  10.018   5.609   6.390
19749TIP3    H259125  10.120   5.593   6.503
19750TIP3   OH259126  10.177   6.062   6.621
19750TIP3    H159127  10.148   6.024   6.535
19750TIP3    H259128  10.256   6.007   6.641
19751TIP3   OH259129  10.228   5.593   6.843
19751TIP3    H159130  10.240   5.590   6.747
19751TIP3    H259131  10.245   5.687   6.865
19752TIP3   OH259132  10.021   5.755   7.199
19752TIP3    H159133  10.024   5.850   7.223
19752TIP3    H259134   9.948   5.721   7.255
19753TIP3   OH259135  10.404   6.203   6.203
19753TIP3    H159136  10.450   6.280   6.236
19753TIP3    H259137  10.342   6.241   6.138
19754TIP3   OH259138   9.721   5.852   7.201
19754TIP3    H159139   9.654   5.827   7.135
19754TIP3    H259140   9.748   5.767   7.241
19755TIP3   OH259141   9.581   6.036   6.855
19755TIP3    H159142   9.670   6.045   6.818
19755TIP3    H259143   9.564   6.126   6.887
19756TIP3   OH259144  10.316   6.403   5.990
19756TIP3    H159145  10.275   6.382   5.904
19756TIP3    H259146  10.273   6.488   6.011
19757TIP3   OH259147   9.745   6.266   6.359
19757TIP3    H159148   9.791   6.257   6.445
19757TIP3    H259149   9.698   6.180   6.356
19758TIP3   OH259150   9.906   6.050   7.190
19758TIP3    H159151   9.931   6.046   7.284
19758TIP3    H259152   9.837   5.980   7.187
19759TIP3   OH259153  10.314   4.860   6.985
19759TIP3    H159154  10.227   4.830   6.954
19759TIP3    H259155  10.288   4.942   7.030
19760TIP3   OH259156  10.260   5.361   6.976
19760TIP3    H159157  10.239   5.399   7.063
19760TIP3    H259158  10.250   5.443   6.921
19761TIP3   OH259159  10.140   5.262   6.505
19761TIP3    H159160  10.049   5.234   6.528
19761TIP3    H259161  10.145   5.229   6.412
19762TIP3   OH259162  10.053   5.396   7.204
19762TIP3    H159163  10.091   5.452   7.273
19762TIP3    H259164  10.051   5.309   7.249
19763TIP3   OH259165  10.114   4.914   5.907
19763TIP3    H159166  10.099   4.887   5.999
19763TIP3    H259167  10.025   4.919   5.873
19764TIP3   OH259168   9.673   4.936   6.781
19764TIP3    H159169   9.751   4.960   6.834
19764TIP3    H259170   9.710   4.895   6.702
19765TIP3   OH259171   9.648   4.912   6.301
19765TIP3    H159172   9.693   4.950   6.222
19765TIP3    H259173   9.585   4.984   6.320
19766TIP3   OH259174   9.902   5.140   6.577
19766TIP3    H159175   9.806   5.137   6.554
19766TIP3    H259176   9.933   5.050   6.558
19767TIP3   OH259177  10.157   5.165   6.249
19767TIP3    H159178  10.225   5.195   6.187
19767TIP3    H259179  10.079   5.174   6.190
19768TIP3   OH259180   9.992   5.162   6.040
19768TIP3    H159181   9.910   5.126   6.002
19768TIP3    H259182  10.034   5.195   5.961
19769TIP3   OH259183  10.072   4.905   6.538
19769TIP3    H159184  10.039   4.829   6.590
19769TIP3    H259185  10.134   4.862   6.478
19770TIP3   OH259186  10.253   5.661   6.057
19770TIP3    H159187  10.159   5.637   6.068
19770TIP3    H259188  10.266   5.721   6.132
19771TIP3   OH259189   9.950   5.718   6.731
19771TIP3    H159190   9.986   5.696   6.643
19771TIP3    H259191   9.999   5.658   6.790
19772TIP3   OH259192   9.822   5.637   7.346
19772TIP3    H159193   9.821   5.617   7.442
19772TIP3    H259194   9.761   5.567   7.316
19773TIP3   OH259195  10.061   6.028   6.355
19773TIP3    H159196  10.060   6.110   6.302
19773TIP3    H259197   9.967   6.003   6.353
19774TIP3   OH259198   9.624   5.330   6.052
19774TIP3    H159199   9.683   5.405   6.072
19774TIP3    H259200   9.550   5.345   6.115
19775TIP3   OH259201  10.237   5.814   6.324
19775TIP3    H159202  10.182   5.895   6.322
19775TIP3    H259203  10.177   5.753   6.370
19776TIP3   OH259204   9.977   6.262   6.204
19776TIP3    H159205   9.892   6.273   6.251
19776TIP3    H259206  10.012   6.354   6.208
19777TIP3   OH259207  10.044   5.148   7.344
19777TIP3    H159208   9.951   5.159   7.370
19777TIP3    H259209  10.078   5.095   7.418
19778TIP3   OH259210   9.772   6.238   6.989
19778TIP3    H159211   9.798   6.152   7.025
19778TIP3    H259212   9.813   6.299   7.052
19779TIP3   OH259213  10.070   5.876   5.652
19779TIP3    H159214  10.079   5.780   5.635
19779TIP3    H259215  10.049   5.876   5.748
19780TIP3   OH259216  10.003   5.886   5.913
19780TIP3    H159217  10.033   5.830   5.988
19780TIP3    H259218  10.015   5.977   5.946
19781TIP3   OH259219  10.267   6.110   5.889
19781TIP3    H159220  10.176   6.117   5.925
19781TIP3    H259221  10.271   6.187   5.832
19782TIP3   OH259222  10.004   6.160   5.951
19782TIP3    H159223   9.974   6.230   5.889
19782TIP3    H259224   9.988   6.201   6.038
19783TIP3   OH259225  10.117   4.879   6.189
19783TIP3    H159226  10.081   4.957   6.234
19783TIP3    H259227  10.203   4.914   6.161
19784TIP3   OH259228   9.716   5.814   5.921
19784TIP3    H159229   9.789   5.869   5.952
19784TIP3    H259230   9.767   5.736   5.893
19785TIP3   OH259231   9.680   5.063   6.072
19785TIP3    H159232   9.676   5.161   6.070
19785TIP3    H259233   9.593   5.040   6.037
19786TIP3   OH259234  10.046   4.785   6.952
19786TIP3    H159235  10.026   4.748   6.864
19786TIP3    H259236  10.049   4.705   7.008
19787TIP3   OH259237   9.610   6.025   6.339
19787TIP3    H159238   9.519   6.020   6.371
19787TIP3    H259239   9.592   6.048   6.245
19788TIP3   OH259240  10.209   6.096   5.574
19788TIP3    H159241  10.158   6.020   5.610
19788TIP3    H259242  10.301   6.064   5.588
19789TIP3   OH259243   9.860   5.594   5.795
19789TIP3    H159244   9.890   5.584   5.888
19789TIP3    H259245   9.942   5.621   5.752
19790TIP3   OH259246  10.317   5.536   7.187
19790TIP3    H159247  10.305   5.600   7.261
19790TIP3    H259248  10.327   5.597   7.113
19791TIP3   OH259249  10.444   5.331   7.319
19791TIP3    H159250  10.460   5.239   7.284
19791TIP3    H259251  10.372   5.363   7.263
19792TIP3   OH259252  10.463   5.113   7.168
19792TIP3    H159253  10.496   5.109   7.077
19792TIP3    H259254  10.371   5.080   7.158
19793TIP3   OH259255  10.170   5.278   7.596
19793TIP3    H159256  10.173   5.180   7.599
19793TIP3    H259257  10.200   5.305   7.684
19794TIP3   OH259258   9.980   6.363   5.762
19794TIP3    H159259  10.076   6.361   5.744
19794TIP3    H259260   9.949   6.412   5.683
19795TIP3   OH259261   9.462   5.739   5.982
19795TIP3    H159262   9.554   5.770   5.962
19795TIP3    H259263   9.461   5.652   5.938
19796TIP3   OH259264   9.380   6.349   6.399
19796TIP3    H159265   9.313   6.293   6.353
19796TIP3    H259266   9.406   6.290   6.471
19797TIP3   OH259267   9.253   6.016   6.796
19797TIP3    H159268   9.322   5.988   6.736
19797TIP3    H259269   9.230   6.104   6.762
19798TIP3   OH259270   9.695   5.601   6.943
19798TIP3    H159271   9.702   5.588   6.847
19798TIP3    H259272   9.792   5.600   6.965
19799TIP3   OH259273   9.895   5.284   7.594
19799TIP3    H159274   9.992   5.298   7.597
19799TIP3    H259275   9.882   5.221   7.667
19800TIP3   OH259276   9.871   4.996   6.969
19800TIP3    H159277   9.929   4.917   6.972
19800TIP3    H259278   9.938   5.065   6.953
19801TIP3   OH259279   9.675   5.311   6.999
19801TIP3    H159280   9.736   5.280   6.928
19801TIP3    H259281   9.738   5.343   7.066
19802TIP3   OH259282   9.664   4.775   6.534
19802TIP3    H159283   9.570   4.765   6.557
19802TIP3    H259284   9.660   4.829   6.453
19803TIP3   OH259285   9.881   4.853   7.346
19803TIP3    H159286   9.832   4.842   7.429
19803TIP3    H259287   9.811   4.884   7.286
19804TIP3   OH259288   9.692   6.360   6.746
19804TIP3    H159289   9.730   6.338   6.834
19804TIP3    H259290   9.754   6.309   6.689
19805TIP3   OH259291   9.871   6.225   6.593
19805TIP3    H159292   9.894   6.144   6.645
19805TIP3    H259293   9.960   6.264   6.577
19806TIP3   OH259294  10.123   6.322   6.558
19806TIP3    H159295  10.155   6.230   6.572
19806TIP3    H259296  10.150   6.366   6.640
19807TIP3   OH259297   9.968   4.699   6.695
19807TIP3    H159298   9.876   4.668   6.698
19807TIP3    H259299  10.014   4.612   6.701
19808TIP3   OH259300   9.759   4.560   6.345
19808TIP3    H159301   9.788   4.623   6.276
19808TIP3    H259302   9.732   4.621   6.417
19809TIP3   OH259303   9.478   6.129   6.128
19809TIP3    H159304   9.393   6.095   6.095
19809TIP3    H259305   9.466   6.224   6.109
19810TIP3   OH259306   9.874   4.729   6.114
19810TIP3    H159307   9.913   4.657   6.060
19810TIP3    H259308   9.952   4.771   6.153
19811TIP3   OH259309  10.254   6.329   5.713
19811TIP3    H159310  10.350   6.337   5.704
19811TIP3    H259311  10.233   6.256   5.650
19812TIP3   OH259312  10.149   4.998   7.588
19812TIP3    H159313  10.099   4.930   7.637
19812TIP3    H259314  10.238   4.954   7.587
19813TIP3   OH259315  10.379   4.873   7.658
19813TIP3    H159316  10.446   4.937   7.625
19813TIP3    H259317  10.376   4.902   7.750
19814TIP3   OH259318   9.554   6.159   5.769
19814TIP3    H159319   9.549   6.183   5.863
19814TIP3    H259320   9.642   6.116   5.762
19815TIP3   OH259321   1.322   6.228   8.476
19815TIP3    H159322   1.295   6.320   8.457
19815TIP3    H259323   1.246   6.179   8.442
19816TIP3   OH259324   1.327   6.226   8.848
19816TIP3    H159325   1.355   6.199   8.938
19816TIP3    H259326   1.284   6.145   8.816
19817TIP3   OH259327   1.562   6.535   8.536
19817TIP3    H159328   1.552   6.461   8.597
19817TIP3    H259329   1.594   6.606   8.594
19818TIP3   OH259330   1.214   6.997   8.548
19818TIP3    H159331   1.258   6.920   8.505
19818TIP3    H259332   1.192   6.960   8.635
19819TIP3   OH259333   1.109   6.405   8.879
19819TIP3    H159334   1.187   6.353   8.851
19819TIP3    H259335   1.154   6.482   8.916
19820TIP3   OH259336   2.128   5.775   8.900
19820TIP3    H159337   2.160   5.856   8.945
19820TIP3    H259338   2.155   5.792   8.808
19821TIP3   OH259339   1.530   5.957   8.937
19821TIP3    H159340   1.577   5.873   8.955
19821TIP3    H259341   1.502   5.943   8.845
19822TIP3   OH259342   0.900   5.620   8.902
19822TIP3    H159343   0.863   5.695   8.851
19822TIP3    H259344   0.867   5.544   8.849
19823TIP3   OH259345   1.564   5.709   8.522
19823TIP3    H159346   1.636   5.692   8.588
19823TIP3    H259347   1.618   5.740   8.447
19824TIP3   OH259348   0.945   6.024   8.818
19824TIP3    H159349   1.039   5.995   8.819
19824TIP3    H259350   0.902   5.949   8.773
19825TIP3   OH259351   2.203   5.978   9.076
19825TIP3    H159352   2.121   6.029   9.058
19825TIP3    H259353   2.231   6.016   9.161
19826TIP3   OH259354   1.214   6.450   8.346
19826TIP3    H159355   1.176   6.426   8.261
19826TIP3    H259356   1.169   6.534   8.366
19827TIP3   OH259357   1.771   5.710   8.697
19827TIP3    H159358   1.779   5.653   8.774
19827TIP3    H259359   1.831   5.784   8.718
19828TIP3   OH259360   1.636   6.774   8.706
19828TIP3    H159361   1.546   6.766   8.745
19828TIP3    H259362   1.627   6.860   8.660
19829TIP3   OH259363   1.922   5.678   9.066
19829TIP3    H159364   1.837   5.703   9.028
19829TIP3    H259365   1.986   5.708   8.998
19830TIP3   OH259366   1.228   5.313   9.045
19830TIP3    H159367   1.210   5.219   9.065
19830TIP3    H259368   1.148   5.353   9.085
19831TIP3   OH259369   1.337   6.820   8.378
19831TIP3    H159370   1.387   6.737   8.358
19831TIP3    H259371   1.398   6.885   8.338
19832TIP3   OH259372   1.479   6.607   8.283
19832TIP3    H159373   1.451   6.526   8.240
19832TIP3    H259374   1.515   6.573   8.368
19833TIP3   OH259375   1.860   6.690   9.046
19833TIP3    H159376   1.851   6.611   8.989
19833TIP3    H259377   1.848   6.763   8.982
19834TIP3   OH259378   1.154   6.080   8.304
19834TIP3    H159379   1.075   6.131   8.276
19834TIP3    H259380   1.205   6.076   8.220
19835TIP3   OH259381   1.113   5.865   8.022
19835TIP3    H159382   1.181   5.916   8.070
19835TIP3    H259383   1.171   5.801   7.974
19836TIP3   OH259384   2.056   6.323   8.892
19836TIP3    H159385   1.974   6.376   8.898
19836TIP3    H259386   2.086   6.346   8.802
19837TIP3   OH259387   1.499   6.164   8.276
19837TIP3    H159388   1.447   6.187   8.357
19837TIP3    H259389   1.584   6.136   8.317
19838TIP3   OH259390   1.737   6.197   9.192
19838TIP3    H159391   1.737   6.281   9.242
19838TIP3    H259392   1.653   6.206   9.144
19839TIP3   OH259393   0.874   6.122   9.060
19839TIP3    H159394   0.906   6.086   8.975
19839TIP3    H259395   0.935   6.196   9.074
19840TIP3   OH259396   1.394   6.775   8.826
19840TIP3    H159397   1.381   6.844   8.893
19840TIP3    H259398   1.381   6.693   8.878
19841TIP3   OH259399   1.338   6.025   8.102
19841TIP3    H159400   1.400   6.080   8.155
19841TIP3    H259401   1.366   6.048   8.010
19842TIP3   OH259402   1.079   6.707   8.382
19842TIP3    H159403   1.166   6.746   8.401
19842TIP3    H259404   1.036   6.779   8.333
19843TIP3   OH259405   1.858   5.266   8.151
19843TIP3    H159406   1.776   5.283   8.202
19843TIP3    H259407   1.865   5.347   8.098
19844TIP3   OH259408   1.656   6.630   7.700
19844TIP3    H159409   1.667   6.727   7.685
19844TIP3    H259410   1.748   6.599   7.686
19845TIP3   OH259411   2.098   7.030   9.092
19845TIP3    H159412   2.100   6.933   9.106
19845TIP3    H259413   2.014   7.052   9.138
19846TIP3   OH259414   1.208   6.774   9.243
19846TIP3    H159415   1.211   6.872   9.251
19846TIP3    H259416   1.118   6.760   9.209
19847TIP3   OH259417   0.994   6.930   8.204
19847TIP3    H159418   0.959   6.909   8.115
19847TIP3    H259419   0.953   7.016   8.221
19848TIP3   OH259420   1.171   6.847   7.820
19848TIP3    H159421   1.228   6.777   7.782
19848TIP3    H259422   1.211   6.858   7.909
19849TIP3   OH259423   1.234   6.891   8.086
19849TIP3    H159424   1.153   6.895   8.139
19849TIP3    H259425   1.295   6.849   8.149
19850TIP3   OH259426   1.997   6.160   9.363
19850TIP3    H159427   1.912   6.181   9.321
19850TIP3    H259428   2.005   6.064   9.345
19851TIP3   OH259429   0.985   5.396   9.144
19851TIP3    H159430   0.930   5.342   9.202
19851TIP3    H259431   0.993   5.479   9.192
19852TIP3   OH259432   1.444   5.521   9.335
19852TIP3    H159433   1.512   5.506   9.404
19852TIP3    H259434   1.362   5.512   9.385
19853TIP3   OH259435   1.740   5.933   9.322
19853TIP3    H159436   1.764   5.964   9.412
19853TIP3    H259437   1.733   6.018   9.273
19854TIP3   OH259438   1.412   6.076   7.847
19854TIP3    H159439   1.384   6.043   7.760
19854TIP3    H259440   1.499   6.114   7.824
19855TIP3   OH259441   1.128   5.449   8.148
19855TIP3    H159442   1.100   5.442   8.241
19855TIP3    H259443   1.095   5.363   8.114
19856TIP3   OH259444   0.908   5.893   9.203
19856TIP3    H159445   0.870   5.927   9.285
19856TIP3    H259446   0.894   5.969   9.143
19857TIP3   OH259447   0.792   5.788   8.712
19857TIP3    H159448   0.697   5.800   8.696
19857TIP3    H259449   0.817   5.745   8.628
19858TIP3   OH259450   1.290   5.880   8.437
19858TIP3    H159451   1.240   5.952   8.394
19858TIP3    H259452   1.349   5.851   8.364
19859TIP3   OH259453   1.448   5.910   8.678
19859TIP3    H159454   1.390   5.940   8.605
19859TIP3    H259455   1.484   5.829   8.635
19860TIP3   OH259456   0.789   5.420   8.118
19860TIP3    H159457   0.781   5.416   8.215
19860TIP3    H259458   0.697   5.427   8.089
19861TIP3   OH259459   1.453   6.161   9.096
19861TIP3    H159460   1.490   6.090   9.038
19861TIP3    H259461   1.431   6.108   9.175
19862TIP3   OH259462   1.141   5.624   8.768
19862TIP3    H159463   1.062   5.624   8.825
19862TIP3    H259464   1.212   5.612   8.833
19863TIP3   OH259465   0.837   5.675   8.464
19863TIP3    H159466   0.934   5.687   8.455
19863TIP3    H259467   0.801   5.711   8.381
19864TIP3   OH259468   1.621   5.695   8.977
19864TIP3    H159469   1.573   5.708   9.062
19864TIP3    H259470   1.563   5.631   8.932
19865TIP3   OH259471   0.654   5.732   8.242
19865TIP3    H159472   0.618   5.643   8.226
19865TIP3    H259473   0.716   5.745   8.166
19866TIP3   OH259474   1.815   7.363   9.161
19866TIP3    H159475   1.799   7.414   9.080
19866TIP3    H259476   1.807   7.429   9.231
19867TIP3   OH259477   1.212   5.946   8.866
19867TIP3    H159478   1.284   5.907   8.814
19867TIP3    H259479   1.223   5.902   8.952
19868TIP3   OH259480   0.768   5.436   8.746
19868TIP3    H159481   0.705   5.363   8.762
19868TIP3    H259482   0.817   5.402   8.670
19869TIP3   OH259483   1.186   5.843   9.157
19869TIP3    H159484   1.095   5.876   9.167
19869TIP3    H259485   1.240   5.908   9.205
19870TIP3   OH259486   0.929   6.230   8.239
19870TIP3    H159487   0.854   6.166   8.237
19870TIP3    H259488   0.918   6.268   8.330
19871TIP3   OH259489   1.825   6.471   8.884
19871TIP3    H159490   1.849   6.519   8.802
19871TIP3    H259491   1.740   6.428   8.859
19872TIP3   OH259492   1.384   5.547   8.116
19872TIP3    H159493   1.287   5.533   8.123
19872TIP3    H259494   1.396   5.641   8.141
19873TIP3   OH259495   1.349   6.544   9.244
19873TIP3    H159496   1.311   6.491   9.316
19873TIP3    H259497   1.297   6.627   9.250
19874TIP3   OH259498   1.454   5.794   8.220
19874TIP3    H159499   1.551   5.794   8.234
19874TIP3    H259500   1.442   5.873   8.163
19875TIP3   OH259501   1.077   6.377   8.067
19875TIP3    H159502   1.033   6.464   8.080
19875TIP3    H259503   1.023   6.320   8.127
19876TIP3   OH259504   1.485   6.825   9.134
19876TIP3    H159505   1.397   6.793   9.159
19876TIP3    H259506   1.513   6.867   9.218
19877TIP3   OH259507   2.112   6.740   9.135
19877TIP3    H159508   2.014   6.736   9.128
19877TIP3    H259509   2.137   6.710   9.045
19878TIP3   OH259510   1.591   6.703   7.963
19878TIP3    H159511   1.572   6.631   8.026
19878TIP3    H259512   1.606   6.655   7.880
19879TIP3   OH259513   1.591   6.332   8.804
19879TIP3    H159514   1.497   6.305   8.814
19879TIP3    H259515   1.626   6.253   8.758
19880TIP3   OH259516   0.899   6.326   8.487
19880TIP3    H159517   0.885   6.419   8.510
19880TIP3    H259518   0.866   6.281   8.564
19881TIP3   OH259519   1.385   6.540   8.975
19881TIP3    H159520   1.375   6.536   9.072
19881TIP3    H259521   1.459   6.481   8.960
19882TIP3   OH259522   1.349   6.434   7.866
19882TIP3    H159523   1.403   6.408   7.944
19882TIP3    H259524   1.263   6.400   7.894
19883TIP3   OH259525   1.621   7.074   9.037
19883TIP3    H159526   1.546   7.011   9.031
19883TIP3    H259527   1.604   7.133   8.961
19884TIP3   OH259528   1.689   6.906   7.685
19884TIP3    H159529   1.729   6.982   7.638
19884TIP3    H259530   1.608   6.950   7.717
19885TIP3   OH259531   1.507   6.369   8.085
19885TIP3    H159532   1.497   6.299   8.153
19885TIP3    H259533   1.604   6.365   8.072
19886TIP3   OH259534   0.770   6.386   7.893
19886TIP3    H159535   0.791   6.302   7.847
19886TIP3    H259536   0.753   6.353   7.982
19887TIP3   OH259537   1.528   5.767   9.228
19887TIP3    H159538   1.618   5.788   9.259
19887TIP3    H259539   1.506   5.682   9.271
19888TIP3   OH259540   1.420   5.502   8.398
19888TIP3    H159541   1.414   5.522   8.302
19888TIP3    H259542   1.465   5.582   8.432
19889TIP3   OH259543   0.936   6.604   8.093
19889TIP3    H159544   0.842   6.619   8.113
19889TIP3    H259545   0.950   6.661   8.016
19890TIP3   OH259546   1.110   5.680   8.500
19890TIP3    H159547   1.178   5.748   8.479
19890TIP3    H259548   1.124   5.669   8.596
19891TIP3   OH259549   1.379   5.999   9.301
19891TIP3    H159550   1.394   6.009   9.396
19891TIP3    H259551   1.427   5.915   9.283
19892TIP3   OH259552   1.261   5.405   8.602
19892TIP3    H159553   1.259   5.480   8.665
19892TIP3    H259554   1.321   5.441   8.533
19893TIP3   OH259555   0.778   5.417   8.400
19893TIP3    H159556   0.798   5.504   8.440
19893TIP3    H259557   0.868   5.378   8.401
19894TIP3   OH259558   2.013   5.896   9.290
19894TIP3    H159559   1.917   5.876   9.290
19894TIP3    H259560   2.039   5.860   9.203
19895TIP3   OH259561   1.675   6.091   8.677
19895TIP3    H159562   1.601   6.029   8.687
19895TIP3    H259563   1.748   6.045   8.723
19896TIP3   OH259564   1.642   7.049   8.628
19896TIP3    H159565   1.602   7.097   8.552
19896TIP3    H259566   1.737   7.066   8.608
19897TIP3   OH259567   0.908   6.605   7.793
19897TIP3    H159568   0.864   6.526   7.829
19897TIP3    H259569   0.975   6.565   7.736
19898TIP3   OH259570   1.525   6.948   9.379
19898TIP3    H159571   1.508   6.887   9.454
19898TIP3    H259572   1.602   7.000   9.412
19899TIP3   OH259573   1.318   6.656   7.689
19899TIP3    H159574   1.357   6.590   7.750
19899TIP3    H259575   1.378   6.652   7.612
19900TIP3   OH259576   1.190   6.423   9.438
19900TIP3    H159577   1.122   6.489   9.450
19900TIP3    H259578   1.226   6.410   9.528
19901TIP3   OH259579   1.046   6.323   7.799
19901TIP3    H159580   1.048   6.337   7.896
19901TIP3    H259581   1.046   6.224   7.796
19902TIP3   OH259582   1.651   6.569   9.183
19902TIP3    H159583   1.719   6.623   9.138
19902TIP3    H259584   1.572   6.624   9.173
19903TIP3   OH259585   0.739   6.032   8.223
19903TIP3    H159586   0.707   5.977   8.296
19903TIP3    H259587   0.772   5.964   8.161
19904TIP3   OH259588   1.073   6.101   9.417
19904TIP3    H159589   0.979   6.127   9.407
19904TIP3    H259590   1.110   6.129   9.331
19905TIP3   OH259591   0.836   5.827   8.061
19905TIP3    H159592   0.814   5.835   7.966
19905TIP3    H259593   0.934   5.832   8.056
19906TIP3   OH259594   1.572   6.526   9.558
19906TIP3    H159595   1.660   6.535   9.518
19906TIP3    H259596   1.579   6.435   9.590
19907TIP3   OH259597   1.643   6.163   7.724
19907TIP3    H159598   1.631   6.109   7.644
19907TIP3    H259599   1.612   6.251   7.691
19908TIP3   OH259600   1.103   5.646   9.341
19908TIP3    H159601   1.145   5.695   9.267
19908TIP3    H259602   1.014   5.687   9.343
19909TIP3   OH259603   1.149   6.221   9.186
19909TIP3    H159604   1.242   6.209   9.161
19909TIP3    H259605   1.148   6.315   9.210
19910TIP3   OH259606   1.778   6.421   9.364
19910TIP3    H159607   1.721   6.476   9.306
19910TIP3    H259608   1.866   6.447   9.329
19911TIP3   OH259609   1.894   7.143   8.582
19911TIP3    H159610   1.923   7.170   8.670
19911TIP3    H259611   1.961   7.182   8.525
19912TIP3   OH259612   1.927   7.160   8.864
19912TIP3    H159613   1.883   7.072   8.860
19912TIP3    H259614   2.000   7.138   8.923
19913TIP3   OH259615   1.983   6.838   9.412
19913TIP3    H159616   1.909   6.838   9.476
19913TIP3    H259617   2.019   6.927   9.423
19914TIP3   OH259618   1.783   6.357   8.065
19914TIP3    H159619   1.858   6.410   8.031
19914TIP3    H259620   1.826   6.311   8.140
19915TIP3   OH259621   1.913   6.219   8.262
19915TIP3    H159622   1.850   6.172   8.320
19915TIP3    H259623   1.981   6.250   8.325
19916TIP3   OH259624   1.968   6.605   8.691
19916TIP3    H159625   2.023   6.540   8.644
19916TIP3    H259626   1.960   6.677   8.625
19917TIP3   OH259627   1.802   6.910   8.886
19917TIP3    H159628   1.731   6.944   8.943
19917TIP3    H259629   1.752   6.859   8.819
19918TIP3   OH259630   1.859   6.151   7.893
19918TIP3    H159631   1.780   6.137   7.836
19918TIP3    H259632   1.821   6.209   7.962
19919TIP3   OH259633   1.728   6.070   8.405
19919TIP3    H159634   1.741   5.974   8.392
19919TIP3    H259635   1.718   6.078   8.502
19920TIP3   OH259636   2.020   6.498   9.267
19920TIP3    H159637   2.092   6.431   9.257
19920TIP3    H259638   2.049   6.567   9.205
19921TIP3   OH259639   2.206   6.307   9.283
19921TIP3    H159640   2.134   6.252   9.320
19921TIP3    H259641   2.282   6.246   9.294
19922TIP3   OH259642   1.696   5.495   7.840
19922TIP3    H159643   1.748   5.560   7.893
19922TIP3    H259644   1.615   5.486   7.892
19923TIP3   OH259645   1.727   5.783   8.298
19923TIP3    H159646   1.766   5.696   8.324
19923TIP3    H259647   1.773   5.787   8.211
19924TIP3   OH259648   1.888   5.965   8.797
19924TIP3    H159649   1.974   5.989   8.756
19924TIP3    H259650   1.904   5.999   8.887
19925TIP3   OH259651   1.956   6.105   9.031
19925TIP3    H159652   1.878   6.141   9.079
19925TIP3    H259653   1.990   6.184   8.984
19926TIP3   OH259654   2.394   5.673   9.563
19926TIP3    H159655   2.469   5.626   9.522
19926TIP3    H259656   2.407   5.764   9.532
19927TIP3   OH259657   1.823   5.535   8.361
19927TIP3    H159658   1.879   5.514   8.437
19927TIP3    H259659   1.771   5.453   8.350
19928TIP3   OH259660   2.275   5.854   9.379
19928TIP3    H159661   2.180   5.867   9.392
19928TIP3    H259662   2.275   5.773   9.327
19929TIP3   OH259663   1.480   7.006   8.240
19929TIP3    H159664   1.530   6.989   8.157
19929TIP3    H259665   1.539   7.068   8.286
19930TIP3   OH259666   1.268   7.040   9.284
19930TIP3    H159667   1.342   7.011   9.341
19930TIP3    H259668   1.315   7.100   9.223
19931TIP3   OH259669   1.404   7.246   9.155
19931TIP3    H159670   1.470   7.189   9.112
19931TIP3    H259671   1.459   7.296   9.217
19932TIP3   OH259672   2.176   5.598   9.249
19932TIP3    H159673   2.086   5.589   9.212
19932TIP3    H259674   2.209   5.506   9.241
19933TIP3   OH259675   1.101   7.122   8.806
19933TIP3    H159676   1.005   7.133   8.799
19933TIP3    H259677   1.125   7.202   8.857
19934TIP3   OH259678   1.363   7.059   8.908
19934TIP3    H159679   1.276   7.060   8.865
19934TIP3    H259680   1.413   7.122   8.853
19935TIP3   OH259681   1.576   7.243   8.816
19935TIP3    H159682   1.558   7.324   8.763
19935TIP3    H259683   1.604   7.179   8.746
19936TIP3   OH259684   1.379   5.512   8.884
19936TIP3    H159685   1.341   5.442   8.940
19936TIP3    H259686   1.455   5.467   8.843
19937TIP3   OH259687   1.904   5.396   8.798
19937TIP3    H159688   1.945   5.444   8.722
19937TIP3    H259689   1.809   5.413   8.784
19938TIP3   OH259690   2.003   5.493   8.563
19938TIP3    H159691   2.076   5.441   8.521
19938TIP3    H259692   2.035   5.584   8.544
19939TIP3   OH259693   1.078   5.262   8.783
19939TIP3    H159694   1.140   5.310   8.726
19939TIP3    H259695   1.103   5.293   8.872
19940TIP3   OH259696   1.620   5.404   8.769
19940TIP3    H159697   1.623   5.366   8.679
19940TIP3    H259698   1.606   5.322   8.823
19941TIP3   OH259699   1.651   5.318   8.330
19941TIP3    H159700   1.564   5.361   8.339
19941TIP3    H259701   1.635   5.234   8.379
19942TIP3   OH259702   0.570   5.173   8.357
19942TIP3    H159703   0.568   5.158   8.261
19942TIP3    H259704   0.597   5.265   8.363
19943TIP3   OH259705   1.054   5.426   8.415
19943TIP3    H159706   1.115   5.379   8.475
19943TIP3    H259707   1.077   5.519   8.439
19944TIP3   OH259708   0.922   6.854   7.944
19944TIP3    H159709   1.011   6.859   7.901
19944TIP3    H259710   0.872   6.816   7.869
19945TIP3   OH259711   1.626   6.969   8.007
19945TIP3    H159712   1.617   6.871   7.995
19945TIP3    H259713   1.581   7.000   7.925
19946TIP3   OH259714   1.853   7.102   9.200
19946TIP3    H159715   1.773   7.075   9.152
19946TIP3    H259716   1.846   7.200   9.189
19947TIP3   OH259717   3.120   6.487   7.960
19947TIP3    H159718   3.091   6.579   7.941
19947TIP3    H259719   3.042   6.437   7.932
19948TIP3   OH259720   3.116   6.486   8.343
19948TIP3    H159721   3.149   6.457   8.430
19948TIP3    H259722   3.075   6.404   8.310
19949TIP3   OH259723   2.416   6.381   8.707
19949TIP3    H159724   2.446   6.313   8.771
19949TIP3    H259725   2.495   6.437   8.703
19950TIP3   OH259726   3.360   6.789   8.023
19950TIP3    H159727   3.347   6.717   8.086
19950TIP3    H259728   3.389   6.862   8.081
19951TIP3   OH259729   2.386   6.791   8.431
19951TIP3    H159730   2.378   6.693   8.433
19951TIP3    H259731   2.483   6.800   8.432
19952TIP3   OH259732   2.094   5.994   8.217
19952TIP3    H159733   2.035   6.072   8.218
19952TIP3    H259734   2.034   5.925   8.186
19953TIP3   OH259735   2.155   6.282   8.390
19953TIP3    H159736   2.202   6.204   8.426
19953TIP3    H259737   2.209   6.301   8.312
19954TIP3   OH259738   3.010   7.251   8.040
19954TIP3    H159739   3.057   7.180   7.991
19954TIP3    H259740   3.004   7.214   8.129
19955TIP3   OH259741   2.917   6.713   8.388
19955TIP3    H159742   2.953   6.634   8.345
19955TIP3    H259743   3.001   6.757   8.412
19956TIP3   OH259744   3.927   6.033   8.387
19956TIP3    H159745   3.958   6.115   8.432
19956TIP3    H259746   3.952   6.052   8.295
19957TIP3   OH259747   3.331   6.216   8.422
19957TIP3    H159748   3.371   6.129   8.444
19957TIP3    H259749   3.298   6.198   8.332
19958TIP3   OH259750   2.667   5.873   8.387
19958TIP3    H159751   2.645   5.945   8.325
19958TIP3    H259752   2.621   5.798   8.343
19959TIP3   OH259753   3.361   5.964   8.011
19959TIP3    H159754   3.431   5.947   8.077
19959TIP3    H259755   3.415   5.999   7.938
19960TIP3   OH259756   2.300   6.075   8.495
19960TIP3    H159757   2.383   6.054   8.541
19960TIP3    H259758   2.311   6.019   8.415
19961TIP3   OH259759   2.741   6.274   8.287
19961TIP3    H159760   2.834   6.247   8.301
19961TIP3    H259761   2.701   6.189   8.256
19962TIP3   OH259762   4.003   6.240   8.556
19962TIP3    H159763   3.918   6.286   8.540
19962TIP3    H259764   4.015   6.259   8.650
19963TIP3   OH259765   2.664   5.856   8.821
19963TIP3    H159766   2.603   5.892   8.755
19963TIP3    H259767   2.613   5.871   8.903
19964TIP3   OH259768   3.015   6.710   7.829
19964TIP3    H159769   2.966   6.682   7.750
19964TIP3    H259770   2.968   6.793   7.852
19965TIP3   OH259771   2.770   6.631   8.618
19965TIP3    H159772   2.706   6.695   8.657
19965TIP3    H259773   2.811   6.685   8.547
19966TIP3   OH259774   3.571   5.966   8.181
19966TIP3    H159775   3.561   5.915   8.262
19966TIP3    H259776   3.625   6.042   8.211
19967TIP3   OH259777   2.533   5.971   8.606
19967TIP3    H159778   2.597   6.043   8.630
19967TIP3    H259779   2.582   5.930   8.531
19968TIP3   OH259780   2.596   6.824   8.715
19968TIP3    H159781   2.569   6.911   8.678
19968TIP3    H259782   2.518   6.807   8.772
19969TIP3   OH259783   1.993   6.514   7.951
19969TIP3    H159784   1.950   6.540   7.867
19969TIP3    H259785   2.024   6.599   7.987
19970TIP3   OH259786   3.432   7.031   8.192
19970TIP3    H159787   3.342   7.021   8.231
19970TIP3    H259788   3.422   7.117   8.147
19971TIP3   OH259789   3.722   5.933   8.555
19971TIP3    H159790   3.634   5.962   8.524
19971TIP3    H259791   3.781   5.964   8.483
19972TIP3   OH259792   3.021   5.577   8.537
19972TIP3    H159793   3.007   5.481   8.552
19972TIP3    H259794   2.943   5.614   8.583
19973TIP3   OH259795   3.135   7.079   7.866
19973TIP3    H159796   3.184   6.996   7.846
19973TIP3    H259797   3.196   7.143   7.823
19974TIP3   OH259798   3.278   6.864   7.771
19974TIP3    H159799   3.233   6.785   7.736
19974TIP3    H259800   3.314   6.829   7.855
19975TIP3   OH259801   3.658   6.946   8.534
19975TIP3    H159802   3.647   6.866   8.477
19975TIP3    H259803   3.643   7.019   8.470
19976TIP3   OH259804   2.948   6.337   7.790
19976TIP3    H159805   2.867   6.387   7.769
19976TIP3    H259806   2.995   6.336   7.704
19977TIP3   OH259807   2.914   6.119   7.494
19977TIP3    H159808   2.983   6.170   7.540
19977TIP3    H259809   2.935   6.029   7.521
19978TIP3   OH259810   3.853   6.581   8.379
19978TIP3    H159811   3.770   6.633   8.385
19978TIP3    H259812   3.881   6.604   8.288
19979TIP3   OH259813   3.298   6.421   7.763
19979TIP3    H159814   3.242   6.445   7.842
19979TIP3    H259815   3.381   6.394   7.808
19980TIP3   OH259816   3.532   6.461   8.674
19980TIP3    H159817   3.529   6.543   8.726
19980TIP3    H259818   3.445   6.464   8.630
19981TIP3   OH259819   2.531   6.420   8.178
19981TIP3    H159820   2.486   6.361   8.114
19981TIP3    H259821   2.606   6.365   8.209
19982TIP3   OH259822   2.662   6.835   8.326
19982TIP3    H159823   2.638   6.784   8.247
19982TIP3    H259824   2.751   6.799   8.346
19983TIP3   OH259825   2.666   6.388   8.535
19983TIP3    H159826   2.699   6.367   8.445
19983TIP3    H259827   2.709   6.474   8.554
19984TIP3   OH259828   3.190   7.027   8.311
19984TIP3    H159829   3.179   7.105   8.368
19984TIP3    H259830   3.177   6.952   8.373
19985TIP3   OH259831   2.803   6.948   8.855
19985TIP3    H159832   2.744   7.009   8.906
19985TIP3    H259833   2.736   6.893   8.809
19986TIP3   OH259834   3.140   6.276   7.589
19986TIP3    H159835   3.198   6.335   7.643
19986TIP3    H259836   3.166   6.302   7.498
19987TIP3   OH259837   2.557   6.507   8.955
19987TIP3    H159838   2.561   6.591   9.006
19987TIP3    H259839   2.463   6.484   8.968
19988TIP3   OH259840   2.880   6.958   7.863
19988TIP3    H159841   2.959   7.011   7.884
19988TIP3    H259842   2.818   7.023   7.827
19989TIP3   OH259843   2.597   7.117   8.946
19989TIP3    H159844   2.560   7.111   8.855
19989TIP3    H259845   2.518   7.095   9.001
19990TIP3   OH259846   3.653   5.522   7.636
19990TIP3    H159847   3.571   5.534   7.688
19990TIP3    H259848   3.659   5.607   7.589
19991TIP3   OH259849   2.394   6.262   7.989
19991TIP3    H159850   2.327   6.303   7.930
19991TIP3    H259851   2.361   6.172   7.997
19992TIP3   OH259852   3.451   6.887   7.186
19992TIP3    H159853   3.460   6.984   7.172
19992TIP3    H259854   3.544   6.857   7.172
19993TIP3   OH259855   2.177   6.645   8.891
19993TIP3    H159856   2.113   6.618   8.822
19993TIP3    H259857   2.215   6.559   8.919
19994TIP3   OH259858   2.031   6.840   8.520
19994TIP3    H159859   2.126   6.826   8.514
19994TIP3    H259860   2.026   6.915   8.582
19995TIP3   OH259861   3.894   7.287   8.577
19995TIP3    H159862   3.895   7.191   8.593
19995TIP3    H259863   3.812   7.312   8.625
19996TIP3   OH259864   2.999   7.077   8.713
19996TIP3    H159865   2.999   7.169   8.748
19996TIP3    H259866   2.929   7.036   8.768
19997TIP3   OH259867   2.760   7.205   7.666
19997TIP3    H159868   2.714   7.184   7.582
19997TIP3    H259869   2.727   7.294   7.687
19998TIP3   OH259870   2.199   7.054   8.051
19998TIP3    H159871   2.247   7.044   8.137
19998TIP3    H259872   2.147   6.972   8.051
19999TIP3   OH259873   2.963   7.105   7.308
19999TIP3    H159874   3.021   7.035   7.271
19999TIP3    H259875   2.997   7.113   7.399
20000TIP3   OH259876   3.013   7.153   7.579
20000TIP3    H159877   2.924   7.161   7.621
20000TIP3    H259878   3.063   7.109   7.649
20001TIP3   OH259879   3.786   6.421   8.853
20001TIP3    H159880   3.703   6.431   8.804
20001TIP3    H259881   3.802   6.325   8.845
20002TIP3   OH259882   2.381   6.829   8.883
20002TIP3    H159883   2.432   6.811   8.965
20002TIP3    H259884   2.308   6.764   8.890
20003TIP3   OH259885   2.781   5.651   8.664
20003TIP3    H159886   2.692   5.620   8.638
20003TIP3    H259887   2.756   5.733   8.711
20004TIP3   OH259888   3.314   5.767   8.858
20004TIP3    H159889   3.382   5.740   8.923
20004TIP3    H259890   3.230   5.747   8.905
20005TIP3   OH259891   3.554   6.196   8.778
20005TIP3    H159892   3.505   6.191   8.863
20005TIP3    H259893   3.528   6.283   8.743
20006TIP3   OH259894   3.211   6.334   7.335
20006TIP3    H159895   3.181   6.298   7.249
20006TIP3    H259896   3.294   6.378   7.308
20007TIP3   OH259897   2.712   6.166   8.684
20007TIP3    H159898   2.663   6.188   8.766
20007TIP3    H259899   2.696   6.247   8.630
20008TIP3   OH259900   2.595   6.055   8.199
20008TIP3    H159901   2.503   6.026   8.216
20008TIP3    H259902   2.609   6.017   8.110
20009TIP3   OH259903   3.090   6.143   7.926
20009TIP3    H159904   3.034   6.212   7.884
20009TIP3    H259905   3.143   6.111   7.851
20010TIP3   OH259906   3.261   6.418   9.012
20010TIP3    H159907   3.238   6.345   9.074
20010TIP3    H259908   3.355   6.431   9.034
20011TIP3   OH259909   3.246   6.168   8.164
20011TIP3    H159910   3.184   6.195   8.093
20011TIP3    H259911   3.279   6.085   8.123
20012TIP3   OH259912   2.530   6.196   8.894
20012TIP3    H159913   2.563   6.255   8.962
20012TIP3    H259914   2.521   6.112   8.943
20013TIP3   OH259915   2.596   5.700   7.603
20013TIP3    H159916   2.595   5.669   7.695
20013TIP3    H259917   2.502   5.716   7.586
20014TIP3   OH259918   2.123   5.716   8.475
20014TIP3    H159919   2.202   5.747   8.524
20014TIP3    H259920   2.158   5.691   8.389
20015TIP3   OH259921   3.255   6.415   8.586
20015TIP3    H159922   3.288   6.342   8.529
20015TIP3    H259923   3.227   6.363   8.664
20016TIP3   OH259924   2.925   5.878   8.258
20016TIP3    H159925   2.841   5.874   8.308
20016TIP3    H259926   2.990   5.873   8.329
20017TIP3   OH259927   2.358   5.930   8.268
20017TIP3    H159928   2.264   5.937   8.239
20017TIP3    H259929   2.381   5.838   8.244
20018TIP3   OH259930   2.627   5.937   7.956
20018TIP3    H159931   2.721   5.937   7.929
20018TIP3    H259932   2.580   5.952   7.871
20019TIP3   OH259933   3.414   5.951   8.459
20019TIP3    H159934   3.381   5.963   8.551
20019TIP3    H259935   3.348   5.888   8.424
20020TIP3   OH259936   2.462   5.967   7.737
20020TIP3    H159937   2.386   5.922   7.696
20020TIP3    H259938   2.514   5.988   7.658
20021TIP3   OH259939   3.584   7.641   8.680
20021TIP3    H159940   3.585   7.662   8.585
20021TIP3    H259941   3.665   7.686   8.711
20022TIP3   OH259942   2.542   6.753   9.101
20022TIP3    H159943   2.623   6.781   9.150
20022TIP3    H259944   2.479   6.747   9.175
20023TIP3   OH259945   3.007   6.205   8.358
20023TIP3    H159946   3.077   6.159   8.308
20023TIP3    H259947   3.014   6.162   8.445
20024TIP3   OH259948   2.534   5.692   8.233
20024TIP3    H159949   2.499   5.611   8.277
20024TIP3    H259950   2.580   5.654   8.156
20025TIP3   OH259951   2.984   6.101   8.643
20025TIP3    H159952   2.894   6.135   8.660
20025TIP3    H259953   3.040   6.160   8.696
20026TIP3   OH259954   2.719   6.492   7.740
20026TIP3    H159955   2.649   6.423   7.731
20026TIP3    H259956   2.701   6.524   7.832
20027TIP3   OH259957   3.621   6.728   8.371
20027TIP3    H159958   3.644   6.776   8.288
20027TIP3    H259959   3.536   6.685   8.347
20028TIP3   OH259960   3.161   5.826   7.570
20028TIP3    H159961   3.084   5.779   7.606
20028TIP3    H259962   3.176   5.903   7.628
20029TIP3   OH259963   3.125   6.812   8.737
20029TIP3    H159964   3.141   6.781   8.827
20029TIP3    H259965   3.079   6.897   8.750
20030TIP3   OH259966   3.248   6.047   7.709
20030TIP3    H159967   3.345   6.051   7.725
20030TIP3    H259968   3.233   6.127   7.655
20031TIP3   OH259969   2.415   6.516   8.417
20031TIP3    H159970   2.451   6.484   8.332
20031TIP3    H259971   2.449   6.451   8.479
20032TIP3   OH259972   2.864   6.639   7.560
20032TIP3    H159973   2.818   6.726   7.568
20032TIP3    H259974   2.810   6.584   7.621
20033TIP3   OH259975   2.293   6.437   9.030
20033TIP3    H159976   2.320   6.424   9.124
20033TIP3    H259977   2.227   6.366   9.019
20034TIP3   OH259978   3.018   6.549   9.046
20034TIP3    H159979   2.959   6.486   9.002
20034TIP3    H259980   3.106   6.513   9.021
20035TIP3   OH259981   3.280   7.077   8.628
20035TIP3    H159982   3.184   7.067   8.644
20035TIP3    H259983   3.307   7.123   8.710
20036TIP3   OH259984   3.692   6.141   7.546
20036TIP3    H159985   3.629   6.095   7.486
20036TIP3    H259986   3.690   6.229   7.504
20037TIP3   OH259987   3.908   6.999   8.623
20037TIP3    H159988   3.810   6.992   8.616
20037TIP3    H259989   3.934   6.967   8.533
20038TIP3   OH259990   3.391   6.960   7.451
20038TIP3    H159991   3.365   6.890   7.514
20038TIP3    H259992   3.401   6.911   7.367
20039TIP3   OH259993   3.386   6.589   8.288
20039TIP3    H159994   3.293   6.563   8.303
20039TIP3    H259995   3.421   6.509   8.244
20040TIP3   OH259996   2.512   6.815   8.040
20040TIP3    H159997   2.511   6.897   7.987
20040TIP3    H259998   2.418   6.797   8.052
20041TIP3   OH259999   2.077   6.126   7.741
20041TIP3    H160000   2.124   6.207   7.768
20041TIP3    H260001   2.000   6.129   7.802
20042TIP3   OH260002   2.655   6.583   7.986
20042TIP3    H160003   2.617   6.671   8.006
20042TIP3    H260004   2.619   6.530   8.059
20043TIP3   OH260005   2.782   7.160   8.512
20043TIP3    H160006   2.826   7.231   8.462
20043TIP3    H260007   2.856   7.123   8.562
20044TIP3   OH260008   2.430   7.057   7.892
20044TIP3    H160009   2.346   7.062   7.941
20044TIP3    H260010   2.461   7.150   7.897
20045TIP3   OH260011   3.173   6.795   8.468
20045TIP3    H160012   3.163   6.794   8.566
20045TIP3    H260013   3.251   6.739   8.457
20046TIP3   OH260014   3.144   6.689   7.352
20046TIP3    H160015   3.198   6.662   7.430
20046TIP3    H260016   3.056   6.659   7.381
20047TIP3   OH260017   3.420   7.329   8.523
20047TIP3    H160018   3.343   7.268   8.518
20047TIP3    H260019   3.400   7.390   8.449
20048TIP3   OH260020   3.485   7.162   7.172
20048TIP3    H160021   3.520   7.234   7.117
20048TIP3    H260022   3.405   7.207   7.206
20049TIP3   OH260023   2.507   5.938   9.037
20049TIP3    H160024   2.411   5.940   9.054
20049TIP3    H260025   2.539   5.882   9.109
20050TIP3   OH260026   3.305   6.620   7.567
20050TIP3    H160027   3.294   6.555   7.639
20050TIP3    H260028   3.402   6.617   7.556
20051TIP3   OH260029   2.220   7.023   8.671
20051TIP3    H160030   2.272   6.946   8.700
20051TIP3    H260031   2.248   7.089   8.735
20052TIP3   OH260032   2.510   6.668   7.351
20052TIP3    H160033   2.525   6.576   7.322
20052TIP3    H260034   2.492   6.654   7.446
20053TIP3   OH260035   2.455   6.673   7.624
20053TIP3    H160036   2.525   6.641   7.682
20053TIP3    H260037   2.464   6.771   7.634
20054TIP3   OH260038   2.196   6.369   7.828
20054TIP3    H160039   2.127   6.409   7.885
20054TIP3    H260040   2.208   6.440   7.762
20055TIP3   OH260041   3.341   6.002   8.718
20055TIP3    H160042   3.420   6.040   8.760
20055TIP3    H260043   3.326   5.922   8.772
20056TIP3   OH260044   3.224   5.758   7.884
20056TIP3    H160045   3.210   5.786   7.793
20056TIP3    H260046   3.263   5.837   7.925
20057TIP3   OH260047   2.723   6.870   7.573
20057TIP3    H160048   2.636   6.898   7.609
20057TIP3    H260049   2.738   6.940   7.508
20058TIP3   OH260050   2.916   5.933   7.983
20058TIP3    H160051   2.979   6.007   7.972
20058TIP3    H260052   2.915   5.924   8.081
20059TIP3   OH260053   3.182   6.254   8.794
20059TIP3    H160054   3.200   6.307   8.874
20059TIP3    H260055   3.235   6.174   8.809
20060TIP3   OH260056   3.061   5.662   8.092
20060TIP3    H160057   3.047   5.741   8.147
20060TIP3    H260058   3.119   5.699   8.022
20061TIP3   OH260059   2.467   6.948   7.639
20061TIP3    H160060   2.435   7.017   7.578
20061TIP3    H260061   2.450   6.989   7.727
20062TIP3   OH260062   2.562   5.651   7.879
20062TIP3    H160063   2.556   5.743   7.911
20062TIP3    H260064   2.658   5.636   7.893
20063TIP3   OH260065   3.821   6.154   8.772
20063TIP3    H160066   3.723   6.153   8.782
20063TIP3    H260067   3.830   6.107   8.688
20064TIP3   OH260068   3.471   6.348   8.162
20064TIP3    H160069   3.396   6.288   8.176
20064TIP3    H260070   3.543   6.301   8.210
20065TIP3   OH260071   2.184   6.579   7.631
20065TIP3    H160072   2.256   6.645   7.641
20065TIP3    H260073   2.228   6.520   7.566
20066TIP3   OH260074   2.122   5.850   7.727
20066TIP3    H160075   2.115   5.945   7.750
20066TIP3    H260076   2.067   5.808   7.795
20067TIP3   OH260077   3.439   7.304   8.113
20067TIP3    H160078   3.397   7.351   8.037
20067TIP3    H260079   3.533   7.322   8.092
20068TIP3   OH260080   2.516   5.572   8.641
20068TIP3    H160081   2.485   5.538   8.554
20068TIP3    H260082   2.504   5.494   8.699
20069TIP3   OH260083   2.061   6.800   8.023
20069TIP3    H160084   1.984   6.822   8.077
20069TIP3    H260085   2.033   6.833   7.935
20070TIP3   OH260086   2.211   7.325   9.089
20070TIP3    H160087   2.297   7.325   9.135
20070TIP3    H260088   2.193   7.229   9.086
20071TIP3   OH260089   2.695   7.303   9.131
20071TIP3    H160090   2.786   7.275   9.146
20071TIP3    H260091   2.669   7.240   9.060
20072TIP3   OH260092   2.675   6.871   7.266
20072TIP3    H160093   2.618   6.800   7.304
20072TIP3    H260094   2.750   6.819   7.234
20073TIP3   OH260095   3.333   7.201   8.868
20073TIP3    H160096   3.323   7.131   8.937
20073TIP3    H260097   3.411   7.251   8.901
20074TIP3   OH260098   3.112   6.914   7.176
20074TIP3    H160099   3.154   6.848   7.235
20074TIP3    H260100   3.168   6.911   7.097
20075TIP3   OH260101   2.341   6.738   9.291
20075TIP3    H160102   2.360   6.643   9.303
20075TIP3    H260103   2.254   6.735   9.246
20076TIP3   OH260104   2.319   6.391   7.484
20076TIP3    H160105   2.368   6.349   7.556
20076TIP3    H260106   2.388   6.394   7.415
20077TIP3   OH260107   2.952   6.823   9.065
20077TIP3    H160108   2.908   6.834   8.979
20077TIP3    H260109   2.983   6.730   9.061
20078TIP3   OH260110   2.826   6.588   7.291
20078TIP3    H160111   2.830   6.599   7.388
20078TIP3    H260112   2.825   6.490   7.285
20079TIP3   OH260113   3.443   6.828   8.671
20079TIP3    H160114   3.516   6.876   8.628
20079TIP3    H260115   3.370   6.890   8.659
20080TIP3   OH260116   2.464   6.468   9.266
20080TIP3    H160117   2.535   6.403   9.258
20080TIP3    H260118   2.485   6.503   9.356
20081TIP3   OH260119   2.531   6.291   7.711
20081TIP3    H160120   2.499   6.248   7.792
20081TIP3    H260121   2.562   6.214   7.659
20082TIP3   OH260122   2.795   6.354   8.934
20082TIP3    H160123   2.719   6.416   8.939
20082TIP3    H260124   2.844   6.389   8.857
20083TIP3   OH260125   2.627   6.090   7.546
20083TIP3    H160126   2.592   6.080   7.455
20083TIP3    H260127   2.722   6.101   7.530
20084TIP3   OH260128   3.314   6.759   9.069
20084TIP3    H160129   3.396   6.733   9.024
20084TIP3    H260130   3.309   6.693   9.140
20085TIP3   OH260131   3.451   6.418   7.209
20085TIP3    H160132   3.427   6.372   7.127
20085TIP3    H260133   3.418   6.508   7.187
20086TIP3   OH260134   2.921   6.143   9.061
20086TIP3    H160135   2.919   6.062   9.005
20086TIP3    H260136   2.876   6.209   9.004
20087TIP3   OH260137   2.923   5.930   8.867
20087TIP3    H160138   2.949   5.970   8.782
20087TIP3    H260139   2.829   5.907   8.850
20088TIP3   OH260140   2.950   6.466   8.741
20088TIP3    H160141   3.033   6.472   8.692
20088TIP3    H260142   2.894   6.533   8.697
20089TIP3   OH260143   3.532   6.432   9.123
20089TIP3    H160144   3.579   6.349   9.138
20089TIP3    H260145   3.603   6.489   9.090
20090TIP3   OH260146   3.574   6.686   8.860
20090TIP3    H160147   3.515   6.739   8.800
20090TIP3    H260148   3.661   6.705   8.819
20091TIP3   OH260149   2.797   6.261   9.284
20091TIP3    H160150   2.725   6.198   9.305
20091TIP3    H260151   2.832   6.225   9.201
20092TIP3   OH260152   3.054   5.694   8.936
20092TIP3    H160153   3.005   5.777   8.914
20092TIP3    H260154   2.984   5.627   8.925
20093TIP3   OH260155   3.180   6.200   9.153
20093TIP3    H160156   3.168   6.189   9.249
20093TIP3    H260157   3.090   6.175   9.123
20094TIP3   OH260158   3.418   6.147   9.007
20094TIP3    H160159   3.344   6.149   9.069
20094TIP3    H260160   3.492   6.117   9.064
20095TIP3   OH260161   3.648   6.088   9.157
20095TIP3    H160162   3.661   5.993   9.177
20095TIP3    H260163   3.644   6.128   9.246
20096TIP3   OH260164   2.633   6.043   9.329
20096TIP3    H160165   2.642   5.949   9.303
20096TIP3    H260166   2.676   6.038   9.418
20097TIP3   OH260167   3.148   5.702   9.194
20097TIP3    H160168   3.217   5.633   9.185
20097TIP3    H260169   3.107   5.698   9.106
20098TIP3   OH260170   3.215   5.925   9.344
20098TIP3    H160171   3.190   5.853   9.283
20098TIP3    H260172   3.136   5.982   9.344
20099TIP3   OH260173   2.435   7.154   7.454
20099TIP3    H160174   2.531   7.144   7.435
20099TIP3    H260175   2.407   7.197   7.371
20100TIP3   OH260176   1.915   6.532   7.666
20100TIP3    H160177   2.010   6.552   7.654
20100TIP3    H260178   1.909   6.441   7.629
20101TIP3   OH260179   1.829   7.143   8.081
20101TIP3    H160180   1.762   7.080   8.048
20101TIP3    H260181   1.874   7.087   8.149
20102TIP3   OH260182   1.962   6.998   8.271
20102TIP3    H160183   1.955   6.920   8.330
20102TIP3    H260184   2.015   7.056   8.328
20103TIP3   OH260185   3.691   7.399   8.068
20103TIP3    H160186   3.718   7.425   8.157
20103TIP3    H260187   3.758   7.440   8.012
20104TIP3   OH260188   3.724   7.414   8.349
20104TIP3    H160189   3.678   7.327   8.347
20104TIP3    H260190   3.797   7.391   8.409
20105TIP3   OH260191   3.767   7.092   8.922
20105TIP3    H160192   3.695   7.098   8.988
20105TIP3    H260193   3.809   7.180   8.929
20106TIP3   OH260194   3.585   6.604   7.544
20106TIP3    H160195   3.655   6.666   7.517
20106TIP3    H260196   3.626   6.564   7.624
20107TIP3   OH260197   3.711   6.473   7.748
20107TIP3    H160198   3.646   6.429   7.807
20107TIP3    H260199   3.777   6.508   7.811
20108TIP3   OH260200   3.765   6.863   8.179
20108TIP3    H160201   3.820   6.797   8.131
20108TIP3    H260202   3.755   6.934   8.112
20109TIP3   OH260203   3.598   7.166   8.373
20109TIP3    H160204   3.527   7.203   8.428
20109TIP3    H260205   3.547   7.115   8.305
20110TIP3   OH260206   3.651   6.379   7.394
20110TIP3    H160207   3.578   6.383   7.327
20110TIP3    H260208   3.623   6.453   7.451
20111TIP3   OH260209   3.525   6.054   7.354
20111TIP3    H160210   3.497   6.099   7.274
20111TIP3    H260211   3.493   5.963   7.341
20112TIP3   OH260212   3.527   6.327   7.894
20112TIP3    H160213   3.535   6.230   7.890
20112TIP3    H260214   3.513   6.342   7.991
20113TIP3   OH260215   2.152   6.405   8.640
20113TIP3    H160216   2.151   6.371   8.548
20113TIP3    H260217   2.249   6.404   8.658
20114TIP3   OH260218   3.816   6.753   8.750
20114TIP3    H160219   3.888   6.685   8.742
20114TIP3    H260220   3.846   6.821   8.688
20115TIP3   OH260221   4.002   6.559   8.768
20115TIP3    H160222   3.927   6.508   8.807
20115TIP3    H260223   4.075   6.495   8.783
20116TIP3   OH260224   3.462   5.788   7.324
20116TIP3    H160225   3.546   5.770   7.372
20116TIP3    H260226   3.401   5.728   7.372
20117TIP3   OH260227   3.522   6.042   7.789
20117TIP3    H160228   3.561   5.953   7.805
20117TIP3    H260229   3.583   6.075   7.721
20118TIP3   OH260230   3.684   6.219   8.283
20118TIP3    H160231   3.770   6.245   8.244
20118TIP3    H260232   3.697   6.254   8.374
20119TIP3   OH260233   3.752   6.361   8.516
20119TIP3    H160234   3.674   6.394   8.565
20119TIP3    H260235   3.785   6.442   8.472
20120TIP3   OH260236   2.369   6.096   9.306
20120TIP3    H160237   2.467   6.091   9.313
20120TIP3    H260238   2.345   6.011   9.349
20121TIP3   OH260239   4.200   5.949   9.071
20121TIP3    H160240   4.262   5.885   9.032
20121TIP3    H260241   4.178   6.007   8.995
20122TIP3   OH260242   3.631   5.793   7.826
20122TIP3    H160243   3.679   5.778   7.910
20122TIP3    H260244   3.570   5.716   7.826
20123TIP3   OH260245   2.331   5.780   8.651
20123TIP3    H160246   2.392   5.704   8.658
20123TIP3    H260247   2.395   5.854   8.641
20124TIP3   OH260248   2.134   6.055   8.719
20124TIP3    H160249   2.182   6.044   8.635
20124TIP3    H260250   2.170   6.139   8.750
20125TIP3   OH260251   4.078   6.095   8.875
20125TIP3    H160252   3.991   6.132   8.900
20125TIP3    H260253   4.049   6.021   8.820
20126TIP3   OH260254   3.707   5.737   7.446
20126TIP3    H160255   3.750   5.658   7.408
20126TIP3    H260256   3.780   5.801   7.451
20127TIP3   OH260257   2.110   5.573   8.210
20127TIP3    H160258   2.022   5.562   8.248
20127TIP3    H260259   2.083   5.626   8.133
20128TIP3   OH260260   3.275   7.263   7.725
20128TIP3    H160261   3.327   7.246   7.644
20128TIP3    H260262   3.332   7.324   7.773
20129TIP3   OH260263   2.344   5.644   9.029
20129TIP3    H160264   2.290   5.634   9.110
20129TIP3    H260265   2.276   5.675   8.966
20130TIP3   OH260266   2.377   7.068   9.113
20130TIP3    H160267   2.288   7.033   9.098
20130TIP3    H260268   2.395   7.041   9.204
20131TIP3   OH260269   2.554   7.095   8.659
20131TIP3    H160270   2.507   7.172   8.620
20131TIP3    H260271   2.641   7.108   8.616
20132TIP3   OH260272   3.001   7.343   8.798
20132TIP3    H160273   3.043   7.341   8.887
20132TIP3    H260274   3.069   7.393   8.747
20133TIP3   OH260275   3.180   7.494   8.653
20133TIP3    H160276   3.251   7.439   8.615
20133TIP3    H260277   3.232   7.549   8.716
20134TIP3   OH260278   3.975   5.855   8.756
20134TIP3    H160279   3.883   5.847   8.723
20134TIP3    H260280   4.007   5.762   8.745
20135TIP3   OH260281   2.234   7.356   8.680
20135TIP3    H160282   2.144   7.388   8.660
20135TIP3    H260283   2.245   7.390   8.770
20136TIP3   OH260284   2.470   7.334   8.540
20136TIP3    H160285   2.383   7.345   8.586
20136TIP3    H260286   2.448   7.364   8.450
20137TIP3   OH260287   2.896   7.363   8.336
20137TIP3    H160288   2.824   7.383   8.274
20137TIP3    H260289   2.907   7.449   8.382
20138TIP3   OH260290   3.163   7.302   8.388
20138TIP3    H160291   3.069   7.317   8.368
20138TIP3    H260292   3.205   7.380   8.349
20139TIP3   OH260293   3.373   7.495   8.306
20139TIP3    H160294   3.358   7.578   8.256
20139TIP3    H260295   3.397   7.432   8.234
20140TIP3   OH260296   2.144   7.148   8.429
20140TIP3    H160297   2.171   7.122   8.520
20140TIP3    H260298   2.215   7.103   8.378
20141TIP3   OH260299   2.337   7.019   8.284
20141TIP3    H160300   2.352   6.934   8.332
20141TIP3    H260301   2.429   7.054   8.281
20142TIP3   OH260302   2.605   7.114   8.286
20142TIP3    H160303   2.635   7.022   8.275
20142TIP3    H260304   2.648   7.134   8.372
20143TIP3   OH260305   3.180   5.771   8.377
20143TIP3    H160306   3.135   5.702   8.429
20143TIP3    H260307   3.247   5.721   8.329
20144TIP3   OH260308   3.704   5.650   8.280
20144TIP3    H160309   3.739   5.703   8.205
20144TIP3    H260310   3.608   5.666   8.273
20145TIP3   OH260311   3.798   5.753   8.043
20145TIP3    H160312   3.871   5.700   8.004
20145TIP3    H260313   3.832   5.844   8.028
20146TIP3   OH260314   2.429   5.480   8.393
20146TIP3    H160315   2.336   5.447   8.392
20146TIP3    H260316   2.477   5.394   8.388
20147TIP3   OH260317   2.221   5.346   8.041
20147TIP3    H160318   2.241   5.401   7.963
20147TIP3    H260319   2.182   5.413   8.101
20148TIP3   OH260320   2.872   5.508   8.274
20148TIP3    H160321   2.927   5.559   8.212
20148TIP3    H260322   2.894   5.550   8.358
20149TIP3   OH260323   3.422   5.657   8.254
20149TIP3    H160324   3.414   5.619   8.166
20149TIP3    H260325   3.407   5.578   8.311
20150TIP3   OH260326   3.449   5.579   7.818
20150TIP3    H160327   3.360   5.617   7.828
20150TIP3    H260328   3.436   5.493   7.863
20151TIP3   OH260329   1.933   6.916   7.816
20151TIP3    H160330   1.848   6.881   7.783
20151TIP3    H260331   1.917   7.011   7.807
20152TIP3   OH260332   2.332   5.504   7.804
20152TIP3    H160333   2.380   5.444   7.745
20152TIP3    H260334   2.405   5.559   7.840
20153TIP3   OH260335   2.826   5.677   7.930
20153TIP3    H160336   2.903   5.628   7.962
20153TIP3    H260337   2.861   5.768   7.934
20154TIP3   OH260338   2.702   7.110   7.398
20154TIP3    H160339   2.792   7.130   7.365
20154TIP3    H260340   2.681   7.033   7.341
20155TIP3   OH260341   3.424   7.226   7.494
20155TIP3    H160342   3.415   7.128   7.482
20155TIP3    H260343   3.378   7.258   7.413
20156TIP3   OH260344   2.632   5.760   9.277
20156TIP3    H160345   2.604   5.684   9.331
20156TIP3    H260346   2.728   5.764   9.301
20157TIP3   OH260347   2.885   5.751   9.380
20157TIP3    H160348   2.975   5.730   9.349
20157TIP3    H260349   2.877   5.696   9.460
20158TIP3   OH260350   2.012   6.953   7.461
20158TIP3    H160351   2.007   6.961   7.557
20158TIP3    H260352   2.097   6.906   7.447
20159TIP3   OH260353   3.709   5.817   9.189
20159TIP3    H160354   3.729   5.786   9.280
20159TIP3    H260355   3.798   5.814   9.147
20160TIP3   OH260356   3.650   7.372   8.680
20160TIP3    H160357   3.570   7.338   8.635
20160TIP3    H260358   3.628   7.467   8.686
20161TIP3   OH260359   4.917   6.743   7.448
20161TIP3    H160360   4.887   6.834   7.429
20161TIP3    H260361   4.840   6.692   7.417
20162TIP3   OH260362   4.909   6.743   7.831
20162TIP3    H160363   4.945   6.714   7.917
20162TIP3    H260364   4.872   6.660   7.796
20163TIP3   OH260365   4.212   6.638   8.194
20163TIP3    H160366   4.241   6.570   8.257
20163TIP3    H260367   4.292   6.693   8.189
20164TIP3   OH260368   5.154   7.047   7.510
20164TIP3    H160369   5.145   6.974   7.572
20164TIP3    H260370   5.187   7.118   7.568
20165TIP3   OH260371   4.182   7.047   7.916
20165TIP3    H160372   4.173   6.949   7.919
20165TIP3    H260373   4.279   7.055   7.921
20166TIP3   OH260374   3.893   6.254   7.704
20166TIP3    H160375   3.842   6.336   7.719
20166TIP3    H260376   3.822   6.196   7.670
20167TIP3   OH260377   3.951   6.538   7.874
20167TIP3    H160378   3.998   6.460   7.913
20167TIP3    H260379   4.012   6.563   7.804
20168TIP3   OH260380   4.796   7.501   7.522
20168TIP3    H160381   4.853   7.433   7.479
20168TIP3    H260382   4.801   7.475   7.615
20169TIP3   OH260383   4.713   6.970   7.875
20169TIP3    H160384   4.751   6.889   7.834
20169TIP3    H260385   4.797   7.014   7.899
20170TIP3   OH260386   5.721   6.290   7.873
20170TIP3    H160387   5.754   6.371   7.917
20170TIP3    H260388   5.749   6.305   7.781
20171TIP3   OH260389   5.125   6.473   7.909
20171TIP3    H160390   5.167   6.387   7.932
20171TIP3    H260391   5.095   6.454   7.818
20172TIP3   OH260392   4.460   6.130   7.875
20172TIP3    H160393   4.442   6.202   7.811
20172TIP3    H260394   4.414   6.055   7.831
20173TIP3   OH260395   5.156   6.220   7.496
20173TIP3    H160396   5.226   6.203   7.563
20173TIP3    H260397   5.210   6.255   7.423
20174TIP3   OH260398   4.097   6.333   7.980
20174TIP3    H160399   4.179   6.312   8.029
20174TIP3    H260400   4.110   6.275   7.902
20175TIP3   OH260401   4.538   6.530   7.774
20175TIP3    H160402   4.631   6.504   7.788
20175TIP3    H260403   4.499   6.445   7.743
20176TIP3   OH260404   5.799   6.496   8.043
20176TIP3    H160405   5.714   6.542   8.026
20176TIP3    H260406   5.810   6.515   8.137
20177TIP3   OH260407   4.460   6.113   8.308
20177TIP3    H160408   4.398   6.149   8.242
20177TIP3    H260409   4.409   6.128   8.390
20178TIP3   OH260410   4.807   6.964   7.318
20178TIP3    H160411   4.766   6.936   7.236
20178TIP3    H260412   4.764   7.050   7.333
20179TIP3   OH260413   4.566   6.888   8.104
20179TIP3    H160414   4.503   6.952   8.143
20179TIP3    H260415   4.609   6.942   8.035
20180TIP3   OH260416   5.365   6.224   7.668
20180TIP3    H160417   5.363   6.169   7.747
20180TIP3    H260418   5.422   6.298   7.696
20181TIP3   OH260419   4.329   6.229   8.093
20181TIP3    H160420   4.393   6.299   8.118
20181TIP3    H260421   4.378   6.186   8.019
20182TIP3   OH260422   4.391   7.081   8.200
20182TIP3    H160423   4.366   7.169   8.166
20182TIP3    H260424   4.314   7.064   8.258
20183TIP3   OH260425   3.790   6.771   7.437
20183TIP3    H160426   3.747   6.798   7.354
20183TIP3    H260427   3.820   6.856   7.474
20184TIP3   OH260428   5.227   7.287   7.679
20184TIP3    H160429   5.137   7.278   7.717
20184TIP3    H260430   5.219   7.374   7.634
20185TIP3   OH260431   5.518   6.192   8.042
20185TIP3    H160432   5.430   6.219   8.009
20185TIP3    H260433   5.578   6.222   7.970
20186TIP3   OH260434   4.815   5.831   8.020
20186TIP3    H160435   4.807   5.736   8.042
20186TIP3    H260436   4.737   5.867   8.069
20187TIP3   OH260437   4.934   7.335   7.356
20187TIP3    H160438   4.981   7.251   7.334
20187TIP3    H260439   4.995   7.399   7.312
20188TIP3   OH260440   5.071   7.120   7.258
20188TIP3    H160441   5.040   7.039   7.217
20188TIP3    H260442   5.107   7.086   7.343
20189TIP3   OH260443   5.454   7.202   8.021
20189TIP3    H160444   5.443   7.123   7.963
20189TIP3    H260445   5.439   7.275   7.958
20190TIP3   OH260446   4.745   6.596   7.277
20190TIP3    H160447   4.665   6.644   7.251
20190TIP3    H260448   4.793   6.589   7.193
20191TIP3   OH260449   4.704   6.379   6.995
20191TIP3    H160450   4.773   6.428   7.043
20191TIP3    H260451   4.759   6.314   6.948
20192TIP3   OH260452   5.649   6.838   7.867
20192TIP3    H160453   5.566   6.890   7.872
20192TIP3    H260454   5.677   6.860   7.775
20193TIP3   OH260455   5.093   6.678   7.250
20193TIP3    H160456   5.039   6.701   7.329
20193TIP3    H260457   5.177   6.649   7.293
20194TIP3   OH260458   5.328   6.717   8.161
20194TIP3    H160459   5.325   6.800   8.213
20194TIP3    H260460   5.241   6.721   8.116
20195TIP3   OH260461   4.328   6.676   7.665
20195TIP3    H160462   4.285   6.617   7.600
20195TIP3    H260463   4.403   6.621   7.697
20196TIP3   OH260464   4.461   7.093   7.811
20196TIP3    H160465   4.436   7.035   7.737
20196TIP3    H260466   4.549   7.057   7.834
20197TIP3   OH260467   4.460   6.646   8.020
20197TIP3    H160468   4.496   6.623   7.932
20197TIP3    H260469   4.506   6.731   8.041
20198TIP3   OH260470   4.983   7.284   7.796
20198TIP3    H160471   4.975   7.362   7.853
20198TIP3    H260472   4.972   7.209   7.859
20199TIP3   OH260473   4.599   7.205   8.343
20199TIP3    H160474   4.540   7.265   8.392
20199TIP3    H260475   4.533   7.149   8.296
20200TIP3   OH260476   4.932   6.537   7.076
20200TIP3    H160477   4.993   6.594   7.129
20200TIP3    H260478   4.960   6.560   6.984
20201TIP3   OH260479   4.352   6.763   8.442
20201TIP3    H160480   4.356   6.848   8.491
20201TIP3    H260481   4.258   6.740   8.455
20202TIP3   OH260482   4.681   7.220   7.333
20202TIP3    H160483   4.758   7.265   7.372
20202TIP3    H260484   4.608   7.279   7.352
20203TIP3   OH260485   4.393   7.372   8.432
20203TIP3    H160486   4.357   7.368   8.342
20203TIP3    H260487   4.314   7.351   8.487
20204TIP3   OH260488   5.448   5.777   7.123
20204TIP3    H160489   5.368   5.795   7.176
20204TIP3    H260490   5.460   5.861   7.075
20205TIP3   OH260491   4.191   6.519   7.473
20205TIP3    H160492   4.123   6.559   7.415
20205TIP3    H260493   4.156   6.430   7.487
20206TIP3   OH260494   5.248   7.144   6.674
20206TIP3    H160495   5.258   7.240   6.658
20206TIP3    H260496   5.341   7.113   6.660
20207TIP3   OH260497   3.973   6.901   8.378
20207TIP3    H160498   3.908   6.876   8.311
20207TIP3    H260499   4.011   6.815   8.406
20208TIP3   OH260500   3.827   7.098   8.005
20208TIP3    H160501   3.922   7.084   8.003
20208TIP3    H260502   3.819   7.171   8.068
20209TIP3   OH260503   5.691   7.544   8.065
20209TIP3    H160504   5.691   7.448   8.080
20209TIP3    H260505   5.608   7.569   8.112
20210TIP3   OH260506   4.795   7.334   8.200
20210TIP3    H160507   4.796   7.426   8.234
20210TIP3    H260508   4.725   7.293   8.255
20211TIP3   OH260509   4.492   7.485   7.132
20211TIP3    H160510   4.499   7.428   7.052
20211TIP3    H260511   4.582   7.523   7.134
20212TIP3   OH260512   3.999   7.308   7.536
20212TIP3    H160513   4.041   7.299   7.625
20212TIP3    H260514   3.941   7.229   7.537
20213TIP3   OH260515   4.760   7.360   6.796
20213TIP3    H160516   4.818   7.291   6.756
20213TIP3    H260517   4.798   7.367   6.885
20214TIP3   OH260518   4.793   7.412   7.083
20214TIP3    H160519   4.732   7.356   7.134
20214TIP3    H260520   4.877   7.386   7.124
20215TIP3   OH260521   5.581   6.678   8.341
20215TIP3    H160522   5.500   6.687   8.289
20215TIP3    H260523   5.599   6.582   8.332
20216TIP3   OH260524   4.177   7.086   8.369
20216TIP3    H160525   4.228   7.068   8.450
20216TIP3    H260526   4.104   7.020   8.376
20217TIP3   OH260527   4.576   5.909   8.149
20217TIP3    H160528   4.486   5.877   8.124
20217TIP3    H260529   4.551   5.990   8.198
20218TIP3   OH260530   5.111   6.025   8.346
20218TIP3    H160531   5.180   5.994   8.409
20218TIP3    H260532   5.027   6.002   8.393
20219TIP3   OH260533   5.350   6.452   8.264
20219TIP3    H160534   5.301   6.448   8.350
20219TIP3    H260535   5.325   6.539   8.230
20220TIP3   OH260536   5.009   6.587   6.821
20220TIP3    H160537   4.976   6.557   6.735
20220TIP3    H260538   5.093   6.630   6.795
20221TIP3   OH260539   4.722   5.959   7.122
20221TIP3    H160540   4.691   5.955   7.215
20221TIP3    H260541   4.686   5.875   7.089
20222TIP3   OH260542   4.508   6.424   8.170
20222TIP3    H160543   4.458   6.445   8.252
20222TIP3    H260544   4.491   6.504   8.117
20223TIP3   OH260545   4.391   6.311   7.684
20223TIP3    H160546   4.299   6.282   7.702
20223TIP3    H260547   4.406   6.269   7.596
20224TIP3   OH260548   4.884   6.396   7.412
20224TIP3    H160549   4.831   6.467   7.369
20224TIP3    H260550   4.938   6.364   7.337
20225TIP3   OH260551   5.058   6.676   8.500
20225TIP3    H160552   5.035   6.602   8.561
20225TIP3    H260553   5.152   6.687   8.520
20226TIP3   OH260554   5.041   6.424   7.650
20226TIP3    H160555   4.980   6.451   7.578
20226TIP3    H260556   5.076   6.342   7.610
20227TIP3   OH260557   4.326   6.452   8.380
20227TIP3    H160558   4.358   6.512   8.448
20227TIP3    H260559   4.315   6.369   8.429
20228TIP3   OH260560   4.377   5.930   7.087
20228TIP3    H160561   4.372   5.926   7.185
20228TIP3    H260562   4.296   5.980   7.067
20229TIP3   OH260563   3.922   5.977   7.956
20229TIP3    H160564   3.996   6.006   8.012
20229TIP3    H260565   3.965   5.938   7.879
20230TIP3   OH260566   3.893   5.954   7.478
20230TIP3    H160567   3.942   5.992   7.402
20230TIP3    H260568   3.835   6.029   7.500
20231TIP3   OH260569   5.050   6.672   8.073
20231TIP3    H160570   5.083   6.599   8.015
20231TIP3    H260571   5.022   6.619   8.151
20232TIP3   OH260572   4.718   6.139   7.746
20232TIP3    H160573   4.638   6.131   7.802
20232TIP3    H260574   4.789   6.126   7.812
20233TIP3   OH260575   4.155   6.187   7.753
20233TIP3    H160576   4.061   6.192   7.727
20233TIP3    H260577   4.179   6.095   7.732
20234TIP3   OH260578   4.423   6.185   7.442
20234TIP3    H160579   4.519   6.196   7.424
20234TIP3    H260580   4.380   6.207   7.357
20235TIP3   OH260581   5.211   6.210   7.948
20235TIP3    H160582   5.175   6.220   8.040
20235TIP3    H260583   5.150   6.145   7.911
20236TIP3   OH260584   4.261   6.221   7.220
20236TIP3    H160585   4.191   6.174   7.173
20236TIP3    H260586   4.315   6.254   7.144
20237TIP3   OH260587   5.380   7.897   8.166
20237TIP3    H160588   5.381   7.920   8.072
20237TIP3    H260589   5.461   7.943   8.198
20238TIP3   OH260590   4.339   7.009   8.587
20238TIP3    H160591   4.419   7.036   8.637
20238TIP3    H260592   4.275   7.004   8.661
20239TIP3   OH260593   4.803   6.462   7.844
20239TIP3    H160594   4.873   6.418   7.794
20239TIP3    H260595   4.810   6.418   7.931
20240TIP3   OH260596   4.325   5.948   7.720
20240TIP3    H160597   4.292   5.869   7.768
20240TIP3    H260598   4.384   5.908   7.655
20241TIP3   OH260599   4.780   6.358   8.128
20241TIP3    H160600   4.690   6.392   8.147
20241TIP3    H260601   4.838   6.415   8.183
20242TIP3   OH260602   4.512   6.751   7.224
20242TIP3    H160603   4.443   6.681   7.216
20242TIP3    H260604   4.497   6.781   7.317
20243TIP3   OH260605   5.417   6.985   7.857
20243TIP3    H160606   5.441   7.033   7.775
20243TIP3    H260607   5.332   6.941   7.833
20244TIP3   OH260608   4.974   6.062   7.085
20244TIP3    H160609   4.878   6.043   7.097
20244TIP3    H260610   4.983   6.155   7.114
20245TIP3   OH260611   4.917   7.067   8.223
20245TIP3    H160612   4.939   7.039   8.313
20245TIP3    H260613   4.877   7.154   8.237
20246TIP3   OH260614   5.044   6.307   7.193
20246TIP3    H160615   5.140   6.310   7.210
20246TIP3    H260616   5.029   6.387   7.139
20247TIP3   OH260617   4.209   6.771   7.903
20247TIP3    H160618   4.248   6.739   7.819
20247TIP3    H260619   4.247   6.709   7.967
20248TIP3   OH260620   4.660   6.898   7.047
20248TIP3    H160621   4.615   6.985   7.060
20248TIP3    H260622   4.606   6.841   7.107
20249TIP3   OH260623   4.088   6.692   8.518
20249TIP3    H160624   4.111   6.677   8.612
20249TIP3    H260625   4.021   6.623   8.502
20250TIP3   OH260626   4.814   6.804   8.535
20250TIP3    H160627   4.756   6.743   8.488
20250TIP3    H260628   4.903   6.770   8.510
20251TIP3   OH260629   5.076   7.331   8.116
20251TIP3    H160630   4.980   7.324   8.132
20251TIP3    H260631   5.104   7.378   8.197
20252TIP3   OH260632   5.486   6.395   7.029
20252TIP3    H160633   5.423   6.350   6.968
20252TIP3    H260634   5.483   6.484   6.988
20253TIP3   OH260635   5.704   7.255   8.110
20253TIP3    H160636   5.607   7.249   8.103
20253TIP3    H260637   5.730   7.224   8.020
20254TIP3   OH260638   5.180   7.216   6.937
20254TIP3    H160639   5.164   7.143   6.999
20254TIP3    H260640   5.198   7.169   6.853
20255TIP3   OH260641   5.182   6.846   7.775
20255TIP3    H160642   5.089   6.819   7.789
20255TIP3    H260643   5.217   6.766   7.731
20256TIP3   OH260644   4.307   7.070   7.526
20256TIP3    H160645   4.304   7.148   7.469
20256TIP3    H260646   4.213   7.052   7.542
20257TIP3   OH260647   3.870   6.378   7.227
20257TIP3    H160648   3.919   6.460   7.251
20257TIP3    H260649   3.795   6.382   7.291
20258TIP3   OH260650   4.450   6.839   7.472
20258TIP3    H160651   4.411   6.926   7.494
20258TIP3    H260652   4.417   6.784   7.546
20259TIP3   OH260653   4.578   7.417   7.997
20259TIP3    H160654   4.623   7.489   7.949
20259TIP3    H260655   4.653   7.380   8.048
20260TIP3   OH260656   4.223   7.320   7.377
20260TIP3    H160657   4.134   7.313   7.417
20260TIP3    H260658   4.267   7.376   7.442
20261TIP3   OH260659   4.969   7.052   7.955
20261TIP3    H160660   4.959   7.049   8.053
20261TIP3    H260661   5.047   6.997   7.943
20262TIP3   OH260662   4.940   6.946   6.840
20262TIP3    H160663   4.995   6.920   6.918
20262TIP3    H260664   4.854   6.913   6.868
20263TIP3   OH260665   5.215   7.586   8.009
20263TIP3    H160666   5.138   7.526   8.003
20263TIP3    H260667   5.198   7.648   7.936
20264TIP3   OH260668   5.281   7.419   6.659
20264TIP3    H160669   5.320   7.492   6.607
20264TIP3    H260670   5.201   7.464   6.690
20265TIP3   OH260671   4.302   6.196   8.525
20265TIP3    H160672   4.206   6.199   8.540
20265TIP3    H260673   4.332   6.136   8.596
20266TIP3   OH260674   5.101   6.880   7.057
20266TIP3    H160675   5.090   6.812   7.127
20266TIP3    H260676   5.198   6.875   7.044
20267TIP3   OH260677   4.017   7.279   8.157
20267TIP3    H160678   4.068   7.203   8.189
20267TIP3    H260679   4.044   7.346   8.222
20268TIP3   OH260680   4.305   6.926   6.840
20268TIP3    H160681   4.321   6.836   6.806
20268TIP3    H260682   4.286   6.908   6.934
20269TIP3   OH260683   4.252   6.929   7.113
20269TIP3    H160684   4.324   6.895   7.168
20269TIP3    H260685   4.262   7.026   7.122
20270TIP3   OH260686   3.988   6.621   7.313
20270TIP3    H160687   3.923   6.665   7.371
20270TIP3    H260688   4.004   6.692   7.247
20271TIP3   OH260689   5.134   6.261   8.208
20271TIP3    H160690   5.217   6.296   8.245
20271TIP3    H260691   5.121   6.179   8.261
20272TIP3   OH260692   5.014   6.014   7.370
20272TIP3    H160693   5.006   6.037   7.276
20272TIP3    H260694   5.056   6.094   7.407
20273TIP3   OH260695   4.523   7.133   7.064
20273TIP3    H160696   4.433   7.159   7.093
20273TIP3    H260697   4.528   7.177   6.978
20274TIP3   OH260698   4.705   6.192   7.474
20274TIP3    H160699   4.772   6.261   7.457
20274TIP3    H260700   4.711   6.182   7.571
20275TIP3   OH260701   4.978   6.510   8.281
20275TIP3    H160702   4.998   6.560   8.362
20275TIP3    H260703   5.031   6.429   8.292
20276TIP3   OH260704   4.851   5.918   7.575
20276TIP3    H160705   4.856   5.990   7.641
20276TIP3    H260706   4.911   5.954   7.505
20277TIP3   OH260707   4.264   7.207   7.124
20277TIP3    H160708   4.228   7.274   7.064
20277TIP3    H260709   4.243   7.245   7.212
20278TIP3   OH260710   4.363   5.915   7.363
20278TIP3    H160711   4.362   6.004   7.404
20278TIP3    H260712   4.458   5.894   7.373
20279TIP3   OH260713   5.618   6.411   8.259
20279TIP3    H160714   5.520   6.409   8.268
20279TIP3    H260715   5.627   6.361   8.177
20280TIP3   OH260716   5.267   6.605   7.649
20280TIP3    H160717   5.192   6.544   7.662
20280TIP3    H260718   5.340   6.559   7.696
20281TIP3   OH260719   3.980   6.834   7.118
20281TIP3    H160720   4.051   6.901   7.128
20281TIP3    H260721   4.024   6.776   7.052
20282TIP3   OH260722   3.927   6.109   7.255
20282TIP3    H160723   3.925   6.207   7.248
20282TIP3    H260724   3.845   6.084   7.212
20283TIP3   OH260725   5.235   7.559   7.599
20283TIP3    H160726   5.194   7.606   7.523
20283TIP3    H260727   5.330   7.578   7.580
20284TIP3   OH260728   4.310   5.828   8.128
20284TIP3    H160729   4.281   5.793   8.041
20284TIP3    H260730   4.303   5.750   8.186
20285TIP3   OH260731   3.856   7.054   7.508
20285TIP3    H160732   3.782   7.078   7.566
20285TIP3    H260733   3.824   7.090   7.422
20286TIP3   OH260734   4.007   7.587   8.578
20286TIP3    H160735   4.093   7.586   8.625
20286TIP3    H260736   3.986   7.492   8.577
20287TIP3   OH260737   4.491   7.555   8.620
20287TIP3    H160738   4.584   7.532   8.631
20287TIP3    H260739   4.465   7.495   8.548
20288TIP3   OH260740   4.474   7.127   6.760
20288TIP3    H160741   4.416   7.053   6.789
20288TIP3    H260742   4.547   7.077   6.719
20289TIP3   OH260743   5.128   7.458   8.356
20289TIP3    H160744   5.119   7.388   8.425
20289TIP3    H260745   5.206   7.508   8.387
20290TIP3   OH260746   4.908   7.171   6.663
20290TIP3    H160747   4.951   7.105   6.721
20290TIP3    H260748   4.964   7.169   6.584
20291TIP3   OH260749   4.139   6.995   8.778
20291TIP3    H160750   4.156   6.899   8.786
20291TIP3    H260751   4.051   6.995   8.735
20292TIP3   OH260752   4.115   6.647   6.972
20292TIP3    H160753   4.169   6.609   7.044
20292TIP3    H260754   4.183   6.649   6.901
20293TIP3   OH260755   4.746   7.078   8.552
20293TIP3    H160756   4.705   7.091   8.465
20293TIP3    H260757   4.778   6.986   8.547
20294TIP3   OH260758   4.621   6.843   6.779
20294TIP3    H160759   4.627   6.854   6.876
20294TIP3    H260760   4.624   6.744   6.773
20295TIP3   OH260761   5.239   7.086   8.158
20295TIP3    H160762   5.313   7.132   8.114
20295TIP3    H260763   5.167   7.150   8.144
20296TIP3   OH260764   4.259   6.729   8.758
20296TIP3    H160765   4.330   6.666   8.742
20296TIP3    H260766   4.283   6.761   8.848
20297TIP3   OH260767   4.325   6.549   7.195
20297TIP3    H160768   4.298   6.506   7.278
20297TIP3    H260769   4.360   6.473   7.144
20298TIP3   OH260770   4.590   6.612   8.421
20298TIP3    H160771   4.514   6.674   8.424
20298TIP3    H260772   4.641   6.646   8.344
20299TIP3   OH260773   4.423   6.343   7.035
20299TIP3    H160774   4.398   6.343   6.940
20299TIP3    H260775   4.521   6.346   7.028
20300TIP3   OH260776   5.110   7.016   8.556
20300TIP3    H160777   5.191   6.990   8.509
20300TIP3    H260778   5.106   6.948   8.626
20301TIP3   OH260779   5.245   6.675   6.697
20301TIP3    H160780   5.225   6.626   6.615
20301TIP3    H260781   5.212   6.764   6.671
20302TIP3   OH260782   4.715   6.400   8.550
20302TIP3    H160783   4.716   6.319   8.495
20302TIP3    H260784   4.671   6.465   8.491
20303TIP3   OH260785   4.717   6.190   8.356
20303TIP3    H160786   4.746   6.226   8.270
20303TIP3    H260787   4.624   6.165   8.337
20304TIP3   OH260788   4.746   6.723   8.229
20304TIP3    H160789   4.829   6.726   8.181
20304TIP3    H260790   4.692   6.790   8.183
20305TIP3   OH260791   5.329   6.690   8.611
20305TIP3    H160792   5.373   6.605   8.623
20305TIP3    H260793   5.400   6.745   8.576
20306TIP3   OH260794   5.369   6.944   8.347
20306TIP3    H160795   5.312   6.996   8.287
20306TIP3    H260796   5.457   6.962   8.307
20307TIP3   OH260797   4.590   6.516   8.776
20307TIP3    H160798   4.523   6.446   8.793
20307TIP3    H260799   4.628   6.487   8.691
20308TIP3   OH260800   4.851   5.952   8.420
20308TIP3    H160801   4.799   6.033   8.400
20308TIP3    H260802   4.783   5.882   8.411
20309TIP3   OH260803   4.975   6.458   8.639
20309TIP3    H160804   4.966   6.443   8.735
20309TIP3    H260805   4.885   6.431   8.611
20310TIP3   OH260806   5.217   6.408   8.495
20310TIP3    H160807   5.141   6.405   8.557
20310TIP3    H260808   5.290   6.374   8.550
20311TIP3   OH260809   5.445   6.345   8.644
20311TIP3    H160810   5.457   6.250   8.662
20311TIP3    H260811   5.441   6.384   8.734
20312TIP3   OH260812   4.434   6.294   8.831
20312TIP3    H160813   4.440   6.203   8.797
20312TIP3    H260814   4.471   6.282   8.921
20313TIP3   OH260815   4.942   5.965   8.679
20313TIP3    H160816   5.011   5.896   8.678
20313TIP3    H260817   4.904   5.954   8.590
20314TIP3   OH260818   5.013   6.178   8.837
20314TIP3    H160819   4.990   6.105   8.774
20314TIP3    H260820   4.933   6.234   8.831
20315TIP3   OH260821   4.244   7.444   6.961
20315TIP3    H160822   4.331   7.415   6.928
20315TIP3    H260823   4.202   7.465   6.875
20316TIP3   OH260824   3.711   6.787   7.155
20316TIP3    H160825   3.806   6.808   7.141
20316TIP3    H260826   3.705   6.698   7.115
20317TIP3   OH260827   3.626   7.399   7.569
20317TIP3    H160828   3.559   7.337   7.534
20317TIP3    H260829   3.670   7.342   7.636
20318TIP3   OH260830   3.762   7.252   7.757
20318TIP3    H160831   3.751   7.177   7.817
20318TIP3    H260832   3.812   7.312   7.815
20319TIP3   OH260833   5.486   7.656   7.555
20319TIP3    H160834   5.515   7.683   7.644
20319TIP3    H260835   5.553   7.695   7.498
20320TIP3   OH260836   5.519   7.670   7.836
20320TIP3    H160837   5.475   7.583   7.834
20320TIP3    H260838   5.593   7.649   7.895
20321TIP3   OH260839   5.563   7.349   8.409
20321TIP3    H160840   5.491   7.355   8.475
20321TIP3    H260841   5.605   7.437   8.415
20322TIP3   OH260842   5.380   6.862   7.032
20322TIP3    H160843   5.451   6.923   7.003
20322TIP3    H260844   5.421   6.821   7.111
20323TIP3   OH260845   5.506   6.731   7.235
20323TIP3    H160846   5.442   6.685   7.295
20323TIP3    H260847   5.573   6.765   7.298
20324TIP3   OH260848   5.560   7.119   7.664
20324TIP3    H160849   5.616   7.053   7.618
20324TIP3    H260850   5.554   7.191   7.599
20325TIP3   OH260851   5.394   7.421   7.860
20325TIP3    H160852   5.323   7.459   7.915
20325TIP3    H260853   5.344   7.371   7.793
20326TIP3   OH260854   5.447   6.637   6.881
20326TIP3    H160855   5.374   6.639   6.814
20326TIP3    H260856   5.419   6.711   6.938
20327TIP3   OH260857   5.315   6.310   6.835
20327TIP3    H160858   5.275   6.343   6.755
20327TIP3    H260859   5.292   6.215   6.830
20328TIP3   OH260860   5.322   6.583   7.381
20328TIP3    H160861   5.331   6.487   7.375
20328TIP3    H260862   5.309   6.597   7.477
20329TIP3   OH260863   3.949   6.662   8.125
20329TIP3    H160864   3.948   6.628   8.033
20329TIP3    H260865   4.045   6.661   8.144
20330TIP3   OH260866   5.612   7.009   8.237
20330TIP3    H160867   5.683   6.942   8.230
20330TIP3    H260868   5.642   7.077   8.175
20331TIP3   OH260869   5.798   6.816   8.257
20331TIP3    H160870   5.723   6.764   8.294
20331TIP3    H260871   5.870   6.751   8.271
20332TIP3   OH260872   5.261   6.045   6.822
20332TIP3    H160873   5.339   6.014   6.873
20332TIP3    H260874   5.191   5.983   6.848
20333TIP3   OH260875   5.318   6.299   7.275
20333TIP3    H160876   5.357   6.210   7.292
20333TIP3    H260877   5.379   6.330   7.206
20334TIP3   OH260878   5.480   6.478   7.769
20334TIP3    H160879   5.567   6.503   7.730
20334TIP3    H260880   5.494   6.510   7.861
20335TIP3   OH260881   5.549   6.618   8.004
20335TIP3    H160882   5.471   6.652   8.052
20335TIP3    H260883   5.582   6.699   7.959
20336TIP3   OH260884   4.168   6.347   8.803
20336TIP3    H160885   4.265   6.338   8.805
20336TIP3    H260886   4.142   6.261   8.843
20337TIP3   OH260887   5.997   6.208   8.558
20337TIP3    H160888   6.059   6.143   8.518
20337TIP3    H260889   5.974   6.264   8.482
20338TIP3   OH260890   5.425   6.050   7.314
20338TIP3    H160891   5.477   6.035   7.396
20338TIP3    H260892   5.367   5.972   7.314
20339TIP3   OH260893   4.126   6.037   8.132
20339TIP3    H160894   4.187   5.961   8.143
20339TIP3    H260895   4.190   6.110   8.127
20340TIP3   OH260896   3.930   6.311   8.205
20340TIP3    H160897   3.980   6.303   8.121
20340TIP3    H260898   3.965   6.394   8.241
20341TIP3   OH260899   5.873   6.351   8.362
20341TIP3    H160900   5.785   6.388   8.383
20341TIP3    H260901   5.847   6.276   8.306
20342TIP3   OH260902   5.508   5.988   6.942
20342TIP3    H160903   5.551   5.912   6.898
20342TIP3    H260904   5.579   6.055   6.941
20343TIP3   OH260905   3.913   5.812   7.707
20343TIP3    H160906   3.820   5.811   7.736
20343TIP3    H260907   3.910   5.872   7.629
20344TIP3   OH260908   5.067   7.519   7.208
20344TIP3    H160909   5.125   7.504   7.129
20344TIP3    H260910   5.122   7.580   7.260
20345TIP3   OH260911   4.133   5.897   8.523
20345TIP3    H160912   4.083   5.888   8.606
20345TIP3    H260913   4.065   5.931   8.463
20346TIP3   OH260914   4.173   7.324   8.599
20346TIP3    H160915   4.082   7.292   8.582
20346TIP3    H260916   4.185   7.299   8.692
20347TIP3   OH260917   4.350   7.351   8.145
20347TIP3    H160918   4.304   7.428   8.107
20347TIP3    H260919   4.437   7.365   8.102
20348TIP3   OH260920   4.798   7.600   8.285
20348TIP3    H160921   4.840   7.599   8.373
20348TIP3    H260922   4.865   7.649   8.233
20349TIP3   OH260923   4.977   7.749   8.141
20349TIP3    H160924   5.049   7.697   8.103
20349TIP3    H260925   5.028   7.807   8.203
20350TIP3   OH260926   5.769   6.110   8.245
20350TIP3    H160927   5.678   6.099   8.211
20350TIP3    H260928   5.803   6.018   8.233
20351TIP3   OH260929   4.029   7.613   8.166
20351TIP3    H160930   3.939   7.648   8.147
20351TIP3    H260931   4.039   7.641   8.258
20352TIP3   OH260932   4.265   7.589   8.026
20352TIP3    H160933   4.179   7.602   8.072
20352TIP3    H260934   4.245   7.623   7.937
20353TIP3   OH260935   4.694   7.620   7.823
20353TIP3    H160936   4.620   7.640   7.763
20353TIP3    H260937   4.706   7.706   7.869
20354TIP3   OH260938   4.960   7.557   7.874
20354TIP3    H160939   4.866   7.575   7.856
20354TIP3    H260940   5.003   7.636   7.837
20355TIP3   OH260941   5.166   7.750   7.792
20355TIP3    H160942   5.154   7.834   7.744
20355TIP3    H260943   5.193   7.688   7.721
20356TIP3   OH260944   3.942   7.405   7.916
20356TIP3    H160945   3.967   7.379   8.007
20356TIP3    H260946   4.013   7.359   7.866
20357TIP3   OH260947   4.134   7.274   7.770
20357TIP3    H160948   4.147   7.190   7.820
20357TIP3    H260949   4.226   7.309   7.771
20358TIP3   OH260950   4.401   7.366   7.770
20358TIP3    H160951   4.432   7.273   7.768
20358TIP3    H260952   4.442   7.394   7.854
20359TIP3   OH260953   4.968   6.023   7.853
20359TIP3    H160954   4.930   5.955   7.912
20359TIP3    H260955   5.046   5.977   7.816
20360TIP3   OH260956   5.499   5.910   7.767
20360TIP3    H160957   5.535   5.959   7.691
20360TIP3    H260958   5.403   5.924   7.758
20361TIP3   OH260959   5.593   6.012   7.530
20361TIP3    H160960   5.666   5.957   7.493
20361TIP3    H260961   5.630   6.102   7.515
20362TIP3   OH260962   4.224   5.735   7.878
20362TIP3    H160963   4.133   5.701   7.881
20362TIP3    H260964   4.275   5.651   7.876
20363TIP3   OH260965   4.000   5.606   7.522
20363TIP3    H160966   4.039   5.663   7.454
20363TIP3    H260967   3.981   5.670   7.593
20364TIP3   OH260968   4.663   5.774   7.759
20364TIP3    H160969   4.726   5.819   7.700
20364TIP3    H260970   4.694   5.802   7.847
20365TIP3   OH260971   5.214   5.915   7.742
20365TIP3    H160972   5.217   5.873   7.655
20365TIP3    H260973   5.201   5.835   7.800
20366TIP3   OH260974   5.244   5.835   7.304
20366TIP3    H160975   5.156   5.874   7.316
20366TIP3    H260976   5.233   5.751   7.352
20367TIP3   OH260977   3.729   7.175   7.303
20367TIP3    H160978   3.644   7.140   7.271
20367TIP3    H260979   3.714   7.270   7.287
20368TIP3   OH260980   4.128   5.767   7.287
20368TIP3    H160981   4.176   5.702   7.233
20368TIP3    H260982   4.201   5.819   7.324
20369TIP3   OH260983   4.640   5.940   7.388
20369TIP3    H160984   4.699   5.892   7.448
20369TIP3    H260985   4.663   6.032   7.414
20370TIP3   OH260986   4.501   7.367   6.885
20370TIP3    H160987   4.590   7.386   6.849
20370TIP3    H260988   4.479   7.290   6.827
20371TIP3   OH260989   5.217   7.482   6.980
20371TIP3    H160990   5.209   7.384   6.967
20371TIP3    H260991   5.175   7.514   6.898
20372TIP3   OH260992   4.432   6.018   8.770
20372TIP3    H160993   4.399   5.946   8.826
20372TIP3    H260994   4.527   6.017   8.796
20373TIP3   OH260995   4.682   6.013   8.888
20373TIP3    H160996   4.766   5.984   8.848
20373TIP3    H260997   4.669   5.944   8.957
20374TIP3   OH260998   3.807   7.205   6.945
20374TIP3    H160999   3.799   7.223   7.039
20374TIP3    H261000   3.893   7.159   6.939
20375TIP3   OH261001   5.505   6.075   8.676
20375TIP3    H161002   5.525   6.044   8.767
20375TIP3    H261003   5.594   6.071   8.634
20376TIP3   OH261004   5.446   7.628   8.168
20376TIP3    H161005   5.366   7.596   8.121
20376TIP3    H261006   5.426   7.724   8.172
20377TIP3   OH261007   6.713   6.999   6.935
20377TIP3    H161008   6.683   7.090   6.916
20377TIP3    H261009   6.635   6.949   6.904
20378TIP3   OH261010   6.710   6.999   7.316
20378TIP3    H161011   6.741   6.969   7.403
20378TIP3    H261012   6.668   6.918   7.282
20379TIP3   OH261013   6.008   6.895   7.682
20379TIP3    H161014   6.038   6.826   7.744
20379TIP3    H261015   6.089   6.948   7.674
20380TIP3   OH261016   6.954   7.299   6.998
20380TIP3    H161017   6.939   7.230   7.064
20380TIP3    H261018   6.982   7.374   7.052
20381TIP3   OH261019   5.979   7.304   7.405
20381TIP3    H161020   5.971   7.206   7.407
20381TIP3    H261021   6.076   7.313   7.404
20382TIP3   OH261022   5.688   6.511   7.190
20382TIP3    H161023   5.636   6.593   7.203
20382TIP3    H261024   5.619   6.451   7.158
20383TIP3   OH261025   5.747   6.794   7.362
20383TIP3    H161026   5.794   6.716   7.400
20383TIP3    H261027   5.807   6.819   7.290
20384TIP3   OH261028   6.605   7.762   7.012
20384TIP3    H161029   6.656   7.696   6.960
20384TIP3    H261030   6.603   7.722   7.099
20385TIP3   OH261031   6.509   7.226   7.362
20385TIP3    H161032   6.545   7.148   7.318
20385TIP3    H261033   6.593   7.270   7.386
20386TIP3   OH261034   7.525   6.546   7.362
20386TIP3    H161035   7.552   6.629   7.406
20386TIP3    H261036   7.538   6.569   7.268
20387TIP3   OH261037   6.925   6.729   7.396
20387TIP3    H161038   6.963   6.641   7.417
20387TIP3    H261039   6.890   6.712   7.306
20388TIP3   OH261040   6.263   6.386   7.359
20388TIP3    H161041   6.236   6.456   7.297
20388TIP3    H261042   6.214   6.310   7.320
20389TIP3   OH261043   6.953   6.477   6.984
20389TIP3    H161044   7.025   6.459   7.049
20389TIP3    H261045   7.005   6.513   6.910
20390TIP3   OH261046   5.894   6.589   7.468
20390TIP3    H161047   5.976   6.566   7.516
20390TIP3    H261048   5.905   6.531   7.389
20391TIP3   OH261049   6.333   6.787   7.261
20391TIP3    H161050   6.426   6.760   7.275
20391TIP3    H261051   6.293   6.702   7.230
20392TIP3   OH261052   7.597   6.756   7.529
20392TIP3    H161053   7.513   6.801   7.509
20392TIP3    H261054   7.598   6.764   7.626
20393TIP3   OH261055   6.260   6.384   7.808
20393TIP3    H161056   6.200   6.388   7.732
20393TIP3    H261057   6.198   6.397   7.883
20394TIP3   OH261058   6.602   7.219   6.806
20394TIP3    H161059   6.559   7.198   6.723
20394TIP3    H261060   6.560   7.305   6.828
20395TIP3   OH261061   6.363   7.145   7.592
20395TIP3    H161062   6.299   7.208   7.630
20395TIP3    H261063   6.404   7.197   7.520
20396TIP3   OH261064   7.166   6.477   7.154
20396TIP3    H161065   7.148   6.430   7.236
20396TIP3    H261066   7.216   6.555   7.185
20397TIP3   OH261067   6.126   6.480   7.579
20397TIP3    H161068   6.190   6.549   7.608
20397TIP3    H261069   6.178   6.439   7.506
20398TIP3   OH261070   6.189   7.337   7.688
20398TIP3    H161071   6.162   7.424   7.651
20398TIP3    H261072   6.111   7.320   7.745
20399TIP3   OH261073   5.585   7.028   6.925
20399TIP3    H161074   5.544   7.056   6.841
20399TIP3    H261075   5.617   7.113   6.962
20400TIP3   OH261076   7.025   7.544   7.166
20400TIP3    H161077   6.935   7.535   7.205
20400TIP3    H261078   7.016   7.629   7.119
20401TIP3   OH261079   7.314   6.449   7.529
20401TIP3    H161080   7.225   6.474   7.499
20401TIP3    H261081   7.371   6.478   7.454
20402TIP3   OH261082   6.621   6.088   7.508
20402TIP3    H161083   6.614   5.991   7.523
20402TIP3    H261084   6.543   6.118   7.557
20403TIP3   OH261085   6.740   7.606   6.827
20403TIP3    H161086   6.781   7.518   6.809
20403TIP3    H261087   6.804   7.663   6.780
20404TIP3   OH261088   6.864   7.373   6.747
20404TIP3    H161089   6.829   7.292   6.707
20404TIP3    H261090   6.901   7.339   6.831
20405TIP3   OH261091   7.251   7.458   7.508
20405TIP3    H161092   7.239   7.379   7.450
20405TIP3    H261093   7.233   7.532   7.446
20406TIP3   OH261094   6.541   6.851   6.765
20406TIP3    H161095   6.461   6.901   6.742
20406TIP3    H261096   6.588   6.847   6.679
20407TIP3   OH261097   6.499   6.637   6.481
20407TIP3    H161098   6.568   6.685   6.530
20407TIP3    H261099   6.556   6.572   6.434
20408TIP3   OH261100   7.448   7.096   7.353
20408TIP3    H161101   7.363   7.146   7.359
20408TIP3    H261102   7.474   7.119   7.262
20409TIP3   OH261103   6.890   6.933   6.737
20409TIP3    H161104   6.835   6.958   6.815
20409TIP3    H261105   6.973   6.907   6.782
20410TIP3   OH261106   7.125   6.975   7.646
20410TIP3    H161107   7.119   7.058   7.696
20410TIP3    H261108   7.037   6.975   7.602
20411TIP3   OH261109   6.123   6.933   7.152
20411TIP3    H161110   6.080   6.874   7.087
20411TIP3    H261111   6.198   6.878   7.183
20412TIP3   OH261112   6.253   7.346   7.301
20412TIP3    H161113   6.230   7.297   7.220
20412TIP3    H261114   6.342   7.311   7.321
20413TIP3   OH261115   6.256   6.903   7.508
20413TIP3    H161116   6.290   6.880   7.419
20413TIP3    H261117   6.301   6.988   7.528
20414TIP3   OH261118   6.782   7.540   7.284
20414TIP3    H161119   6.771   7.619   7.339
20414TIP3    H261120   6.769   7.467   7.347
20415TIP3   OH261121   6.395   7.461   7.830
20415TIP3    H161122   6.335   7.522   7.878
20415TIP3    H261123   6.329   7.406   7.783
20416TIP3   OH261124   6.730   6.792   6.563
20416TIP3    H161125   6.789   6.851   6.616
20416TIP3    H261126   6.757   6.816   6.471
20417TIP3   OH261127   6.149   7.020   7.930
20417TIP3    H161128   6.152   7.104   7.979
20417TIP3    H261129   6.055   6.996   7.941
20418TIP3   OH261130   6.476   7.474   6.837
20418TIP3    H161131   6.553   7.530   6.855
20418TIP3    H261132   6.412   7.537   6.802
20419TIP3   OH261133   6.189   7.629   7.919
20419TIP3    H161134   6.153   7.626   7.828
20419TIP3    H261135   6.110   7.607   7.973
20420TIP3   OH261136   7.246   6.032   6.612
20420TIP3    H161137   7.164   6.050   6.662
20420TIP3    H261138   7.257   6.116   6.563
20421TIP3   OH261139   5.988   6.775   6.958
20421TIP3    H161140   5.919   6.815   6.901
20421TIP3    H261141   5.953   6.687   6.974
20422TIP3   OH261142   7.041   7.409   6.145
20422TIP3    H161143   7.061   7.504   6.153
20422TIP3    H261144   7.132   7.372   6.142
20423TIP3   OH261145   5.769   7.158   7.865
20423TIP3    H161146   5.705   7.132   7.796
20423TIP3    H261147   5.807   7.072   7.893
20424TIP3   OH261148   5.623   7.353   7.494
20424TIP3    H161149   5.719   7.340   7.489
20424TIP3    H261150   5.617   7.428   7.555
20425TIP3   OH261151   7.478   7.789   7.555
20425TIP3    H161152   7.476   7.693   7.569
20425TIP3    H261153   7.392   7.816   7.595
20426TIP3   OH261154   6.593   7.589   7.687
20426TIP3    H161155   6.592   7.681   7.721
20426TIP3    H261156   6.522   7.549   7.742
20427TIP3   OH261157   6.342   7.711   6.647
20427TIP3    H161158   6.307   7.692   6.558
20427TIP3    H261159   6.314   7.803   6.663
20428TIP3   OH261160   5.792   7.567   7.025
20428TIP3    H161161   5.840   7.557   7.110
20428TIP3    H261162   5.736   7.487   7.027
20429TIP3   OH261163   6.554   7.620   6.277
20429TIP3    H161164   6.614   7.549   6.244
20429TIP3    H261165   6.584   7.628   6.371
20430TIP3   OH261166   6.595   7.661   6.542
20430TIP3    H161167   6.520   7.660   6.605
20430TIP3    H261168   6.672   7.653   6.602
20431TIP3   OH261169   7.383   6.939   7.822
20431TIP3    H161170   7.297   6.948   7.777
20431TIP3    H261171   7.396   6.842   7.820
20432TIP3   OH261172   5.973   7.342   7.855
20432TIP3    H161173   6.024   7.324   7.937
20432TIP3    H261174   5.900   7.277   7.863
20433TIP3   OH261175   6.903   6.282   7.833
20433TIP3    H161176   6.970   6.252   7.898
20433TIP3    H261177   6.819   6.259   7.878
20434TIP3   OH261178   7.152   6.713   7.756
20434TIP3    H161179   7.099   6.705   7.838
20434TIP3    H261180   7.120   6.796   7.718
20435TIP3   OH261181   6.806   6.843   6.309
20435TIP3    H161182   6.774   6.812   6.222
20435TIP3    H261183   6.888   6.889   6.283
20436TIP3   OH261184   6.519   6.214   6.609
20436TIP3    H161185   6.487   6.211   6.701
20436TIP3    H261186   6.480   6.131   6.575
20437TIP3   OH261187   6.306   6.680   7.657
20437TIP3    H161188   6.255   6.697   7.738
20437TIP3    H261189   6.287   6.760   7.604
20438TIP3   OH261190   6.187   6.568   7.170
20438TIP3    H161191   6.095   6.538   7.189
20438TIP3    H261192   6.201   6.525   7.082
20439TIP3   OH261193   6.681   6.653   6.899
20439TIP3    H161194   6.626   6.723   6.857
20439TIP3    H261195   6.734   6.622   6.823
20440TIP3   OH261196   6.854   6.932   7.986
20440TIP3    H161197   6.831   6.859   8.047
20440TIP3    H261198   6.948   6.945   8.009
20441TIP3   OH261199   6.839   6.682   7.137
20441TIP3    H161200   6.777   6.710   7.067
20441TIP3    H261201   6.870   6.599   7.095
20442TIP3   OH261202   6.123   6.709   7.865
20442TIP3    H161203   6.153   6.767   7.936
20442TIP3    H261204   6.112   6.624   7.913
20443TIP3   OH261205   6.174   6.187   6.574
20443TIP3    H161206   6.169   6.183   6.672
20443TIP3    H261207   6.092   6.235   6.553
20444TIP3   OH261208   5.721   6.236   7.443
20444TIP3    H161209   5.798   6.257   7.498
20444TIP3    H261210   5.759   6.190   7.366
20445TIP3   OH261211   5.690   6.211   6.963
20445TIP3    H161212   5.739   6.249   6.888
20445TIP3    H261213   5.631   6.285   6.985
20446TIP3   OH261214   6.851   6.928   7.561
20446TIP3    H161215   6.882   6.855   7.502
20446TIP3    H261216   6.820   6.875   7.638
20447TIP3   OH261217   6.517   6.392   7.232
20447TIP3    H161218   6.432   6.387   7.281
20447TIP3    H261219   6.581   6.386   7.304
20448TIP3   OH261220   5.952   6.443   7.240
20448TIP3    H161221   5.857   6.446   7.214
20448TIP3    H261222   5.978   6.351   7.221
20449TIP3   OH261223   6.221   6.443   6.929
20449TIP3    H161224   6.315   6.454   6.907
20449TIP3    H261225   6.175   6.463   6.844
20450TIP3   OH261226   7.007   6.463   7.432
20450TIP3    H161227   6.975   6.475   7.524
20450TIP3    H261228   6.941   6.401   7.398
20451TIP3   OH261229   6.058   6.477   6.708
20451TIP3    H161230   5.985   6.431   6.663
20451TIP3    H261231   6.110   6.509   6.631
20452TIP3   OH261232   7.184   8.150   7.657
20452TIP3    H161233   7.178   8.174   7.563
20452TIP3    H261234   7.258   8.209   7.686
20453TIP3   OH261235   6.135   7.265   8.075
20453TIP3    H161236   6.215   7.293   8.124
20453TIP3    H261237   6.071   7.261   8.148
20454TIP3   OH261238   6.599   6.719   7.332
20454TIP3    H161239   6.668   6.671   7.284
20454TIP3    H261240   6.602   6.676   7.421
20455TIP3   OH261241   6.122   6.207   7.204
20455TIP3    H161242   6.079   6.131   7.249
20455TIP3    H261243   6.181   6.159   7.144
20456TIP3   OH261244   6.577   6.619   7.608
20456TIP3    H161245   6.486   6.646   7.630
20456TIP3    H261246   6.631   6.673   7.668
20457TIP3   OH261247   6.311   7.005   6.712
20457TIP3    H161248   6.240   6.938   6.703
20457TIP3    H261249   6.295   7.038   6.804
20458TIP3   OH261250   7.214   7.239   7.345
20458TIP3    H161251   7.236   7.289   7.263
20458TIP3    H261252   7.128   7.197   7.321
20459TIP3   OH261253   6.770   6.317   6.574
20459TIP3    H161254   6.674   6.299   6.584
20459TIP3    H261255   6.778   6.411   6.600
20460TIP3   OH261256   6.717   7.325   7.710
20460TIP3    H161257   6.732   7.295   7.801
20460TIP3    H261258   6.673   7.410   7.722
20461TIP3   OH261259   6.840   6.563   6.680
20461TIP3    H161260   6.936   6.569   6.696
20461TIP3    H261261   6.822   6.643   6.626
20462TIP3   OH261262   6.005   7.027   7.390
20462TIP3    H161263   6.043   6.996   7.305
20462TIP3    H261264   6.043   6.964   7.453
20463TIP3   OH261265   6.455   7.152   6.530
20463TIP3    H161266   6.409   7.238   6.539
20463TIP3    H261267   6.404   7.097   6.592
20464TIP3   OH261268   5.884   6.949   8.005
20464TIP3    H161269   5.907   6.933   8.098
20464TIP3    H261270   5.818   6.879   7.988
20465TIP3   OH261271   6.610   7.061   8.022
20465TIP3    H161272   6.550   7.000   7.976
20465TIP3    H261273   6.698   7.026   7.995
20466TIP3   OH261274   6.872   7.584   7.602
20466TIP3    H161275   6.776   7.578   7.616
20466TIP3    H261276   6.900   7.634   7.682
20467TIP3   OH261277   7.285   6.652   6.515
20467TIP3    H161278   7.221   6.607   6.454
20467TIP3    H261279   7.280   6.741   6.475
20468TIP3   OH261280   7.501   7.507   7.599
20468TIP3    H161281   7.403   7.502   7.591
20468TIP3    H261282   7.527   7.479   7.509
20469TIP3   OH261283   7.033   7.450   6.428
20469TIP3    H161284   6.966   7.427   6.494
20469TIP3    H261285   6.998   7.414   6.345
20470TIP3   OH261286   6.978   7.102   7.263
20470TIP3    H161287   6.885   7.076   7.277
20470TIP3    H261288   7.013   7.022   7.218
20471TIP3   OH261289   6.105   7.328   7.014
20471TIP3    H161290   6.105   7.410   6.961
20471TIP3    H261291   6.011   7.312   7.026
20472TIP3   OH261292   5.666   6.635   6.716
20472TIP3    H161293   5.715   6.717   6.739
20472TIP3    H261294   5.591   6.639   6.779
20473TIP3   OH261295   6.246   7.096   6.958
20473TIP3    H161296   6.209   7.184   6.979
20473TIP3    H261297   6.211   7.043   7.033
20474TIP3   OH261298   6.374   7.673   7.485
20474TIP3    H161299   6.417   7.745   7.435
20474TIP3    H261300   6.450   7.637   7.534
20475TIP3   OH261301   6.023   7.569   6.866
20475TIP3    H161302   5.938   7.574   6.914
20475TIP3    H261303   6.053   7.662   6.871
20476TIP3   OH261304   6.765   7.308   7.442
20476TIP3    H161305   6.755   7.306   7.540
20476TIP3    H261306   6.843   7.252   7.430
20477TIP3   OH261307   6.736   7.203   6.327
20477TIP3    H161308   6.792   7.176   6.403
20477TIP3    H261309   6.649   7.174   6.359
20478TIP3   OH261310   7.014   7.842   7.493
20478TIP3    H161311   6.936   7.784   7.489
20478TIP3    H261312   6.995   7.906   7.421
20479TIP3   OH261313   7.097   7.705   6.148
20479TIP3    H161314   7.070   7.738   6.060
20479TIP3    H261315   7.019   7.733   6.200
20480TIP3   OH261316   6.092   6.457   8.016
20480TIP3    H161317   5.996   6.454   8.028
20480TIP3    H261318   6.122   6.391   8.081
20481TIP3   OH261319   6.895   7.132   6.541
20481TIP3    H161320   6.888   7.065   6.613
20481TIP3    H261321   6.992   7.134   6.529
20482TIP3   OH261322   5.812   7.536   7.645
20482TIP3    H161323   5.865   7.460   7.674
20482TIP3    H261324   5.841   7.603   7.708
20483TIP3   OH261325   6.102   7.180   6.325
20483TIP3    H161326   6.121   7.088   6.299
20483TIP3    H261327   6.084   7.169   6.421
20484TIP3   OH261328   6.049   7.186   6.598
20484TIP3    H161329   6.120   7.156   6.656
20484TIP3    H261330   6.055   7.283   6.606
20485TIP3   OH261331   5.784   6.878   6.800
20485TIP3    H161332   5.719   6.922   6.858
20485TIP3    H261333   5.800   6.949   6.735
20486TIP3   OH261334   6.936   6.515   7.691
20486TIP3    H161335   7.012   6.551   7.739
20486TIP3    H261336   6.916   6.434   7.744
20487TIP3   OH261337   6.815   6.268   6.856
20487TIP3    H161338   6.800   6.292   6.763
20487TIP3    H261339   6.853   6.351   6.893
20488TIP3   OH261340   6.314   7.382   6.546
20488TIP3    H161341   6.228   7.411   6.582
20488TIP3    H261342   6.334   7.456   6.487
20489TIP3   OH261343   6.505   6.446   6.960
20489TIP3    H161344   6.569   6.519   6.945
20489TIP3    H261345   6.507   6.439   7.058
20490TIP3   OH261346   6.775   6.768   7.767
20490TIP3    H161347   6.792   6.821   7.848
20490TIP3    H261348   6.826   6.687   7.785
20491TIP3   OH261349   6.651   6.178   7.066
20491TIP3    H161350   6.642   6.256   7.122
20491TIP3    H261351   6.710   6.212   6.995
20492TIP3   OH261352   6.057   7.460   6.613
20492TIP3    H161353   6.026   7.530   6.551
20492TIP3    H261354   6.041   7.501   6.700
20493TIP3   OH261355   6.159   6.172   6.848
20493TIP3    H161356   6.156   6.258   6.893
20493TIP3    H261357   6.254   6.151   6.860
20494TIP3   OH261358   7.416   6.665   7.741
20494TIP3    H161359   7.319   6.668   7.758
20494TIP3    H261360   7.415   6.615   7.658
20495TIP3   OH261361   7.065   6.860   7.136
20495TIP3    H161362   6.987   6.802   7.149
20495TIP3    H261363   7.135   6.812   7.185
20496TIP3   OH261364   5.776   7.091   6.605
20496TIP3    H161365   5.844   7.160   6.616
20496TIP3    H261366   5.822   7.035   6.539
20497TIP3   OH261367   5.724   6.366   6.737
20497TIP3    H161368   5.718   6.463   6.733
20497TIP3    H261369   5.638   6.339   6.703
20498TIP3   OH261370   7.031   7.816   7.084
20498TIP3    H161371   6.989   7.867   7.012
20498TIP3    H261372   7.126   7.834   7.063
20499TIP3   OH261373   5.651   7.307   6.995
20499TIP3    H161374   5.577   7.335   7.051
20499TIP3    H261375   5.624   7.344   6.908
20500TIP3   OH261376   5.804   7.844   8.065
20500TIP3    H161377   5.890   7.843   8.112
20500TIP3    H261378   5.783   7.748   8.064
20501TIP3   OH261379   6.288   7.811   8.108
20501TIP3    H161380   6.381   7.786   8.117
20501TIP3    H261381   6.261   7.752   8.035
20502TIP3   OH261382   6.265   7.385   6.238
20502TIP3    H161383   6.208   7.314   6.276
20502TIP3    H261384   6.341   7.332   6.209
20503TIP3   OH261385   6.927   7.713   7.837
20503TIP3    H161386   6.913   7.641   7.904
20503TIP3    H261387   7.000   7.764   7.875
20504TIP3   OH261388   6.704   7.426   6.149
20504TIP3    H161389   6.744   7.359   6.208
20504TIP3    H261390   6.764   7.424   6.072
20505TIP3   OH261391   5.935   7.251   8.265
20505TIP3    H161392   5.952   7.155   8.272
20505TIP3    H261393   5.847   7.252   8.222
20506TIP3   OH261394   5.912   6.902   6.459
20506TIP3    H161395   5.965   6.866   6.532
20506TIP3    H261396   5.980   6.906   6.389
20507TIP3   OH261397   6.543   7.335   8.038
20507TIP3    H161398   6.500   7.348   7.952
20507TIP3    H261399   6.574   7.242   8.033
20508TIP3   OH261400   6.414   7.098   6.262
20508TIP3    H161401   6.420   7.113   6.359
20508TIP3    H261402   6.421   7.000   6.260
20509TIP3   OH261403   7.036   7.341   7.647
20509TIP3    H161404   7.108   7.389   7.602
20509TIP3    H261405   6.962   7.403   7.633
20510TIP3   OH261406   6.054   6.986   8.245
20510TIP3    H161407   6.126   6.923   8.227
20510TIP3    H261408   6.079   7.017   8.335
20511TIP3   OH261409   6.119   6.805   6.681
20511TIP3    H161410   6.093   6.764   6.765
20511TIP3    H261411   6.155   6.728   6.632
20512TIP3   OH261412   6.388   6.871   7.911
20512TIP3    H161413   6.310   6.930   7.912
20512TIP3    H261414   6.436   6.903   7.832
20513TIP3   OH261415   6.220   6.599   6.521
20513TIP3    H161416   6.195   6.598   6.427
20513TIP3    H261417   6.318   6.603   6.515
20514TIP3   OH261418   6.906   7.271   8.043
20514TIP3    H161419   6.984   7.241   7.995
20514TIP3    H261420   6.901   7.205   8.115
20515TIP3   OH261421   7.044   6.931   6.184
20515TIP3    H161422   7.022   6.884   6.101
20515TIP3    H261423   7.011   7.021   6.160
20516TIP3   OH261424   6.513   6.657   8.036
20516TIP3    H161425   6.511   6.576   7.981
20516TIP3    H261426   6.467   6.722   7.978
20517TIP3   OH261427   6.519   6.447   7.841
20517TIP3    H161428   6.540   6.480   7.752
20517TIP3    H261429   6.425   6.419   7.829
20518TIP3   OH261430   6.543   6.981   7.717
20518TIP3    H161431   6.625   6.984   7.665
20518TIP3    H261432   6.487   7.047   7.671
20519TIP3   OH261433   7.125   6.948   8.097
20519TIP3    H161434   7.169   6.864   8.119
20519TIP3    H261435   7.199   6.999   8.062
20520TIP3   OH261436   7.166   7.202   7.838
20520TIP3    H161437   7.107   7.253   7.778
20520TIP3    H261438   7.252   7.218   7.794
20521TIP3   OH261439   6.388   6.772   8.264
20521TIP3    H161440   6.321   6.702   8.280
20521TIP3    H261441   6.424   6.744   8.177
20522TIP3   OH261442   6.642   6.206   7.906
20522TIP3    H161443   6.595   6.290   7.887
20522TIP3    H261444   6.571   6.141   7.888
20523TIP3   OH261445   6.772   6.714   8.125
20523TIP3    H161446   6.761   6.699   8.221
20523TIP3    H261447   6.683   6.687   8.095
20524TIP3   OH261448   7.011   6.660   7.979
20524TIP3    H161449   6.936   6.661   8.041
20524TIP3    H261450   7.084   6.628   8.037
20525TIP3   OH261451   7.241   6.599   8.129
20525TIP3    H161452   7.252   6.504   8.151
20525TIP3    H261453   7.235   6.641   8.218
20526TIP3   OH261454   6.230   6.552   8.318
20526TIP3    H161455   6.232   6.461   8.283
20526TIP3    H261456   6.266   6.537   8.408
20527TIP3   OH261457   6.743   6.219   8.163
20527TIP3    H161458   6.808   6.145   8.158
20527TIP3    H261459   6.699   6.210   8.076
20528TIP3   OH261460   6.809   6.433   8.324
20528TIP3    H161461   6.786   6.362   8.261
20528TIP3    H261462   6.730   6.491   8.319
20529TIP3   OH261463   6.028   7.667   6.428
20529TIP3    H161464   6.123   7.657   6.407
20529TIP3    H261465   5.998   7.710   6.346
20530TIP3   OH261466   5.507   7.044   6.641
20530TIP3    H161467   5.602   7.065   6.628
20530TIP3    H261468   5.502   6.954   6.601
20531TIP3   OH261469   5.421   7.655   7.056
20531TIP3    H161470   5.355   7.592   7.021
20531TIP3    H261471   5.466   7.599   7.123
20532TIP3   OH261472   5.556   7.508   7.244
20532TIP3    H161473   5.549   7.433   7.305
20532TIP3    H261474   5.608   7.569   7.300
20533TIP3   OH261475   7.285   7.905   7.041
20533TIP3    H161476   7.308   7.937   7.130
20533TIP3    H261477   7.344   7.958   6.985
20534TIP3   OH261478   7.316   7.922   7.323
20534TIP3    H161479   7.276   7.833   7.321
20534TIP3    H261480   7.391   7.905   7.383
20535TIP3   OH261481   7.353   7.591   7.872
20535TIP3    H161482   7.284   7.598   7.941
20535TIP3    H261483   7.405   7.671   7.878
20536TIP3   OH261484   7.176   7.114   6.518
20536TIP3    H161485   7.243   7.181   6.492
20536TIP3    H261486   7.219   7.075   6.597
20537TIP3   OH261487   7.305   6.983   6.722
20537TIP3    H161488   7.238   6.941   6.780
20537TIP3    H261489   7.367   7.023   6.786
20538TIP3   OH261490   7.359   7.377   7.155
20538TIP3    H161491   7.411   7.312   7.102
20538TIP3    H261492   7.349   7.451   7.092
20539TIP3   OH261493   7.190   7.675   7.349
20539TIP3    H161494   7.119   7.719   7.399
20539TIP3    H261495   7.140   7.628   7.279
20540TIP3   OH261496   7.243   6.891   6.368
20540TIP3    H161497   7.171   6.894   6.300
20540TIP3    H261498   7.215   6.967   6.423
20541TIP3   OH261499   7.115   6.565   6.322
20541TIP3    H161500   7.071   6.603   6.245
20541TIP3    H261501   7.089   6.470   6.313
20542TIP3   OH261502   7.120   6.840   6.868
20542TIP3    H161503   7.125   6.743   6.863
20542TIP3    H261504   7.105   6.854   6.964
20543TIP3   OH261505   5.744   6.919   7.612
20543TIP3    H161506   5.744   6.885   7.520
20543TIP3    H261507   5.841   6.918   7.631
20544TIP3   OH261508   7.406   7.260   7.716
20544TIP3    H161509   7.482   7.198   7.710
20544TIP3    H261510   7.433   7.332   7.657
20545TIP3   OH261511   7.602   7.076   7.743
20545TIP3    H161512   7.523   7.029   7.778
20545TIP3    H261513   7.669   7.005   7.756
20546TIP3   OH261514   7.057   6.299   6.310
20546TIP3    H161515   7.130   6.267   6.366
20546TIP3    H261516   6.983   6.241   6.333
20547TIP3   OH261517   7.115   6.556   6.763
20547TIP3    H161518   7.155   6.467   6.779
20547TIP3    H261519   7.174   6.588   6.693
20548TIP3   OH261520   7.278   6.729   7.258
20548TIP3    H161521   7.364   6.757   7.218
20548TIP3    H261522   7.289   6.767   7.347
20549TIP3   OH261523   7.345   6.874   7.488
20549TIP3    H161524   7.268   6.906   7.539
20549TIP3    H261525   7.376   6.957   7.446
20550TIP3   OH261526   5.964   6.605   8.294
20550TIP3    H161527   6.061   6.595   8.291
20550TIP3    H261528   5.938   6.518   8.331
20551TIP3   OH261529   7.797   6.458   8.039
20551TIP3    H161530   7.856   6.394   7.995
20551TIP3    H261531   7.770   6.517   7.965
20552TIP3   OH261532   7.224   6.306   6.800
20552TIP3    H161533   7.270   6.290   6.885
20552TIP3    H261534   7.162   6.230   6.798
20553TIP3   OH261535   5.930   6.280   7.619
20553TIP3    H161536   5.988   6.202   7.628
20553TIP3    H261537   5.996   6.352   7.612
20554TIP3   OH261538   5.726   6.569   7.691
20554TIP3    H161539   5.776   6.558   7.608
20554TIP3    H261540   5.764   6.650   7.726
20555TIP3   OH261541   7.670   6.607   7.850
20555TIP3    H161542   7.586   6.646   7.881
20555TIP3    H261543   7.636   6.535   7.793
20556TIP3   OH261544   7.307   6.242   6.434
20556TIP3    H161545   7.344   6.169   6.379
20556TIP3    H261546   7.373   6.312   6.423
20557TIP3   OH261547   5.706   6.074   7.196
20557TIP3    H161548   5.611   6.069   7.219
20557TIP3    H261549   5.705   6.129   7.115
20558TIP3   OH261550   5.931   6.158   8.013
20558TIP3    H161551   5.879   6.144   8.093
20558TIP3    H261552   5.863   6.188   7.951
20559TIP3   OH261553   5.969   7.580   8.086
20559TIP3    H161554   5.879   7.549   8.068
20559TIP3    H261555   5.981   7.556   8.179
20560TIP3   OH261556   6.147   7.608   7.633
20560TIP3    H161557   6.100   7.685   7.594
20560TIP3    H261558   6.233   7.622   7.589
20561TIP3   OH261559   6.594   7.854   7.773
20561TIP3    H161560   6.638   7.854   7.861
20561TIP3    H261561   6.659   7.905   7.720
20562TIP3   OH261562   6.768   8.003   7.624
20562TIP3    H161563   6.840   7.953   7.584
20562TIP3    H261564   6.819   8.061   7.685
20563TIP3   OH261565   7.568   6.369   7.727
20563TIP3    H161566   7.476   6.364   7.698
20563TIP3    H261567   7.596   6.275   7.718
20564TIP3   OH261568   5.825   7.868   7.654
20564TIP3    H161569   5.735   7.903   7.634
20564TIP3    H261570   5.835   7.899   7.745
20565TIP3   OH261571   6.061   7.846   7.514
20565TIP3    H161572   5.975   7.859   7.559
20565TIP3    H261573   6.040   7.878   7.424
20566TIP3   OH261574   6.488   7.876   7.311
20566TIP3    H161575   6.417   7.898   7.248
20566TIP3    H261576   6.501   7.961   7.358
20567TIP3   OH261577   6.756   7.814   7.362
20567TIP3    H161578   6.662   7.831   7.343
20567TIP3    H261579   6.799   7.891   7.322
20568TIP3   OH261580   6.961   8.006   7.276
20568TIP3    H161581   6.947   8.090   7.228
20568TIP3    H261582   6.987   7.945   7.204
20569TIP3   OH261583   5.736   7.661   7.402
20569TIP3    H161584   5.763   7.635   7.493
20569TIP3    H261585   5.808   7.616   7.352
20570TIP3   OH261586   5.930   7.532   7.258
20570TIP3    H161587   5.944   7.447   7.306
20570TIP3    H261588   6.021   7.568   7.254
20571TIP3   OH261589   6.197   7.628   7.260
20571TIP3    H161590   6.227   7.536   7.248
20571TIP3    H261591   6.240   7.648   7.345
20572TIP3   OH261592   6.772   6.283   7.350
20572TIP3    H161593   6.727   6.215   7.404
20572TIP3    H261594   6.840   6.231   7.304
20573TIP3   OH261595   7.298   6.164   7.254
20573TIP3    H161596   7.331   6.217   7.178
20573TIP3    H261597   7.202   6.178   7.248
20574TIP3   OH261598   7.391   6.265   7.017
20574TIP3    H161599   7.464   6.214   6.976
20574TIP3    H261600   7.422   6.357   7.002
20575TIP3   OH261601   6.013   5.997   7.331
20575TIP3    H161602   5.931   5.950   7.355
20575TIP3    H261603   6.069   5.980   7.410
20576TIP3   OH261604   5.793   5.863   7.006
20576TIP3    H161605   5.834   5.922   6.941
20576TIP3    H261606   5.780   5.924   7.082
20577TIP3   OH261607   6.461   6.026   7.234
20577TIP3    H161608   6.530   6.080   7.194
20577TIP3    H261609   6.466   6.051   7.327
20578TIP3   OH261610   7.019   6.171   7.227
20578TIP3    H161611   7.004   6.133   7.140
20578TIP3    H261612   7.002   6.092   7.285
20579TIP3   OH261613   7.041   6.093   6.792
20579TIP3    H161614   6.953   6.135   6.803
20579TIP3    H261615   7.026   6.008   6.839
20580TIP3   OH261616   5.524   7.431   6.792
20580TIP3    H161617   5.439   7.398   6.757
20580TIP3    H261618   5.512   7.526   6.776
20581TIP3   OH261619   5.924   6.026   6.772
20581TIP3    H161620   5.972   5.959   6.720
20581TIP3    H261621   5.997   6.077   6.812
20582TIP3   OH261622   6.438   6.196   6.874
20582TIP3    H161623   6.490   6.145   6.938
20582TIP3    H261624   6.461   6.287   6.902
20583TIP3   OH261625   6.296   7.623   6.375
20583TIP3    H161626   6.386   7.641   6.340
20583TIP3    H261627   6.272   7.548   6.316
20584TIP3   OH261628   6.226   6.279   8.262
20584TIP3    H161629   6.194   6.203   8.314
20584TIP3    H261630   6.322   6.276   8.285
20585TIP3   OH261631   6.478   6.272   8.377
20585TIP3    H161632   6.561   6.241   8.336
20585TIP3    H261633   6.463   6.202   8.444
20586TIP3   OH261634   5.601   7.460   6.432
20586TIP3    H161635   5.599   7.482   6.526
20586TIP3    H261636   5.689   7.418   6.421
20587TIP3   OH261637   7.301   6.329   8.163
20587TIP3    H161638   7.319   6.299   8.255
20587TIP3    H261639   7.390   6.325   8.123
20588TIP3   OH261640   7.239   7.879   7.656
20588TIP3    H161641   7.159   7.856   7.604
20588TIP3    H261642   7.231   7.977   7.658
20589TIP3   OH261643   8.507   7.253   6.422
20589TIP3    H161644   8.481   7.346   6.404
20589TIP3    H261645   8.429   7.207   6.388
20590TIP3   OH261646   8.501   7.253   6.800
20590TIP3    H161647   8.532   7.230   6.890
20590TIP3    H261648   8.459   7.171   6.770
20591TIP3   OH261649   7.807   7.151   7.164
20591TIP3    H161650   7.838   7.083   7.228
20591TIP3    H261651   7.883   7.210   7.162
20592TIP3   OH261652   8.745   7.554   6.484
20592TIP3    H161653   8.743   7.485   6.551
20592TIP3    H261654   8.764   7.633   6.537
20593TIP3   OH261655   7.774   7.562   6.890
20593TIP3    H161656   7.766   7.464   6.894
20593TIP3    H261657   7.870   7.572   6.891
20594TIP3   OH261658   7.486   6.766   6.678
20594TIP3    H161659   7.435   6.848   6.693
20594TIP3    H261660   7.416   6.709   6.642
20595TIP3   OH261661   7.544   7.053   6.849
20595TIP3    H161662   7.592   6.975   6.886
20595TIP3    H261663   7.601   7.078   6.775
20596TIP3   OH261664   8.411   8.006   6.521
20596TIP3    H161665   8.456   7.950   6.455
20596TIP3    H261666   8.400   7.941   6.593
20597TIP3   OH261667   8.294   7.474   6.845
20597TIP3    H161668   8.334   7.398   6.800
20597TIP3    H261669   8.377   7.525   6.864
20598TIP3   OH261670   9.297   6.810   6.853
20598TIP3    H161671   9.332   6.899   6.865
20598TIP3    H261672   9.324   6.792   6.761
20599TIP3   OH261673   8.721   6.983   6.883
20599TIP3    H161674   8.764   6.897   6.902
20599TIP3    H261675   8.691   6.969   6.792
20600TIP3   OH261676   8.058   6.642   6.848
20600TIP3    H161677   8.034   6.715   6.788
20600TIP3    H261678   8.008   6.569   6.805
20601TIP3   OH261679   8.748   6.734   6.473
20601TIP3    H161680   8.822   6.718   6.537
20601TIP3    H261681   8.799   6.769   6.397
20602TIP3   OH261682   7.689   6.846   6.955
20602TIP3    H161683   7.771   6.824   7.003
20602TIP3    H261684   7.700   6.788   6.876
20603TIP3   OH261685   8.130   7.042   6.745
20603TIP3    H161686   8.223   7.015   6.759
20603TIP3    H261687   8.089   6.958   6.714
20604TIP3   OH261688   8.054   6.626   7.283
20604TIP3    H161689   7.993   6.663   7.217
20604TIP3    H261690   8.002   6.642   7.365
20605TIP3   OH261691   8.401   7.477   6.291
20605TIP3    H161692   8.356   7.456   6.208
20605TIP3    H261693   8.356   7.561   6.315
20606TIP3   OH261694   8.158   7.400   7.081
20606TIP3    H161695   8.092   7.464   7.116
20606TIP3    H261696   8.196   7.449   7.006
20607TIP3   OH261697   8.961   6.729   6.641
20607TIP3    H161698   8.967   6.675   6.721
20607TIP3    H261699   9.000   6.813   6.673
20608TIP3   OH261700   7.923   6.740   7.068
20608TIP3    H161701   7.983   6.814   7.091
20608TIP3    H261702   7.972   6.701   6.992
20609TIP3   OH261703   7.972   7.587   7.160
20609TIP3    H161704   7.952   7.676   7.124
20609TIP3    H261705   7.895   7.575   7.219
20610TIP3   OH261706   7.384   7.281   6.411
20610TIP3    H161707   7.332   7.308   6.333
20610TIP3    H261708   7.407   7.367   6.452
20611TIP3   OH261709   9.110   6.694   7.023
20611TIP3    H161710   9.024   6.716   6.984
20611TIP3    H261711   9.172   6.729   6.954
20612TIP3   OH261712   8.421   6.317   7.062
20612TIP3    H161713   8.402   6.266   6.980
20612TIP3    H261714   8.338   6.371   7.067
20613TIP3   OH261715   8.519   7.848   6.324
20613TIP3    H161716   8.571   7.767   6.303
20613TIP3    H261717   8.574   7.915   6.277
20614TIP3   OH261718   8.666   7.633   6.232
20614TIP3    H161719   8.624   7.555   6.192
20614TIP3    H261720   8.699   7.595   6.317
20615TIP3   OH261721   8.337   7.106   6.252
20615TIP3    H161722   8.257   7.158   6.230
20615TIP3    H261723   8.383   7.105   6.166
20616TIP3   OH261724   8.297   6.892   5.970
20616TIP3    H161725   8.365   6.943   6.017
20616TIP3    H261726   8.354   6.828   5.922
20617TIP3   OH261727   8.685   7.189   6.224
20617TIP3    H161728   8.631   7.214   6.302
20617TIP3    H261729   8.769   7.165   6.267
20618TIP3   OH261730   7.917   7.188   6.640
20618TIP3    H161731   7.875   7.130   6.573
20618TIP3    H261732   7.994   7.135   6.668
20619TIP3   OH261733   8.047   7.600   6.788
20619TIP3    H161734   8.026   7.555   6.705
20619TIP3    H261735   8.136   7.565   6.808
20620TIP3   OH261736   8.059   7.157   6.996
20620TIP3    H161737   8.088   7.141   6.904
20620TIP3    H261738   8.098   7.244   7.016
20621TIP3   OH261739   8.536   7.823   6.762
20621TIP3    H161740   8.609   7.861   6.813
20621TIP3    H261741   8.542   7.729   6.787
20622TIP3   OH261742   8.109   7.750   7.345
20622TIP3    H161743   8.078   7.832   7.304
20622TIP3    H261744   8.077   7.684   7.280
20623TIP3   OH261745   8.527   7.047   6.050
20623TIP3    H161746   8.585   7.107   6.102
20623TIP3    H261747   8.553   7.071   5.958
20624TIP3   OH261748   7.943   7.258   7.411
20624TIP3    H161749   7.944   7.347   7.452
20624TIP3    H261750   7.848   7.237   7.422
20625TIP3   OH261751   8.268   7.728   6.326
20625TIP3    H161752   8.349   7.781   6.340
20625TIP3    H261753   8.207   7.793   6.287
20626TIP3   OH261754   9.041   6.291   6.100
20626TIP3    H161755   8.957   6.310   6.146
20626TIP3    H261756   9.054   6.373   6.049
20627TIP3   OH261757   7.784   7.029   6.445
20627TIP3    H161758   7.719   7.075   6.388
20627TIP3    H261759   7.740   6.945   6.459
20628TIP3   OH261760   8.840   7.656   5.644
20628TIP3    H161761   8.849   7.753   5.633
20628TIP3    H261762   8.933   7.627   5.633
20629TIP3   OH261763   7.563   7.413   7.353
20629TIP3    H161764   7.496   7.393   7.284
20629TIP3    H261765   7.599   7.325   7.375
20630TIP3   OH261766   7.419   7.608   6.987
20630TIP3    H161767   7.515   7.604   6.978
20630TIP3    H261768   7.407   7.688   7.039
20631TIP3   OH261769   8.147   7.972   6.129
20631TIP3    H161770   8.104   7.958   6.043
20631TIP3    H261771   8.118   8.063   6.153
20632TIP3   OH261772   7.579   7.818   6.517
20632TIP3    H161773   7.644   7.817   6.592
20632TIP3    H261774   7.516   7.754   6.555
20633TIP3   OH261775   8.351   7.874   5.766
20633TIP3    H161776   8.411   7.805   5.732
20633TIP3    H261777   8.383   7.884   5.858
20634TIP3   OH261778   8.397   7.921   6.033
20634TIP3    H161779   8.311   7.931   6.079
20634TIP3    H261780   8.454   7.890   6.106
20635TIP3   OH261781   7.764   7.595   7.334
20635TIP3    H161782   7.815   7.570   7.414
20635TIP3    H261783   7.688   7.534   7.341
20636TIP3   OH261784   8.173   6.422   7.121
20636TIP3    H161785   8.083   6.390   7.097
20636TIP3    H261786   8.146   6.506   7.165
20637TIP3   OH261787   8.707   6.502   7.309
20637TIP3    H161788   8.776   6.506   7.378
20637TIP3    H261789   8.626   6.518   7.361
20638TIP3   OH261790   8.602   7.094   5.794
20638TIP3    H161791   8.569   7.069   5.706
20638TIP3    H261792   8.682   7.145   5.770
20639TIP3   OH261793   8.316   6.469   6.096
20639TIP3    H161794   8.280   6.467   6.187
20639TIP3    H261795   8.276   6.387   6.061
20640TIP3   OH261796   8.102   6.934   7.143
20640TIP3    H161797   8.053   6.957   7.225
20640TIP3    H261798   8.087   7.016   7.090
20641TIP3   OH261799   7.986   6.821   6.658
20641TIP3    H161800   7.892   6.797   6.675
20641TIP3    H261801   7.998   6.782   6.569
20642TIP3   OH261802   8.475   6.908   6.384
20642TIP3    H161803   8.422   6.980   6.344
20642TIP3    H261804   8.530   6.879   6.309
20643TIP3   OH261805   8.629   6.937   6.626
20643TIP3    H161806   8.572   6.969   6.554
20643TIP3    H261807   8.663   6.856   6.582
20644TIP3   OH261808   7.918   6.962   7.351
20644TIP3    H161809   7.945   7.027   7.417
20644TIP3    H261810   7.905   6.882   7.405
20645TIP3   OH261811   7.972   6.444   6.063
20645TIP3    H161812   7.960   6.440   6.160
20645TIP3    H261813   7.892   6.493   6.037
20646TIP3   OH261814   7.512   6.491   6.932
20646TIP3    H161815   7.590   6.518   6.984
20646TIP3    H261816   7.550   6.454   6.850
20647TIP3   OH261817   7.490   6.470   6.453
20647TIP3    H161818   7.533   6.509   6.374
20647TIP3    H261819   7.426   6.541   6.474
20648TIP3   OH261820   8.615   7.173   7.046
20648TIP3    H161821   8.665   7.110   6.989
20648TIP3    H261822   8.596   7.116   7.123
20649TIP3   OH261823   8.310   6.634   6.721
20649TIP3    H161824   8.225   6.643   6.768
20649TIP3    H261825   8.374   6.658   6.790
20650TIP3   OH261826   7.746   6.700   6.727
20650TIP3    H161827   7.652   6.712   6.701
20650TIP3    H261828   7.763   6.607   6.704
20651TIP3   OH261829   8.018   6.698   6.415
20651TIP3    H161830   8.110   6.713   6.389
20651TIP3    H261831   7.968   6.720   6.333
20652TIP3   OH261832   8.806   6.721   6.921
20652TIP3    H161833   8.778   6.732   7.015
20652TIP3    H261834   8.736   6.661   6.888
20653TIP3   OH261835   7.858   6.729   6.196
20653TIP3    H161836   7.784   6.686   6.150
20653TIP3    H261837   7.908   6.764   6.120
20654TIP3   OH261838   7.924   7.495   7.539
20654TIP3    H161839   7.971   7.579   7.559
20654TIP3    H261840   7.859   7.492   7.613
20655TIP3   OH261841   8.394   6.965   6.812
20655TIP3    H161842   8.474   6.937   6.764
20655TIP3    H261843   8.412   6.932   6.902
20656TIP3   OH261844   7.930   6.456   6.697
20656TIP3    H161845   7.885   6.380   6.739
20656TIP3    H261846   7.954   6.420   6.610
20657TIP3   OH261847   8.372   6.863   7.115
20657TIP3    H161848   8.283   6.904   7.121
20657TIP3    H261849   8.430   6.928   7.159
20658TIP3   OH261850   8.109   7.261   6.201
20658TIP3    H161851   8.037   7.195   6.190
20658TIP3    H261852   8.091   7.294   6.292
20659TIP3   OH261853   8.568   6.572   6.065
20659TIP3    H161854   8.471   6.556   6.070
20659TIP3    H261855   8.576   6.667   6.086
20660TIP3   OH261856   8.637   6.820   6.167
20660TIP3    H161857   8.733   6.827   6.182
20660TIP3    H261858   8.618   6.900   6.114
20661TIP3   OH261859   7.802   7.284   6.878
20661TIP3    H161860   7.839   7.253   6.793
20661TIP3    H261861   7.837   7.218   6.940
20662TIP3   OH261862   8.254   7.410   6.021
20662TIP3    H161863   8.206   7.496   6.027
20662TIP3    H261864   8.200   7.354   6.082
20663TIP3   OH261865   7.680   7.198   7.489
20663TIP3    H161866   7.692   7.178   7.583
20663TIP3    H261867   7.608   7.136   7.465
20664TIP3   OH261868   8.431   7.264   7.485
20664TIP3    H161869   8.356   7.249   7.426
20664TIP3    H261870   8.455   7.356   7.462
20665TIP3   OH261871   9.078   6.909   6.002
20665TIP3    H161872   9.016   6.865   5.940
20665TIP3    H261873   9.074   6.999   5.962
20666TIP3   OH261874   8.771   7.724   5.908
20666TIP3    H161875   8.754   7.654   5.972
20666TIP3    H261876   8.790   7.676   5.825
20667TIP3   OH261877   8.760   7.357   6.743
20667TIP3    H161878   8.669   7.323   6.758
20667TIP3    H261879   8.803   7.280   6.700
20668TIP3   OH261880   7.903   7.582   6.498
20668TIP3    H161881   7.905   7.666   6.448
20668TIP3    H261882   7.809   7.573   6.516
20669TIP3   OH261883   7.466   6.890   6.206
20669TIP3    H161884   7.510   6.975   6.227
20669TIP3    H261885   7.388   6.895   6.266
20670TIP3   OH261886   8.043   7.350   6.447
20670TIP3    H161887   8.007   7.440   6.463
20670TIP3    H261888   8.005   7.301   6.522
20671TIP3   OH261889   8.165   7.928   6.971
20671TIP3    H161890   8.185   8.015   6.935
20671TIP3    H261891   8.236   7.925   7.037
20672TIP3   OH261892   7.820   7.827   6.354
20672TIP3    H161893   7.736   7.836   6.402
20672TIP3    H261894   7.855   7.918   6.360
20673TIP3   OH261895   8.541   7.581   6.906
20673TIP3    H161896   8.547   7.595   7.002
20673TIP3    H261897   8.621   7.526   6.894
20674TIP3   OH261898   8.533   7.455   5.812
20674TIP3    H161899   8.586   7.431   5.892
20674TIP3    H261900   8.444   7.430   5.843
20675TIP3   OH261901   8.872   7.931   5.633
20675TIP3    H161902   8.917   8.003   5.585
20675TIP3    H261903   8.791   7.979   5.661
20676TIP3   OH261904   7.893   6.706   7.499
20676TIP3    H161905   7.796   6.715   7.512
20676TIP3    H261906   7.917   6.645   7.570
20677TIP3   OH261907   8.693   7.390   6.029
20677TIP3    H161908   8.684   7.324   6.100
20677TIP3    H261909   8.791   7.388   6.016
20678TIP3   OH261910   7.611   7.794   7.132
20678TIP3    H161911   7.662   7.717   7.160
20678TIP3    H261912   7.644   7.861   7.193
20679TIP3   OH261913   7.899   7.438   5.812
20679TIP3    H161914   7.914   7.346   5.783
20679TIP3    H261915   7.880   7.424   5.907
20680TIP3   OH261916   7.844   7.443   6.086
20680TIP3    H161917   7.917   7.415   6.143
20680TIP3    H261918   7.850   7.541   6.092
20681TIP3   OH261919   7.584   7.137   6.287
20681TIP3    H161920   7.516   7.180   6.344
20681TIP3    H261921   7.598   7.207   6.221
20682TIP3   OH261922   8.743   6.763   7.185
20682TIP3    H161923   8.795   6.809   7.254
20682TIP3    H261924   8.721   6.680   7.230
20683TIP3   OH261925   8.609   6.526   6.343
20683TIP3    H161926   8.592   6.548   6.249
20683TIP3    H261927   8.647   6.610   6.377
20684TIP3   OH261928   8.110   7.639   6.032
20684TIP3    H161929   8.024   7.668   6.069
20684TIP3    H261930   8.129   7.713   5.973
20685TIP3   OH261931   8.304   6.700   6.447
20685TIP3    H161932   8.366   6.774   6.427
20685TIP3    H261933   8.305   6.698   6.544
20686TIP3   OH261934   8.569   7.014   7.263
20686TIP3    H161935   8.556   7.059   7.348
20686TIP3    H261936   8.631   6.944   7.289
20687TIP3   OH261937   8.447   6.435   6.552
20687TIP3    H161938   8.428   6.516   6.605
20687TIP3    H261939   8.506   6.472   6.482
20688TIP3   OH261940   7.852   7.716   6.101
20688TIP3    H161941   7.824   7.786   6.037
20688TIP3    H261942   7.839   7.761   6.187
20689TIP3   OH261943   7.954   6.428   6.342
20689TIP3    H161944   7.953   6.520   6.373
20689TIP3    H261945   8.051   6.411   6.347
20690TIP3   OH261946   8.852   7.115   6.618
20690TIP3    H161947   8.773   7.060   6.630
20690TIP3    H261948   8.920   7.067   6.670
20691TIP3   OH261949   7.574   7.349   6.093
20691TIP3    H161950   7.647   7.413   6.101
20691TIP3    H261951   7.615   7.291   6.025
20692TIP3   OH261952   7.518   6.621   6.226
20692TIP3    H161953   7.514   6.719   6.222
20692TIP3    H261954   7.435   6.596   6.185
20693TIP3   OH261955   7.911   6.340   7.098
20693TIP3    H161956   7.873   6.308   7.013
20693TIP3    H261957   7.896   6.263   7.157
20694TIP3   OH261958   7.435   7.548   6.484
20694TIP3    H161959   7.354   7.585   6.521
20694TIP3    H261960   7.454   7.604   6.407
20695TIP3   OH261961   8.063   7.641   5.725
20695TIP3    H161962   8.007   7.570   5.763
20695TIP3    H261963   8.139   7.589   5.693
20696TIP3   OH261964   8.500   7.682   5.636
20696TIP3    H161965   8.545   7.620   5.696
20696TIP3    H261966   8.558   7.682   5.557
20697TIP3   OH261967   7.746   7.495   7.741
20697TIP3    H161968   7.751   7.398   7.745
20697TIP3    H261969   7.653   7.510   7.716
20698TIP3   OH261970   7.707   7.160   5.945
20698TIP3    H161971   7.761   7.124   6.018
20698TIP3    H261972   7.774   7.164   5.874
20699TIP3   OH261973   8.215   7.357   5.752
20699TIP3    H161974   8.219   7.369   5.849
20699TIP3    H261975   8.215   7.259   5.747
20700TIP3   OH261976   7.858   7.240   7.739
20700TIP3    H161977   7.925   7.171   7.725
20700TIP3    H261978   7.838   7.231   7.832
20701TIP3   OH261979   7.918   7.061   6.169
20701TIP3    H161980   7.888   7.019   6.251
20701TIP3    H261981   7.952   6.985   6.118
20702TIP3   OH261982   8.176   7.115   7.380
20702TIP3    H161983   8.099   7.176   7.385
20702TIP3    H261984   8.229   7.155   7.308
20703TIP3   OH261985   8.016   6.854   6.009
20703TIP3    H161986   7.989   6.857   5.915
20703TIP3    H261987   8.113   6.860   6.001
20704TIP3   OH261988   8.839   7.187   5.670
20704TIP3    H161989   8.817   7.141   5.587
20704TIP3    H261990   8.807   7.277   5.647
20705TIP3   OH261991   8.277   6.896   7.506
20705TIP3    H161992   8.287   6.823   7.443
20705TIP3    H261993   8.247   6.971   7.449
20706TIP3   OH261994   8.318   6.681   7.321
20706TIP3    H161995   8.340   6.738   7.244
20706TIP3    H261996   8.221   6.670   7.310
20707TIP3   OH261997   8.339   7.233   7.199
20707TIP3    H161998   8.422   7.245   7.150
20707TIP3    H261999   8.283   7.304   7.161
20708TIP3   OH262000   8.156   7.016   7.721
20708TIP3    H162001   8.098   6.944   7.752
20708TIP3    H262002   8.190   6.980   7.636
20709TIP3   OH262003   8.438   6.438   7.364
20709TIP3    H162004   8.408   6.533   7.358
20709TIP3    H262005   8.353   6.397   7.393
20710TIP3   OH262006   8.539   6.930   7.574
20710TIP3    H162007   8.539   6.894   7.664
20710TIP3    H262008   8.447   6.914   7.548
20711TIP3   OH262009   8.021   6.794   7.807
20711TIP3    H162010   8.025   6.705   7.766
20711TIP3    H262011   8.046   6.770   7.899
20712TIP3   OH262012   8.531   6.465   7.647
20712TIP3    H162013   8.603   6.399   7.645
20712TIP3    H262014   8.493   6.456   7.559
20713TIP3   OH262015   8.601   6.693   7.775
20713TIP3    H162016   8.582   6.605   7.737
20713TIP3    H262017   8.510   6.726   7.793
20714TIP3   OH262018   7.822   7.916   5.912
20714TIP3    H162019   7.918   7.913   5.895
20714TIP3    H262020   7.794   7.967   5.833
20715TIP3   OH262021   7.303   7.300   6.127
20715TIP3    H162022   7.398   7.320   6.116
20715TIP3    H262023   7.297   7.211   6.087
20716TIP3   OH262024   7.189   7.879   6.517
20716TIP3    H162025   7.101   7.842   6.542
20716TIP3    H262026   7.242   7.841   6.591
20717TIP3   OH262027   7.355   7.779   6.713
20717TIP3    H162028   7.328   7.704   6.769
20717TIP3    H262029   7.408   7.828   6.779
20718TIP3   OH262030   8.972   7.375   6.003
20718TIP3    H162031   9.042   7.439   5.975
20718TIP3    H262032   9.015   7.335   6.082
20719TIP3   OH262033   9.096   7.241   6.203
20719TIP3    H162034   9.035   7.200   6.268
20719TIP3    H262035   9.167   7.277   6.261
20720TIP3   OH262036   9.038   7.148   5.856
20720TIP3    H162037   8.967   7.152   5.788
20720TIP3    H262038   9.013   7.224   5.911
20721TIP3   OH262039   8.911   6.820   5.809
20721TIP3    H162040   8.867   6.862   5.734
20721TIP3    H262041   8.884   6.726   5.797
20722TIP3   OH262042   8.914   7.096   6.353
20722TIP3    H162043   8.923   7.000   6.349
20722TIP3    H262044   8.899   7.112   6.449
20723TIP3   OH262045   7.542   7.169   7.101
20723TIP3    H162046   7.539   7.140   7.008
20723TIP3    H262047   7.639   7.171   7.117
20724TIP3   OH262048   8.854   6.554   5.794
20724TIP3    H162049   8.928   6.524   5.850
20724TIP3    H262050   8.780   6.497   5.820
20725TIP3   OH262051   8.910   6.813   6.251
20725TIP3    H162052   8.952   6.725   6.264
20725TIP3    H262053   8.968   6.848   6.181
20726TIP3   OH262054   9.043   6.975   6.753
20726TIP3    H162055   9.132   6.993   6.713
20726TIP3    H262056   9.057   7.007   6.842
20727TIP3   OH262057   7.761   6.861   7.780
20727TIP3    H162058   7.857   6.846   7.782
20727TIP3    H262059   7.730   6.776   7.818
20728TIP3   OH262060   9.019   6.562   6.285
20728TIP3    H162061   9.066   6.544   6.369
20728TIP3    H262062   8.957   6.487   6.282
20729TIP3   OH262063   7.722   6.547   7.102
20729TIP3    H162064   7.785   6.474   7.116
20729TIP3    H262065   7.782   6.624   7.101
20730TIP3   OH262066   7.525   6.823   7.181
20730TIP3    H162067   7.572   6.818   7.096
20730TIP3    H262068   7.551   6.910   7.212
20731TIP3   OH262069   9.101   6.498   5.920
20731TIP3    H162070   9.142   6.427   5.868
20731TIP3    H262071   9.168   6.570   5.914
20732TIP3   OH262072   7.507   6.332   6.684
20732TIP3    H162073   7.413   6.323   6.708
20732TIP3    H262074   7.503   6.387   6.603
20733TIP3   OH262075   8.642   8.035   6.174
20733TIP3    H162076   8.702   8.009   6.101
20733TIP3    H262077   8.706   8.069   6.238
20734TIP3   OH262078   7.729   6.404   7.493
20734TIP3    H162079   7.680   6.398   7.577
20734TIP3    H262080   7.662   6.445   7.435
20735TIP3   OH262081   7.744   7.842   7.601
20735TIP3    H162082   7.656   7.815   7.567
20735TIP3    H262083   7.744   7.803   7.690
20736TIP3   OH262084   7.948   7.853   7.114
20736TIP3    H162085   7.892   7.925   7.076
20736TIP3    H262086   8.030   7.873   7.064
20737TIP3   OH262087   9.324   6.613   7.194
20737TIP3    H162088   9.250   6.639   7.133
20737TIP3    H262089   9.342   6.522   7.166
20738TIP3   OH262090   7.618   8.131   7.137
20738TIP3    H162091   7.525   8.157   7.119
20738TIP3    H262092   7.621   8.140   7.233
20739TIP3   OH262093   7.836   8.059   6.980
20739TIP3    H162094   7.768   8.100   7.036
20739TIP3    H262095   7.845   8.124   6.908
20740TIP3   OH262096   7.534   7.915   6.885
20740TIP3    H162097   7.558   7.895   6.977
20740TIP3    H262098   7.611   7.875   6.840
20741TIP3   OH262099   7.728   7.788   6.738
20741TIP3    H162100   7.743   7.706   6.791
20741TIP3    H262101   7.818   7.827   6.739
20742TIP3   OH262102   7.990   7.878   6.743
20742TIP3    H162103   8.025   7.787   6.741
20742TIP3    H262104   8.022   7.906   6.830
20743TIP3   OH262105   8.577   6.546   6.842
20743TIP3    H162106   8.542   6.477   6.898
20743TIP3    H262107   8.638   6.498   6.783
20744TIP3   OH262108   9.084   6.479   6.769
20744TIP3    H162109   9.123   6.504   6.684
20744TIP3    H262110   8.991   6.461   6.746
20745TIP3   OH262111   9.182   6.510   6.508
20745TIP3    H162112   9.259   6.465   6.466
20745TIP3    H262113   9.208   6.604   6.492
20746TIP3   OH262114   7.816   6.249   6.851
20746TIP3    H162115   7.723   6.217   6.853
20746TIP3    H262116   7.863   6.163   6.849
20747TIP3   OH262117   7.608   6.118   6.501
20747TIP3    H162118   7.632   6.176   6.426
20747TIP3    H262119   7.573   6.182   6.566
20748TIP3   OH262120   8.277   6.282   6.753
20748TIP3    H162121   8.321   6.323   6.677
20748TIP3    H262122   8.231   6.357   6.793
20749TIP3   OH262123   8.808   6.414   6.714
20749TIP3    H162124   8.788   6.398   6.621
20749TIP3    H262125   8.798   6.325   6.754
20750TIP3   OH262126   8.828   6.354   6.272
20750TIP3    H162127   8.746   6.405   6.283
20750TIP3    H262128   8.797   6.266   6.305
20751TIP3   OH262129   7.719   6.278   6.263
20751TIP3    H162130   7.766   6.214   6.206
20751TIP3    H262131   7.792   6.331   6.300
20752TIP3   OH262132   8.231   6.452   6.362
20752TIP3    H162133   8.293   6.403   6.418
20752TIP3    H262134   8.255   6.544   6.387
20753TIP3   OH262135   8.091   7.879   5.861
20753TIP3    H162136   8.180   7.901   5.826
20753TIP3    H262137   8.070   7.803   5.802
20754TIP3   OH262138   8.798   7.990   5.948
20754TIP3    H162139   8.794   7.892   5.936
20754TIP3    H262140   8.758   8.020   5.865
20755TIP3   OH262141   8.029   6.526   7.740
20755TIP3    H162142   7.991   6.458   7.799
20755TIP3    H262143   8.122   6.527   7.771
20756TIP3   OH262144   8.279   6.520   7.858
20756TIP3    H162145   8.365   6.488   7.824
20756TIP3    H262146   8.261   6.455   7.929
20757TIP3   OH262147   7.404   7.714   5.914
20757TIP3    H162148   7.412   7.724   6.009
20757TIP3    H262149   7.489   7.670   5.891
20758TIP3   OH262150   9.276   7.015   6.165
20758TIP3    H162151   9.236   7.102   6.182
20758TIP3    H262152   9.201   6.969   6.123
20759TIP3   OH262153   9.341   7.302   6.308
20759TIP3    H162154   9.399   7.236   6.349
20759TIP3    H262155   9.400   7.349   6.249
20760TIP3   OH262156   9.873   6.869   6.313
20760TIP3    H162157   9.870   6.953   6.262
20760TIP3    H262158   9.796   6.823   6.275
20761TIP3   OH262159   9.454   7.071   6.441
20761TIP3    H162160   9.549   7.065   6.464
20761TIP3    H262161   9.458   7.024   6.355
20762TIP3   OH262162   9.176   7.542   5.899
20762TIP3    H162163   9.135   7.573   5.817
20762TIP3    H262164   9.206   7.627   5.938
20763TIP3   OH262165  10.118   7.344   5.671
20763TIP3    H162166  10.040   7.404   5.674
20763TIP3    H262167  10.183   7.406   5.635
20764TIP3   OH262168  10.086   7.147   5.449
20764TIP3    H162169  10.123   7.188   5.529
20764TIP3    H262170  10.159   7.093   5.413
20765TIP3   OH262171   9.574   7.265   5.902
20765TIP3    H162172   9.504   7.320   5.862
20765TIP3    H262173   9.524   7.200   5.952
20766TIP3   OH262174  10.127   6.728   5.583
20766TIP3    H162175  10.093   6.725   5.675
20766TIP3    H262176  10.081   6.650   5.546
20767TIP3   OH262177   9.777   7.057   6.123
20767TIP3    H162178   9.685   7.043   6.154
20767TIP3    H262179   9.773   7.018   6.033
20768TIP3   OH262180   9.769   6.702   5.547
20768TIP3    H162181   9.759   6.695   5.645
20768TIP3    H262182   9.690   6.753   5.524
20769TIP3   OH262183   9.296   6.736   6.415
20769TIP3    H162184   9.373   6.761   6.471
20769TIP3    H262185   9.338   6.711   6.332
20770TIP3   OH262186   9.283   6.725   5.939
20770TIP3    H162187   9.330   6.764   5.862
20770TIP3    H262188   9.223   6.799   5.961
20771TIP3   OH262189   9.537   6.947   6.207
20771TIP3    H162190   9.444   6.952   6.173
20771TIP3    H262191   9.567   6.858   6.180
20772TIP3   OH262192   9.802   6.934   5.883
20772TIP3    H162193   9.888   6.965   5.855
20772TIP3    H262194   9.743   6.965   5.810
20773TIP3   OH262195   9.644   6.986   5.674
20773TIP3    H162196   9.573   6.943   5.625
20773TIP3    H262197   9.698   7.023   5.601
20774TIP3   OH262198   9.694   6.715   6.166
20774TIP3    H162199   9.665   6.635   6.216
20774TIP3    H262200   9.763   6.679   6.109
20775TIP3   OH262201   9.900   7.517   5.671
20775TIP3    H162202   9.830   7.448   5.672
20775TIP3    H262203   9.889   7.559   5.758
20776TIP3   OH262204  10.364   6.859   5.544
20776TIP3    H162205  10.273   6.825   5.562
20776TIP3    H262206  10.353   6.954   5.555
20777TIP3   OH262207   9.261   7.146   5.691
20777TIP3    H162208   9.307   7.230   5.712
20777TIP3    H262209   9.184   7.152   5.753
20778TIP3   OH262210   9.707   7.687   5.301
20778TIP3    H162211   9.705   7.596   5.267
20778TIP3    H262212   9.675   7.676   5.392
20779TIP3   OH262213   9.642   7.703   5.572
20779TIP3    H162214   9.709   7.655   5.623
20779TIP3    H262215   9.663   7.795   5.588
20780TIP3   OH262216   9.369   7.393   5.772
20780TIP3    H162217   9.306   7.440   5.831
20780TIP3    H262218   9.386   7.464   5.707
20781TIP3   OH262219  10.375   6.778   5.819
20781TIP3    H162220  10.393   6.789   5.724
20781TIP3    H262221  10.444   6.833   5.858
20782TIP3   OH262222  10.087   6.972   5.937
20782TIP3    H162223  10.136   7.045   5.895
20782TIP3    H262224  10.035   7.021   6.003
20783TIP3   OH262225  10.238   6.663   6.035
20783TIP3    H162226  10.265   6.736   6.094
20783TIP3    H262227  10.292   6.690   5.957
20784TIP3   OH262228   9.751   6.674   5.821
20784TIP3    H162229   9.747   6.765   5.857
20784TIP3    H262230   9.846   6.657   5.832
20785TIP3   OH262231   9.366   7.602   5.579
20785TIP3    H162232   9.426   7.678   5.586
20785TIP3    H262233   9.414   7.548   5.513
20786TIP3   OH262234   9.314   6.877   5.711
20786TIP3    H162235   9.315   6.974   5.709
20786TIP3    H262236   9.226   6.858   5.676
20787TIP3   OH262237   9.698   6.578   6.571
20787TIP3    H162238   9.682   6.560   6.476
20787TIP3    H262239   9.693   6.489   6.610
20788TIP3   OH262240   9.234   7.799   5.977
20788TIP3    H162241   9.171   7.848   6.030
20788TIP3    H262242   9.237   7.855   5.897
20789TIP3   OH262243   9.860   7.899   5.216
20789TIP3    H162244   9.805   7.825   5.249
20789TIP3    H262245   9.934   7.852   5.175
20790TIP3   OH262246   9.506   7.416   5.432
20790TIP3    H162247   9.558   7.381   5.506
20790TIP3    H262248   9.574   7.418   5.361
20791TIP3   OH262249  10.014   7.611   5.242
20791TIP3    H162250   9.975   7.625   5.330
20791TIP3    H262251  10.012   7.513   5.237
20792TIP3   OH262252   9.708   7.320   5.655
20792TIP3    H162253   9.682   7.292   5.746
20792TIP3    H262254   9.738   7.236   5.616
20793TIP3   OH262255   9.810   7.106   5.494
20793TIP3    H162256   9.780   7.113   5.401
20793TIP3    H262257   9.906   7.122   5.483
20794TIP3   OH262258   3.970   2.530  -0.253
20794TIP3    H162259   4.057   2.502  -0.281
20794TIP3    H262260   3.935   2.566  -0.337
20795TIP3   OH262261   9.098   7.556   5.613
20795TIP3    H162262   9.193   7.578   5.603
20795TIP3    H262263   9.095   7.466   5.574
20796TIP3   OH262264   8.989   8.157   6.043
20796TIP3    H162265   8.923   8.097   6.002
20796TIP3    H262266   8.981   8.125   6.135
20797TIP3   OH262267   9.503   6.772   6.589
20797TIP3    H162268   9.567   6.698   6.589
20797TIP3    H262269   9.565   6.845   6.566
20798TIP3   OH262270   9.289   7.039   6.664
20798TIP3    H162271   9.322   7.030   6.572
20798TIP3    H262272   9.318   7.131   6.680
20799TIP3   OH262273   9.299   6.579   6.166
20799TIP3    H162274   9.205   6.581   6.190
20799TIP3    H262275   9.301   6.640   6.089
20800TIP3   OH262276   9.728   6.667   6.837
20800TIP3    H162277   9.758   6.622   6.756
20800TIP3    H262278   9.633   6.653   6.829
20801TIP3   OH262279   9.609   6.499   6.319
20801TIP3    H162280   9.516   6.469   6.327
20801TIP3    H262281   9.656   6.413   6.320
20802TIP3   OH262282   9.399   6.374   5.986
20802TIP3    H162283   9.429   6.432   5.914
20802TIP3    H262284   9.369   6.439   6.053
20803TIP3   OH262285  10.052   6.526   6.214
20803TIP3    H162286  10.110   6.578   6.157
20803TIP3    H262287  10.043   6.581   6.293
20804TIP3   OH262288   9.122   7.933   5.758
20804TIP3    H162289   9.033   7.910   5.728
20804TIP3    H262290   9.119   8.030   5.750
20805TIP3   OH262291   9.514   6.534   5.749
20805TIP3    H162292   9.565   6.472   5.694
20805TIP3    H262293   9.586   6.589   5.787
20806TIP3   OH262294  10.031   6.710   5.846
20806TIP3    H162295  10.089   6.663   5.908
20806TIP3    H262296  10.044   6.802   5.877
20807TIP3   OH262297   9.193   7.975   5.406
20807TIP3    H162298   9.187   7.993   5.501
20807TIP3    H262299   9.281   7.932   5.397
20808TIP3   OH262300   1.758   7.567   8.522
20808TIP3    H162301   1.790   7.645   8.574
20808TIP3    H262302   1.784   7.595   8.433
20809TIP3   OH262303   1.254   7.760   8.545
20809TIP3    H162304   1.279   7.668   8.566
20809TIP3    H262305   1.208   7.748   8.461
20810TIP3   OH262306   1.199   7.514   8.164
20810TIP3    H162307   1.274   7.501   8.225
20810TIP3    H262308   1.246   7.548   8.086
20811TIP3   OH262309   1.844   7.768   8.675
20811TIP3    H162310   1.817   7.857   8.647
20811TIP3    H262311   1.897   7.790   8.755
20812TIP3   OH262312   1.414   7.524   8.328
20812TIP3    H162313   1.403   7.477   8.412
20812TIP3    H262314   1.470   7.600   8.354
20813TIP3   OH262315   1.554   7.506   8.704
20813TIP3    H162316   1.468   7.506   8.657
20813TIP3    H262317   1.617   7.523   8.631
20814TIP3   OH262318  10.573   6.525   6.002
20814TIP3    H162319  10.499   6.467   5.975
20814TIP3    H262320  10.568   6.519   6.098
20815TIP3   OH262321   1.657   8.099   8.477
20815TIP3    H162322   1.628   8.172   8.534
20815TIP3    H262323   1.699   8.148   8.403
20816TIP3   OH262324   1.149   7.986   7.906
20816TIP3    H162325   1.083   8.000   7.978
20816TIP3    H262326   1.225   7.949   7.955
20817TIP3   OH262327   1.047   7.800   7.724
20817TIP3    H162328   1.052   7.868   7.793
20817TIP3    H262329   1.004   7.851   7.654
20818TIP3   OH262330   1.494   7.078   7.786
20818TIP3    H162331   1.414   7.096   7.840
20818TIP3    H262332   1.505   7.164   7.740
20819TIP3   OH262333   1.292   8.444   7.330
20819TIP3    H162334   1.303   8.542   7.324
20819TIP3    H262335   1.385   8.415   7.322
20820TIP3   OH262336   1.171   7.312   8.996
20820TIP3    H162337   1.250   7.274   9.040
20820TIP3    H262338   1.101   7.279   9.054
20821TIP3   OH262339   1.039   7.910   7.458
20821TIP3    H162340   1.033   7.851   7.381
20821TIP3    H262341   1.134   7.930   7.460
20822TIP3   OH262342   1.102   7.727   8.311
20822TIP3    H162343   1.015   7.745   8.271
20822TIP3    H262344   1.125   7.645   8.262
20823TIP3   OH262345   1.285   7.488   8.594
20823TIP3    H162346   1.245   7.507   8.682
20823TIP3    H262347   1.217   7.428   8.559
20824TIP3   OH262348   0.976   7.383   7.726
20824TIP3    H162349   0.902   7.416   7.780
20824TIP3    H262350   1.046   7.445   7.758
20825TIP3   OH262351   1.132   7.569   7.833
20825TIP3    H162352   1.212   7.603   7.875
20825TIP3    H262353   1.091   7.652   7.800
20826TIP3   OH262354   1.535   7.695   7.689
20826TIP3    H162355   1.471   7.651   7.628
20826TIP3    H262356   1.526   7.786   7.653
20827TIP3   OH262357   1.237   8.514   7.602
20827TIP3    H162358   1.207   8.452   7.672
20827TIP3    H262359   1.248   8.457   7.524
20828TIP3   OH262360   1.323   8.722   7.323
20828TIP3    H162361   1.377   8.791   7.278
20828TIP3    H262362   1.236   8.763   7.316
20829TIP3   OH262363   1.141   8.171   7.693
20829TIP3    H162364   1.126   8.109   7.767
20829TIP3    H262365   1.239   8.175   7.696
20830TIP3   OH262366   1.176   7.538   8.838
20830TIP3    H162367   1.182   7.596   8.916
20830TIP3    H262368   1.166   7.451   8.882
20831TIP3   OH262369   1.080   7.305   8.015
20831TIP3    H162370   1.042   7.359   7.944
20831TIP3    H262371   1.101   7.375   8.081
20832TIP3   OH262372   1.655   7.713   8.900
20832TIP3    H162373   1.592   7.672   8.960
20832TIP3    H262374   1.675   7.640   8.839
20833TIP3   OH262375   1.316   7.913   8.302
20833TIP3    H162376   1.239   7.853   8.308
20833TIP3    H262377   1.385   7.863   8.352
20834TIP3   OH262378   1.295   7.978   7.357
20834TIP3    H162379   1.271   7.928   7.276
20834TIP3    H262380   1.264   8.067   7.331
20835TIP3   OH262381   1.427   8.162   7.693
20835TIP3    H162382   1.499   8.224   7.668
20835TIP3    H262383   1.465   8.121   7.774
20836TIP3   OH262384   1.553   8.031   7.898
20836TIP3    H162385   1.488   7.984   7.955
20836TIP3    H262386   1.616   8.067   7.963
20837TIP3   OH262387   1.492   7.937   7.544
20837TIP3    H162388   1.419   7.940   7.479
20837TIP3    H262389   1.465   8.011   7.602
20838TIP3   OH262390   1.374   7.607   7.487
20838TIP3    H162391   1.311   7.645   7.424
20838TIP3    H262392   1.343   7.514   7.488
20839TIP3   OH262393   1.374   7.881   8.040
20839TIP3    H162394   1.379   7.784   8.034
20839TIP3    H262395   1.361   7.895   8.137
20840TIP3   OH262396   1.308   7.343   7.487
20840TIP3    H162397   1.389   7.317   7.536
20840TIP3    H262398   1.241   7.285   7.524
20841TIP3   OH262399   1.379   7.608   7.953
20841TIP3    H162400   1.413   7.516   7.967
20841TIP3    H262401   1.430   7.633   7.874
20842TIP3   OH262402   1.527   7.777   8.424
20842TIP3    H162403   1.619   7.802   8.400
20842TIP3    H262404   1.518   7.821   8.510
20843TIP3   OH262405   2.070   7.506   9.241
20843TIP3    H162406   2.105   7.438   9.179
20843TIP3    H262407   2.031   7.569   9.177
20844TIP3   OH262408   1.476   7.351   7.974
20844TIP3    H162409   1.521   7.335   8.060
20844TIP3    H262410   1.412   7.277   7.973
20845TIP3   OH262411   1.933   7.635   9.035
20845TIP3    H162412   1.852   7.652   9.087
20845TIP3    H262413   1.901   7.570   8.970
20846TIP3   OH262414   1.553   7.289   7.604
20846TIP3    H162415   1.593   7.213   7.559
20846TIP3    H262416   1.624   7.355   7.602
20847TIP3   OH262417   1.810   7.416   8.888
20847TIP3    H162418   1.719   7.388   8.866
20847TIP3    H262419   1.854   7.328   8.892
20848TIP3   OH262420   1.068   7.304   8.543
20848TIP3    H162421   1.050   7.226   8.598
20848TIP3    H262422   1.140   7.268   8.485
20849TIP3   OH262423   1.547   7.213   8.433
20849TIP3    H162424   1.584   7.264   8.357
20849TIP3    H262425   1.451   7.226   8.420
20850TIP3   OH262426   1.639   7.311   8.193
20850TIP3    H162427   1.713   7.259   8.155
20850TIP3    H262428   1.672   7.402   8.179
20851TIP3   OH262429   1.274   7.206   8.394
20851TIP3    H162430   1.275   7.167   8.305
20851TIP3    H262431   1.259   7.126   8.450
20852TIP3   OH262432   1.293   7.138   7.965
20852TIP3    H162433   1.209   7.188   7.980
20852TIP3    H262434   1.275   7.054   8.012
20853TIP3   OH262435   1.253   8.778   7.649
20853TIP3    H162436   1.258   8.681   7.637
20853TIP3    H262437   1.225   8.806   7.561
20854TIP3   OH262438   2.756   8.300   7.599
20854TIP3    H162439   2.726   8.391   7.578
20854TIP3    H262440   2.680   8.249   7.565
20855TIP3   OH262441   2.746   8.299   7.981
20855TIP3    H162442   2.785   8.273   8.067
20855TIP3    H262443   2.713   8.214   7.948
20856TIP3   OH262444   2.070   8.215   8.358
20856TIP3    H162445   2.091   8.143   8.422
20856TIP3    H262446   2.155   8.220   8.309
20857TIP3   OH262447   3.004   8.602   7.662
20857TIP3    H162448   2.986   8.530   7.723
20857TIP3    H262449   3.014   8.678   7.722
20858TIP3   OH262450   2.025   8.605   8.090
20858TIP3    H162451   2.016   8.507   8.084
20858TIP3    H262452   2.117   8.615   8.063
20859TIP3   OH262453   1.734   7.814   7.853
20859TIP3    H162454   1.682   7.895   7.867
20859TIP3    H262455   1.664   7.752   7.826
20860TIP3   OH262456   1.794   8.098   8.023
20860TIP3    H162457   1.839   8.021   8.064
20860TIP3    H262458   1.848   8.113   7.945
20861TIP3   OH262459   2.556   8.526   8.029
20861TIP3    H162460   2.595   8.445   7.992
20861TIP3    H262461   2.640   8.575   8.042
20862TIP3   OH262462   3.564   7.848   8.024
20862TIP3    H162463   3.595   7.929   8.068
20862TIP3    H262464   3.589   7.866   7.931
20863TIP3   OH262465   2.966   8.030   8.059
20863TIP3    H162466   3.008   7.945   8.082
20863TIP3    H262467   2.936   8.012   7.968
20864TIP3   OH262468   2.302   7.687   8.024
20864TIP3    H162469   2.282   7.759   7.961
20864TIP3    H262470   2.254   7.613   7.981
20865TIP3   OH262471   2.997   7.779   7.647
20865TIP3    H162472   3.068   7.761   7.713
20865TIP3    H262473   3.051   7.813   7.573
20866TIP3   OH262474   1.939   7.893   8.130
20866TIP3    H162475   2.019   7.868   8.180
20866TIP3    H262476   1.948   7.834   8.053
20867TIP3   OH262477   2.376   8.088   7.931
20867TIP3    H162478   2.470   8.063   7.941
20867TIP3    H262479   2.338   8.004   7.897
20868TIP3   OH262480   3.640   8.055   8.193
20868TIP3    H162481   3.555   8.100   8.176
20868TIP3    H262482   3.651   8.071   8.287
20869TIP3   OH262483   2.302   7.666   8.450
20869TIP3    H162484   2.237   7.703   8.387
20869TIP3    H262485   2.253   7.681   8.534
20870TIP3   OH262486   2.645   8.520   7.471
20870TIP3    H162487   2.610   8.504   7.382
20870TIP3    H262488   2.605   8.607   7.492
20871TIP3   OH262489   2.404   8.450   8.255
20871TIP3    H162490   2.352   8.516   8.303
20871TIP3    H262491   2.446   8.502   8.184
20872TIP3   OH262492   3.207   7.780   7.818
20872TIP3    H162493   3.201   7.728   7.899
20872TIP3    H262494   3.263   7.855   7.846
20873TIP3   OH262495   2.168   7.787   8.242
20873TIP3    H162496   2.233   7.856   8.269
20873TIP3    H262497   2.218   7.744   8.169
20874TIP3   OH262498   1.632   8.330   7.588
20874TIP3    H162499   1.588   8.355   7.504
20874TIP3    H262500   1.663   8.416   7.622
20875TIP3   OH262501   3.044   8.843   7.836
20875TIP3    H162502   2.953   8.852   7.871
20875TIP3    H262503   3.049   8.928   7.786
20876TIP3   OH262504   3.359   7.750   8.191
20876TIP3    H162505   3.271   7.777   8.160
20876TIP3    H262506   3.418   7.780   8.119
20877TIP3   OH262507   2.656   7.389   8.171
20877TIP3    H162508   2.646   7.294   8.192
20877TIP3    H262509   2.578   7.426   8.219
20878TIP3   OH262510   2.752   8.887   7.470
20878TIP3    H162511   2.812   8.809   7.462
20878TIP3    H262512   2.818   8.959   7.456
20879TIP3   OH262513   2.917   8.677   7.410
20879TIP3    H162514   2.888   8.597   7.364
20879TIP3    H262515   2.952   8.640   7.494
20880TIP3   OH262516   3.299   8.758   8.172
20880TIP3    H162517   3.285   8.678   8.118
20880TIP3    H262518   3.279   8.829   8.107
20881TIP3   OH262519   2.586   8.153   7.427
20881TIP3    H162520   2.507   8.204   7.400
20881TIP3    H262521   2.636   8.148   7.344
20882TIP3   OH262522   2.544   7.936   7.147
20882TIP3    H162523   2.612   7.986   7.194
20882TIP3    H262524   2.601   7.872   7.099
20883TIP3   OH262525   3.491   8.396   8.016
20883TIP3    H162526   3.407   8.447   8.023
20883TIP3    H262527   3.518   8.417   7.925
20884TIP3   OH262528   2.934   8.234   7.401
20884TIP3    H162529   2.880   8.258   7.480
20884TIP3    H262530   3.018   8.207   7.443
20885TIP3   OH262531   3.168   8.274   8.310
20885TIP3    H162532   3.165   8.356   8.363
20885TIP3    H262533   3.081   8.280   8.264
20886TIP3   OH262534   2.171   8.237   7.815
20886TIP3    H162535   2.126   8.178   7.750
20886TIP3    H262536   2.243   8.179   7.847
20887TIP3   OH262537   2.306   8.627   7.958
20887TIP3    H162538   2.298   8.541   7.915
20887TIP3    H262539   2.400   8.622   7.988
20888TIP3   OH262540   2.295   8.205   8.178
20888TIP3    H162541   2.330   8.177   8.091
20888TIP3    H262542   2.343   8.289   8.194
20889TIP3   OH262543   2.772   8.095   7.226
20889TIP3    H162544   2.834   8.152   7.278
20889TIP3    H262545   2.800   8.118   7.134
20890TIP3   OH262546   2.504   8.780   7.516
20890TIP3    H162547   2.593   8.820   7.526
20890TIP3    H262548   2.460   8.847   7.462
20891TIP3   OH262549   3.291   7.334   7.275
20891TIP3    H162550   3.209   7.353   7.326
20891TIP3    H262551   3.302   7.418   7.225
20892TIP3   OH262552   2.033   8.078   7.624
20892TIP3    H162553   1.965   8.119   7.566
20892TIP3    H262554   1.994   7.992   7.642
20893TIP3   OH262555   3.090   8.701   6.826
20893TIP3    H162556   3.098   8.797   6.807
20893TIP3    H262557   3.182   8.670   6.811
20894TIP3   OH262558   3.533   9.093   8.212
20894TIP3    H162559   3.541   8.996   8.225
20894TIP3    H262560   3.442   9.107   8.240
20895TIP3   OH262561   2.398   9.014   7.301
20895TIP3    H162562   2.357   9.000   7.214
20895TIP3    H262563   2.368   9.104   7.324
20896TIP3   OH262564   2.602   8.919   6.945
20896TIP3    H162565   2.660   8.850   6.908
20896TIP3    H262566   2.636   8.927   7.037
20897TIP3   OH262567   2.652   8.967   7.217
20897TIP3    H162568   2.562   8.978   7.255
20897TIP3    H262569   2.699   8.931   7.295
20898TIP3   OH262570   3.421   8.235   8.491
20898TIP3    H162571   3.339   8.243   8.440
20898TIP3    H262572   3.439   8.139   8.483
20899TIP3   OH262573   2.418   7.466   8.298
20899TIP3    H162574   2.328   7.434   8.274
20899TIP3    H262575   2.392   7.545   8.348
20900TIP3   OH262576   2.952   7.582   8.496
20900TIP3    H162577   3.021   7.553   8.559
20900TIP3    H262578   2.869   7.560   8.543
20901TIP3   OH262579   3.191   8.011   8.416
20901TIP3    H162580   3.142   8.004   8.501
20901TIP3    H262581   3.163   8.097   8.381
20902TIP3   OH262582   2.849   8.143   6.971
20902TIP3    H162583   2.817   8.115   6.883
20902TIP3    H262584   2.933   8.187   6.946
20903TIP3   OH262585   2.559   7.519   7.270
20903TIP3    H162586   2.532   7.514   7.364
20903TIP3    H262587   2.527   7.432   7.240
20904TIP3   OH262588   2.346   7.978   8.323
20904TIP3    H162589   2.312   8.006   8.410
20904TIP3    H262590   2.332   8.061   8.271
20905TIP3   OH262591   2.231   7.871   7.834
20905TIP3    H162592   2.140   7.840   7.853
20905TIP3    H262593   2.247   7.828   7.747
20906TIP3   OH262594   2.724   7.953   7.561
20906TIP3    H162595   2.672   8.024   7.518
20906TIP3    H262596   2.780   7.922   7.487
20907TIP3   OH262597   2.917   8.227   8.637
20907TIP3    H162598   2.885   8.159   8.700
20907TIP3    H262599   3.010   8.236   8.665
20908TIP3   OH262600   2.882   7.982   7.800
20908TIP3    H162601   2.822   8.009   7.728
20908TIP3    H262602   2.916   7.900   7.760
20909TIP3   OH262603   2.165   8.021   8.540
20909TIP3    H162604   2.200   8.069   8.619
20909TIP3    H262605   2.158   7.931   8.576
20910TIP3   OH262606   2.218   7.487   7.239
20910TIP3    H162607   2.232   7.483   7.336
20910TIP3    H262608   2.124   7.506   7.236
20911TIP3   OH262609   1.763   7.535   8.104
20911TIP3    H162610   1.837   7.563   8.162
20911TIP3    H262611   1.806   7.493   8.029
20912TIP3   OH262612   1.736   7.512   7.623
20912TIP3    H162613   1.791   7.552   7.553
20912TIP3    H262614   1.676   7.586   7.646
20913TIP3   OH262615   2.887   8.228   8.222
20913TIP3    H162616   2.923   8.156   8.165
20913TIP3    H262617   2.864   8.175   8.302
20914TIP3   OH262618   2.559   7.697   7.897
20914TIP3    H162619   2.479   7.689   7.952
20914TIP3    H262620   2.630   7.684   7.962
20915TIP3   OH262621   1.997   7.745   7.902
20915TIP3    H162622   1.901   7.750   7.877
20915TIP3    H262623   2.019   7.652   7.884
20916TIP3   OH262624   2.266   7.743   7.594
20916TIP3    H162625   2.361   7.754   7.577
20916TIP3    H262626   2.224   7.763   7.507
20917TIP3   OH262627   3.052   7.768   8.098
20917TIP3    H162628   3.018   7.777   8.189
20917TIP3    H262629   2.989   7.703   8.061
20918TIP3   OH262630   2.105   7.772   7.370
20918TIP3    H162631   2.018   7.753   7.334
20918TIP3    H262632   2.154   7.809   7.294
20919TIP3   OH262633   2.643   8.020   7.994
20919TIP3    H162634   2.713   7.975   7.944
20919TIP3    H262635   2.650   7.976   8.081
20920TIP3   OH262636   2.166   7.505   7.870
20920TIP3    H162637   2.132   7.427   7.919
20920TIP3    H262638   2.228   7.463   7.809
20921TIP3   OH262639   2.621   7.918   8.277
20921TIP3    H162640   2.531   7.950   8.300
20921TIP3    H262641   2.679   7.972   8.334
20922TIP3   OH262642   2.354   8.305   7.372
20922TIP3    H162643   2.283   8.238   7.361
20922TIP3    H262644   2.336   8.337   7.463
20923TIP3   OH262645   3.256   8.538   8.014
20923TIP3    H162646   3.281   8.585   7.932
20923TIP3    H262647   3.171   8.496   7.989
20924TIP3   OH262648   2.814   7.618   7.240
20924TIP3    H162649   2.718   7.603   7.247
20924TIP3    H262650   2.825   7.712   7.263
20925TIP3   OH262651   2.794   8.588   8.351
20925TIP3    H162652   2.788   8.567   8.446
20925TIP3    H262653   2.716   8.642   8.339
20926TIP3   OH262654   2.885   7.865   7.343
20926TIP3    H162655   2.982   7.869   7.359
20926TIP3    H262656   2.870   7.944   7.288
20927TIP3   OH262657   2.054   8.334   8.050
20927TIP3    H162658   2.087   8.300   7.964
20927TIP3    H262659   2.087   8.267   8.112
20928TIP3   OH262660   2.503   8.455   7.198
20928TIP3    H162661   2.454   8.541   7.204
20928TIP3    H262662   2.449   8.399   7.257
20929TIP3   OH262663   2.669   8.343   8.648
20929TIP3    H162664   2.644   8.315   8.557
20929TIP3    H262665   2.764   8.318   8.647
20930TIP3   OH262666   2.962   8.874   8.277
20930TIP3    H162667   2.865   8.877   8.271
20930TIP3    H262668   2.980   8.925   8.356
20931TIP3   OH262669   3.327   7.954   7.180
20931TIP3    H162670   3.264   7.909   7.119
20931TIP3    H262671   3.326   8.042   7.137
20932TIP3   OH262672   3.545   8.817   8.258
20932TIP3    H162673   3.448   8.803   8.246
20932TIP3    H262674   3.576   8.784   8.170
20933TIP3   OH262675   3.034   8.773   7.090
20933TIP3    H162676   3.002   8.701   7.147
20933TIP3    H262677   3.045   8.729   7.004
20934TIP3   OH262678   3.022   8.405   7.926
20934TIP3    H162679   2.930   8.376   7.941
20934TIP3    H262680   3.058   8.325   7.882
20935TIP3   OH262681   1.711   7.936   7.381
20935TIP3    H162682   1.757   8.020   7.402
20935TIP3    H262683   1.635   7.941   7.444
20936TIP3   OH262684   2.286   8.396   7.616
20936TIP3    H162685   2.297   8.484   7.653
20936TIP3    H262686   2.249   8.345   7.691
20937TIP3   OH262687   2.815   8.595   8.082
20937TIP3    H162688   2.827   8.583   8.179
20937TIP3    H262689   2.899   8.564   8.047
20938TIP3   OH262690   2.782   8.501   6.991
20938TIP3    H162691   2.836   8.476   7.069
20938TIP3    H262692   2.694   8.474   7.021
20939TIP3   OH262693   3.071   9.132   8.118
20939TIP3    H162694   2.992   9.078   8.131
20939TIP3    H262695   3.046   9.186   8.041
20940TIP3   OH262696   3.120   8.975   6.807
20940TIP3    H162697   3.156   9.043   6.748
20940TIP3    H262698   3.042   9.024   6.841
20941TIP3   OH262699   2.159   7.740   8.667
20941TIP3    H162700   2.080   7.774   8.712
20941TIP3    H262701   2.189   7.675   8.732
20942TIP3   OH262702   2.941   8.439   7.210
20942TIP3    H162703   2.932   8.369   7.278
20942TIP3    H262704   3.038   8.434   7.194
20943TIP3   OH262705   2.148   8.483   6.989
20943TIP3    H162706   2.164   8.392   6.958
20943TIP3    H262707   2.127   8.468   7.083
20944TIP3   OH262708   2.095   8.488   7.263
20944TIP3    H162709   2.173   8.459   7.312
20944TIP3    H262710   2.100   8.586   7.272
20945TIP3   OH262711   1.829   8.179   7.462
20945TIP3    H162712   1.765   8.224   7.520
20945TIP3    H262713   1.845   8.249   7.396
20946TIP3   OH262714   2.976   7.818   8.358
20946TIP3    H162715   3.057   7.854   8.397
20946TIP3    H262716   2.962   7.736   8.410
20947TIP3   OH262717   2.855   7.572   7.521
20947TIP3    H162718   2.846   7.594   7.426
20947TIP3    H262719   2.897   7.653   7.557
20948TIP3   OH262720   2.356   8.682   7.211
20948TIP3    H162721   2.272   8.719   7.245
20948TIP3    H262722   2.380   8.751   7.147
20949TIP3   OH262723   2.545   7.750   7.624
20949TIP3    H162724   2.613   7.819   7.607
20949TIP3    H262725   2.552   7.740   7.722
20950TIP3   OH262726   2.818   8.066   8.429
20950TIP3    H162727   2.844   8.115   8.509
20950TIP3    H262728   2.869   7.983   8.439
20951TIP3   OH262729   2.692   7.477   7.726
20951TIP3    H162730   2.696   7.549   7.791
20951TIP3    H262731   2.752   7.512   7.656
20952TIP3   OH262732   2.098   8.769   7.280
20952TIP3    H162733   2.070   8.813   7.196
20952TIP3    H262734   2.094   8.846   7.338
20953TIP3   OH262735   2.206   7.473   7.513
20953TIP3    H162736   2.205   7.561   7.556
20953TIP3    H262737   2.301   7.451   7.526
20954TIP3   OH262738   3.458   7.969   8.409
20954TIP3    H162739   3.361   7.968   8.419
20954TIP3    H262740   3.467   7.918   8.327
20955TIP3   OH262741   3.108   8.163   7.801
20955TIP3    H162742   3.033   8.102   7.812
20955TIP3    H262743   3.180   8.116   7.847
20956TIP3   OH262744   1.819   8.390   7.269
20956TIP3    H162745   1.884   8.462   7.278
20956TIP3    H262746   1.865   8.336   7.202
20957TIP3   OH262747   1.772   7.668   7.380
20957TIP3    H162748   1.761   7.764   7.391
20957TIP3    H262749   1.680   7.638   7.380
20958TIP3   OH262750   3.092   9.088   7.721
20958TIP3    H162751   3.035   9.139   7.660
20958TIP3    H262752   3.179   9.131   7.705
20959TIP3   OH262753   2.153   7.385   8.278
20959TIP3    H162754   2.121   7.349   8.192
20959TIP3    H262755   2.144   7.308   8.337
20960TIP3   OH262756   1.708   8.610   7.657
20960TIP3    H162757   1.650   8.646   7.724
20960TIP3    H262758   1.673   8.655   7.577
20961TIP3   OH262759   2.314   8.686   6.903
20961TIP3    H162760   2.258   8.613   6.939
20961TIP3    H262761   2.388   8.636   6.865
20962TIP3   OH262762   2.748   8.727   6.813
20962TIP3    H162763   2.794   8.663   6.869
20962TIP3    H262764   2.802   8.727   6.731
20963TIP3   OH262765   1.955   8.202   7.122
20963TIP3    H162766   2.011   8.171   7.196
20963TIP3    H262767   2.022   8.207   7.051
20964TIP3   OH262768   2.462   8.399   6.929
20964TIP3    H162769   2.468   8.413   7.026
20964TIP3    H262770   2.464   8.301   6.925
20965TIP3   OH262771   3.092   8.630   8.302
20965TIP3    H162772   3.160   8.686   8.260
20965TIP3    H262773   3.015   8.689   8.296
20966TIP3   OH262774   2.163   8.105   7.344
20966TIP3    H162775   2.141   8.065   7.429
20966TIP3    H262776   2.202   8.029   7.295
20967TIP3   OH262777   2.439   8.146   8.548
20967TIP3    H162778   2.384   8.203   8.604
20967TIP3    H262779   2.486   8.209   8.489
20968TIP3   OH262780   2.262   7.897   7.184
20968TIP3    H162781   2.241   7.903   7.088
20968TIP3    H262782   2.360   7.902   7.181
20969TIP3   OH262783   2.974   8.588   8.698
20969TIP3    H162784   3.036   8.543   8.640
20969TIP3    H262785   2.955   8.518   8.764
20970TIP3   OH262786   3.085   8.231   6.849
20970TIP3    H162787   3.068   8.184   6.765
20970TIP3    H262788   3.054   8.321   6.823
20971TIP3   OH262789   2.578   7.946   8.667
20971TIP3    H162790   2.574   7.865   8.611
20971TIP3    H262791   2.529   8.011   8.612
20972TIP3   OH262792   2.560   7.736   8.493
20972TIP3    H162793   2.585   7.775   8.407
20972TIP3    H262794   2.465   7.714   8.479
20973TIP3   OH262795   2.595   8.294   8.381
20973TIP3    H162796   2.673   8.280   8.324
20973TIP3    H262797   2.539   8.352   8.327
20974TIP3   OH262798   3.175   8.243   8.762
20974TIP3    H162799   3.220   8.157   8.767
20974TIP3    H262800   3.247   8.300   8.731
20975TIP3   OH262801   3.212   8.495   8.495
20975TIP3    H162802   3.154   8.545   8.433
20975TIP3    H262803   3.298   8.513   8.452
20976TIP3   OH262804   2.465   8.031   8.896
20976TIP3    H162805   2.380   7.984   8.897
20976TIP3    H262806   2.500   8.001   8.809
20977TIP3   OH262807   2.693   7.506   8.569
20977TIP3    H162808   2.642   7.587   8.547
20977TIP3    H262809   2.623   7.437   8.561
20978TIP3   OH262810   2.817   8.023   8.781
20978TIP3    H162811   2.813   8.003   8.877
20978TIP3    H262812   2.730   7.989   8.751
20979TIP3   OH262813   3.058   7.960   8.645
20979TIP3    H162814   2.984   7.964   8.708
20979TIP3    H262815   3.131   7.927   8.702
20980TIP3   OH262816   3.291   7.899   8.789
20980TIP3    H162817   3.301   7.802   8.803
20980TIP3    H262818   3.285   7.931   8.881
20981TIP3   OH262819   2.268   7.838   8.941
20981TIP3    H162820   2.282   7.745   8.916
20981TIP3    H262821   2.271   7.831   9.038
20982TIP3   OH262822   2.783   7.517   8.827
20982TIP3    H162823   2.852   7.447   8.825
20982TIP3    H262824   2.746   7.507   8.737
20983TIP3   OH262825   2.861   7.727   8.982
20983TIP3    H162826   2.829   7.656   8.921
20983TIP3    H262827   2.785   7.788   8.986
20984TIP3   OH262828   2.070   8.950   7.081
20984TIP3    H162829   2.166   8.960   7.067
20984TIP3    H262830   2.037   9.008   7.010
20985TIP3   OH262831   1.551   8.345   7.307
20985TIP3    H162832   1.646   8.368   7.294
20985TIP3    H262833   1.548   8.256   7.265
20986TIP3   OH262834   3.343   9.193   7.686
20986TIP3    H162835   3.345   9.213   7.784
20986TIP3    H262836   3.379   9.278   7.655
20987TIP3   OH262837   3.371   9.214   7.959
20987TIP3    H162838   3.325   9.130   7.978
20987TIP3    H262839   3.438   9.216   8.028
20988TIP3   OH262840   7.176   1.364   1.031
20988TIP3    H162841   7.080   1.358   1.043
20988TIP3    H262842   7.190   1.454   1.002
20989TIP3   OH262843   3.218   8.419   7.183
20989TIP3    H162844   3.288   8.479   7.150
20989TIP3    H262845   3.263   8.379   7.260
20990TIP3   OH262846   3.348   8.289   7.386
20990TIP3    H162847   3.284   8.243   7.445
20990TIP3    H262848   3.416   8.321   7.448
20991TIP3   OH262849   3.405   8.672   7.826
20991TIP3    H162850   3.460   8.608   7.776
20991TIP3    H262851   3.366   8.726   7.758
20992TIP3   OH262852   3.244   8.965   8.001
20992TIP3    H162853   3.182   9.018   8.056
20992TIP3    H262854   3.181   8.921   7.940
20993TIP3   OH262855   3.286   8.193   7.034
20993TIP3    H162856   3.216   8.195   6.965
20993TIP3    H262857   3.258   8.270   7.087
20994TIP3   OH262858   3.154   7.868   6.990
20994TIP3    H162859   3.121   7.905   6.907
20994TIP3    H262860   3.130   7.773   6.979
20995TIP3   OH262861   3.163   8.141   7.531
20995TIP3    H162862   3.173   8.045   7.525
20995TIP3    H262863   3.150   8.154   7.628
20996TIP3   OH262864   1.798   8.213   8.278
20996TIP3    H162865   1.791   8.190   8.184
20996TIP3    H262866   1.895   8.216   8.291
20997TIP3   OH262867   3.452   8.566   8.382
20997TIP3    H162868   3.523   8.497   8.378
20997TIP3    H262869   3.481   8.628   8.314
20998TIP3   OH262870   3.638   8.374   8.411
20998TIP3    H162871   3.563   8.320   8.445
20998TIP3    H262872   3.712   8.310   8.422
20999TIP3   OH262873   3.101   7.602   6.975
20999TIP3    H162874   3.178   7.570   7.027
20999TIP3    H262875   3.031   7.539   6.998
21000TIP3   OH262876   3.159   7.857   7.426
21000TIP3    H162877   3.200   7.769   7.442
21000TIP3    H262878   3.218   7.889   7.355
21001TIP3   OH262879   3.321   8.035   7.920
21001TIP3    H162880   3.407   8.060   7.881
21001TIP3    H262881   3.335   8.068   8.011
21002TIP3   OH262882   3.389   8.175   8.154
21002TIP3    H162883   3.311   8.209   8.202
21002TIP3    H262884   3.422   8.256   8.109
21003TIP3   OH262885   2.006   7.842   8.873
21003TIP3    H162886   2.098   7.868   8.898
21003TIP3    H262887   1.984   7.782   8.947
21004TIP3   OH262888   3.839   7.764   8.708
21004TIP3    H162889   3.900   7.699   8.668
21004TIP3    H262890   3.816   7.821   8.632
21005TIP3   OH262891   3.267   7.608   7.464
21005TIP3    H162892   3.316   7.591   7.548
21005TIP3    H262893   3.208   7.530   7.463
21006TIP3   OH262894   1.967   7.592   8.278
21006TIP3    H162895   2.029   7.517   8.293
21006TIP3    H262896   2.029   7.667   8.280
21007TIP3   OH262897   1.781   7.859   8.365
21007TIP3    H162898   1.830   7.863   8.280
21007TIP3    H262899   1.772   7.952   8.389
21008TIP3   OH262900   3.714   7.909   8.512
21008TIP3    H162901   3.627   7.945   8.535
21008TIP3    H262902   3.687   7.834   8.457
21009TIP3   OH262903   3.350   7.543   7.096
21009TIP3    H162904   3.389   7.470   7.043
21009TIP3    H262905   3.418   7.613   7.087
21010TIP3   OH262906   1.754   7.373   7.856
21010TIP3    H162907   1.661   7.368   7.886
21010TIP3    H262908   1.747   7.431   7.777
21011TIP3   OH262909   2.919   9.076   7.368
21011TIP3    H162910   2.962   9.060   7.282
21011TIP3    H262911   2.969   9.151   7.403
21012TIP3   OH262912   1.977   7.449   8.666
21012TIP3    H162913   1.925   7.445   8.748
21012TIP3    H262914   1.910   7.482   8.603
21013TIP3   OH262915   3.612   7.668   8.393
21013TIP3    H162916   3.520   7.658   8.363
21013TIP3    H262917   3.645   7.576   8.383
21014TIP3   OH262918   3.032   9.302   7.889
21014TIP3    H162919   2.968   9.342   7.828
21014TIP3    H262920   3.045   9.216   7.844
21015TIP3   OH262921   2.172   8.842   7.858
21015TIP3    H162922   2.241   8.775   7.891
21015TIP3    H262923   2.155   8.884   7.949
21016TIP3   OH262924   2.809   7.581   8.003
21016TIP3    H162925   2.771   7.513   8.062
21016TIP3    H262926   2.887   7.535   7.967
21017TIP3   OH262927   3.340   7.466   7.917
21017TIP3    H162928   3.376   7.517   7.841
21017TIP3    H262929   3.244   7.482   7.910
21018TIP3   OH262930   3.435   7.566   7.680
21018TIP3    H162931   3.508   7.514   7.641
21018TIP3    H262932   3.468   7.658   7.666
21019TIP3   OH262933   2.065   7.293   8.027
21019TIP3    H162934   1.973   7.258   8.031
21019TIP3    H262935   2.115   7.209   8.026
21020TIP3   OH262936   1.842   7.164   7.676
21020TIP3    H162937   1.878   7.222   7.608
21020TIP3    H262938   1.819   7.227   7.748
21021TIP3   OH262939   2.503   7.332   7.908
21021TIP3    H162940   2.567   7.377   7.851
21021TIP3    H262941   2.532   7.360   7.996
21022TIP3   OH262942   3.055   7.472   7.893
21022TIP3    H162943   3.056   7.432   7.805
21022TIP3    H262944   3.043   7.392   7.950
21023TIP3   OH262945   3.085   7.393   7.455
21023TIP3    H162946   2.997   7.432   7.465
21023TIP3    H262947   3.073   7.308   7.503
21024TIP3   OH262948   1.570   8.730   7.458
21024TIP3    H162949   1.486   8.694   7.425
21024TIP3    H262950   1.560   8.823   7.432
21025TIP3   OH262951   1.971   7.337   7.424
21025TIP3    H162952   2.016   7.261   7.382
21025TIP3    H262953   2.046   7.379   7.471
21026TIP3   OH262954   2.482   7.498   7.537
21026TIP3    H162955   2.539   7.449   7.598
21026TIP3    H262956   2.505   7.590   7.565
21027TIP3   OH262957   2.343   8.923   7.039
21027TIP3    H162958   2.431   8.946   7.002
21027TIP3    H262959   2.319   8.849   6.979
21028TIP3   OH262960   3.059   9.040   7.132
21028TIP3    H162961   3.053   8.943   7.119
21028TIP3    H262962   3.014   9.072   7.051
21029TIP3   OH262963   2.276   7.560   8.911
21029TIP3    H162964   2.238   7.496   8.973
21029TIP3    H262965   2.369   7.561   8.942
21030TIP3   OH262966   2.522   7.561   9.033
21030TIP3    H162967   2.609   7.540   8.994
21030TIP3    H262968   2.513   7.488   9.097
21031TIP3   OH262969   1.643   8.753   7.093
21031TIP3    H162970   1.642   8.791   7.182
21031TIP3    H262971   1.733   8.715   7.086
21032TIP3   OH262972   3.347   7.631   8.826
21032TIP3    H162973   3.365   7.600   8.917
21032TIP3    H262974   3.436   7.625   8.785
21033TIP3   OH262975   4.552   8.556   7.086
21033TIP3    H162976   4.524   8.648   7.066
21033TIP3    H262977   4.476   8.507   7.049
21034TIP3   OH262978   4.549   8.558   7.466
21034TIP3    H162979   4.581   8.528   7.553
21034TIP3    H262980   4.509   8.477   7.431
21035TIP3   OH262981   3.848   8.454   7.835
21035TIP3    H162982   3.879   8.385   7.896
21035TIP3    H262983   3.929   8.504   7.821
21036TIP3   OH262984   4.793   8.859   7.147
21036TIP3    H162985   4.781   8.789   7.213
21036TIP3    H262986   4.824   8.933   7.202
21037TIP3   OH262987   3.821   8.859   7.550
21037TIP3    H162988   3.815   8.761   7.555
21037TIP3    H262989   3.918   8.869   7.548
21038TIP3   OH262990   3.527   8.065   7.345
21038TIP3    H162991   3.479   8.150   7.352
21038TIP3    H262992   3.458   8.010   7.304
21039TIP3   OH262993   3.589   8.353   7.510
21039TIP3    H162994   3.637   8.275   7.548
21039TIP3    H262995   3.646   8.375   7.435
21040TIP3   OH262996   4.444   9.320   7.166
21040TIP3    H162997   4.487   9.252   7.111
21040TIP3    H262998   4.445   9.277   7.252
21041TIP3   OH262999   4.350   8.784   7.514
21041TIP3    H163000   4.387   8.706   7.468
21041TIP3    H263001   4.434   8.828   7.538
21042TIP3   OH263002   5.360   8.104   7.511
21042TIP3    H163003   5.391   8.185   7.556
21042TIP3    H263004   5.384   8.124   7.419
21043TIP3   OH263005   4.760   8.286   7.547
21043TIP3    H163006   4.804   8.201   7.569
21043TIP3    H263007   4.732   8.269   7.455
21044TIP3   OH263008   4.097   7.945   7.514
21044TIP3    H163009   4.078   8.017   7.450
21044TIP3    H263010   4.054   7.870   7.468
21045TIP3   OH263011   4.793   8.031   7.135
21045TIP3    H163012   4.865   8.017   7.200
21045TIP3    H263013   4.844   8.069   7.060
21046TIP3   OH263014   3.733   8.147   7.619
21046TIP3    H163015   3.816   8.127   7.666
21046TIP3    H263016   3.746   8.091   7.539
21047TIP3   OH263017   4.174   8.343   7.414
21047TIP3    H163018   4.268   8.318   7.425
21047TIP3    H263019   4.135   8.260   7.379
21048TIP3   OH263020   5.435   8.309   7.681
21048TIP3    H163021   5.352   8.358   7.664
21048TIP3    H263022   5.451   8.334   7.774
21049TIP3   OH263023   4.097   7.927   7.945
21049TIP3    H163024   4.036   7.964   7.879
21049TIP3    H263025   4.046   7.943   8.027
21050TIP3   OH263026   4.444   8.777   6.955
21050TIP3    H163027   4.402   8.755   6.871
21050TIP3    H263028   4.398   8.861   6.978
21051TIP3   OH263029   4.203   8.702   7.742
21051TIP3    H163030   4.140   8.768   7.779
21051TIP3    H263031   4.246   8.754   7.671
21052TIP3   OH263032   5.004   8.036   7.306
21052TIP3    H163033   4.996   7.992   7.392
21052TIP3    H263034   5.059   8.113   7.330
21053TIP3   OH263035   3.965   8.043   7.732
21053TIP3    H163036   4.028   8.115   7.756
21053TIP3    H263037   4.014   8.002   7.657
21054TIP3   OH263038   4.028   8.895   7.839
21054TIP3    H163039   4.003   8.982   7.802
21054TIP3    H263040   3.950   8.880   7.896
21055TIP3   OH263041   3.420   8.581   7.070
21055TIP3    H163042   3.385   8.597   6.980
21055TIP3    H263043   3.441   8.670   7.102
21056TIP3   OH263044   4.863   9.101   7.316
21056TIP3    H163045   4.773   9.093   7.354
21056TIP3    H263046   4.857   9.187   7.270
21057TIP3   OH263047   5.155   8.002   7.676
21057TIP3    H163048   5.069   8.036   7.648
21057TIP3    H263049   5.215   8.036   7.606
21058TIP3   OH263050   4.462   7.649   7.665
21058TIP3    H163051   4.445   7.555   7.681
21058TIP3    H263052   4.379   7.688   7.702
21059TIP3   OH263053   4.564   9.150   6.987
21059TIP3    H163054   4.614   9.067   6.969
21059TIP3    H263055   4.627   9.215   6.947
21060TIP3   OH263056   4.708   8.935   6.896
21060TIP3    H163057   4.673   8.855   6.854
21060TIP3    H263058   4.744   8.899   6.980
21061TIP3   OH263059   5.091   9.016   7.659
21061TIP3    H163060   5.081   8.938   7.600
21061TIP3    H263061   5.076   9.090   7.596
21062TIP3   OH263062   4.384   8.410   6.916
21062TIP3    H163063   4.302   8.458   6.894
21062TIP3    H263064   4.427   8.404   6.829
21063TIP3   OH263065   4.348   8.197   6.634
21063TIP3    H163066   4.418   8.248   6.678
21063TIP3    H263067   4.401   8.131   6.586
21064TIP3   OH263068   5.286   8.650   7.502
21064TIP3    H163069   5.204   8.704   7.508
21064TIP3    H263070   5.316   8.675   7.412
21065TIP3   OH263071   4.730   8.492   6.888
21065TIP3    H163072   4.675   8.516   6.966
21065TIP3    H263073   4.814   8.466   6.932
21066TIP3   OH263074   4.965   8.531   7.799
21066TIP3    H163075   4.964   8.613   7.851
21066TIP3    H263076   4.879   8.537   7.753
21067TIP3   OH263077   3.963   8.494   7.307
21067TIP3    H163078   3.914   8.435   7.245
21067TIP3    H263079   4.038   8.437   7.333
21068TIP3   OH263080   4.092   8.901   7.454
21068TIP3    H163081   4.072   8.860   7.369
21068TIP3    H263082   4.182   8.867   7.472
21069TIP3   OH263083   4.094   8.461   7.659
21069TIP3    H163084   4.129   8.438   7.570
21069TIP3    H263085   4.141   8.545   7.678
21070TIP3   OH263086   4.620   9.097   7.434
21070TIP3    H163087   4.613   9.176   7.491
21070TIP3    H263088   4.609   9.023   7.498
21071TIP3   OH263089   4.236   9.021   7.978
21071TIP3    H163090   4.177   9.080   8.029
21071TIP3    H263091   4.170   8.964   7.933
21072TIP3   OH263092   4.575   8.348   6.714
21072TIP3    H163093   4.631   8.409   6.766
21072TIP3    H263094   4.600   8.373   6.621
21073TIP3   OH263095   3.991   8.577   8.082
21073TIP3    H163096   3.995   8.662   8.130
21073TIP3    H263097   3.896   8.556   8.091
21074TIP3   OH263098   4.310   9.032   6.995
21074TIP3    H163099   4.392   9.083   7.006
21074TIP3    H263100   4.254   9.092   6.945
21075TIP3   OH263101   4.029   9.189   8.071
21075TIP3    H163102   3.995   9.183   7.980
21075TIP3    H263103   3.953   9.160   8.125
21076TIP3   OH263104   5.087   7.591   6.761
21076TIP3    H163105   5.006   7.612   6.812
21076TIP3    H263106   5.101   7.674   6.711
21077TIP3   OH263107   3.815   8.335   7.134
21077TIP3    H163108   3.764   8.376   7.061
21077TIP3    H263109   3.798   8.242   7.116
21078TIP3   OH263110   4.885   8.958   6.310
21078TIP3    H163111   4.894   9.055   6.295
21078TIP3    H263112   4.978   8.929   6.297
21079TIP3   OH263113   3.612   8.715   8.018
21079TIP3    H163114   3.547   8.689   7.950
21079TIP3    H263115   3.650   8.629   8.046
21080TIP3   OH263116   5.328   9.359   7.702
21080TIP3    H163117   5.329   9.263   7.718
21080TIP3    H263118   5.245   9.384   7.748
21081TIP3   OH263119   4.432   9.150   7.836
21081TIP3    H163120   4.433   9.241   7.871
21081TIP3    H263121   4.363   9.108   7.892
21082TIP3   OH263122   4.194   9.273   6.792
21082TIP3    H163123   4.149   9.253   6.708
21082TIP3    H263124   4.163   9.364   6.811
21083TIP3   OH263125   3.631   9.130   7.175
21083TIP3    H163126   3.688   9.114   7.253
21083TIP3    H263127   3.575   9.051   7.176
21084TIP3   OH263128   4.396   9.176   6.431
21084TIP3    H163129   4.455   9.107   6.394
21084TIP3    H263130   4.431   9.185   6.522
21085TIP3   OH263131   4.446   9.224   6.702
21085TIP3    H163132   4.358   9.232   6.744
21085TIP3    H263133   4.497   9.182   6.773
21086TIP3   OH263134   5.219   8.492   7.979
21086TIP3    H163135   5.138   8.503   7.928
21086TIP3    H263136   5.235   8.395   7.969
21087TIP3   OH263137   3.813   8.902   8.009
21087TIP3    H163138   3.867   8.882   8.089
21087TIP3    H263139   3.743   8.834   8.014
21088TIP3   OH263140   4.213   7.722   7.786
21088TIP3    H163141   4.123   7.693   7.762
21088TIP3    H263142   4.190   7.804   7.834
21089TIP3   OH263143   4.748   7.837   7.983
21089TIP3    H163144   4.817   7.810   8.047
21089TIP3    H263145   4.665   7.817   8.030
21090TIP3   OH263146   4.986   8.266   7.900
21090TIP3    H163147   4.938   8.262   7.986
21090TIP3    H263148   4.963   8.355   7.867
21091TIP3   OH263149   4.648   8.397   6.458
21091TIP3    H163150   4.613   8.371   6.371
21091TIP3    H263151   4.728   8.446   6.432
21092TIP3   OH263152   4.369   7.769   6.753
21092TIP3    H163153   4.318   7.801   6.828
21092TIP3    H263154   4.320   7.689   6.726
21093TIP3   OH263155   4.145   8.238   7.807
21093TIP3    H163156   4.098   8.261   7.889
21093TIP3    H263157   4.129   8.319   7.753
21094TIP3   OH263158   4.031   8.123   7.319
21094TIP3    H163159   3.937   8.100   7.335
21094TIP3    H263160   4.044   8.082   7.230
21095TIP3   OH263161   4.519   8.207   7.048
21095TIP3    H163162   4.466   8.279   7.007
21095TIP3    H263163   4.574   8.179   6.972
21096TIP3   OH263164   4.694   8.489   8.135
21096TIP3    H163165   4.673   8.416   8.197
21096TIP3    H263166   4.787   8.505   8.158
21097TIP3   OH263167   4.678   8.238   7.288
21097TIP3    H163168   4.618   8.269   7.217
21097TIP3    H263169   4.709   8.156   7.245
21098TIP3   OH263170   3.961   8.267   8.017
21098TIP3    H163171   4.001   8.326   8.083
21098TIP3    H263172   3.952   8.184   8.067
21099TIP3   OH263173   4.012   7.747   6.734
21099TIP3    H163174   3.976   7.747   6.825
21099TIP3    H263175   3.944   7.803   6.691
21100TIP3   OH263176   3.557   7.791   7.597
21100TIP3    H163177   3.634   7.821   7.649
21100TIP3    H263178   3.596   7.756   7.515
21101TIP3   OH263179   3.534   7.771   7.119
21101TIP3    H163180   3.575   7.809   7.038
21101TIP3    H263181   3.471   7.843   7.139
21102TIP3   OH263182   4.685   8.485   7.711
21102TIP3    H163183   4.719   8.413   7.653
21102TIP3    H263184   4.659   8.433   7.790
21103TIP3   OH263185   4.349   7.944   7.383
21103TIP3    H163186   4.270   7.945   7.440
21103TIP3    H263187   4.421   7.940   7.449
21104TIP3   OH263188   3.789   8.003   7.392
21104TIP3    H163189   3.695   8.013   7.365
21104TIP3    H263190   3.808   7.910   7.370
21105TIP3   OH263191   4.066   7.991   7.077
21105TIP3    H163192   4.160   8.010   7.058
21105TIP3    H263193   4.020   8.021   6.996
21106TIP3   OH263194   4.850   8.024   7.583
21106TIP3    H163195   4.817   8.035   7.675
21106TIP3    H263196   4.785   7.962   7.547
21107TIP3   OH263197   3.902   8.016   6.861
21107TIP3    H163198   3.832   7.984   6.802
21107TIP3    H263199   3.956   8.066   6.796
21108TIP3   OH263200   5.015   9.711   7.801
21108TIP3    H163201   5.017   9.732   7.706
21108TIP3    H263202   5.101   9.749   7.830
21109TIP3   OH263203   3.979   8.823   8.225
21109TIP3    H163204   4.059   8.851   8.273
21109TIP3    H263205   3.916   8.817   8.300
21110TIP3   OH263206   4.440   8.273   7.479
21110TIP3    H163207   4.515   8.236   7.430
21110TIP3    H263208   4.450   8.232   7.567
21111TIP3   OH263209   3.971   7.756   7.356
21111TIP3    H163210   3.930   7.681   7.404
21111TIP3    H263211   3.971   7.727   7.264
21112TIP3   OH263212   4.418   8.170   7.770
21112TIP3    H163213   4.328   8.207   7.784
21112TIP3    H263214   4.476   8.230   7.821
21113TIP3   OH263215   4.153   8.560   6.863
21113TIP3    H163216   4.072   8.510   6.841
21113TIP3    H263217   4.132   8.593   6.954
21114TIP3   OH263218   5.055   8.798   7.495
21114TIP3    H163219   5.079   8.847   7.413
21114TIP3    H263220   4.969   8.757   7.469
21115TIP3   OH263221   4.621   7.873   6.729
21115TIP3    H163222   4.523   7.857   6.729
21115TIP3    H263223   4.628   7.969   6.749
21116TIP3   OH263224   4.550   8.877   7.862
21116TIP3    H163225   4.581   8.854   7.951
21116TIP3    H263226   4.516   8.967   7.874
21117TIP3   OH263227   4.683   8.121   6.830
21117TIP3    H163228   4.779   8.129   6.846
21117TIP3    H263229   4.663   8.202   6.778
21118TIP3   OH263230   3.843   8.584   7.541
21118TIP3    H163231   3.882   8.556   7.455
21118TIP3    H263232   3.887   8.522   7.602
21119TIP3   OH263233   4.301   8.712   6.688
21119TIP3    H163234   4.252   8.798   6.694
21119TIP3    H263235   4.246   8.655   6.746
21120TIP3   OH263236   3.723   8.509   8.159
21120TIP3    H163237   3.751   8.490   8.250
21120TIP3    H263238   3.661   8.436   8.141
21121TIP3   OH263239   4.453   8.619   8.173
21121TIP3    H163240   4.396   8.558   8.123
21121TIP3    H263241   4.542   8.586   8.148
21122TIP3   OH263242   4.713   9.141   7.758
21122TIP3    H163243   4.616   9.140   7.769
21122TIP3    H263244   4.740   9.193   7.836
21123TIP3   OH263245   5.124   8.210   6.666
21123TIP3    H163246   5.062   8.166   6.604
21123TIP3    H263247   5.121   8.300   6.626
21124TIP3   OH263248   5.342   9.067   7.748
21124TIP3    H163249   5.244   9.063   7.740
21124TIP3    H263250   5.367   9.038   7.658
21125TIP3   OH263251   4.823   9.030   6.574
21125TIP3    H163252   4.799   8.958   6.635
21125TIP3    H263253   4.835   8.984   6.489
21126TIP3   OH263254   4.819   8.660   7.414
21126TIP3    H163255   4.726   8.634   7.426
21126TIP3    H263256   4.854   8.581   7.368
21127TIP3   OH263257   3.950   8.891   7.174
21127TIP3    H163258   3.957   8.968   7.114
21127TIP3    H263259   3.859   8.863   7.157
21128TIP3   OH263260   3.509   8.189   6.866
21128TIP3    H163261   3.561   8.269   6.884
21128TIP3    H263262   3.435   8.199   6.930
21129TIP3   OH263263   4.085   8.653   7.110
21129TIP3    H163264   4.055   8.743   7.131
21129TIP3    H263265   4.050   8.602   7.185
21130TIP3   OH263266   4.216   9.233   7.638
21130TIP3    H163267   4.264   9.296   7.581
21130TIP3    H263268   4.290   9.193   7.687
21131TIP3   OH263269   3.867   9.129   7.021
21131TIP3    H163270   3.780   9.143   7.063
21131TIP3    H263271   3.903   9.220   7.021
21132TIP3   OH263272   4.605   8.866   7.593
21132TIP3    H163273   4.596   8.862   7.691
21132TIP3    H263274   4.685   8.813   7.580
21133TIP3   OH263275   4.578   8.758   6.475
21133TIP3    H163276   4.629   8.733   6.556
21133TIP3    H263277   4.489   8.730   6.503
21134TIP3   OH263278   4.852   9.401   7.646
21134TIP3    H163279   4.774   9.343   7.638
21134TIP3    H263280   4.837   9.464   7.572
21135TIP3   OH263281   4.919   9.233   6.296
21135TIP3    H163282   4.958   9.306   6.245
21135TIP3    H263283   4.838   9.279   6.328
21136TIP3   OH263284   3.939   8.010   8.162
21136TIP3    H163285   3.843   8.013   8.177
21136TIP3    H263286   3.969   7.951   8.233
21137TIP3   OH263287   4.738   8.694   6.694
21137TIP3    H163288   4.728   8.627   6.764
21137TIP3    H263289   4.835   8.690   6.681
21138TIP3   OH263290   3.655   9.091   7.788
21138TIP3    H163291   3.708   9.020   7.828
21138TIP3    H263292   3.678   9.166   7.845
21139TIP3   OH263293   3.942   8.738   6.492
21139TIP3    H163294   3.942   8.655   6.441
21139TIP3    H263295   3.903   8.704   6.574
21140TIP3   OH263296   3.866   8.769   6.787
21140TIP3    H163297   3.952   8.723   6.792
21140TIP3    H263298   3.893   8.862   6.770
21141TIP3   OH263299   3.631   8.426   6.950
21141TIP3    H163300   3.567   8.488   6.991
21141TIP3    H263301   3.663   8.476   6.873
21142TIP3   OH263302   4.775   8.072   7.841
21142TIP3    H163303   4.853   8.113   7.882
21142TIP3    H263304   4.761   7.992   7.897
21143TIP3   OH263305   4.653   7.824   7.007
21143TIP3    H163306   4.642   7.848   6.913
21143TIP3    H263307   4.694   7.905   7.043
21144TIP3   OH263308   4.158   8.941   6.700
21144TIP3    H163309   4.072   8.975   6.734
21144TIP3    H263310   4.173   9.004   6.627
21145TIP3   OH263311   4.343   7.998   7.102
21145TIP3    H163312   4.408   8.070   7.086
21145TIP3    H263313   4.347   7.989   7.199
21146TIP3   OH263314   4.614   8.324   7.919
21146TIP3    H163315   4.634   8.378   7.998
21146TIP3    H263316   4.669   8.245   7.934
21147TIP3   OH263317   4.479   7.755   7.211
21147TIP3    H163318   4.488   7.819   7.284
21147TIP3    H263319   4.539   7.795   7.143
21148TIP3   OH263320   3.910   9.035   6.763
21148TIP3    H163321   3.874   9.101   6.700
21148TIP3    H263322   3.888   9.075   6.850
21149TIP3   OH263323   3.993   7.731   7.020
21149TIP3    H163324   3.991   7.826   7.042
21149TIP3    H263325   4.083   7.721   6.987
21150TIP3   OH263326   5.253   8.225   7.898
21150TIP3    H163327   5.155   8.222   7.905
21150TIP3    H263328   5.265   8.182   7.812
21151TIP3   OH263329   4.905   8.419   7.287
21151TIP3    H163330   4.830   8.358   7.300
21151TIP3    H263331   4.977   8.373   7.334
21152TIP3   OH263332   3.612   8.665   6.760
21152TIP3    H163333   3.690   8.723   6.772
21152TIP3    H263334   3.659   8.597   6.705
21153TIP3   OH263335   3.558   7.920   6.894
21153TIP3    H163336   3.564   8.017   6.886
21153TIP3    H263337   3.481   7.901   6.838
21154TIP3   OH263338   4.873   9.373   7.237
21154TIP3    H163339   4.831   9.421   7.162
21154TIP3    H263340   4.967   9.392   7.217
21155TIP3   OH263341   3.948   7.642   7.763
21155TIP3    H163342   3.916   7.606   7.678
21155TIP3    H263343   3.939   7.564   7.822
21156TIP3   OH263344   3.472   8.901   7.183
21156TIP3    H163345   3.390   8.921   7.133
21156TIP3    H263346   3.529   8.878   7.109
21157TIP3   OH263347   3.672   9.367   8.215
21157TIP3    H163348   3.766   9.351   8.236
21157TIP3    H263349   3.647   9.278   8.185
21158TIP3   OH263350   4.160   9.380   8.228
21158TIP3    H163351   4.238   9.327   8.252
21158TIP3    H263352   4.111   9.315   8.174
21159TIP3   OH263353   4.108   8.941   6.394
21159TIP3    H163354   4.052   8.870   6.434
21159TIP3    H263355   4.181   8.887   6.358
21160TIP3   OH263356   4.761   9.275   7.996
21160TIP3    H163357   4.755   9.202   8.062
21160TIP3    H263358   4.844   9.320   8.022
21161TIP3   OH263359   4.545   8.985   6.300
21161TIP3    H163360   4.589   8.920   6.358
21161TIP3    H263361   4.601   8.984   6.220
21162TIP3   OH263362   3.776   8.796   8.410
21162TIP3    H163363   3.796   8.700   8.413
21162TIP3    H263364   3.688   8.798   8.368
21163TIP3   OH263365   4.383   8.893   8.189
21163TIP3    H163366   4.344   8.905   8.101
21163TIP3    H263367   4.417   8.801   8.186
21164TIP3   OH263368   4.263   8.660   6.416
21164TIP3    H163369   4.261   8.670   6.513
21164TIP3    H263370   4.264   8.562   6.409
21165TIP3   OH263371   4.875   8.901   7.794
21165TIP3    H163372   4.951   8.945   7.751
21165TIP3    H263373   4.806   8.968   7.781
21166TIP3   OH263374   3.897   8.538   8.394
21166TIP3    H163375   3.972   8.481   8.374
21166TIP3    H263376   3.923   8.572   8.483
21167TIP3   OH263377   4.225   8.423   8.055
21167TIP3    H163378   4.152   8.488   8.061
21167TIP3    H263379   4.278   8.458   7.980
21168TIP3   OH263380   4.067   8.122   6.677
21168TIP3    H163381   4.026   8.144   6.591
21168TIP3    H263382   4.155   8.162   6.667
21169TIP3   OH263383   4.745   8.827   8.191
21169TIP3    H163384   4.830   8.806   8.150
21169TIP3    H263385   4.742   8.765   8.265
21170TIP3   OH263386   4.885   8.488   6.334
21170TIP3    H163387   4.862   8.441   6.251
21170TIP3    H263388   4.852   8.578   6.310
21171TIP3   OH263389   4.351   8.215   8.188
21171TIP3    H163390   4.354   8.134   8.133
21171TIP3    H263391   4.308   8.279   8.128
21172TIP3   OH263392   4.355   8.002   7.993
21172TIP3    H163393   4.383   8.042   7.908
21172TIP3    H263394   4.262   7.979   7.974
21173TIP3   OH263395   4.382   8.535   7.865
21173TIP3    H163396   4.467   8.543   7.819
21173TIP3    H263397   4.329   8.604   7.821
21174TIP3   OH263398   4.965   8.504   8.247
21174TIP3    H163399   5.013   8.420   8.261
21174TIP3    H263400   5.036   8.562   8.216
21175TIP3   OH263401   5.007   8.756   7.981
21175TIP3    H163402   4.948   8.810   7.923
21175TIP3    H263403   5.094   8.777   7.941
21176TIP3   OH263404   4.220   8.332   8.410
21176TIP3    H163405   4.158   8.259   8.428
21176TIP3    H263406   4.263   8.302   8.327
21177TIP3   OH263407   4.488   7.765   8.058
21177TIP3    H163408   4.438   7.847   8.037
21177TIP3    H263409   4.418   7.697   8.048
21178TIP3   OH263410   4.614   8.271   8.276
21178TIP3    H163411   4.607   8.260   8.373
21178TIP3    H263412   4.523   8.245   8.250
21179TIP3   OH263413   4.852   8.217   8.129
21179TIP3    H163414   4.778   8.220   8.193
21179TIP3    H263415   4.926   8.187   8.186
21180TIP3   OH263416   5.079   8.158   8.280
21180TIP3    H163417   5.093   8.063   8.300
21180TIP3    H263418   5.076   8.198   8.370
21181TIP3   OH263419   4.070   8.108   8.468
21181TIP3    H163420   4.077   8.017   8.435
21181TIP3    H263421   4.107   8.096   8.559
21182TIP3   OH263422   4.583   7.776   8.316
21182TIP3    H163423   4.650   7.706   8.312
21182TIP3    H263424   4.543   7.767   8.227
21183TIP3   OH263425   4.648   7.990   8.476
21183TIP3    H163426   4.626   7.919   8.412
21183TIP3    H263427   4.569   8.048   8.470
21184TIP3   OH263428   3.867   9.228   6.576
21184TIP3    H163429   3.962   9.219   6.556
21184TIP3    H263430   3.838   9.272   6.494
21185TIP3   OH263431   3.352   8.598   6.800
21185TIP3    H163432   3.444   8.624   6.779
21185TIP3    H263433   3.346   8.511   6.754
21186TIP3   OH263434   3.258   9.212   7.209
21186TIP3    H163435   3.190   9.161   7.158
21186TIP3    H263436   3.297   9.141   7.260
21187TIP3   OH263437   5.123   9.467   7.192
21187TIP3    H163438   5.153   9.500   7.279
21187TIP3    H263439   5.187   9.508   7.132
21188TIP3   OH263440   5.154   9.486   7.475
21188TIP3    H163441   5.113   9.396   7.470
21188TIP3    H263442   5.231   9.465   7.530
21189TIP3   OH263443   5.193   9.156   8.044
21189TIP3    H163444   5.122   9.166   8.111
21189TIP3    H263445   5.242   9.240   8.055
21190TIP3   OH263446   5.018   8.675   6.668
21190TIP3    H163447   5.086   8.739   6.640
21190TIP3    H263448   5.061   8.635   6.747
21191TIP3   OH263449   5.145   8.542   6.871
21191TIP3    H163450   5.080   8.500   6.931
21191TIP3    H263451   5.210   8.580   6.934
21192TIP3   OH263452   5.197   8.933   7.302
21192TIP3    H163453   5.253   8.869   7.253
21192TIP3    H263454   5.192   9.008   7.240
21193TIP3   OH263455   5.032   9.234   7.499
21193TIP3    H163456   4.960   9.275   7.551
21193TIP3    H263457   4.982   9.186   7.429
21194TIP3   OH263458   5.084   8.450   6.519
21194TIP3    H163459   5.012   8.453   6.451
21194TIP3    H263460   5.056   8.526   6.574
21195TIP3   OH263461   4.956   8.123   6.473
21195TIP3    H163462   4.912   8.162   6.397
21195TIP3    H263463   4.929   8.029   6.463
21196TIP3   OH263464   4.960   8.398   7.019
21196TIP3    H163465   4.968   8.302   7.013
21196TIP3    H263466   4.946   8.413   7.115
21197TIP3   OH263467   3.586   8.480   7.759
21197TIP3    H163468   3.588   8.443   7.667
21197TIP3    H263469   3.682   8.478   7.780
21198TIP3   OH263470   5.249   8.823   7.873
21198TIP3    H163471   5.322   8.757   7.865
21198TIP3    H263472   5.278   8.893   7.813
21199TIP3   OH263473   5.435   8.630   7.893
21199TIP3    H163474   5.360   8.578   7.931
21199TIP3    H263475   5.508   8.566   7.906
21200TIP3   OH263476   4.898   7.857   6.460
21200TIP3    H163477   4.973   7.826   6.514
21200TIP3    H263478   4.826   7.798   6.484
21201TIP3   OH263479   4.956   8.115   6.914
21201TIP3    H163480   4.997   8.026   6.929
21201TIP3    H263481   5.014   8.148   6.844
21202TIP3   OH263482   5.117   8.290   7.407
21202TIP3    H163483   5.203   8.315   7.367
21202TIP3    H263484   5.131   8.326   7.497
21203TIP3   OH263485   5.185   8.432   7.640
21203TIP3    H163486   5.108   8.466   7.689
21203TIP3    H263487   5.218   8.512   7.595
21204TIP3   OH263488   3.804   8.163   8.442
21204TIP3    H163489   3.902   8.154   8.442
21204TIP3    H263490   3.779   8.076   8.480
21205TIP3   OH263491   5.633   8.019   8.196
21205TIP3    H163492   5.695   7.955   8.154
21205TIP3    H263493   5.610   8.077   8.120
21206TIP3   OH263494   5.065   7.865   6.951
21206TIP3    H163495   5.115   7.849   7.034
21206TIP3    H263496   5.006   7.787   6.950
21207TIP3   OH263497   3.764   7.851   7.770
21207TIP3    H163498   3.826   7.776   7.781
21207TIP3    H263499   3.827   7.925   7.764
21208TIP3   OH263500   3.566   8.126   7.842
21208TIP3    H163501   3.615   8.117   7.758
21208TIP3    H263502   3.607   8.206   7.878
21209TIP3   OH263503   5.511   8.165   8.001
21209TIP3    H163504   5.424   8.203   8.026
21209TIP3    H263505   5.481   8.092   7.944
21210TIP3   OH263506   5.146   7.800   6.583
21210TIP3    H163507   5.186   7.727   6.531
21210TIP3    H263508   5.214   7.870   6.576
21211TIP3   OH263509   3.552   7.631   7.348
21211TIP3    H163510   3.458   7.625   7.371
21211TIP3    H263511   3.549   7.688   7.267
21212TIP3   OH263512   4.709   9.333   6.851
21212TIP3    H163513   4.758   9.316   6.767
21212TIP3    H263514   4.767   9.397   6.894
21213TIP3   OH263515   3.771   7.711   8.159
21213TIP3    H163516   3.721   7.701   8.242
21213TIP3    H263517   3.702   7.746   8.100
21214TIP3   OH263518   3.816   9.130   8.244
21214TIP3    H163519   3.729   9.090   8.229
21214TIP3    H263520   3.831   9.110   8.338
21215TIP3   OH263521   3.987   9.166   7.784
21215TIP3    H163522   3.942   9.244   7.746
21215TIP3    H263523   4.074   9.178   7.741
21216TIP3   OH263524   4.434   9.415   7.925
21216TIP3    H163525   4.482   9.414   8.010
21216TIP3    H263526   4.500   9.462   7.868
21217TIP3   OH263527   4.623   9.550   7.784
21217TIP3    H163528   4.699   9.507   7.742
21217TIP3    H263529   4.668   9.619   7.838
21218TIP3   OH263530   5.408   7.925   7.880
21218TIP3    H163531   5.317   7.917   7.848
21218TIP3    H263532   5.440   7.833   7.869
21219TIP3   OH263533   3.670   9.403   7.783
21219TIP3    H163534   3.576   9.428   7.772
21219TIP3    H263535   3.684   9.453   7.867
21220TIP3   OH263536   3.912   9.407   7.663
21220TIP3    H163537   3.824   9.410   7.706
21220TIP3    H263538   3.890   9.441   7.574
21221TIP3   OH263539   4.327   9.433   7.470
21221TIP3    H163540   4.264   9.447   7.396
21221TIP3    H263541   4.321   9.516   7.518
21222TIP3   OH263542   4.599   9.368   7.511
21222TIP3    H163543   4.506   9.388   7.490
21222TIP3    H263544   4.646   9.443   7.471
21223TIP3   OH263545   4.798   9.562   7.427
21223TIP3    H163546   4.790   9.647   7.379
21223TIP3    H263547   4.829   9.502   7.356
21224TIP3   OH263548   3.575   9.184   7.543
21224TIP3    H163549   3.607   9.188   7.636
21224TIP3    H263550   3.660   9.166   7.496
21225TIP3   OH263551   3.775   9.084   7.402
21225TIP3    H163552   3.796   9.000   7.450
21225TIP3    H263553   3.864   9.124   7.396
21226TIP3   OH263554   4.034   9.185   7.412
21226TIP3    H163555   4.067   9.095   7.394
21226TIP3    H263556   4.080   9.204   7.496
21227TIP3   OH263557   4.604   7.835   7.484
21227TIP3    H163558   4.568   7.770   7.547
21227TIP3    H263559   4.687   7.791   7.454
21228TIP3   OH263560   5.135   7.717   7.401
21228TIP3    H163561   5.174   7.772   7.329
21228TIP3    H263562   5.042   7.745   7.399
21229TIP3   OH263563   5.231   7.823   7.167
21229TIP3    H163564   5.304   7.771   7.129
21229TIP3    H263565   5.265   7.914   7.153
21230TIP3   OH263566   3.861   7.547   7.511
21230TIP3    H163567   3.768   7.515   7.515
21230TIP3    H263568   3.908   7.461   7.512
21231TIP3   OH263569   3.650   7.420   7.164
21231TIP3    H163570   3.676   7.476   7.089
21231TIP3    H263571   3.619   7.485   7.229
21232TIP3   OH263572   4.849   7.727   7.382
21232TIP3    H163573   4.863   7.691   7.294
21232TIP3    H263574   4.835   7.645   7.436
21233TIP3   OH263575   4.881   7.649   6.941
21233TIP3    H163576   4.796   7.695   6.948
21233TIP3    H263577   4.864   7.569   6.993
21234TIP3   OH263578   3.347   8.993   6.961
21234TIP3    H163579   3.270   8.956   6.914
21234TIP3    H263580   3.348   9.082   6.921
21235TIP3   OH263581   3.761   7.576   6.929
21235TIP3    H163582   3.810   7.516   6.870
21235TIP3    H263583   3.832   7.630   6.968
21236TIP3   OH263584   4.136   9.182   6.524
21236TIP3    H163585   4.225   9.202   6.488
21236TIP3    H263586   4.113   9.105   6.466
21237TIP3   OH263587   4.853   9.296   6.618
21237TIP3    H163588   4.846   9.199   6.605
21237TIP3    H263589   4.811   9.329   6.536
21238TIP3   OH263590   4.069   7.832   8.406
21238TIP3    H163591   4.035   7.760   8.463
21238TIP3    H263592   4.164   7.831   8.433
21239TIP3   OH263593   4.318   7.828   8.525
21239TIP3    H163594   4.403   7.801   8.487
21239TIP3    H263595   4.305   7.758   8.593
21240TIP3   OH263596   3.442   9.016   6.582
21240TIP3    H163597   3.450   9.044   6.673
21240TIP3    H263598   3.529   8.972   6.566
21241TIP3   OH263599   5.142   7.888   8.313
21241TIP3    H163600   5.162   7.857   8.404
21241TIP3    H263601   5.231   7.884   8.271
21242TIP3   OH263602   5.084   9.443   7.804
21242TIP3    H163603   5.004   9.412   7.756
21242TIP3    H263604   5.065   9.539   7.809
21243TIP3   OH263605   6.348   8.806   6.571
21243TIP3    H163606   6.320   8.898   6.557
21243TIP3    H263607   6.272   8.758   6.535
21244TIP3   OH263608   6.344   8.808   6.942
21244TIP3    H163609   6.368   8.794   7.036
21244TIP3    H263610   6.296   8.726   6.923
21245TIP3   OH263611   5.647   8.709   7.317
21245TIP3    H163612   5.678   8.641   7.381
21245TIP3    H263613   5.724   8.768   7.315
21246TIP3   OH263614   6.587   9.110   6.631
21246TIP3    H163615   6.581   9.047   6.703
21246TIP3    H263616   6.617   9.190   6.680
21247TIP3   OH263617   5.617   9.118   7.043
21247TIP3    H163618   5.609   9.020   7.046
21247TIP3    H263619   5.714   9.128   7.038
21248TIP3   OH263620   5.326   8.323   6.828
21248TIP3    H163621   5.277   8.406   6.843
21248TIP3    H263622   5.255   8.267   6.791
21249TIP3   OH263623   5.383   8.609   6.999
21249TIP3    H163624   5.433   8.533   7.036
21249TIP3    H263625   5.444   8.640   6.930
21250TIP3   OH263626   6.243   9.580   6.650
21250TIP3    H163627   6.287   9.507   6.601
21250TIP3    H263628   6.232   9.540   6.737
21251TIP3   OH263629   6.146   9.039   6.999
21251TIP3    H163630   6.185   8.965   6.949
21251TIP3    H263631   6.229   9.084   7.026
21252TIP3   OH263632   7.162   8.354   6.991
21252TIP3    H163633   7.184   8.436   7.041
21252TIP3    H263634   7.180   8.383   6.901
21253TIP3   OH263635   6.555   8.548   7.037
21253TIP3    H163636   6.598   8.470   7.077
21253TIP3    H263637   6.549   8.521   6.947
21254TIP3   OH263638   5.898   8.199   6.996
21254TIP3    H163639   5.873   8.272   6.935
21254TIP3    H263640   5.850   8.125   6.955
21255TIP3   OH263641   5.530   8.403   7.105
21255TIP3    H163642   5.612   8.383   7.153
21255TIP3    H263643   5.542   8.346   7.026
21256TIP3   OH263644   5.971   8.600   6.894
21256TIP3    H163645   6.064   8.573   6.912
21256TIP3    H263646   5.930   8.515   6.866
21257TIP3   OH263647   7.210   8.554   7.172
21257TIP3    H163648   7.127   8.598   7.144
21257TIP3    H263649   7.194   8.548   7.268
21258TIP3   OH263650   5.893   8.183   7.432
21258TIP3    H163651   5.831   8.221   7.366
21258TIP3    H263652   5.843   8.199   7.514
21259TIP3   OH263653   6.243   9.033   6.441
21259TIP3    H163654   6.197   9.013   6.358
21259TIP3    H263655   6.199   9.117   6.467
21260TIP3   OH263656   5.997   8.958   7.229
21260TIP3    H163657   5.935   9.023   7.267
21260TIP3    H263658   6.042   9.010   7.160
21261TIP3   OH263659   6.767   8.306   6.786
21261TIP3    H163660   6.799   8.232   6.840
21261TIP3    H263661   6.833   8.375   6.810
21262TIP3   OH263662   5.763   8.298   7.216
21262TIP3    H163663   5.825   8.371   7.241
21262TIP3    H263664   5.815   8.257   7.143
21263TIP3   OH263665   5.824   9.151   7.325
21263TIP3    H163666   5.801   9.239   7.288
21263TIP3    H263667   5.746   9.137   7.383
21264TIP3   OH263668   5.223   8.842   6.562
21264TIP3    H163669   5.181   8.870   6.478
21264TIP3    H263670   5.253   8.928   6.599
21265TIP3   OH263671   6.646   9.330   6.781
21265TIP3    H163672   6.563   9.335   6.834
21265TIP3    H263673   6.651   9.422   6.750
21266TIP3   OH263674   6.956   8.267   7.168
21266TIP3    H163675   6.870   8.298   7.137
21266TIP3    H263676   7.014   8.286   7.091
21267TIP3   OH263677   6.248   7.906   7.142
21267TIP3    H163678   6.240   7.811   7.164
21267TIP3    H263679   6.171   7.942   7.192
21268TIP3   OH263680   6.360   9.405   6.470
21268TIP3    H163681   6.413   9.324   6.455
21268TIP3    H263682   6.424   9.472   6.434
21269TIP3   OH263683   6.508   9.190   6.381
21269TIP3    H163684   6.464   9.111   6.348
21269TIP3    H263685   6.543   9.157   6.467
21270TIP3   OH263686   6.175   8.658   6.409
21270TIP3    H163687   6.101   8.714   6.380
21270TIP3    H263688   6.229   8.650   6.328
21271TIP3   OH263689   6.138   8.448   6.121
21271TIP3    H163690   6.206   8.501   6.169
21271TIP3    H263691   6.197   8.386   6.073
21272TIP3   OH263692   7.079   8.887   6.978
21272TIP3    H163693   7.003   8.948   6.988
21272TIP3    H263694   7.120   8.925   6.897
21273TIP3   OH263695   6.526   8.748   6.373
21273TIP3    H163696   6.472   8.773   6.451
21273TIP3    H263697   6.610   8.724   6.416
21274TIP3   OH263698   6.698   8.792   7.233
21274TIP3    H163699   6.745   8.849   7.295
21274TIP3    H263700   6.623   8.847   7.206
21275TIP3   OH263701   5.758   8.746   6.791
21275TIP3    H163702   5.717   8.688   6.723
21275TIP3    H263703   5.836   8.693   6.818
21276TIP3   OH263704   5.888   9.156   6.940
21276TIP3    H163705   5.869   9.113   6.856
21276TIP3    H263706   5.978   9.124   6.960
21277TIP3   OH263707   5.897   8.716   7.144
21277TIP3    H163708   5.929   8.701   7.053
21277TIP3    H263709   5.938   8.802   7.168
21278TIP3   OH263710   6.414   9.356   6.923
21278TIP3    H163711   6.410   9.435   6.980
21278TIP3    H263712   6.402   9.281   6.985
21279TIP3   OH263713   6.032   9.275   7.461
21279TIP3    H163714   5.969   9.334   7.510
21279TIP3    H263715   5.968   9.216   7.416
21280TIP3   OH263716   6.367   8.602   6.203
21280TIP3    H163717   6.425   8.662   6.255
21280TIP3    H263718   6.394   8.626   6.111
21281TIP3   OH263719   5.785   8.831   7.566
21281TIP3    H163720   5.790   8.917   7.613
21281TIP3    H263721   5.690   8.810   7.579
21282TIP3   OH263722   6.108   9.285   6.476
21282TIP3    H163723   6.189   9.337   6.491
21282TIP3    H263724   6.048   9.351   6.439
21283TIP3   OH263725   5.829   9.434   7.562
21283TIP3    H163726   5.793   9.441   7.472
21283TIP3    H263727   5.748   9.419   7.616
21284TIP3   OH263728   6.892   7.853   6.243
21284TIP3    H163729   6.820   7.853   6.308
21284TIP3    H263730   6.880   7.940   6.199
21285TIP3   OH263731   5.626   8.586   6.593
21285TIP3    H163732   5.561   8.634   6.538
21285TIP3    H263733   5.580   8.503   6.610
21286TIP3   OH263734   6.680   9.215   5.794
21286TIP3    H163735   6.689   9.312   5.783
21286TIP3    H263736   6.773   9.186   5.783
21287TIP3   OH263737   5.405   8.972   7.503
21287TIP3    H163738   5.342   8.948   7.433
21287TIP3    H263739   5.443   8.886   7.529
21288TIP3   OH263740   5.260   9.164   7.137
21288TIP3    H163741   5.356   9.157   7.126
21288TIP3    H263742   5.253   9.244   7.191
21289TIP3   OH263743   6.215   9.414   7.318
21289TIP3    H163744   6.230   9.483   7.384
21289TIP3    H263745   6.149   9.360   7.367
21290TIP3   OH263746   5.992   9.532   6.277
21290TIP3    H163747   5.944   9.515   6.194
21290TIP3    H263748   5.959   9.621   6.303
21291TIP3   OH263749   5.429   9.381   6.661
21291TIP3    H163750   5.478   9.372   6.746
21291TIP3    H263751   5.370   9.303   6.667
21292TIP3   OH263752   6.193   9.433   5.918
21292TIP3    H163753   6.252   9.363   5.882
21292TIP3    H263754   6.226   9.442   6.010
21293TIP3   OH263755   6.243   9.480   6.189
21293TIP3    H163756   6.154   9.490   6.230
21293TIP3    H263757   6.293   9.440   6.263
21294TIP3   OH263758   6.934   8.752   7.380
21294TIP3    H163759   7.005   8.818   7.367
21294TIP3    H263760   6.989   8.677   7.408
21295TIP3   OH263761   5.608   9.157   7.492
21295TIP3    H163762   5.660   9.138   7.573
21295TIP3    H263763   5.536   9.092   7.500
21296TIP3   OH263764   6.010   7.980   7.273
21296TIP3    H163765   5.920   7.949   7.249
21296TIP3    H263766   5.985   8.061   7.323
21297TIP3   OH263767   6.545   8.092   7.470
21297TIP3    H163768   6.614   8.067   7.535
21297TIP3    H263769   6.462   8.074   7.518
21298TIP3   OH263770   6.771   8.510   7.377
21298TIP3    H163771   6.724   8.518   7.462
21298TIP3    H263772   6.776   8.603   7.348
21299TIP3   OH263773   6.442   8.651   5.944
21299TIP3    H163774   6.410   8.627   5.855
21299TIP3    H263775   6.521   8.703   5.922
21300TIP3   OH263776   6.154   8.027   6.247
21300TIP3    H163777   6.115   8.022   6.337
21300TIP3    H263778   6.117   7.945   6.209
21301TIP3   OH263779   5.941   8.493   7.294
21301TIP3    H163780   5.893   8.516   7.376
21301TIP3    H263781   5.926   8.575   7.240
21302TIP3   OH263782   5.826   8.379   6.806
21302TIP3    H163783   5.733   8.355   6.826
21302TIP3    H263784   5.836   8.340   6.717
21303TIP3   OH263785   6.481   8.748   7.612
21303TIP3    H163786   6.457   8.671   7.669
21303TIP3    H263787   6.577   8.738   7.605
21304TIP3   OH263788   5.760   8.523   7.503
21304TIP3    H163789   5.792   8.585   7.570
21304TIP3    H263790   5.750   8.441   7.555
21305TIP3   OH263791   5.812   8.002   6.212
21305TIP3    H163792   5.801   7.997   6.309
21305TIP3    H263793   5.732   8.052   6.188
21306TIP3   OH263794   5.354   8.047   7.082
21306TIP3    H163795   5.429   8.077   7.137
21306TIP3    H263796   5.395   8.012   7.002
21307TIP3   OH263797   5.329   8.027   6.603
21307TIP3    H163798   5.373   8.066   6.524
21307TIP3    H263799   5.267   8.100   6.624
21308TIP3   OH263800   6.422   8.736   7.191
21308TIP3    H163801   6.484   8.677   7.141
21308TIP3    H263802   6.431   8.694   7.278
21309TIP3   OH263803   6.152   8.222   6.872
21309TIP3    H163804   6.067   8.213   6.920
21309TIP3    H263805   6.215   8.196   6.941
21310TIP3   OH263806   5.588   8.258   6.877
21310TIP3    H163807   5.493   8.266   6.851
21310TIP3    H263808   5.609   8.166   6.855
21311TIP3   OH263809   5.862   8.260   6.560
21311TIP3    H163810   5.947   8.269   6.514
21311TIP3    H263811   5.799   8.276   6.486
21312TIP3   OH263812   6.632   8.283   7.065
21312TIP3    H163813   6.605   8.293   7.160
21312TIP3    H263814   6.590   8.200   7.042
21313TIP3   OH263815   5.699   8.285   6.347
21313TIP3    H163816   5.625   8.243   6.300
21313TIP3    H263817   5.749   8.322   6.271
21314TIP3   OH263818   5.765   9.075   7.708
21314TIP3    H163819   5.846   9.108   7.752
21314TIP3    H263820   5.703   9.074   7.784
21315TIP3   OH263821   6.236   8.526   6.976
21315TIP3    H163822   6.291   8.449   6.958
21315TIP3    H263823   6.230   8.519   7.073
21316TIP3   OH263824   5.760   8.017   6.844
21316TIP3    H163825   5.724   7.940   6.894
21316TIP3    H263826   5.813   7.974   6.776
21317TIP3   OH263827   6.213   8.433   7.249
21317TIP3    H163828   6.125   8.467   7.274
21317TIP3    H263829   6.274   8.484   7.306
21318TIP3   OH263830   5.951   8.818   6.351
21318TIP3    H163831   5.879   8.753   6.340
21318TIP3    H263832   5.934   8.852   6.442
21319TIP3   OH263833   6.852   9.041   6.988
21319TIP3    H163834   6.877   9.094   6.908
21319TIP3    H263835   6.764   9.007   6.961
21320TIP3   OH263836   6.410   8.121   6.228
21320TIP3    H163837   6.312   8.111   6.223
21320TIP3    H263838   6.423   8.218   6.239
21321TIP3   OH263839   6.334   9.125   7.350
21321TIP3    H163840   6.384   9.103   7.431
21321TIP3    H263841   6.306   9.216   7.367
21322TIP3   OH263842   6.484   8.372   6.317
21322TIP3    H163843   6.579   8.388   6.331
21322TIP3    H263844   6.454   8.456   6.277
21323TIP3   OH263845   5.640   8.838   7.029
21323TIP3    H163846   5.679   8.811   6.943
21323TIP3    H263847   5.682   8.778   7.091
21324TIP3   OH263848   6.094   8.968   6.170
21324TIP3    H163849   6.047   9.054   6.177
21324TIP3    H263850   6.041   8.912   6.232
21325TIP3   OH263851   5.521   8.762   7.641
21325TIP3    H163852   5.545   8.748   7.735
21325TIP3    H263853   5.454   8.693   7.627
21326TIP3   OH263854   6.238   8.863   7.666
21326TIP3    H163855   6.177   8.810   7.611
21326TIP3    H263856   6.325   8.837   7.629
21327TIP3   OH263857   6.485   9.383   7.270
21327TIP3    H163858   6.390   9.383   7.249
21327TIP3    H263859   6.481   9.412   7.363
21328TIP3   OH263860   6.919   8.467   6.153
21328TIP3    H163861   6.857   8.422   6.090
21328TIP3    H263862   6.916   8.556   6.113
21329TIP3   OH263863   6.619   9.287   6.060
21329TIP3    H163864   6.594   9.219   6.125
21329TIP3    H263865   6.631   9.237   5.978
21330TIP3   OH263866   6.606   8.920   6.901
21330TIP3    H163867   6.513   8.890   6.906
21330TIP3    H263868   6.648   8.845   6.856
21331TIP3   OH263869   5.742   9.142   6.650
21331TIP3    H163870   5.744   9.225   6.598
21331TIP3    H263871   5.648   9.130   6.662
21332TIP3   OH263872   5.306   8.448   6.355
21332TIP3    H163873   5.352   8.532   6.376
21332TIP3    H263874   5.229   8.454   6.416
21333TIP3   OH263875   5.882   8.909   6.596
21333TIP3    H163876   5.847   8.999   6.613
21333TIP3    H263877   5.845   8.860   6.672
21334TIP3   OH263878   6.009   9.485   7.122
21334TIP3    H163879   6.047   9.564   7.079
21334TIP3    H263880   6.086   9.453   7.172
21335TIP3   OH263881   5.663   9.382   6.505
21335TIP3    H163882   5.577   9.391   6.550
21335TIP3    H263883   5.695   9.475   6.508
21336TIP3   OH263884   6.397   9.122   7.079
21336TIP3    H163885   6.389   9.111   7.177
21336TIP3    H263886   6.483   9.078   7.064
21337TIP3   OH263887   6.374   9.013   5.962
21337TIP3    H163888   6.428   8.988   6.041
21337TIP3    H263889   6.285   8.989   5.993
21338TIP3   OH263890   6.716   9.491   5.783
21338TIP3    H163891   6.757   9.566   5.738
21338TIP3    H263892   6.634   9.535   5.815
21339TIP3   OH263893   5.735   8.265   7.649
21339TIP3    H163894   5.640   8.270   7.665
21339TIP3    H263895   5.765   8.207   7.721
21340TIP3   OH263896   6.534   8.946   6.176
21340TIP3    H163897   6.524   8.882   6.249
21340TIP3    H263898   6.632   8.946   6.167
21341TIP3   OH263899   5.449   9.351   7.282
21341TIP3    H163900   5.502   9.276   7.313
21341TIP3    H263901   5.481   9.421   7.341
21342TIP3   OH263902   5.741   8.995   5.962
21342TIP3    H163903   5.756   8.903   5.934
21342TIP3    H263904   5.723   8.984   6.057
21343TIP3   OH263905   5.687   9.000   6.234
21343TIP3    H163906   5.758   8.974   6.295
21343TIP3    H263907   5.690   9.098   6.241
21344TIP3   OH263908   5.423   8.694   6.438
21344TIP3    H163909   5.357   8.739   6.495
21344TIP3    H263910   5.437   8.764   6.371
21345TIP3   OH263911   6.570   8.323   7.322
21345TIP3    H163912   6.645   8.374   7.357
21345TIP3    H263913   6.562   8.249   7.386
21346TIP3   OH263914   6.468   8.146   6.510
21346TIP3    H163915   6.408   8.136   6.434
21346TIP3    H263916   6.551   8.123   6.463
21347TIP3   OH263917   5.951   9.197   6.182
21347TIP3    H163918   5.865   9.225   6.220
21347TIP3    H263919   5.969   9.272   6.123
21348TIP3   OH263920   6.176   8.264   6.599
21348TIP3    H163921   6.157   8.356   6.573
21348TIP3    H263922   6.147   8.262   6.693
21349TIP3   OH263923   6.403   8.570   7.409
21349TIP3    H163924   6.418   8.631   7.483
21349TIP3    H263925   6.471   8.503   7.427
21350TIP3   OH263926   6.283   7.985   6.696
21350TIP3    H163927   6.287   8.045   6.773
21350TIP3    H263928   6.339   8.033   6.632
21351TIP3   OH263929   5.694   9.272   6.251
21351TIP3    H163930   5.664   9.342   6.188
21351TIP3    H263931   5.679   9.316   6.337
21352TIP3   OH263932   5.794   7.984   6.488
21352TIP3    H163933   5.792   8.073   6.527
21352TIP3    H263934   5.890   7.965   6.496
21353TIP3   OH263935   7.038   8.467   7.373
21353TIP3    H163936   6.943   8.477   7.396
21353TIP3    H263937   7.027   8.411   7.294
21354TIP3   OH263938   6.708   8.677   6.768
21354TIP3    H163939   6.641   8.629   6.817
21354TIP3    H263940   6.790   8.642   6.810
21355TIP3   OH263941   5.413   8.904   6.244
21355TIP3    H163942   5.477   8.977   6.253
21355TIP3    H263943   5.459   8.850   6.176
21356TIP3   OH263944   5.359   8.179   6.377
21356TIP3    H163945   5.356   8.277   6.372
21356TIP3    H263946   5.276   8.155   6.335
21357TIP3   OH263947   6.642   9.594   6.699
21357TIP3    H163948   6.603   9.665   6.644
21357TIP3    H263949   6.734   9.624   6.703
21358TIP3   OH263950   5.745   7.899   7.251
21358TIP3    H163951   5.714   7.864   7.165
21358TIP3    H263952   5.736   7.821   7.310
21359TIP3   OH263953   5.285   9.116   6.633
21359TIP3    H163954   5.212   9.148   6.686
21359TIP3    H263955   5.263   9.156   6.546
21360TIP3   OH263956   5.435   9.649   7.692
21360TIP3    H163957   5.520   9.653   7.739
21360TIP3    H263958   5.415   9.554   7.698
21361TIP3   OH263959   5.904   9.199   5.874
21361TIP3    H163960   5.847   9.129   5.914
21361TIP3    H263961   5.979   9.146   5.845
21362TIP3   OH263962   6.341   9.240   5.786
21362TIP3    H163963   6.385   9.177   5.846
21362TIP3    H263964   6.400   9.240   5.708
21363TIP3   OH263965   5.571   9.057   7.905
21363TIP3    H163966   5.589   8.961   7.904
21363TIP3    H263967   5.484   9.062   7.860
21364TIP3   OH263968   5.548   8.717   6.095
21364TIP3    H163969   5.603   8.684   6.168
21364TIP3    H263970   5.616   8.721   6.024
21365TIP3   OH263971   6.174   9.141   7.669
21365TIP3    H163972   6.151   9.166   7.577
21365TIP3    H263973   6.219   9.055   7.657
21366TIP3   OH263974   6.057   8.914   5.901
21366TIP3    H163975   6.060   8.928   5.998
21366TIP3    H263976   6.056   8.816   5.897
21367TIP3   OH263977   6.631   9.126   7.270
21367TIP3    H163978   6.713   9.168   7.238
21367TIP3    H263979   6.573   9.203   7.280
21368TIP3   OH263980   5.691   8.794   7.881
21368TIP3    H163981   5.766   8.736   7.864
21368TIP3    H263982   5.713   8.828   7.970
21369TIP3   OH263983   5.757   8.619   6.318
21369TIP3    H163984   5.729   8.579   6.402
21369TIP3    H263985   5.793   8.543   6.269
21370TIP3   OH263986   6.024   8.683   7.543
21370TIP3    H163987   5.948   8.744   7.546
21370TIP3    H263988   6.075   8.717   7.466
21371TIP3   OH263989   5.857   8.411   6.160
21371TIP3    H163990   5.830   8.415   6.066
21371TIP3    H263991   5.954   8.418   6.151
21372TIP3   OH263992   6.681   8.745   5.820
21372TIP3    H163993   6.657   8.698   5.737
21372TIP3    H263994   6.648   8.835   5.797
21373TIP3   OH263995   6.141   8.469   7.675
21373TIP3    H163996   6.148   8.391   7.617
21373TIP3    H263997   6.104   8.536   7.614
21374TIP3   OH263998   6.152   8.259   7.477
21374TIP3    H163999   6.179   8.299   7.393
21374TIP3    H264000   6.058   8.237   7.460
21375TIP3   OH264001   6.181   8.791   7.351
21375TIP3    H164002   6.262   8.791   7.298
21375TIP3    H264003   6.129   8.863   7.309
21376TIP3   OH264004   6.014   8.590   7.892
21376TIP3    H164005   5.952   8.517   7.913
21376TIP3    H264006   6.055   8.557   7.810
21377TIP3   OH264007   6.283   8.021   7.543
21377TIP3    H164008   6.234   8.104   7.523
21377TIP3    H264009   6.212   7.954   7.534
21378TIP3   OH264010   6.400   8.537   7.757
21378TIP3    H164011   6.417   8.514   7.850
21378TIP3    H264012   6.308   8.505   7.746
21379TIP3   OH264013   6.619   8.489   7.598
21379TIP3    H164014   6.548   8.484   7.665
21379TIP3    H264015   6.689   8.437   7.644
21380TIP3   OH264016   6.802   8.356   7.737
21380TIP3    H164017   6.859   8.285   7.771
21380TIP3    H264018   6.826   8.431   7.794
21381TIP3   OH264019   5.866   8.365   7.954
21381TIP3    H164020   5.873   8.274   7.920
21381TIP3    H264021   5.902   8.353   8.044
21382TIP3   OH264022   6.377   8.029   7.800
21382TIP3    H164023   6.446   7.959   7.796
21382TIP3    H264024   6.339   8.021   7.711
21383TIP3   OH264025   6.431   8.240   7.966
21383TIP3    H164026   6.415   8.169   7.900
21383TIP3    H264027   6.353   8.298   7.953
21384TIP3   OH264028   5.664   9.473   6.062
21384TIP3    H164029   5.759   9.471   6.044
21384TIP3    H264030   5.633   9.524   5.985
21385TIP3   OH264031   5.144   8.857   6.280
21385TIP3    H164032   5.239   8.879   6.266
21385TIP3    H264033   5.139   8.768   6.238
21386TIP3   OH264034   5.057   9.469   6.694
21386TIP3    H164035   4.990   9.406   6.658
21386TIP3    H264036   5.102   9.412   6.760
21387TIP3   OH264037   5.194   9.322   6.879
21387TIP3    H164038   5.185   9.247   6.941
21387TIP3    H264039   5.247   9.383   6.934
21388TIP3   OH264040   6.814   8.932   6.153
21388TIP3    H164041   6.884   8.995   6.128
21388TIP3    H264042   6.855   8.892   6.233
21389TIP3   OH264043   6.938   8.798   6.354
21389TIP3    H164044   6.875   8.758   6.418
21389TIP3    H264045   7.008   8.835   6.413
21390TIP3   OH264046   6.963   9.172   6.781
21390TIP3    H164047   7.046   9.136   6.747
21390TIP3    H264048   6.959   9.261   6.745
21391TIP3   OH264049   6.880   8.706   6.005
21391TIP3    H164050   6.808   8.710   5.938
21391TIP3    H264051   6.854   8.781   6.062
21392TIP3   OH264052   6.753   8.378   5.958
21392TIP3    H164053   6.707   8.419   5.884
21392TIP3    H264054   6.725   8.285   5.948
21393TIP3   OH264055   6.755   8.653   6.502
21393TIP3    H164056   6.769   8.557   6.499
21393TIP3    H264057   6.744   8.670   6.598
21394TIP3   OH264058   5.382   8.730   7.251
21394TIP3    H164059   5.381   8.699   7.158
21394TIP3    H264060   5.480   8.731   7.268
21395TIP3   OH264061   6.692   8.113   5.946
21395TIP3    H164062   6.769   8.086   6.000
21395TIP3    H264063   6.621   8.053   5.973
21396TIP3   OH264064   6.755   8.368   6.396
21396TIP3    H164065   6.798   8.283   6.418
21396TIP3    H264066   6.814   8.400   6.326
21397TIP3   OH264067   6.914   8.544   6.883
21397TIP3    H164068   7.003   8.569   6.848
21397TIP3    H264069   6.923   8.581   6.974
21398TIP3   OH264070   6.975   8.675   7.113
21398TIP3    H164071   6.920   8.709   7.186
21398TIP3    H264072   7.007   8.758   7.071
21399TIP3   OH264073   5.600   8.417   7.925
21399TIP3    H164074   5.697   8.410   7.928
21399TIP3    H264075   5.576   8.331   7.966
21400TIP3   OH264076   6.870   8.115   6.441
21400TIP3    H164077   6.907   8.100   6.530
21400TIP3    H264078   6.808   8.040   6.435
21401TIP3   OH264079   5.560   8.107   7.256
21401TIP3    H164080   5.622   8.032   7.268
21401TIP3    H264081   5.623   8.181   7.251
21402TIP3   OH264082   5.363   8.381   7.329
21402TIP3    H164083   5.413   8.376   7.245
21402TIP3    H264084   5.394   8.466   7.364
21403TIP3   OH264085   7.292   8.411   7.444
21403TIP3    H164086   7.198   8.438   7.436
21403TIP3    H264087   7.282   8.316   7.422
21404TIP3   OH264088   6.943   8.064   6.062
21404TIP3    H164089   6.982   7.988   6.013
21404TIP3    H264090   7.013   8.132   6.054
21405TIP3   OH264091   5.347   7.886   6.831
21405TIP3    H164092   5.253   7.883   6.857
21405TIP3    H264093   5.345   7.944   6.752
21406TIP3   OH264094   6.507   9.591   6.338
21406TIP3    H164095   6.554   9.572   6.254
21406TIP3    H264096   6.569   9.653   6.379
21407TIP3   OH264097   5.567   7.966   7.646
21407TIP3    H164098   5.518   7.959   7.729
21407TIP3    H264099   5.499   8.002   7.586
21408TIP3   OH264100   5.607   9.396   7.735
21408TIP3    H164101   5.518   9.364   7.710
21408TIP3    H264102   5.609   9.371   7.830
21409TIP3   OH264103   5.784   9.423   7.273
21409TIP3    H164104   5.736   9.498   7.232
21409TIP3    H264105   5.870   9.435   7.228
21410TIP3   OH264106   7.196   8.167   7.363
21410TIP3    H164107   7.104   8.158   7.332
21410TIP3    H264108   7.229   8.075   7.352
21411TIP3   OH264109   5.459   9.681   7.296
21411TIP3    H164110   5.371   9.717   7.270
21411TIP3    H264111   5.463   9.712   7.387
21412TIP3   OH264112   5.691   9.650   7.148
21412TIP3    H164113   5.606   9.668   7.194
21412TIP3    H264114   5.674   9.689   7.060
21413TIP3   OH264115   6.125   9.699   6.952
21413TIP3    H164116   6.057   9.710   6.883
21413TIP3    H264117   6.098   9.768   7.015
21414TIP3   OH264118   6.395   9.641   6.985
21414TIP3    H164119   6.298   9.652   6.981
21414TIP3    H264120   6.422   9.672   6.897
21415TIP3   OH264121   5.372   9.474   7.039
21415TIP3    H164122   5.400   9.449   7.130
21415TIP3    H264123   5.445   9.432   6.988
21416TIP3   OH264124   5.566   9.346   6.894
21416TIP3    H164125   5.583   9.263   6.944
21416TIP3    H264126   5.656   9.384   6.890
21417TIP3   OH264127   5.832   9.441   6.897
21417TIP3    H164128   5.864   9.350   6.886
21417TIP3    H264129   5.875   9.464   6.982
21418TIP3   OH264130   6.397   8.090   6.955
21418TIP3    H164131   6.363   8.032   7.026
21418TIP3    H264132   6.480   8.044   6.929
21419TIP3   OH264133   6.928   8.005   6.911
21419TIP3    H164134   6.972   8.024   6.825
21419TIP3    H264135   6.840   7.981   6.880
21420TIP3   OH264136   7.029   8.098   6.671
21420TIP3    H164137   7.083   8.028   6.633
21420TIP3    H264138   7.074   8.180   6.639
21421TIP3   OH264139   5.658   7.807   7.001
21421TIP3    H164140   5.566   7.773   7.003
21421TIP3    H264141   5.707   7.722   6.999
21422TIP3   OH264142   5.442   7.676   6.649
21422TIP3    H164143   5.473   7.733   6.577
21422TIP3    H264144   5.415   7.741   6.717
21423TIP3   OH264145   6.095   7.843   6.883
21423TIP3    H164146   6.164   7.880   6.827
21423TIP3    H264147   6.121   7.874   6.971
21424TIP3   OH264148   6.632   7.977   6.852
21424TIP3    H164149   6.675   7.932   6.777
21424TIP3    H264150   6.624   7.901   6.915
21425TIP3   OH264151   6.670   7.919   6.420
21425TIP3    H164152   6.582   7.880   6.414
21425TIP3    H264153   6.714   7.857   6.483
21426TIP3   OH264154   5.161   9.246   6.431
21426TIP3    H164155   5.076   9.213   6.396
21426TIP3    H264156   5.150   9.341   6.414
21427TIP3   OH264157   5.560   7.836   6.412
21427TIP3    H164158   5.608   7.772   6.357
21427TIP3    H264159   5.633   7.889   6.449
21428TIP3   OH264160   6.071   8.013   6.512
21428TIP3    H164161   6.120   7.953   6.571
21428TIP3    H264162   6.105   8.099   6.544
21429TIP3   OH264163   5.933   9.436   6.011
21429TIP3    H164164   6.021   9.458   5.976
21429TIP3    H264165   5.911   9.361   5.952
21430TIP3   OH264166   6.650   9.553   6.104
21430TIP3    H164167   6.642   9.455   6.091
21430TIP3    H264168   6.607   9.586   6.023
21431TIP3   OH264169   5.865   8.088   7.892
21431TIP3    H164170   5.831   8.017   7.950
21431TIP3    H264171   5.960   8.088   7.919
21432TIP3   OH264172   6.113   8.083   8.012
21432TIP3    H164173   6.200   8.060   7.975
21432TIP3    H264174   6.102   8.013   8.079
21433TIP3   OH264175   5.237   9.272   6.069
21433TIP3    H164176   5.237   9.300   6.161
21433TIP3    H264177   5.326   9.232   6.058
21434TIP3   OH264178   6.942   8.123   7.793
21434TIP3    H164179   6.956   8.087   7.884
21434TIP3    H264180   7.033   8.128   7.757
21435TIP3   OH264181   7.120   8.575   6.314
21435TIP3    H164182   7.079   8.661   6.332
21435TIP3    H264183   7.045   8.527   6.275
21436TIP3   OH264184   7.176   8.861   6.473
21436TIP3    H164185   7.224   8.789   6.519
21436TIP3    H264186   7.248   8.906   6.427
21437TIP3   OH264187   7.685   8.459   6.489
21437TIP3    H164188   7.672   8.530   6.422
21437TIP3    H264189   7.638   8.386   6.445
21438TIP3   OH264190   8.360   8.521   6.089
21438TIP3    H164191   8.370   8.534   6.186
21438TIP3    H264192   8.401   8.601   6.054
21439TIP3   OH264193   7.322   8.663   6.589
21439TIP3    H164194   7.405   8.646   6.638
21439TIP3    H264195   7.338   8.606   6.511
21440TIP3   OH264196   7.745   8.857   6.382
21440TIP3    H164197   7.843   8.846   6.386
21440TIP3    H264198   7.717   8.767   6.353
21441TIP3   OH264199   7.659   8.421   6.898
21441TIP3    H164200   7.620   8.475   6.827
21441TIP3    H264201   7.621   8.464   6.976
21442TIP3   OH264202   7.557   8.579   6.700
21442TIP3    H164203   7.612   8.654   6.726
21442TIP3    H264204   7.612   8.537   6.629
21443TIP3   OH264205   7.020   9.098   6.047
21443TIP3    H164206   6.975   9.127   5.966
21443TIP3    H264207   7.050   9.184   6.085
21444TIP3   OH264208   8.039   8.160   6.613
21444TIP3    H164209   8.036   8.069   6.649
21444TIP3    H264210   7.973   8.204   6.672
21445TIP3   OH264211   7.953   8.895   5.863
21445TIP3    H164212   7.889   8.968   5.855
21445TIP3    H264213   8.025   8.924   5.804
21446TIP3   OH264214   7.929   8.707   5.600
21446TIP3    H164215   7.983   8.750   5.669
21446TIP3    H264216   7.994   8.647   5.559
21447TIP3   OH264217   7.567   9.017   6.264
21447TIP3    H164218   7.516   8.955   6.208
21447TIP3    H264219   7.632   8.956   6.306
21448TIP3   OH264220   8.180   8.872   5.690
21448TIP3    H164221   8.236   8.938   5.733
21448TIP3    H264222   8.196   8.891   5.595
21449TIP3   OH264223   8.675   8.106   5.729
21449TIP3    H164224   8.595   8.123   5.784
21449TIP3    H264225   8.683   8.191   5.682
21450TIP3   OH264226   7.422   8.850   6.084
21450TIP3    H164227   7.353   8.890   6.027
21450TIP3    H264228   7.385   8.763   6.101
21451TIP3   OH264229   7.220   9.636   6.165
21451TIP3    H164230   7.236   9.646   6.260
21451TIP3    H264231   7.150   9.569   6.166
21452TIP3   OH264232   7.994   9.690   5.409
21452TIP3    H164233   8.048   9.622   5.363
21452TIP3    H264234   8.029   9.684   5.499
21453TIP3   OH264235   7.812   8.232   6.760
21453TIP3    H164236   7.719   8.208   6.744
21453TIP3    H264237   7.797   8.318   6.804
21454TIP3   OH264238   8.239   8.919   5.430
21454TIP3    H164239   8.204   8.886   5.345
21454TIP3    H264240   8.325   8.954   5.403
21455TIP3   OH264241   7.952   8.286   5.734
21455TIP3    H164242   7.922   8.283   5.827
21455TIP3    H264243   7.914   8.202   5.701
21456TIP3   OH264244   7.618   8.632   6.292
21456TIP3    H164245   7.526   8.606   6.311
21456TIP3    H264246   7.632   8.590   6.204
21457TIP3   OH264247   8.100   8.710   6.007
21457TIP3    H164248   8.046   8.781   5.967
21457TIP3    H264249   8.150   8.676   5.931
21458TIP3   OH264250   7.607   8.258   5.699
21458TIP3    H164251   7.601   8.254   5.797
21458TIP3    H264252   7.527   8.309   5.678
21459TIP3   OH264253   7.164   8.299   6.560
21459TIP3    H164254   7.223   8.341   6.626
21459TIP3    H264255   7.221   8.296   6.482
21460TIP3   OH264256   7.130   8.288   6.096
21460TIP3    H164257   7.174   8.324   6.016
21460TIP3    H264258   7.066   8.361   6.113
21461TIP3   OH264259   7.937   8.465   6.357
21461TIP3    H164260   7.865   8.460   6.423
21461TIP3    H264261   8.016   8.461   6.413
21462TIP3   OH264262   7.382   8.513   6.364
21462TIP3    H164263   7.288   8.521   6.335
21462TIP3    H264264   7.408   8.424   6.336
21463TIP3   OH264265   7.649   8.506   6.052
21463TIP3    H164266   7.745   8.521   6.040
21463TIP3    H264267   7.609   8.534   5.967
21464TIP3   OH264268   7.491   8.547   5.829
21464TIP3    H164269   7.420   8.501   5.781
21464TIP3    H264270   7.544   8.582   5.755
21465TIP3   OH264271   7.552   8.276   6.329
21465TIP3    H164272   7.527   8.192   6.370
21465TIP3    H264273   7.618   8.250   6.264
21466TIP3   OH264274   7.742   9.082   5.835
21466TIP3    H164275   7.674   9.011   5.827
21466TIP3    H264276   7.731   9.111   5.929
21467TIP3   OH264277   8.199   8.393   5.685
21467TIP3    H164278   8.104   8.374   5.703
21467TIP3    H264279   8.211   8.484   5.721
21468TIP3   OH264280   8.268   8.632   5.795
21468TIP3    H164281   8.365   8.630   5.809
21468TIP3    H264282   8.256   8.717   5.748
21469TIP3   OH264283   7.421   9.032   6.498
21469TIP3    H164284   7.469   9.049   6.415
21469TIP3    H264285   7.489   8.992   6.553
21470TIP3   OH264286   7.879   9.223   5.637
21470TIP3    H164287   7.852   9.312   5.667
21470TIP3    H264288   7.842   9.168   5.709
21471TIP3   OH264289   8.720   8.713   5.622
21471TIP3    H164290   8.651   8.665   5.572
21471TIP3    H264291   8.714   8.798   5.573
21472TIP3   OH264292   7.539   9.391   6.157
21472TIP3    H164293   7.575   9.470   6.112
21472TIP3    H264294   7.445   9.396   6.133
21473TIP3   OH264295   7.101   8.705   5.840
21473TIP3    H164296   7.148   8.788   5.863
21473TIP3    H264297   7.025   8.709   5.903
21474TIP3   OH264298   7.703   9.175   6.091
21474TIP3    H164299   7.650   9.256   6.107
21474TIP3    H264300   7.656   9.111   6.148
21475TIP3   OH264301   7.393   9.670   5.953
21475TIP3    H164302   7.324   9.664   6.023
21475TIP3    H264303   7.476   9.664   6.004
21476TIP3   OH264304   8.164   9.272   5.447
21476TIP3    H164305   8.208   9.249   5.530
21476TIP3    H264306   8.073   9.245   5.468
21477TIP3   OH264307   7.469   8.507   7.100
21477TIP3    H164308   7.376   8.514   7.130
21477TIP3    H264309   7.508   8.444   7.163
21478TIP3   OH264310   7.537   9.251   5.448
21478TIP3    H164311   7.552   9.158   5.421
21478TIP3    H264312   7.517   9.239   5.544
21479TIP3   OH264313   7.483   9.257   5.720
21479TIP3    H164314   7.560   9.226   5.771
21479TIP3    H264315   7.488   9.355   5.732
21480TIP3   OH264316   7.218   8.950   5.924
21480TIP3    H164317   7.152   8.994   5.982
21480TIP3    H264318   7.231   9.020   5.858
21481TIP3   OH264319   8.240   8.317   5.963
21481TIP3    H164320   8.227   8.349   5.872
21481TIP3    H264321   8.281   8.396   6.006
21482TIP3   OH264322   7.747   9.468   5.684
21482TIP3    H164323   7.653   9.488   5.701
21482TIP3    H264324   7.768   9.536   5.618
21483TIP3   OH264325   7.925   8.511   6.086
21483TIP3    H164326   7.992   8.581   6.067
21483TIP3    H264327   7.934   8.503   6.183
21484TIP3   OH264328   8.078   8.241   6.185
21484TIP3    H164329   8.092   8.305   6.258
21484TIP3    H264330   8.137   8.278   6.116
21485TIP3   OH264331   7.486   9.533   5.736
21485TIP3    H164332   7.463   9.598   5.666
21485TIP3    H264333   7.445   9.579   5.813
21486TIP3   OH264334   7.594   8.241   5.976
21486TIP3    H164335   7.591   8.332   6.012
21486TIP3    H264336   7.690   8.223   5.985
21487TIP3   OH264337   7.209   9.160   5.730
21487TIP3    H164338   7.273   9.233   5.740
21487TIP3    H264339   7.256   9.106   5.663
21488TIP3   OH264340   7.152   8.435   5.865
21488TIP3    H164341   7.154   8.532   5.860
21488TIP3    H264342   7.068   8.414   5.824
21489TIP3   OH264343   7.539   8.153   6.737
21489TIP3    H164344   7.513   8.115   6.653
21489TIP3    H264345   7.537   8.077   6.798
21490TIP3   OH264346   7.081   9.366   6.116
21490TIP3    H164347   7.013   9.399   6.177
21490TIP3    H264348   7.054   9.411   6.033
21491TIP3   OH264349   7.703   9.451   5.361
21491TIP3    H164350   7.642   9.383   5.401
21491TIP3    H264351   7.775   9.393   5.331
21492TIP3   OH264352   8.136   9.499   5.276
21492TIP3    H164353   8.172   9.426   5.329
21492TIP3    H264354   8.184   9.493   5.191
21493TIP3   OH264355   7.346   8.973   5.582
21493TIP3    H164356   7.398   8.938   5.656
21493TIP3    H264357   7.415   8.977   5.512
21494TIP3   OH264358   7.851   9.167   5.376
21494TIP3    H164359   7.849   9.184   5.473
21494TIP3    H264360   7.851   9.069   5.376
21495TIP3   OH264361   7.554   8.877   5.806
21495TIP3    H164362   7.527   8.835   5.889
21495TIP3    H264363   7.590   8.801   5.756
21496TIP3   OH264364   7.652   8.670   5.645
21496TIP3    H164365   7.627   8.672   5.551
21496TIP3    H264366   7.750   8.676   5.639
21497TIP3   OH264367   8.469   9.003   5.302
21497TIP3    H164368   8.448   8.955   5.220
21497TIP3    H264369   8.441   9.094   5.277
21498TIP3   OH264370   7.463   9.734   5.551
21498TIP3    H164371   7.559   9.730   5.534
21498TIP3    H264372   7.434   9.780   5.470
21499TIP3   OH264373   6.940   9.115   5.764
21499TIP3    H164374   7.035   9.136   5.753
21499TIP3    H264375   6.936   9.025   5.725
21500TIP3   OH264376   6.848   9.726   6.179
21500TIP3    H164377   6.781   9.662   6.144
21500TIP3    H264378   6.899   9.668   6.239
21501TIP3   OH264379   7.000   9.583   6.355
21501TIP3    H164380   6.982   9.519   6.426
21501TIP3    H264381   6.988   9.666   6.405
21502TIP3   OH264382   8.672   8.937   5.475
21502TIP3    H164383   8.599   8.960   5.414
21502TIP3    H264384   8.676   9.017   5.530
21503TIP3   OH264385   8.537   8.634   5.438
21503TIP3    H164386   8.494   8.670   5.360
21503TIP3    H264387   8.511   8.540   5.432
21504TIP3   OH264388   7.178   8.977   6.738
21504TIP3    H164389   7.181   8.953   6.643
21504TIP3    H264390   7.259   9.032   6.748
21505TIP3   OH264391   8.479   8.371   5.420
21505TIP3    H164392   8.559   8.344   5.470
21505TIP3    H264393   8.410   8.311   5.454
21506TIP3   OH264394   8.541   8.620   5.840
21506TIP3    H164395   8.574   8.535   5.875
21506TIP3    H264396   8.621   8.656   5.800
21507TIP3   OH264397   8.644   8.385   5.952
21507TIP3    H164398   8.726   8.348   5.987
21507TIP3    H264399   8.589   8.305   5.939
21508TIP3   OH264400   7.360   8.366   6.736
21508TIP3    H164401   7.426   8.297   6.755
21508TIP3    H264402   7.415   8.446   6.743
21509TIP3   OH264403   7.161   8.633   6.815
21509TIP3    H164404   7.213   8.642   6.733
21509TIP3    H264405   7.173   8.721   6.856
21510TIP3   OH264406   8.722   8.314   5.530
21510TIP3    H164407   8.763   8.234   5.492
21510TIP3    H264408   8.799   8.360   5.568
21511TIP3   OH264409   7.135   8.120   6.305
21511TIP3    H164410   7.049   8.145   6.342
21511TIP3    H264411   7.144   8.186   6.232
21512TIP3   OH264412   7.357   8.206   7.131
21512TIP3    H164413   7.302   8.203   7.211
21512TIP3    H264414   7.296   8.252   7.069
21513TIP3   OH264415   8.179   8.354   6.443
21513TIP3    H164416   8.145   8.296   6.514
21513TIP3    H264417   8.261   8.307   6.415
21514TIP3   OH264418   7.436   8.044   6.469
21514TIP3    H164419   7.368   8.015   6.532
21514TIP3    H264420   7.502   7.972   6.477
21515TIP3   OH264421   7.892   8.098   6.374
21515TIP3    H164422   7.948   8.148   6.313
21515TIP3    H264423   7.927   8.129   6.460
21516TIP3   OH264424   8.397   8.229   6.338
21516TIP3    H164425   8.438   8.195   6.258
21516TIP3    H264426   8.419   8.159   6.402
21517TIP3   OH264427   8.474   8.165   5.914
21517TIP3    H164428   8.386   8.206   5.925
21517TIP3    H264429   8.461   8.081   5.962
21518TIP3   OH264430   6.958   9.504   5.920
21518TIP3    H164431   6.873   9.473   5.884
21518TIP3    H264432   6.950   9.599   5.900
21519TIP3   OH264433   7.360   8.103   5.887
21519TIP3    H164434   7.408   8.032   5.840
21519TIP3    H264435   7.432   8.150   5.933
21520TIP3   OH264436   7.870   8.261   5.999
21520TIP3    H164437   7.932   8.218   6.059
21520TIP3    H264438   7.886   8.354   6.025
21521TIP3   OH264439   7.726   9.691   5.489
21521TIP3    H164440   7.815   9.718   5.459
21521TIP3    H264441   7.710   9.614   5.431
21522TIP3   OH264442   7.033   9.529   5.555
21522TIP3    H164443   7.028   9.559   5.647
21522TIP3    H264444   7.123   9.490   5.550
21523TIP3   OH264445   9.411   8.542   5.190
21523TIP3    H164446   9.394   8.486   5.266
21523TIP3    H264447   9.323   8.574   5.164
21524TIP3   OH264448   8.958   8.570   5.584
21524TIP3    H164449   8.975   8.598   5.492
21524TIP3    H264450   8.876   8.620   5.602
21525TIP3   OH264451   8.942   8.693   5.342
21525TIP3    H164452   8.941   8.787   5.364
21525TIP3    H264453   8.851   8.674   5.316
21526TIP3   OH264454   8.900   8.360   5.739
21526TIP3    H164455   8.857   8.397   5.818
21526TIP3    H264456   8.939   8.441   5.700
21527TIP3   OH264457   9.039   8.169   5.604
21527TIP3    H164458   9.063   8.231   5.533
21527TIP3    H264459   8.992   8.229   5.666
21528TIP3   OH264460   9.145   8.349   5.376
21528TIP3    H164461   9.194   8.281   5.325
21528TIP3    H264462   9.210   8.380   5.439
21529TIP3   OH264463   1.210   9.086   7.269
21529TIP3    H164464   1.239   9.019   7.203
21529TIP3    H264465   1.238   9.169   7.229
21530TIP3   OH264466   3.271   9.668   7.665
21530TIP3    H164467   3.180   9.706   7.658
21530TIP3    H264468   3.302   9.682   7.573
21531TIP3   OH264469   2.635   9.563   7.278
21531TIP3    H164470   2.700   9.567   7.351
21531TIP3    H264471   2.660   9.641   7.227
21532TIP3   OH264472   2.845   9.592   7.452
21532TIP3    H164473   2.844   9.537   7.531
21532TIP3    H264474   2.928   9.640   7.461
21533TIP3   OH264475   2.183   9.722   6.814
21533TIP3    H164476   2.239   9.797   6.837
21533TIP3    H264477   2.235   9.682   6.742
21534TIP3   OH264478   2.929   9.150   6.914
21534TIP3    H164479   2.847   9.169   6.963
21534TIP3    H264480   2.940   9.232   6.863
21535TIP3   OH264481   2.202   9.329   6.908
21535TIP3    H164482   2.174   9.323   7.002
21535TIP3    H264483   2.163   9.246   6.875
21536TIP3   OH264484   2.374   9.749   7.133
21536TIP3    H164485   2.324   9.816   7.087
21536TIP3    H264486   2.442   9.725   7.067
21537TIP3   OH264487   1.860   9.303   6.869
21537TIP3    H164488   1.856   9.293   6.966
21537TIP3    H264489   1.781   9.357   6.852
21538TIP3   OH264490   1.941   9.503   7.145
21538TIP3    H164491   2.017   9.559   7.125
21538TIP3    H264492   1.869   9.542   7.091
21539TIP3   OH264493   1.717   9.574   7.005
21539TIP3    H164494   1.663   9.542   6.931
21539TIP3    H264495   1.758   9.654   6.965
21540TIP3   OH264496   1.747   9.250   7.424
21540TIP3    H164497   1.729   9.268   7.518
21540TIP3    H264498   1.837   9.285   7.414
21541TIP3   OH264499   2.452   9.437   6.874
21541TIP3    H164500   2.355   9.419   6.886
21541TIP3    H264501   2.461   9.533   6.888
21542TIP3   OH264502   2.546   9.697   6.931
21542TIP3    H164503   2.633   9.681   6.973
21542TIP3    H264504   2.561   9.782   6.887
21543TIP3   OH264505   2.958   9.761   6.825
21543TIP3    H164506   2.896   9.721   6.759
21543TIP3    H264507   2.974   9.846   6.782
21544TIP3   OH264508   2.494   9.370   7.150
21544TIP3    H164509   2.480   9.402   7.060
21544TIP3    H264510   2.538   9.447   7.194
21545TIP3   OH264511   2.203   9.559   7.250
21545TIP3    H164512   2.266   9.619   7.206
21545TIP3    H264513   2.202   9.601   7.338
21546TIP3   OH264514   2.333   9.281   7.365
21546TIP3    H164515   2.362   9.330   7.446
21546TIP3    H264516   2.382   9.330   7.295
21547TIP3   OH264517   1.844   9.245   7.135
21547TIP3    H164518   1.833   9.335   7.169
21547TIP3    H264519   1.939   9.233   7.151
21548TIP3   OH264520   1.899   9.723   6.860
21548TIP3    H164521   1.869   9.670   6.782
21548TIP3    H264522   1.996   9.717   6.853
21549TIP3   OH264523   2.789   9.688   6.621
21549TIP3    H164524   2.773   9.706   6.528
21549TIP3    H264525   2.767   9.592   6.624
21550TIP3   OH264526   2.816   9.936   7.179
21550TIP3    H164527   2.822   9.839   7.173
21550TIP3    H264528   2.825   9.950   7.275
21551TIP3   OH264529   2.737   9.423   6.617
21551TIP3    H164530   2.814   9.386   6.664
21551TIP3    H264531   2.666   9.359   6.634
21552TIP3   OH264532   2.796   9.671   7.054
21552TIP3    H164533   2.828   9.581   7.077
21552TIP3    H264534   2.861   9.697   6.986
21553TIP3   OH264535   2.907   9.421   7.099
21553TIP3    H164536   2.950   9.407   7.185
21553TIP3    H264537   2.843   9.348   7.098
21554TIP3   OH264538   2.988   9.357   6.732
21554TIP3    H164539   3.026   9.285   6.679
21554TIP3    H264540   3.057   9.426   6.726
21555TIP3   OH264541   2.442   9.360   7.610
21555TIP3    H164542   2.435   9.352   7.706
21555TIP3    H264543   2.538   9.363   7.596
21556TIP3   OH264544   2.984   9.283   7.560
21556TIP3    H164545   3.013   9.333   7.481
21556TIP3    H264546   2.886   9.289   7.553
21557TIP3   OH264547   3.071   9.382   7.321
21557TIP3    H164548   3.141   9.330   7.276
21557TIP3    H264549   3.104   9.473   7.303
21558TIP3   OH264550   1.493   8.952   7.288
21558TIP3    H164551   1.521   9.007   7.212
21558TIP3    H264552   1.465   9.022   7.350
21559TIP3   OH264553   2.165   9.092   7.519
21559TIP3    H164554   2.218   9.150   7.462
21559TIP3    H264555   2.142   9.156   7.590
21560TIP3   OH264556   2.708   9.273   7.541
21560TIP3    H164557   2.682   9.244   7.452
21560TIP3    H264558   2.700   9.191   7.593
21561TIP3   OH264559   2.722   9.209   7.093
21561TIP3    H164560   2.635   9.252   7.105
21561TIP3    H264561   2.706   9.123   7.139
21562TIP3   OH264562   1.598   9.122   7.079
21562TIP3    H164563   1.647   9.065   7.015
21562TIP3    H264564   1.673   9.173   7.115
21563TIP3   OH264565   2.131   9.288   7.175
21563TIP3    H164566   2.196   9.270   7.246
21563TIP3    H264567   2.117   9.383   7.192
21564TIP3   OH264568   3.166   9.887   6.979
21564TIP3    H164569   3.128   9.967   7.018
21564TIP3    H264570   3.088   9.834   6.958
21565TIP3   OH264571   4.996   9.915   7.147
21565TIP3    H164572   5.025   9.996   7.192
21565TIP3    H264573   5.022   9.935   7.055
21566TIP3   OH264574   4.380  10.085   7.183
21566TIP3    H164575   4.438  10.007   7.197
21566TIP3    H264576   4.356  10.073   7.090
21567TIP3   OH264577   3.736   9.758   7.151
21567TIP3    H164578   3.718   9.832   7.089
21567TIP3    H264579   3.689   9.685   7.103
21568TIP3   OH264580   4.430   9.847   6.775
21568TIP3    H164581   4.505   9.834   6.838
21568TIP3    H264582   4.480   9.882   6.698
21569TIP3   OH264583   3.371   9.953   7.259
21569TIP3    H164584   3.456   9.929   7.299
21569TIP3    H264585   3.381   9.913   7.170
21570TIP3   OH264586   3.820  10.148   7.067
21570TIP3    H164587   3.907  10.106   7.071
21570TIP3    H264588   3.768  10.085   7.013
21571TIP3   OH264589   5.077  10.111   7.327
21571TIP3    H164590   5.002  10.166   7.295
21571TIP3    H264591   5.109  10.165   7.401
21572TIP3   OH264592   3.745   9.738   7.588
21572TIP3    H164593   3.686   9.781   7.523
21572TIP3    H264594   3.692   9.741   7.669
21573TIP3   OH264595   4.641   9.854   6.945
21573TIP3    H164596   4.660   9.797   7.020
21573TIP3    H264597   4.693   9.933   6.966
21574TIP3   OH264598   3.607   9.851   7.372
21574TIP3    H164599   3.667   9.928   7.390
21574TIP3    H264600   3.653   9.811   7.295
21575TIP3   OH264601   4.794   9.813   7.310
21575TIP3    H164602   4.712   9.857   7.282
21575TIP3    H264603   4.858   9.846   7.244
21576TIP3   OH264604   4.092   9.462   7.303
21576TIP3    H164605   4.078   9.366   7.313
21576TIP3    H264606   4.011   9.497   7.346
21577TIP3   OH264607   3.978   9.983   6.300
21577TIP3    H164608   4.035  10.048   6.343
21577TIP3    H264609   4.040   9.940   6.238
21578TIP3   OH264610   4.633  10.330   7.422
21578TIP3    H164611   4.646  10.425   7.409
21578TIP3    H264612   4.535  10.325   7.407
21579TIP3   OH264613   4.724   9.405   6.398
21579TIP3    H164614   4.643   9.425   6.449
21579TIP3    H264615   4.736   9.489   6.349
21580TIP3   OH264616   4.851  10.302   7.606
21580TIP3    H164617   4.770  10.296   7.553
21580TIP3    H264618   4.874  10.208   7.616
21581TIP3   OH264619   3.853   9.541   7.427
21581TIP3    H164620   3.764   9.510   7.400
21581TIP3    H264621   3.827   9.622   7.475
21582TIP3   OH264622   4.620  10.068   7.529
21582TIP3    H164623   4.578  10.068   7.617
21582TIP3    H264624   4.610  10.160   7.499
21583TIP3   OH264625   4.000   9.584   6.396
21583TIP3    H164626   3.964   9.584   6.487
21583TIP3    H264627   3.960   9.500   6.363
21584TIP3   OH264628   3.776  10.056   7.437
21584TIP3    H164629   3.751  10.105   7.517
21584TIP3    H264630   3.797  10.127   7.375
21585TIP3   OH264631   3.669   9.935   6.959
21585TIP3    H164632   3.576   9.910   6.972
21585TIP3    H264633   3.684   9.900   6.868
21586TIP3   OH264634   4.167  10.024   6.687
21586TIP3    H164635   4.088  10.077   6.664
21586TIP3    H264636   4.210  10.010   6.600
21587TIP3   OH264637   4.302  10.042   6.926
21587TIP3    H164638   4.248  10.062   6.846
21587TIP3    H264639   4.347   9.963   6.889
21588TIP3   OH264640   3.654   9.556   6.365
21588TIP3    H164641   3.646   9.559   6.462
21588TIP3    H264642   3.578   9.611   6.338
21589TIP3   OH264643   3.191   9.604   7.232
21589TIP3    H164644   3.267   9.638   7.283
21589TIP3    H264645   3.231   9.574   7.149
21590TIP3   OH264646   3.171   9.580   6.757
21590TIP3    H164647   3.215   9.618   6.678
21590TIP3    H264648   3.112   9.654   6.778
21591TIP3   OH264649   4.367  10.276   7.368
21591TIP3    H164650   4.368  10.210   7.295
21591TIP3    H264651   4.287  10.251   7.415
21592TIP3   OH264652   3.994   9.747   7.018
21592TIP3    H164653   3.909   9.752   7.065
21592TIP3    H264654   4.052   9.792   7.082
21593TIP3   OH264655   3.428   9.817   7.024
21593TIP3    H164656   3.334   9.823   6.996
21593TIP3    H264657   3.453   9.727   6.999
21594TIP3   OH264658   3.703   9.813   6.716
21594TIP3    H164659   3.795   9.834   6.690
21594TIP3    H264660   3.651   9.837   6.637
21595TIP3   OH264661   4.490   9.834   7.223
21595TIP3    H164662   4.463   9.805   7.311
21595TIP3    H264663   4.440   9.773   7.167
21596TIP3   OH264664   3.525   9.821   6.501
21596TIP3    H164665   3.465   9.790   6.430
21596TIP3    H264666   3.570   9.895   6.454
21597TIP3   OH264667   4.079  10.041   7.112
21597TIP3    H164668   4.154  10.046   7.050
21597TIP3    H264669   4.102  10.108   7.178
21598TIP3   OH264670   3.603   9.580   6.993
21598TIP3    H164671   3.574   9.496   7.034
21598TIP3    H264672   3.648   9.549   6.913
21599TIP3   OH264673   4.247   9.698   6.365
21599TIP3    H164674   4.151   9.678   6.373
21599TIP3    H264675   4.253   9.794   6.385
21600TIP3   OH264676   4.318   9.959   6.451
21600TIP3    H164677   4.410   9.944   6.482
21600TIP3    H264678   4.327  10.045   6.407
21601TIP3   OH264679   4.757  10.019   6.309
21601TIP3    H164680   4.694   9.980   6.244
21601TIP3    H264681   4.760  10.110   6.277
21602TIP3   OH264682   4.290   9.640   6.644
21602TIP3    H164683   4.276   9.664   6.551
21602TIP3    H264684   4.330   9.722   6.681
21603TIP3   OH264685   3.990   9.816   6.746
21603TIP3    H164686   4.056   9.886   6.729
21603TIP3    H264687   3.989   9.813   6.844
21604TIP3   OH264688   4.273  10.053   7.581
21604TIP3    H164689   4.249  10.144   7.610
21604TIP3    H264690   4.367  10.057   7.610
21605TIP3   OH264691   4.125   9.547   6.852
21605TIP3    H164692   4.103   9.628   6.903
21605TIP3    H264693   4.187   9.585   6.784
21606TIP3   OH264694   3.636   9.543   6.643
21606TIP3    H164695   3.634   9.638   6.668
21606TIP3    H264696   3.732   9.527   6.650
21607TIP3   OH264697   4.889  10.031   7.545
21607TIP3    H164698   4.791  10.023   7.536
21607TIP3    H264699   4.916  10.017   7.453
21608TIP3   OH264700   4.529  10.217   6.909
21608TIP3    H164701   4.465  10.150   6.935
21608TIP3    H264702   4.608  10.195   6.962
21609TIP3   OH264703   3.186   9.741   6.538
21609TIP3    H164704   3.215   9.830   6.514
21609TIP3    H264705   3.115   9.723   6.475
21610TIP3   OH264706   3.589   9.453   7.404
21610TIP3    H164707   3.559   9.427   7.315
21610TIP3    H264708   3.572   9.373   7.457
21611TIP3   OH264709   3.683   9.980   6.345
21611TIP3    H164710   3.658   9.929   6.264
21611TIP3    H264711   3.780   9.983   6.340
21612TIP3   OH264712   4.006   9.957   7.797
21612TIP3    H164713   3.913   9.926   7.806
21612TIP3    H264714   3.991  10.054   7.784
21613TIP3   OH264715   4.105   9.616   7.668
21613TIP3    H164716   4.023   9.650   7.705
21613TIP3    H264717   4.079   9.522   7.658
21614TIP3   OH264718   4.486  10.029   7.770
21614TIP3    H164719   4.426  10.021   7.846
21614TIP3    H264720   4.570  10.008   7.816
21615TIP3   OH264721   4.707   9.980   7.934
21615TIP3    H164722   4.723   9.884   7.942
21615TIP3    H264723   4.720  10.011   8.025
21616TIP3   OH264724   4.223   9.588   7.945
21616TIP3    H164725   4.288   9.514   7.949
21616TIP3    H264726   4.191   9.580   7.854
21617TIP3   OH264727   4.393   9.802   8.009
21617TIP3    H164728   4.355   9.718   7.975
21617TIP3    H264729   4.315   9.840   8.051
21618TIP3   OH264730   4.588   9.942   6.108
21618TIP3    H164731   4.565   9.967   6.018
21618TIP3    H264732   4.566   9.846   6.107
21619TIP3   OH264733   4.623  10.194   6.656
21619TIP3    H164734   4.628  10.098   6.668
21619TIP3    H264735   4.602  10.223   6.747
21620TIP3   OH264736   5.036  10.478   7.517
21620TIP3    H164737   4.977  10.418   7.567
21620TIP3    H264738   5.123  10.439   7.534
21621TIP3   OH264739   4.534   9.676   6.098
21621TIP3    H164740   4.611   9.643   6.148
21621TIP3    H264741   4.463   9.614   6.122
21622TIP3   OH264742   4.582   9.918   6.550
21622TIP3    H164743   4.628   9.831   6.562
21622TIP3    H264744   4.642   9.960   6.486
21623TIP3   OH264745   4.751  10.101   7.035
21623TIP3    H164746   4.835  10.128   6.991
21623TIP3    H264747   4.770  10.139   7.123
21624TIP3   OH264748   4.835  10.231   7.263
21624TIP3    H164749   4.758  10.264   7.313
21624TIP3    H264750   4.883  10.315   7.244
21625TIP3   OH264751   5.267   9.814   7.829
21625TIP3    H164752   5.330   9.764   7.774
21625TIP3    H264753   5.249   9.893   7.775
21626TIP3   OH264754   4.703   9.676   6.588
21626TIP3    H164755   4.753   9.661   6.671
21626TIP3    H264756   4.643   9.599   6.588
21627TIP3   OH264757   3.403   9.660   7.405
21627TIP3    H164758   3.471   9.590   7.411
21627TIP3    H264759   3.459   9.740   7.397
21628TIP3   OH264760   3.268   9.945   7.514
21628TIP3    H164761   3.284   9.929   7.419
21628TIP3    H264762   3.241  10.037   7.513
21629TIP3   OH264763   5.128   9.979   7.655
21629TIP3    H164764   5.035  10.009   7.640
21629TIP3    H264765   5.128   9.902   7.594
21630TIP3   OH264766   4.782   9.615   6.217
21630TIP3    H164767   4.824   9.542   6.168
21630TIP3    H264768   4.851   9.684   6.215
21631TIP3   OH264769   3.187   9.441   6.986
21631TIP3    H164770   3.092   9.438   7.007
21631TIP3    H264771   3.188   9.497   6.905
21632TIP3   OH264772   3.413   9.478   7.789
21632TIP3    H164773   3.362   9.463   7.870
21632TIP3    H264774   3.364   9.552   7.746
21633TIP3   OH264775   5.045   9.739   7.519
21633TIP3    H164776   4.955   9.735   7.482
21633TIP3    H264777   5.076   9.647   7.505
21634TIP3   OH264778   4.264   9.657   7.161
21634TIP3    H164779   4.206   9.584   7.190
21634TIP3    H264780   4.321   9.613   7.095
21635TIP3   OH264781   4.772   9.538   7.044
21635TIP3    H164782   4.811   9.586   6.968
21635TIP3    H264783   4.677   9.554   7.033
21636TIP3   OH264784   4.867   9.635   6.807
21636TIP3    H164785   4.940   9.583   6.766
21636TIP3    H264786   4.902   9.726   6.791
21637TIP3   OH264787   3.498   9.369   7.158
21637TIP3    H164788   3.405   9.339   7.147
21637TIP3    H264789   3.546   9.283   7.149
21638TIP3   OH264790   3.292   9.232   6.804
21638TIP3    H164791   3.320   9.286   6.728
21638TIP3    H264792   3.257   9.299   6.866
21639TIP3   OH264793   3.942   9.396   7.034
21639TIP3    H164794   3.997   9.444   6.970
21639TIP3    H264795   3.963   9.441   7.116
21640TIP3   OH264796   4.487   9.544   7.018
21640TIP3    H164797   4.488   9.507   6.928
21640TIP3    H264798   4.474   9.464   7.072
21641TIP3   OH264799   4.519   9.465   6.579
21641TIP3    H164800   4.431   9.506   6.589
21641TIP3    H264801   4.504   9.379   6.626
21642TIP3   OH264802   3.402   9.392   6.566
21642TIP3    H164803   3.450   9.330   6.508
21642TIP3    H264804   3.475   9.447   6.600
21643TIP3   OH264805   3.913   9.569   6.662
21643TIP3    H164806   3.975   9.521   6.719
21643TIP3    H264807   3.935   9.661   6.687
21644TIP3   OH264808   3.654   9.549   8.006
21644TIP3    H164809   3.661   9.499   8.089
21644TIP3    H264810   3.702   9.632   8.029
21645TIP3   OH264811   3.973   9.574   8.116
21645TIP3    H164812   4.056   9.537   8.081
21645TIP3    H264813   3.983   9.548   8.209
21646TIP3   OH264814   4.779   9.714   7.943
21646TIP3    H164815   4.799   9.677   8.031
21646TIP3    H264816   4.867   9.707   7.899
21647TIP3   OH264817   4.963  10.145   6.466
21647TIP3    H164818   4.926  10.228   6.502
21647TIP3    H264819   4.884  10.094   6.446
21648TIP3   OH264820   6.138  10.358   6.669
21648TIP3    H164821   6.211  10.301   6.695
21648TIP3    H264822   6.143  10.354   6.572
21649TIP3   OH264823   5.534  10.014   6.635
21649TIP3    H164824   5.514  10.088   6.574
21649TIP3    H264825   5.484   9.942   6.591
21650TIP3   OH264826   6.229  10.099   6.259
21650TIP3    H164827   6.300  10.089   6.325
21650TIP3    H264828   6.279  10.137   6.185
21651TIP3   OH264829   5.156  10.193   6.755
21651TIP3    H164830   5.246  10.194   6.791
21651TIP3    H264831   5.173  10.166   6.663
21652TIP3   OH264832   5.625  10.417   6.517
21652TIP3    H164833   5.707  10.373   6.548
21652TIP3    H264834   5.569  10.342   6.490
21653TIP3   OH264835   5.527   9.997   7.074
21653TIP3    H164836   5.470  10.034   7.004
21653TIP3    H264837   5.474  10.020   7.154
21654TIP3   OH264838   6.445  10.114   6.431
21654TIP3    H164839   6.426  10.040   6.491
21654TIP3    H264840   6.527  10.149   6.468
21655TIP3   OH264841   5.404  10.110   6.857
21655TIP3    H164842   5.461  10.188   6.875
21655TIP3    H264843   5.453  10.071   6.781
21656TIP3   OH264844   5.889   9.717   6.784
21656TIP3    H164845   5.872   9.622   6.801
21656TIP3    H264846   5.813   9.757   6.832
21657TIP3   OH264847   5.772  10.229   5.789
21657TIP3    H164848   5.817  10.307   5.825
21657TIP3    H264849   5.833  10.201   5.719
21658TIP3   OH264850   6.520   9.662   5.884
21658TIP3    H164851   6.438   9.680   5.936
21658TIP3    H264852   6.532   9.746   5.837
21659TIP3   OH264853   5.648   9.792   6.913
21659TIP3    H164854   5.557   9.764   6.888
21659TIP3    H264855   5.628   9.876   6.958
21660TIP3   OH264856   5.797   9.840   5.883
21660TIP3    H164857   5.763   9.842   5.975
21660TIP3    H264858   5.756   9.757   5.852
21661TIP3   OH264859   5.576  10.317   6.923
21661TIP3    H164860   5.528  10.329   7.008
21661TIP3    H264861   5.568  10.406   6.885
21662TIP3   OH264862   5.465  10.194   6.446
21662TIP3    H164863   5.372  10.170   6.461
21662TIP3    H264864   5.478  10.157   6.356
21663TIP3   OH264865   5.964  10.280   6.170
21663TIP3    H164866   5.883  10.332   6.151
21663TIP3    H264867   6.003  10.266   6.082
21664TIP3   OH264868   6.105  10.311   6.400
21664TIP3    H164869   6.046  10.318   6.322
21664TIP3    H264870   6.151  10.229   6.374
21665TIP3   OH264871   5.429  10.331   7.153
21665TIP3    H164872   5.418  10.397   7.222
21665TIP3    H264873   5.394  10.250   7.194
21666TIP3   OH264874   5.449   9.813   5.851
21666TIP3    H164875   5.444   9.815   5.949
21666TIP3    H264876   5.373   9.870   5.829
21667TIP3   OH264877   4.991   9.858   6.721
21667TIP3    H164878   5.062   9.896   6.776
21667TIP3    H264879   5.037   9.830   6.641
21668TIP3   OH264880   4.966   9.838   6.238
21668TIP3    H164881   5.014   9.876   6.162
21668TIP3    H264882   4.908   9.913   6.262
21669TIP3   OH264883   5.790  10.004   6.506
21669TIP3    H164884   5.705  10.010   6.554
21669TIP3    H264885   5.850  10.041   6.572
21670TIP3   OH264886   5.225  10.077   6.509
21670TIP3    H164887   5.130  10.082   6.486
21670TIP3    H264888   5.248   9.985   6.489
21671TIP3   OH264889   5.500  10.067   6.204
21671TIP3    H164890   5.591  10.093   6.180
21671TIP3    H264891   5.447  10.093   6.125
21672TIP3   OH264892   6.266  10.085   6.706
21672TIP3    H164893   6.228  10.076   6.795
21672TIP3    H264894   6.203  10.027   6.657
21673TIP3   OH264895   5.325  10.078   5.986
21673TIP3    H164896   5.259  10.050   5.920
21673TIP3    H264897   5.366  10.154   5.939
21674TIP3   OH264898   5.866  10.306   6.593
21674TIP3    H164899   5.951  10.311   6.546
21674TIP3    H264900   5.896  10.330   6.682
21675TIP3   OH264901   5.395   9.835   6.482
21675TIP3    H164902   5.365   9.753   6.527
21675TIP3    H264903   5.446   9.800   6.407
21676TIP3   OH264904   5.845  10.239   6.919
21676TIP3    H164905   5.752  10.262   6.900
21676TIP3    H264906   5.887  10.326   6.917
21677TIP3   OH264907   6.042   9.956   5.848
21677TIP3    H164908   5.947   9.934   5.860
21677TIP3    H264909   6.048  10.051   5.871
21678TIP3   OH264910   6.117  10.213   5.935
21678TIP3    H164911   6.208  10.202   5.967
21678TIP3    H264912   6.121  10.300   5.892
21679TIP3   OH264913   6.535  10.259   5.803
21679TIP3    H164914   6.475  10.233   5.729
21679TIP3    H264915   6.561  10.348   5.775
21680TIP3   OH264916   5.373  10.083   7.294
21680TIP3    H164917   5.276  10.079   7.304
21680TIP3    H264918   5.402  10.020   7.362
21681TIP3   OH264919   6.090   9.893   6.129
21681TIP3    H164920   6.073   9.921   6.037
21681TIP3    H264921   6.127   9.975   6.168
21682TIP3   OH264922   5.787  10.072   6.235
21682TIP3    H164923   5.852  10.144   6.221
21682TIP3    H264924   5.784  10.067   6.333
21683TIP3   OH264925   5.922   9.803   6.339
21683TIP3    H164926   5.904   9.881   6.396
21683TIP3    H264927   5.982   9.842   6.271
21684TIP3   OH264928   5.434   9.799   6.127
21684TIP3    H164929   5.429   9.892   6.157
21684TIP3    H264930   5.530   9.784   6.137
21685TIP3   OH264931   4.990   9.995   6.012
21685TIP3    H164932   5.006  10.090   6.007
21685TIP3    H264933   4.902   9.984   5.976
21686TIP3   OH264934   5.383   9.713   6.888
21686TIP3    H164935   5.351   9.681   6.801
21686TIP3    H264936   5.372   9.634   6.945
21687TIP3   OH264937   5.484  10.237   5.827
21687TIP3    H164938   5.456  10.187   5.747
21687TIP3    H264939   5.581  10.230   5.823
21688TIP3   OH264940   5.793  10.048   7.110
21688TIP3    H164941   5.814  10.115   7.042
21688TIP3    H264942   5.696  10.043   7.103
21689TIP3   OH264943   5.927   9.814   7.130
21689TIP3    H164944   5.876   9.898   7.121
21689TIP3    H264945   5.855   9.751   7.149
21690TIP3   OH264946   6.377  10.199   5.587
21690TIP3    H164947   6.357  10.219   5.495
21690TIP3    H264948   6.357  10.103   5.589
21691TIP3   OH264949   6.381  10.457   6.143
21691TIP3    H164950   6.390  10.361   6.131
21691TIP3    H264951   6.388  10.467   6.239
21692TIP3   OH264952   6.330   9.932   5.582
21692TIP3    H164953   6.407   9.901   5.633
21692TIP3    H264954   6.259   9.871   5.609
21693TIP3   OH264955   6.388  10.184   6.040
21693TIP3    H164956   6.428  10.094   6.054
21693TIP3    H264957   6.442  10.212   5.963
21694TIP3   OH264958   5.235  10.206   7.544
21694TIP3    H164959   5.323  10.198   7.583
21694TIP3    H264960   5.188  10.137   7.595
21695TIP3   OH264961   6.490   9.932   6.075
21695TIP3    H164962   6.542   9.913   6.156
21695TIP3    H264963   6.430   9.854   6.073
21696TIP3   OH264964   5.195   9.919   6.901
21696TIP3    H164965   5.263   9.848   6.906
21696TIP3    H264966   5.251   9.997   6.887
21697TIP3   OH264967   4.998  10.202   6.976
21697TIP3    H164968   5.048  10.191   6.892
21697TIP3    H264969   5.015  10.295   6.994
21698TIP3   OH264970   6.576   9.873   5.701
21698TIP3    H164971   6.621   9.799   5.656
21698TIP3    H264972   6.645   9.942   5.701
21699TIP3   OH264973   4.984   9.695   6.465
21699TIP3    H164974   4.891   9.697   6.494
21699TIP3    H264975   4.983   9.755   6.388
21700TIP3   OH264976   5.204   9.780   7.284
21700TIP3    H164977   5.152   9.777   7.365
21700TIP3    H264978   5.138   9.817   7.221
21701TIP3   OH264979   6.058   9.911   6.631
21701TIP3    H164980   6.001   9.846   6.676
21701TIP3    H264981   6.115   9.856   6.576
21702TIP3   OH264982   6.559   9.809   6.546
21702TIP3    H164983   6.598   9.843   6.463
21702TIP3    H264984   6.463   9.809   6.525
21703TIP3   OH264985   6.653   9.881   6.300
21703TIP3    H164986   6.728   9.827   6.268
21703TIP3    H264987   6.682   9.969   6.265
21704TIP3   OH264988   5.295   9.620   6.640
21704TIP3    H164989   5.202   9.587   6.641
21704TIP3    H264990   5.344   9.535   6.636
21705TIP3   OH264991   5.078   9.490   6.285
21705TIP3    H164992   5.111   9.548   6.214
21705TIP3    H264993   5.052   9.555   6.353
21706TIP3   OH264994   5.739   9.651   6.520
21706TIP3    H164995   5.795   9.705   6.462
21706TIP3    H264996   5.755   9.693   6.606
21707TIP3   OH264997   6.285   9.796   6.494
21707TIP3    H164998   6.274   9.755   6.408
21707TIP3    H264999   6.270   9.720   6.555
21708TIP3   OH265000   6.313   9.719   6.064
21708TIP3    H165001   6.227   9.763   6.078
21708TIP3    H265002   6.299   9.635   6.112
21709TIP3   OH265003   5.198   9.650   6.051
21709TIP3    H165004   5.248   9.589   5.994
21709TIP3    H265005   5.269   9.706   6.087
21710TIP3   OH265006   5.711   9.825   6.149
21710TIP3    H165007   5.771   9.780   6.211
21710TIP3    H265008   5.730   9.918   6.174
21711TIP3   OH265009   5.499   9.898   7.537
21711TIP3    H165010   5.486   9.823   7.597
21711TIP3    H265011   5.595   9.901   7.529
21712TIP3   OH265012   6.757  10.405   5.907
21712TIP3    H165013   6.749  10.471   5.979
21712TIP3    H265014   6.692  10.339   5.933
21713TIP3   OH265015   7.611  10.083   5.353
21713TIP3    H165016   7.580  10.116   5.438
21713TIP3    H265017   7.554  10.005   5.339
21714TIP3   OH265018   7.248  10.072   5.332
21714TIP3    H165019   7.237  10.069   5.430
21714TIP3    H265020   7.173  10.130   5.309
21715TIP3   OH265021   6.753  10.084   6.156
21715TIP3    H165022   6.829  10.131   6.194
21715TIP3    H265023   6.797  10.042   6.079
21716TIP3   OH265024   6.763  10.098   5.721
21716TIP3    H165025   6.811  10.141   5.647
21716TIP3    H265026   6.709  10.173   5.752
21717TIP3   OH265027   7.131  10.310   5.488
21717TIP3    H165028   7.058  10.295   5.425
21717TIP3    H265029   7.171  10.390   5.447
21718TIP3   OH265030   7.221  10.041   5.606
21718TIP3    H165031   7.187  10.120   5.651
21718TIP3    H265032   7.300  10.020   5.658
21719TIP3   OH265033   6.792  10.254   5.490
21719TIP3    H165034   6.800  10.350   5.498
21719TIP3    H265035   6.699  10.241   5.469
21720TIP3   OH265036   7.265  10.480   5.321
21720TIP3    H165037   7.226  10.445   5.238
21720TIP3    H265038   7.356  10.499   5.294
21721TIP3   OH265039   6.771   9.929   5.929
21721TIP3    H165040   6.681   9.943   5.965
21721TIP3    H265041   6.776   9.998   5.859
21722TIP3   OH265042   7.071   9.855   6.057
21722TIP3    H165043   6.980   9.827   6.081
21722TIP3    H265044   7.123   9.779   6.087
21723TIP3   OH265045   6.874   9.737   5.763
21723TIP3    H165046   6.907   9.800   5.696
21723TIP3    H265047   6.845   9.799   5.833
21724TIP3   OH265048   6.988   9.902   5.532
21724TIP3    H165049   7.038   9.840   5.475
21724TIP3    H265050   7.062   9.957   5.567
21725TIP3   OH265051   6.778   2.149   9.531
21725TIP3    H165052   6.792   2.244   9.509
21725TIP3    H265053   6.869   2.114   9.516
21726TIP3   OH265054   6.256   2.361   9.630
21726TIP3    H165055   6.326   2.295   9.615
21726TIP3    H265056   6.272   2.385   9.722
21727TIP3   OH265057   6.550   1.608   9.675
21727TIP3    H165058   6.516   1.563   9.595
21727TIP3    H265059   6.640   1.630   9.646
21728TIP3   OH265060   6.758   2.207   9.795
21728TIP3    H165061   6.697   2.140   9.830
21728TIP3    H265062   6.761   2.181   9.700
21729TIP3   OH265063   6.815   2.420   9.518
21729TIP3    H165064   6.861   2.492   9.471
21729TIP3    H265065   6.732   2.468   9.539
21730TIP3   OH265066   5.984   2.105   9.592
21730TIP3    H165067   5.943   2.052   9.662
21730TIP3    H265068   6.072   2.063   9.586
21731TIP3   OH265069   6.434   2.163   9.506
21731TIP3    H165070   6.486   2.180   9.586
21731TIP3    H265071   6.499   2.172   9.433
21732TIP3   OH265072   6.785   1.682   9.556
21732TIP3    H165073   6.770   1.629   9.476
21732TIP3    H265074   6.755   1.770   9.526
21733TIP3   OH265075   6.810   2.502   9.800
21733TIP3    H165076   6.827   2.412   9.768
21733TIP3    H265077   6.747   2.536   9.734
21734TIP3   OH265078   7.590   2.161   9.209
21734TIP3    H165079   7.649   2.096   9.166
21734TIP3    H265080   7.643   2.186   9.286
21735TIP3   OH265081   7.520   2.451   9.452
21735TIP3    H165082   7.525   2.522   9.385
21735TIP3    H265083   7.591   2.475   9.511
21736TIP3   OH265084   7.300   2.106   9.448
21736TIP3    H165085   7.329   2.180   9.504
21736TIP3    H265086   7.363   2.109   9.375
21737TIP3   OH265087   7.754   2.317   9.065
21737TIP3    H165088   7.722   2.345   9.153
21737TIP3    H265089   7.846   2.348   9.081
21738TIP3   OH265090   7.572   2.663   9.288
21738TIP3    H165091   7.663   2.685   9.270
21738TIP3    H265092   7.530   2.708   9.212
21739TIP3   OH265093   7.029   2.051   9.490
21739TIP3    H165094   7.124   2.072   9.497
21739TIP3    H265095   7.032   1.959   9.456
21740TIP3   OH265096   7.002   2.657   9.915
21740TIP3    H165097   6.928   2.609   9.870
21740TIP3    H265098   7.014   2.601   9.994
21741TIP3   OH265099   7.061   2.419   9.658
21741TIP3    H165100   6.980   2.395   9.610
21741TIP3    H265101   7.049   2.513   9.671
21742TIP3   OH265102   7.824   2.579   9.141
21742TIP3    H165103   7.852   2.642   9.096
21742TIP3    H265104   7.878   2.571   9.231
21743TIP3   OH265105   7.133   2.461   9.302
21743TIP3    H165106   7.132   2.481   9.396
21743TIP3    H265107   7.221   2.421   9.289
21744TIP3   OH265108   4.616   3.705   9.628
21744TIP3    H165109   4.604   3.801   9.611
21744TIP3    H265110   4.710   3.692   9.602
21745TIP3   OH265111   4.616   3.988   9.653
21745TIP3    H165112   4.674   4.043   9.597
21745TIP3    H265113   4.544   4.053   9.666
21746TIP3   OH265114   7.836   5.421   0.541
21746TIP3    H165115   7.841   5.508   0.493
21746TIP3    H265116   7.821   5.364   0.462
21747TIP3   OH265117   6.309   3.840  10.016
21747TIP3    H165118   6.314   3.793  10.101
21747TIP3    H265119   6.334   3.930  10.041
21748TIP3   OH265120   5.965   4.307  10.034
21748TIP3    H165121   6.023   4.247   9.982
21748TIP3    H265122   6.012   4.312  10.118
21749TIP3   OH265123   5.952   3.762   9.833
21749TIP3    H165124   5.941   3.757   9.737
21749TIP3    H265125   5.930   3.857   9.847
21750TIP3   OH265126   6.111   4.150   9.869
21750TIP3    H165127   6.151   4.067   9.834
21750TIP3    H265128   6.167   4.215   9.820
21751TIP3   OH265129   6.229   3.927   9.760
21751TIP3    H165130   6.230   3.852   9.697
21751TIP3    H265131   6.270   3.887   9.839
21752TIP3   OH265132   5.907   3.398   9.746
21752TIP3    H165133   5.821   3.438   9.719
21752TIP3    H265134   5.957   3.401   9.662
21753TIP3   OH265135   5.878   3.189   9.503
21753TIP3    H165136   5.950   3.240   9.544
21753TIP3    H265137   5.931   3.126   9.449
21754TIP3   OH265138   6.261   3.487   9.758
21754TIP3    H165139   6.228   3.505   9.848
21754TIP3    H265140   6.352   3.460   9.781
21755TIP3   OH265141   6.109   3.348   9.571
21755TIP3    H165142   6.166   3.408   9.625
21755TIP3    H265143   6.136   3.373   9.479
21756TIP3   OH265144   5.858   4.017   9.854
21756TIP3    H165145   5.923   4.087   9.873
21756TIP3    H265146   5.782   4.069   9.822
21757TIP3   OH265147   6.619   2.591   9.622
21757TIP3    H165148   6.532   2.606   9.664
21757TIP3    H265149   6.631   2.673   9.570
21758TIP3   OH265150   6.418   3.960   9.177
21758TIP3    H165151   6.426   4.056   9.161
21758TIP3    H265152   6.511   3.930   9.164
21759TIP3   OH265153   5.733   4.277   9.655
21759TIP3    H165154   5.681   4.261   9.575
21759TIP3    H265155   5.692   4.358   9.691
21760TIP3   OH265156   5.930   4.178   9.296
21760TIP3    H165157   5.989   4.108   9.261
21760TIP3    H265158   5.963   4.188   9.388
21761TIP3   OH265159   5.981   4.223   9.564
21761TIP3    H165160   5.892   4.237   9.605
21761TIP3    H265161   6.031   4.188   9.639
21762TIP3   OH265162   6.183   3.402   9.320
21762TIP3    H165163   6.147   3.374   9.234
21762TIP3    H265164   6.265   3.447   9.292
21763TIP3   OH265165   5.881   2.800   9.607
21763TIP3    H165166   5.896   2.804   9.702
21763TIP3    H265167   5.894   2.704   9.593
21764TIP3   OH265168   6.071   3.213   9.877
21764TIP3    H165169   6.024   3.274   9.816
21764TIP3    H265170   6.127   3.164   9.812
21765TIP3   OH265171   5.529   2.743   9.610
21765TIP3    H165172   5.552   2.803   9.683
21765TIP3    H265173   5.462   2.796   9.563
21766TIP3   OH265174   5.433   3.016   9.701
21766TIP3    H165175   5.362   2.986   9.642
21766TIP3    H265176   5.479   3.079   9.642
21767TIP3   OH265177   5.675   3.559   9.724
21767TIP3    H165178   5.605   3.495   9.697
21767TIP3    H265179   5.666   3.553   9.821
21768TIP3   OH265180   6.143   2.879   9.578
21768TIP3    H165181   6.045   2.882   9.576
21768TIP3    H265182   6.168   2.969   9.607
21769TIP3   OH265183   6.232   3.118   9.676
21769TIP3    H165184   6.326   3.126   9.703
21769TIP3    H265185   6.219   3.198   9.622
21770TIP3   OH265186   5.837   3.714   9.560
21770TIP3    H165187   5.792   3.801   9.560
21770TIP3    H265188   5.776   3.661   9.615
21771TIP3   OH265189   6.656   3.211   9.532
21771TIP3    H165190   6.594   3.168   9.468
21771TIP3    H265191   6.655   3.300   9.491
21772TIP3   OH265192   6.358   4.031   9.440
21772TIP3    H165193   6.332   3.956   9.495
21772TIP3    H265194   6.371   3.990   9.352
21773TIP3   OH265195   5.422   4.096   9.861
21773TIP3    H165196   5.335   4.125   9.891
21773TIP3    H265197   5.475   4.176   9.880
21774TIP3   OH265198   6.113   3.757   9.343
21774TIP3    H165199   6.160   3.734   9.426
21774TIP3    H265200   6.022   3.733   9.366
21775TIP3   OH265201   6.451   4.234   9.163
21775TIP3    H165202   6.487   4.305   9.107
21775TIP3    H265203   6.371   4.280   9.196
21776TIP3   OH265204   6.272   3.703   9.574
21776TIP3    H165205   6.263   3.627   9.634
21776TIP3    H265206   6.367   3.695   9.549
21777TIP3   OH265207   5.483   3.737   9.342
21777TIP3    H165208   5.491   3.645   9.311
21777TIP3    H265209   5.458   3.724   9.436
21778TIP3   OH265210   5.430   3.737   9.616
21778TIP3    H165211   5.511   3.727   9.668
21778TIP3    H265212   5.422   3.835   9.611
21779TIP3   OH265213   6.107   2.850   9.848
21779TIP3    H165214   6.127   2.836   9.753
21779TIP3    H265215   6.195   2.878   9.881
21780TIP3   OH265216   5.693   3.942   9.564
21780TIP3    H165217   5.601   3.965   9.590
21780TIP3    H265218   5.710   4.014   9.501
21781TIP3   OH265219   5.431   4.006   9.607
21781TIP3    H165220   5.399   4.082   9.552
21781TIP3    H265221   5.422   4.044   9.697
21782TIP3   OH265222   5.144   3.648   9.596
21782TIP3    H165223   5.202   3.722   9.616
21782TIP3    H265224   5.202   3.590   9.543
21783TIP3   OH265225   6.411   4.371  10.085
21783TIP3    H165226   6.358   4.427  10.023
21783TIP3    H265227   6.499   4.411  10.072
21784TIP3   OH265228   5.642   3.944   9.255
21784TIP3    H165229   5.586   3.872   9.292
21784TIP3    H265230   5.716   3.892   9.218
21785TIP3   OH265231   6.078   3.985   9.165
21785TIP3    H165232   6.127   3.923   9.222
21785TIP3    H265233   6.131   3.987   9.083
21786TIP3   OH265234   5.289   3.454   9.467
21786TIP3    H165235   5.337   3.424   9.547
21786TIP3    H265236   5.363   3.460   9.402
21787TIP3   OH265237   5.801   3.660   9.284
21787TIP3    H165238   5.795   3.673   9.381
21787TIP3    H265239   5.797   3.562   9.278
21788TIP3   OH265240   5.479   3.366   9.673
21788TIP3    H165241   5.482   3.330   9.764
21788TIP3    H265242   5.517   3.292   9.623
21789TIP3   OH265243   5.599   3.154   9.539
21789TIP3    H165244   5.571   3.158   9.445
21789TIP3    H265245   5.697   3.163   9.528
21790TIP3   OH265246   6.418   3.489   9.201
21790TIP3    H165247   6.398   3.443   9.117
21790TIP3    H265248   6.386   3.579   9.177
21791TIP3   OH265249   5.401   4.221   9.439
21791TIP3    H165250   5.496   4.220   9.420
21791TIP3    H265251   5.369   4.272   9.362
21792TIP3   OH265252   4.870   3.623   9.589
21792TIP3    H165253   4.958   3.646   9.627
21792TIP3    H265254   4.879   3.525   9.583
21793TIP3   OH265255   6.666   4.474  10.069
21793TIP3    H165256   6.700   4.551  10.117
21793TIP3    H265257   6.699   4.495   9.980
21794TIP3   OH265258   6.548   3.678   9.534
21794TIP3    H165259   6.616   3.741   9.503
21794TIP3    H265260   6.594   3.638   9.612
21795TIP3   OH265261   6.677   3.546   9.736
21795TIP3    H165262   6.615   3.503   9.798
21795TIP3    H265263   6.747   3.581   9.795
21796TIP3   OH265264   6.715   3.928  10.092
21796TIP3    H165265   6.795   3.871  10.085
21796TIP3    H265266   6.746   4.011  10.050
21797TIP3   OH265267   6.616   3.451   9.386
21797TIP3    H165268   6.546   3.453   9.317
21797TIP3    H265269   6.589   3.528   9.439
21798TIP3   OH265270   6.485   3.126   9.340
21798TIP3    H165271   6.448   3.163   9.260
21798TIP3    H265272   6.460   3.031   9.331
21799TIP3   OH265273   6.492   3.398   9.881
21799TIP3    H165274   6.498   3.304   9.856
21799TIP3    H265275   6.473   3.393   9.976
21800TIP3   OH265276   6.430   2.860   9.329
21800TIP3    H165277   6.506   2.826   9.380
21800TIP3    H265278   6.358   2.798   9.348
21801TIP3   OH265279   6.508   3.139   9.758
21801TIP3    H165280   6.540   3.049   9.777
21801TIP3    H265281   6.565   3.163   9.682
21802TIP3   OH265282   6.595   2.869   9.816
21802TIP3    H165283   6.648   2.863   9.899
21802TIP3    H265284   6.558   2.779   9.809
21803TIP3   OH265285   6.679   2.800   9.451
21803TIP3    H165286   6.721   2.728   9.397
21803TIP3    H265287   6.746   2.871   9.443
21804TIP3   OH265288   6.240   4.324   9.714
21804TIP3    H165289   6.297   4.321   9.634
21804TIP3    H265290   6.280   4.397   9.765
21805TIP3   OH265291   6.403   2.646   9.786
21805TIP3    H165292   6.317   2.691   9.786
21805TIP3    H265293   6.409   2.618   9.880
21806TIP3   OH265294   4.888   4.013   9.728
21806TIP3    H165295   4.810   3.960   9.749
21806TIP3    H265296   4.849   4.101   9.704
21807TIP3   OH265297   5.670   4.181   9.391
21807TIP3    H165298   5.758   4.204   9.354
21807TIP3    H265299   5.648   4.106   9.331
21808TIP3   OH265300   6.390   4.299   9.483
21808TIP3    H165301   6.380   4.202   9.471
21808TIP3    H265302   6.344   4.332   9.404
21809TIP3   OH265303   4.973   4.018   9.451
21809TIP3    H165304   4.966   4.021   9.549
21809TIP3    H265305   5.062   3.976   9.439
21810TIP3   OH265306   7.875   3.820   9.452
21810TIP3    H165307   7.847   3.909   9.419
21810TIP3    H265308   7.807   3.765   9.408
21811TIP3   OH265309   7.797   3.810   9.802
21811TIP3    H165310   7.875   3.798   9.859
21811TIP3    H265311   7.834   3.797   9.713
21812TIP3   OH265312   7.190   3.734  10.191
21812TIP3    H165313   7.203   3.675  10.266
21812TIP3    H265314   7.277   3.731  10.145
21813TIP3   OH265315   8.122   4.117   9.494
21813TIP3    H165316   8.125   4.049   9.561
21813TIP3    H265317   8.149   4.197   9.545
21814TIP3   OH265318   7.151   4.122   9.920
21814TIP3    H165319   7.143   4.024   9.916
21814TIP3    H265320   7.245   4.132   9.898
21815TIP3   OH265321   6.858   3.326   9.691
21815TIP3    H165322   6.810   3.410   9.704
21815TIP3    H265323   6.787   3.269   9.659
21816TIP3   OH265324   6.916   3.605   9.858
21816TIP3    H165325   6.963   3.530   9.903
21816TIP3    H265326   6.980   3.628   9.789
21817TIP3   OH265327   7.772   4.584   9.514
21817TIP3    H165328   7.817   4.512   9.466
21817TIP3    H265329   7.763   4.547   9.602
21818TIP3   OH265330   7.657   4.039   9.875
21818TIP3    H165331   7.687   3.952   9.840
21818TIP3    H265332   7.737   4.092   9.866
21819TIP3   OH265333   7.400   3.211   9.877
21819TIP3    H165334   7.380   3.281   9.811
21819TIP3    H265335   7.367   3.132   9.828
21820TIP3   OH265336   7.062   3.408   9.974
21820TIP3    H165337   7.137   3.381  10.031
21820TIP3    H265338   7.077   3.349   9.897
21821TIP3   OH265339   7.492   3.597   9.766
21821TIP3    H165340   7.584   3.569   9.759
21821TIP3    H265341   7.446   3.517   9.730
21822TIP3   OH265342   7.773   4.035   9.310
21822TIP3    H165343   7.732   4.013   9.225
21822TIP3    H265344   7.728   4.119   9.331
21823TIP3   OH265345   7.518   3.961  10.104
21823TIP3    H165346   7.459   4.033  10.126
21823TIP3    H265347   7.574   4.000  10.034
21824TIP3   OH265348   7.290   3.324  10.101
21824TIP3    H165349   7.361   3.388  10.104
21824TIP3    H265350   7.327   3.260  10.037
21825TIP3   OH265351   6.753   3.843   9.428
21825TIP3    H165352   6.714   3.870   9.343
21825TIP3    H265353   6.784   3.929   9.465
21826TIP3   OH265354   8.176   4.345   9.652
21826TIP3    H165355   8.094   4.344   9.704
21826TIP3    H265356   8.179   4.438   9.621
21827TIP3   OH265357   7.897   4.407   9.345
21827TIP3    H165358   7.945   4.324   9.322
21827TIP3    H265359   7.958   4.472   9.302
21828TIP3   OH265360   8.036   4.193   9.246
21828TIP3    H165361   8.006   4.113   9.201
21828TIP3    H265362   8.072   4.156   9.330
21829TIP3   OH265363   7.716   3.677   9.267
21829TIP3    H165364   7.633   3.724   9.244
21829TIP3    H265365   7.758   3.667   9.180
21830TIP3   OH265366   7.671   3.449   8.987
21830TIP3    H165367   7.740   3.500   9.034
21830TIP3    H265368   7.728   3.387   8.937
21831TIP3   OH265369   8.046   3.746   9.245
21831TIP3    H165370   7.993   3.776   9.322
21831TIP3    H265371   8.126   3.715   9.289
21832TIP3   OH265372   7.290   3.749   9.653
21832TIP3    H165373   7.248   3.690   9.587
21832TIP3    H265374   7.365   3.694   9.685
21833TIP3   OH265375   7.408   4.154   9.806
21833TIP3    H165376   7.393   4.115   9.718
21833TIP3    H265377   7.497   4.120   9.828
21834TIP3   OH265378   7.416   3.718  10.020
21834TIP3    H165379   7.453   3.692   9.934
21834TIP3    H265380   7.470   3.797  10.044
21835TIP3   OH265381   7.958   4.351   9.824
21835TIP3    H165382   7.932   4.446   9.826
21835TIP3    H265383   7.899   4.314   9.891
21836TIP3   OH265384   7.898   3.603   9.064
21836TIP3    H165385   7.955   3.662   9.118
21836TIP3    H265386   7.925   3.628   8.972
21837TIP3   OH265387   7.643   4.287   9.345
21837TIP3    H165388   7.721   4.343   9.358
21837TIP3    H265389   7.580   4.347   9.302
21838TIP3   OH265390   7.157   3.590   9.462
21838TIP3    H165391   7.091   3.634   9.405
21838TIP3    H265392   7.117   3.503   9.475
21839TIP3   OH265393   8.215   4.216   8.664
21839TIP3    H165394   8.224   4.312   8.648
21839TIP3    H265395   8.307   4.185   8.652
21840TIP3   OH265396   6.799   4.179   9.998
21840TIP3    H165397   6.895   4.176   9.983
21840TIP3    H265398   6.789   4.260  10.050
21841TIP3   OH265399   7.525   4.533   9.144
21841TIP3    H165400   7.478   4.513   9.061
21841TIP3    H265401   7.491   4.621   9.166
21842TIP3   OH265402   6.962   4.383   9.527
21842TIP3    H165403   7.011   4.372   9.611
21842TIP3    H265404   6.901   4.307   9.532
21843TIP3   OH265405   7.727   4.434   8.784
21843TIP3    H165406   7.785   4.365   8.747
21843TIP3    H265407   7.761   4.442   8.876
21844TIP3   OH265408   7.777   4.483   9.056
21844TIP3    H165409   7.687   4.492   9.095
21844TIP3    H265410   7.824   4.436   9.126
21845TIP3   OH265411   7.973   3.659   8.811
21845TIP3    H165412   7.942   3.629   8.724
21845TIP3    H265413   8.058   3.701   8.786
21846TIP3   OH265414   7.697   3.025   9.109
21846TIP3    H165415   7.668   3.036   9.201
21846TIP3    H265416   7.643   2.949   9.082
21847TIP3   OH265417   7.348   3.387   9.670
21847TIP3    H165418   7.257   3.356   9.686
21847TIP3    H265419   7.367   3.342   9.584
21848TIP3   OH265420   7.845   3.466   9.393
21848TIP3    H165421   7.794   3.539   9.353
21848TIP3    H265422   7.899   3.434   9.319
21849TIP3   OH265423   7.347   3.001   9.081
21849TIP3    H165424   7.335   3.000   9.178
21849TIP3    H265425   7.268   3.051   9.053
21850TIP3   OH265426   6.911   3.073   9.920
21850TIP3    H165427   7.000   3.090   9.953
21850TIP3    H265428   6.928   3.013   9.844
21851TIP3   OH265429   6.862   3.027   9.470
21851TIP3    H165430   6.907   3.064   9.391
21851TIP3    H265431   6.801   3.101   9.490
21852TIP3   OH265432   7.627   3.262   9.716
21852TIP3    H165433   7.552   3.221   9.762
21852TIP3    H265434   7.698   3.236   9.778
21853TIP3   OH265435   7.118   3.259   9.746
21853TIP3    H165436   7.023   3.268   9.719
21853TIP3    H265437   7.141   3.169   9.719
21854TIP3   OH265438   7.385   3.254   9.432
21854TIP3    H165439   7.481   3.268   9.414
21854TIP3    H265440   7.342   3.280   9.347
21855TIP3   OH265441   7.230   3.289   9.210
21855TIP3    H165442   7.159   3.244   9.160
21855TIP3    H265443   7.282   3.326   9.136
21856TIP3   OH265444   7.297   3.026   9.702
21856TIP3    H165445   7.262   2.946   9.747
21856TIP3    H265446   7.326   2.990   9.618
21857TIP3   OH265447   7.480   3.821   9.217
21857TIP3    H165448   7.409   3.755   9.207
21857TIP3    H265449   7.463   3.854   9.309
21858TIP3   OH265450   7.940   3.144   9.057
21858TIP3    H165451   7.845   3.129   9.078
21858TIP3    H265452   7.960   3.228   9.105
21859TIP3   OH265453   8.030   3.382   9.177
21859TIP3    H165454   8.128   3.384   9.172
21859TIP3    H265455   8.004   3.458   9.122
21860TIP3   OH265456   7.179   3.848   9.887
21860TIP3    H165457   7.217   3.817   9.802
21860TIP3    H265458   7.216   3.784   9.949
21861TIP3   OH265459   7.628   3.970   9.040
21861TIP3    H165460   7.581   4.056   9.045
21861TIP3    H265461   7.573   3.914   9.099
21862TIP3   OH265462   8.466   3.425   8.916
21862TIP3    H165463   8.371   3.402   8.912
21862TIP3    H265464   8.461   3.522   8.907
21863TIP3   OH265465   8.154   4.286   8.928
21863TIP3    H165466   8.127   4.213   8.986
21863TIP3    H265467   8.167   4.242   8.842
21864TIP3   OH265468   7.276   4.144   9.519
21864TIP3    H165469   7.277   4.226   9.466
21864TIP3    H265470   7.181   4.129   9.527
21865TIP3   OH265471   6.839   3.449   9.222
21865TIP3    H165472   6.885   3.533   9.241
21865TIP3    H265473   6.762   3.455   9.282
21866TIP3   OH265474   7.417   3.912   9.465
21866TIP3    H165475   7.380   4.001   9.482
21866TIP3    H265476   7.378   3.861   9.537
21867TIP3   OH265477   7.550   4.480   9.965
21867TIP3    H165478   7.594   4.561   9.933
21867TIP3    H265479   7.610   4.449  10.034
21868TIP3   OH265480   7.196   4.383   9.372
21868TIP3    H165481   7.110   4.391   9.417
21868TIP3    H265482   7.228   4.476   9.374
21869TIP3   OH265483   7.907   4.017   8.830
21869TIP3    H165484   7.958   3.991   8.910
21869TIP3    H265485   7.818   3.988   8.856
21870TIP3   OH265486   8.249   4.491   8.650
21870TIP3    H165487   8.287   4.562   8.596
21870TIP3    H265488   8.168   4.537   8.681
21871TIP3   OH265489   8.063   3.954   9.051
21871TIP3    H165490   8.057   3.884   9.119
21871TIP3    H265491   8.157   3.946   9.026
21872TIP3   OH265492   6.987   4.373  10.130
21872TIP3    H165493   7.031   4.287  10.136
21872TIP3    H265494   7.019   4.412  10.213
21873TIP3   OH265495   7.275   3.997   8.829
21873TIP3    H165496   7.288   3.905   8.799
21873TIP3    H265497   7.255   3.984   8.923
21874TIP3   OH265498   7.220   4.001   9.101
21874TIP3    H165499   7.292   3.974   9.160
21874TIP3    H265500   7.224   4.099   9.108
21875TIP3   OH265501   6.955   3.695   9.304
21875TIP3    H165502   6.889   3.740   9.361
21875TIP3    H265503   6.969   3.764   9.237
21876TIP3   OH265504   7.907   3.125   9.333
21876TIP3    H165505   7.921   3.095   9.244
21876TIP3    H265506   7.992   3.095   9.372
21877TIP3   OH265507   7.486   4.200   9.052
21877TIP3    H165508   7.398   4.227   9.086
21877TIP3    H265509   7.500   4.268   8.985
21878TIP3   OH265510   7.657   3.265   9.447
21878TIP3    H165511   7.738   3.318   9.428
21878TIP3    H265512   7.654   3.271   9.545
21879TIP3   OH265513   7.229   4.274   9.117
21879TIP3    H165514   7.198   4.343   9.053
21879TIP3    H265515   7.212   4.318   9.203
21880TIP3   OH265516   7.331   2.988   9.360
21880TIP3    H165517   7.327   3.081   9.390
21880TIP3    H265518   7.427   2.972   9.368
21881TIP3   OH265519   6.945   3.905   9.111
21881TIP3    H165520   7.009   3.978   9.119
21881TIP3    H265521   6.992   3.851   9.043
21882TIP3   OH265522   6.890   3.179   9.246
21882TIP3    H165523   6.890   3.277   9.240
21882TIP3    H265524   6.811   3.156   9.196
21883TIP3   OH265525   8.206   4.624   9.590
21883TIP3    H165526   8.168   4.680   9.520
21883TIP3    H265527   8.302   4.632   9.571
21884TIP3   OH265528   6.818   4.117   9.499
21884TIP3    H165529   6.744   4.150   9.552
21884TIP3    H265530   6.796   4.157   9.412
21885TIP3   OH265531   7.439   4.201   8.744
21885TIP3    H165532   7.382   4.129   8.779
21885TIP3    H265533   7.512   4.148   8.708
21886TIP3   OH265534   7.874   4.242   8.653
21886TIP3    H165535   7.919   4.177   8.710
21886TIP3    H265536   7.929   4.241   8.572
21887TIP3   OH265537   7.081   3.718   8.962
21887TIP3    H165538   7.137   3.684   9.034
21887TIP3    H265539   7.148   3.722   8.890
21888TIP3   OH265540   7.591   3.915   8.770
21888TIP3    H165541   7.593   3.928   8.867
21888TIP3    H265542   7.591   3.817   8.764
21889TIP3   OH265543   7.291   3.620   9.186
21889TIP3    H165544   7.264   3.577   9.268
21889TIP3    H265545   7.327   3.544   9.134
21890TIP3   OH265546   7.390   3.413   9.025
21890TIP3    H165547   7.364   3.417   8.931
21890TIP3    H265548   7.487   3.419   9.018
21891TIP3   OH265549   8.209   3.745   8.686
21891TIP3    H165550   8.189   3.699   8.603
21891TIP3    H265551   8.178   3.836   8.662
21892TIP3   OH265552   7.198   4.477   8.930
21892TIP3    H165553   7.293   4.474   8.909
21892TIP3    H265554   7.165   4.525   8.852
21893TIP3   OH265555   6.678   3.857   9.148
21893TIP3    H165556   6.772   3.880   9.133
21893TIP3    H265557   6.672   3.769   9.105
21894TIP3   OH265558   6.594   4.471   9.557
21894TIP3    H165559   6.525   4.410   9.522
21894TIP3    H265560   6.636   4.413   9.624
21895TIP3   OH265561   6.726   4.322   9.744
21895TIP3    H165562   6.717   4.250   9.808
21895TIP3    H265563   6.784   4.383   9.795
21896TIP3   OH265564   8.470   4.721   9.547
21896TIP3    H165565   8.460   4.760   9.636
21896TIP3    H265566   8.482   4.797   9.489
21897TIP3   OH265567   8.337   3.935   9.008
21897TIP3    H165568   8.415   3.992   8.990
21897TIP3    H265569   8.345   3.917   9.104
21898TIP3   OH265570   8.344   3.822   9.263
21898TIP3    H165571   8.364   3.734   9.226
21898TIP3    H265572   8.434   3.856   9.275
21899TIP3   OH265573   8.411   3.705   8.865
21899TIP3    H165574   8.340   3.709   8.798
21899TIP3    H265575   8.386   3.782   8.919
21900TIP3   OH265576   8.212   3.383   8.827
21900TIP3    H165577   8.229   3.429   8.745
21900TIP3    H265578   8.212   3.289   8.798
21901TIP3   OH265579   6.935   3.771  10.083
21901TIP3    H165580   6.929   3.719  10.000
21901TIP3    H265581   7.027   3.753  10.111
21902TIP3   OH265582   8.227   3.112   8.801
21902TIP3    H165583   8.298   3.083   8.859
21902TIP3    H265584   8.149   3.059   8.827
21903TIP3   OH265585   6.876   2.893   9.702
21903TIP3    H165586   6.781   2.884   9.716
21903TIP3    H265587   6.880   2.945   9.619
21904TIP3   OH265588   8.043   4.589   9.207
21904TIP3    H165589   8.083   4.568   9.120
21904TIP3    H265590   8.105   4.655   9.241
21905TIP3   OH265591   7.219   4.639  10.001
21905TIP3    H165592   7.156   4.682  10.059
21905TIP3    H265593   7.217   4.694   9.921
21906TIP3   OH265594   7.657   4.706   9.816
21906TIP3    H165595   7.586   4.705   9.749
21906TIP3    H265596   7.647   4.794   9.853
21907TIP3   OH265597   7.919   4.617   9.851
21907TIP3    H165598   7.831   4.657   9.835
21907TIP3    H265599   7.979   4.691   9.829
21908TIP3   OH265600   8.094   4.818   9.778
21908TIP3    H165601   8.123   4.908   9.756
21908TIP3    H265602   8.148   4.762   9.720
21909TIP3   OH265603   6.903   4.477   9.893
21909TIP3    H165604   6.929   4.457   9.986
21909TIP3    H265605   6.980   4.437   9.847
21910TIP3   OH265606   7.101   4.346   9.759
21910TIP3    H165607   7.119   4.265   9.811
21910TIP3    H265608   7.190   4.388   9.757
21911TIP3   OH265609   7.364   4.445   9.761
21911TIP3    H165610   7.397   4.354   9.753
21911TIP3    H265611   7.400   4.468   9.849
21912TIP3   OH265612   7.208   2.809   9.831
21912TIP3    H165613   7.123   2.763   9.848
21912TIP3    H265614   7.253   2.797   9.916
21913TIP3   OH265615   6.964   2.677   9.506
21913TIP3    H165616   7.004   2.734   9.438
21913TIP3    H265617   6.951   2.739   9.580
21914TIP3   OH265618   6.694   4.247   9.298
21914TIP3    H165619   6.609   4.215   9.262
21914TIP3    H265620   6.684   4.342   9.279
21915TIP3   OH265621   7.093   2.837   9.281
21915TIP3    H165622   7.141   2.774   9.224
21915TIP3    H265623   7.167   2.891   9.316
21916TIP3   OH265624   7.614   3.004   9.381
21916TIP3    H165625   7.703   2.969   9.401
21916TIP3    H265626   7.630   3.099   9.404
21917TIP3   OH265627   7.467   4.438   8.878
21917TIP3    H165628   7.555   4.460   8.841
21917TIP3    H265629   7.444   4.363   8.819
21918TIP3   OH265630   8.179   4.551   8.972
21918TIP3    H165631   8.174   4.454   8.957
21918TIP3    H265632   8.138   4.585   8.889
21919TIP3   OH265633   6.770   4.272   8.935
21919TIP3    H165634   6.769   4.303   9.027
21919TIP3    H265635   6.859   4.233   8.926
21920TIP3   OH265636   8.550   4.099   8.920
21920TIP3    H165637   8.514   4.117   8.831
21920TIP3    H265638   8.579   4.186   8.951
21921TIP3   OH265639   9.308   4.765   8.628
21921TIP3    H165640   9.254   4.769   8.548
21921TIP3    H265641   9.293   4.855   8.666
21922TIP3   OH265642   8.760   4.638   9.007
21922TIP3    H165643   8.817   4.609   9.079
21922TIP3    H265644   8.687   4.575   9.014
21923TIP3   OH265645   9.519   4.685   8.258
21923TIP3    H165646   9.580   4.613   8.231
21923TIP3    H265647   9.550   4.705   8.348
21924TIP3   OH265648   9.556   4.732   8.530
21924TIP3    H165649   9.469   4.761   8.568
21924TIP3    H265650   9.554   4.638   8.555
21925TIP3   OH265651   9.346   4.216   8.524
21925TIP3    H165652   9.306   4.305   8.540
21925TIP3    H265653   9.378   4.191   8.612
21926TIP3   OH265654   9.010   4.464   9.044
21926TIP3    H165655   9.036   4.510   8.962
21926TIP3    H265656   8.983   4.378   9.012
21927TIP3   OH265657   8.636   3.709   8.704
21927TIP3    H165658   8.681   3.793   8.730
21927TIP3    H265659   8.563   3.707   8.769
21928TIP3   OH265660   8.994   4.660   8.846
21928TIP3    H165661   8.907   4.663   8.892
21928TIP3    H265662   9.004   4.755   8.823
21929TIP3   OH265663   9.959   4.724   8.068
21929TIP3    H165664  10.035   4.783   8.057
21929TIP3    H265665   9.913   4.770   8.140
21930TIP3   OH265666   9.071   4.253   8.316
21930TIP3    H165667   9.081   4.162   8.283
21930TIP3    H265668   9.056   4.238   8.411
21931TIP3   OH265669   9.020   4.262   8.592
21931TIP3    H165670   9.065   4.250   8.677
21931TIP3    H265671   9.015   4.360   8.588
21932TIP3   OH265672   8.753   3.949   8.774
21932TIP3    H165673   8.705   3.982   8.852
21932TIP3    H265674   8.758   4.030   8.719
21933TIP3   OH265675   9.273   4.471   8.556
21933TIP3    H165676   9.185   4.502   8.586
21933TIP3    H265677   9.294   4.541   8.493
21934TIP3   OH265678   9.011   4.533   8.604
21934TIP3    H165679   8.985   4.600   8.536
21934TIP3    H265680   9.002   4.585   8.686
21935TIP3   OH265681   8.741   4.168   8.597
21935TIP3    H165682   8.803   4.242   8.597
21935TIP3    H265683   8.785   4.111   8.529
21936TIP3   OH265684   8.660   3.422   8.677
21936TIP3    H165685   8.692   3.510   8.703
21936TIP3    H265686   8.612   3.400   8.759
21937TIP3   OH265687   8.615   4.375   9.001
21937TIP3    H165688   8.529   4.407   9.032
21937TIP3    H265689   8.612   4.407   8.909
21938TIP3   OH265690   9.235   4.454   8.230
21938TIP3    H165691   9.176   4.384   8.267
21938TIP3    H265692   9.307   4.399   8.195
21939TIP3   OH265693   9.679   4.486   8.145
21939TIP3    H165694   9.752   4.434   8.179
21939TIP3    H265695   9.710   4.504   8.053
21940TIP3   OH265696   8.870   3.984   8.440
21940TIP3    H165697   8.908   3.923   8.503
21940TIP3    H265698   8.941   3.986   8.371
21941TIP3   OH265699   9.379   4.172   8.251
21941TIP3    H165700   9.362   4.179   8.348
21941TIP3    H265701   9.380   4.075   8.240
21942TIP3   OH265702   8.990   4.725   8.407
21942TIP3    H165703   9.087   4.728   8.393
21942TIP3    H265704   8.961   4.780   8.332
21943TIP3   OH265705   8.475   4.113   8.638
21943TIP3    H165706   8.569   4.136   8.620
21943TIP3    H265707   8.468   4.025   8.594
21944TIP3   OH265708   8.377   4.726   9.049
21944TIP3    H165709   8.315   4.659   9.012
21944TIP3    H265710   8.431   4.670   9.109
21945TIP3   OH265711   8.522   4.581   9.230
21945TIP3    H165712   8.502   4.509   9.291
21945TIP3    H265713   8.581   4.637   9.285
21946TIP3   OH265714   8.729   4.723   9.364
21946TIP3    H165715   8.754   4.702   9.456
21946TIP3    H265716   8.815   4.715   9.320
21947TIP3   OH265717   8.488   4.503   8.794
21947TIP3    H165718   8.405   4.469   8.755
21947TIP3    H265719   8.482   4.596   8.766
21948TIP3   OH265720   9.260   4.694   8.357
21948TIP3    H165721   9.346   4.719   8.319
21948TIP3    H265722   9.240   4.615   8.302
21949TIP3   OH265723   8.567   4.531   8.422
21949TIP3    H165724   8.571   4.561   8.514
21949TIP3    H265725   8.655   4.489   8.409
21950TIP3   OH265726   4.159   5.458   9.881
21950TIP3    H165727   4.075   5.429   9.842
21950TIP3    H265728   4.130   5.493   9.966
21951TIP3   OH265729   3.728   4.757   9.631
21951TIP3    H165730   3.796   4.816   9.674
21951TIP3    H265731   3.790   4.694   9.587
21952TIP3   OH265732   3.930   4.904   9.730
21952TIP3    H165733   4.001   4.912   9.795
21952TIP3    H265734   3.974   4.934   9.647
21953TIP3   OH265735   4.260   5.516   9.327
21953TIP3    H165736   4.270   5.612   9.312
21953TIP3    H265737   4.353   5.486   9.316
21954TIP3   OH265738   3.594   5.853   9.797
21954TIP3    H165739   3.541   5.827   9.719
21954TIP3    H265740   3.564   5.944   9.815
21955TIP3   OH265741   3.770   5.732   9.446
21955TIP3    H165742   3.830   5.664   9.408
21955TIP3    H265743   3.809   5.743   9.535
21956TIP3   OH265744   3.834   5.778   9.707
21956TIP3    H165745   3.749   5.795   9.754
21956TIP3    H265746   3.891   5.744   9.778
21957TIP3   OH265747   4.019   4.951   9.474
21957TIP3    H165748   3.990   4.928   9.384
21957TIP3    H265749   4.099   5.004   9.454
21958TIP3   OH265750   3.671   5.263   9.689
21958TIP3    H165751   3.631   5.351   9.701
21958TIP3    H265752   3.618   5.209   9.749
21959TIP3   OH265753   4.514   4.777   9.666
21959TIP3    H165754   4.448   4.729   9.610
21959TIP3    H265755   4.495   4.867   9.632
21960TIP3   OH265756   4.184   5.588   9.590
21960TIP3    H165757   4.193   5.520   9.658
21960TIP3    H265758   4.210   5.542   9.508
21961TIP3   OH265759   3.945   5.314   9.488
21961TIP3    H165760   4.006   5.286   9.561
21961TIP3    H265761   3.861   5.289   9.527
21962TIP3   OH265762   4.291   5.792   9.312
21962TIP3    H165763   4.334   5.866   9.265
21962TIP3    H265764   4.211   5.838   9.343
21963TIP3   OH265765   4.105   5.236   9.693
21963TIP3    H165766   4.091   5.210   9.785
21963TIP3    H265767   4.203   5.241   9.689
21964TIP3   OH265768   3.323   5.299   9.493
21964TIP3    H165769   3.349   5.220   9.443
21964TIP3    H265770   3.302   5.259   9.579
21965TIP3   OH265771   3.525   5.496   9.697
21965TIP3    H165772   3.429   5.516   9.687
21965TIP3    H265773   3.562   5.555   9.630
21966TIP3   OH265774   3.260   5.561   9.729
21966TIP3    H165775   3.229   5.625   9.661
21966TIP3    H265776   3.271   5.625   9.803
21967TIP3   OH265777   3.485   5.504   9.402
21967TIP3    H165778   3.432   5.431   9.440
21967TIP3    H265779   3.559   5.455   9.362
21968TIP3   OH265780   3.918   5.542   9.314
21968TIP3    H165781   3.965   5.483   9.375
21968TIP3    H265782   3.977   5.543   9.236
21969TIP3   OH265783   3.172   5.066   9.622
21969TIP3    H165784   3.193   4.976   9.651
21969TIP3    H265785   3.210   5.062   9.532
21970TIP3   OH265786   3.625   5.212   9.425
21970TIP3    H165787   3.638   5.227   9.521
21970TIP3    H265788   3.629   5.114   9.422
21971TIP3   OH265789   3.432   4.785   9.672
21971TIP3    H165790   3.379   4.766   9.593
21971TIP3    H265791   3.522   4.770   9.640
21972TIP3   OH265792   4.256   5.045   9.351
21972TIP3    H165793   4.236   5.001   9.266
21972TIP3    H265794   4.226   5.137   9.329
21973TIP3   OH265795   3.236   5.773   9.569
21973TIP3    H165796   3.333   5.781   9.564
21973TIP3    H265797   3.211   5.832   9.496
21974TIP3   OH265798   4.382   5.237   9.680
21974TIP3    H165799   4.447   5.305   9.649
21974TIP3    H265800   4.433   5.195   9.753
21975TIP3   OH265801   4.523   5.101   9.867
21975TIP3    H165802   4.466   5.071   9.941
21975TIP3    H265803   4.600   5.140   9.912
21976TIP3   OH265804   4.453   5.010   9.536
21976TIP3    H165805   4.383   5.014   9.468
21976TIP3    H265806   4.429   5.088   9.589
21977TIP3   OH265807   4.334   4.677   9.493
21977TIP3    H165808   4.291   4.726   9.421
21977TIP3    H265809   4.307   4.585   9.473
21978TIP3   OH265810   4.274   4.412   9.469
21978TIP3    H165811   4.352   4.387   9.524
21978TIP3    H265812   4.201   4.364   9.511
21979TIP3   OH265813   4.515   4.370   9.598
21979TIP3    H165814   4.560   4.293   9.558
21979TIP3    H265815   4.588   4.436   9.597
21980TIP3   OH265816   4.076   5.889   9.857
21980TIP3    H165817   4.136   5.884   9.778
21980TIP3    H265818   4.121   5.959   9.909
21981TIP3   OH265819   3.511   5.745   9.539
21981TIP3    H165820   3.602   5.763   9.505
21981TIP3    H265821   3.487   5.673   9.477
21982TIP3   OH265822   4.231   5.855   9.630
21982TIP3    H165823   4.218   5.758   9.619
21982TIP3    H265824   4.188   5.889   9.549
21983TIP3   OH265825   2.839   5.607   9.611
21983TIP3    H165826   2.863   5.670   9.682
21983TIP3    H265827   2.924   5.561   9.594
21984TIP3   OH265828   5.731   5.368   9.570
21984TIP3    H165829   5.707   5.462   9.561
21984TIP3    H265830   5.644   5.327   9.566
21985TIP3   OH265831   5.714   5.374   9.954
21985TIP3    H165832   5.734   5.344  10.044
21985TIP3    H265833   5.671   5.295   9.917
21986TIP3   OH265834   5.958   5.677   9.651
21986TIP3    H165835   5.959   5.608   9.719
21986TIP3    H265836   5.999   5.752   9.698
21987TIP3   OH265837   5.019   5.657  10.109
21987TIP3    H165838   4.995   5.573  10.064
21987TIP3    H265839   5.101   5.681  10.061
21988TIP3   OH265840   4.701   4.874   9.840
21988TIP3    H165841   4.665   4.964   9.852
21988TIP3    H265842   4.638   4.840   9.772
21989TIP3   OH265843   4.781   5.160   9.943
21989TIP3    H165844   4.842   5.098   9.986
21989TIP3    H265845   4.840   5.208   9.883
21990TIP3   OH265846   5.613   6.137   9.669
21990TIP3    H165847   5.659   6.070   9.615
21990TIP3    H265848   5.610   6.093   9.755
21991TIP3   OH265849   5.520   5.590  10.009
21991TIP3    H165850   5.557   5.517   9.956
21991TIP3    H265851   5.597   5.647  10.017
21992TIP3   OH265852   6.545   4.934  10.020
21992TIP3    H165853   6.532   5.023  10.055
21992TIP3    H265854   6.559   4.952   9.926
21993TIP3   OH265855   5.943   5.102  10.059
21993TIP3    H165856   5.977   5.010  10.066
21993TIP3    H265857   5.911   5.099   9.966
21994TIP3   OH265858   5.316   4.756   9.973
21994TIP3    H165859   5.261   4.824   9.928
21994TIP3    H265860   5.250   4.719  10.037
21995TIP3   OH265861   5.967   4.850   9.641
21995TIP3    H165862   6.037   4.833   9.708
21995TIP3    H265863   6.021   4.885   9.568
21996TIP3   OH265864   5.358   5.158   9.867
21996TIP3    H165865   5.447   5.123   9.889
21996TIP3    H265866   5.306   5.076   9.850
21997TIP3   OH265867   5.619   5.594   9.449
21997TIP3    H165868   5.558   5.572   9.377
21997TIP3    H265869   5.577   5.677   9.482
21998TIP3   OH265870   6.176   4.849   9.818
21998TIP3    H165871   6.184   4.809   9.907
21998TIP3    H265872   6.229   4.929   9.833
21999TIP3   OH265873   4.584   5.403   9.588
21999TIP3    H165874   4.567   5.427   9.495
21999TIP3    H265875   4.642   5.475   9.619
22000TIP3   OH265876   6.031   5.911   9.814
22000TIP3    H165877   5.939   5.912   9.849
22000TIP3    H265878   6.034   6.000   9.773
22001TIP3   OH265879   6.305   4.790  10.067
22001TIP3    H165880   6.267   4.827  10.148
22001TIP3    H265881   6.391   4.835  10.061
22002TIP3   OH265882   5.737   5.969   9.493
22002TIP3    H165883   5.785   5.885   9.472
22002TIP3    H265884   5.799   6.033   9.451
22003TIP3   OH265885   5.869   5.748   9.400
22003TIP3    H165886   5.812   5.671   9.395
22003TIP3    H265887   5.926   5.726   9.477
22004TIP3   OH265888   5.552   5.212   9.400
22004TIP3    H165889   5.465   5.256   9.416
22004TIP3    H265890   5.572   5.251   9.314
22005TIP3   OH265891   5.509   5.001   9.140
22005TIP3    H165892   5.553   5.012   9.226
22005TIP3    H265893   5.575   4.950   9.089
22006TIP3   OH265894   6.453   5.454   9.998
22006TIP3    H165895   6.375   5.513  10.010
22006TIP3    H265896   6.489   5.493   9.915
22007TIP3   OH265897   5.886   5.309   9.340
22007TIP3    H165898   5.828   5.324   9.418
22007TIP3    H265899   5.965   5.277   9.388
22008TIP3   OH265900   5.121   5.294   9.821
22008TIP3    H165901   5.085   5.261   9.737
22008TIP3    H265902   5.208   5.248   9.825
22009TIP3   OH265903   5.247   5.704   9.957
22009TIP3    H165904   5.232   5.681   9.864
22009TIP3    H265905   5.337   5.670   9.974
22010TIP3   OH265906   5.331   5.274  10.114
22010TIP3    H165907   5.352   5.254  10.021
22010TIP3    H265908   5.395   5.342  10.138
22011TIP3   OH265909   5.784   5.925   9.929
22011TIP3    H165910   5.776   6.007   9.982
22011TIP3    H265911   5.778   5.853   9.994
22012TIP3   OH265912   5.488   5.841   9.495
22012TIP3    H165913   5.563   5.901   9.509
22012TIP3    H265914   5.422   5.899   9.454
22013TIP3   OH265915   6.257   4.406   9.265
22013TIP3    H165916   6.175   4.426   9.316
22013TIP3    H265917   6.270   4.489   9.216
22014TIP3   OH265918   5.007   5.141   9.605
22014TIP3    H165919   4.976   5.230   9.576
22014TIP3    H265920   4.929   5.086   9.590
22015TIP3   OH265921   6.054   5.777   8.814
22015TIP3    H165922   6.066   5.873   8.797
22015TIP3    H265923   6.146   5.744   8.798
22016TIP3   OH265924   5.367   6.092   9.294
22016TIP3    H165925   5.318   6.069   9.213
22016TIP3    H265926   5.331   6.180   9.316
22017TIP3   OH265927   4.803   5.942   9.678
22017TIP3    H165928   4.851   5.933   9.763
22017TIP3    H265929   4.748   5.861   9.681
22018TIP3   OH265930   5.570   5.990   8.932
22018TIP3    H165931   5.626   5.916   8.903
22018TIP3    H265932   5.600   6.002   9.025
22019TIP3   OH265933   5.617   6.039   9.203
22019TIP3    H165934   5.529   6.048   9.246
22019TIP3    H265935   5.669   5.999   9.274
22020TIP3   OH265936   5.534   4.586   9.264
22020TIP3    H165937   5.499   4.584   9.355
22020TIP3    H265938   5.491   4.506   9.227
22021TIP3   OH265939   5.188   4.947   9.820
22021TIP3    H165940   5.097   4.920   9.842
22021TIP3    H265941   5.197   4.910   9.729
22022TIP3   OH265942   5.695   5.029   9.551
22022TIP3    H165943   5.638   5.098   9.508
22022TIP3    H265944   5.751   5.003   9.475
22023TIP3   OH265945   5.853   5.057   9.794
22023TIP3    H165946   5.792   5.086   9.723
22023TIP3    H265947   5.884   4.973   9.752
22024TIP3   OH265948   5.186   4.560   9.227
22024TIP3    H165949   5.178   4.558   9.325
22024TIP3    H265950   5.108   4.614   9.204
22025TIP3   OH265951   4.705   4.585   9.612
22025TIP3    H165952   4.750   4.623   9.533
22025TIP3    H265953   4.644   4.659   9.632
22026TIP3   OH265954   5.805   5.288  10.200
22026TIP3    H165955   5.865   5.227  10.150
22026TIP3    H265956   5.864   5.321  10.269
22027TIP3   OH265957   5.560   4.768   9.865
22027TIP3    H165958   5.469   4.761   9.904
22027TIP3    H265959   5.616   4.754   9.944
22028TIP3   OH265960   4.963   4.807   9.906
22028TIP3    H165961   4.875   4.820   9.865
22028TIP3    H265962   4.989   4.718   9.877
22029TIP3   OH265963   5.231   4.812   9.584
22029TIP3    H165964   5.323   4.830   9.560
22029TIP3    H265965   5.181   4.835   9.503
22030TIP3   OH265966   6.000   4.841  10.076
22030TIP3    H165967   5.974   4.821  10.168
22030TIP3    H265968   5.955   4.770  10.029
22031TIP3   OH265969   5.074   4.840   9.363
22031TIP3    H165970   4.999   4.801   9.314
22031TIP3    H265971   5.125   4.878   9.288
22032TIP3   OH265972   5.612   5.098   9.957
22032TIP3    H165973   5.685   5.048   9.916
22032TIP3    H265974   5.607   5.061  10.047
22033TIP3   OH265975   5.109   4.548   9.849
22033TIP3    H165976   5.145   4.469   9.894
22033TIP3    H265977   5.185   4.575   9.797
22034TIP3   OH265978   5.331   5.371   9.383
22034TIP3    H165979   5.251   5.317   9.363
22034TIP3    H265980   5.304   5.413   9.468
22035TIP3   OH265981   6.223   5.602  10.011
22035TIP3    H165982   6.255   5.665   9.942
22035TIP3    H265983   6.138   5.575   9.974
22036TIP3   OH265984   5.783   4.691   9.238
22036TIP3    H165985   5.687   4.668   9.240
22036TIP3    H265986   5.784   4.788   9.248
22037TIP3   OH265987   5.853   4.954   9.324
22037TIP3    H165988   5.942   4.938   9.361
22037TIP3    H265989   5.875   5.000   9.242
22038TIP3   OH265990   4.984   5.395  10.030
22038TIP3    H165991   5.028   5.378   9.944
22038TIP3    H265992   5.012   5.318  10.080
22039TIP3   OH265993   5.472   5.526   9.204
22039TIP3    H165994   5.425   5.612   9.202
22039TIP3    H265995   5.410   5.472   9.258
22040TIP3   OH265996   6.294   5.024   9.169
22040TIP3    H165997   6.228   4.982   9.109
22040TIP3    H265998   6.292   5.114   9.128
22041TIP3   OH265999   5.963   5.825   9.076
22041TIP3    H166000   6.024   5.809   9.151
22041TIP3    H266001   6.017   5.799   9.000
22042TIP3   OH266002   5.976   5.471   9.932
22042TIP3    H166003   5.884   5.441   9.921
22042TIP3    H266004   6.023   5.401   9.882
22043TIP3   OH266005   5.119   5.705   9.685
22043TIP3    H166006   5.100   5.780   9.625
22043TIP3    H266007   5.053   5.639   9.654
22044TIP3   OH266008   4.672   4.999   9.368
22044TIP3    H166009   4.715   5.087   9.380
22044TIP3    H266010   4.597   5.008   9.431
22045TIP3   OH266011   5.280   5.477   9.634
22045TIP3    H166012   5.239   5.566   9.634
22045TIP3    H266013   5.207   5.427   9.674
22046TIP3   OH266014   5.388   6.046  10.113
22046TIP3    H166015   5.426   6.123  10.067
22046TIP3    H266016   5.453   6.027  10.181
22047TIP3   OH266017   5.035   5.941   9.519
22047TIP3    H166018   4.949   5.944   9.567
22047TIP3    H266019   5.062   6.035   9.522
22048TIP3   OH266020   5.787   5.695  10.087
22048TIP3    H166021   5.766   5.657  10.173
22048TIP3    H266022   5.852   5.633  10.048
22049TIP3   OH266023   5.761   5.506   9.059
22049TIP3    H166024   5.775   5.603   9.065
22049TIP3    H266025   5.670   5.506   9.022
22050TIP3   OH266026   6.086   6.050   8.800
22050TIP3    H166027   6.130   6.122   8.752
22050TIP3    H266028   6.007   6.098   8.831
22051TIP3   OH266029   5.122   5.554   8.979
22051TIP3    H166030   5.121   5.462   8.947
22051TIP3    H266031   5.105   5.542   9.074
22052TIP3   OH266032   5.069   5.553   9.250
22052TIP3    H166033   5.067   5.522   9.342
22052TIP3    H266034   5.070   5.650   9.262
22053TIP3   OH266035   4.772   5.238   9.437
22053TIP3    H166036   4.731   5.287   9.510
22053TIP3    H266037   4.838   5.305   9.411
22054TIP3   OH266038   5.831   4.640   9.510
22054TIP3    H166039   5.813   4.663   9.417
22054TIP3    H266040   5.866   4.724   9.547
22055TIP3   OH266041   5.334   5.758   9.200
22055TIP3    H166042   5.244   5.775   9.236
22055TIP3    H266043   5.338   5.827   9.132
22056TIP3   OH266044   5.518   4.821   9.603
22056TIP3    H166045   5.581   4.895   9.587
22056TIP3    H266046   5.527   4.811   9.700
22057TIP3   OH266047   5.666   4.558   9.716
22057TIP3    H166048   5.650   4.641   9.765
22057TIP3    H266049   5.728   4.589   9.646
22058TIP3   OH266050   5.073   5.830   9.266
22058TIP3    H166051   5.040   5.900   9.205
22058TIP3    H266052   5.055   5.870   9.353
22059TIP3   OH266053   5.169   4.545   9.501
22059TIP3    H166054   5.165   4.634   9.540
22059TIP3    H266055   5.264   4.525   9.514
22060TIP3   OH266056   6.075   5.237   9.792
22060TIP3    H166057   6.002   5.173   9.798
22060TIP3    H266058   6.149   5.189   9.835
22061TIP3   OH266059   4.774   5.483   9.238
22061TIP3    H166060   4.844   5.533   9.283
22061TIP3    H266061   4.829   5.421   9.184
22062TIP3   OH266062   4.734   4.736   9.388
22062TIP3    H166063   4.734   4.834   9.386
22062TIP3    H266064   4.648   4.717   9.349
22063TIP3   OH266065   6.046   6.185   9.739
22063TIP3    H166066   6.003   6.235   9.667
22063TIP3    H266067   6.140   6.203   9.720
22064TIP3   OH266068   4.661   5.694   9.668
22064TIP3    H166069   4.570   5.721   9.682
22064TIP3    H266070   4.668   5.704   9.572
22065TIP3   OH266071   5.282   5.759   8.894
22065TIP3    H166072   5.223   5.688   8.930
22065TIP3    H266073   5.353   5.706   8.856
22066TIP3   OH266074   5.727   5.784   8.809
22066TIP3    H166075   5.812   5.788   8.855
22066TIP3    H266076   5.757   5.798   8.716
22067TIP3   OH266077   4.920   5.277   9.110
22067TIP3    H166078   4.975   5.249   9.185
22067TIP3    H266079   4.988   5.280   9.040
22068TIP3   OH266080   5.449   5.480   8.923
22068TIP3    H166081   5.425   5.490   9.017
22068TIP3    H266082   5.446   5.383   8.913
22069TIP3   OH266083   5.135   5.176   9.337
22069TIP3    H166084   5.100   5.142   9.421
22069TIP3    H266085   5.163   5.096   9.290
22070TIP3   OH266086   5.228   4.966   9.175
22070TIP3    H166087   5.198   4.971   9.082
22070TIP3    H266088   5.324   4.981   9.164
22071TIP3   OH266089   6.055   5.298   8.846
22071TIP3    H166090   6.024   5.251   8.766
22071TIP3    H266091   6.023   5.388   8.823
22072TIP3   OH266092   5.039   6.040   9.082
22072TIP3    H166093   5.134   6.032   9.061
22072TIP3    H266094   5.008   6.083   9.000
22073TIP3   OH266095   4.518   5.416   9.297
22073TIP3    H166096   4.611   5.443   9.279
22073TIP3    H266097   4.518   5.326   9.259
22074TIP3   OH266098   4.433   6.033   9.701
22074TIP3    H166099   4.367   5.967   9.671
22074TIP3    H266100   4.478   5.981   9.773
22075TIP3   OH266101   4.557   5.900   9.898
22075TIP3    H166102   4.564   5.818   9.948
22075TIP3    H266103   4.606   5.963   9.954
22076TIP3   OH266104   6.300   6.278   9.697
22076TIP3    H166105   6.326   6.336   9.770
22076TIP3    H266106   6.351   6.316   9.624
22077TIP3   OH266107   6.188   5.481   9.167
22077TIP3    H166108   6.210   5.577   9.176
22077TIP3    H266109   6.234   5.446   9.246
22078TIP3   OH266110   6.317   5.350   9.375
22078TIP3    H166111   6.246   5.318   9.435
22078TIP3    H266112   6.369   5.408   9.433
22079TIP3   OH266113   6.341   5.733   9.802
22079TIP3    H166114   6.414   5.683   9.763
22079TIP3    H266115   6.353   5.820   9.759
22080TIP3   OH266116   6.202   6.033  10.017
22080TIP3    H166117   6.131   6.098  10.023
22080TIP3    H266118   6.171   5.977   9.944
22081TIP3   OH266119   6.257   5.258   9.022
22081TIP3    H166120   6.185   5.264   8.954
22081TIP3    H266121   6.238   5.341   9.072
22082TIP3   OH266122   6.113   4.943   8.983
22082TIP3    H166123   6.089   4.979   8.897
22082TIP3    H266124   6.089   4.848   8.970
22083TIP3   OH266125   6.114   5.216   9.517
22083TIP3    H166126   6.134   5.121   9.519
22083TIP3    H266127   6.105   5.237   9.612
22084TIP3   OH266128   6.069   4.675   8.965
22084TIP3    H166129   6.143   4.642   9.019
22084TIP3    H266130   5.996   4.615   8.987
22085TIP3   OH266131   6.119   4.925   9.415
22085TIP3    H166132   6.162   4.836   9.428
22085TIP3    H266133   6.179   4.962   9.348
22086TIP3   OH266134   6.290   5.105   9.903
22086TIP3    H166135   6.377   5.130   9.867
22086TIP3    H266136   6.299   5.142   9.993
22087TIP3   OH266137   6.340   5.242  10.136
22087TIP3    H166138   6.285   5.287  10.201
22087TIP3    H266139   6.388   5.316  10.094
22088TIP3   OH266140   6.234   4.679   9.452
22088TIP3    H166141   6.284   4.665   9.535
22088TIP3    H266142   6.173   4.602   9.453
22089TIP3   OH266143   6.318   4.614   9.088
22089TIP3    H166144   6.357   4.543   9.033
22089TIP3    H266145   6.384   4.686   9.080
22090TIP3   OH266146   4.743   4.461   9.847
22090TIP3    H166147   4.654   4.483   9.880
22090TIP3    H266148   4.746   4.514   9.765
22091TIP3   OH266149   5.878   6.150   9.353
22091TIP3    H166150   5.930   6.129   9.272
22091TIP3    H266151   5.939   6.208   9.400
22092TIP3   OH266152   5.077   6.233  10.167
22092TIP3    H166153   4.989   6.225  10.207
22092TIP3    H266154   5.058   6.255  10.075
22093TIP3   OH266155   5.494   6.259   9.966
22093TIP3    H166156   5.425   6.259   9.896
22093TIP3    H266157   5.490   6.351   9.995
22094TIP3   OH266158   5.760   6.182  10.027
22094TIP3    H166159   5.676   6.214   9.989
22094TIP3    H266160   5.824   6.249   9.995
22095TIP3   OH266161   5.941   6.372   9.927
22095TIP3    H166162   5.953   6.462   9.890
22095TIP3    H266163   5.987   6.316   9.862
22096TIP3   OH266164   4.752   6.044  10.035
22096TIP3    H166165   4.736   6.031  10.130
22096TIP3    H266166   4.827   5.985  10.013
22097TIP3   OH266167   4.948   5.902   9.909
22097TIP3    H166168   4.971   5.813   9.938
22097TIP3    H266169   5.036   5.944   9.902
22098TIP3   OH266170   5.207   6.006   9.910
22098TIP3    H166171   5.240   5.917   9.892
22098TIP3    H266172   5.246   6.021   9.998
22099TIP3   OH266173   5.785   4.657  10.006
22099TIP3    H166174   5.758   4.579  10.055
22099TIP3    H266175   5.855   4.620   9.949
22100TIP3   OH266176   6.299   4.527   9.887
22100TIP3    H166177   6.340   4.588   9.821
22100TIP3    H266178   6.218   4.576   9.909
22101TIP3   OH266179   6.404   4.642   9.663
22101TIP3    H166180   6.478   4.591   9.624
22101TIP3    H266181   6.437   4.734   9.650
22102TIP3   OH266182   4.792   4.249   9.649
22102TIP3    H166183   4.842   4.305   9.587
22102TIP3    H266184   4.779   4.310   9.725
22103TIP3   OH266185   5.533   4.387   9.893
22103TIP3    H166186   5.566   4.465   9.844
22103TIP3    H266187   5.458   4.421   9.944
22104TIP3   OH266188   6.004   4.542   9.886
22104TIP3    H166189   6.019   4.515   9.794
22104TIP3    H266190   5.997   4.456   9.932
22105TIP3   OH266191   6.052   4.466   9.445
22105TIP3    H166192   5.965   4.510   9.457
22105TIP3    H266193   6.035   4.381   9.491
22106TIP3   OH266194   4.533   5.802   9.448
22106TIP3    H166195   4.448   5.771   9.411
22106TIP3    H266196   4.522   5.897   9.438
22107TIP3   OH266197   4.934   4.396   9.430
22107TIP3    H166198   4.984   4.333   9.375
22107TIP3    H266199   5.006   4.450   9.468
22108TIP3   OH266200   5.448   4.567   9.529
22108TIP3    H166201   5.504   4.520   9.592
22108TIP3    H266202   5.471   4.660   9.551
22109TIP3   OH266203   5.307   5.997   9.027
22109TIP3    H166204   5.395   6.018   8.991
22109TIP3    H266205   5.285   5.921   8.968
22110TIP3   OH266206   6.019   6.106   9.119
22110TIP3    H166207   6.008   6.010   9.109
22110TIP3    H266208   5.978   6.140   9.037
22111TIP3   OH266209   4.612   5.835   9.087
22111TIP3    H166210   4.612   5.850   9.182
22111TIP3    H266211   4.698   5.790   9.074
22112TIP3   OH266212   7.519   5.629   9.076
22112TIP3    H166213   7.491   5.720   9.055
22112TIP3    H266214   7.442   5.580   9.042
22113TIP3   OH266215   7.520   5.624   9.450
22113TIP3    H166216   7.539   5.606   9.544
22113TIP3    H266217   7.471   5.545   9.423
22114TIP3   OH266218   6.825   5.524   9.814
22114TIP3    H166219   6.841   5.504   9.906
22114TIP3    H266220   6.901   5.579   9.790
22115TIP3   OH266221   7.758   5.924   9.137
22115TIP3    H166222   7.749   5.857   9.206
22115TIP3    H266223   7.786   6.002   9.187
22116TIP3   OH266224   6.793   5.936   9.553
22116TIP3    H166225   6.782   5.839   9.554
22116TIP3    H266226   6.889   5.942   9.534
22117TIP3   OH266227   6.497   5.137   9.333
22117TIP3    H166228   6.448   5.220   9.350
22117TIP3    H266229   6.426   5.084   9.293
22118TIP3   OH266230   6.559   5.430   9.503
22118TIP3    H166231   6.607   5.351   9.536
22118TIP3    H266232   6.606   5.452   9.422
22119TIP3   OH266233   7.378   6.377   9.134
22119TIP3    H166234   7.442   6.322   9.083
22119TIP3    H266235   7.396   6.345   9.223
22120TIP3   OH266236   7.304   5.846   9.501
22120TIP3    H166237   7.341   5.774   9.448
22120TIP3    H266238   7.386   5.899   9.515
22121TIP3   OH266239   7.743   5.357   9.532
22121TIP3    H166240   7.774   5.266   9.551
22121TIP3    H266241   7.698   5.344   9.446
22122TIP3   OH266242   7.067   5.016   9.502
22122TIP3    H166243   7.044   5.088   9.439
22122TIP3    H266244   7.020   4.941   9.458
22123TIP3   OH266245   7.755   5.109   9.123
22123TIP3    H166246   7.826   5.095   9.188
22123TIP3    H266247   7.806   5.143   9.047
22124TIP3   OH266248   6.700   5.218   9.609
22124TIP3    H166249   6.783   5.195   9.655
22124TIP3    H266250   6.709   5.161   9.529
22125TIP3   OH266251   7.141   5.415   9.398
22125TIP3    H166252   7.234   5.389   9.412
22125TIP3    H266253   7.100   5.332   9.366
22126TIP3   OH266254   7.065   4.997   9.939
22126TIP3    H166255   7.006   5.034   9.871
22126TIP3    H266256   7.005   4.985  10.013
22127TIP3   OH266257   7.411   5.850   8.946
22127TIP3    H166258   7.367   5.828   8.862
22127TIP3    H266259   7.369   5.937   8.966
22128TIP3   OH266260   7.142   5.775   9.733
22128TIP3    H166261   7.106   5.855   9.774
22128TIP3    H266262   7.209   5.811   9.672
22129TIP3   OH266263   7.962   5.106   9.298
22129TIP3    H166264   7.945   5.040   9.367
22129TIP3    H266265   8.057   5.117   9.299
22130TIP3   OH266266   6.936   5.111   9.722
22130TIP3    H166267   6.999   5.184   9.738
22130TIP3    H266268   6.979   5.068   9.644
22131TIP3   OH266269   6.421   5.657   9.050
22131TIP3    H166270   6.351   5.686   8.991
22131TIP3    H266271   6.392   5.703   9.132
22132TIP3   OH266272   8.102   5.103   9.665
22132TIP3    H166273   8.007   5.093   9.643
22132TIP3    H266274   8.146   5.070   9.587
22133TIP3   OH266275   7.422   4.717   9.654
22133TIP3    H166276   7.405   4.622   9.670
22133TIP3    H266277   7.343   4.756   9.698
22134TIP3   OH266278   7.556   6.228   8.998
22134TIP3    H166279   7.593   6.143   8.965
22134TIP3    H266280   7.601   6.290   8.937
22135TIP3   OH266281   7.674   6.006   8.886
22135TIP3    H166282   7.633   5.930   8.843
22135TIP3    H266283   7.707   5.966   8.969
22136TIP3   OH266284   7.350   5.480   8.907
22136TIP3    H166285   7.269   5.531   8.888
22136TIP3    H266286   7.393   5.479   8.819
22137TIP3   OH266287   7.309   5.264   8.624
22137TIP3    H166288   7.376   5.316   8.670
22137TIP3    H266289   7.366   5.201   8.576
22138TIP3   OH266290   7.696   5.563   8.877
22138TIP3    H166291   7.641   5.589   8.955
22138TIP3    H266292   7.780   5.540   8.921
22139TIP3   OH266293   6.927   5.561   9.294
22139TIP3    H166294   6.884   5.505   9.225
22139TIP3    H266295   7.004   5.507   9.319
22140TIP3   OH266296   7.056   5.973   9.444
22140TIP3    H166297   7.033   5.936   9.357
22140TIP3    H266298   7.143   5.930   9.461
22141TIP3   OH266299   7.078   5.524   9.651
22141TIP3    H166300   7.098   5.514   9.556
22141TIP3    H266301   7.105   5.617   9.669
22142TIP3   OH266302   7.539   5.418   8.703
22142TIP3    H166303   7.596   5.480   8.755
22142TIP3    H266304   7.564   5.443   8.611
22143TIP3   OH266305   7.284   6.101   8.975
22143TIP3    H166306   7.338   6.170   9.014
22143TIP3    H266307   7.213   6.153   8.933
22144TIP3   OH266308   8.054   4.663   8.752
22144TIP3    H166309   7.971   4.683   8.801
22144TIP3    H266310   8.066   4.745   8.700
22145TIP3   OH266311   6.796   5.403   9.100
22145TIP3    H166312   6.733   5.452   9.042
22145TIP3    H266313   6.747   5.321   9.112
22146TIP3   OH266314   7.849   6.029   8.298
22146TIP3    H166315   7.858   6.127   8.287
22146TIP3    H266316   7.943   6.001   8.287
22147TIP3   OH266317   6.443   5.971   9.682
22147TIP3    H166318   6.512   5.978   9.614
22147TIP3    H266319   6.409   6.061   9.690
22148TIP3   OH266320   7.161   6.347   8.782
22148TIP3    H166321   7.114   6.331   8.699
22148TIP3    H266322   7.129   6.436   8.808
22149TIP3   OH266323   6.605   6.207   9.162
22149TIP3    H166324   6.644   6.192   9.251
22149TIP3    H266325   6.553   6.123   9.153
22150TIP3   OH266326   7.362   6.249   8.418
22150TIP3    H166327   7.422   6.179   8.385
22150TIP3    H266328   7.394   6.259   8.511
22151TIP3   OH266329   7.409   6.294   8.685
22151TIP3    H166330   7.322   6.305   8.730
22151TIP3    H266331   7.464   6.260   8.757
22152TIP3   OH266332   7.184   4.800   9.773
22152TIP3    H166333   7.095   4.765   9.750
22152TIP3    H266334   7.157   4.880   9.822
22153TIP3   OH266335   7.615   5.467   8.448
22153TIP3    H166336   7.580   5.442   8.361
22153TIP3    H266337   7.692   5.520   8.423
22154TIP3   OH266338   7.328   4.842   8.750
22154TIP3    H166339   7.292   4.840   8.841
22154TIP3    H266340   7.287   4.761   8.715
22155TIP3   OH266341   7.118   5.303   9.795
22155TIP3    H166342   7.082   5.337   9.877
22155TIP3    H266343   7.106   5.382   9.736
22156TIP3   OH266344   6.997   5.195   9.311
22156TIP3    H166345   6.903   5.172   9.328
22156TIP3    H266346   7.009   5.156   9.222
22157TIP3   OH266347   7.487   5.283   9.040
22157TIP3    H166348   7.433   5.354   8.998
22157TIP3    H266349   7.541   5.252   8.964
22158TIP3   OH266350   7.643   5.314   9.276
22158TIP3    H166351   7.580   5.343   9.207
22158TIP3    H266352   7.675   5.233   9.232
22159TIP3   OH266353   6.982   4.816   8.717
22159TIP3    H166354   6.971   4.814   8.814
22159TIP3    H266355   6.904   4.869   8.690
22160TIP3   OH266356   6.525   4.868   9.583
22160TIP3    H166357   6.600   4.896   9.638
22160TIP3    H266358   6.566   4.833   9.503
22161TIP3   OH266359   6.500   4.843   9.107
22161TIP3    H166360   6.543   4.882   9.028
22161TIP3    H266361   6.437   4.915   9.128
22162TIP3   OH266362   7.659   5.552   9.707
22162TIP3    H166363   7.690   5.482   9.645
22162TIP3    H266364   7.597   5.505   9.763
22163TIP3   OH266365   7.325   5.018   9.375
22163TIP3    H166366   7.238   5.015   9.420
22163TIP3    H266367   7.386   5.019   9.450
22164TIP3   OH266368   6.758   5.073   9.382
22164TIP3    H166369   6.664   5.084   9.354
22164TIP3    H266370   6.778   4.982   9.356
22165TIP3   OH266371   7.029   5.071   9.069
22165TIP3    H166372   7.121   5.087   9.042
22165TIP3    H266373   6.978   5.093   8.987
22166TIP3   OH266374   7.819   5.089   9.573
22166TIP3    H166375   7.792   5.098   9.668
22166TIP3    H266376   7.750   5.029   9.540
22167TIP3   OH266377   6.870   5.100   8.850
22167TIP3    H166378   6.796   5.059   8.803
22167TIP3    H266379   6.920   5.137   8.774
22168TIP3   OH266380   7.407   5.348   9.471
22168TIP3    H166381   7.474   5.300   9.419
22168TIP3    H266382   7.411   5.303   9.558
22169TIP3   OH266383   6.935   4.833   9.349
22169TIP3    H166384   6.898   4.754   9.394
22169TIP3    H266385   6.976   4.795   9.271
22170TIP3   OH266386   7.385   5.247   9.740
22170TIP3    H166387   7.289   5.265   9.754
22170TIP3    H266388   7.423   5.280   9.822
22171TIP3   OH266389   7.123   5.633   8.858
22171TIP3    H166390   7.050   5.569   8.845
22171TIP3    H266391   7.102   5.668   8.948
22172TIP3   OH266392   7.579   4.945   8.719
22172TIP3    H166393   7.482   4.928   8.724
22172TIP3    H266394   7.587   5.040   8.740
22173TIP3   OH266395   7.648   5.194   8.822
22173TIP3    H166396   7.745   5.202   8.833
22173TIP3    H266397   7.626   5.273   8.768
22174TIP3   OH266398   6.824   5.660   9.535
22174TIP3    H166399   6.850   5.632   9.445
22174TIP3    H266400   6.841   5.580   9.586
22175TIP3   OH266401   7.266   5.784   8.678
22175TIP3    H166402   7.218   5.870   8.683
22175TIP3    H266403   7.210   5.729   8.738
22176TIP3   OH266404   8.089   5.284   8.657
22176TIP3    H166405   8.028   5.238   8.594
22176TIP3    H266406   8.085   5.373   8.615
22177TIP3   OH266407   7.788   6.103   8.562
22177TIP3    H166408   7.763   6.034   8.625
22177TIP3    H266409   7.801   6.054   8.479
22178TIP3   OH266410   7.775   5.728   9.401
22178TIP3    H166411   7.683   5.697   9.415
22178TIP3    H266412   7.814   5.655   9.352
22179TIP3   OH266413   6.910   5.959   9.157
22179TIP3    H166414   6.908   6.041   9.105
22179TIP3    H266415   6.815   5.940   9.164
22180TIP3   OH266416   6.480   5.263   8.860
22180TIP3    H166417   6.523   5.350   8.878
22180TIP3    H266418   6.401   5.269   8.918
22181TIP3   OH266419   7.054   5.727   9.104
22181TIP3    H166420   7.016   5.816   9.118
22181TIP3    H266421   7.013   5.677   9.176
22182TIP3   OH266422   6.835   6.197   9.009
22182TIP3    H166423   6.749   6.205   9.055
22182TIP3    H266424   6.865   6.291   9.012
22183TIP3   OH266425   7.545   5.961   9.556
22183TIP3    H166426   7.555   5.964   9.652
22183TIP3    H266427   7.628   5.917   9.532
22184TIP3   OH266428   7.545   5.828   8.465
22184TIP3    H166429   7.595   5.805   8.546
22184TIP3    H266430   7.455   5.804   8.492
22185TIP3   OH266431   7.883   6.304   8.287
22185TIP3    H166432   7.925   6.379   8.242
22185TIP3    H266433   7.802   6.349   8.320
22186TIP3   OH266434   7.704   5.765   8.684
22186TIP3    H166435   7.695   5.698   8.754
22186TIP3    H266436   7.801   5.763   8.670
22187TIP3   OH266437   6.630   6.191   9.782
22187TIP3    H166438   6.642   6.095   9.792
22187TIP3    H266439   6.644   6.223   9.871
22188TIP3   OH266440   6.915   5.811   8.464
22188TIP3    H166441   6.923   5.718   8.435
22188TIP3    H266442   6.894   5.799   8.560
22189TIP3   OH266443   6.860   5.815   8.735
22189TIP3    H166444   6.923   5.790   8.804
22189TIP3    H266445   6.860   5.913   8.743
22190TIP3   OH266446   6.604   5.506   8.934
22190TIP3    H166447   6.538   5.553   8.992
22190TIP3    H266448   6.611   5.576   8.866
22191TIP3   OH266449   7.756   5.134   9.838
22191TIP3    H166450   7.804   5.191   9.900
22191TIP3    H266451   7.691   5.095   9.897
22192TIP3   OH266452   7.619   4.896   8.997
22192TIP3    H166453   7.604   4.917   8.903
22192TIP3    H266454   7.656   4.981   9.031
22193TIP3   OH266455   7.124   6.015   8.688
22193TIP3    H166456   7.036   6.039   8.722
22193TIP3    H266457   7.138   6.087   8.625
22194TIP3   OH266458   7.316   5.074   9.100
22194TIP3    H166459   7.377   5.148   9.082
22194TIP3    H266460   7.316   5.072   9.198
22195TIP3   OH266461   7.458   4.807   9.207
22195TIP3    H166462   7.439   4.889   9.257
22195TIP3    H266463   7.516   4.842   9.136
22196TIP3   OH266464   6.867   6.088   8.754
22196TIP3    H166465   6.835   6.157   8.691
22196TIP3    H266466   6.848   6.131   8.841
22197TIP3   OH266467   6.966   4.801   8.994
22197TIP3    H166468   6.963   4.893   9.027
22197TIP3    H266469   7.062   4.784   9.001
22198TIP3   OH266470   7.875   5.473   9.282
22198TIP3    H166471   7.786   5.435   9.271
22198TIP3    H266472   7.899   5.438   9.368
22199TIP3   OH266473   6.581   5.717   8.747
22199TIP3    H166474   6.638   5.794   8.759
22199TIP3    H266475   6.631   5.669   8.677
22200TIP3   OH266476   6.529   4.994   8.881
22200TIP3    H166477   6.529   5.092   8.878
22200TIP3    H266478   6.447   4.974   8.834
22201TIP3   OH266479   6.920   4.718   9.753
22201TIP3    H166480   6.886   4.685   9.667
22201TIP3    H266481   6.905   4.640   9.811
22202TIP3   OH266482   6.477   5.971   9.144
22202TIP3    H166483   6.411   5.918   9.196
22202TIP3    H266484   6.426   5.982   9.061
22203TIP3   OH266485   7.076   6.015   8.379
22203TIP3    H166486   7.017   5.945   8.416
22203TIP3    H266487   7.149   5.961   8.346
22204TIP3   OH266488   7.512   6.055   8.289
22204TIP3    H166489   7.556   5.992   8.349
22204TIP3    H266490   7.571   6.056   8.212
22205TIP3   OH266491   6.720   5.533   8.596
22205TIP3    H166492   6.773   5.501   8.671
22205TIP3    H266493   6.789   5.537   8.526
22206TIP3   OH266494   7.232   5.731   8.406
22206TIP3    H166495   7.230   5.744   8.503
22206TIP3    H266496   7.227   5.634   8.401
22207TIP3   OH266497   6.933   5.435   8.825
22207TIP3    H166498   6.896   5.394   8.905
22207TIP3    H266499   6.964   5.357   8.774
22208TIP3   OH266500   7.026   5.226   8.663
22208TIP3    H166501   6.999   5.231   8.569
22208TIP3    H266502   7.123   5.234   8.654
22209TIP3   OH266503   7.853   5.560   8.323
22209TIP3    H166504   7.828   5.514   8.241
22209TIP3    H266505   7.819   5.650   8.301
22210TIP3   OH266506   7.333   5.071   9.970
22210TIP3    H166507   7.343   5.094   9.877
22210TIP3    H266508   7.240   5.042   9.973
22211TIP3   OH266509   6.834   6.291   8.567
22211TIP3    H166510   6.930   6.288   8.547
22211TIP3    H266511   6.802   6.338   8.488
22212TIP3   OH266512   6.308   5.677   8.767
22212TIP3    H166513   6.404   5.697   8.772
22212TIP3    H266514   6.309   5.584   8.735
22213TIP3   OH266515   6.223   6.285   9.191
22213TIP3    H166516   6.159   6.217   9.160
22213TIP3    H266517   6.272   6.233   9.258
22214TIP3   OH266518   6.351   6.153   9.385
22214TIP3    H166519   6.341   6.058   9.400
22214TIP3    H266520   6.414   6.182   9.453
22215TIP3   OH266521   7.983   5.749   8.656
22215TIP3    H166522   8.052   5.813   8.628
22215TIP3    H266523   8.027   5.709   8.735
22216TIP3   OH266524   8.109   5.614   8.858
22216TIP3    H166525   8.046   5.574   8.921
22216TIP3    H266526   8.179   5.651   8.916
22217TIP3   OH266527   8.049   5.521   8.510
22217TIP3    H166528   7.979   5.525   8.442
22217TIP3    H266529   8.023   5.599   8.564
22218TIP3   OH266530   7.922   5.195   8.464
22218TIP3    H166531   7.878   5.235   8.388
22218TIP3    H266532   7.896   5.101   8.453
22219TIP3   OH266533   7.926   5.469   9.009
22219TIP3    H166534   7.930   5.373   8.995
22219TIP3    H266535   7.916   5.476   9.107
22220TIP3   OH266536   6.554   5.537   9.756
22220TIP3    H166537   6.545   5.512   9.662
22220TIP3    H266538   6.652   5.540   9.765
22221TIP3   OH266539   7.864   4.930   8.451
22221TIP3    H166540   7.939   4.896   8.505
22221TIP3    H266541   7.791   4.870   8.473
22222TIP3   OH266542   7.925   5.189   8.907
22222TIP3    H166543   7.964   5.099   8.920
22222TIP3    H266544   7.981   5.221   8.834
22223TIP3   OH266545   8.029   4.936   8.943
22223TIP3    H166546   8.078   4.915   9.024
22223TIP3    H266547   7.967   4.860   8.938
22224TIP3   OH266548   6.731   4.922   9.757
22224TIP3    H166549   6.793   4.847   9.769
22224TIP3    H266550   6.793   4.997   9.752
22225TIP3   OH266551   6.542   5.194   9.840
22225TIP3    H166552   6.587   5.196   9.753
22225TIP3    H266553   6.542   5.288   9.864
22226TIP3   OH266554   8.115   4.871   8.576
22226TIP3    H166555   8.152   4.799   8.521
22226TIP3    H266556   8.180   4.942   8.565
22227TIP3   OH266557   6.518   4.701   9.335
22227TIP3    H166558   6.424   4.698   9.360
22227TIP3    H266559   6.515   4.759   9.256
22228TIP3   OH266560   7.659   6.408   8.824
22228TIP3    H166561   7.717   6.388   8.747
22228TIP3    H266562   7.727   6.430   8.890
22229TIP3   OH266563   6.734   4.753  10.121
22229TIP3    H166564   6.703   4.745  10.212
22229TIP3    H266565   6.670   4.818  10.084
22230TIP3   OH266566   6.861   6.433   9.623
22230TIP3    H166567   6.830   6.486   9.697
22230TIP3    H266568   6.854   6.496   9.549
22231TIP3   OH266569   6.543   6.290   9.543
22231TIP3    H166570   6.577   6.268   9.633
22231TIP3    H266571   6.616   6.252   9.489
22232TIP3   OH266572   6.735   6.162   9.399
22232TIP3    H166573   6.754   6.080   9.449
22232TIP3    H266574   6.824   6.201   9.388
22233TIP3   OH266575   7.003   6.260   9.392
22233TIP3    H166576   7.037   6.169   9.398
22233TIP3    H266577   7.001   6.289   9.484
22234TIP3   OH266578   7.586   4.915   9.500
22234TIP3    H166579   7.536   4.845   9.546
22234TIP3    H266580   7.644   4.863   9.442
22235TIP3   OH266581   8.110   4.811   9.406
22235TIP3    H166582   8.140   4.846   9.320
22235TIP3    H266583   8.013   4.806   9.393
22236TIP3   OH266584   8.197   4.896   9.163
22236TIP3    H166585   8.266   4.839   9.120
22236TIP3    H266586   8.231   4.984   9.136
22237TIP3   OH266587   6.828   4.623   9.506
22237TIP3    H166588   6.736   4.590   9.506
22237TIP3    H266589   6.877   4.537   9.502
22238TIP3   OH266590   6.617   4.491   9.154
22238TIP3    H166591   6.644   4.549   9.080
22238TIP3    H266592   6.585   4.556   9.219
22239TIP3   OH266593   7.272   4.652   9.385
22239TIP3    H166594   7.332   4.704   9.328
22239TIP3    H266595   7.286   4.692   9.472
22240TIP3   OH266596   7.833   4.800   9.365
22240TIP3    H166597   7.814   4.763   9.278
22240TIP3    H266598   7.812   4.724   9.423
22241TIP3   OH266599   7.848   4.724   8.933
22241TIP3    H166600   7.760   4.765   8.941
22241TIP3    H266601   7.832   4.638   8.978
22242TIP3   OH266602   6.336   6.053   8.922
22242TIP3    H166603   6.248   6.024   8.894
22242TIP3    H266604   6.322   6.149   8.925
22243TIP3   OH266605   6.730   4.649   8.919
22243TIP3    H166606   6.779   4.588   8.860
22243TIP3    H266607   6.802   4.705   8.954
22244TIP3   OH266608   7.243   4.825   9.015
22244TIP3    H166609   7.301   4.777   9.075
22244TIP3    H266610   7.266   4.918   9.040
22245TIP3   OH266611   7.103   6.252   8.515
22245TIP3    H166612   7.191   6.275   8.479
22245TIP3    H266613   7.081   6.177   8.456
22246TIP3   OH266614   7.825   6.370   8.607
22246TIP3    H166615   7.819   6.273   8.591
22246TIP3    H266616   7.785   6.406   8.525
22247TIP3   OH266617   6.408   6.092   8.574
22247TIP3    H166618   6.404   6.108   8.669
22247TIP3    H266619   6.496   6.048   8.564
22248TIP3   OH266620   8.283   5.390   8.822
22248TIP3    H166621   8.242   5.477   8.834
22248TIP3    H266622   8.212   5.342   8.775
22249TIP3   OH266623   8.353   5.675   8.968
22249TIP3    H166624   8.413   5.610   9.008
22249TIP3    H266625   8.409   5.721   8.904
22250TIP3   OH266626   8.839   5.253   8.989
22250TIP3    H166627   8.851   5.319   8.917
22250TIP3    H266628   8.854   5.171   8.939
22251TIP3   OH266629   8.473   5.452   9.099
22251TIP3    H166630   8.570   5.457   9.107
22251TIP3    H266631   8.468   5.399   9.017
22252TIP3   OH266632   8.187   5.915   8.553
22252TIP3    H166633   8.144   5.946   8.471
22252TIP3    H266634   8.216   6.001   8.592
22253TIP3   OH266635   9.101   5.521   8.105
22253TIP3    H166636   9.160   5.565   8.168
22253TIP3    H266637   9.164   5.462   8.058
22254TIP3   OH266638   9.844   4.914   8.234
22254TIP3    H166639   9.763   4.929   8.288
22254TIP3    H266640   9.847   4.995   8.181
22255TIP3   OH266641   8.581   5.642   8.566
22255TIP3    H166642   8.513   5.696   8.521
22255TIP3    H266643   8.530   5.566   8.597
22256TIP3   OH266644   9.389   5.742   7.921
22256TIP3    H166645   9.380   5.698   7.834
22256TIP3    H266646   9.482   5.770   7.920
22257TIP3   OH266647   9.129   5.102   8.230
22257TIP3    H166648   9.109   5.097   8.326
22257TIP3    H266649   9.086   5.020   8.200
22258TIP3   OH266650   8.788   5.428   8.777
22258TIP3    H166651   8.694   5.416   8.801
22258TIP3    H266652   8.789   5.395   8.685
22259TIP3   OH266653   8.779   5.074   8.201
22259TIP3    H166654   8.777   5.069   8.299
22259TIP3    H266655   8.698   5.124   8.182
22260TIP3   OH266656   8.302   5.124   9.069
22260TIP3    H166657   8.385   5.141   9.118
22260TIP3    H266658   8.334   5.088   8.984
22261TIP3   OH266659   8.296   5.099   8.594
22261TIP3    H166660   8.341   5.135   8.515
22261TIP3    H266661   8.234   5.172   8.613
22262TIP3   OH266662   8.540   5.321   8.859
22262TIP3    H166663   8.447   5.337   8.831
22262TIP3    H266664   8.557   5.231   8.827
22263TIP3   OH266665   8.816   5.310   8.533
22263TIP3    H166666   8.899   5.353   8.508
22263TIP3    H266667   8.755   5.338   8.461
22264TIP3   OH266668   8.652   5.364   8.328
22264TIP3    H166669   8.583   5.318   8.277
22264TIP3    H266670   8.709   5.397   8.255
22265TIP3   OH266671   8.868   5.898   8.338
22265TIP3    H166672   8.822   5.811   8.334
22265TIP3    H266673   8.886   5.902   8.434
22266TIP3   OH266674   9.372   5.222   8.206
22266TIP3    H166675   9.277   5.196   8.208
22266TIP3    H266676   9.367   5.316   8.185
22267TIP3   OH266677   8.271   5.520   8.344
22267TIP3    H166678   8.317   5.603   8.365
22267TIP3    H266679   8.194   5.525   8.406
22268TIP3   OH266680   8.700   6.065   7.952
22268TIP3    H166681   8.722   5.976   7.920
22268TIP3    H266682   8.678   6.048   8.045
22269TIP3   OH266683   8.639   6.061   8.224
22269TIP3    H166684   8.691   5.996   8.275
22269TIP3    H266685   8.667   6.143   8.268
22270TIP3   OH266686   8.379   5.766   8.426
22270TIP3    H166687   8.317   5.812   8.485
22270TIP3    H266688   8.395   5.836   8.360
22271TIP3   OH266689   9.451   5.146   8.459
22271TIP3    H166690   9.421   5.171   8.370
22271TIP3    H266691   9.420   5.221   8.512
22272TIP3   OH266692   9.080   5.390   8.552
22272TIP3    H166693   9.168   5.349   8.558
22272TIP3    H266694   9.049   5.385   8.644
22273TIP3   OH266695   9.308   5.025   8.708
22273TIP3    H166696   9.227   5.047   8.756
22273TIP3    H266697   9.315   5.097   8.643
22274TIP3   OH266698   8.757   5.047   8.476
22274TIP3    H166699   8.769   5.138   8.511
22274TIP3    H266700   8.824   5.000   8.529
22275TIP3   OH266701   8.372   5.973   8.230
22275TIP3    H166702   8.435   6.046   8.239
22275TIP3    H266703   8.423   5.917   8.166
22276TIP3   OH266704   8.323   5.250   8.368
22276TIP3    H166705   8.324   5.348   8.363
22276TIP3    H266706   8.239   5.229   8.325
22277TIP3   OH266707   8.696   4.973   9.269
22277TIP3    H166708   8.686   4.954   9.172
22277TIP3    H266709   8.715   4.883   9.301
22278TIP3   OH266710   8.241   6.173   8.630
22278TIP3    H166711   8.185   6.228   8.686
22278TIP3    H266712   8.242   6.227   8.549
22279TIP3   OH266713   8.851   6.269   7.844
22279TIP3    H166714   8.802   6.195   7.885
22279TIP3    H266715   8.937   6.262   7.889
22280TIP3   OH266716   8.517   5.787   8.087
22280TIP3    H166717   8.568   5.748   8.161
22280TIP3    H266718   8.586   5.790   8.018
22281TIP3   OH266719   9.014   5.985   7.889
22281TIP3    H166720   9.013   5.996   7.986
22281TIP3    H266721   9.024   5.888   7.882
22282TIP3   OH266722   8.705   5.682   8.308
22282TIP3    H166723   8.684   5.650   8.398
22282TIP3    H266724   8.744   5.602   8.266
22283TIP3   OH266725   8.823   5.481   8.149
22283TIP3    H166726   8.797   5.486   8.055
22283TIP3    H266727   8.920   5.489   8.141
22284TIP3   OH266728   8.106   5.929   8.266
22284TIP3    H166729   8.202   5.951   8.257
22284TIP3    H266730   8.104   5.839   8.227
22285TIP3   OH266731   9.630   5.462   7.945
22285TIP3    H166732   9.699   5.491   7.883
22285TIP3    H266733   9.626   5.366   7.925
22286TIP3   OH266734   9.630   5.191   7.911
22286TIP3    H166735   9.718   5.172   7.951
22286TIP3    H266736   9.570   5.127   7.953
22287TIP3   OH266737   8.508   5.159   9.242
22287TIP3    H166738   8.561   5.077   9.255
22287TIP3    H266739   8.578   5.216   9.205
22288TIP3   OH266740   9.884   5.155   8.005
22288TIP3    H166741   9.940   5.082   7.970
22288TIP3    H266742   9.947   5.194   8.069
22289TIP3   OH266743   8.309   4.970   8.830
22289TIP3    H166744   8.214   4.956   8.842
22289TIP3    H266745   8.312   5.020   8.746
22290TIP3   OH266746   8.618   4.888   9.022
22290TIP3    H166747   8.533   4.848   8.999
22290TIP3    H266748   8.681   4.827   8.979
22291TIP3   OH266749   8.412   4.746   8.639
22291TIP3    H166750   8.444   4.802   8.566
22291TIP3    H266751   8.383   4.812   8.704
22292TIP3   OH266752   9.632   4.962   8.386
22292TIP3    H166753   9.561   5.026   8.408
22292TIP3    H266754   9.611   4.888   8.446
22293TIP3   OH266755   8.140   6.303   8.403
22293TIP3    H166756   8.050   6.278   8.374
22293TIP3    H266757   8.124   6.394   8.433
22294TIP3   OH266758   8.526   4.906   8.404
22294TIP3    H166759   8.575   4.845   8.347
22294TIP3    H266760   8.599   4.962   8.438
22295TIP3   OH266761   9.070   5.083   8.499
22295TIP3    H166762   9.053   5.021   8.573
22295TIP3    H266763   9.025   5.161   8.533
22296TIP3   OH266764   8.205   6.348   8.059
22296TIP3    H166765   8.185   6.369   8.151
22296TIP3    H266766   8.292   6.305   8.065
22297TIP3   OH266767   2.103   7.078   9.474
22297TIP3    H166768   2.112   7.172   9.447
22297TIP3    H266769   2.192   7.043   9.455
22298TIP3   OH266770   1.857   6.531   9.608
22298TIP3    H166771   1.840   6.470   9.534
22298TIP3    H266772   1.947   6.562   9.586
22299TIP3   OH266773   2.137   7.142   9.739
22299TIP3    H166774   2.087   7.078   9.791
22299TIP3    H266775   2.132   7.104   9.649
22300TIP3   OH266776   1.812   6.863   9.616
22300TIP3    H166777   1.863   6.813   9.684
22300TIP3    H266778   1.724   6.861   9.659
22301TIP3   OH266779   2.128   7.360   9.459
22301TIP3    H166780   2.133   7.410   9.375
22301TIP3    H266781   2.037   7.379   9.483
22302TIP3   OH266782   1.756   7.091   9.464
22302TIP3    H166783   1.805   7.016   9.501
22302TIP3    H266784   1.800   7.107   9.379
22303TIP3   OH266785   1.453   6.773   9.584
22303TIP3    H166786   1.443   6.783   9.681
22303TIP3    H266787   1.505   6.690   9.576
22304TIP3   OH266788   2.096   6.612   9.505
22304TIP3    H166789   2.085   6.558   9.425
22304TIP3    H266790   2.067   6.699   9.469
22305TIP3   OH266791   2.310   6.569   9.678
22305TIP3    H166792   2.230   6.588   9.625
22305TIP3    H266793   2.290   6.611   9.763
22306TIP3   OH266794   2.155   6.242   9.657
22306TIP3    H166795   2.140   6.297   9.580
22306TIP3    H266796   2.147   6.153   9.621
22307TIP3   OH266797   3.565   6.936   9.739
22307TIP3    H166798   3.533   7.026   9.715
22307TIP3    H266799   3.488   6.883   9.712
22308TIP3   OH266800   3.800   7.236   9.800
22308TIP3    H166801   3.801   7.157   9.856
22308TIP3    H266802   3.842   7.303   9.857
22309TIP3   OH266803   3.463   7.704   9.807
22309TIP3    H166804   3.501   7.619   9.778
22309TIP3    H266805   3.399   7.680   9.876
22310TIP3   OH266806   4.327   6.515  10.155
22310TIP3    H166807   4.396   6.548  10.213
22310TIP3    H266808   4.380   6.485  10.080
22311TIP3   OH266809   3.807   6.398   9.790
22311TIP3    H166810   3.880   6.389   9.856
22311TIP3    H266811   3.855   6.443   9.718
22312TIP3   OH266812   3.459   7.156   9.607
22312TIP3    H166813   3.410   7.126   9.529
22312TIP3    H266814   3.411   7.238   9.630
22313TIP3   OH266815   4.021   6.409   9.962
22313TIP3    H166816   4.024   6.390  10.058
22313TIP3    H266817   4.077   6.488   9.961
22314TIP3   OH266818   2.408   6.943   9.738
22314TIP3    H166819   2.400   6.969   9.645
22314TIP3    H266820   2.467   7.009   9.777
22315TIP3   OH266821   3.871   7.454   9.978
22315TIP3    H166822   3.779   7.453  10.009
22315TIP3    H266823   3.873   7.537   9.925
22316TIP3   OH266824   3.583   7.515   9.645
22316TIP3    H166825   3.634   7.433   9.622
22316TIP3    H266826   3.643   7.582   9.606
22317TIP3   OH266827   3.725   7.304   9.544
22317TIP3    H166828   3.681   7.226   9.509
22317TIP3    H266829   3.757   7.271   9.631
22318TIP3   OH266830   3.395   6.785   9.568
22318TIP3    H166831   3.312   6.833   9.547
22318TIP3    H266832   3.439   6.781   9.482
22319TIP3   OH266833   3.353   6.569   9.284
22319TIP3    H166834   3.421   6.617   9.334
22319TIP3    H266835   3.408   6.502   9.238
22320TIP3   OH266836   4.307   7.017  10.136
22320TIP3    H166837   4.226   7.062  10.165
22320TIP3    H266838   4.326   7.063  10.052
22321TIP3   OH266839   3.741   6.866   9.542
22321TIP3    H166840   3.687   6.890   9.621
22321TIP3    H266841   3.824   6.837   9.586
22322TIP3   OH266842   3.073   7.292  10.047
22322TIP3    H166843   3.081   7.208  10.000
22322TIP3    H266844   3.137   7.277  10.120
22323TIP3   OH266845   3.621   7.450  10.099
22323TIP3    H166846   3.526   7.470  10.093
22323TIP3    H266847   3.621   7.365  10.146
22324TIP3   OH266848   3.583   6.723   9.367
22324TIP3    H166849   3.641   6.782   9.420
22324TIP3    H266850   3.609   6.748   9.275
22325TIP3   OH266851   3.325   7.406   9.644
22325TIP3    H166852   3.407   7.457   9.658
22325TIP3    H266853   3.265   7.469   9.603
22326TIP3   OH266854   4.097   5.965   9.413
22326TIP3    H166855   4.017   5.985   9.466
22326TIP3    H266856   4.110   6.049   9.366
22327TIP3   OH266857   3.896   7.331   8.962
22327TIP3    H166858   3.906   7.428   8.949
22327TIP3    H266859   3.989   7.301   8.950
22328TIP3   OH266860   3.200   7.651   9.439
22328TIP3    H166861   3.162   7.621   9.354
22328TIP3    H266862   3.152   7.734   9.454
22329TIP3   OH266863   3.408   7.550   9.085
22329TIP3    H166864   3.467   7.480   9.049
22329TIP3    H266865   3.441   7.557   9.177
22330TIP3   OH266866   3.457   7.598   9.356
22330TIP3    H166867   3.369   7.607   9.399
22330TIP3    H266868   3.509   7.555   9.426
22331TIP3   OH266869   3.657   6.773   9.111
22331TIP3    H166870   3.625   6.744   9.024
22331TIP3    H266871   3.740   6.818   9.086
22332TIP3   OH266872   3.373   6.146   9.412
22332TIP3    H166873   3.341   6.142   9.504
22332TIP3    H266874   3.331   6.065   9.377
22333TIP3   OH266875   3.532   6.586   9.699
22333TIP3    H166876   3.479   6.658   9.658
22333TIP3    H266877   3.588   6.557   9.625
22334TIP3   OH266878   3.703   6.624   9.928
22334TIP3    H166879   3.629   6.641   9.867
22334TIP3    H266880   3.726   6.534   9.901
22335TIP3   OH266881   3.026   6.118   9.383
22335TIP3    H166882   3.017   6.110   9.480
22335TIP3    H266883   2.944   6.165   9.361
22336TIP3   OH266884   2.533   6.154   9.759
22336TIP3    H166885   2.593   6.192   9.693
22336TIP3    H266886   2.526   6.223   9.826
22337TIP3   OH266887   3.085   6.352   9.716
22337TIP3    H166888   3.165   6.404   9.701
22337TIP3    H266889   3.020   6.391   9.654
22338TIP3   OH266890   2.907   6.410   9.513
22338TIP3    H166891   2.831   6.365   9.472
22338TIP3    H266892   2.959   6.437   9.435
22339TIP3   OH266893   3.162   6.939   9.523
22339TIP3    H166894   3.093   6.870   9.512
22339TIP3    H266895   3.150   6.961   9.619
22340TIP3   OH266896   4.058   7.167  10.165
22340TIP3    H166897   4.096   7.223  10.093
22340TIP3    H266898   3.984   7.125  10.118
22341TIP3   OH266899   3.623   6.249   9.376
22341TIP3    H166900   3.527   6.231   9.388
22341TIP3    H266901   3.632   6.342   9.405
22342TIP3   OH266902   3.693   6.494   9.484
22342TIP3    H166903   3.789   6.499   9.501
22342TIP3    H266904   3.676   6.574   9.431
22343TIP3   OH266905   3.307   7.083   9.338
22343TIP3    H166906   3.262   7.170   9.347
22343TIP3    H266907   3.253   7.029   9.400
22344TIP3   OH266908   4.135   6.583   9.320
22344TIP3    H166909   4.072   6.538   9.259
22344TIP3    H266910   4.132   6.672   9.280
22345TIP3   OH266911   3.834   7.404   9.228
22345TIP3    H166912   3.810   7.335   9.292
22345TIP3    H266913   3.846   7.354   9.145
22346TIP3   OH266914   3.831   7.033  10.072
22346TIP3    H166915   3.741   6.999  10.071
22346TIP3    H266916   3.877   6.959  10.026
22347TIP3   OH266917   2.957   7.229   9.763
22347TIP3    H166918   2.959   7.319   9.729
22347TIP3    H266919   2.879   7.227   9.819
22348TIP3   OH266920   2.520   6.562   9.511
22348TIP3    H166921   2.566   6.647   9.530
22348TIP3    H266922   2.447   6.567   9.577
22349TIP3   OH266923   3.114   7.004   9.785
22349TIP3    H166924   3.062   7.087   9.780
22349TIP3    H266925   3.051   6.946   9.834
22350TIP3   OH266926   2.893   7.493   9.657
22350TIP3    H166927   2.824   7.508   9.724
22350TIP3    H266928   2.948   7.572   9.668
22351TIP3   OH266929   3.589   7.133   9.130
22351TIP3    H166930   3.642   7.107   9.208
22351TIP3    H266931   3.501   7.103   9.159
22352TIP3   OH266932   3.930   7.607   8.949
22352TIP3    H166933   3.970   7.682   8.902
22352TIP3    H266934   3.849   7.652   8.982
22353TIP3   OH266935   3.749   7.065   9.345
22353TIP3    H166936   3.738   6.999   9.417
22353TIP3    H266937   3.846   7.062   9.335
22354TIP3   OH266938   2.955   7.112   9.129
22354TIP3    H166939   2.970   7.019   9.101
22354TIP3    H266940   2.936   7.098   9.224
22355TIP3   OH266941   2.899   7.115   9.402
22355TIP3    H166942   2.966   7.083   9.464
22355TIP3    H266943   2.908   7.212   9.410
22356TIP3   OH266944   2.623   6.802   9.579
22356TIP3    H166945   2.596   6.817   9.671
22356TIP3    H266946   2.673   6.883   9.559
22357TIP3   OH266947   3.671   6.195   9.657
22357TIP3    H166948   3.654   6.222   9.565
22357TIP3    H266949   3.709   6.277   9.696
22358TIP3   OH266950   3.170   7.316   9.351
22358TIP3    H166951   3.080   7.339   9.383
22358TIP3    H266952   3.182   7.385   9.284
22359TIP3   OH266953   3.378   6.366   9.747
22359TIP3    H166954   3.438   6.442   9.729
22359TIP3    H266955   3.348   6.389   9.838
22360TIP3   OH266956   3.507   6.104   9.856
22360TIP3    H166957   3.507   6.173   9.924
22360TIP3    H266958   3.563   6.147   9.787
22361TIP3   OH266959   2.910   7.387   9.406
22361TIP3    H166960   2.880   7.459   9.345
22361TIP3    H266961   2.897   7.429   9.494
22362TIP3   OH266962   3.023   6.094   9.663
22362TIP3    H166963   3.018   6.188   9.691
22362TIP3    H266964   3.120   6.084   9.666
22363TIP3   OH266965   3.909   6.806   9.940
22363TIP3    H166966   3.838   6.739   9.951
22363TIP3    H266967   3.985   6.762   9.986
22364TIP3   OH266968   2.626   7.041   9.399
22364TIP3    H166969   2.706   7.095   9.409
22364TIP3    H266970   2.663   6.970   9.343
22365TIP3   OH266971   2.587   6.300   9.522
22365TIP3    H166972   2.574   6.397   9.526
22365TIP3    H266973   2.496   6.267   9.528
22366TIP3   OH266974   3.888   7.697   9.859
22366TIP3    H166975   3.846   7.760   9.797
22366TIP3    H266976   3.982   7.724   9.853
22367TIP3   OH266977   2.517   7.194   9.808
22367TIP3    H166978   2.429   7.208   9.845
22367TIP3    H266979   2.502   7.201   9.712
22368TIP3   OH266980   3.119   7.315   9.043
22368TIP3    H166981   3.061   7.244   9.081
22368TIP3    H266982   3.194   7.261   9.013
22369TIP3   OH266983   3.556   7.358   8.954
22369TIP3    H166984   3.597   7.292   9.014
22369TIP3    H266985   3.615   7.355   8.876
22370TIP3   OH266986   2.760   6.838   9.261
22370TIP3    H166987   2.806   6.797   9.336
22370TIP3    H266988   2.833   6.839   9.195
22371TIP3   OH266989   3.272   7.032   9.069
22371TIP3    H166990   3.274   7.043   9.166
22371TIP3    H266991   3.272   6.934   9.063
22372TIP3   OH266992   2.976   6.737   9.487
22372TIP3    H166993   2.935   6.696   9.565
22372TIP3    H266994   3.007   6.658   9.438
22373TIP3   OH266995   3.072   6.529   9.324
22373TIP3    H166996   3.045   6.531   9.230
22373TIP3    H266997   3.169   6.535   9.317
22374TIP3   OH266998   3.894   6.863   8.987
22374TIP3    H166999   3.873   6.814   8.905
22374TIP3    H267000   3.861   6.952   8.962
22375TIP3   OH267001   2.880   7.597   9.230
22375TIP3    H167002   2.976   7.593   9.213
22375TIP3    H267003   2.852   7.643   9.149
22376TIP3   OH267004   2.357   6.979   9.438
22376TIP3    H167005   2.452   7.001   9.430
22376TIP3    H267006   2.356   6.886   9.405
22377TIP3   OH267007   4.127   7.839   9.854
22377TIP3    H167008   4.189   7.880   9.916
22377TIP3    H267009   4.148   7.886   9.772
22378TIP3   OH267010   4.029   7.049   9.323
22378TIP3    H167011   4.099   7.111   9.295
22378TIP3    H267012   4.070   7.009   9.402
22379TIP3   OH267013   4.155   6.917   9.527
22379TIP3    H167014   4.090   6.873   9.586
22379TIP3    H267015   4.219   6.954   9.591
22380TIP3   OH267016   4.186   7.295   9.954
22380TIP3    H167017   4.258   7.237   9.923
22380TIP3    H267018   4.189   7.368   9.891
22381TIP3   OH267019   4.051   7.624  10.127
22381TIP3    H167020   3.979   7.637  10.188
22381TIP3    H267021   4.016   7.553  10.070
22382TIP3   OH267022   4.095   6.824   9.172
22382TIP3    H167023   4.023   6.826   9.105
22382TIP3    H267024   4.067   6.899   9.228
22383TIP3   OH267025   3.965   6.497   9.126
22383TIP3    H167026   3.922   6.532   9.047
22383TIP3    H267027   3.941   6.402   9.120
22384TIP3   OH267028   3.970   6.772   9.673
22384TIP3    H167029   3.979   6.675   9.669
22384TIP3    H267030   3.955   6.787   9.769
22385TIP3   OH267031   3.909   6.232   9.113
22385TIP3    H167032   3.986   6.201   9.165
22385TIP3    H267033   3.838   6.171   9.139
22386TIP3   OH267034   3.965   6.489   9.566
22386TIP3    H167035   4.004   6.399   9.583
22386TIP3    H267036   4.026   6.520   9.498
22387TIP3   OH267037   4.125   6.684  10.047
22387TIP3    H167038   4.217   6.700  10.016
22387TIP3    H267039   4.145   6.656  10.137
22388TIP3   OH267040   4.074   6.240   9.601
22388TIP3    H167041   4.127   6.225   9.682
22388TIP3    H267042   4.016   6.161   9.602
22389TIP3   OH267043   4.156   6.175   9.234
22389TIP3    H167044   4.198   6.100   9.187
22389TIP3    H267045   4.227   6.243   9.231
22390TIP3   OH267046   3.724   7.699   9.503
22390TIP3    H167047   3.774   7.682   9.420
22390TIP3    H267048   3.773   7.773   9.540
22391TIP3   OH267049   4.133   6.080  10.040
22391TIP3    H167050   4.219   6.120  10.021
22391TIP3    H267051   4.077   6.158  10.038
22392TIP3   OH267052   4.243   6.201   9.809
22392TIP3    H167053   4.320   6.149   9.777
22392TIP3    H267054   4.279   6.293   9.804
22393TIP3   OH267055   3.857   6.088   9.998
22393TIP3    H167056   3.866   6.106   9.903
22393TIP3    H267057   3.931   6.026  10.012
22394TIP3   OH267058   3.894   6.025   9.594
22394TIP3    H167059   3.806   6.066   9.606
22394TIP3    H267060   3.881   5.938   9.637
22395TIP3   OH267061   2.373   7.321   9.598
22395TIP3    H167062   2.290   7.298   9.552
22395TIP3    H267063   2.385   7.412   9.565
22396TIP3   OH267064   2.777   5.980   9.547
22396TIP3    H167065   2.822   5.896   9.529
22396TIP3    H267066   2.828   6.012   9.623
22397TIP3   OH267067   3.297   6.117   9.679
22397TIP3    H167068   3.368   6.092   9.741
22397TIP3    H267069   3.301   6.214   9.693
22398TIP3   OH267070   3.148   7.552   9.179
22398TIP3    H167071   3.236   7.573   9.142
22398TIP3    H267072   3.124   7.477   9.119
22399TIP3   OH267073   3.868   7.670   9.269
22399TIP3    H167074   3.860   7.572   9.257
22399TIP3    H267075   3.823   7.702   9.188
22400TIP3   OH267076   2.449   7.382   9.232
22400TIP3    H167077   2.460   7.439   9.309
22400TIP3    H267078   2.538   7.340   9.223
22401TIP3   OH267079   5.359   7.187   9.227
22401TIP3    H167080   5.331   7.278   9.206
22401TIP3    H267081   5.283   7.137   9.192
22402TIP3   OH267082   5.351   7.191   9.607
22402TIP3    H167083   5.381   7.163   9.696
22402TIP3    H267084   5.316   7.107   9.572
22403TIP3   OH267085   4.658   7.088   9.963
22403TIP3    H167086   4.666   7.055  10.053
22403TIP3    H267087   4.745   7.125   9.944
22404TIP3   OH267088   5.597   7.486   9.285
22404TIP3    H167089   5.593   7.416   9.350
22404TIP3    H267090   5.632   7.561   9.338
22405TIP3   OH267091   4.631   7.495   9.706
22405TIP3    H167092   4.622   7.397   9.704
22405TIP3    H267093   4.726   7.503   9.684
22406TIP3   OH267094   4.338   6.702   9.481
22406TIP3    H167095   4.284   6.782   9.495
22406TIP3    H267096   4.270   6.639   9.453
22407TIP3   OH267097   4.398   6.984   9.651
22407TIP3    H167098   4.444   6.906   9.690
22407TIP3    H267099   4.452   6.999   9.572
22408TIP3   OH267100   5.257   7.953   9.307
22408TIP3    H167101   5.299   7.883   9.253
22408TIP3    H267102   5.240   7.905   9.389
22409TIP3   OH267103   5.156   7.410   9.659
22409TIP3    H167104   5.190   7.332   9.613
22409TIP3    H267105   5.241   7.455   9.677
22410TIP3   OH267106   6.170   6.744   9.654
22410TIP3    H167107   6.161   6.838   9.672
22410TIP3    H267108   6.196   6.746   9.560
22411TIP3   OH267109   5.571   6.917   9.689
22411TIP3    H167110   5.614   6.831   9.704
22411TIP3    H267111   5.537   6.904   9.598
22412TIP3   OH267112   4.906   6.574   9.652
22412TIP3    H167113   4.884   6.645   9.588
22412TIP3    H267114   4.860   6.499   9.609
22413TIP3   OH267115   5.600   6.666   9.275
22413TIP3    H167116   5.672   6.649   9.341
22413TIP3    H267117   5.653   6.700   9.201
22414TIP3   OH267118   4.545   6.780   9.756
22414TIP3    H167119   4.623   6.752   9.807
22414TIP3    H267120   4.551   6.719   9.680
22415TIP3   OH267121   4.981   6.974   9.554
22415TIP3    H167122   5.075   6.948   9.564
22415TIP3    H267123   4.941   6.890   9.520
22416TIP3   OH267124   4.907   6.560  10.092
22416TIP3    H167125   4.845   6.592  10.024
22416TIP3    H267126   4.847   6.535  10.163
22417TIP3   OH267127   5.251   7.408   9.096
22417TIP3    H167128   5.209   7.384   9.013
22417TIP3    H267129   5.205   7.492   9.118
22418TIP3   OH267130   4.995   7.333   9.884
22418TIP3    H167131   4.938   7.408   9.906
22418TIP3    H267132   5.056   7.371   9.818
22419TIP3   OH267133   5.810   6.668   9.445
22419TIP3    H167134   5.813   6.612   9.524
22419TIP3    H267135   5.864   6.744   9.472
22420TIP3   OH267136   4.777   6.671   9.872
22420TIP3    H167137   4.845   6.740   9.887
22420TIP3    H267138   4.818   6.625   9.795
22421TIP3   OH267139   4.235   7.216   9.215
22421TIP3    H167140   4.191   7.243   9.132
22421TIP3    H267141   4.264   7.301   9.252
22422TIP3   OH267142   5.666   7.705   9.437
22422TIP3    H167143   5.583   7.703   9.490
22422TIP3    H267144   5.662   7.797   9.406
22423TIP3   OH267145   5.954   6.628   9.808
22423TIP3    H167146   5.871   6.662   9.772
22423TIP3    H267147   6.022   6.666   9.749
22424TIP3   OH267148   5.262   6.273   9.803
22424TIP3    H167149   5.245   6.178   9.821
22424TIP3    H267150   5.182   6.312   9.847
22425TIP3   OH267151   5.372   7.781   9.126
22425TIP3    H167152   5.421   7.697   9.110
22425TIP3    H267153   5.436   7.845   9.087
22426TIP3   OH267154   5.515   7.566   9.036
22426TIP3    H167155   5.482   7.485   8.995
22426TIP3    H267156   5.550   7.531   9.121
22427TIP3   OH267157   5.191   7.040   9.056
22427TIP3    H167158   5.110   7.090   9.031
22427TIP3    H267159   5.237   7.034   8.970
22428TIP3   OH267160   5.148   6.824   8.773
22428TIP3    H167161   5.217   6.873   8.821
22428TIP3    H267162   5.204   6.758   8.726
22429TIP3   OH267163   6.090   7.264   9.634
22429TIP3    H167164   6.014   7.325   9.644
22429TIP3    H267165   6.131   7.300   9.552
22430TIP3   OH267166   5.537   7.122   9.028
22430TIP3    H167167   5.483   7.146   9.107
22430TIP3    H267168   5.621   7.095   9.071
22431TIP3   OH267169   4.770   7.120   9.444
22431TIP3    H167170   4.727   7.062   9.378
22431TIP3    H267171   4.846   7.065   9.473
22432TIP3   OH267172   4.894   7.523   9.596
22432TIP3    H167173   4.876   7.486   9.508
22432TIP3    H267174   4.985   7.493   9.613
22433TIP3   OH267175   4.912   7.086   9.803
22433TIP3    H167176   4.939   7.067   9.711
22433TIP3    H267177   4.951   7.174   9.820
22434TIP3   OH267178   5.437   7.721   9.576
22434TIP3    H167179   5.400   7.801   9.619
22434TIP3    H267180   5.414   7.650   9.638
22435TIP3   OH267181   5.377   6.981   8.854
22435TIP3    H167182   5.437   7.039   8.906
22435TIP3    H267183   5.404   7.004   8.762
22436TIP3   OH267184   5.119   7.660   9.132
22436TIP3    H167185   5.200   7.713   9.144
22436TIP3    H267186   5.059   7.723   9.089
22437TIP3   OH267187   5.892   6.220   8.900
22437TIP3    H167188   5.812   6.241   8.953
22437TIP3    H267189   5.905   6.304   8.852
22438TIP3   OH267190   4.635   6.964   9.252
22438TIP3    H167191   4.568   7.004   9.193
22438TIP3    H267192   4.599   6.875   9.264
22439TIP3   OH267193   5.692   7.589   8.450
22439TIP3    H167194   5.702   7.685   8.436
22439TIP3    H267195   5.785   7.558   8.438
22440TIP3   OH267196   4.265   7.539   9.783
22440TIP3    H167197   4.361   7.526   9.776
22440TIP3    H267198   4.256   7.613   9.845
22441TIP3   OH267199   5.003   7.906   8.931
22441TIP3    H167200   4.956   7.885   8.848
22441TIP3    H267201   4.969   7.994   8.954
22442TIP3   OH267202   4.440   7.755   9.315
22442TIP3    H167203   4.488   7.746   9.400
22442TIP3    H267204   4.385   7.674   9.317
22443TIP3   OH267205   5.204   7.806   8.572
22443TIP3    H167206   5.263   7.736   8.535
22443TIP3    H267207   5.239   7.814   8.663
22444TIP3   OH267208   5.255   7.854   8.844
22444TIP3    H167209   5.165   7.863   8.885
22444TIP3    H267210   5.303   7.807   8.914
22445TIP3   OH267211   5.022   6.356   9.920
22445TIP3    H167212   4.933   6.321   9.899
22445TIP3    H267213   4.996   6.435   9.971
22446TIP3   OH267214   5.453   7.031   8.599
22446TIP3    H167215   5.421   7.001   8.512
22446TIP3    H267216   5.537   7.075   8.573
22447TIP3   OH267217   5.167   6.403   8.900
22447TIP3    H167218   5.134   6.399   8.992
22447TIP3    H267219   5.129   6.319   8.866
22448TIP3   OH267220   4.961   6.866   9.947
22448TIP3    H167221   4.909   6.888  10.025
22448TIP3    H267222   4.945   6.944   9.889
22449TIP3   OH267223   4.836   6.756   9.461
22449TIP3    H167224   4.744   6.727   9.479
22449TIP3    H267225   4.850   6.714   9.373
22450TIP3   OH267226   5.329   6.841   9.190
22450TIP3    H167227   5.275   6.911   9.147
22450TIP3    H267228   5.383   6.809   9.115
22451TIP3   OH267229   5.484   6.870   9.429
22451TIP3    H167230   5.425   6.897   9.356
22451TIP3    H267231   5.519   6.788   9.389
22452TIP3   OH267232   4.822   6.375   8.866
22452TIP3    H167233   4.816   6.370   8.963
22452TIP3    H267234   4.740   6.423   8.844
22453TIP3   OH267235   4.365   6.429   9.726
22453TIP3    H167236   4.438   6.454   9.787
22453TIP3    H267237   4.410   6.380   9.656
22454TIP3   OH267238   4.339   6.400   9.255
22454TIP3    H167239   4.386   6.438   9.179
22454TIP3    H267240   4.278   6.473   9.277
22455TIP3   OH267241   5.475   7.117   9.844
22455TIP3    H167242   5.521   7.050   9.789
22455TIP3    H267243   5.500   7.090   9.932
22456TIP3   OH267244   5.165   6.580   9.524
22456TIP3    H167245   5.081   6.574   9.574
22456TIP3    H267246   5.231   6.574   9.595
22457TIP3   OH267247   4.600   6.631   9.530
22457TIP3    H167248   4.505   6.637   9.504
22457TIP3    H267249   4.622   6.538   9.511
22458TIP3   OH267250   4.869   6.631   9.220
22458TIP3    H167251   4.963   6.642   9.198
22458TIP3    H267252   4.823   6.651   9.135
22459TIP3   OH267253   5.653   6.656   9.721
22459TIP3    H167254   5.615   6.662   9.811
22459TIP3    H267255   5.596   6.588   9.681
22460TIP3   OH267256   4.707   6.665   8.999
22460TIP3    H167257   4.634   6.619   8.953
22460TIP3    H267258   4.759   6.697   8.922
22461TIP3   OH267259   5.248   6.905   9.618
22461TIP3    H167260   5.318   6.865   9.565
22461TIP3    H267261   5.257   6.859   9.703
22462TIP3   OH267262   4.772   6.391   9.500
22462TIP3    H167263   4.736   6.314   9.548
22462TIP3    H267264   4.825   6.348   9.431
22463TIP3   OH267265   5.223   6.790   9.894
22463TIP3    H167266   5.130   6.818   9.911
22463TIP3    H267267   5.273   6.842   9.957
22464TIP3   OH267268   4.959   7.194   9.004
22464TIP3    H167269   4.888   7.126   8.994
22464TIP3    H267270   4.942   7.226   9.096
22465TIP3   OH267271   5.859   7.418   9.646
22465TIP3    H167272   5.889   7.470   9.568
22465TIP3    H267273   5.776   7.378   9.611
22466TIP3   OH267274   5.419   6.505   8.866
22466TIP3    H167275   5.322   6.487   8.875
22466TIP3    H267276   5.427   6.599   8.892
22467TIP3   OH267277   5.488   6.752   8.972
22467TIP3    H167278   5.585   6.755   8.987
22467TIP3    H267279   5.472   6.831   8.917
22468TIP3   OH267280   4.661   7.221   9.681
22468TIP3    H167281   4.694   7.188   9.595
22468TIP3    H267282   4.679   7.147   9.740
22469TIP3   OH267283   5.105   7.341   8.825
22469TIP3    H167284   5.058   7.427   8.833
22469TIP3    H267285   5.052   7.285   8.885
22470TIP3   OH267286   5.931   6.840   8.807
22470TIP3    H167287   5.868   6.795   8.746
22470TIP3    H267288   5.928   6.929   8.766
22471TIP3   OH267289   5.630   7.660   8.715
22471TIP3    H167290   5.607   7.589   8.776
22471TIP3    H267291   5.643   7.613   8.630
22472TIP3   OH267292   5.618   7.291   9.554
22472TIP3    H167293   5.526   7.258   9.563
22472TIP3    H267294   5.659   7.214   9.510
22473TIP3   OH267295   4.753   7.518   9.309
22473TIP3    H167296   4.754   7.599   9.254
22473TIP3    H267297   4.659   7.499   9.313
22474TIP3   OH267298   4.315   6.822   9.007
22474TIP3    H167299   4.363   6.905   9.030
22474TIP3    H267300   4.239   6.826   9.070
22475TIP3   OH267301   4.894   7.284   9.251
22475TIP3    H167302   4.858   7.373   9.271
22475TIP3    H267303   4.857   7.232   9.325
22476TIP3   OH267304   5.023   7.854   9.760
22476TIP3    H167305   5.055   7.934   9.714
22476TIP3    H267306   5.091   7.839   9.826
22477TIP3   OH267307   4.673   7.756   9.158
22477TIP3    H167308   4.587   7.764   9.205
22477TIP3    H267309   4.704   7.849   9.161
22478TIP3   OH267310   5.418   7.497   9.739
22478TIP3    H167311   5.436   7.474   9.831
22478TIP3    H267312   5.485   7.444   9.692
22479TIP3   OH267313   5.385   7.389   8.617
22479TIP3    H167314   5.439   7.364   8.696
22479TIP3    H267315   5.298   7.359   8.647
22480TIP3   OH267316   5.727   7.864   8.437
22480TIP3    H167317   5.769   7.939   8.391
22480TIP3    H267318   5.644   7.909   8.466
22481TIP3   OH267319   5.545   7.324   8.835
22481TIP3    H167320   5.535   7.257   8.905
22481TIP3    H267321   5.643   7.320   8.822
22482TIP3   OH267322   4.468   7.748   9.953
22482TIP3    H167323   4.481   7.655   9.930
22482TIP3    H267324   4.540   7.762  10.014
22483TIP3   OH267325   4.751   7.369   8.616
22483TIP3    H167326   4.767   7.277   8.587
22483TIP3    H267327   4.732   7.356   8.711
22484TIP3   OH267328   4.697   7.374   8.889
22484TIP3    H167329   4.769   7.343   8.946
22484TIP3    H267330   4.703   7.471   8.897
22485TIP3   OH267331   4.433   7.067   9.091
22485TIP3    H167332   4.368   7.111   9.149
22485TIP3    H267333   4.448   7.137   9.025
22486TIP3   OH267334   5.577   6.698   9.982
22486TIP3    H167335   5.656   6.737  10.021
22486TIP3    H267336   5.549   6.634  10.047
22487TIP3   OH267337   5.459   6.457   9.148
22487TIP3    H167338   5.448   6.479   9.054
22487TIP3    H267339   5.500   6.539   9.184
22488TIP3   OH267340   4.963   7.572   8.838
22488TIP3    H167341   4.876   7.599   8.874
22488TIP3    H267342   4.979   7.642   8.773
22489TIP3   OH267343   5.152   6.635   9.251
22489TIP3    H167344   5.218   6.706   9.234
22489TIP3    H267345   5.156   6.628   9.349
22490TIP3   OH267346   5.297   6.365   9.355
22490TIP3    H167347   5.290   6.443   9.412
22490TIP3    H267348   5.357   6.398   9.285
22491TIP3   OH267349   4.707   7.647   8.904
22491TIP3    H167350   4.675   7.717   8.842
22491TIP3    H267351   4.690   7.690   8.991
22492TIP3   OH267352   4.807   6.360   9.141
22492TIP3    H167353   4.806   6.448   9.182
22492TIP3    H267354   4.902   6.339   9.151
22493TIP3   OH267355   5.711   7.050   9.429
22493TIP3    H167356   5.637   6.988   9.439
22493TIP3    H267357   5.785   7.002   9.472
22494TIP3   OH267358   4.424   7.279   8.896
22494TIP3    H167359   4.492   7.348   8.906
22494TIP3    H267360   4.470   7.222   8.830
22495TIP3   OH267361   4.371   6.553   9.029
22495TIP3    H167362   4.367   6.651   9.025
22495TIP3    H267363   4.286   6.527   8.992
22496TIP3   OH267364   5.646   7.975   9.366
22496TIP3    H167365   5.613   8.034   9.295
22496TIP3    H267366   5.741   7.973   9.347
22497TIP3   OH267367   4.758   6.280   9.903
22497TIP3    H167368   4.725   6.243   9.818
22497TIP3    H267369   4.742   6.203   9.963
22498TIP3   OH267370   4.299   7.496   9.288
22498TIP3    H167371   4.223   7.522   9.341
22498TIP3    H267372   4.273   7.532   9.200
22499TIP3   OH267373   4.915   7.572   8.530
22499TIP3    H167374   4.859   7.501   8.568
22499TIP3    H267375   4.991   7.520   8.499
22500TIP3   OH267376   5.352   7.614   8.440
22500TIP3    H167377   5.394   7.549   8.500
22500TIP3    H267378   5.410   7.613   8.362
22501TIP3   OH267379   4.559   7.091   8.749
22501TIP3    H167380   4.613   7.054   8.822
22501TIP3    H267381   4.628   7.094   8.679
22502TIP3   OH267382   5.066   7.288   8.556
22502TIP3    H167383   5.071   7.300   8.653
22502TIP3    H267384   5.069   7.190   8.550
22503TIP3   OH267385   4.769   6.993   8.973
22503TIP3    H167386   4.742   6.949   9.055
22503TIP3    H267387   4.805   6.917   8.921
22504TIP3   OH267388   4.868   6.787   8.813
22504TIP3    H167389   4.843   6.787   8.718
22504TIP3    H267390   4.966   6.791   8.806
22505TIP3   OH267391   5.690   7.119   8.475
22505TIP3    H167392   5.670   7.071   8.392
22505TIP3    H267393   5.657   7.208   8.449
22506TIP3   OH267394   5.171   6.634  10.140
22506TIP3    H167395   5.193   6.652  10.047
22506TIP3    H267396   5.079   6.601  10.132
22507TIP3   OH267397   4.676   7.851   8.717
22507TIP3    H167398   4.771   7.845   8.698
22507TIP3    H267399   4.646   7.898   8.638
22508TIP3   OH267400   4.155   7.231   8.932
22508TIP3    H167401   4.250   7.253   8.919
22508TIP3    H267402   4.150   7.142   8.892
22509TIP3   OH267403   4.069   7.844   9.347
22509TIP3    H167404   4.003   7.781   9.311
22509TIP3    H267405   4.113   7.787   9.414
22510TIP3   OH267406   4.202   7.697   9.536
22510TIP3    H167407   4.195   7.620   9.594
22510TIP3    H267408   4.260   7.755   9.590
22511TIP3   OH267409   5.824   7.307   8.809
22511TIP3    H167410   5.895   7.368   8.781
22511TIP3    H267411   5.865   7.265   8.888
22512TIP3   OH267412   5.948   7.174   9.010
22512TIP3    H167413   5.886   7.130   9.072
22512TIP3    H267414   6.017   7.209   9.071
22513TIP3   OH267415   5.978   7.548   9.442
22513TIP3    H167416   6.054   7.502   9.402
22513TIP3    H267417   5.975   7.632   9.394
22514TIP3   OH267418   5.891   7.081   8.659
22514TIP3    H167419   5.819   7.083   8.592
22514TIP3    H267420   5.863   7.156   8.715
22515TIP3   OH267421   5.760   6.755   8.614
22515TIP3    H167422   5.720   6.788   8.533
22515TIP3    H267423   5.736   6.660   8.608
22516TIP3   OH267424   5.766   7.028   9.159
22516TIP3    H167425   5.775   6.931   9.154
22516TIP3    H267426   5.753   7.042   9.256
22517TIP3   OH267427   4.392   7.119   9.893
22517TIP3    H167428   4.389   7.078   9.804
22517TIP3    H267429   4.487   7.109   9.914
22518TIP3   OH267430   5.704   6.490   8.602
22518TIP3    H167431   5.781   6.457   8.653
22518TIP3    H267432   5.633   6.427   8.625
22519TIP3   OH267433   5.763   6.744   9.054
22519TIP3    H167434   5.803   6.655   9.070
22519TIP3    H267435   5.822   6.775   8.984
22520TIP3   OH267436   5.925   6.914   9.539
22520TIP3    H167437   6.012   6.941   9.503
22520TIP3    H267438   5.931   6.956   9.627
22521TIP3   OH267439   5.975   7.057   9.767
22521TIP3    H167440   5.937   7.100   9.844
22521TIP3    H267441   6.019   7.132   9.721
22522TIP3   OH267442   5.871   6.494   9.092
22522TIP3    H167443   5.921   6.478   9.175
22522TIP3    H267444   5.811   6.416   9.091
22523TIP3   OH267445   4.569   6.481   9.903
22523TIP3    H167446   4.624   6.402   9.922
22523TIP3    H267447   4.636   6.551   9.904
22524TIP3   OH267448   4.381   6.758   9.982
22524TIP3    H167449   4.433   6.763   9.900
22524TIP3    H267450   4.391   6.845  10.022
22525TIP3   OH267451   5.953   6.431   8.722
22525TIP3    H167452   5.993   6.356   8.673
22525TIP3    H267453   6.023   6.499   8.716
22526TIP3   OH267454   4.359   6.258   9.484
22526TIP3    H167455   4.266   6.256   9.512
22526TIP3    H267456   4.355   6.316   9.405
22527TIP3   OH267457   5.524   7.966   8.995
22527TIP3    H167458   5.560   7.939   8.908
22527TIP3    H267459   5.588   8.032   9.021
22528TIP3   OH267460   4.686   8.005   9.793
22528TIP3    H167461   4.636   8.065   9.849
22528TIP3    H267462   4.697   8.058   9.711
22529TIP3   OH267463   5.112   8.068   9.608
22529TIP3    H167464   5.048   8.078   9.535
22529TIP3    H267465   5.106   8.155   9.652
22530TIP3   OH267466   5.357   7.962   9.669
22530TIP3    H167467   5.267   7.993   9.643
22530TIP3    H267468   5.409   8.042   9.654
22531TIP3   OH267469   4.384   7.842   9.693
22531TIP3    H167470   4.416   7.825   9.784
22531TIP3    H267471   4.459   7.806   9.641
22532TIP3   OH267472   4.578   7.719   9.547
22532TIP3    H167473   4.597   7.636   9.596
22532TIP3    H267474   4.667   7.761   9.544
22533TIP3   OH267475   4.843   7.816   9.548
22533TIP3    H167476   4.877   7.726   9.537
22533TIP3    H267477   4.878   7.836   9.637
22534TIP3   OH267478   5.420   6.470   9.643
22534TIP3    H167479   5.376   6.397   9.691
22534TIP3    H267480   5.490   6.423   9.594
22535TIP3   OH267481   5.945   6.352   9.546
22535TIP3    H167482   5.981   6.402   9.469
22535TIP3    H267483   5.850   6.368   9.539
22536TIP3   OH267484   6.038   6.454   9.309
22536TIP3    H167485   6.109   6.399   9.269
22536TIP3    H267486   6.074   6.544   9.292
22537TIP3   OH267487   4.669   6.181   9.654
22537TIP3    H167488   4.577   6.146   9.658
22537TIP3    H267489   4.719   6.097   9.654
22538TIP3   OH267490   4.445   6.049   9.301
22538TIP3    H167491   4.483   6.107   9.232
22538TIP3    H267492   4.425   6.113   9.372
22539TIP3   OH267493   5.108   6.217   9.533
22539TIP3    H167494   5.173   6.264   9.478
22539TIP3    H267495   5.130   6.248   9.622
22540TIP3   OH267496   5.658   6.359   9.520
22540TIP3    H167497   5.661   6.320   9.432
22540TIP3    H267498   5.645   6.279   9.577
22541TIP3   OH267499   5.689   6.280   9.082
22541TIP3    H167500   5.600   6.320   9.093
22541TIP3    H267501   5.677   6.195   9.130
22542TIP3   OH267502   4.173   7.618   9.083
22542TIP3    H167503   4.088   7.585   9.049
22542TIP3    H267504   4.160   7.713   9.070
22543TIP3   OH267505   4.572   6.212   9.064
22543TIP3    H167506   4.620   6.145   9.011
22543TIP3    H267507   4.646   6.263   9.102
22544TIP3   OH267508   5.084   6.385   9.165
22544TIP3    H167509   5.141   6.334   9.225
22544TIP3    H267510   5.109   6.476   9.192
22545TIP3   OH267511   4.944   7.810   8.665
22545TIP3    H167512   5.033   7.831   8.629
22545TIP3    H267513   4.922   7.735   8.606
22546TIP3   OH267514   5.654   7.927   8.756
22546TIP3    H167515   5.651   7.829   8.744
22546TIP3    H267516   5.613   7.957   8.672
22547TIP3   OH267517   4.249   7.649   8.723
22547TIP3    H167518   4.247   7.669   8.817
22547TIP3    H267519   4.337   7.606   8.712
22548TIP3   OH267520   6.132   6.953   8.969
22548TIP3    H167521   6.083   7.036   8.982
22548TIP3    H267522   6.061   6.897   8.933
22549TIP3   OH267523   6.185   7.238   9.132
22549TIP3    H167524   6.233   7.162   9.173
22549TIP3    H267525   6.253   7.273   9.073
22550TIP3   OH267526   6.692   6.831   9.143
22550TIP3    H167527   6.679   6.900   9.075
22550TIP3    H267528   6.649   6.755   9.098
22551TIP3   OH267529   7.399   6.872   8.745
22551TIP3    H167530   7.393   6.889   8.840
22551TIP3    H267531   7.392   6.961   8.709
22552TIP3   OH267532   6.329   7.036   9.242
22552TIP3    H167533   6.412   7.016   9.290
22552TIP3    H267534   6.342   6.978   9.164
22553TIP3   OH267535   6.762   7.228   9.032
22553TIP3    H167536   6.855   7.207   9.050
22553TIP3    H267537   6.727   7.140   9.004
22554TIP3   OH267538   6.705   6.809   9.536
22554TIP3    H167539   6.636   6.857   9.486
22554TIP3    H267540   6.689   6.838   9.628
22555TIP3   OH267541   6.564   6.951   9.352
22555TIP3    H167542   6.619   7.029   9.371
22555TIP3    H267543   6.616   6.907   9.280
22556TIP3   OH267544   6.030   7.472   8.702
22556TIP3    H167545   5.988   7.498   8.618
22556TIP3    H267546   6.059   7.557   8.739
22557TIP3   OH267547   7.056   6.538   9.272
22557TIP3    H167548   7.055   6.445   9.300
22557TIP3    H267549   6.982   6.573   9.327
22558TIP3   OH267550   6.970   7.279   8.521
22558TIP3    H167551   6.901   7.348   8.511
22558TIP3    H267552   7.033   7.301   8.451
22559TIP3   OH267553   6.941   7.081   8.256
22559TIP3    H167554   6.998   7.122   8.322
22559TIP3    H267555   7.003   7.019   8.212
22560TIP3   OH267556   6.576   7.389   8.921
22560TIP3    H167557   6.525   7.328   8.863
22560TIP3    H267558   6.644   7.328   8.959
22561TIP3   OH267559   7.191   7.243   8.344
22561TIP3    H167560   7.244   7.314   8.383
22561TIP3    H267561   7.205   7.260   8.247
22562TIP3   OH267562   7.689   6.476   8.387
22562TIP3    H167563   7.609   6.495   8.440
22562TIP3    H267564   7.698   6.561   8.339
22563TIP3   OH267565   6.431   7.224   8.742
22563TIP3    H167566   6.364   7.262   8.682
22563TIP3    H267567   6.398   7.134   8.753
22564TIP3   OH267568   6.228   7.999   8.800
22564TIP3    H167569   6.242   8.012   8.896
22564TIP3    H267570   6.182   7.913   8.799
22565TIP3   OH267571   6.981   8.023   8.044
22565TIP3    H167572   7.047   7.958   8.013
22565TIP3    H267573   7.019   8.050   8.129
22566TIP3   OH267574   6.822   6.605   9.410
22566TIP3    H167575   6.736   6.569   9.380
22566TIP3    H267576   6.788   6.685   9.455
22567TIP3   OH267577   7.253   7.294   8.087
22567TIP3    H167578   7.213   7.262   8.004
22567TIP3    H267579   7.341   7.322   8.054
22568TIP3   OH267580   6.965   6.659   8.387
22568TIP3    H167581   6.934   6.655   8.480
22568TIP3    H267582   6.925   6.576   8.353
22569TIP3   OH267583   6.629   7.006   8.947
22569TIP3    H167584   6.537   6.977   8.965
22569TIP3    H267585   6.643   6.965   8.858
22570TIP3   OH267586   7.098   7.071   8.649
22570TIP3    H167587   7.055   7.153   8.617
22570TIP3    H267588   7.156   7.048   8.574
22571TIP3   OH267589   6.620   6.632   8.352
22571TIP3    H167590   6.612   6.627   8.450
22571TIP3    H267591   6.538   6.679   8.330
22572TIP3   OH267592   6.162   6.678   9.223
22572TIP3    H167593   6.240   6.706   9.275
22572TIP3    H267594   6.200   6.640   9.143
22573TIP3   OH267595   6.136   6.656   8.743
22573TIP3    H167596   6.182   6.694   8.665
22573TIP3    H267597   6.075   6.729   8.764
22574TIP3   OH267598   6.957   6.830   9.018
22574TIP3    H167599   6.873   6.827   9.068
22574TIP3    H267600   7.016   6.856   9.090
22575TIP3   OH267601   6.393   6.887   9.018
22575TIP3    H167602   6.299   6.893   8.991
22575TIP3    H267603   6.417   6.794   8.997
22576TIP3   OH267604   6.660   6.884   8.706
22576TIP3    H167605   6.756   6.894   8.690
22576TIP3    H267606   6.619   6.908   8.620
22577TIP3   OH267607   6.502   6.923   8.484
22577TIP3    H167608   6.431   6.875   8.438
22577TIP3    H267609   6.554   6.955   8.408
22578TIP3   OH267610   6.566   6.648   8.984
22578TIP3    H167611   6.531   6.569   9.031
22578TIP3    H267612   6.620   6.607   8.915
22579TIP3   OH267613   6.752   7.456   8.489
22579TIP3    H167614   6.685   7.384   8.482
22579TIP3    H267615   6.742   7.484   8.583
22580TIP3   OH267616   7.211   6.767   8.341
22580TIP3    H167617   7.116   6.746   8.357
22580TIP3    H267618   7.222   6.857   8.377
22581TIP3   OH267619   7.282   7.006   8.453
22581TIP3    H167620   7.380   7.001   8.461
22581TIP3    H267621   7.270   7.087   8.399
22582TIP3   OH267622   6.438   7.413   9.159
22582TIP3    H167623   6.478   7.429   9.071
22582TIP3    H267624   6.504   7.359   9.202
22583TIP3   OH267625   6.886   7.598   8.290
22583TIP3    H167626   6.873   7.687   8.327
22583TIP3    H267627   6.851   7.544   8.364
22584TIP3   OH267628   7.738   7.082   8.264
22584TIP3    H167629   7.657   7.041   8.225
22584TIP3    H267630   7.726   7.171   8.224
22585TIP3   OH267631   6.553   7.765   8.810
22585TIP3    H167632   6.592   7.843   8.766
22585TIP3    H267633   6.460   7.773   8.787
22586TIP3   OH267634   6.112   7.079   8.494
22586TIP3    H167635   6.159   7.161   8.517
22586TIP3    H267636   6.036   7.083   8.557
22587TIP3   OH267637   6.714   7.546   8.745
22587TIP3    H167638   6.665   7.630   8.760
22587TIP3    H267639   6.663   7.485   8.802
22588TIP3   OH267640   6.400   8.049   8.596
22588TIP3    H167641   6.338   8.034   8.670
22588TIP3    H267642   6.487   8.032   8.637
22589TIP3   OH267643   7.170   7.636   8.085
22589TIP3    H167644   7.212   7.625   8.172
22589TIP3    H267645   7.079   7.609   8.110
22590TIP3   OH267646   6.546   7.620   8.104
22590TIP3    H167647   6.560   7.528   8.075
22590TIP3    H267648   6.526   7.608   8.199
22591TIP3   OH267649   6.493   7.630   8.377
22591TIP3    H167650   6.571   7.600   8.426
22591TIP3    H267651   6.500   7.728   8.385
22592TIP3   OH267652   6.230   7.323   8.578
22592TIP3    H167653   6.164   7.367   8.635
22592TIP3    H267654   6.244   7.393   8.511
22593TIP3   OH267655   7.244   6.690   8.619
22593TIP3    H167656   7.233   6.722   8.528
22593TIP3    H267657   7.300   6.761   8.659
22594TIP3   OH267658   6.761   7.854   8.331
22594TIP3    H167659   6.668   7.875   8.354
22594TIP3    H267660   6.759   7.861   8.235
22595TIP3   OH267661   6.936   6.879   8.744
22595TIP3    H167662   6.999   6.950   8.717
22595TIP3    H267663   6.948   6.878   8.842
22596TIP3   OH267664   7.089   6.618   8.845
22596TIP3    H167665   7.079   6.698   8.901
22596TIP3    H267666   7.145   6.653   8.772
22597TIP3   OH267667   6.495   7.905   8.383
22597TIP3    H167668   6.470   7.972   8.315
22597TIP3    H267669   6.460   7.951   8.462
22598TIP3   OH267670   6.603   6.616   8.628
22598TIP3    H167671   6.601   6.705   8.668
22598TIP3    H267672   6.699   6.596   8.638
22599TIP3   OH267673   6.220   7.535   8.384
22599TIP3    H167674   6.288   7.604   8.393
22599TIP3    H267675   6.265   7.478   8.317
22600TIP3   OH267676   6.167   6.810   8.518
22600TIP3    H167677   6.162   6.907   8.512
22600TIP3    H267678   6.085   6.783   8.475
22601TIP3   OH267679   6.552   6.528   9.390
22601TIP3    H167680   6.520   6.494   9.304
22601TIP3    H267681   6.541   6.449   9.448
22602TIP3   OH267682   6.089   7.752   8.776
22602TIP3    H167683   6.010   7.778   8.826
22602TIP3    H267684   6.065   7.786   8.687
22603TIP3   OH267685   6.715   7.815   8.021
22603TIP3    H167686   6.653   7.744   8.051
22603TIP3    H267687   6.787   7.761   7.984
22604TIP3   OH267688   7.161   7.869   7.921
22604TIP3    H167689   7.180   7.786   7.970
22604TIP3    H267690   7.205   7.858   7.834
22605TIP3   OH267691   6.356   7.347   8.236
22605TIP3    H167692   6.409   7.310   8.309
22605TIP3    H267693   6.424   7.350   8.165
22606TIP3   OH267694   6.861   7.541   8.030
22606TIP3    H167695   6.858   7.557   8.127
22606TIP3    H267696   6.862   7.442   8.030
22607TIP3   OH267697   6.566   7.249   8.461
22607TIP3    H167698   6.538   7.204   8.542
22607TIP3    H267699   6.601   7.175   8.408
22608TIP3   OH267700   6.663   7.044   8.299
22608TIP3    H167701   6.637   7.044   8.204
22608TIP3    H267702   6.761   7.049   8.291
22609TIP3   OH267703   7.482   7.364   7.955
22609TIP3    H167704   7.454   7.323   7.870
22609TIP3    H267705   7.464   7.458   7.935
22610TIP3   OH267706   6.459   8.112   8.209
22610TIP3    H167707   6.555   8.105   8.187
22610TIP3    H267708   6.429   8.156   8.127
22611TIP3   OH267709   5.951   7.487   8.420
22611TIP3    H167710   6.046   7.509   8.406
22611TIP3    H267711   5.946   7.398   8.379
22612TIP3   OH267712   5.854   8.101   8.823
22612TIP3    H167713   5.785   8.046   8.781
22612TIP3    H267714   5.889   8.036   8.888
22613TIP3   OH267715   5.929   7.927   9.015
22613TIP3    H167716   5.966   7.853   9.065
22613TIP3    H267717   5.901   7.988   9.086
22614TIP3   OH267718   7.675   7.308   8.139
22614TIP3    H167719   7.607   7.327   8.071
22614TIP3    H267720   7.686   7.396   8.179
22615TIP3   OH267721   7.536   7.009   8.091
22615TIP3    H167722   7.498   7.042   8.009
22615TIP3    H267723   7.515   6.913   8.084
22616TIP3   OH267724   6.186   7.353   9.392
22616TIP3    H167725   6.191   7.323   9.299
22616TIP3    H267726   6.268   7.408   9.399
22617TIP3   OH267727   7.491   6.742   8.070
22617TIP3    H167728   7.568   6.714   8.124
22617TIP3    H267729   7.419   6.686   8.105
22618TIP3   OH267730   7.551   6.992   8.496
22618TIP3    H167731   7.587   6.905   8.521
22618TIP3    H267732   7.632   7.046   8.499
22619TIP3   OH267733   7.670   6.752   8.579
22619TIP3    H167734   7.736   6.730   8.647
22619TIP3    H267735   7.608   6.677   8.585
22620TIP3   OH267736   6.371   6.739   9.397
22620TIP3    H167737   6.433   6.664   9.405
22620TIP3    H267738   6.432   6.814   9.388
22621TIP3   OH267739   6.176   7.007   9.478
22621TIP3    H167740   6.222   7.006   9.391
22621TIP3    H267741   6.187   7.100   9.503
22622TIP3   OH267742   7.725   6.676   8.191
22622TIP3    H167743   7.772   6.601   8.149
22622TIP3    H267744   7.797   6.743   8.197
22623TIP3   OH267745   6.155   6.521   8.976
22623TIP3    H167746   6.060   6.512   8.998
22623TIP3    H267747   6.152   6.575   8.894
22624TIP3   OH267748   6.362   6.591   9.793
22624TIP3    H167749   6.309   6.586   9.874
22624TIP3    H267750   6.301   6.637   9.733
22625TIP3   OH267751   7.215   6.734   9.137
22625TIP3    H167752   7.150   6.667   9.167
22625TIP3    H267753   7.273   6.682   9.077
22626TIP3   OH267754   6.461   6.438   9.142
22626TIP3    H167755   6.370   6.402   9.144
22626TIP3    H267756   6.513   6.354   9.140
22627TIP3   OH267757   6.242   6.307   8.785
22627TIP3    H167758   6.279   6.365   8.716
22627TIP3    H267759   6.223   6.371   8.857
22628TIP3   OH267760   6.907   6.470   9.022
22628TIP3    H167761   6.966   6.521   8.965
22628TIP3    H267762   6.929   6.504   9.109
22629TIP3   OH267763   7.406   6.609   8.993
22629TIP3    H167764   7.443   6.584   8.908
22629TIP3    H267765   7.403   6.523   9.040
22630TIP3   OH267766   7.485   6.539   8.569
22630TIP3    H167767   7.395   6.576   8.577
22630TIP3    H267768   7.473   6.454   8.616
22631TIP3   OH267769   5.968   7.875   8.572
22631TIP3    H167770   5.883   7.846   8.535
22631TIP3    H267771   5.961   7.970   8.553
22632TIP3   OH267772   6.368   6.468   8.553
22632TIP3    H167773   6.415   6.402   8.498
22632TIP3    H267774   6.442   6.519   8.590
22633TIP3   OH267775   6.880   6.633   8.650
22633TIP3    H167776   6.939   6.585   8.711
22633TIP3    H267777   6.899   6.725   8.680
22634TIP3   OH267778   6.709   8.072   8.111
22634TIP3    H167779   6.798   8.101   8.085
22634TIP3    H267780   6.705   7.986   8.065
22635TIP3   OH267781   6.045   7.904   8.209
22635TIP3    H167782   6.043   7.930   8.303
22635TIP3    H267783   6.134   7.863   8.200
22636TIP3   OH267784   8.379   6.851   7.816
22636TIP3    H167785   8.395   6.908   7.893
22636TIP3    H267786   8.308   6.900   7.772
22637TIP3   OH267787   7.901   6.887   8.170
22637TIP3    H167788   7.972   6.937   8.126
22637TIP3    H267789   7.840   6.957   8.202
22638TIP3   OH267790   7.976   7.087   7.987
22638TIP3    H167791   7.956   7.178   8.016
22638TIP3    H267792   7.889   7.047   7.973
22639TIP3   OH267793   7.909   6.720   8.413
22639TIP3    H167794   7.832   6.746   8.467
22639TIP3    H267795   7.957   6.805   8.406
22640TIP3   OH267796   8.045   6.545   8.254
22640TIP3    H167797   8.060   6.600   8.175
22640TIP3    H267798   7.989   6.605   8.310
22641TIP3   OH267799   8.136   6.696   8.037
22641TIP3    H167800   8.209   6.659   7.984
22641TIP3    H267801   8.173   6.780   8.071
22642TIP3   OH267802   2.967   8.386   8.886
22642TIP3    H167803   3.015   8.412   8.966
22642TIP3    H267804   3.025   8.316   8.851
22643TIP3   OH267805   3.734   7.779   9.051
22643TIP3    H167806   3.654   7.797   9.104
22643TIP3    H267807   3.746   7.864   9.004
22644TIP3   OH267808   3.316   8.579   8.738
22644TIP3    H167809   3.273   8.545   8.657
22644TIP3    H267810   3.399   8.616   8.701
22645TIP3   OH267811   3.010   7.960   8.987
22645TIP3    H167812   2.998   7.961   9.085
22645TIP3    H267813   2.971   7.872   8.970
22646TIP3   OH267814   2.681   7.927   9.024
22646TIP3    H167815   2.651   7.915   9.115
22646TIP3    H267816   2.598   7.955   8.982
22647TIP3   OH267817   3.267   8.033   9.023
22647TIP3    H167818   3.170   8.029   9.008
22647TIP3    H267819   3.288   8.129   9.027
22648TIP3   OH267820   3.364   8.280   9.066
22648TIP3    H167821   3.450   8.275   9.114
22648TIP3    H267822   3.375   8.364   9.022
22649TIP3   OH267823   3.771   8.390   8.953
22649TIP3    H167824   3.704   8.346   8.896
22649TIP3    H267825   3.777   8.476   8.909
22650TIP3   OH267826   3.293   8.056   9.301
22650TIP3    H167827   3.275   8.031   9.208
22650TIP3    H267828   3.372   8.110   9.293
22651TIP3   OH267829   3.540   8.676   8.611
22651TIP3    H167830   3.515   8.633   8.527
22651TIP3    H267831   3.506   8.767   8.595
22652TIP3   OH267832   3.718   8.639   8.808
22652TIP3    H167833   3.672   8.625   8.722
22652TIP3    H267834   3.646   8.684   8.854
22653TIP3   OH267835   3.591   8.317   8.760
22653TIP3    H167836   3.554   8.339   8.674
22653TIP3    H267837   3.575   8.220   8.762
22654TIP3   OH267838   3.545   8.050   8.754
22654TIP3    H167839   3.623   8.017   8.803
22654TIP3    H267840   3.476   7.985   8.775
22655TIP3   OH267841   3.602   8.303   9.190
22655TIP3    H167842   3.642   8.220   9.226
22655TIP3    H267843   3.683   8.344   9.155
22656TIP3   OH267844   3.711   8.053   9.244
22656TIP3    H167845   3.762   8.038   9.327
22656TIP3    H267846   3.653   7.974   9.244
22657TIP3   OH267847   3.793   7.990   8.868
22657TIP3    H167848   3.835   7.914   8.823
22657TIP3    H267849   3.864   8.057   8.869
22658TIP3   OH267850   3.799   7.914   9.707
22658TIP3    H167851   3.835   7.961   9.629
22658TIP3    H267852   3.702   7.920   9.689
22659TIP3   OH267853   3.878   8.009   9.461
22659TIP3    H167854   3.951   7.958   9.421
22659TIP3    H267855   3.912   8.100   9.444
22660TIP3   OH267856   3.528   7.909   9.647
22660TIP3    H167857   3.503   7.862   9.567
22660TIP3    H267858   3.504   7.842   9.715
22661TIP3   OH267859   3.531   7.836   9.234
22661TIP3    H167860   3.439   7.865   9.232
22661TIP3    H267861   3.522   7.751   9.282
22662TIP3   OH267862   2.459   7.686   9.280
22662TIP3    H167863   2.475   7.652   9.191
22662TIP3    H267864   2.439   7.780   9.261
22663TIP3   OH267865   2.982   7.953   9.251
22663TIP3    H167866   2.965   7.904   9.333
22663TIP3    H267867   2.939   8.037   9.272
22664TIP3   OH267868   4.974   8.989   8.876
22664TIP3    H167869   4.963   9.082   8.845
22664TIP3    H267870   4.883   8.959   8.863
22665TIP3   OH267871   3.984   8.503   9.118
22665TIP3    H167872   3.918   8.565   9.152
22665TIP3    H267873   3.930   8.424   9.106
22666TIP3   OH267874   4.550   8.387   9.279
22666TIP3    H167875   4.529   8.456   9.213
22666TIP3    H267876   4.500   8.312   9.241
22667TIP3   OH267877   5.235   8.479   8.915
22667TIP3    H167878   5.308   8.472   8.981
22667TIP3    H267879   5.286   8.503   8.835
22668TIP3   OH267880   4.634   8.780   9.191
22668TIP3    H167881   4.725   8.743   9.191
22668TIP3    H267882   4.583   8.706   9.151
22669TIP3   OH267883   4.891   9.210   8.759
22669TIP3    H167884   4.807   9.169   8.728
22669TIP3    H267885   4.890   9.298   8.718
22670TIP3   OH267886   5.449   8.485   9.088
22670TIP3    H167887   5.446   8.410   9.149
22670TIP3    H267888   5.535   8.524   9.107
22671TIP3   OH267889   4.454   8.473   9.531
22671TIP3    H167890   4.441   8.554   9.478
22671TIP3    H267891   4.475   8.410   9.459
22672TIP3   OH267892   4.897   8.086   9.434
22672TIP3    H167893   4.881   7.992   9.452
22672TIP3    H267894   4.819   8.125   9.480
22673TIP3   OH267895   5.059   9.396   8.633
22673TIP3    H167896   5.081   9.307   8.603
22673TIP3    H267897   5.123   9.408   8.705
22674TIP3   OH267898   4.785   8.640   8.408
22674TIP3    H167899   4.849   8.695   8.457
22674TIP3    H267900   4.846   8.577   8.364
22675TIP3   OH267901   5.156   8.943   8.669
22675TIP3    H167902   5.093   8.959   8.742
22675TIP3    H267903   5.237   8.926   8.721
22676TIP3   OH267904   4.402   8.932   9.062
22676TIP3    H167905   4.347   8.885   8.995
22676TIP3    H267906   4.489   8.899   9.038
22677TIP3   OH267907   5.019   8.781   8.487
22677TIP3    H167908   5.062   8.850   8.542
22677TIP3    H267909   5.042   8.813   8.396
22678TIP3   OH267910   5.529   8.035   8.535
22678TIP3    H167911   5.448   8.054   8.587
22678TIP3    H267912   5.543   8.120   8.489
22679TIP3   OH267913   4.258   8.768   8.887
22679TIP3    H167914   4.205   8.801   8.812
22679TIP3    H267915   4.231   8.676   8.891
22680TIP3   OH267916   5.331   9.383   8.099
22680TIP3    H167917   5.324   9.477   8.072
22680TIP3    H267918   5.423   9.364   8.070
22681TIP3   OH267919   4.845   9.614   8.190
22681TIP3    H167920   4.902   9.546   8.149
22681TIP3    H267921   4.874   9.608   8.284
22682TIP3   OH267922   4.889   9.625   8.460
22682TIP3    H167923   4.858   9.678   8.537
22682TIP3    H267924   4.952   9.566   8.504
22683TIP3   OH267925   4.666   8.160   9.553
22683TIP3    H167926   4.569   8.143   9.546
22683TIP3    H267927   4.670   8.250   9.592
22684TIP3   OH267928   5.087   8.848   8.232
22684TIP3    H167929   5.057   8.817   8.145
22684TIP3    H267930   5.172   8.890   8.207
22685TIP3   OH267931   4.803   8.217   8.536
22685TIP3    H167932   4.771   8.214   8.629
22685TIP3    H267933   4.766   8.132   8.504
22686TIP3   OH267934   4.481   8.571   9.090
22686TIP3    H167935   4.387   8.544   9.107
22686TIP3    H267936   4.493   8.529   9.002
22687TIP3   OH267937   4.954   8.659   8.813
22687TIP3    H167938   4.904   8.728   8.769
22687TIP3    H267939   5.013   8.626   8.742
22688TIP3   OH267940   5.089   8.672   9.076
22688TIP3    H167941   5.059   8.716   8.995
22688TIP3    H267942   5.140   8.599   9.036
22689TIP3   OH267943   4.457   8.187   8.503
22689TIP3    H167944   4.453   8.184   8.601
22689TIP3    H267945   4.379   8.242   8.484
22690TIP3   OH267946   4.004   8.225   9.359
22690TIP3    H167947   4.075   8.259   9.417
22690TIP3    H267948   4.054   8.186   9.286
22691TIP3   OH267949   3.978   8.213   8.893
22691TIP3    H167950   4.024   8.252   8.816
22691TIP3    H267951   3.916   8.286   8.914
22692TIP3   OH267952   4.805   8.384   9.156
22692TIP3    H167953   4.720   8.382   9.205
22692TIP3    H267954   4.868   8.397   9.229
22693TIP3   OH267955   4.252   8.454   9.165
22693TIP3    H167956   4.155   8.462   9.150
22693TIP3    H267957   4.267   8.358   9.154
22694TIP3   OH267958   4.508   8.441   8.853
22694TIP3    H167959   4.601   8.457   8.830
22694TIP3    H267960   4.459   8.463   8.770
22695TIP3   OH267961   5.289   8.436   9.377
22695TIP3    H167962   5.226   8.477   9.437
22695TIP3    H267963   5.229   8.383   9.321
22696TIP3   OH267964   4.346   8.464   8.633
22696TIP3    H167965   4.273   8.428   8.580
22696TIP3    H267966   4.397   8.512   8.564
22697TIP3   OH267967   4.889   8.704   9.263
22697TIP3    H167968   4.963   8.695   9.199
22697TIP3    H267969   4.924   8.656   9.340
22698TIP3   OH267970   4.411   8.203   9.135
22698TIP3    H167971   4.375   8.125   9.184
22698TIP3    H267972   4.458   8.161   9.062
22699TIP3   OH267973   4.876   8.613   9.565
22699TIP3    H167974   4.791   8.660   9.564
22699TIP3    H267975   4.932   8.671   9.618
22700TIP3   OH267976   5.054   8.317   8.500
22700TIP3    H167977   4.958   8.300   8.510
22700TIP3    H267978   5.063   8.411   8.528
22701TIP3   OH267979   5.118   8.559   8.609
22701TIP3    H167980   5.216   8.558   8.620
22701TIP3    H267981   5.103   8.639   8.554
22702TIP3   OH267982   4.734   9.161   8.446
22702TIP3    H167983   4.685   9.237   8.482
22702TIP3    H267984   4.714   9.096   8.518
22703TIP3   OH267985   5.561   8.634   8.441
22703TIP3    H167986   5.495   8.603   8.375
22703TIP3    H267987   5.567   8.728   8.414
22704TIP3   OH267988   5.280   9.455   8.365
22704TIP3    H167989   5.240   9.371   8.391
22704TIP3    H267990   5.293   9.442   8.269
22705TIP3   OH267991   3.951   8.635   8.643
22705TIP3    H167992   4.000   8.717   8.662
22705TIP3    H267993   3.878   8.642   8.707
22706TIP3   OH267994   5.020   9.201   8.256
22706TIP3    H167995   5.074   9.179   8.335
22706TIP3    H267996   4.933   9.171   8.285
22707TIP3   OH267997   5.314   9.643   8.046
22707TIP3    H167998   5.331   9.704   7.972
22707TIP3    H267999   5.280   9.707   8.112
22708TIP3   OH268000   5.183   9.147   8.475
22708TIP3    H168001   5.164   9.076   8.540
22708TIP3    H268002   5.280   9.138   8.467
22709TIP3   OH268003   4.384   9.183   8.255
22709TIP3    H168004   4.403   9.092   8.224
22709TIP3    H268005   4.371   9.167   8.351
22710TIP3   OH268006   4.345   9.182   8.533
22710TIP3    H168007   4.402   9.119   8.581
22710TIP3    H268008   4.374   9.265   8.573
22711TIP3   OH268009   4.054   8.882   8.730
22711TIP3    H168010   4.043   8.949   8.799
22711TIP3    H268011   4.086   8.937   8.656
22712TIP3   OH268012   5.097   8.270   8.784
22712TIP3    H168013   5.084   8.293   8.690
22712TIP3    H268014   5.134   8.353   8.821
22713TIP3   OH268015   4.584   9.410   8.491
22713TIP3    H168016   4.505   9.456   8.459
22713TIP3    H268017   4.647   9.433   8.421
22714TIP3   OH268018   4.792   8.448   8.887
22714TIP3    H168019   4.856   8.521   8.869
22714TIP3    H268020   4.796   8.442   8.984
22715TIP3   OH268021   4.935   8.179   8.993
22715TIP3    H168022   4.916   8.259   9.046
22715TIP3    H268023   4.994   8.215   8.924
22716TIP3   OH268024   4.445   8.173   8.780
22716TIP3    H168025   4.442   8.264   8.815
22716TIP3    H268026   4.541   8.155   8.789
22717TIP3   OH268027   4.055   9.093   8.528
22717TIP3    H168028   4.112   9.170   8.545
22717TIP3    H268029   4.113   9.040   8.469
22718TIP3   OH268030   4.007   8.365   8.668
22718TIP3    H168031   4.008   8.462   8.660
22718TIP3    H268032   3.925   8.341   8.624
22719TIP3   OH268033   4.399   8.084   9.545
22719TIP3    H168034   4.364   8.055   9.458
22719TIP3    H268035   4.383   8.004   9.600
22720TIP3   OH268036   4.556   9.381   8.173
22720TIP3    H168037   4.498   9.307   8.203
22720TIP3    H268038   4.629   9.331   8.132
22721TIP3   OH268039   4.992   9.422   8.072
22721TIP3    H168040   5.039   9.362   8.132
22721TIP3    H268041   5.051   9.424   7.994
22722TIP3   OH268042   4.198   8.903   8.390
22722TIP3    H168043   4.249   8.861   8.463
22722TIP3    H268044   4.268   8.906   8.321
22723TIP3   OH268045   4.698   9.097   8.187
22723TIP3    H168046   4.704   9.113   8.284
22723TIP3    H268047   4.702   8.999   8.185
22724TIP3   OH268048   4.354   8.793   8.586
22724TIP3    H168049   4.402   8.815   8.668
22724TIP3    H268050   4.415   8.729   8.545
22725TIP3   OH268051   4.506   8.598   8.452
22725TIP3    H168052   4.482   8.601   8.357
22725TIP3    H268053   4.604   8.606   8.446
22726TIP3   OH268054   5.325   8.932   8.111
22726TIP3    H168055   5.306   8.884   8.028
22726TIP3    H268056   5.291   9.021   8.085
22727TIP3   OH268057   4.765   8.382   9.696
22727TIP3    H168058   4.816   8.452   9.651
22727TIP3    H268059   4.742   8.426   9.781
22728TIP3   OH268060   4.335   9.678   8.349
22728TIP3    H168061   4.424   9.662   8.311
22728TIP3    H268062   4.283   9.702   8.271
22729TIP3   OH268063   3.790   9.032   8.559
22729TIP3    H168064   3.885   9.057   8.552
22729TIP3    H268065   3.790   8.944   8.516
22730TIP3   OH268066   5.467   9.116   8.462
22730TIP3    H168067   5.544   9.151   8.415
22730TIP3    H268068   5.505   9.087   8.546
22731TIP3   OH268069   5.526   8.896   8.292
22731TIP3    H168070   5.454   8.896   8.224
22731TIP3    H268071   5.489   8.961   8.355
22732TIP3   OH268072   5.387   8.569   8.242
22732TIP3    H168073   5.348   8.600   8.160
22732TIP3    H268074   5.367   8.473   8.237
22733TIP3   OH268075   5.467   8.789   8.721
22733TIP3    H168076   5.419   8.706   8.732
22733TIP3    H268077   5.425   8.849   8.786
22734TIP3   OH268078   5.342   8.301   8.234
22734TIP3    H168079   5.420   8.273   8.286
22734TIP3    H268080   5.272   8.241   8.263
22735TIP3   OH268081   5.388   8.529   8.680
22735TIP3    H168082   5.432   8.442   8.695
22735TIP3    H268083   5.451   8.568   8.616
22736TIP3   OH268084   5.511   8.293   8.727
22736TIP3    H168085   5.560   8.278   8.810
22736TIP3    H268086   5.448   8.217   8.729
22737TIP3   OH268087   4.214   8.290   9.514
22737TIP3    H168088   4.274   8.221   9.546
22737TIP3    H268089   4.231   8.362   9.576
22738TIP3   OH268090   5.588   8.246   8.355
22738TIP3    H168091   5.631   8.171   8.310
22738TIP3    H268092   5.658   8.313   8.356
22739TIP3   OH268093   3.995   8.063   9.115
22739TIP3    H168094   3.904   8.070   9.150
22739TIP3    H268095   3.993   8.126   9.040
22740TIP3   OH268096   5.064   8.285   9.289
22740TIP3    H168097   5.010   8.215   9.330
22740TIP3    H268098   5.121   8.235   9.229
22741TIP3   OH268099   5.569   8.192   9.209
22741TIP3    H168100   5.612   8.219   9.124
22741TIP3    H268101   5.476   8.184   9.181
22742TIP3   OH268102   5.667   8.254   8.958
22742TIP3    H168103   5.741   8.201   8.921
22742TIP3    H268104   5.694   8.342   8.924
22743TIP3   OH268105   4.306   7.994   9.292
22743TIP3    H168106   4.214   7.961   9.296
22743TIP3    H268107   4.355   7.909   9.290
22744TIP3   OH268108   4.087   7.863   8.938
22744TIP3    H168109   4.121   7.922   8.869
22744TIP3    H268110   4.061   7.927   9.008
22745TIP3   OH268111   4.748   8.027   9.171
22745TIP3    H168112   4.809   8.078   9.116
22745TIP3    H268113   4.766   8.063   9.260
22746TIP3   OH268114   5.296   8.170   9.151
22746TIP3    H168115   5.287   8.131   9.063
22746TIP3    H268116   5.281   8.092   9.209
22747TIP3   OH268117   5.324   8.092   8.720
22747TIP3    H168118   5.237   8.134   8.729
22747TIP3    H268119   5.309   8.007   8.766
22748TIP3   OH268120   4.209   8.026   8.702
22748TIP3    H168121   4.258   7.962   8.648
22748TIP3    H268122   4.282   8.079   8.740
22749TIP3   OH268123   4.722   8.198   8.802
22749TIP3    H168124   4.780   8.150   8.863
22749TIP3    H268125   4.744   8.290   8.828
22750TIP3   OH268126   4.589   9.628   8.276
22750TIP3    H168127   4.681   9.640   8.244
22750TIP3    H268128   4.570   9.542   8.233
22751TIP3   OH268129   5.774   8.799   8.559
22751TIP3    H168130   5.762   8.839   8.648
22751TIP3    H268131   5.707   8.729   8.561
22752TIP3   OH268132   6.568   8.482   7.977
22752TIP3    H168133   6.612   8.488   8.064
22752TIP3    H268134   6.537   8.389   7.977
22753TIP3   OH268135   6.241   8.435   7.983
22753TIP3    H168136   6.239   8.432   8.080
22753TIP3    H268137   6.172   8.500   7.965
22754TIP3   OH268138   5.766   8.455   8.812
22754TIP3    H168139   5.846   8.504   8.839
22754TIP3    H268140   5.800   8.412   8.732
22755TIP3   OH268141   5.781   8.476   8.379
22755TIP3    H168142   5.818   8.517   8.298
22755TIP3    H268143   5.714   8.543   8.403
22756TIP3   OH268144   6.147   8.689   8.121
22756TIP3    H168145   6.071   8.669   8.064
22756TIP3    H268146   6.195   8.754   8.067
22757TIP3   OH268147   5.745   8.887   8.131
22757TIP3    H168148   5.799   8.958   8.169
22757TIP3    H268149   5.667   8.889   8.191
22758TIP3   OH268150   6.238   8.415   8.258
22758TIP3    H168151   6.226   8.496   8.309
22758TIP3    H268152   6.327   8.388   8.283
22759TIP3   OH268153   5.802   8.620   8.150
22759TIP3    H168154   5.801   8.718   8.147
22759TIP3    H268155   5.715   8.598   8.116
22760TIP3   OH268156   5.982   9.163   7.849
22760TIP3    H168157   6.038   9.147   7.927
22760TIP3    H268158   6.049   9.151   7.778
22761TIP3   OH268159   6.306   8.844   7.934
22761TIP3    H168160   6.253   8.831   7.853
22761TIP3    H268161   6.389   8.873   7.893
22762TIP3   OH268162   5.587   9.314   8.015
22762TIP3    H168163   5.655   9.328   8.083
22762TIP3    H268164   5.593   9.218   7.995
22763TIP3   OH268165   5.780   8.304   8.584
22763TIP3    H168166   5.689   8.315   8.615
22763TIP3    H268167   5.789   8.374   8.516
22764TIP3   OH268168   6.082   8.228   8.707
22764TIP3    H168169   5.991   8.199   8.731
22764TIP3    H268170   6.134   8.148   8.728
22765TIP3   OH268171   5.884   8.111   8.419
22765TIP3    H168172   5.919   8.172   8.351
22765TIP3    H268173   5.856   8.174   8.489
22766TIP3   OH268174   6.001   8.276   8.186
22766TIP3    H168175   6.049   8.213   8.129
22766TIP3    H268176   6.076   8.328   8.223
22767TIP3   OH268177   4.986  10.100   7.907
22767TIP3    H168178   5.052  10.042   7.867
22767TIP3    H268179   4.901  10.055   7.888
22768TIP3   OH268180   4.957   9.877   8.333
22768TIP3    H168181   4.888   9.939   8.305
22768TIP3    H268182   4.902   9.800   8.359
   9.80000   9.23953   8.00167   0.00000   0.00000  -3.26667   0.00000  -3.26667  -4.61976
